Protein in INSANE! Membrane UpperLeaflet>POPC=1.0 LowerLeaflet>POPC=1.0
239324
   85AUC    AUC    1   1.514  13.481   7.503
   86AUC    AUC    2   1.759  13.481   7.351
   87AUC    AUC    3   1.759  13.481   7.654
   88AUC    AUC    4   1.269  13.481   7.351
   89AUC    AUC    5   1.269  13.481   7.654
   90AUC    AUC    6   1.362  13.727   7.503
   91AUC    AUC    7   1.666  13.727   7.503
   92AUC    AUC    8   1.362  13.236   7.503
   93AUC    AUC    9   1.666  13.236   7.503
   94AUC    AUC   10   1.514  13.330   7.748
   95AUC    AUC   11   1.514  13.633   7.748
   96AUC    AUC   12   1.514  13.330   7.257
   97AUC    AUC   13   1.514  13.633   7.257
   98AUC    AUC   14   2.005  13.481   7.199
   99AUC    AUC   15   2.005  13.481   7.503
  100AUC    AUC   16   2.005  13.481   7.806
  101AUC    AUC   17   1.023  13.481   7.199
  102AUC    AUC   18   1.023  13.481   7.503
  103AUC    AUC   19   1.023  13.481   7.806
  104AUC    AUC   20   1.211  13.972   7.503
  105AUC    AUC   21   1.514  13.972   7.503
  106AUC    AUC   22   1.817  13.972   7.503
  107AUC    AUC   23   1.211  12.991   7.503
  108AUC    AUC   24   1.514  12.991   7.503
  109AUC    AUC   25   1.817  12.991   7.503
  110AUC    AUC   26   1.514  13.178   7.993
  111AUC    AUC   27   1.514  13.481   7.993
  112AUC    AUC   28   1.514  13.785   7.993
  113AUC    AUC   29   1.514  13.178   7.012
  114AUC    AUC   30   1.514  13.481   7.012
  115AUC    AUC   31   1.514  13.785   7.012
  116AUC    AUC   32   1.759  13.330   7.900
  117AUC    AUC   33   1.759  13.633   7.900
  118AUC    AUC   34   1.759  13.330   7.106
  119AUC    AUC   35   1.759  13.633   7.106
  120AUC    AUC   36   1.269  13.330   7.900
  121AUC    AUC   37   1.269  13.633   7.900
  122AUC    AUC   38   1.269  13.330   7.106
  123AUC    AUC   39   1.269  13.633   7.106
  124AUC    AUC   40   1.911  13.727   7.351
  125AUC    AUC   41   1.911  13.727   7.654
  126AUC    AUC   42   1.117  13.727   7.351
  127AUC    AUC   43   1.117  13.727   7.654
  128AUC    AUC   44   1.911  13.236   7.351
  129AUC    AUC   45   1.911  13.236   7.654
  130AUC    AUC   46   1.117  13.236   7.351
  131AUC    AUC   47   1.117  13.236   7.654
  132AUC    AUC   48   1.362  13.879   7.748
  133AUC    AUC   49   1.666  13.879   7.748
  134AUC    AUC   50   1.362  13.084   7.748
  135AUC    AUC   51   1.666  13.084   7.748
  136AUC    AUC   52   1.362  13.879   7.257
  137AUC    AUC   53   1.666  13.879   7.257
  138AUC    AUC   54   1.362  13.084   7.257
  139AUC    AUC   55   1.666  13.084   7.257
  140AUSL   AUS   56   1.923  13.481   8.083
  141AUSL   AUS   57   1.779  13.065   8.013
  142AUL    AUL   58   2.005  13.178   8.297
  143THSLK    S   59   1.889  12.878   8.153
  144ETHY    C1   60   1.925  12.479   8.368
  145ETHY    C1   61   2.035  12.049   8.665
  146ETHY    C1   62   2.213  11.685   9.000
  147ETHY    C1   63   2.447  11.389   9.364
  148ETHY    C1   64   2.733  11.172   9.752
  149ETHY    C1   65   3.064  11.039  10.156
  150THSLK    S   66   2.016  13.429   8.324
  151ETHY    C1   67   2.220  13.209   8.665
  152ETHY    C1   68   2.484  13.032   9.094
  153ETHY    C1   69   2.760  12.956   9.535
  154ETHY    C1   70   3.037  12.973   9.980
  155ETHY    C1   71   3.307  13.086  10.419
  156ETHY    C1   72   3.566  13.295  10.845
  157AUSL   AUS   73   1.678  13.330   8.176
  158AUSL   AUS   74   1.350  13.633   8.176
  159AUL    AUL   75   1.514  13.481   8.484
  160THSLK    S   76   1.753  13.275   8.413
  161ETHY    C1   77   1.817  12.995   8.765
  162ETHY    C1   78   1.920  12.740   9.223
  163ETHY    C1   79   2.047  12.581   9.708
  164ETHY    C1   80   2.189  12.512  10.208
  165ETHY    C1   81   2.343  12.540  10.713
  166ETHY    C1   82   2.503  12.664  11.212
  167THSLK    S   83   1.265  13.587   8.428
  168ETHY    C1   84   1.191  13.437   8.850
  169ETHY    C1   85   1.086  13.349   9.367
  170ETHY    C1   86   0.964  13.361   9.878
  171ETHY    C1   87   0.826  13.462  10.373
  172ETHY    C1   88   0.671  13.655  10.840
  173ETHY    C1   89   0.502  13.936  11.268
  174AUSL   AUS   90   1.678  13.633   8.176
  175AUSL   AUS   91   2.024  13.746   7.919
  176AUL    AUL   92   2.005  13.785   8.297
  177THSLK    S   93   1.763  13.689   8.410
  178ETHY    C1   94   1.837  13.970   8.759
  179ETHY    C1   95   1.942  14.225   9.217
  180ETHY    C1   96   2.064  14.384   9.703
  181ETHY    C1   97   2.203  14.453  10.204
  182ETHY    C1   98   2.357  14.426  10.708
  183ETHY    C1   99   2.526  14.302  11.206
  184THSLK    S  100   2.196  13.844   8.080
  185ETHY    C1  101   2.559  13.815   8.350
  186ETHY    C1  102   2.981  13.871   8.673
  187ETHY    C1  103   3.373  14.025   8.989
  188ETHY    C1  104   3.727  14.263   9.293
  189ETHY    C1  105   4.034  14.584   9.580
  190ETHY    C1  106   4.285  14.981   9.844
  191AUSL   AUS  107   1.923  13.481   6.923
  192AUSL   AUS  108   1.779  13.898   6.992
  193AUL    AUL  109   2.005  13.785   6.708
  194THSLK    S  110   2.025  13.429   6.687
  195ETHY    C1  111   2.238  13.209   6.351
  196ETHY    C1  112   2.503  13.032   5.923
  197ETHY    C1  113   2.775  12.956   5.479
  198ETHY    C1  114   3.049  12.973   5.033
  199ETHY    C1  115   3.320  13.086   4.594
  200ETHY    C1  116   3.585  13.295   4.173
  201THSLK    S  117   1.957  14.009   6.829
  202ETHY    C1  118   2.259  14.077   6.497
  203ETHY    C1  119   2.578  14.240   6.100
  204ETHY    C1  120   2.843  14.487   5.719
  205ETHY    C1  121   3.055  14.807   5.362
  206ETHY    C1  122   3.208  15.197   5.039
  207ETHY    C1  123   3.299  15.649   4.759
  208AUSL   AUS  124   1.678  13.330   6.829
  209AUSL   AUS  125   2.024  13.217   7.086
  210AUL    AUL  126   2.005  13.178   6.708
  211THSLK    S  127   2.157  13.025   6.949
  212ETHY    C1  128   2.340  12.658   6.752
  213ETHY    C1  129   2.612  12.286   6.483
  214ETHY    C1  130   2.937  11.997   6.186
  215ETHY    C1  131   3.303  11.790   5.874
  216ETHY    C1  132   3.707  11.671   5.555
  217ETHY    C1  133   4.140  11.646   5.235
  218THSLK    S  134   1.763  13.274   6.596
  219ETHY    C1  135   1.837  12.993   6.246
  220ETHY    C1  136   1.942  12.737   5.788
  221ETHY    C1  137   2.064  12.579   5.302
  222ETHY    C1  138   2.203  12.510   4.801
  223ETHY    C1  139   2.357  12.537   4.297
  224ETHY    C1  140   2.526  12.661   3.799
  225AUSL   AUS  141   1.678  13.633   6.829
  226AUSL   AUS  142   1.350  13.330   6.829
  227AUL    AUL  143   1.514  13.481   6.521
  228THSLK    S  144   1.258  13.274   6.597
  229ETHY    C1  145   1.123  12.996   6.264
  230ETHY    C1  146   0.962  12.743   5.822
  231ETHY    C1  147   0.810  12.586   5.343
  232ETHY    C1  148   0.674  12.517   4.842
  233ETHY    C1  149   0.557  12.543   4.328
  234ETHY    C1  150   0.464  12.662   3.810
  235THSLK    S  151   1.780  13.587   6.583
  236ETHY    C1  152   1.926  13.437   6.179
  237ETHY    C1  153   2.088  13.346   5.678
  238ETHY    C1  154   2.235  13.356   5.173
  239ETHY    C1  155   2.368  13.457   4.677
  240ETHY    C1  156   2.485  13.652   4.200
  241ETHY    C1  157   2.586  13.938   3.754
  242AUSL   AUS  158   1.105  13.481   8.083
  243AUSL   AUS  159   1.249  13.898   8.013
  244AUL    AUL  160   1.023  13.785   8.297
  245THSLK    S  161   1.003  13.429   8.319
  246ETHY    C1  162   0.791  13.209   8.654
  247ETHY    C1  163   0.525  13.032   9.082
  248ETHY    C1  164   0.253  12.956   9.526
  249ETHY    C1  165  -0.021  12.973   9.973
  250ETHY    C1  166  -0.292  13.086  10.411
  251ETHY    C1  167  -0.557  13.295  10.832
  252THSLK    S  168   1.132  14.022   8.202
  253ETHY    C1  169   1.089  14.165   8.632
  254ETHY    C1  170   0.978  14.390   9.104
  255ETHY    C1  171   0.802  14.667   9.515
  256ETHY    C1  172   0.571  14.983   9.863
  257ETHY    C1  173   0.285  15.331  10.138
  258ETHY    C1  174  -0.052  15.704  10.334
  259AUSL   AUS  175   1.350  13.330   8.176
  260AUSL   AUS  176   1.004  13.217   7.919
  261AUL    AUL  177   1.023  13.178   8.297
  262THSLK    S  178   0.827  13.054   8.026
  263ETHY    C1  179   0.456  12.797   8.082
  264ETHY    C1  180   0.034  12.509   8.237
  265ETHY    C1  181  -0.356  12.254   8.482
  266ETHY    C1  182  -0.708  12.037   8.803
  267ETHY    C1  183  -1.014  11.866   9.198
  268ETHY    C1  184  -1.271  11.745   9.657
  269THSLK    S  185   1.248  13.276   8.406
  270ETHY    C1  186   1.102  13.000   8.736
  271ETHY    C1  187   0.940  12.748   9.178
  272ETHY    C1  188   0.793  12.590   9.658
  273ETHY    C1  189   0.660  12.520  10.160
  274ETHY    C1  190   0.543  12.546  10.674
  275ETHY    C1  191   0.442  12.667  11.190
  276AUSL   AUS  192   1.105  13.481   6.923
  277AUSL   AUS  193   1.249  13.065   6.992
  278AUL    AUL  194   1.023  13.178   6.708
  279THSLK    S  195   1.012  13.429   6.681
  280ETHY    C1  196   0.808  13.209   6.341
  281ETHY    C1  197   0.544  13.032   5.911
  282ETHY    C1  198   0.268  12.956   5.470
  283ETHY    C1  199  -0.009  12.973   5.025
  284ETHY    C1  200  -0.279  13.086   4.586
  285ETHY    C1  201  -0.538  13.295   4.161
  286THSLK    S  202   1.078  12.892   6.878
  287ETHY    C1  203   0.783  12.566   6.760
  288ETHY    C1  204   0.465  12.199   6.538
  289ETHY    C1  205   0.197  11.864   6.233
  290ETHY    C1  206  -0.017  11.564   5.861
  291ETHY    C1  207  -0.169  11.306   5.426
  292ETHY    C1  208  -0.255  11.094   4.937
  293AUSL   AUS  209   1.350  13.633   6.829
  294AUSL   AUS  210   1.004  13.746   7.086
  295AUL    AUL  211   1.023  13.785   6.708
  296THSLK    S  212   0.877  13.873   6.895
  297ETHY    C1  213   0.700  13.954   6.484
  298ETHY    C1  214   0.429  14.094   6.046
  299ETHY    C1  215   0.102  14.282   5.679
  300ETHY    C1  216  -0.267  14.511   5.385
  301ETHY    C1  217  -0.669  14.778   5.173
  302ETHY    C1  218  -1.098  15.080   5.047
  303THSLK    S  219   1.275  13.589   6.576
  304ETHY    C1  220   1.211  13.442   6.150
  305ETHY    C1  221   1.108  13.353   5.634
  306ETHY    C1  222   0.981  13.364   5.123
  307ETHY    C1  223   0.839  13.465   4.629
  308ETHY    C1  224   0.686  13.658   4.162
  309ETHY    C1  225   0.525  13.941   3.732
  310AUSL   AUS  226   2.094  13.890   7.503
  311AUSL   AUS  227   2.024  13.746   7.086
  312AUL    AUL  228   2.308  13.972   7.199
  313THSLK    S  229   2.202  13.845   6.934
  314ETHY    C1  230   2.572  13.818   6.671
  315ETHY    C1  231   2.994  13.874   6.349
  316ETHY    C1  232   3.384  14.028   6.030
  317ETHY    C1  233   3.736  14.265   5.724
  318ETHY    C1  234   4.043  14.586   5.438
  319ETHY    C1  235   4.299  14.985   5.179
  320THSLK    S  236   2.360  13.943   7.508
  321ETHY    C1  237   2.814  13.965   7.513
  322ETHY    C1  238   3.336  14.079   7.514
  323ETHY    C1  239   3.819  14.288   7.511
  324ETHY    C1  240   4.255  14.578   7.510
  325ETHY    C1  241   4.634  14.945   7.510
  326ETHY    C1  242   4.948  15.385   7.514
  327AUSL   AUS  243   2.188  13.645   7.351
  328AUSL   AUS  244   2.188  13.318   7.654
  329AUL    AUL  245   2.496  13.481   7.503
  330THSLK    S  246   2.444  13.684   7.350
  331ETHY    C1  247   2.880  13.576   7.286
  332ETHY    C1  248   3.406  13.538   7.201
  333ETHY    C1  249   3.921  13.602   7.113
  334ETHY    C1  250   4.415  13.756   7.026
  335ETHY    C1  251   4.875  14.001   6.945
  336ETHY    C1  252   5.294  14.333   6.873
  337THSLK    S  253   2.415  13.178   7.663
  338ETHY    C1  254   2.734  12.862   7.728
  339ETHY    C1  255   3.167  12.558   7.807
  340ETHY    C1  256   3.642  12.348   7.887
  341ETHY    C1  257   4.145  12.227   7.971
  342ETHY    C1  258   4.665  12.201   8.058
  343ETHY    C1  259   5.193  12.271   8.147
  344AUSL   AUS  260   2.188  13.645   7.654
  345AUSL   AUS  261   1.930  13.992   7.767
  346AUL    AUL  262   2.308  13.972   7.806
  347THSLK    S  263   2.113  14.106   7.926
  348ETHY    C1  264   2.496  14.224   8.140
  349ETHY    C1  265   2.914  14.447   8.388
  350ETHY    C1  266   3.273  14.752   8.622
  351ETHY    C1  267   3.570  15.125   8.840
  352ETHY    C1  268   3.795  15.559   9.038
  353ETHY    C1  269   3.942  16.047   9.215
  354THSLK    S  270   2.442  13.684   7.665
  355ETHY    C1  271   2.877  13.576   7.740
  356ETHY    C1  272   3.403  13.538   7.826
  357ETHY    C1  273   3.918  13.601   7.910
  358ETHY    C1  274   4.412  13.755   7.993
  359ETHY    C1  275   4.873  14.000   8.075
  360ETHY    C1  276   5.290  14.332   8.155
  361AUSL   AUS  277   0.934  13.890   7.503
  362AUSL   AUS  278   1.004  13.746   7.919
  363AUL    AUL  279   0.720  13.972   7.806
  364THSLK    S  280   0.871  13.865   8.109
  365ETHY    C1  281   0.688  13.937   8.519
  366ETHY    C1  282   0.416  14.077   8.957
  367ETHY    C1  283   0.091  14.268   9.324
  368ETHY    C1  284  -0.275  14.499   9.619
  369ETHY    C1  285  -0.678  14.766   9.831
  370ETHY    C1  286  -1.112  15.062   9.956
  371THSLK    S  287   0.723  14.031   7.508
  372ETHY    C1  288   0.501  14.428   7.513
  373ETHY    C1  289   0.165  14.843   7.514
  374ETHY    C1  290  -0.238  15.182   7.511
  375ETHY    C1  291  -0.692  15.443   7.510
  376ETHY    C1  292  -1.191  15.617   7.510
  377ETHY    C1  293  -1.724  15.701   7.514
  378AUSL   AUS  294   0.840  13.645   7.351
  379AUSL   AUS  295   1.098  13.992   7.238
  380AUL    AUL  296   0.720  13.972   7.199
  381THSLK    S  297   0.613  13.760   7.303
  382ETHY    C1  298   0.294  13.960   7.049
  383ETHY    C1  299  -0.139  14.166   6.813
  384ETHY    C1  300  -0.614  14.332   6.661
  385ETHY    C1  301  -1.117  14.461   6.590
  386ETHY    C1  302  -1.637  14.551   6.605
  387ETHY    C1  303  -2.165  14.599   6.708
  388THSLK    S  304   0.986  14.155   7.060
  389ETHY    C1  305   0.907  14.465   6.737
  390ETHY    C1  306   0.732  14.839   6.397
  391ETHY    C1  307   0.478  15.207   6.120
  392ETHY    C1  308   0.158  15.564   5.909
  393ETHY    C1  309  -0.223  15.902   5.770
  394ETHY    C1  310  -0.658  16.216   5.709
  395AUSL   AUS  311   0.840  13.645   7.654
  396AUSL   AUS  312   0.840  13.318   7.351
  397AUL    AUL  313   0.532  13.481   7.503
  398THSLK    S  314   0.586  13.245   7.394
  399ETHY    C1  315   0.151  13.227   7.524
  400ETHY    C1  316  -0.375  13.167   7.597
  401ETHY    C1  317  -0.890  13.063   7.578
  402ETHY    C1  318  -1.384  12.920   7.477
  403ETHY    C1  319  -1.844  12.737   7.294
  404ETHY    C1  320  -2.262  12.517   7.034
  405THSLK    S  321   0.612  13.751   7.707
  406ETHY    C1  322   0.291  13.942   7.966
  407ETHY    C1  323  -0.142  14.146   8.202
  408ETHY    C1  324  -0.617  14.317   8.352
  409ETHY    C1  325  -1.119  14.449   8.422
  410ETHY    C1  326  -1.639  14.537   8.407
  411ETHY    C1  327  -2.168  14.578   8.308
  412AUSL   AUS  328   2.094  13.072   7.503
  413AUSL   AUS  329   2.024  13.217   7.919
  414AUL    AUL  330   2.308  12.991   7.806
  415THSLK    S  331   2.305  12.931   7.508
  416ETHY    C1  332   2.527  12.535   7.513
  417ETHY    C1  333   2.863  12.120   7.514
  418ETHY    C1  334   3.266  11.781   7.511
  419ETHY    C1  335   3.720  11.520   7.510
  420ETHY    C1  336   4.219  11.346   7.510
  421ETHY    C1  337   4.752  11.262   7.514
  422THSLK    S  338   2.151  13.026   8.064
  423ETHY    C1  339   2.328  12.661   8.270
  424ETHY    C1  340   2.599  12.289   8.540
  425ETHY    C1  341   2.926  12.000   8.834
  426ETHY    C1  342   3.295  11.792   9.142
  427ETHY    C1  343   3.697  11.674   9.462
  428ETHY    C1  344   4.126  11.649   9.789
  429AUSL   AUS  345   2.188  13.318   7.351
  430AUSL   AUS  346   1.930  12.971   7.238
  431AUL    AUL  347   2.308  12.991   7.199
  432THSLK    S  348   2.416  13.178   7.353
  433ETHY    C1  349   2.737  12.861   7.298
  434ETHY    C1  350   3.170  12.558   7.221
  435ETHY    C1  351   3.645  12.348   7.136
  436ETHY    C1  352   4.147  12.227   7.048
  437ETHY    C1  353   4.667  12.200   6.963
  438ETHY    C1  354   5.196  12.271   6.881
  439THSLK    S  355   2.046  12.782   7.108
  440ETHY    C1  356   2.130  12.353   6.984
  441ETHY    C1  357   2.305  11.881   6.803
  442ETHY    C1  358   2.558  11.470   6.593
  443ETHY    C1  359   2.876  11.122   6.366
  444ETHY    C1  360   3.258  10.847   6.126
  445ETHY    C1  361   3.696  10.650   5.880
  446AUSL   AUS  362   0.934  13.072   7.503
  447AUSL   AUS  363   1.004  13.217   7.086
  448AUL    AUL  364   0.720  12.991   7.199
  449THSLK    S  365   0.833  13.046   6.978
  450ETHY    C1  366   0.469  12.781   6.921
  451ETHY    C1  367   0.047  12.491   6.766
  452ETHY    C1  368  -0.345  12.239   6.521
  453ETHY    C1  369  -0.699  12.026   6.200
  454ETHY    C1  370  -1.006  11.853   5.806
  455ETHY    C1  371  -1.257  11.726   5.346
  456THSLK    S  372   0.668  13.020   7.508
  457ETHY    C1  373   0.214  12.998   7.513
  458ETHY    C1  374  -0.308  12.884   7.514
  459ETHY    C1  375  -0.790  12.675   7.511
  460ETHY    C1  376  -1.227  12.385   7.510
  461ETHY    C1  377  -1.606  12.018   7.510
  462ETHY    C1  378  -1.919  11.578   7.514
  463AUSL   AUS  379   0.840  13.318   7.654
  464AUSL   AUS  380   1.098  12.971   7.767
  465AUL    AUL  381   0.720  12.991   7.806
  466THSLK    S  382   0.910  12.831   7.878
  467ETHY    C1  383   0.523  12.594   7.893
  468ETHY    C1  384   0.105  12.274   7.982
  469ETHY    C1  385  -0.253  11.925   8.149
  470ETHY    C1  386  -0.548  11.561   8.382
  471ETHY    C1  387  -0.773  11.190   8.683
  472ETHY    C1  388  -0.924  10.819   9.045
  473THSLK    S  389   0.584  13.255   7.616
  474ETHY    C1  390   0.148  13.245   7.491
  475ETHY    C1  391  -0.378  13.186   7.419
  476ETHY    C1  392  -0.893  13.079   7.436
  477ETHY    C1  393  -1.387  12.933   7.535
  478ETHY    C1  394  -1.847  12.751   7.718
  479ETHY    C1  395  -2.266  12.538   7.983
  480AUSL   AUS  396   1.514  14.061   7.912
  481AUSL   AUS  397   1.098  13.992   7.767
  482AUL    AUL  398   1.211  14.276   7.993
  483THSLK    S  399   0.982  14.148   7.952
  484ETHY    C1  400   0.898  14.450   8.280
  485ETHY    C1  401   0.723  14.823   8.621
  486ETHY    C1  402   0.470  15.194   8.895
  487ETHY    C1  403   0.152  15.553   9.105
  488ETHY    C1  404  -0.230  15.891   9.244
  489ETHY    C1  405  -0.668  16.199   9.309
  490THSLK    S  406   1.556  14.283   8.035
  491ETHY    C1  407   1.740  14.558   8.347
  492ETHY    C1  408   1.890  14.938   8.691
  493ETHY    C1  409   1.956  15.361   8.998
  494ETHY    C1  410   1.943  15.812   9.264
  495ETHY    C1  411   1.846  16.281   9.485
  496ETHY    C1  412   1.666  16.760   9.656
  497AUSL   AUS  413   1.362  14.155   7.666
  498AUSL   AUS  414   1.666  14.155   7.339
  499AUL    AUL  415   1.514  14.463   7.503
  500THSLK    S  416   1.405  14.399   7.776
  501ETHY    C1  417   1.549  14.793   7.951
  502ETHY    C1  418   1.636  15.287   8.137
  503ETHY    C1  419   1.624  15.788   8.294
  504ETHY    C1  420   1.523  16.286   8.425
  505ETHY    C1  421   1.331  16.767   8.527
  506ETHY    C1  422   1.051  17.222   8.600
  507THSLK    S  423   1.721  14.386   7.243
  508ETHY    C1  424   1.997  14.716   7.096
  509ETHY    C1  425   2.247  15.157   6.927
  510ETHY    C1  426   2.403  15.634   6.771
  511ETHY    C1  427   2.472  16.136   6.635
  512ETHY    C1  428   2.448  16.652   6.525
  513ETHY    C1  429   2.331  17.172   6.443
  514AUSL   AUS  430   1.666  14.155   7.666
  515AUSL   AUS  431   1.779  13.898   8.013
  516AUL    AUL  432   1.817  14.276   7.993
  517THSLK    S  433   1.950  14.006   8.183
  518ETHY    C1  434   2.245  14.071   8.523
  519ETHY    C1  435   2.563  14.233   8.920
  520ETHY    C1  436   2.831  14.482   9.298
  521ETHY    C1  437   3.045  14.804   9.653
  522ETHY    C1  438   3.197  15.192   9.976
  523ETHY    C1  439   3.283  15.642  10.262
  524THSLK    S  440   1.719  14.384   7.772
  525ETHY    C1  441   1.991  14.712   7.929
  526ETHY    C1  442   2.241  15.152   8.100
  527ETHY    C1  443   2.399  15.631   8.251
  528ETHY    C1  444   2.468  16.133   8.383
  529ETHY    C1  445   2.444  16.648   8.494
  530ETHY    C1  446   2.325  17.167   8.585
  531AUSL   AUS  447   1.514  12.901   7.912
  532AUSL   AUS  448   1.930  12.971   7.767
  533AUL    AUL  449   1.817  12.687   7.993
  534THSLK    S  450   1.467  12.651   7.989
  535ETHY    C1  451   1.277  12.255   8.103
  536ETHY    C1  452   1.126  11.777   8.289
  537ETHY    C1  453   1.063  11.312   8.528
  538ETHY    C1  454   1.078  10.870   8.809
  539ETHY    C1  455   1.174  10.463   9.132
  540ETHY    C1  456   1.349  10.100   9.489
  541THSLK    S  457   2.042  12.784   7.907
  542ETHY    C1  458   2.121  12.356   8.040
  543ETHY    C1  459   2.296  11.886   8.222
  544ETHY    C1  460   2.550  11.474   8.428
  545ETHY    C1  461   2.870  11.125   8.652
  546ETHY    C1  462   3.251  10.850   8.893
  547ETHY    C1  463   3.686  10.654   9.147
  548AUSL   AUS  464   1.362  12.808   7.666
  549AUSL   AUS  465   1.249  13.065   8.013
  550AUL    AUL  466   1.211  12.687   7.993
  551THSLK    S  467   1.307  12.572   7.745
  552ETHY    C1  468   1.032  12.213   7.788
  553ETHY    C1  469   0.781  11.748   7.869
  554ETHY    C1  470   0.625  11.258   7.981
  555ETHY    C1  471   0.556  10.759   8.122
  556ETHY    C1  472   0.580  10.259   8.292
  557ETHY    C1  473   0.697   9.771   8.489
  558THSLK    S  474   1.071  12.899   8.129
  559ETHY    C1  475   0.769  12.581   8.248
  560ETHY    C1  476   0.450  12.214   8.471
  561ETHY    C1  477   0.185  11.877   8.776
  562ETHY    C1  478  -0.027  11.575   9.147
  563ETHY    C1  479  -0.180  11.317   9.582
  564ETHY    C1  480  -0.271  11.110  10.072
  565AUSL   AUS  481   1.666  12.808   7.666
  566AUSL   AUS  482   1.362  12.808   7.339
  567AUL    AUL  483   1.514  12.500   7.503
  568THSLK    S  484   1.309  12.569   7.270
  569ETHY    C1  485   1.037  12.207   7.236
  570ETHY    C1  486   0.787  11.742   7.157
  571ETHY    C1  487   0.630  11.253   7.041
  572ETHY    C1  488   0.560  10.754   6.896
  573ETHY    C1  489   0.584  10.255   6.727
  574ETHY    C1  490   0.703   9.764   6.538
  575THSLK    S  491   1.620  12.556   7.749
  576ETHY    C1  492   1.473  12.130   7.811
  577ETHY    C1  493   1.387  11.612   7.906
  578ETHY    C1  494   1.399  11.099   8.025
  579ETHY    C1  495   1.501  10.604   8.165
  580ETHY    C1  496   1.693  10.139   8.325
  581ETHY    C1  497   1.971   9.713   8.504
  582AUSL   AUS  498   1.514  14.061   7.094
  583AUSL   AUS  499   1.930  13.992   7.238
  584AUL    AUL  500   1.817  14.276   7.012
  585THSLK    S  501   1.561  14.288   6.977
  586ETHY    C1  502   1.751  14.567   6.674
  587ETHY    C1  503   1.902  14.948   6.330
  588ETHY    C1  504   1.966  15.368   6.021
  589ETHY    C1  505   1.950  15.818   5.752
  590ETHY    C1  506   1.854  16.288   5.532
  591ETHY    C1  507   1.679  16.771   5.366
  592THSLK    S  508   2.118  14.108   7.089
  593ETHY    C1  509   2.505  14.228   6.883
  594ETHY    C1  510   2.923  14.451   6.637
  595ETHY    C1  511   3.281  14.755   6.400
  596ETHY    C1  512   3.576  15.127   6.178
  597ETHY    C1  513   3.801  15.562   5.981
  598ETHY    C1  514   3.952  16.051   5.811
  599AUSL   AUS  515   1.362  14.155   7.339
  600AUSL   AUS  516   1.249  13.898   6.992
  601AUL    AUL  517   1.211  14.276   7.012
  602THSLK    S  518   1.408  14.402   7.239
  603ETHY    C1  519   1.555  14.799   7.074
  604ETHY    C1  520   1.641  15.293   6.889
  605ETHY    C1  521   1.629  15.794   6.727
  606ETHY    C1  522   1.527  16.290   6.593
  607ETHY    C1  523   1.335  16.771   6.492
  608ETHY    C1  524   1.057  17.229   6.427
  609THSLK    S  525   1.139  14.030   6.805
  610ETHY    C1  526   1.103  14.179   6.377
  611ETHY    C1  527   0.993  14.405   5.906
  612ETHY    C1  528   0.815  14.680   5.494
  613ETHY    C1  529   0.581  14.993   5.145
  614ETHY    C1  530   0.295  15.342   4.870
  615ETHY    C1  531  -0.036  15.720   4.675
  616AUSL   AUS  532   1.514  12.901   7.094
  617AUSL   AUS  533   1.098  12.971   7.238
  618AUL    AUL  534   1.211  12.687   7.012
  619THSLK    S  535   0.915  12.823   7.134
  620ETHY    C1  536   0.532  12.579   7.124
  621ETHY    C1  537   0.114  12.258   7.035
  622ETHY    C1  538  -0.245  11.912   6.866
  623ETHY    C1  539  -0.542  11.551   6.631
  624ETHY    C1  540  -0.767  11.179   6.331
  625ETHY    C1  541  -0.914  10.802   5.974
  626THSLK    S  542   1.472  12.646   7.024
  627ETHY    C1  543   1.288  12.245   6.917
  628ETHY    C1  544   1.138  11.767   6.732
  629ETHY    C1  545   1.072  11.304   6.491
  630ETHY    C1  546   1.085  10.864   6.206
  631ETHY    C1  547   1.182  10.457   5.885
  632ETHY    C1  548   1.362  10.089   5.533
  633AUSL   AUS  549   1.666  12.808   7.339
  634AUSL   AUS  550   1.779  13.065   6.992
  635AUL    AUL  551   1.817  12.687   7.012
  636THSLK    S  552   1.623  12.554   7.266
  637ETHY    C1  553   1.479  12.126   7.213
  638ETHY    C1  554   1.392  11.607   7.120
  639ETHY    C1  555   1.404  11.095   6.997
  640ETHY    C1  556   1.505  10.601   6.854
  641ETHY    C1  557   1.697  10.136   6.695
  642ETHY    C1  558   1.977   9.708   6.523
  643THSLK    S  559   1.896  12.875   6.859
  644ETHY    C1  560   1.940  12.473   6.651
  645ETHY    C1  561   2.050  12.042   6.355
  646ETHY    C1  562   2.226  11.679   6.017
  647ETHY    C1  563   2.457  11.385   5.651
  648ETHY    C1  564   2.743  11.168   5.264
  649ETHY    C1  565   3.080  11.032   4.865
  650AUC    AUC  566  44.166  36.854   7.503
  651AUC    AUC  567  44.411  36.854   7.351
  652AUC    AUC  568  44.411  36.854   7.654
  653AUC    AUC  569  43.921  36.854   7.351
  654AUC    AUC  570  43.921  36.854   7.654
  655AUC    AUC  571  44.014  37.100   7.503
  656AUC    AUC  572  44.318  37.100   7.503
  657AUC    AUC  573  44.014  36.609   7.503
  658AUC    AUC  574  44.318  36.609   7.503
  659AUC    AUC  575  44.166  36.703   7.748
  660AUC    AUC  576  44.166  37.006   7.748
  661AUC    AUC  577  44.166  36.703   7.257
  662AUC    AUC  578  44.166  37.006   7.257
  663AUC    AUC  579  44.657  36.854   7.199
  664AUC    AUC  580  44.657  36.854   7.503
  665AUC    AUC  581  44.657  36.854   7.806
  666AUC    AUC  582  43.675  36.854   7.199
  667AUC    AUC  583  43.675  36.854   7.503
  668AUC    AUC  584  43.675  36.854   7.806
  669AUC    AUC  585  43.863  37.345   7.503
  670AUC    AUC  586  44.166  37.345   7.503
  671AUC    AUC  587  44.469  37.345   7.503
  672AUC    AUC  588  43.863  36.364   7.503
  673AUC    AUC  589  44.166  36.364   7.503
  674AUC    AUC  590  44.469  36.364   7.503
  675AUC    AUC  591  44.166  36.551   7.993
  676AUC    AUC  592  44.166  36.854   7.993
  677AUC    AUC  593  44.166  37.158   7.993
  678AUC    AUC  594  44.166  36.551   7.012
  679AUC    AUC  595  44.166  36.854   7.012
  680AUC    AUC  596  44.166  37.158   7.012
  681AUC    AUC  597  44.411  36.703   7.900
  682AUC    AUC  598  44.411  37.006   7.900
  683AUC    AUC  599  44.411  36.703   7.106
  684AUC    AUC  600  44.411  37.006   7.106
  685AUC    AUC  601  43.921  36.703   7.900
  686AUC    AUC  602  43.921  37.006   7.900
  687AUC    AUC  603  43.921  36.703   7.106
  688AUC    AUC  604  43.921  37.006   7.106
  689AUC    AUC  605  44.563  37.100   7.351
  690AUC    AUC  606  44.563  37.100   7.654
  691AUC    AUC  607  43.769  37.100   7.351
  692AUC    AUC  608  43.769  37.100   7.654
  693AUC    AUC  609  44.563  36.609   7.351
  694AUC    AUC  610  44.563  36.609   7.654
  695AUC    AUC  611  43.769  36.609   7.351
  696AUC    AUC  612  43.769  36.609   7.654
  697AUC    AUC  613  44.014  37.252   7.748
  698AUC    AUC  614  44.318  37.252   7.748
  699AUC    AUC  615  44.014  36.457   7.748
  700AUC    AUC  616  44.318  36.457   7.748
  701AUC    AUC  617  44.014  37.252   7.257
  702AUC    AUC  618  44.318  37.252   7.257
  703AUC    AUC  619  44.014  36.457   7.257
  704AUC    AUC  620  44.318  36.457   7.257
  705AUSL   AUS  621  44.575  36.854   8.083
  706AUSL   AUS  622  44.431  36.438   8.013
  707AUL    AUL  623  44.657  36.551   8.297
  708THSLK    S  624  44.541  36.251   8.153
  709ETHY    C1  625  44.577  35.852   8.368
  710ETHY    C1  626  44.687  35.422   8.665
  711ETHY    C1  627  44.865  35.058   9.000
  712ETHY    C1  628  45.099  34.762   9.364
  713ETHY    C1  629  45.385  34.545   9.752
  714ETHY    C1  630  45.716  34.412  10.156
  715THSLK    S  631  44.668  36.802   8.324
  716ETHY    C1  632  44.872  36.582   8.665
  717ETHY    C1  633  45.136  36.405   9.094
  718ETHY    C1  634  45.412  36.329   9.535
  719ETHY    C1  635  45.689  36.346   9.980
  720ETHY    C1  636  45.959  36.459  10.419
  721ETHY    C1  637  46.218  36.668  10.845
  722AUSL   AUS  638  44.330  36.703   8.176
  723AUSL   AUS  639  44.002  37.006   8.176
  724AUL    AUL  640  44.166  36.854   8.484
  725THSLK    S  641  44.405  36.648   8.413
  726ETHY    C1  642  44.469  36.368   8.765
  727ETHY    C1  643  44.572  36.113   9.223
  728ETHY    C1  644  44.699  35.954   9.708
  729ETHY    C1  645  44.841  35.885  10.208
  730ETHY    C1  646  44.995  35.913  10.713
  731ETHY    C1  647  45.155  36.037  11.212
  732THSLK    S  648  43.917  36.960   8.428
  733ETHY    C1  649  43.843  36.810   8.850
  734ETHY    C1  650  43.738  36.722   9.367
  735ETHY    C1  651  43.616  36.734   9.878
  736ETHY    C1  652  43.478  36.835  10.373
  737ETHY    C1  653  43.323  37.028  10.840
  738ETHY    C1  654  43.154  37.309  11.268
  739AUSL   AUS  655  44.330  37.006   8.176
  740AUSL   AUS  656  44.676  37.119   7.919
  741AUL    AUL  657  44.657  37.158   8.297
  742THSLK    S  658  44.415  37.062   8.410
  743ETHY    C1  659  44.489  37.343   8.759
  744ETHY    C1  660  44.594  37.598   9.217
  745ETHY    C1  661  44.716  37.757   9.703
  746ETHY    C1  662  44.855  37.826  10.204
  747ETHY    C1  663  45.009  37.799  10.708
  748ETHY    C1  664  45.178  37.675  11.206
  749THSLK    S  665  44.848  37.217   8.080
  750ETHY    C1  666  45.211  37.188   8.350
  751ETHY    C1  667  45.633  37.244   8.673
  752ETHY    C1  668  46.025  37.398   8.989
  753ETHY    C1  669  46.379  37.636   9.293
  754ETHY    C1  670  46.686  37.957   9.580
  755ETHY    C1  671  46.937  38.354   9.844
  756AUSL   AUS  672  44.575  36.854   6.923
  757AUSL   AUS  673  44.431  37.271   6.992
  758AUL    AUL  674  44.657  37.158   6.708
  759THSLK    S  675  44.677  36.802   6.687
  760ETHY    C1  676  44.890  36.582   6.351
  761ETHY    C1  677  45.155  36.405   5.923
  762ETHY    C1  678  45.427  36.329   5.479
  763ETHY    C1  679  45.701  36.346   5.033
  764ETHY    C1  680  45.972  36.459   4.594
  765ETHY    C1  681  46.237  36.668   4.173
  766THSLK    S  682  44.609  37.382   6.829
  767ETHY    C1  683  44.911  37.450   6.497
  768ETHY    C1  684  45.230  37.613   6.100
  769ETHY    C1  685  45.495  37.860   5.719
  770ETHY    C1  686  45.707  38.180   5.362
  771ETHY    C1  687  45.860  38.570   5.039
  772ETHY    C1  688  45.951  39.022   4.759
  773AUSL   AUS  689  44.330  36.703   6.829
  774AUSL   AUS  690  44.676  36.590   7.086
  775AUL    AUL  691  44.657  36.551   6.708
  776THSLK    S  692  44.809  36.398   6.949
  777ETHY    C1  693  44.992  36.031   6.752
  778ETHY    C1  694  45.264  35.659   6.483
  779ETHY    C1  695  45.589  35.370   6.186
  780ETHY    C1  696  45.955  35.163   5.874
  781ETHY    C1  697  46.359  35.044   5.555
  782ETHY    C1  698  46.792  35.019   5.235
  783THSLK    S  699  44.415  36.647   6.596
  784ETHY    C1  700  44.489  36.366   6.246
  785ETHY    C1  701  44.594  36.110   5.788
  786ETHY    C1  702  44.716  35.952   5.302
  787ETHY    C1  703  44.855  35.883   4.801
  788ETHY    C1  704  45.009  35.910   4.297
  789ETHY    C1  705  45.178  36.034   3.799
  790AUSL   AUS  706  44.330  37.006   6.829
  791AUSL   AUS  707  44.002  36.703   6.829
  792AUL    AUL  708  44.166  36.854   6.521
  793THSLK    S  709  43.910  36.647   6.597
  794ETHY    C1  710  43.775  36.369   6.264
  795ETHY    C1  711  43.614  36.116   5.822
  796ETHY    C1  712  43.462  35.959   5.343
  797ETHY    C1  713  43.326  35.890   4.842
  798ETHY    C1  714  43.209  35.916   4.328
  799ETHY    C1  715  43.116  36.035   3.810
  800THSLK    S  716  44.432  36.960   6.583
  801ETHY    C1  717  44.578  36.810   6.179
  802ETHY    C1  718  44.740  36.719   5.678
  803ETHY    C1  719  44.887  36.729   5.173
  804ETHY    C1  720  45.020  36.830   4.677
  805ETHY    C1  721  45.137  37.025   4.200
  806ETHY    C1  722  45.238  37.311   3.754
  807AUSL   AUS  723  43.757  36.854   8.083
  808AUSL   AUS  724  43.901  37.271   8.013
  809AUL    AUL  725  43.675  37.158   8.297
  810THSLK    S  726  43.655  36.802   8.319
  811ETHY    C1  727  43.443  36.582   8.654
  812ETHY    C1  728  43.177  36.405   9.082
  813ETHY    C1  729  42.905  36.329   9.526
  814ETHY    C1  730  42.631  36.346   9.973
  815ETHY    C1  731  42.360  36.459  10.411
  816ETHY    C1  732  42.095  36.668  10.832
  817THSLK    S  733  43.784  37.395   8.202
  818ETHY    C1  734  43.741  37.538   8.632
  819ETHY    C1  735  43.630  37.763   9.104
  820ETHY    C1  736  43.454  38.040   9.515
  821ETHY    C1  737  43.223  38.356   9.863
  822ETHY    C1  738  42.937  38.704  10.138
  823ETHY    C1  739  42.600  39.077  10.334
  824AUSL   AUS  740  44.002  36.703   8.176
  825AUSL   AUS  741  43.656  36.590   7.919
  826AUL    AUL  742  43.675  36.551   8.297
  827THSLK    S  743  43.479  36.427   8.026
  828ETHY    C1  744  43.108  36.170   8.082
  829ETHY    C1  745  42.686  35.882   8.237
  830ETHY    C1  746  42.296  35.627   8.482
  831ETHY    C1  747  41.944  35.410   8.803
  832ETHY    C1  748  41.638  35.239   9.198
  833ETHY    C1  749  41.381  35.118   9.657
  834THSLK    S  750  43.900  36.649   8.406
  835ETHY    C1  751  43.754  36.373   8.736
  836ETHY    C1  752  43.592  36.121   9.178
  837ETHY    C1  753  43.445  35.963   9.658
  838ETHY    C1  754  43.312  35.893  10.160
  839ETHY    C1  755  43.195  35.919  10.674
  840ETHY    C1  756  43.094  36.040  11.190
  841AUSL   AUS  757  43.757  36.854   6.923
  842AUSL   AUS  758  43.901  36.438   6.992
  843AUL    AUL  759  43.675  36.551   6.708
  844THSLK    S  760  43.664  36.802   6.681
  845ETHY    C1  761  43.460  36.582   6.341
  846ETHY    C1  762  43.196  36.405   5.911
  847ETHY    C1  763  42.920  36.329   5.470
  848ETHY    C1  764  42.643  36.346   5.025
  849ETHY    C1  765  42.373  36.459   4.586
  850ETHY    C1  766  42.114  36.668   4.161
  851THSLK    S  767  43.730  36.265   6.878
  852ETHY    C1  768  43.435  35.939   6.760
  853ETHY    C1  769  43.117  35.572   6.538
  854ETHY    C1  770  42.849  35.237   6.233
  855ETHY    C1  771  42.635  34.937   5.861
  856ETHY    C1  772  42.483  34.679   5.426
  857ETHY    C1  773  42.397  34.467   4.937
  858AUSL   AUS  774  44.002  37.006   6.829
  859AUSL   AUS  775  43.656  37.119   7.086
  860AUL    AUL  776  43.675  37.158   6.708
  861THSLK    S  777  43.529  37.246   6.895
  862ETHY    C1  778  43.352  37.327   6.484
  863ETHY    C1  779  43.081  37.467   6.046
  864ETHY    C1  780  42.754  37.655   5.679
  865ETHY    C1  781  42.385  37.884   5.385
  866ETHY    C1  782  41.983  38.151   5.173
  867ETHY    C1  783  41.554  38.453   5.047
  868THSLK    S  784  43.927  36.962   6.576
  869ETHY    C1  785  43.863  36.815   6.150
  870ETHY    C1  786  43.760  36.726   5.634
  871ETHY    C1  787  43.633  36.737   5.123
  872ETHY    C1  788  43.491  36.838   4.629
  873ETHY    C1  789  43.338  37.031   4.162
  874ETHY    C1  790  43.177  37.314   3.732
  875AUSL   AUS  791  44.746  37.263   7.503
  876AUSL   AUS  792  44.676  37.119   7.086
  877AUL    AUL  793  44.960  37.345   7.199
  878THSLK    S  794  44.854  37.218   6.934
  879ETHY    C1  795  45.224  37.191   6.671
  880ETHY    C1  796  45.646  37.247   6.349
  881ETHY    C1  797  46.036  37.401   6.030
  882ETHY    C1  798  46.388  37.638   5.724
  883ETHY    C1  799  46.695  37.959   5.438
  884ETHY    C1  800  46.951  38.358   5.179
  885THSLK    S  801  45.012  37.316   7.508
  886ETHY    C1  802  45.466  37.338   7.513
  887ETHY    C1  803  45.988  37.452   7.514
  888ETHY    C1  804  46.471  37.661   7.511
  889ETHY    C1  805  46.907  37.951   7.510
  890ETHY    C1  806  47.286  38.318   7.510
  891ETHY    C1  807  47.600  38.758   7.514
  892AUSL   AUS  808  44.840  37.018   7.351
  893AUSL   AUS  809  44.840  36.691   7.654
  894AUL    AUL  810  45.148  36.854   7.503
  895THSLK    S  811  45.096  37.057   7.350
  896ETHY    C1  812  45.532  36.949   7.286
  897ETHY    C1  813  46.058  36.911   7.201
  898ETHY    C1  814  46.573  36.975   7.113
  899ETHY    C1  815  47.067  37.129   7.026
  900ETHY    C1  816  47.527  37.374   6.945
  901ETHY    C1  817  47.946  37.706   6.873
  902THSLK    S  818  45.067  36.551   7.663
  903ETHY    C1  819  45.386  36.235   7.728
  904ETHY    C1  820  45.819  35.931   7.807
  905ETHY    C1  821  46.294  35.721   7.887
  906ETHY    C1  822  46.797  35.600   7.971
  907ETHY    C1  823  47.317  35.574   8.058
  908ETHY    C1  824  47.845  35.644   8.147
  909AUSL   AUS  825  44.840  37.018   7.654
  910AUSL   AUS  826  44.582  37.365   7.767
  911AUL    AUL  827  44.960  37.345   7.806
  912THSLK    S  828  44.765  37.479   7.926
  913ETHY    C1  829  45.148  37.597   8.140
  914ETHY    C1  830  45.566  37.820   8.388
  915ETHY    C1  831  45.925  38.125   8.622
  916ETHY    C1  832  46.222  38.498   8.840
  917ETHY    C1  833  46.447  38.932   9.038
  918ETHY    C1  834  46.594  39.420   9.215
  919THSLK    S  835  45.094  37.057   7.665
  920ETHY    C1  836  45.529  36.949   7.740
  921ETHY    C1  837  46.055  36.911   7.826
  922ETHY    C1  838  46.570  36.974   7.910
  923ETHY    C1  839  47.064  37.128   7.993
  924ETHY    C1  840  47.525  37.373   8.075
  925ETHY    C1  841  47.942  37.705   8.155
  926AUSL   AUS  842  43.586  37.263   7.503
  927AUSL   AUS  843  43.656  37.119   7.919
  928AUL    AUL  844  43.372  37.345   7.806
  929THSLK    S  845  43.523  37.238   8.109
  930ETHY    C1  846  43.340  37.310   8.519
  931ETHY    C1  847  43.068  37.450   8.957
  932ETHY    C1  848  42.743  37.641   9.324
  933ETHY    C1  849  42.377  37.872   9.619
  934ETHY    C1  850  41.974  38.139   9.831
  935ETHY    C1  851  41.540  38.435   9.956
  936THSLK    S  852  43.375  37.404   7.508
  937ETHY    C1  853  43.153  37.801   7.513
  938ETHY    C1  854  42.817  38.216   7.514
  939ETHY    C1  855  42.414  38.555   7.511
  940ETHY    C1  856  41.960  38.816   7.510
  941ETHY    C1  857  41.461  38.990   7.510
  942ETHY    C1  858  40.928  39.074   7.514
  943AUSL   AUS  859  43.492  37.018   7.351
  944AUSL   AUS  860  43.750  37.365   7.238
  945AUL    AUL  861  43.372  37.345   7.199
  946THSLK    S  862  43.265  37.133   7.303
  947ETHY    C1  863  42.946  37.333   7.049
  948ETHY    C1  864  42.513  37.539   6.813
  949ETHY    C1  865  42.038  37.705   6.661
  950ETHY    C1  866  41.535  37.834   6.590
  951ETHY    C1  867  41.015  37.924   6.605
  952ETHY    C1  868  40.487  37.972   6.708
  953THSLK    S  869  43.638  37.528   7.060
  954ETHY    C1  870  43.559  37.838   6.737
  955ETHY    C1  871  43.384  38.212   6.397
  956ETHY    C1  872  43.130  38.580   6.120
  957ETHY    C1  873  42.810  38.937   5.909
  958ETHY    C1  874  42.429  39.275   5.770
  959ETHY    C1  875  41.994  39.589   5.709
  960AUSL   AUS  876  43.492  37.018   7.654
  961AUSL   AUS  877  43.492  36.691   7.351
  962AUL    AUL  878  43.184  36.854   7.503
  963THSLK    S  879  43.238  36.618   7.394
  964ETHY    C1  880  42.803  36.600   7.524
  965ETHY    C1  881  42.277  36.540   7.597
  966ETHY    C1  882  41.762  36.436   7.578
  967ETHY    C1  883  41.268  36.293   7.477
  968ETHY    C1  884  40.808  36.110   7.294
  969ETHY    C1  885  40.390  35.890   7.034
  970THSLK    S  886  43.264  37.124   7.707
  971ETHY    C1  887  42.943  37.315   7.966
  972ETHY    C1  888  42.510  37.519   8.202
  973ETHY    C1  889  42.035  37.690   8.352
  974ETHY    C1  890  41.533  37.822   8.422
  975ETHY    C1  891  41.013  37.910   8.407
  976ETHY    C1  892  40.484  37.951   8.308
  977AUSL   AUS  893  44.746  36.445   7.503
  978AUSL   AUS  894  44.676  36.590   7.919
  979AUL    AUL  895  44.960  36.364   7.806
  980THSLK    S  896  44.957  36.304   7.508
  981ETHY    C1  897  45.179  35.908   7.513
  982ETHY    C1  898  45.515  35.493   7.514
  983ETHY    C1  899  45.918  35.154   7.511
  984ETHY    C1  900  46.372  34.893   7.510
  985ETHY    C1  901  46.871  34.719   7.510
  986ETHY    C1  902  47.404  34.635   7.514
  987THSLK    S  903  44.803  36.399   8.064
  988ETHY    C1  904  44.980  36.034   8.270
  989ETHY    C1  905  45.251  35.662   8.540
  990ETHY    C1  906  45.578  35.373   8.834
  991ETHY    C1  907  45.947  35.165   9.142
  992ETHY    C1  908  46.349  35.047   9.462
  993ETHY    C1  909  46.778  35.022   9.789
  994AUSL   AUS  910  44.840  36.691   7.351
  995AUSL   AUS  911  44.582  36.344   7.238
  996AUL    AUL  912  44.960  36.364   7.199
  997THSLK    S  913  45.068  36.551   7.353
  998ETHY    C1  914  45.389  36.234   7.298
  999ETHY    C1  915  45.822  35.931   7.221
 1000ETHY    C1  916  46.297  35.721   7.136
 1001ETHY    C1  917  46.799  35.600   7.048
 1002ETHY    C1  918  47.319  35.573   6.963
 1003ETHY    C1  919  47.848  35.644   6.881
 1004THSLK    S  920  44.698  36.155   7.108
 1005ETHY    C1  921  44.782  35.726   6.984
 1006ETHY    C1  922  44.957  35.254   6.803
 1007ETHY    C1  923  45.210  34.843   6.593
 1008ETHY    C1  924  45.528  34.495   6.366
 1009ETHY    C1  925  45.910  34.220   6.126
 1010ETHY    C1  926  46.348  34.023   5.880
 1011AUSL   AUS  927  43.586  36.445   7.503
 1012AUSL   AUS  928  43.656  36.590   7.086
 1013AUL    AUL  929  43.372  36.364   7.199
 1014THSLK    S  930  43.485  36.419   6.978
 1015ETHY    C1  931  43.121  36.154   6.921
 1016ETHY    C1  932  42.699  35.864   6.766
 1017ETHY    C1  933  42.307  35.612   6.521
 1018ETHY    C1  934  41.953  35.399   6.200
 1019ETHY    C1  935  41.646  35.226   5.806
 1020ETHY    C1  936  41.395  35.099   5.346
 1021THSLK    S  937  43.320  36.393   7.508
 1022ETHY    C1  938  42.866  36.371   7.513
 1023ETHY    C1  939  42.344  36.257   7.514
 1024ETHY    C1  940  41.862  36.048   7.511
 1025ETHY    C1  941  41.425  35.758   7.510
 1026ETHY    C1  942  41.046  35.391   7.510
 1027ETHY    C1  943  40.733  34.951   7.514
 1028AUSL   AUS  944  43.492  36.691   7.654
 1029AUSL   AUS  945  43.750  36.344   7.767
 1030AUL    AUL  946  43.372  36.364   7.806
 1031THSLK    S  947  43.562  36.204   7.878
 1032ETHY    C1  948  43.175  35.967   7.893
 1033ETHY    C1  949  42.757  35.647   7.982
 1034ETHY    C1  950  42.399  35.298   8.149
 1035ETHY    C1  951  42.104  34.934   8.382
 1036ETHY    C1  952  41.879  34.563   8.683
 1037ETHY    C1  953  41.728  34.192   9.045
 1038THSLK    S  954  43.236  36.628   7.616
 1039ETHY    C1  955  42.800  36.618   7.491
 1040ETHY    C1  956  42.274  36.559   7.419
 1041ETHY    C1  957  41.759  36.452   7.436
 1042ETHY    C1  958  41.265  36.306   7.535
 1043ETHY    C1  959  40.805  36.124   7.718
 1044ETHY    C1  960  40.386  35.911   7.983
 1045AUSL   AUS  961  44.166  37.434   7.912
 1046AUSL   AUS  962  43.750  37.365   7.767
 1047AUL    AUL  963  43.863  37.649   7.993
 1048THSLK    S  964  43.634  37.521   7.952
 1049ETHY    C1  965  43.550  37.823   8.280
 1050ETHY    C1  966  43.375  38.196   8.621
 1051ETHY    C1  967  43.122  38.567   8.895
 1052ETHY    C1  968  42.804  38.926   9.105
 1053ETHY    C1  969  42.422  39.264   9.244
 1054ETHY    C1  970  41.984  39.572   9.309
 1055THSLK    S  971  44.208  37.656   8.035
 1056ETHY    C1  972  44.392  37.931   8.347
 1057ETHY    C1  973  44.542  38.311   8.691
 1058ETHY    C1  974  44.608  38.734   8.998
 1059ETHY    C1  975  44.595  39.185   9.264
 1060ETHY    C1  976  44.498  39.654   9.485
 1061ETHY    C1  977  44.318  40.133   9.656
 1062AUSL   AUS  978  44.014  37.528   7.666
 1063AUSL   AUS  979  44.318  37.528   7.339
 1064AUL    AUL  980  44.166  37.836   7.503
 1065THSLK    S  981  44.057  37.772   7.776
 1066ETHY    C1  982  44.201  38.166   7.951
 1067ETHY    C1  983  44.288  38.660   8.137
 1068ETHY    C1  984  44.276  39.161   8.294
 1069ETHY    C1  985  44.175  39.659   8.425
 1070ETHY    C1  986  43.983  40.140   8.527
 1071ETHY    C1  987  43.703  40.595   8.600
 1072THSLK    S  988  44.373  37.759   7.243
 1073ETHY    C1  989  44.649  38.089   7.096
 1074ETHY    C1  990  44.899  38.530   6.927
 1075ETHY    C1  991  45.055  39.007   6.771
 1076ETHY    C1  992  45.124  39.509   6.635
 1077ETHY    C1  993  45.100  40.025   6.525
 1078ETHY    C1  994  44.983  40.545   6.443
 1079AUSL   AUS  995  44.318  37.528   7.666
 1080AUSL   AUS  996  44.431  37.271   8.013
 1081AUL    AUL  997  44.469  37.649   7.993
 1082THSLK    S  998  44.602  37.379   8.183
 1083ETHY    C1  999  44.897  37.444   8.523
 1084ETHY    C1 1000  45.215  37.606   8.920
 1085ETHY    C1 1001  45.483  37.855   9.298
 1086ETHY    C1 1002  45.697  38.177   9.653
 1087ETHY    C1 1003  45.849  38.565   9.976
 1088ETHY    C1 1004  45.935  39.015  10.262
 1089THSLK    S 1005  44.371  37.757   7.772
 1090ETHY    C1 1006  44.643  38.085   7.929
 1091ETHY    C1 1007  44.893  38.525   8.100
 1092ETHY    C1 1008  45.051  39.004   8.251
 1093ETHY    C1 1009  45.120  39.506   8.383
 1094ETHY    C1 1010  45.096  40.021   8.494
 1095ETHY    C1 1011  44.977  40.540   8.585
 1096AUSL   AUS 1012  44.166  36.274   7.912
 1097AUSL   AUS 1013  44.582  36.344   7.767
 1098AUL    AUL 1014  44.469  36.060   7.993
 1099THSLK    S 1015  44.119  36.024   7.989
 1100ETHY    C1 1016  43.929  35.628   8.103
 1101ETHY    C1 1017  43.778  35.150   8.289
 1102ETHY    C1 1018  43.715  34.685   8.528
 1103ETHY    C1 1019  43.730  34.243   8.809
 1104ETHY    C1 1020  43.826  33.836   9.132
 1105ETHY    C1 1021  44.001  33.473   9.489
 1106THSLK    S 1022  44.694  36.157   7.907
 1107ETHY    C1 1023  44.773  35.729   8.040
 1108ETHY    C1 1024  44.948  35.259   8.222
 1109ETHY    C1 1025  45.202  34.847   8.428
 1110ETHY    C1 1026  45.522  34.498   8.652
 1111ETHY    C1 1027  45.903  34.223   8.893
 1112ETHY    C1 1028  46.338  34.027   9.147
 1113AUSL   AUS 1029  44.014  36.181   7.666
 1114AUSL   AUS 1030  43.901  36.438   8.013
 1115AUL    AUL 1031  43.863  36.060   7.993
 1116THSLK    S 1032  43.959  35.945   7.745
 1117ETHY    C1 1033  43.684  35.586   7.788
 1118ETHY    C1 1034  43.433  35.121   7.869
 1119ETHY    C1 1035  43.277  34.631   7.981
 1120ETHY    C1 1036  43.208  34.132   8.122
 1121ETHY    C1 1037  43.232  33.632   8.292
 1122ETHY    C1 1038  43.349  33.144   8.489
 1123THSLK    S 1039  43.723  36.272   8.129
 1124ETHY    C1 1040  43.421  35.954   8.248
 1125ETHY    C1 1041  43.102  35.587   8.471
 1126ETHY    C1 1042  42.837  35.250   8.776
 1127ETHY    C1 1043  42.625  34.948   9.147
 1128ETHY    C1 1044  42.472  34.690   9.582
 1129ETHY    C1 1045  42.381  34.483  10.072
 1130AUSL   AUS 1046  44.318  36.181   7.666
 1131AUSL   AUS 1047  44.014  36.181   7.339
 1132AUL    AUL 1048  44.166  35.873   7.503
 1133THSLK    S 1049  43.961  35.942   7.270
 1134ETHY    C1 1050  43.689  35.580   7.236
 1135ETHY    C1 1051  43.439  35.115   7.157
 1136ETHY    C1 1052  43.282  34.626   7.041
 1137ETHY    C1 1053  43.212  34.127   6.896
 1138ETHY    C1 1054  43.236  33.628   6.727
 1139ETHY    C1 1055  43.355  33.137   6.538
 1140THSLK    S 1056  44.272  35.929   7.749
 1141ETHY    C1 1057  44.125  35.503   7.811
 1142ETHY    C1 1058  44.039  34.985   7.906
 1143ETHY    C1 1059  44.051  34.472   8.025
 1144ETHY    C1 1060  44.153  33.977   8.165
 1145ETHY    C1 1061  44.345  33.512   8.325
 1146ETHY    C1 1062  44.623  33.086   8.504
 1147AUSL   AUS 1063  44.166  37.434   7.094
 1148AUSL   AUS 1064  44.582  37.365   7.238
 1149AUL    AUL 1065  44.469  37.649   7.012
 1150THSLK    S 1066  44.213  37.661   6.977
 1151ETHY    C1 1067  44.403  37.940   6.674
 1152ETHY    C1 1068  44.554  38.321   6.330
 1153ETHY    C1 1069  44.618  38.741   6.021
 1154ETHY    C1 1070  44.602  39.191   5.752
 1155ETHY    C1 1071  44.506  39.661   5.532
 1156ETHY    C1 1072  44.331  40.144   5.366
 1157THSLK    S 1073  44.770  37.481   7.089
 1158ETHY    C1 1074  45.157  37.601   6.883
 1159ETHY    C1 1075  45.575  37.824   6.637
 1160ETHY    C1 1076  45.933  38.128   6.400
 1161ETHY    C1 1077  46.228  38.500   6.178
 1162ETHY    C1 1078  46.453  38.935   5.981
 1163ETHY    C1 1079  46.604  39.424   5.811
 1164AUSL   AUS 1080  44.014  37.528   7.339
 1165AUSL   AUS 1081  43.901  37.271   6.992
 1166AUL    AUL 1082  43.863  37.649   7.012
 1167THSLK    S 1083  44.060  37.775   7.239
 1168ETHY    C1 1084  44.207  38.172   7.074
 1169ETHY    C1 1085  44.293  38.666   6.889
 1170ETHY    C1 1086  44.281  39.167   6.727
 1171ETHY    C1 1087  44.179  39.663   6.593
 1172ETHY    C1 1088  43.987  40.144   6.492
 1173ETHY    C1 1089  43.709  40.602   6.427
 1174THSLK    S 1090  43.791  37.403   6.805
 1175ETHY    C1 1091  43.755  37.552   6.377
 1176ETHY    C1 1092  43.645  37.778   5.906
 1177ETHY    C1 1093  43.467  38.053   5.494
 1178ETHY    C1 1094  43.233  38.366   5.145
 1179ETHY    C1 1095  42.947  38.715   4.870
 1180ETHY    C1 1096  42.616  39.093   4.675
 1181AUSL   AUS 1097  44.166  36.274   7.094
 1182AUSL   AUS 1098  43.750  36.344   7.238
 1183AUL    AUL 1099  43.863  36.060   7.012
 1184THSLK    S 1100  43.567  36.196   7.134
 1185ETHY    C1 1101  43.184  35.952   7.124
 1186ETHY    C1 1102  42.766  35.631   7.035
 1187ETHY    C1 1103  42.407  35.285   6.866
 1188ETHY    C1 1104  42.110  34.924   6.631
 1189ETHY    C1 1105  41.885  34.552   6.331
 1190ETHY    C1 1106  41.738  34.175   5.974
 1191THSLK    S 1107  44.124  36.019   7.024
 1192ETHY    C1 1108  43.940  35.618   6.917
 1193ETHY    C1 1109  43.790  35.140   6.732
 1194ETHY    C1 1110  43.724  34.677   6.491
 1195ETHY    C1 1111  43.737  34.237   6.206
 1196ETHY    C1 1112  43.834  33.830   5.885
 1197ETHY    C1 1113  44.014  33.462   5.533
 1198AUSL   AUS 1114  44.318  36.181   7.339
 1199AUSL   AUS 1115  44.431  36.438   6.992
 1200AUL    AUL 1116  44.469  36.060   7.012
 1201THSLK    S 1117  44.275  35.927   7.266
 1202ETHY    C1 1118  44.131  35.499   7.213
 1203ETHY    C1 1119  44.044  34.980   7.120
 1204ETHY    C1 1120  44.056  34.468   6.997
 1205ETHY    C1 1121  44.157  33.974   6.854
 1206ETHY    C1 1122  44.349  33.509   6.695
 1207ETHY    C1 1123  44.629  33.081   6.523
 1208THSLK    S 1124  44.548  36.248   6.859
 1209ETHY    C1 1125  44.592  35.846   6.651
 1210ETHY    C1 1126  44.702  35.415   6.355
 1211ETHY    C1 1127  44.878  35.052   6.017
 1212ETHY    C1 1128  45.109  34.758   5.651
 1213ETHY    C1 1129  45.395  34.541   5.264
 1214ETHY    C1 1130  45.732  34.405   4.865
 1215AUC    AUC 1131   5.419  26.585   7.503
 1216AUC    AUC 1132   5.664  26.585   7.351
 1217AUC    AUC 1133   5.664  26.585   7.654
 1218AUC    AUC 1134   5.174  26.585   7.351
 1219AUC    AUC 1135   5.174  26.585   7.654
 1220AUC    AUC 1136   5.267  26.831   7.503
 1221AUC    AUC 1137   5.571  26.831   7.503
 1222AUC    AUC 1138   5.267  26.340   7.503
 1223AUC    AUC 1139   5.571  26.340   7.503
 1224AUC    AUC 1140   5.419  26.434   7.748
 1225AUC    AUC 1141   5.419  26.737   7.748
 1226AUC    AUC 1142   5.419  26.434   7.257
 1227AUC    AUC 1143   5.419  26.737   7.257
 1228AUC    AUC 1144   5.910  26.585   7.199
 1229AUC    AUC 1145   5.910  26.585   7.503
 1230AUC    AUC 1146   5.910  26.585   7.806
 1231AUC    AUC 1147   4.928  26.585   7.199
 1232AUC    AUC 1148   4.928  26.585   7.503
 1233AUC    AUC 1149   4.928  26.585   7.806
 1234AUC    AUC 1150   5.116  27.076   7.503
 1235AUC    AUC 1151   5.419  27.076   7.503
 1236AUC    AUC 1152   5.722  27.076   7.503
 1237AUC    AUC 1153   5.116  26.095   7.503
 1238AUC    AUC 1154   5.419  26.095   7.503
 1239AUC    AUC 1155   5.722  26.095   7.503
 1240AUC    AUC 1156   5.419  26.282   7.993
 1241AUC    AUC 1157   5.419  26.585   7.993
 1242AUC    AUC 1158   5.419  26.889   7.993
 1243AUC    AUC 1159   5.419  26.282   7.012
 1244AUC    AUC 1160   5.419  26.585   7.012
 1245AUC    AUC 1161   5.419  26.889   7.012
 1246AUC    AUC 1162   5.664  26.434   7.900
 1247AUC    AUC 1163   5.664  26.737   7.900
 1248AUC    AUC 1164   5.664  26.434   7.106
 1249AUC    AUC 1165   5.664  26.737   7.106
 1250AUC    AUC 1166   5.174  26.434   7.900
 1251AUC    AUC 1167   5.174  26.737   7.900
 1252AUC    AUC 1168   5.174  26.434   7.106
 1253AUC    AUC 1169   5.174  26.737   7.106
 1254AUC    AUC 1170   5.816  26.831   7.351
 1255AUC    AUC 1171   5.816  26.831   7.654
 1256AUC    AUC 1172   5.022  26.831   7.351
 1257AUC    AUC 1173   5.022  26.831   7.654
 1258AUC    AUC 1174   5.816  26.340   7.351
 1259AUC    AUC 1175   5.816  26.340   7.654
 1260AUC    AUC 1176   5.022  26.340   7.351
 1261AUC    AUC 1177   5.022  26.340   7.654
 1262AUC    AUC 1178   5.267  26.983   7.748
 1263AUC    AUC 1179   5.571  26.983   7.748
 1264AUC    AUC 1180   5.267  26.188   7.748
 1265AUC    AUC 1181   5.571  26.188   7.748
 1266AUC    AUC 1182   5.267  26.983   7.257
 1267AUC    AUC 1183   5.571  26.983   7.257
 1268AUC    AUC 1184   5.267  26.188   7.257
 1269AUC    AUC 1185   5.571  26.188   7.257
 1270AUSL   AUS 1186   5.828  26.585   8.083
 1271AUSL   AUS 1187   5.684  26.169   8.013
 1272AUL    AUL 1188   5.910  26.282   8.297
 1273THSLK    S 1189   5.794  25.982   8.153
 1274ETHY    C1 1190   5.830  25.583   8.368
 1275ETHY    C1 1191   5.940  25.153   8.665
 1276ETHY    C1 1192   6.118  24.789   9.000
 1277ETHY    C1 1193   6.352  24.493   9.364
 1278ETHY    C1 1194   6.638  24.276   9.752
 1279ETHY    C1 1195   6.969  24.143  10.156
 1280THSLK    S 1196   5.921  26.533   8.324
 1281ETHY    C1 1197   6.125  26.313   8.665
 1282ETHY    C1 1198   6.389  26.136   9.094
 1283ETHY    C1 1199   6.665  26.060   9.535
 1284ETHY    C1 1200   6.942  26.077   9.980
 1285ETHY    C1 1201   7.212  26.190  10.419
 1286ETHY    C1 1202   7.471  26.399  10.845
 1287AUSL   AUS 1203   5.583  26.434   8.176
 1288AUSL   AUS 1204   5.255  26.737   8.176
 1289AUL    AUL 1205   5.419  26.585   8.484
 1290THSLK    S 1206   5.658  26.379   8.413
 1291ETHY    C1 1207   5.722  26.099   8.765
 1292ETHY    C1 1208   5.825  25.844   9.223
 1293ETHY    C1 1209   5.952  25.685   9.708
 1294ETHY    C1 1210   6.094  25.616  10.208
 1295ETHY    C1 1211   6.248  25.644  10.713
 1296ETHY    C1 1212   6.408  25.768  11.212
 1297THSLK    S 1213   5.170  26.691   8.428
 1298ETHY    C1 1214   5.096  26.541   8.850
 1299ETHY    C1 1215   4.991  26.453   9.367
 1300ETHY    C1 1216   4.869  26.465   9.878
 1301ETHY    C1 1217   4.731  26.566  10.373
 1302ETHY    C1 1218   4.576  26.759  10.840
 1303ETHY    C1 1219   4.407  27.040  11.268
 1304AUSL   AUS 1220   5.583  26.737   8.176
 1305AUSL   AUS 1221   5.929  26.850   7.919
 1306AUL    AUL 1222   5.910  26.889   8.297
 1307THSLK    S 1223   5.668  26.793   8.410
 1308ETHY    C1 1224   5.742  27.074   8.759
 1309ETHY    C1 1225   5.847  27.329   9.217
 1310ETHY    C1 1226   5.969  27.488   9.703
 1311ETHY    C1 1227   6.108  27.557  10.204
 1312ETHY    C1 1228   6.262  27.530  10.708
 1313ETHY    C1 1229   6.431  27.406  11.206
 1314THSLK    S 1230   6.101  26.948   8.080
 1315ETHY    C1 1231   6.464  26.919   8.350
 1316ETHY    C1 1232   6.886  26.975   8.673
 1317ETHY    C1 1233   7.278  27.129   8.989
 1318ETHY    C1 1234   7.632  27.367   9.293
 1319ETHY    C1 1235   7.939  27.688   9.580
 1320ETHY    C1 1236   8.190  28.085   9.844
 1321AUSL   AUS 1237   5.828  26.585   6.923
 1322AUSL   AUS 1238   5.684  27.002   6.992
 1323AUL    AUL 1239   5.910  26.889   6.708
 1324THSLK    S 1240   5.930  26.533   6.687
 1325ETHY    C1 1241   6.143  26.313   6.351
 1326ETHY    C1 1242   6.408  26.136   5.923
 1327ETHY    C1 1243   6.680  26.060   5.479
 1328ETHY    C1 1244   6.954  26.077   5.033
 1329ETHY    C1 1245   7.225  26.190   4.594
 1330ETHY    C1 1246   7.490  26.399   4.173
 1331THSLK    S 1247   5.862  27.113   6.829
 1332ETHY    C1 1248   6.164  27.181   6.497
 1333ETHY    C1 1249   6.483  27.344   6.100
 1334ETHY    C1 1250   6.748  27.591   5.719
 1335ETHY    C1 1251   6.960  27.911   5.362
 1336ETHY    C1 1252   7.113  28.301   5.039
 1337ETHY    C1 1253   7.204  28.753   4.759
 1338AUSL   AUS 1254   5.583  26.434   6.829
 1339AUSL   AUS 1255   5.929  26.321   7.086
 1340AUL    AUL 1256   5.910  26.282   6.708
 1341THSLK    S 1257   6.062  26.129   6.949
 1342ETHY    C1 1258   6.245  25.762   6.752
 1343ETHY    C1 1259   6.517  25.390   6.483
 1344ETHY    C1 1260   6.842  25.101   6.186
 1345ETHY    C1 1261   7.208  24.894   5.874
 1346ETHY    C1 1262   7.612  24.775   5.555
 1347ETHY    C1 1263   8.045  24.750   5.235
 1348THSLK    S 1264   5.668  26.378   6.596
 1349ETHY    C1 1265   5.742  26.097   6.246
 1350ETHY    C1 1266   5.847  25.841   5.788
 1351ETHY    C1 1267   5.969  25.683   5.302
 1352ETHY    C1 1268   6.108  25.614   4.801
 1353ETHY    C1 1269   6.262  25.641   4.297
 1354ETHY    C1 1270   6.431  25.765   3.799
 1355AUSL   AUS 1271   5.583  26.737   6.829
 1356AUSL   AUS 1272   5.255  26.434   6.829
 1357AUL    AUL 1273   5.419  26.585   6.521
 1358THSLK    S 1274   5.163  26.378   6.597
 1359ETHY    C1 1275   5.028  26.100   6.264
 1360ETHY    C1 1276   4.867  25.847   5.822
 1361ETHY    C1 1277   4.715  25.690   5.343
 1362ETHY    C1 1278   4.579  25.621   4.842
 1363ETHY    C1 1279   4.462  25.647   4.328
 1364ETHY    C1 1280   4.369  25.766   3.810
 1365THSLK    S 1281   5.685  26.691   6.583
 1366ETHY    C1 1282   5.831  26.541   6.179
 1367ETHY    C1 1283   5.993  26.450   5.678
 1368ETHY    C1 1284   6.140  26.460   5.173
 1369ETHY    C1 1285   6.273  26.561   4.677
 1370ETHY    C1 1286   6.390  26.756   4.200
 1371ETHY    C1 1287   6.491  27.042   3.754
 1372AUSL   AUS 1288   5.010  26.585   8.083
 1373AUSL   AUS 1289   5.154  27.002   8.013
 1374AUL    AUL 1290   4.928  26.889   8.297
 1375THSLK    S 1291   4.908  26.533   8.319
 1376ETHY    C1 1292   4.696  26.313   8.654
 1377ETHY    C1 1293   4.430  26.136   9.082
 1378ETHY    C1 1294   4.158  26.060   9.526
 1379ETHY    C1 1295   3.884  26.077   9.973
 1380ETHY    C1 1296   3.613  26.190  10.411
 1381ETHY    C1 1297   3.348  26.399  10.832
 1382THSLK    S 1298   5.037  27.126   8.202
 1383ETHY    C1 1299   4.994  27.269   8.632
 1384ETHY    C1 1300   4.883  27.494   9.104
 1385ETHY    C1 1301   4.707  27.771   9.515
 1386ETHY    C1 1302   4.476  28.087   9.863
 1387ETHY    C1 1303   4.190  28.435  10.138
 1388ETHY    C1 1304   3.853  28.808  10.334
 1389AUSL   AUS 1305   5.255  26.434   8.176
 1390AUSL   AUS 1306   4.909  26.321   7.919
 1391AUL    AUL 1307   4.928  26.282   8.297
 1392THSLK    S 1308   4.732  26.158   8.026
 1393ETHY    C1 1309   4.361  25.901   8.082
 1394ETHY    C1 1310   3.939  25.613   8.237
 1395ETHY    C1 1311   3.549  25.358   8.482
 1396ETHY    C1 1312   3.197  25.141   8.803
 1397ETHY    C1 1313   2.891  24.970   9.198
 1398ETHY    C1 1314   2.634  24.849   9.657
 1399THSLK    S 1315   5.153  26.380   8.406
 1400ETHY    C1 1316   5.007  26.104   8.736
 1401ETHY    C1 1317   4.845  25.852   9.178
 1402ETHY    C1 1318   4.698  25.694   9.658
 1403ETHY    C1 1319   4.565  25.624  10.160
 1404ETHY    C1 1320   4.448  25.650  10.674
 1405ETHY    C1 1321   4.347  25.771  11.190
 1406AUSL   AUS 1322   5.010  26.585   6.923
 1407AUSL   AUS 1323   5.154  26.169   6.992
 1408AUL    AUL 1324   4.928  26.282   6.708
 1409THSLK    S 1325   4.917  26.533   6.681
 1410ETHY    C1 1326   4.713  26.313   6.341
 1411ETHY    C1 1327   4.449  26.136   5.911
 1412ETHY    C1 1328   4.173  26.060   5.470
 1413ETHY    C1 1329   3.896  26.077   5.025
 1414ETHY    C1 1330   3.626  26.190   4.586
 1415ETHY    C1 1331   3.367  26.399   4.161
 1416THSLK    S 1332   4.983  25.996   6.878
 1417ETHY    C1 1333   4.688  25.670   6.760
 1418ETHY    C1 1334   4.370  25.303   6.538
 1419ETHY    C1 1335   4.102  24.968   6.233
 1420ETHY    C1 1336   3.888  24.668   5.861
 1421ETHY    C1 1337   3.736  24.410   5.426
 1422ETHY    C1 1338   3.650  24.198   4.937
 1423AUSL   AUS 1339   5.255  26.737   6.829
 1424AUSL   AUS 1340   4.909  26.850   7.086
 1425AUL    AUL 1341   4.928  26.889   6.708
 1426THSLK    S 1342   4.782  26.977   6.895
 1427ETHY    C1 1343   4.605  27.058   6.484
 1428ETHY    C1 1344   4.334  27.198   6.046
 1429ETHY    C1 1345   4.007  27.386   5.679
 1430ETHY    C1 1346   3.638  27.615   5.385
 1431ETHY    C1 1347   3.236  27.882   5.173
 1432ETHY    C1 1348   2.807  28.184   5.047
 1433THSLK    S 1349   5.180  26.693   6.576
 1434ETHY    C1 1350   5.116  26.546   6.150
 1435ETHY    C1 1351   5.013  26.457   5.634
 1436ETHY    C1 1352   4.886  26.468   5.123
 1437ETHY    C1 1353   4.744  26.569   4.629
 1438ETHY    C1 1354   4.591  26.762   4.162
 1439ETHY    C1 1355   4.430  27.045   3.732
 1440AUSL   AUS 1356   5.999  26.994   7.503
 1441AUSL   AUS 1357   5.929  26.850   7.086
 1442AUL    AUL 1358   6.213  27.076   7.199
 1443THSLK    S 1359   6.107  26.949   6.934
 1444ETHY    C1 1360   6.477  26.922   6.671
 1445ETHY    C1 1361   6.899  26.978   6.349
 1446ETHY    C1 1362   7.289  27.132   6.030
 1447ETHY    C1 1363   7.641  27.369   5.724
 1448ETHY    C1 1364   7.948  27.690   5.438
 1449ETHY    C1 1365   8.204  28.089   5.179
 1450THSLK    S 1366   6.265  27.047   7.508
 1451ETHY    C1 1367   6.719  27.069   7.513
 1452ETHY    C1 1368   7.241  27.183   7.514
 1453ETHY    C1 1369   7.724  27.392   7.511
 1454ETHY    C1 1370   8.160  27.682   7.510
 1455ETHY    C1 1371   8.539  28.049   7.510
 1456ETHY    C1 1372   8.853  28.489   7.514
 1457AUSL   AUS 1373   6.093  26.749   7.351
 1458AUSL   AUS 1374   6.093  26.422   7.654
 1459AUL    AUL 1375   6.401  26.585   7.503
 1460THSLK    S 1376   6.349  26.788   7.350
 1461ETHY    C1 1377   6.785  26.680   7.286
 1462ETHY    C1 1378   7.311  26.642   7.201
 1463ETHY    C1 1379   7.826  26.706   7.113
 1464ETHY    C1 1380   8.320  26.860   7.026
 1465ETHY    C1 1381   8.780  27.105   6.945
 1466ETHY    C1 1382   9.199  27.437   6.873
 1467THSLK    S 1383   6.320  26.282   7.663
 1468ETHY    C1 1384   6.639  25.966   7.728
 1469ETHY    C1 1385   7.072  25.662   7.807
 1470ETHY    C1 1386   7.547  25.452   7.887
 1471ETHY    C1 1387   8.050  25.331   7.971
 1472ETHY    C1 1388   8.570  25.305   8.058
 1473ETHY    C1 1389   9.098  25.375   8.147
 1474AUSL   AUS 1390   6.093  26.749   7.654
 1475AUSL   AUS 1391   5.835  27.096   7.767
 1476AUL    AUL 1392   6.213  27.076   7.806
 1477THSLK    S 1393   6.018  27.210   7.926
 1478ETHY    C1 1394   6.401  27.328   8.140
 1479ETHY    C1 1395   6.819  27.551   8.388
 1480ETHY    C1 1396   7.178  27.856   8.622
 1481ETHY    C1 1397   7.475  28.229   8.840
 1482ETHY    C1 1398   7.700  28.663   9.038
 1483ETHY    C1 1399   7.847  29.151   9.215
 1484THSLK    S 1400   6.347  26.788   7.665
 1485ETHY    C1 1401   6.782  26.680   7.740
 1486ETHY    C1 1402   7.308  26.642   7.826
 1487ETHY    C1 1403   7.823  26.705   7.910
 1488ETHY    C1 1404   8.317  26.859   7.993
 1489ETHY    C1 1405   8.778  27.104   8.075
 1490ETHY    C1 1406   9.195  27.436   8.155
 1491AUSL   AUS 1407   4.839  26.994   7.503
 1492AUSL   AUS 1408   4.909  26.850   7.919
 1493AUL    AUL 1409   4.625  27.076   7.806
 1494THSLK    S 1410   4.776  26.969   8.109
 1495ETHY    C1 1411   4.593  27.041   8.519
 1496ETHY    C1 1412   4.321  27.181   8.957
 1497ETHY    C1 1413   3.996  27.372   9.324
 1498ETHY    C1 1414   3.630  27.603   9.619
 1499ETHY    C1 1415   3.227  27.870   9.831
 1500ETHY    C1 1416   2.793  28.166   9.956
 1501THSLK    S 1417   4.628  27.135   7.508
 1502ETHY    C1 1418   4.406  27.532   7.513
 1503ETHY    C1 1419   4.070  27.947   7.514
 1504ETHY    C1 1420   3.667  28.286   7.511
 1505ETHY    C1 1421   3.213  28.547   7.510
 1506ETHY    C1 1422   2.714  28.721   7.510
 1507ETHY    C1 1423   2.181  28.805   7.514
 1508AUSL   AUS 1424   4.745  26.749   7.351
 1509AUSL   AUS 1425   5.003  27.096   7.238
 1510AUL    AUL 1426   4.625  27.076   7.199
 1511THSLK    S 1427   4.518  26.864   7.303
 1512ETHY    C1 1428   4.199  27.064   7.049
 1513ETHY    C1 1429   3.766  27.270   6.813
 1514ETHY    C1 1430   3.291  27.436   6.661
 1515ETHY    C1 1431   2.788  27.565   6.590
 1516ETHY    C1 1432   2.268  27.655   6.605
 1517ETHY    C1 1433   1.740  27.703   6.708
 1518THSLK    S 1434   4.891  27.259   7.060
 1519ETHY    C1 1435   4.812  27.569   6.737
 1520ETHY    C1 1436   4.637  27.943   6.397
 1521ETHY    C1 1437   4.383  28.311   6.120
 1522ETHY    C1 1438   4.063  28.668   5.909
 1523ETHY    C1 1439   3.682  29.006   5.770
 1524ETHY    C1 1440   3.247  29.320   5.709
 1525AUSL   AUS 1441   4.745  26.749   7.654
 1526AUSL   AUS 1442   4.745  26.422   7.351
 1527AUL    AUL 1443   4.437  26.585   7.503
 1528THSLK    S 1444   4.491  26.349   7.394
 1529ETHY    C1 1445   4.056  26.331   7.524
 1530ETHY    C1 1446   3.530  26.271   7.597
 1531ETHY    C1 1447   3.015  26.167   7.578
 1532ETHY    C1 1448   2.521  26.024   7.477
 1533ETHY    C1 1449   2.061  25.841   7.294
 1534ETHY    C1 1450   1.643  25.621   7.034
 1535THSLK    S 1451   4.517  26.855   7.707
 1536ETHY    C1 1452   4.196  27.046   7.966
 1537ETHY    C1 1453   3.763  27.250   8.202
 1538ETHY    C1 1454   3.288  27.421   8.352
 1539ETHY    C1 1455   2.786  27.553   8.422
 1540ETHY    C1 1456   2.266  27.641   8.407
 1541ETHY    C1 1457   1.737  27.682   8.308
 1542AUSL   AUS 1458   5.999  26.176   7.503
 1543AUSL   AUS 1459   5.929  26.321   7.919
 1544AUL    AUL 1460   6.213  26.095   7.806
 1545THSLK    S 1461   6.210  26.035   7.508
 1546ETHY    C1 1462   6.432  25.639   7.513
 1547ETHY    C1 1463   6.768  25.224   7.514
 1548ETHY    C1 1464   7.171  24.885   7.511
 1549ETHY    C1 1465   7.625  24.624   7.510
 1550ETHY    C1 1466   8.124  24.450   7.510
 1551ETHY    C1 1467   8.657  24.366   7.514
 1552THSLK    S 1468   6.056  26.130   8.064
 1553ETHY    C1 1469   6.233  25.765   8.270
 1554ETHY    C1 1470   6.504  25.393   8.540
 1555ETHY    C1 1471   6.831  25.104   8.834
 1556ETHY    C1 1472   7.200  24.896   9.142
 1557ETHY    C1 1473   7.602  24.778   9.462
 1558ETHY    C1 1474   8.031  24.753   9.789
 1559AUSL   AUS 1475   6.093  26.422   7.351
 1560AUSL   AUS 1476   5.835  26.075   7.238
 1561AUL    AUL 1477   6.213  26.095   7.199
 1562THSLK    S 1478   6.321  26.282   7.353
 1563ETHY    C1 1479   6.642  25.965   7.298
 1564ETHY    C1 1480   7.075  25.662   7.221
 1565ETHY    C1 1481   7.550  25.452   7.136
 1566ETHY    C1 1482   8.052  25.331   7.048
 1567ETHY    C1 1483   8.572  25.304   6.963
 1568ETHY    C1 1484   9.101  25.375   6.881
 1569THSLK    S 1485   5.951  25.886   7.108
 1570ETHY    C1 1486   6.035  25.457   6.984
 1571ETHY    C1 1487   6.210  24.985   6.803
 1572ETHY    C1 1488   6.463  24.574   6.593
 1573ETHY    C1 1489   6.781  24.226   6.366
 1574ETHY    C1 1490   7.163  23.951   6.126
 1575ETHY    C1 1491   7.601  23.754   5.880
 1576AUSL   AUS 1492   4.839  26.176   7.503
 1577AUSL   AUS 1493   4.909  26.321   7.086
 1578AUL    AUL 1494   4.625  26.095   7.199
 1579THSLK    S 1495   4.738  26.150   6.978
 1580ETHY    C1 1496   4.374  25.885   6.921
 1581ETHY    C1 1497   3.952  25.595   6.766
 1582ETHY    C1 1498   3.560  25.343   6.521
 1583ETHY    C1 1499   3.206  25.130   6.200
 1584ETHY    C1 1500   2.899  24.957   5.806
 1585ETHY    C1 1501   2.648  24.830   5.346
 1586THSLK    S 1502   4.573  26.124   7.508
 1587ETHY    C1 1503   4.119  26.102   7.513
 1588ETHY    C1 1504   3.597  25.988   7.514
 1589ETHY    C1 1505   3.115  25.779   7.511
 1590ETHY    C1 1506   2.678  25.489   7.510
 1591ETHY    C1 1507   2.299  25.122   7.510
 1592ETHY    C1 1508   1.986  24.682   7.514
 1593AUSL   AUS 1509   4.745  26.422   7.654
 1594AUSL   AUS 1510   5.003  26.075   7.767
 1595AUL    AUL 1511   4.625  26.095   7.806
 1596THSLK    S 1512   4.815  25.935   7.878
 1597ETHY    C1 1513   4.428  25.698   7.893
 1598ETHY    C1 1514   4.010  25.378   7.982
 1599ETHY    C1 1515   3.652  25.029   8.149
 1600ETHY    C1 1516   3.357  24.665   8.382
 1601ETHY    C1 1517   3.132  24.294   8.683
 1602ETHY    C1 1518   2.981  23.923   9.045
 1603THSLK    S 1519   4.489  26.359   7.616
 1604ETHY    C1 1520   4.053  26.349   7.491
 1605ETHY    C1 1521   3.527  26.290   7.419
 1606ETHY    C1 1522   3.012  26.183   7.436
 1607ETHY    C1 1523   2.518  26.037   7.535
 1608ETHY    C1 1524   2.058  25.855   7.718
 1609ETHY    C1 1525   1.639  25.642   7.983
 1610AUSL   AUS 1526   5.419  27.165   7.912
 1611AUSL   AUS 1527   5.003  27.096   7.767
 1612AUL    AUL 1528   5.116  27.380   7.993
 1613THSLK    S 1529   4.887  27.252   7.952
 1614ETHY    C1 1530   4.803  27.554   8.280
 1615ETHY    C1 1531   4.628  27.927   8.621
 1616ETHY    C1 1532   4.375  28.298   8.895
 1617ETHY    C1 1533   4.057  28.657   9.105
 1618ETHY    C1 1534   3.675  28.995   9.244
 1619ETHY    C1 1535   3.237  29.303   9.309
 1620THSLK    S 1536   5.461  27.387   8.035
 1621ETHY    C1 1537   5.645  27.662   8.347
 1622ETHY    C1 1538   5.795  28.042   8.691
 1623ETHY    C1 1539   5.861  28.465   8.998
 1624ETHY    C1 1540   5.848  28.916   9.264
 1625ETHY    C1 1541   5.751  29.385   9.485
 1626ETHY    C1 1542   5.571  29.864   9.656
 1627AUSL   AUS 1543   5.267  27.259   7.666
 1628AUSL   AUS 1544   5.571  27.259   7.339
 1629AUL    AUL 1545   5.419  27.567   7.503
 1630THSLK    S 1546   5.310  27.503   7.776
 1631ETHY    C1 1547   5.454  27.897   7.951
 1632ETHY    C1 1548   5.541  28.391   8.137
 1633ETHY    C1 1549   5.529  28.892   8.294
 1634ETHY    C1 1550   5.428  29.390   8.425
 1635ETHY    C1 1551   5.236  29.871   8.527
 1636ETHY    C1 1552   4.956  30.326   8.600
 1637THSLK    S 1553   5.626  27.490   7.243
 1638ETHY    C1 1554   5.902  27.820   7.096
 1639ETHY    C1 1555   6.152  28.261   6.927
 1640ETHY    C1 1556   6.308  28.738   6.771
 1641ETHY    C1 1557   6.377  29.240   6.635
 1642ETHY    C1 1558   6.353  29.756   6.525
 1643ETHY    C1 1559   6.236  30.276   6.443
 1644AUSL   AUS 1560   5.571  27.259   7.666
 1645AUSL   AUS 1561   5.684  27.002   8.013
 1646AUL    AUL 1562   5.722  27.380   7.993
 1647THSLK    S 1563   5.855  27.110   8.183
 1648ETHY    C1 1564   6.150  27.175   8.523
 1649ETHY    C1 1565   6.468  27.337   8.920
 1650ETHY    C1 1566   6.736  27.586   9.298
 1651ETHY    C1 1567   6.950  27.908   9.653
 1652ETHY    C1 1568   7.102  28.296   9.976
 1653ETHY    C1 1569   7.188  28.746  10.262
 1654THSLK    S 1570   5.624  27.488   7.772
 1655ETHY    C1 1571   5.896  27.816   7.929
 1656ETHY    C1 1572   6.146  28.256   8.100
 1657ETHY    C1 1573   6.304  28.735   8.251
 1658ETHY    C1 1574   6.373  29.237   8.383
 1659ETHY    C1 1575   6.349  29.752   8.494
 1660ETHY    C1 1576   6.230  30.271   8.585
 1661AUSL   AUS 1577   5.419  26.005   7.912
 1662AUSL   AUS 1578   5.835  26.075   7.767
 1663AUL    AUL 1579   5.722  25.791   7.993
 1664THSLK    S 1580   5.372  25.755   7.989
 1665ETHY    C1 1581   5.182  25.359   8.103
 1666ETHY    C1 1582   5.031  24.881   8.289
 1667ETHY    C1 1583   4.968  24.416   8.528
 1668ETHY    C1 1584   4.983  23.974   8.809
 1669ETHY    C1 1585   5.079  23.567   9.132
 1670ETHY    C1 1586   5.254  23.204   9.489
 1671THSLK    S 1587   5.947  25.888   7.907
 1672ETHY    C1 1588   6.026  25.460   8.040
 1673ETHY    C1 1589   6.201  24.990   8.222
 1674ETHY    C1 1590   6.455  24.578   8.428
 1675ETHY    C1 1591   6.775  24.229   8.652
 1676ETHY    C1 1592   7.156  23.954   8.893
 1677ETHY    C1 1593   7.591  23.758   9.147
 1678AUSL   AUS 1594   5.267  25.912   7.666
 1679AUSL   AUS 1595   5.154  26.169   8.013
 1680AUL    AUL 1596   5.116  25.791   7.993
 1681THSLK    S 1597   5.212  25.676   7.745
 1682ETHY    C1 1598   4.937  25.317   7.788
 1683ETHY    C1 1599   4.686  24.852   7.869
 1684ETHY    C1 1600   4.530  24.362   7.981
 1685ETHY    C1 1601   4.461  23.863   8.122
 1686ETHY    C1 1602   4.485  23.363   8.292
 1687ETHY    C1 1603   4.602  22.875   8.489
 1688THSLK    S 1604   4.976  26.003   8.129
 1689ETHY    C1 1605   4.674  25.685   8.248
 1690ETHY    C1 1606   4.355  25.318   8.471
 1691ETHY    C1 1607   4.090  24.981   8.776
 1692ETHY    C1 1608   3.878  24.679   9.147
 1693ETHY    C1 1609   3.725  24.421   9.582
 1694ETHY    C1 1610   3.634  24.214  10.072
 1695AUSL   AUS 1611   5.571  25.912   7.666
 1696AUSL   AUS 1612   5.267  25.912   7.339
 1697AUL    AUL 1613   5.419  25.604   7.503
 1698THSLK    S 1614   5.214  25.673   7.270
 1699ETHY    C1 1615   4.942  25.311   7.236
 1700ETHY    C1 1616   4.692  24.846   7.157
 1701ETHY    C1 1617   4.535  24.357   7.041
 1702ETHY    C1 1618   4.465  23.858   6.896
 1703ETHY    C1 1619   4.489  23.359   6.727
 1704ETHY    C1 1620   4.608  22.868   6.538
 1705THSLK    S 1621   5.525  25.660   7.749
 1706ETHY    C1 1622   5.378  25.234   7.811
 1707ETHY    C1 1623   5.292  24.716   7.906
 1708ETHY    C1 1624   5.304  24.203   8.025
 1709ETHY    C1 1625   5.406  23.708   8.165
 1710ETHY    C1 1626   5.598  23.243   8.325
 1711ETHY    C1 1627   5.876  22.817   8.504
 1712AUSL   AUS 1628   5.419  27.165   7.094
 1713AUSL   AUS 1629   5.835  27.096   7.238
 1714AUL    AUL 1630   5.722  27.380   7.012
 1715THSLK    S 1631   5.466  27.392   6.977
 1716ETHY    C1 1632   5.656  27.671   6.674
 1717ETHY    C1 1633   5.807  28.052   6.330
 1718ETHY    C1 1634   5.871  28.472   6.021
 1719ETHY    C1 1635   5.855  28.922   5.752
 1720ETHY    C1 1636   5.759  29.392   5.532
 1721ETHY    C1 1637   5.584  29.875   5.366
 1722THSLK    S 1638   6.023  27.212   7.089
 1723ETHY    C1 1639   6.410  27.332   6.883
 1724ETHY    C1 1640   6.828  27.555   6.637
 1725ETHY    C1 1641   7.186  27.859   6.400
 1726ETHY    C1 1642   7.481  28.231   6.178
 1727ETHY    C1 1643   7.706  28.666   5.981
 1728ETHY    C1 1644   7.857  29.155   5.811
 1729AUSL   AUS 1645   5.267  27.259   7.339
 1730AUSL   AUS 1646   5.154  27.002   6.992
 1731AUL    AUL 1647   5.116  27.380   7.012
 1732THSLK    S 1648   5.313  27.506   7.239
 1733ETHY    C1 1649   5.460  27.903   7.074
 1734ETHY    C1 1650   5.546  28.397   6.889
 1735ETHY    C1 1651   5.534  28.898   6.727
 1736ETHY    C1 1652   5.432  29.394   6.593
 1737ETHY    C1 1653   5.240  29.875   6.492
 1738ETHY    C1 1654   4.962  30.333   6.427
 1739THSLK    S 1655   5.044  27.134   6.805
 1740ETHY    C1 1656   5.008  27.283   6.377
 1741ETHY    C1 1657   4.898  27.509   5.906
 1742ETHY    C1 1658   4.720  27.784   5.494
 1743ETHY    C1 1659   4.486  28.097   5.145
 1744ETHY    C1 1660   4.200  28.446   4.870
 1745ETHY    C1 1661   3.869  28.824   4.675
 1746AUSL   AUS 1662   5.419  26.005   7.094
 1747AUSL   AUS 1663   5.003  26.075   7.238
 1748AUL    AUL 1664   5.116  25.791   7.012
 1749THSLK    S 1665   4.820  25.927   7.134
 1750ETHY    C1 1666   4.437  25.683   7.124
 1751ETHY    C1 1667   4.019  25.362   7.035
 1752ETHY    C1 1668   3.660  25.016   6.866
 1753ETHY    C1 1669   3.363  24.655   6.631
 1754ETHY    C1 1670   3.138  24.283   6.331
 1755ETHY    C1 1671   2.991  23.906   5.974
 1756THSLK    S 1672   5.377  25.750   7.024
 1757ETHY    C1 1673   5.193  25.349   6.917
 1758ETHY    C1 1674   5.043  24.871   6.732
 1759ETHY    C1 1675   4.977  24.408   6.491
 1760ETHY    C1 1676   4.990  23.968   6.206
 1761ETHY    C1 1677   5.087  23.561   5.885
 1762ETHY    C1 1678   5.267  23.193   5.533
 1763AUSL   AUS 1679   5.571  25.912   7.339
 1764AUSL   AUS 1680   5.684  26.169   6.992
 1765AUL    AUL 1681   5.722  25.791   7.012
 1766THSLK    S 1682   5.528  25.658   7.266
 1767ETHY    C1 1683   5.384  25.230   7.213
 1768ETHY    C1 1684   5.297  24.711   7.120
 1769ETHY    C1 1685   5.309  24.199   6.997
 1770ETHY    C1 1686   5.410  23.705   6.854
 1771ETHY    C1 1687   5.602  23.240   6.695
 1772ETHY    C1 1688   5.882  22.812   6.523
 1773THSLK    S 1689   5.801  25.979   6.859
 1774ETHY    C1 1690   5.845  25.577   6.651
 1775ETHY    C1 1691   5.955  25.146   6.355
 1776ETHY    C1 1692   6.131  24.783   6.017
 1777ETHY    C1 1693   6.362  24.489   5.651
 1778ETHY    C1 1694   6.648  24.272   5.264
 1779ETHY    C1 1695   6.985  24.136   4.865
 1780AUC    AUC 1696  30.545  23.656   7.503
 1781AUC    AUC 1697  30.790  23.656   7.351
 1782AUC    AUC 1698  30.790  23.656   7.654
 1783AUC    AUC 1699  30.300  23.656   7.351
 1784AUC    AUC 1700  30.300  23.656   7.654
 1785AUC    AUC 1701  30.393  23.902   7.503
 1786AUC    AUC 1702  30.697  23.902   7.503
 1787AUC    AUC 1703  30.393  23.411   7.503
 1788AUC    AUC 1704  30.697  23.411   7.503
 1789AUC    AUC 1705  30.545  23.505   7.748
 1790AUC    AUC 1706  30.545  23.808   7.748
 1791AUC    AUC 1707  30.545  23.505   7.257
 1792AUC    AUC 1708  30.545  23.808   7.257
 1793AUC    AUC 1709  31.036  23.656   7.199
 1794AUC    AUC 1710  31.036  23.656   7.503
 1795AUC    AUC 1711  31.036  23.656   7.806
 1796AUC    AUC 1712  30.054  23.656   7.199
 1797AUC    AUC 1713  30.054  23.656   7.503
 1798AUC    AUC 1714  30.054  23.656   7.806
 1799AUC    AUC 1715  30.242  24.147   7.503
 1800AUC    AUC 1716  30.545  24.147   7.503
 1801AUC    AUC 1717  30.848  24.147   7.503
 1802AUC    AUC 1718  30.242  23.166   7.503
 1803AUC    AUC 1719  30.545  23.166   7.503
 1804AUC    AUC 1720  30.848  23.166   7.503
 1805AUC    AUC 1721  30.545  23.353   7.993
 1806AUC    AUC 1722  30.545  23.656   7.993
 1807AUC    AUC 1723  30.545  23.960   7.993
 1808AUC    AUC 1724  30.545  23.353   7.012
 1809AUC    AUC 1725  30.545  23.656   7.012
 1810AUC    AUC 1726  30.545  23.960   7.012
 1811AUC    AUC 1727  30.790  23.505   7.900
 1812AUC    AUC 1728  30.790  23.808   7.900
 1813AUC    AUC 1729  30.790  23.505   7.106
 1814AUC    AUC 1730  30.790  23.808   7.106
 1815AUC    AUC 1731  30.300  23.505   7.900
 1816AUC    AUC 1732  30.300  23.808   7.900
 1817AUC    AUC 1733  30.300  23.505   7.106
 1818AUC    AUC 1734  30.300  23.808   7.106
 1819AUC    AUC 1735  30.942  23.902   7.351
 1820AUC    AUC 1736  30.942  23.902   7.654
 1821AUC    AUC 1737  30.148  23.902   7.351
 1822AUC    AUC 1738  30.148  23.902   7.654
 1823AUC    AUC 1739  30.942  23.411   7.351
 1824AUC    AUC 1740  30.942  23.411   7.654
 1825AUC    AUC 1741  30.148  23.411   7.351
 1826AUC    AUC 1742  30.148  23.411   7.654
 1827AUC    AUC 1743  30.393  24.054   7.748
 1828AUC    AUC 1744  30.697  24.054   7.748
 1829AUC    AUC 1745  30.393  23.259   7.748
 1830AUC    AUC 1746  30.697  23.259   7.748
 1831AUC    AUC 1747  30.393  24.054   7.257
 1832AUC    AUC 1748  30.697  24.054   7.257
 1833AUC    AUC 1749  30.393  23.259   7.257
 1834AUC    AUC 1750  30.697  23.259   7.257
 1835AUSL   AUS 1751  30.954  23.656   8.083
 1836AUSL   AUS 1752  30.810  23.240   8.013
 1837AUL    AUL 1753  31.036  23.353   8.297
 1838THSLK    S 1754  30.920  23.053   8.153
 1839ETHY    C1 1755  30.956  22.654   8.368
 1840ETHY    C1 1756  31.066  22.224   8.665
 1841ETHY    C1 1757  31.244  21.860   9.000
 1842ETHY    C1 1758  31.478  21.564   9.364
 1843ETHY    C1 1759  31.764  21.347   9.752
 1844ETHY    C1 1760  32.095  21.214  10.156
 1845THSLK    S 1761  31.047  23.604   8.324
 1846ETHY    C1 1762  31.251  23.384   8.665
 1847ETHY    C1 1763  31.515  23.207   9.094
 1848ETHY    C1 1764  31.791  23.131   9.535
 1849ETHY    C1 1765  32.068  23.148   9.980
 1850ETHY    C1 1766  32.338  23.261  10.419
 1851ETHY    C1 1767  32.597  23.470  10.845
 1852AUSL   AUS 1768  30.709  23.505   8.176
 1853AUSL   AUS 1769  30.381  23.808   8.176
 1854AUL    AUL 1770  30.545  23.656   8.484
 1855THSLK    S 1771  30.784  23.450   8.413
 1856ETHY    C1 1772  30.848  23.170   8.765
 1857ETHY    C1 1773  30.951  22.915   9.223
 1858ETHY    C1 1774  31.078  22.756   9.708
 1859ETHY    C1 1775  31.220  22.687  10.208
 1860ETHY    C1 1776  31.374  22.715  10.713
 1861ETHY    C1 1777  31.534  22.839  11.212
 1862THSLK    S 1778  30.296  23.762   8.428
 1863ETHY    C1 1779  30.222  23.612   8.850
 1864ETHY    C1 1780  30.117  23.524   9.367
 1865ETHY    C1 1781  29.995  23.536   9.878
 1866ETHY    C1 1782  29.857  23.637  10.373
 1867ETHY    C1 1783  29.702  23.830  10.840
 1868ETHY    C1 1784  29.533  24.111  11.268
 1869AUSL   AUS 1785  30.709  23.808   8.176
 1870AUSL   AUS 1786  31.055  23.921   7.919
 1871AUL    AUL 1787  31.036  23.960   8.297
 1872THSLK    S 1788  30.794  23.864   8.410
 1873ETHY    C1 1789  30.868  24.145   8.759
 1874ETHY    C1 1790  30.973  24.400   9.217
 1875ETHY    C1 1791  31.095  24.559   9.703
 1876ETHY    C1 1792  31.234  24.628  10.204
 1877ETHY    C1 1793  31.388  24.601  10.708
 1878ETHY    C1 1794  31.557  24.477  11.206
 1879THSLK    S 1795  31.227  24.019   8.080
 1880ETHY    C1 1796  31.590  23.990   8.350
 1881ETHY    C1 1797  32.012  24.046   8.673
 1882ETHY    C1 1798  32.404  24.200   8.989
 1883ETHY    C1 1799  32.758  24.438   9.293
 1884ETHY    C1 1800  33.065  24.759   9.580
 1885ETHY    C1 1801  33.316  25.156   9.844
 1886AUSL   AUS 1802  30.954  23.656   6.923
 1887AUSL   AUS 1803  30.810  24.073   6.992
 1888AUL    AUL 1804  31.036  23.960   6.708
 1889THSLK    S 1805  31.056  23.604   6.687
 1890ETHY    C1 1806  31.269  23.384   6.351
 1891ETHY    C1 1807  31.534  23.207   5.923
 1892ETHY    C1 1808  31.806  23.131   5.479
 1893ETHY    C1 1809  32.080  23.148   5.033
 1894ETHY    C1 1810  32.351  23.261   4.594
 1895ETHY    C1 1811  32.616  23.470   4.173
 1896THSLK    S 1812  30.988  24.184   6.829
 1897ETHY    C1 1813  31.290  24.252   6.497
 1898ETHY    C1 1814  31.609  24.415   6.100
 1899ETHY    C1 1815  31.874  24.662   5.719
 1900ETHY    C1 1816  32.086  24.982   5.362
 1901ETHY    C1 1817  32.239  25.372   5.039
 1902ETHY    C1 1818  32.330  25.824   4.759
 1903AUSL   AUS 1819  30.709  23.505   6.829
 1904AUSL   AUS 1820  31.055  23.392   7.086
 1905AUL    AUL 1821  31.036  23.353   6.708
 1906THSLK    S 1822  31.188  23.200   6.949
 1907ETHY    C1 1823  31.371  22.833   6.752
 1908ETHY    C1 1824  31.643  22.461   6.483
 1909ETHY    C1 1825  31.968  22.172   6.186
 1910ETHY    C1 1826  32.334  21.965   5.874
 1911ETHY    C1 1827  32.738  21.846   5.555
 1912ETHY    C1 1828  33.171  21.821   5.235
 1913THSLK    S 1829  30.794  23.449   6.596
 1914ETHY    C1 1830  30.868  23.168   6.246
 1915ETHY    C1 1831  30.973  22.912   5.788
 1916ETHY    C1 1832  31.095  22.754   5.302
 1917ETHY    C1 1833  31.234  22.685   4.801
 1918ETHY    C1 1834  31.388  22.712   4.297
 1919ETHY    C1 1835  31.557  22.836   3.799
 1920AUSL   AUS 1836  30.709  23.808   6.829
 1921AUSL   AUS 1837  30.381  23.505   6.829
 1922AUL    AUL 1838  30.545  23.656   6.521
 1923THSLK    S 1839  30.289  23.449   6.597
 1924ETHY    C1 1840  30.154  23.171   6.264
 1925ETHY    C1 1841  29.993  22.918   5.822
 1926ETHY    C1 1842  29.841  22.761   5.343
 1927ETHY    C1 1843  29.705  22.692   4.842
 1928ETHY    C1 1844  29.588  22.718   4.328
 1929ETHY    C1 1845  29.495  22.837   3.810
 1930THSLK    S 1846  30.811  23.762   6.583
 1931ETHY    C1 1847  30.957  23.612   6.179
 1932ETHY    C1 1848  31.119  23.521   5.678
 1933ETHY    C1 1849  31.266  23.531   5.173
 1934ETHY    C1 1850  31.399  23.632   4.677
 1935ETHY    C1 1851  31.516  23.827   4.200
 1936ETHY    C1 1852  31.617  24.113   3.754
 1937AUSL   AUS 1853  30.136  23.656   8.083
 1938AUSL   AUS 1854  30.280  24.073   8.013
 1939AUL    AUL 1855  30.054  23.960   8.297
 1940THSLK    S 1856  30.034  23.604   8.319
 1941ETHY    C1 1857  29.822  23.384   8.654
 1942ETHY    C1 1858  29.556  23.207   9.082
 1943ETHY    C1 1859  29.284  23.131   9.526
 1944ETHY    C1 1860  29.010  23.148   9.973
 1945ETHY    C1 1861  28.739  23.261  10.411
 1946ETHY    C1 1862  28.474  23.470  10.832
 1947THSLK    S 1863  30.163  24.197   8.202
 1948ETHY    C1 1864  30.120  24.340   8.632
 1949ETHY    C1 1865  30.009  24.565   9.104
 1950ETHY    C1 1866  29.833  24.842   9.515
 1951ETHY    C1 1867  29.602  25.158   9.863
 1952ETHY    C1 1868  29.316  25.506  10.138
 1953ETHY    C1 1869  28.979  25.879  10.334
 1954AUSL   AUS 1870  30.381  23.505   8.176
 1955AUSL   AUS 1871  30.035  23.392   7.919
 1956AUL    AUL 1872  30.054  23.353   8.297
 1957THSLK    S 1873  29.858  23.229   8.026
 1958ETHY    C1 1874  29.487  22.972   8.082
 1959ETHY    C1 1875  29.065  22.684   8.237
 1960ETHY    C1 1876  28.675  22.429   8.482
 1961ETHY    C1 1877  28.323  22.212   8.803
 1962ETHY    C1 1878  28.017  22.041   9.198
 1963ETHY    C1 1879  27.760  21.920   9.657
 1964THSLK    S 1880  30.279  23.451   8.406
 1965ETHY    C1 1881  30.133  23.175   8.736
 1966ETHY    C1 1882  29.971  22.923   9.178
 1967ETHY    C1 1883  29.824  22.765   9.658
 1968ETHY    C1 1884  29.691  22.695  10.160
 1969ETHY    C1 1885  29.574  22.721  10.674
 1970ETHY    C1 1886  29.473  22.842  11.190
 1971AUSL   AUS 1887  30.136  23.656   6.923
 1972AUSL   AUS 1888  30.280  23.240   6.992
 1973AUL    AUL 1889  30.054  23.353   6.708
 1974THSLK    S 1890  30.043  23.604   6.681
 1975ETHY    C1 1891  29.839  23.384   6.341
 1976ETHY    C1 1892  29.575  23.207   5.911
 1977ETHY    C1 1893  29.299  23.131   5.470
 1978ETHY    C1 1894  29.022  23.148   5.025
 1979ETHY    C1 1895  28.752  23.261   4.586
 1980ETHY    C1 1896  28.493  23.470   4.161
 1981THSLK    S 1897  30.109  23.067   6.878
 1982ETHY    C1 1898  29.814  22.741   6.760
 1983ETHY    C1 1899  29.496  22.374   6.538
 1984ETHY    C1 1900  29.228  22.039   6.233
 1985ETHY    C1 1901  29.014  21.739   5.861
 1986ETHY    C1 1902  28.862  21.481   5.426
 1987ETHY    C1 1903  28.776  21.269   4.937
 1988AUSL   AUS 1904  30.381  23.808   6.829
 1989AUSL   AUS 1905  30.035  23.921   7.086
 1990AUL    AUL 1906  30.054  23.960   6.708
 1991THSLK    S 1907  29.908  24.048   6.895
 1992ETHY    C1 1908  29.731  24.129   6.484
 1993ETHY    C1 1909  29.460  24.269   6.046
 1994ETHY    C1 1910  29.133  24.457   5.679
 1995ETHY    C1 1911  28.764  24.686   5.385
 1996ETHY    C1 1912  28.362  24.953   5.173
 1997ETHY    C1 1913  27.933  25.255   5.047
 1998THSLK    S 1914  30.306  23.764   6.576
 1999ETHY    C1 1915  30.242  23.617   6.150
 2000ETHY    C1 1916  30.139  23.528   5.634
 2001ETHY    C1 1917  30.012  23.539   5.123
 2002ETHY    C1 1918  29.870  23.640   4.629
 2003ETHY    C1 1919  29.717  23.833   4.162
 2004ETHY    C1 1920  29.556  24.116   3.732
 2005AUSL   AUS 1921  31.125  24.065   7.503
 2006AUSL   AUS 1922  31.055  23.921   7.086
 2007AUL    AUL 1923  31.339  24.147   7.199
 2008THSLK    S 1924  31.233  24.020   6.934
 2009ETHY    C1 1925  31.603  23.993   6.671
 2010ETHY    C1 1926  32.025  24.049   6.349
 2011ETHY    C1 1927  32.415  24.203   6.030
 2012ETHY    C1 1928  32.767  24.440   5.724
 2013ETHY    C1 1929  33.074  24.761   5.438
 2014ETHY    C1 1930  33.330  25.160   5.179
 2015THSLK    S 1931  31.391  24.118   7.508
 2016ETHY    C1 1932  31.845  24.140   7.513
 2017ETHY    C1 1933  32.367  24.254   7.514
 2018ETHY    C1 1934  32.850  24.463   7.511
 2019ETHY    C1 1935  33.286  24.753   7.510
 2020ETHY    C1 1936  33.665  25.120   7.510
 2021ETHY    C1 1937  33.979  25.560   7.514
 2022AUSL   AUS 1938  31.219  23.820   7.351
 2023AUSL   AUS 1939  31.219  23.493   7.654
 2024AUL    AUL 1940  31.527  23.656   7.503
 2025THSLK    S 1941  31.475  23.859   7.350
 2026ETHY    C1 1942  31.911  23.751   7.286
 2027ETHY    C1 1943  32.437  23.713   7.201
 2028ETHY    C1 1944  32.952  23.777   7.113
 2029ETHY    C1 1945  33.446  23.931   7.026
 2030ETHY    C1 1946  33.906  24.176   6.945
 2031ETHY    C1 1947  34.325  24.508   6.873
 2032THSLK    S 1948  31.446  23.353   7.663
 2033ETHY    C1 1949  31.765  23.037   7.728
 2034ETHY    C1 1950  32.198  22.733   7.807
 2035ETHY    C1 1951  32.673  22.523   7.887
 2036ETHY    C1 1952  33.176  22.402   7.971
 2037ETHY    C1 1953  33.696  22.376   8.058
 2038ETHY    C1 1954  34.224  22.446   8.147
 2039AUSL   AUS 1955  31.219  23.820   7.654
 2040AUSL   AUS 1956  30.961  24.167   7.767
 2041AUL    AUL 1957  31.339  24.147   7.806
 2042THSLK    S 1958  31.144  24.281   7.926
 2043ETHY    C1 1959  31.527  24.399   8.140
 2044ETHY    C1 1960  31.945  24.622   8.388
 2045ETHY    C1 1961  32.304  24.927   8.622
 2046ETHY    C1 1962  32.601  25.300   8.840
 2047ETHY    C1 1963  32.826  25.734   9.038
 2048ETHY    C1 1964  32.973  26.222   9.215
 2049THSLK    S 1965  31.473  23.859   7.665
 2050ETHY    C1 1966  31.908  23.751   7.740
 2051ETHY    C1 1967  32.434  23.713   7.826
 2052ETHY    C1 1968  32.949  23.776   7.910
 2053ETHY    C1 1969  33.443  23.930   7.993
 2054ETHY    C1 1970  33.904  24.175   8.075
 2055ETHY    C1 1971  34.321  24.507   8.155
 2056AUSL   AUS 1972  29.965  24.065   7.503
 2057AUSL   AUS 1973  30.035  23.921   7.919
 2058AUL    AUL 1974  29.751  24.147   7.806
 2059THSLK    S 1975  29.902  24.040   8.109
 2060ETHY    C1 1976  29.719  24.112   8.519
 2061ETHY    C1 1977  29.447  24.252   8.957
 2062ETHY    C1 1978  29.122  24.443   9.324
 2063ETHY    C1 1979  28.756  24.674   9.619
 2064ETHY    C1 1980  28.353  24.941   9.831
 2065ETHY    C1 1981  27.919  25.237   9.956
 2066THSLK    S 1982  29.754  24.206   7.508
 2067ETHY    C1 1983  29.532  24.603   7.513
 2068ETHY    C1 1984  29.196  25.018   7.514
 2069ETHY    C1 1985  28.793  25.357   7.511
 2070ETHY    C1 1986  28.339  25.618   7.510
 2071ETHY    C1 1987  27.840  25.792   7.510
 2072ETHY    C1 1988  27.307  25.876   7.514
 2073AUSL   AUS 1989  29.871  23.820   7.351
 2074AUSL   AUS 1990  30.129  24.167   7.238
 2075AUL    AUL 1991  29.751  24.147   7.199
 2076THSLK    S 1992  29.644  23.935   7.303
 2077ETHY    C1 1993  29.325  24.135   7.049
 2078ETHY    C1 1994  28.892  24.341   6.813
 2079ETHY    C1 1995  28.417  24.507   6.661
 2080ETHY    C1 1996  27.914  24.636   6.590
 2081ETHY    C1 1997  27.394  24.726   6.605
 2082ETHY    C1 1998  26.866  24.774   6.708
 2083THSLK    S 1999  30.017  24.330   7.060
 2084ETHY    C1 2000  29.938  24.640   6.737
 2085ETHY    C1 2001  29.763  25.014   6.397
 2086ETHY    C1 2002  29.509  25.382   6.120
 2087ETHY    C1 2003  29.189  25.739   5.909
 2088ETHY    C1 2004  28.808  26.077   5.770
 2089ETHY    C1 2005  28.373  26.391   5.709
 2090AUSL   AUS 2006  29.871  23.820   7.654
 2091AUSL   AUS 2007  29.871  23.493   7.351
 2092AUL    AUL 2008  29.563  23.656   7.503
 2093THSLK    S 2009  29.617  23.420   7.394
 2094ETHY    C1 2010  29.182  23.402   7.524
 2095ETHY    C1 2011  28.656  23.342   7.597
 2096ETHY    C1 2012  28.141  23.238   7.578
 2097ETHY    C1 2013  27.647  23.095   7.477
 2098ETHY    C1 2014  27.187  22.912   7.294
 2099ETHY    C1 2015  26.769  22.692   7.034
 2100THSLK    S 2016  29.643  23.926   7.707
 2101ETHY    C1 2017  29.322  24.117   7.966
 2102ETHY    C1 2018  28.889  24.321   8.202
 2103ETHY    C1 2019  28.414  24.492   8.352
 2104ETHY    C1 2020  27.912  24.624   8.422
 2105ETHY    C1 2021  27.392  24.712   8.407
 2106ETHY    C1 2022  26.863  24.753   8.308
 2107AUSL   AUS 2023  31.125  23.247   7.503
 2108AUSL   AUS 2024  31.055  23.392   7.919
 2109AUL    AUL 2025  31.339  23.166   7.806
 2110THSLK    S 2026  31.336  23.106   7.508
 2111ETHY    C1 2027  31.558  22.710   7.513
 2112ETHY    C1 2028  31.894  22.295   7.514
 2113ETHY    C1 2029  32.297  21.956   7.511
 2114ETHY    C1 2030  32.751  21.695   7.510
 2115ETHY    C1 2031  33.250  21.521   7.510
 2116ETHY    C1 2032  33.783  21.437   7.514
 2117THSLK    S 2033  31.182  23.201   8.064
 2118ETHY    C1 2034  31.359  22.836   8.270
 2119ETHY    C1 2035  31.630  22.464   8.540
 2120ETHY    C1 2036  31.957  22.175   8.834
 2121ETHY    C1 2037  32.326  21.967   9.142
 2122ETHY    C1 2038  32.728  21.849   9.462
 2123ETHY    C1 2039  33.157  21.824   9.789
 2124AUSL   AUS 2040  31.219  23.493   7.351
 2125AUSL   AUS 2041  30.961  23.146   7.238
 2126AUL    AUL 2042  31.339  23.166   7.199
 2127THSLK    S 2043  31.447  23.353   7.353
 2128ETHY    C1 2044  31.768  23.036   7.298
 2129ETHY    C1 2045  32.201  22.733   7.221
 2130ETHY    C1 2046  32.676  22.523   7.136
 2131ETHY    C1 2047  33.178  22.402   7.048
 2132ETHY    C1 2048  33.698  22.375   6.963
 2133ETHY    C1 2049  34.227  22.446   6.881
 2134THSLK    S 2050  31.077  22.957   7.108
 2135ETHY    C1 2051  31.161  22.528   6.984
 2136ETHY    C1 2052  31.336  22.056   6.803
 2137ETHY    C1 2053  31.589  21.645   6.593
 2138ETHY    C1 2054  31.907  21.297   6.366
 2139ETHY    C1 2055  32.289  21.022   6.126
 2140ETHY    C1 2056  32.727  20.825   5.880
 2141AUSL   AUS 2057  29.965  23.247   7.503
 2142AUSL   AUS 2058  30.035  23.392   7.086
 2143AUL    AUL 2059  29.751  23.166   7.199
 2144THSLK    S 2060  29.864  23.221   6.978
 2145ETHY    C1 2061  29.500  22.956   6.921
 2146ETHY    C1 2062  29.078  22.666   6.766
 2147ETHY    C1 2063  28.686  22.414   6.521
 2148ETHY    C1 2064  28.332  22.201   6.200
 2149ETHY    C1 2065  28.025  22.028   5.806
 2150ETHY    C1 2066  27.774  21.901   5.346
 2151THSLK    S 2067  29.699  23.195   7.508
 2152ETHY    C1 2068  29.245  23.173   7.513
 2153ETHY    C1 2069  28.723  23.059   7.514
 2154ETHY    C1 2070  28.241  22.850   7.511
 2155ETHY    C1 2071  27.804  22.560   7.510
 2156ETHY    C1 2072  27.425  22.193   7.510
 2157ETHY    C1 2073  27.112  21.753   7.514
 2158AUSL   AUS 2074  29.871  23.493   7.654
 2159AUSL   AUS 2075  30.129  23.146   7.767
 2160AUL    AUL 2076  29.751  23.166   7.806
 2161THSLK    S 2077  29.941  23.006   7.878
 2162ETHY    C1 2078  29.554  22.769   7.893
 2163ETHY    C1 2079  29.136  22.449   7.982
 2164ETHY    C1 2080  28.778  22.100   8.149
 2165ETHY    C1 2081  28.483  21.736   8.382
 2166ETHY    C1 2082  28.258  21.365   8.683
 2167ETHY    C1 2083  28.107  20.994   9.045
 2168THSLK    S 2084  29.615  23.430   7.616
 2169ETHY    C1 2085  29.179  23.420   7.491
 2170ETHY    C1 2086  28.653  23.361   7.419
 2171ETHY    C1 2087  28.138  23.254   7.436
 2172ETHY    C1 2088  27.644  23.108   7.535
 2173ETHY    C1 2089  27.184  22.926   7.718
 2174ETHY    C1 2090  26.765  22.713   7.983
 2175AUSL   AUS 2091  30.545  24.236   7.912
 2176AUSL   AUS 2092  30.129  24.167   7.767
 2177AUL    AUL 2093  30.242  24.451   7.993
 2178THSLK    S 2094  30.013  24.323   7.952
 2179ETHY    C1 2095  29.929  24.625   8.280
 2180ETHY    C1 2096  29.754  24.998   8.621
 2181ETHY    C1 2097  29.501  25.369   8.895
 2182ETHY    C1 2098  29.183  25.728   9.105
 2183ETHY    C1 2099  28.801  26.066   9.244
 2184ETHY    C1 2100  28.363  26.374   9.309
 2185THSLK    S 2101  30.587  24.458   8.035
 2186ETHY    C1 2102  30.771  24.733   8.347
 2187ETHY    C1 2103  30.921  25.113   8.691
 2188ETHY    C1 2104  30.987  25.536   8.998
 2189ETHY    C1 2105  30.974  25.987   9.264
 2190ETHY    C1 2106  30.877  26.456   9.485
 2191ETHY    C1 2107  30.697  26.935   9.656
 2192AUSL   AUS 2108  30.393  24.330   7.666
 2193AUSL   AUS 2109  30.697  24.330   7.339
 2194AUL    AUL 2110  30.545  24.638   7.503
 2195THSLK    S 2111  30.436  24.574   7.776
 2196ETHY    C1 2112  30.580  24.968   7.951
 2197ETHY    C1 2113  30.667  25.462   8.137
 2198ETHY    C1 2114  30.655  25.963   8.294
 2199ETHY    C1 2115  30.554  26.461   8.425
 2200ETHY    C1 2116  30.362  26.942   8.527
 2201ETHY    C1 2117  30.082  27.397   8.600
 2202THSLK    S 2118  30.752  24.561   7.243
 2203ETHY    C1 2119  31.028  24.891   7.096
 2204ETHY    C1 2120  31.278  25.332   6.927
 2205ETHY    C1 2121  31.434  25.809   6.771
 2206ETHY    C1 2122  31.503  26.311   6.635
 2207ETHY    C1 2123  31.479  26.827   6.525
 2208ETHY    C1 2124  31.362  27.347   6.443
 2209AUSL   AUS 2125  30.697  24.330   7.666
 2210AUSL   AUS 2126  30.810  24.073   8.013
 2211AUL    AUL 2127  30.848  24.451   7.993
 2212THSLK    S 2128  30.981  24.181   8.183
 2213ETHY    C1 2129  31.276  24.246   8.523
 2214ETHY    C1 2130  31.594  24.408   8.920
 2215ETHY    C1 2131  31.862  24.657   9.298
 2216ETHY    C1 2132  32.076  24.979   9.653
 2217ETHY    C1 2133  32.228  25.367   9.976
 2218ETHY    C1 2134  32.314  25.817  10.262
 2219THSLK    S 2135  30.750  24.559   7.772
 2220ETHY    C1 2136  31.022  24.887   7.929
 2221ETHY    C1 2137  31.272  25.327   8.100
 2222ETHY    C1 2138  31.430  25.806   8.251
 2223ETHY    C1 2139  31.499  26.308   8.383
 2224ETHY    C1 2140  31.475  26.823   8.494
 2225ETHY    C1 2141  31.356  27.342   8.585
 2226AUSL   AUS 2142  30.545  23.076   7.912
 2227AUSL   AUS 2143  30.961  23.146   7.767
 2228AUL    AUL 2144  30.848  22.862   7.993
 2229THSLK    S 2145  30.498  22.826   7.989
 2230ETHY    C1 2146  30.308  22.430   8.103
 2231ETHY    C1 2147  30.157  21.952   8.289
 2232ETHY    C1 2148  30.094  21.487   8.528
 2233ETHY    C1 2149  30.109  21.045   8.809
 2234ETHY    C1 2150  30.205  20.638   9.132
 2235ETHY    C1 2151  30.380  20.275   9.489
 2236THSLK    S 2152  31.073  22.959   7.907
 2237ETHY    C1 2153  31.152  22.531   8.040
 2238ETHY    C1 2154  31.327  22.061   8.222
 2239ETHY    C1 2155  31.581  21.649   8.428
 2240ETHY    C1 2156  31.901  21.300   8.652
 2241ETHY    C1 2157  32.282  21.025   8.893
 2242ETHY    C1 2158  32.717  20.829   9.147
 2243AUSL   AUS 2159  30.393  22.983   7.666
 2244AUSL   AUS 2160  30.280  23.240   8.013
 2245AUL    AUL 2161  30.242  22.862   7.993
 2246THSLK    S 2162  30.338  22.747   7.745
 2247ETHY    C1 2163  30.063  22.388   7.788
 2248ETHY    C1 2164  29.812  21.923   7.869
 2249ETHY    C1 2165  29.656  21.433   7.981
 2250ETHY    C1 2166  29.587  20.934   8.122
 2251ETHY    C1 2167  29.611  20.434   8.292
 2252ETHY    C1 2168  29.728  19.946   8.489
 2253THSLK    S 2169  30.102  23.074   8.129
 2254ETHY    C1 2170  29.800  22.756   8.248
 2255ETHY    C1 2171  29.481  22.389   8.471
 2256ETHY    C1 2172  29.216  22.052   8.776
 2257ETHY    C1 2173  29.004  21.750   9.147
 2258ETHY    C1 2174  28.851  21.492   9.582
 2259ETHY    C1 2175  28.760  21.285  10.072
 2260AUSL   AUS 2176  30.697  22.983   7.666
 2261AUSL   AUS 2177  30.393  22.983   7.339
 2262AUL    AUL 2178  30.545  22.675   7.503
 2263THSLK    S 2179  30.340  22.744   7.270
 2264ETHY    C1 2180  30.068  22.382   7.236
 2265ETHY    C1 2181  29.818  21.917   7.157
 2266ETHY    C1 2182  29.661  21.428   7.041
 2267ETHY    C1 2183  29.591  20.929   6.896
 2268ETHY    C1 2184  29.615  20.430   6.727
 2269ETHY    C1 2185  29.734  19.939   6.538
 2270THSLK    S 2186  30.651  22.731   7.749
 2271ETHY    C1 2187  30.504  22.305   7.811
 2272ETHY    C1 2188  30.418  21.787   7.906
 2273ETHY    C1 2189  30.430  21.274   8.025
 2274ETHY    C1 2190  30.532  20.779   8.165
 2275ETHY    C1 2191  30.724  20.314   8.325
 2276ETHY    C1 2192  31.002  19.888   8.504
 2277AUSL   AUS 2193  30.545  24.236   7.094
 2278AUSL   AUS 2194  30.961  24.167   7.238
 2279AUL    AUL 2195  30.848  24.451   7.012
 2280THSLK    S 2196  30.592  24.463   6.977
 2281ETHY    C1 2197  30.782  24.742   6.674
 2282ETHY    C1 2198  30.933  25.123   6.330
 2283ETHY    C1 2199  30.997  25.543   6.021
 2284ETHY    C1 2200  30.981  25.993   5.752
 2285ETHY    C1 2201  30.885  26.463   5.532
 2286ETHY    C1 2202  30.710  26.946   5.366
 2287THSLK    S 2203  31.149  24.283   7.089
 2288ETHY    C1 2204  31.536  24.403   6.883
 2289ETHY    C1 2205  31.954  24.626   6.637
 2290ETHY    C1 2206  32.312  24.930   6.400
 2291ETHY    C1 2207  32.607  25.302   6.178
 2292ETHY    C1 2208  32.832  25.737   5.981
 2293ETHY    C1 2209  32.983  26.226   5.811
 2294AUSL   AUS 2210  30.393  24.330   7.339
 2295AUSL   AUS 2211  30.280  24.073   6.992
 2296AUL    AUL 2212  30.242  24.451   7.012
 2297THSLK    S 2213  30.439  24.577   7.239
 2298ETHY    C1 2214  30.586  24.974   7.074
 2299ETHY    C1 2215  30.672  25.468   6.889
 2300ETHY    C1 2216  30.660  25.969   6.727
 2301ETHY    C1 2217  30.558  26.465   6.593
 2302ETHY    C1 2218  30.366  26.946   6.492
 2303ETHY    C1 2219  30.088  27.404   6.427
 2304THSLK    S 2220  30.170  24.205   6.805
 2305ETHY    C1 2221  30.134  24.354   6.377
 2306ETHY    C1 2222  30.024  24.580   5.906
 2307ETHY    C1 2223  29.846  24.855   5.494
 2308ETHY    C1 2224  29.612  25.168   5.145
 2309ETHY    C1 2225  29.326  25.517   4.870
 2310ETHY    C1 2226  28.995  25.895   4.675
 2311AUSL   AUS 2227  30.545  23.076   7.094
 2312AUSL   AUS 2228  30.129  23.146   7.238
 2313AUL    AUL 2229  30.242  22.862   7.012
 2314THSLK    S 2230  29.946  22.998   7.134
 2315ETHY    C1 2231  29.563  22.754   7.124
 2316ETHY    C1 2232  29.145  22.433   7.035
 2317ETHY    C1 2233  28.786  22.087   6.866
 2318ETHY    C1 2234  28.489  21.726   6.631
 2319ETHY    C1 2235  28.264  21.354   6.331
 2320ETHY    C1 2236  28.117  20.977   5.974
 2321THSLK    S 2237  30.503  22.821   7.024
 2322ETHY    C1 2238  30.319  22.420   6.917
 2323ETHY    C1 2239  30.169  21.942   6.732
 2324ETHY    C1 2240  30.103  21.479   6.491
 2325ETHY    C1 2241  30.116  21.039   6.206
 2326ETHY    C1 2242  30.213  20.632   5.885
 2327ETHY    C1 2243  30.393  20.264   5.533
 2328AUSL   AUS 2244  30.697  22.983   7.339
 2329AUSL   AUS 2245  30.810  23.240   6.992
 2330AUL    AUL 2246  30.848  22.862   7.012
 2331THSLK    S 2247  30.654  22.729   7.266
 2332ETHY    C1 2248  30.510  22.301   7.213
 2333ETHY    C1 2249  30.423  21.782   7.120
 2334ETHY    C1 2250  30.435  21.270   6.997
 2335ETHY    C1 2251  30.536  20.776   6.854
 2336ETHY    C1 2252  30.728  20.311   6.695
 2337ETHY    C1 2253  31.008  19.883   6.523
 2338THSLK    S 2254  30.927  23.050   6.859
 2339ETHY    C1 2255  30.971  22.648   6.651
 2340ETHY    C1 2256  31.081  22.217   6.355
 2341ETHY    C1 2257  31.257  21.854   6.017
 2342ETHY    C1 2258  31.488  21.560   5.651
 2343ETHY    C1 2259  31.774  21.343   5.264
 2344ETHY    C1 2260  32.111  21.207   4.865
 2345AUC    AUC 2261  25.694  11.867   7.503
 2346AUC    AUC 2262  25.939  11.867   7.351
 2347AUC    AUC 2263  25.939  11.867   7.654
 2348AUC    AUC 2264  25.449  11.867   7.351
 2349AUC    AUC 2265  25.449  11.867   7.654
 2350AUC    AUC 2266  25.542  12.113   7.503
 2351AUC    AUC 2267  25.846  12.113   7.503
 2352AUC    AUC 2268  25.542  11.622   7.503
 2353AUC    AUC 2269  25.846  11.622   7.503
 2354AUC    AUC 2270  25.694  11.716   7.748
 2355AUC    AUC 2271  25.694  12.019   7.748
 2356AUC    AUC 2272  25.694  11.716   7.257
 2357AUC    AUC 2273  25.694  12.019   7.257
 2358AUC    AUC 2274  26.185  11.867   7.199
 2359AUC    AUC 2275  26.185  11.867   7.503
 2360AUC    AUC 2276  26.185  11.867   7.806
 2361AUC    AUC 2277  25.203  11.867   7.199
 2362AUC    AUC 2278  25.203  11.867   7.503
 2363AUC    AUC 2279  25.203  11.867   7.806
 2364AUC    AUC 2280  25.391  12.358   7.503
 2365AUC    AUC 2281  25.694  12.358   7.503
 2366AUC    AUC 2282  25.997  12.358   7.503
 2367AUC    AUC 2283  25.391  11.377   7.503
 2368AUC    AUC 2284  25.694  11.377   7.503
 2369AUC    AUC 2285  25.997  11.377   7.503
 2370AUC    AUC 2286  25.694  11.564   7.993
 2371AUC    AUC 2287  25.694  11.867   7.993
 2372AUC    AUC 2288  25.694  12.171   7.993
 2373AUC    AUC 2289  25.694  11.564   7.012
 2374AUC    AUC 2290  25.694  11.867   7.012
 2375AUC    AUC 2291  25.694  12.171   7.012
 2376AUC    AUC 2292  25.939  11.716   7.900
 2377AUC    AUC 2293  25.939  12.019   7.900
 2378AUC    AUC 2294  25.939  11.716   7.106
 2379AUC    AUC 2295  25.939  12.019   7.106
 2380AUC    AUC 2296  25.449  11.716   7.900
 2381AUC    AUC 2297  25.449  12.019   7.900
 2382AUC    AUC 2298  25.449  11.716   7.106
 2383AUC    AUC 2299  25.449  12.019   7.106
 2384AUC    AUC 2300  26.091  12.113   7.351
 2385AUC    AUC 2301  26.091  12.113   7.654
 2386AUC    AUC 2302  25.297  12.113   7.351
 2387AUC    AUC 2303  25.297  12.113   7.654
 2388AUC    AUC 2304  26.091  11.622   7.351
 2389AUC    AUC 2305  26.091  11.622   7.654
 2390AUC    AUC 2306  25.297  11.622   7.351
 2391AUC    AUC 2307  25.297  11.622   7.654
 2392AUC    AUC 2308  25.542  12.265   7.748
 2393AUC    AUC 2309  25.846  12.265   7.748
 2394AUC    AUC 2310  25.542  11.470   7.748
 2395AUC    AUC 2311  25.846  11.470   7.748
 2396AUC    AUC 2312  25.542  12.265   7.257
 2397AUC    AUC 2313  25.846  12.265   7.257
 2398AUC    AUC 2314  25.542  11.470   7.257
 2399AUC    AUC 2315  25.846  11.470   7.257
 2400AUSL   AUS 2316  26.103  11.867   8.083
 2401AUSL   AUS 2317  25.959  11.451   8.013
 2402AUL    AUL 2318  26.185  11.564   8.297
 2403THSLK    S 2319  26.069  11.264   8.153
 2404ETHY    C1 2320  26.105  10.865   8.368
 2405ETHY    C1 2321  26.215  10.435   8.665
 2406ETHY    C1 2322  26.393  10.071   9.000
 2407ETHY    C1 2323  26.627   9.775   9.364
 2408ETHY    C1 2324  26.913   9.558   9.752
 2409ETHY    C1 2325  27.244   9.425  10.156
 2410THSLK    S 2326  26.196  11.815   8.324
 2411ETHY    C1 2327  26.400  11.595   8.665
 2412ETHY    C1 2328  26.664  11.418   9.094
 2413ETHY    C1 2329  26.940  11.342   9.535
 2414ETHY    C1 2330  27.217  11.359   9.980
 2415ETHY    C1 2331  27.487  11.472  10.419
 2416ETHY    C1 2332  27.746  11.681  10.845
 2417AUSL   AUS 2333  25.858  11.716   8.176
 2418AUSL   AUS 2334  25.530  12.019   8.176
 2419AUL    AUL 2335  25.694  11.867   8.484
 2420THSLK    S 2336  25.933  11.661   8.413
 2421ETHY    C1 2337  25.997  11.381   8.765
 2422ETHY    C1 2338  26.100  11.126   9.223
 2423ETHY    C1 2339  26.227  10.967   9.708
 2424ETHY    C1 2340  26.369  10.898  10.208
 2425ETHY    C1 2341  26.523  10.926  10.713
 2426ETHY    C1 2342  26.683  11.050  11.212
 2427THSLK    S 2343  25.445  11.973   8.428
 2428ETHY    C1 2344  25.371  11.823   8.850
 2429ETHY    C1 2345  25.266  11.735   9.367
 2430ETHY    C1 2346  25.144  11.747   9.878
 2431ETHY    C1 2347  25.006  11.848  10.373
 2432ETHY    C1 2348  24.851  12.041  10.840
 2433ETHY    C1 2349  24.682  12.322  11.268
 2434AUSL   AUS 2350  25.858  12.019   8.176
 2435AUSL   AUS 2351  26.204  12.132   7.919
 2436AUL    AUL 2352  26.185  12.171   8.297
 2437THSLK    S 2353  25.943  12.075   8.410
 2438ETHY    C1 2354  26.017  12.356   8.759
 2439ETHY    C1 2355  26.122  12.611   9.217
 2440ETHY    C1 2356  26.244  12.770   9.703
 2441ETHY    C1 2357  26.383  12.839  10.204
 2442ETHY    C1 2358  26.537  12.812  10.708
 2443ETHY    C1 2359  26.706  12.688  11.206
 2444THSLK    S 2360  26.376  12.230   8.080
 2445ETHY    C1 2361  26.739  12.201   8.350
 2446ETHY    C1 2362  27.161  12.257   8.673
 2447ETHY    C1 2363  27.553  12.411   8.989
 2448ETHY    C1 2364  27.907  12.649   9.293
 2449ETHY    C1 2365  28.214  12.970   9.580
 2450ETHY    C1 2366  28.465  13.367   9.844
 2451AUSL   AUS 2367  26.103  11.867   6.923
 2452AUSL   AUS 2368  25.959  12.284   6.992
 2453AUL    AUL 2369  26.185  12.171   6.708
 2454THSLK    S 2370  26.205  11.815   6.687
 2455ETHY    C1 2371  26.418  11.595   6.351
 2456ETHY    C1 2372  26.683  11.418   5.923
 2457ETHY    C1 2373  26.955  11.342   5.479
 2458ETHY    C1 2374  27.229  11.359   5.033
 2459ETHY    C1 2375  27.500  11.472   4.594
 2460ETHY    C1 2376  27.765  11.681   4.173
 2461THSLK    S 2377  26.137  12.395   6.829
 2462ETHY    C1 2378  26.439  12.463   6.497
 2463ETHY    C1 2379  26.758  12.626   6.100
 2464ETHY    C1 2380  27.023  12.873   5.719
 2465ETHY    C1 2381  27.235  13.193   5.362
 2466ETHY    C1 2382  27.388  13.583   5.039
 2467ETHY    C1 2383  27.479  14.035   4.759
 2468AUSL   AUS 2384  25.858  11.716   6.829
 2469AUSL   AUS 2385  26.204  11.603   7.086
 2470AUL    AUL 2386  26.185  11.564   6.708
 2471THSLK    S 2387  26.337  11.411   6.949
 2472ETHY    C1 2388  26.520  11.044   6.752
 2473ETHY    C1 2389  26.792  10.672   6.483
 2474ETHY    C1 2390  27.117  10.383   6.186
 2475ETHY    C1 2391  27.483  10.176   5.874
 2476ETHY    C1 2392  27.887  10.057   5.555
 2477ETHY    C1 2393  28.320  10.032   5.235
 2478THSLK    S 2394  25.943  11.660   6.596
 2479ETHY    C1 2395  26.017  11.379   6.246
 2480ETHY    C1 2396  26.122  11.123   5.788
 2481ETHY    C1 2397  26.244  10.965   5.302
 2482ETHY    C1 2398  26.383  10.896   4.801
 2483ETHY    C1 2399  26.537  10.923   4.297
 2484ETHY    C1 2400  26.706  11.047   3.799
 2485AUSL   AUS 2401  25.858  12.019   6.829
 2486AUSL   AUS 2402  25.530  11.716   6.829
 2487AUL    AUL 2403  25.694  11.867   6.521
 2488THSLK    S 2404  25.438  11.660   6.597
 2489ETHY    C1 2405  25.303  11.382   6.264
 2490ETHY    C1 2406  25.142  11.129   5.822
 2491ETHY    C1 2407  24.990  10.972   5.343
 2492ETHY    C1 2408  24.854  10.903   4.842
 2493ETHY    C1 2409  24.737  10.929   4.328
 2494ETHY    C1 2410  24.644  11.048   3.810
 2495THSLK    S 2411  25.960  11.973   6.583
 2496ETHY    C1 2412  26.106  11.823   6.179
 2497ETHY    C1 2413  26.268  11.732   5.678
 2498ETHY    C1 2414  26.415  11.742   5.173
 2499ETHY    C1 2415  26.548  11.843   4.677
 2500ETHY    C1 2416  26.665  12.038   4.200
 2501ETHY    C1 2417  26.766  12.324   3.754
 2502AUSL   AUS 2418  25.285  11.867   8.083
 2503AUSL   AUS 2419  25.429  12.284   8.013
 2504AUL    AUL 2420  25.203  12.171   8.297
 2505THSLK    S 2421  25.183  11.815   8.319
 2506ETHY    C1 2422  24.971  11.595   8.654
 2507ETHY    C1 2423  24.705  11.418   9.082
 2508ETHY    C1 2424  24.433  11.342   9.526
 2509ETHY    C1 2425  24.159  11.359   9.973
 2510ETHY    C1 2426  23.888  11.472  10.411
 2511ETHY    C1 2427  23.623  11.681  10.832
 2512THSLK    S 2428  25.312  12.408   8.202
 2513ETHY    C1 2429  25.269  12.551   8.632
 2514ETHY    C1 2430  25.158  12.776   9.104
 2515ETHY    C1 2431  24.982  13.053   9.515
 2516ETHY    C1 2432  24.751  13.369   9.863
 2517ETHY    C1 2433  24.465  13.717  10.138
 2518ETHY    C1 2434  24.128  14.090  10.334
 2519AUSL   AUS 2435  25.530  11.716   8.176
 2520AUSL   AUS 2436  25.184  11.603   7.919
 2521AUL    AUL 2437  25.203  11.564   8.297
 2522THSLK    S 2438  25.007  11.440   8.026
 2523ETHY    C1 2439  24.636  11.183   8.082
 2524ETHY    C1 2440  24.214  10.895   8.237
 2525ETHY    C1 2441  23.824  10.640   8.482
 2526ETHY    C1 2442  23.472  10.423   8.803
 2527ETHY    C1 2443  23.166  10.252   9.198
 2528ETHY    C1 2444  22.909  10.131   9.657
 2529THSLK    S 2445  25.428  11.662   8.406
 2530ETHY    C1 2446  25.282  11.386   8.736
 2531ETHY    C1 2447  25.120  11.134   9.178
 2532ETHY    C1 2448  24.973  10.976   9.658
 2533ETHY    C1 2449  24.840  10.906  10.160
 2534ETHY    C1 2450  24.723  10.932  10.674
 2535ETHY    C1 2451  24.622  11.053  11.190
 2536AUSL   AUS 2452  25.285  11.867   6.923
 2537AUSL   AUS 2453  25.429  11.451   6.992
 2538AUL    AUL 2454  25.203  11.564   6.708
 2539THSLK    S 2455  25.192  11.815   6.681
 2540ETHY    C1 2456  24.988  11.595   6.341
 2541ETHY    C1 2457  24.724  11.418   5.911
 2542ETHY    C1 2458  24.448  11.342   5.470
 2543ETHY    C1 2459  24.171  11.359   5.025
 2544ETHY    C1 2460  23.901  11.472   4.586
 2545ETHY    C1 2461  23.642  11.681   4.161
 2546THSLK    S 2462  25.258  11.278   6.878
 2547ETHY    C1 2463  24.963  10.952   6.760
 2548ETHY    C1 2464  24.645  10.585   6.538
 2549ETHY    C1 2465  24.377  10.250   6.233
 2550ETHY    C1 2466  24.163   9.950   5.861
 2551ETHY    C1 2467  24.011   9.692   5.426
 2552ETHY    C1 2468  23.925   9.480   4.937
 2553AUSL   AUS 2469  25.530  12.019   6.829
 2554AUSL   AUS 2470  25.184  12.132   7.086
 2555AUL    AUL 2471  25.203  12.171   6.708
 2556THSLK    S 2472  25.057  12.259   6.895
 2557ETHY    C1 2473  24.880  12.340   6.484
 2558ETHY    C1 2474  24.609  12.480   6.046
 2559ETHY    C1 2475  24.282  12.668   5.679
 2560ETHY    C1 2476  23.913  12.897   5.385
 2561ETHY    C1 2477  23.511  13.164   5.173
 2562ETHY    C1 2478  23.082  13.466   5.047
 2563THSLK    S 2479  25.455  11.975   6.576
 2564ETHY    C1 2480  25.391  11.828   6.150
 2565ETHY    C1 2481  25.288  11.739   5.634
 2566ETHY    C1 2482  25.161  11.750   5.123
 2567ETHY    C1 2483  25.019  11.851   4.629
 2568ETHY    C1 2484  24.866  12.044   4.162
 2569ETHY    C1 2485  24.705  12.327   3.732
 2570AUSL   AUS 2486  26.274  12.276   7.503
 2571AUSL   AUS 2487  26.204  12.132   7.086
 2572AUL    AUL 2488  26.488  12.358   7.199
 2573THSLK    S 2489  26.382  12.231   6.934
 2574ETHY    C1 2490  26.752  12.204   6.671
 2575ETHY    C1 2491  27.174  12.260   6.349
 2576ETHY    C1 2492  27.564  12.414   6.030
 2577ETHY    C1 2493  27.916  12.651   5.724
 2578ETHY    C1 2494  28.223  12.972   5.438
 2579ETHY    C1 2495  28.479  13.371   5.179
 2580THSLK    S 2496  26.540  12.329   7.508
 2581ETHY    C1 2497  26.994  12.351   7.513
 2582ETHY    C1 2498  27.516  12.465   7.514
 2583ETHY    C1 2499  27.999  12.674   7.511
 2584ETHY    C1 2500  28.435  12.964   7.510
 2585ETHY    C1 2501  28.814  13.331   7.510
 2586ETHY    C1 2502  29.128  13.771   7.514
 2587AUSL   AUS 2503  26.368  12.031   7.351
 2588AUSL   AUS 2504  26.368  11.704   7.654
 2589AUL    AUL 2505  26.676  11.867   7.503
 2590THSLK    S 2506  26.624  12.070   7.350
 2591ETHY    C1 2507  27.060  11.962   7.286
 2592ETHY    C1 2508  27.586  11.924   7.201
 2593ETHY    C1 2509  28.101  11.988   7.113
 2594ETHY    C1 2510  28.595  12.142   7.026
 2595ETHY    C1 2511  29.055  12.387   6.945
 2596ETHY    C1 2512  29.474  12.719   6.873
 2597THSLK    S 2513  26.595  11.564   7.663
 2598ETHY    C1 2514  26.914  11.248   7.728
 2599ETHY    C1 2515  27.347  10.944   7.807
 2600ETHY    C1 2516  27.822  10.734   7.887
 2601ETHY    C1 2517  28.325  10.613   7.971
 2602ETHY    C1 2518  28.845  10.587   8.058
 2603ETHY    C1 2519  29.373  10.657   8.147
 2604AUSL   AUS 2520  26.368  12.031   7.654
 2605AUSL   AUS 2521  26.110  12.378   7.767
 2606AUL    AUL 2522  26.488  12.358   7.806
 2607THSLK    S 2523  26.293  12.492   7.926
 2608ETHY    C1 2524  26.676  12.610   8.140
 2609ETHY    C1 2525  27.094  12.833   8.388
 2610ETHY    C1 2526  27.453  13.138   8.622
 2611ETHY    C1 2527  27.750  13.511   8.840
 2612ETHY    C1 2528  27.975  13.945   9.038
 2613ETHY    C1 2529  28.122  14.433   9.215
 2614THSLK    S 2530  26.622  12.070   7.665
 2615ETHY    C1 2531  27.057  11.962   7.740
 2616ETHY    C1 2532  27.583  11.924   7.826
 2617ETHY    C1 2533  28.098  11.987   7.910
 2618ETHY    C1 2534  28.592  12.141   7.993
 2619ETHY    C1 2535  29.053  12.386   8.075
 2620ETHY    C1 2536  29.470  12.718   8.155
 2621AUSL   AUS 2537  25.114  12.276   7.503
 2622AUSL   AUS 2538  25.184  12.132   7.919
 2623AUL    AUL 2539  24.900  12.358   7.806
 2624THSLK    S 2540  25.051  12.251   8.109
 2625ETHY    C1 2541  24.868  12.323   8.519
 2626ETHY    C1 2542  24.596  12.463   8.957
 2627ETHY    C1 2543  24.271  12.654   9.324
 2628ETHY    C1 2544  23.905  12.885   9.619
 2629ETHY    C1 2545  23.502  13.152   9.831
 2630ETHY    C1 2546  23.068  13.448   9.956
 2631THSLK    S 2547  24.903  12.417   7.508
 2632ETHY    C1 2548  24.681  12.814   7.513
 2633ETHY    C1 2549  24.345  13.229   7.514
 2634ETHY    C1 2550  23.942  13.568   7.511
 2635ETHY    C1 2551  23.488  13.829   7.510
 2636ETHY    C1 2552  22.989  14.003   7.510
 2637ETHY    C1 2553  22.456  14.087   7.514
 2638AUSL   AUS 2554  25.020  12.031   7.351
 2639AUSL   AUS 2555  25.278  12.378   7.238
 2640AUL    AUL 2556  24.900  12.358   7.199
 2641THSLK    S 2557  24.793  12.146   7.303
 2642ETHY    C1 2558  24.474  12.346   7.049
 2643ETHY    C1 2559  24.041  12.552   6.813
 2644ETHY    C1 2560  23.566  12.718   6.661
 2645ETHY    C1 2561  23.063  12.847   6.590
 2646ETHY    C1 2562  22.543  12.937   6.605
 2647ETHY    C1 2563  22.015  12.985   6.708
 2648THSLK    S 2564  25.166  12.541   7.060
 2649ETHY    C1 2565  25.087  12.851   6.737
 2650ETHY    C1 2566  24.912  13.225   6.397
 2651ETHY    C1 2567  24.658  13.593   6.120
 2652ETHY    C1 2568  24.338  13.950   5.909
 2653ETHY    C1 2569  23.957  14.288   5.770
 2654ETHY    C1 2570  23.522  14.602   5.709
 2655AUSL   AUS 2571  25.020  12.031   7.654
 2656AUSL   AUS 2572  25.020  11.704   7.351
 2657AUL    AUL 2573  24.712  11.867   7.503
 2658THSLK    S 2574  24.766  11.631   7.394
 2659ETHY    C1 2575  24.331  11.613   7.524
 2660ETHY    C1 2576  23.805  11.553   7.597
 2661ETHY    C1 2577  23.290  11.449   7.578
 2662ETHY    C1 2578  22.796  11.306   7.477
 2663ETHY    C1 2579  22.336  11.123   7.294
 2664ETHY    C1 2580  21.918  10.903   7.034
 2665THSLK    S 2581  24.792  12.137   7.707
 2666ETHY    C1 2582  24.471  12.328   7.966
 2667ETHY    C1 2583  24.038  12.532   8.202
 2668ETHY    C1 2584  23.563  12.703   8.352
 2669ETHY    C1 2585  23.061  12.835   8.422
 2670ETHY    C1 2586  22.541  12.923   8.407
 2671ETHY    C1 2587  22.012  12.964   8.308
 2672AUSL   AUS 2588  26.274  11.458   7.503
 2673AUSL   AUS 2589  26.204  11.603   7.919
 2674AUL    AUL 2590  26.488  11.377   7.806
 2675THSLK    S 2591  26.485  11.317   7.508
 2676ETHY    C1 2592  26.707  10.921   7.513
 2677ETHY    C1 2593  27.043  10.506   7.514
 2678ETHY    C1 2594  27.446  10.167   7.511
 2679ETHY    C1 2595  27.900   9.906   7.510
 2680ETHY    C1 2596  28.399   9.732   7.510
 2681ETHY    C1 2597  28.932   9.648   7.514
 2682THSLK    S 2598  26.331  11.412   8.064
 2683ETHY    C1 2599  26.508  11.047   8.270
 2684ETHY    C1 2600  26.779  10.675   8.540
 2685ETHY    C1 2601  27.106  10.386   8.834
 2686ETHY    C1 2602  27.475  10.178   9.142
 2687ETHY    C1 2603  27.877  10.060   9.462
 2688ETHY    C1 2604  28.306  10.035   9.789
 2689AUSL   AUS 2605  26.368  11.704   7.351
 2690AUSL   AUS 2606  26.110  11.357   7.238
 2691AUL    AUL 2607  26.488  11.377   7.199
 2692THSLK    S 2608  26.596  11.564   7.353
 2693ETHY    C1 2609  26.917  11.247   7.298
 2694ETHY    C1 2610  27.350  10.944   7.221
 2695ETHY    C1 2611  27.825  10.734   7.136
 2696ETHY    C1 2612  28.327  10.613   7.048
 2697ETHY    C1 2613  28.847  10.586   6.963
 2698ETHY    C1 2614  29.376  10.657   6.881
 2699THSLK    S 2615  26.226  11.168   7.108
 2700ETHY    C1 2616  26.310  10.739   6.984
 2701ETHY    C1 2617  26.485  10.267   6.803
 2702ETHY    C1 2618  26.738   9.856   6.593
 2703ETHY    C1 2619  27.056   9.508   6.366
 2704ETHY    C1 2620  27.438   9.233   6.126
 2705ETHY    C1 2621  27.876   9.036   5.880
 2706AUSL   AUS 2622  25.114  11.458   7.503
 2707AUSL   AUS 2623  25.184  11.603   7.086
 2708AUL    AUL 2624  24.900  11.377   7.199
 2709THSLK    S 2625  25.013  11.432   6.978
 2710ETHY    C1 2626  24.649  11.167   6.921
 2711ETHY    C1 2627  24.227  10.877   6.766
 2712ETHY    C1 2628  23.835  10.625   6.521
 2713ETHY    C1 2629  23.481  10.412   6.200
 2714ETHY    C1 2630  23.174  10.239   5.806
 2715ETHY    C1 2631  22.923  10.112   5.346
 2716THSLK    S 2632  24.848  11.406   7.508
 2717ETHY    C1 2633  24.394  11.384   7.513
 2718ETHY    C1 2634  23.872  11.270   7.514
 2719ETHY    C1 2635  23.390  11.061   7.511
 2720ETHY    C1 2636  22.953  10.771   7.510
 2721ETHY    C1 2637  22.574  10.404   7.510
 2722ETHY    C1 2638  22.261   9.964   7.514
 2723AUSL   AUS 2639  25.020  11.704   7.654
 2724AUSL   AUS 2640  25.278  11.357   7.767
 2725AUL    AUL 2641  24.900  11.377   7.806
 2726THSLK    S 2642  25.090  11.217   7.878
 2727ETHY    C1 2643  24.703  10.980   7.893
 2728ETHY    C1 2644  24.285  10.660   7.982
 2729ETHY    C1 2645  23.927  10.311   8.149
 2730ETHY    C1 2646  23.632   9.947   8.382
 2731ETHY    C1 2647  23.407   9.576   8.683
 2732ETHY    C1 2648  23.256   9.205   9.045
 2733THSLK    S 2649  24.764  11.641   7.616
 2734ETHY    C1 2650  24.328  11.631   7.491
 2735ETHY    C1 2651  23.802  11.572   7.419
 2736ETHY    C1 2652  23.287  11.465   7.436
 2737ETHY    C1 2653  22.793  11.319   7.535
 2738ETHY    C1 2654  22.333  11.137   7.718
 2739ETHY    C1 2655  21.914  10.924   7.983
 2740AUSL   AUS 2656  25.694  12.447   7.912
 2741AUSL   AUS 2657  25.278  12.378   7.767
 2742AUL    AUL 2658  25.391  12.662   7.993
 2743THSLK    S 2659  25.162  12.534   7.952
 2744ETHY    C1 2660  25.078  12.836   8.280
 2745ETHY    C1 2661  24.903  13.209   8.621
 2746ETHY    C1 2662  24.650  13.580   8.895
 2747ETHY    C1 2663  24.332  13.939   9.105
 2748ETHY    C1 2664  23.950  14.277   9.244
 2749ETHY    C1 2665  23.512  14.585   9.309
 2750THSLK    S 2666  25.736  12.669   8.035
 2751ETHY    C1 2667  25.920  12.944   8.347
 2752ETHY    C1 2668  26.070  13.324   8.691
 2753ETHY    C1 2669  26.136  13.747   8.998
 2754ETHY    C1 2670  26.123  14.198   9.264
 2755ETHY    C1 2671  26.026  14.667   9.485
 2756ETHY    C1 2672  25.846  15.146   9.656
 2757AUSL   AUS 2673  25.542  12.541   7.666
 2758AUSL   AUS 2674  25.846  12.541   7.339
 2759AUL    AUL 2675  25.694  12.849   7.503
 2760THSLK    S 2676  25.585  12.785   7.776
 2761ETHY    C1 2677  25.729  13.179   7.951
 2762ETHY    C1 2678  25.816  13.673   8.137
 2763ETHY    C1 2679  25.804  14.174   8.294
 2764ETHY    C1 2680  25.703  14.672   8.425
 2765ETHY    C1 2681  25.511  15.153   8.527
 2766ETHY    C1 2682  25.231  15.608   8.600
 2767THSLK    S 2683  25.901  12.772   7.243
 2768ETHY    C1 2684  26.177  13.102   7.096
 2769ETHY    C1 2685  26.427  13.543   6.927
 2770ETHY    C1 2686  26.583  14.020   6.771
 2771ETHY    C1 2687  26.652  14.522   6.635
 2772ETHY    C1 2688  26.628  15.038   6.525
 2773ETHY    C1 2689  26.511  15.558   6.443
 2774AUSL   AUS 2690  25.846  12.541   7.666
 2775AUSL   AUS 2691  25.959  12.284   8.013
 2776AUL    AUL 2692  25.997  12.662   7.993
 2777THSLK    S 2693  26.130  12.392   8.183
 2778ETHY    C1 2694  26.425  12.457   8.523
 2779ETHY    C1 2695  26.743  12.619   8.920
 2780ETHY    C1 2696  27.011  12.868   9.298
 2781ETHY    C1 2697  27.225  13.190   9.653
 2782ETHY    C1 2698  27.377  13.578   9.976
 2783ETHY    C1 2699  27.463  14.028  10.262
 2784THSLK    S 2700  25.899  12.770   7.772
 2785ETHY    C1 2701  26.171  13.098   7.929
 2786ETHY    C1 2702  26.421  13.538   8.100
 2787ETHY    C1 2703  26.579  14.017   8.251
 2788ETHY    C1 2704  26.648  14.519   8.383
 2789ETHY    C1 2705  26.624  15.034   8.494
 2790ETHY    C1 2706  26.505  15.553   8.585
 2791AUSL   AUS 2707  25.694  11.287   7.912
 2792AUSL   AUS 2708  26.110  11.357   7.767
 2793AUL    AUL 2709  25.997  11.073   7.993
 2794THSLK    S 2710  25.647  11.037   7.989
 2795ETHY    C1 2711  25.457  10.641   8.103
 2796ETHY    C1 2712  25.306  10.163   8.289
 2797ETHY    C1 2713  25.243   9.698   8.528
 2798ETHY    C1 2714  25.258   9.256   8.809
 2799ETHY    C1 2715  25.354   8.849   9.132
 2800ETHY    C1 2716  25.529   8.486   9.489
 2801THSLK    S 2717  26.222  11.170   7.907
 2802ETHY    C1 2718  26.301  10.742   8.040
 2803ETHY    C1 2719  26.476  10.272   8.222
 2804ETHY    C1 2720  26.730   9.860   8.428
 2805ETHY    C1 2721  27.050   9.511   8.652
 2806ETHY    C1 2722  27.431   9.236   8.893
 2807ETHY    C1 2723  27.866   9.040   9.147
 2808AUSL   AUS 2724  25.542  11.194   7.666
 2809AUSL   AUS 2725  25.429  11.451   8.013
 2810AUL    AUL 2726  25.391  11.073   7.993
 2811THSLK    S 2727  25.487  10.958   7.745
 2812ETHY    C1 2728  25.212  10.599   7.788
 2813ETHY    C1 2729  24.961  10.134   7.869
 2814ETHY    C1 2730  24.805   9.644   7.981
 2815ETHY    C1 2731  24.736   9.145   8.122
 2816ETHY    C1 2732  24.760   8.645   8.292
 2817ETHY    C1 2733  24.877   8.157   8.489
 2818THSLK    S 2734  25.251  11.285   8.129
 2819ETHY    C1 2735  24.949  10.967   8.248
 2820ETHY    C1 2736  24.630  10.600   8.471
 2821ETHY    C1 2737  24.365  10.263   8.776
 2822ETHY    C1 2738  24.153   9.961   9.147
 2823ETHY    C1 2739  24.000   9.703   9.582
 2824ETHY    C1 2740  23.909   9.496  10.072
 2825AUSL   AUS 2741  25.846  11.194   7.666
 2826AUSL   AUS 2742  25.542  11.194   7.339
 2827AUL    AUL 2743  25.694  10.886   7.503
 2828THSLK    S 2744  25.489  10.955   7.270
 2829ETHY    C1 2745  25.217  10.593   7.236
 2830ETHY    C1 2746  24.967  10.128   7.157
 2831ETHY    C1 2747  24.810   9.639   7.041
 2832ETHY    C1 2748  24.740   9.140   6.896
 2833ETHY    C1 2749  24.764   8.641   6.727
 2834ETHY    C1 2750  24.883   8.150   6.538
 2835THSLK    S 2751  25.800  10.942   7.749
 2836ETHY    C1 2752  25.653  10.516   7.811
 2837ETHY    C1 2753  25.567   9.998   7.906
 2838ETHY    C1 2754  25.579   9.485   8.025
 2839ETHY    C1 2755  25.681   8.990   8.165
 2840ETHY    C1 2756  25.873   8.525   8.325
 2841ETHY    C1 2757  26.151   8.099   8.504
 2842AUSL   AUS 2758  25.694  12.447   7.094
 2843AUSL   AUS 2759  26.110  12.378   7.238
 2844AUL    AUL 2760  25.997  12.662   7.012
 2845THSLK    S 2761  25.741  12.674   6.977
 2846ETHY    C1 2762  25.931  12.953   6.674
 2847ETHY    C1 2763  26.082  13.334   6.330
 2848ETHY    C1 2764  26.146  13.754   6.021
 2849ETHY    C1 2765  26.130  14.204   5.752
 2850ETHY    C1 2766  26.034  14.674   5.532
 2851ETHY    C1 2767  25.859  15.157   5.366
 2852THSLK    S 2768  26.298  12.494   7.089
 2853ETHY    C1 2769  26.685  12.614   6.883
 2854ETHY    C1 2770  27.103  12.837   6.637
 2855ETHY    C1 2771  27.461  13.141   6.400
 2856ETHY    C1 2772  27.756  13.513   6.178
 2857ETHY    C1 2773  27.981  13.948   5.981
 2858ETHY    C1 2774  28.132  14.437   5.811
 2859AUSL   AUS 2775  25.542  12.541   7.339
 2860AUSL   AUS 2776  25.429  12.284   6.992
 2861AUL    AUL 2777  25.391  12.662   7.012
 2862THSLK    S 2778  25.588  12.788   7.239
 2863ETHY    C1 2779  25.735  13.185   7.074
 2864ETHY    C1 2780  25.821  13.679   6.889
 2865ETHY    C1 2781  25.809  14.180   6.727
 2866ETHY    C1 2782  25.707  14.676   6.593
 2867ETHY    C1 2783  25.515  15.157   6.492
 2868ETHY    C1 2784  25.237  15.615   6.427
 2869THSLK    S 2785  25.319  12.416   6.805
 2870ETHY    C1 2786  25.283  12.565   6.377
 2871ETHY    C1 2787  25.173  12.791   5.906
 2872ETHY    C1 2788  24.995  13.066   5.494
 2873ETHY    C1 2789  24.761  13.379   5.145
 2874ETHY    C1 2790  24.475  13.728   4.870
 2875ETHY    C1 2791  24.144  14.106   4.675
 2876AUSL   AUS 2792  25.694  11.287   7.094
 2877AUSL   AUS 2793  25.278  11.357   7.238
 2878AUL    AUL 2794  25.391  11.073   7.012
 2879THSLK    S 2795  25.095  11.209   7.134
 2880ETHY    C1 2796  24.712  10.965   7.124
 2881ETHY    C1 2797  24.294  10.644   7.035
 2882ETHY    C1 2798  23.935  10.298   6.866
 2883ETHY    C1 2799  23.638   9.937   6.631
 2884ETHY    C1 2800  23.413   9.565   6.331
 2885ETHY    C1 2801  23.266   9.188   5.974
 2886THSLK    S 2802  25.652  11.032   7.024
 2887ETHY    C1 2803  25.468  10.631   6.917
 2888ETHY    C1 2804  25.318  10.153   6.732
 2889ETHY    C1 2805  25.252   9.690   6.491
 2890ETHY    C1 2806  25.265   9.250   6.206
 2891ETHY    C1 2807  25.362   8.843   5.885
 2892ETHY    C1 2808  25.542   8.475   5.533
 2893AUSL   AUS 2809  25.846  11.194   7.339
 2894AUSL   AUS 2810  25.959  11.451   6.992
 2895AUL    AUL 2811  25.997  11.073   7.012
 2896THSLK    S 2812  25.803  10.940   7.266
 2897ETHY    C1 2813  25.659  10.512   7.213
 2898ETHY    C1 2814  25.572   9.993   7.120
 2899ETHY    C1 2815  25.584   9.481   6.997
 2900ETHY    C1 2816  25.685   8.987   6.854
 2901ETHY    C1 2817  25.877   8.522   6.695
 2902ETHY    C1 2818  26.157   8.094   6.523
 2903THSLK    S 2819  26.076  11.261   6.859
 2904ETHY    C1 2820  26.120  10.859   6.651
 2905ETHY    C1 2821  26.230  10.428   6.355
 2906ETHY    C1 2822  26.406  10.065   6.017
 2907ETHY    C1 2823  26.637   9.771   5.651
 2908ETHY    C1 2824  26.923   9.554   5.264
 2909ETHY    C1 2825  27.260   9.418   4.865
 2910AUC    AUC 2826  25.325  39.068   7.503
 2911AUC    AUC 2827  25.570  39.068   7.351
 2912AUC    AUC 2828  25.570  39.068   7.654
 2913AUC    AUC 2829  25.080  39.068   7.351
 2914AUC    AUC 2830  25.080  39.068   7.654
 2915AUC    AUC 2831  25.173  39.314   7.503
 2916AUC    AUC 2832  25.477  39.314   7.503
 2917AUC    AUC 2833  25.173  38.823   7.503
 2918AUC    AUC 2834  25.477  38.823   7.503
 2919AUC    AUC 2835  25.325  38.917   7.748
 2920AUC    AUC 2836  25.325  39.220   7.748
 2921AUC    AUC 2837  25.325  38.917   7.257
 2922AUC    AUC 2838  25.325  39.220   7.257
 2923AUC    AUC 2839  25.816  39.068   7.199
 2924AUC    AUC 2840  25.816  39.068   7.503
 2925AUC    AUC 2841  25.816  39.068   7.806
 2926AUC    AUC 2842  24.834  39.068   7.199
 2927AUC    AUC 2843  24.834  39.068   7.503
 2928AUC    AUC 2844  24.834  39.068   7.806
 2929AUC    AUC 2845  25.022  39.559   7.503
 2930AUC    AUC 2846  25.325  39.559   7.503
 2931AUC    AUC 2847  25.628  39.559   7.503
 2932AUC    AUC 2848  25.022  38.578   7.503
 2933AUC    AUC 2849  25.325  38.578   7.503
 2934AUC    AUC 2850  25.628  38.578   7.503
 2935AUC    AUC 2851  25.325  38.765   7.993
 2936AUC    AUC 2852  25.325  39.068   7.993
 2937AUC    AUC 2853  25.325  39.372   7.993
 2938AUC    AUC 2854  25.325  38.765   7.012
 2939AUC    AUC 2855  25.325  39.068   7.012
 2940AUC    AUC 2856  25.325  39.372   7.012
 2941AUC    AUC 2857  25.570  38.917   7.900
 2942AUC    AUC 2858  25.570  39.220   7.900
 2943AUC    AUC 2859  25.570  38.917   7.106
 2944AUC    AUC 2860  25.570  39.220   7.106
 2945AUC    AUC 2861  25.080  38.917   7.900
 2946AUC    AUC 2862  25.080  39.220   7.900
 2947AUC    AUC 2863  25.080  38.917   7.106
 2948AUC    AUC 2864  25.080  39.220   7.106
 2949AUC    AUC 2865  25.722  39.314   7.351
 2950AUC    AUC 2866  25.722  39.314   7.654
 2951AUC    AUC 2867  24.928  39.314   7.351
 2952AUC    AUC 2868  24.928  39.314   7.654
 2953AUC    AUC 2869  25.722  38.823   7.351
 2954AUC    AUC 2870  25.722  38.823   7.654
 2955AUC    AUC 2871  24.928  38.823   7.351
 2956AUC    AUC 2872  24.928  38.823   7.654
 2957AUC    AUC 2873  25.173  39.466   7.748
 2958AUC    AUC 2874  25.477  39.466   7.748
 2959AUC    AUC 2875  25.173  38.671   7.748
 2960AUC    AUC 2876  25.477  38.671   7.748
 2961AUC    AUC 2877  25.173  39.466   7.257
 2962AUC    AUC 2878  25.477  39.466   7.257
 2963AUC    AUC 2879  25.173  38.671   7.257
 2964AUC    AUC 2880  25.477  38.671   7.257
 2965AUSL   AUS 2881  25.734  39.068   8.083
 2966AUSL   AUS 2882  25.590  38.652   8.013
 2967AUL    AUL 2883  25.816  38.765   8.297
 2968THSLK    S 2884  25.700  38.465   8.153
 2969ETHY    C1 2885  25.736  38.066   8.368
 2970ETHY    C1 2886  25.846  37.636   8.665
 2971ETHY    C1 2887  26.024  37.272   9.000
 2972ETHY    C1 2888  26.258  36.976   9.364
 2973ETHY    C1 2889  26.544  36.759   9.752
 2974ETHY    C1 2890  26.875  36.626  10.156
 2975THSLK    S 2891  25.827  39.016   8.324
 2976ETHY    C1 2892  26.031  38.796   8.665
 2977ETHY    C1 2893  26.295  38.619   9.094
 2978ETHY    C1 2894  26.571  38.543   9.535
 2979ETHY    C1 2895  26.848  38.560   9.980
 2980ETHY    C1 2896  27.118  38.673  10.419
 2981ETHY    C1 2897  27.377  38.882  10.845
 2982AUSL   AUS 2898  25.489  38.917   8.176
 2983AUSL   AUS 2899  25.161  39.220   8.176
 2984AUL    AUL 2900  25.325  39.068   8.484
 2985THSLK    S 2901  25.564  38.862   8.413
 2986ETHY    C1 2902  25.628  38.582   8.765
 2987ETHY    C1 2903  25.731  38.327   9.223
 2988ETHY    C1 2904  25.858  38.168   9.708
 2989ETHY    C1 2905  26.000  38.099  10.208
 2990ETHY    C1 2906  26.154  38.127  10.713
 2991ETHY    C1 2907  26.314  38.251  11.212
 2992THSLK    S 2908  25.076  39.174   8.428
 2993ETHY    C1 2909  25.002  39.024   8.850
 2994ETHY    C1 2910  24.897  38.936   9.367
 2995ETHY    C1 2911  24.775  38.948   9.878
 2996ETHY    C1 2912  24.637  39.049  10.373
 2997ETHY    C1 2913  24.482  39.242  10.840
 2998ETHY    C1 2914  24.313  39.523  11.268
 2999AUSL   AUS 2915  25.489  39.220   8.176
 3000AUSL   AUS 2916  25.835  39.333   7.919
 3001AUL    AUL 2917  25.816  39.372   8.297
 3002THSLK    S 2918  25.574  39.276   8.410
 3003ETHY    C1 2919  25.648  39.557   8.759
 3004ETHY    C1 2920  25.753  39.812   9.217
 3005ETHY    C1 2921  25.875  39.971   9.703
 3006ETHY    C1 2922  26.014  40.040  10.204
 3007ETHY    C1 2923  26.168  40.013  10.708
 3008ETHY    C1 2924  26.337  39.889  11.206
 3009THSLK    S 2925  26.007  39.431   8.080
 3010ETHY    C1 2926  26.370  39.402   8.350
 3011ETHY    C1 2927  26.792  39.458   8.673
 3012ETHY    C1 2928  27.184  39.612   8.989
 3013ETHY    C1 2929  27.538  39.850   9.293
 3014ETHY    C1 2930  27.845  40.171   9.580
 3015ETHY    C1 2931  28.096  40.568   9.844
 3016AUSL   AUS 2932  25.734  39.068   6.923
 3017AUSL   AUS 2933  25.590  39.485   6.992
 3018AUL    AUL 2934  25.816  39.372   6.708
 3019THSLK    S 2935  25.836  39.016   6.687
 3020ETHY    C1 2936  26.049  38.796   6.351
 3021ETHY    C1 2937  26.314  38.619   5.923
 3022ETHY    C1 2938  26.586  38.543   5.479
 3023ETHY    C1 2939  26.860  38.560   5.033
 3024ETHY    C1 2940  27.131  38.673   4.594
 3025ETHY    C1 2941  27.396  38.882   4.173
 3026THSLK    S 2942  25.768  39.596   6.829
 3027ETHY    C1 2943  26.070  39.664   6.497
 3028ETHY    C1 2944  26.389  39.827   6.100
 3029ETHY    C1 2945  26.654  40.074   5.719
 3030ETHY    C1 2946  26.866  40.394   5.362
 3031ETHY    C1 2947  27.019  40.784   5.039
 3032ETHY    C1 2948  27.110  41.236   4.759
 3033AUSL   AUS 2949  25.489  38.917   6.829
 3034AUSL   AUS 2950  25.835  38.804   7.086
 3035AUL    AUL 2951  25.816  38.765   6.708
 3036THSLK    S 2952  25.968  38.612   6.949
 3037ETHY    C1 2953  26.151  38.245   6.752
 3038ETHY    C1 2954  26.423  37.873   6.483
 3039ETHY    C1 2955  26.748  37.584   6.186
 3040ETHY    C1 2956  27.114  37.377   5.874
 3041ETHY    C1 2957  27.518  37.258   5.555
 3042ETHY    C1 2958  27.951  37.233   5.235
 3043THSLK    S 2959  25.574  38.861   6.596
 3044ETHY    C1 2960  25.648  38.580   6.246
 3045ETHY    C1 2961  25.753  38.324   5.788
 3046ETHY    C1 2962  25.875  38.166   5.302
 3047ETHY    C1 2963  26.014  38.097   4.801
 3048ETHY    C1 2964  26.168  38.124   4.297
 3049ETHY    C1 2965  26.337  38.248   3.799
 3050AUSL   AUS 2966  25.489  39.220   6.829
 3051AUSL   AUS 2967  25.161  38.917   6.829
 3052AUL    AUL 2968  25.325  39.068   6.521
 3053THSLK    S 2969  25.069  38.861   6.597
 3054ETHY    C1 2970  24.934  38.583   6.264
 3055ETHY    C1 2971  24.773  38.330   5.822
 3056ETHY    C1 2972  24.621  38.173   5.343
 3057ETHY    C1 2973  24.485  38.104   4.842
 3058ETHY    C1 2974  24.368  38.130   4.328
 3059ETHY    C1 2975  24.275  38.249   3.810
 3060THSLK    S 2976  25.591  39.174   6.583
 3061ETHY    C1 2977  25.737  39.024   6.179
 3062ETHY    C1 2978  25.899  38.933   5.678
 3063ETHY    C1 2979  26.046  38.943   5.173
 3064ETHY    C1 2980  26.179  39.044   4.677
 3065ETHY    C1 2981  26.296  39.239   4.200
 3066ETHY    C1 2982  26.397  39.525   3.754
 3067AUSL   AUS 2983  24.916  39.068   8.083
 3068AUSL   AUS 2984  25.060  39.485   8.013
 3069AUL    AUL 2985  24.834  39.372   8.297
 3070THSLK    S 2986  24.814  39.016   8.319
 3071ETHY    C1 2987  24.602  38.796   8.654
 3072ETHY    C1 2988  24.336  38.619   9.082
 3073ETHY    C1 2989  24.064  38.543   9.526
 3074ETHY    C1 2990  23.790  38.560   9.973
 3075ETHY    C1 2991  23.519  38.673  10.411
 3076ETHY    C1 2992  23.254  38.882  10.832
 3077THSLK    S 2993  24.943  39.609   8.202
 3078ETHY    C1 2994  24.900  39.752   8.632
 3079ETHY    C1 2995  24.789  39.977   9.104
 3080ETHY    C1 2996  24.613  40.254   9.515
 3081ETHY    C1 2997  24.382  40.570   9.863
 3082ETHY    C1 2998  24.096  40.918  10.138
 3083ETHY    C1 2999  23.759  41.291  10.334
 3084AUSL   AUS 3000  25.161  38.917   8.176
 3085AUSL   AUS 3001  24.815  38.804   7.919
 3086AUL    AUL 3002  24.834  38.765   8.297
 3087THSLK    S 3003  24.638  38.641   8.026
 3088ETHY    C1 3004  24.267  38.384   8.082
 3089ETHY    C1 3005  23.845  38.096   8.237
 3090ETHY    C1 3006  23.455  37.841   8.482
 3091ETHY    C1 3007  23.103  37.624   8.803
 3092ETHY    C1 3008  22.797  37.453   9.198
 3093ETHY    C1 3009  22.540  37.332   9.657
 3094THSLK    S 3010  25.059  38.863   8.406
 3095ETHY    C1 3011  24.913  38.587   8.736
 3096ETHY    C1 3012  24.751  38.335   9.178
 3097ETHY    C1 3013  24.604  38.177   9.658
 3098ETHY    C1 3014  24.471  38.107  10.160
 3099ETHY    C1 3015  24.354  38.133  10.674
 3100ETHY    C1 3016  24.253  38.254  11.190
 3101AUSL   AUS 3017  24.916  39.068   6.923
 3102AUSL   AUS 3018  25.060  38.652   6.992
 3103AUL    AUL 3019  24.834  38.765   6.708
 3104THSLK    S 3020  24.823  39.016   6.681
 3105ETHY    C1 3021  24.619  38.796   6.341
 3106ETHY    C1 3022  24.355  38.619   5.911
 3107ETHY    C1 3023  24.079  38.543   5.470
 3108ETHY    C1 3024  23.802  38.560   5.025
 3109ETHY    C1 3025  23.532  38.673   4.586
 3110ETHY    C1 3026  23.273  38.882   4.161
 3111THSLK    S 3027  24.889  38.479   6.878
 3112ETHY    C1 3028  24.594  38.153   6.760
 3113ETHY    C1 3029  24.276  37.786   6.538
 3114ETHY    C1 3030  24.008  37.451   6.233
 3115ETHY    C1 3031  23.794  37.151   5.861
 3116ETHY    C1 3032  23.642  36.893   5.426
 3117ETHY    C1 3033  23.556  36.681   4.937
 3118AUSL   AUS 3034  25.161  39.220   6.829
 3119AUSL   AUS 3035  24.815  39.333   7.086
 3120AUL    AUL 3036  24.834  39.372   6.708
 3121THSLK    S 3037  24.688  39.460   6.895
 3122ETHY    C1 3038  24.511  39.541   6.484
 3123ETHY    C1 3039  24.240  39.681   6.046
 3124ETHY    C1 3040  23.913  39.869   5.679
 3125ETHY    C1 3041  23.544  40.098   5.385
 3126ETHY    C1 3042  23.142  40.365   5.173
 3127ETHY    C1 3043  22.713  40.667   5.047
 3128THSLK    S 3044  25.086  39.176   6.576
 3129ETHY    C1 3045  25.022  39.029   6.150
 3130ETHY    C1 3046  24.919  38.940   5.634
 3131ETHY    C1 3047  24.792  38.951   5.123
 3132ETHY    C1 3048  24.650  39.052   4.629
 3133ETHY    C1 3049  24.497  39.245   4.162
 3134ETHY    C1 3050  24.336  39.528   3.732
 3135AUSL   AUS 3051  25.905  39.477   7.503
 3136AUSL   AUS 3052  25.835  39.333   7.086
 3137AUL    AUL 3053  26.119  39.559   7.199
 3138THSLK    S 3054  26.013  39.432   6.934
 3139ETHY    C1 3055  26.383  39.405   6.671
 3140ETHY    C1 3056  26.805  39.461   6.349
 3141ETHY    C1 3057  27.195  39.615   6.030
 3142ETHY    C1 3058  27.547  39.852   5.724
 3143ETHY    C1 3059  27.854  40.173   5.438
 3144ETHY    C1 3060  28.110  40.572   5.179
 3145THSLK    S 3061  26.171  39.530   7.508
 3146ETHY    C1 3062  26.625  39.552   7.513
 3147ETHY    C1 3063  27.147  39.666   7.514
 3148ETHY    C1 3064  27.630  39.875   7.511
 3149ETHY    C1 3065  28.066  40.165   7.510
 3150ETHY    C1 3066  28.445  40.532   7.510
 3151ETHY    C1 3067  28.759  40.972   7.514
 3152AUSL   AUS 3068  25.999  39.232   7.351
 3153AUSL   AUS 3069  25.999  38.905   7.654
 3154AUL    AUL 3070  26.307  39.068   7.503
 3155THSLK    S 3071  26.255  39.271   7.350
 3156ETHY    C1 3072  26.691  39.163   7.286
 3157ETHY    C1 3073  27.217  39.125   7.201
 3158ETHY    C1 3074  27.732  39.189   7.113
 3159ETHY    C1 3075  28.226  39.343   7.026
 3160ETHY    C1 3076  28.686  39.588   6.945
 3161ETHY    C1 3077  29.105  39.920   6.873
 3162THSLK    S 3078  26.226  38.765   7.663
 3163ETHY    C1 3079  26.545  38.449   7.728
 3164ETHY    C1 3080  26.978  38.145   7.807
 3165ETHY    C1 3081  27.453  37.935   7.887
 3166ETHY    C1 3082  27.956  37.814   7.971
 3167ETHY    C1 3083  28.476  37.788   8.058
 3168ETHY    C1 3084  29.004  37.858   8.147
 3169AUSL   AUS 3085  25.999  39.232   7.654
 3170AUSL   AUS 3086  25.741  39.579   7.767
 3171AUL    AUL 3087  26.119  39.559   7.806
 3172THSLK    S 3088  25.924  39.693   7.926
 3173ETHY    C1 3089  26.307  39.811   8.140
 3174ETHY    C1 3090  26.725  40.034   8.388
 3175ETHY    C1 3091  27.084  40.339   8.622
 3176ETHY    C1 3092  27.381  40.712   8.840
 3177ETHY    C1 3093  27.606  41.146   9.038
 3178ETHY    C1 3094  27.753  41.634   9.215
 3179THSLK    S 3095  26.253  39.271   7.665
 3180ETHY    C1 3096  26.688  39.163   7.740
 3181ETHY    C1 3097  27.214  39.125   7.826
 3182ETHY    C1 3098  27.729  39.188   7.910
 3183ETHY    C1 3099  28.223  39.342   7.993
 3184ETHY    C1 3100  28.684  39.587   8.075
 3185ETHY    C1 3101  29.101  39.919   8.155
 3186AUSL   AUS 3102  24.745  39.477   7.503
 3187AUSL   AUS 3103  24.815  39.333   7.919
 3188AUL    AUL 3104  24.531  39.559   7.806
 3189THSLK    S 3105  24.682  39.452   8.109
 3190ETHY    C1 3106  24.499  39.524   8.519
 3191ETHY    C1 3107  24.227  39.664   8.957
 3192ETHY    C1 3108  23.902  39.855   9.324
 3193ETHY    C1 3109  23.536  40.086   9.619
 3194ETHY    C1 3110  23.133  40.353   9.831
 3195ETHY    C1 3111  22.699  40.649   9.956
 3196THSLK    S 3112  24.534  39.618   7.508
 3197ETHY    C1 3113  24.312  40.015   7.513
 3198ETHY    C1 3114  23.976  40.430   7.514
 3199ETHY    C1 3115  23.573  40.769   7.511
 3200ETHY    C1 3116  23.119  41.030   7.510
 3201ETHY    C1 3117  22.620  41.204   7.510
 3202ETHY    C1 3118  22.087  41.288   7.514
 3203AUSL   AUS 3119  24.651  39.232   7.351
 3204AUSL   AUS 3120  24.909  39.579   7.238
 3205AUL    AUL 3121  24.531  39.559   7.199
 3206THSLK    S 3122  24.424  39.347   7.303
 3207ETHY    C1 3123  24.105  39.547   7.049
 3208ETHY    C1 3124  23.672  39.753   6.813
 3209ETHY    C1 3125  23.197  39.919   6.661
 3210ETHY    C1 3126  22.694  40.048   6.590
 3211ETHY    C1 3127  22.174  40.138   6.605
 3212ETHY    C1 3128  21.646  40.186   6.708
 3213THSLK    S 3129  24.797  39.742   7.060
 3214ETHY    C1 3130  24.718  40.052   6.737
 3215ETHY    C1 3131  24.543  40.426   6.397
 3216ETHY    C1 3132  24.289  40.794   6.120
 3217ETHY    C1 3133  23.969  41.151   5.909
 3218ETHY    C1 3134  23.588  41.489   5.770
 3219ETHY    C1 3135  23.153  41.803   5.709
 3220AUSL   AUS 3136  24.651  39.232   7.654
 3221AUSL   AUS 3137  24.651  38.905   7.351
 3222AUL    AUL 3138  24.343  39.068   7.503
 3223THSLK    S 3139  24.397  38.832   7.394
 3224ETHY    C1 3140  23.962  38.814   7.524
 3225ETHY    C1 3141  23.436  38.754   7.597
 3226ETHY    C1 3142  22.921  38.650   7.578
 3227ETHY    C1 3143  22.427  38.507   7.477
 3228ETHY    C1 3144  21.967  38.324   7.294
 3229ETHY    C1 3145  21.549  38.104   7.034
 3230THSLK    S 3146  24.423  39.338   7.707
 3231ETHY    C1 3147  24.102  39.529   7.966
 3232ETHY    C1 3148  23.669  39.733   8.202
 3233ETHY    C1 3149  23.194  39.904   8.352
 3234ETHY    C1 3150  22.692  40.036   8.422
 3235ETHY    C1 3151  22.172  40.124   8.407
 3236ETHY    C1 3152  21.643  40.165   8.308
 3237AUSL   AUS 3153  25.905  38.659   7.503
 3238AUSL   AUS 3154  25.835  38.804   7.919
 3239AUL    AUL 3155  26.119  38.578   7.806
 3240THSLK    S 3156  26.116  38.518   7.508
 3241ETHY    C1 3157  26.338  38.122   7.513
 3242ETHY    C1 3158  26.674  37.707   7.514
 3243ETHY    C1 3159  27.077  37.368   7.511
 3244ETHY    C1 3160  27.531  37.107   7.510
 3245ETHY    C1 3161  28.030  36.933   7.510
 3246ETHY    C1 3162  28.563  36.849   7.514
 3247THSLK    S 3163  25.962  38.613   8.064
 3248ETHY    C1 3164  26.139  38.248   8.270
 3249ETHY    C1 3165  26.410  37.876   8.540
 3250ETHY    C1 3166  26.737  37.587   8.834
 3251ETHY    C1 3167  27.106  37.379   9.142
 3252ETHY    C1 3168  27.508  37.261   9.462
 3253ETHY    C1 3169  27.937  37.236   9.789
 3254AUSL   AUS 3170  25.999  38.905   7.351
 3255AUSL   AUS 3171  25.741  38.558   7.238
 3256AUL    AUL 3172  26.119  38.578   7.199
 3257THSLK    S 3173  26.227  38.765   7.353
 3258ETHY    C1 3174  26.548  38.448   7.298
 3259ETHY    C1 3175  26.981  38.145   7.221
 3260ETHY    C1 3176  27.456  37.935   7.136
 3261ETHY    C1 3177  27.958  37.814   7.048
 3262ETHY    C1 3178  28.478  37.787   6.963
 3263ETHY    C1 3179  29.007  37.858   6.881
 3264THSLK    S 3180  25.857  38.369   7.108
 3265ETHY    C1 3181  25.941  37.940   6.984
 3266ETHY    C1 3182  26.116  37.468   6.803
 3267ETHY    C1 3183  26.369  37.057   6.593
 3268ETHY    C1 3184  26.687  36.709   6.366
 3269ETHY    C1 3185  27.069  36.434   6.126
 3270ETHY    C1 3186  27.507  36.237   5.880
 3271AUSL   AUS 3187  24.745  38.659   7.503
 3272AUSL   AUS 3188  24.815  38.804   7.086
 3273AUL    AUL 3189  24.531  38.578   7.199
 3274THSLK    S 3190  24.644  38.633   6.978
 3275ETHY    C1 3191  24.280  38.368   6.921
 3276ETHY    C1 3192  23.858  38.078   6.766
 3277ETHY    C1 3193  23.466  37.826   6.521
 3278ETHY    C1 3194  23.112  37.613   6.200
 3279ETHY    C1 3195  22.805  37.440   5.806
 3280ETHY    C1 3196  22.554  37.313   5.346
 3281THSLK    S 3197  24.479  38.607   7.508
 3282ETHY    C1 3198  24.025  38.585   7.513
 3283ETHY    C1 3199  23.503  38.471   7.514
 3284ETHY    C1 3200  23.021  38.262   7.511
 3285ETHY    C1 3201  22.584  37.972   7.510
 3286ETHY    C1 3202  22.205  37.605   7.510
 3287ETHY    C1 3203  21.892  37.165   7.514
 3288AUSL   AUS 3204  24.651  38.905   7.654
 3289AUSL   AUS 3205  24.909  38.558   7.767
 3290AUL    AUL 3206  24.531  38.578   7.806
 3291THSLK    S 3207  24.721  38.418   7.878
 3292ETHY    C1 3208  24.334  38.181   7.893
 3293ETHY    C1 3209  23.916  37.861   7.982
 3294ETHY    C1 3210  23.558  37.512   8.149
 3295ETHY    C1 3211  23.263  37.148   8.382
 3296ETHY    C1 3212  23.038  36.777   8.683
 3297ETHY    C1 3213  22.887  36.406   9.045
 3298THSLK    S 3214  24.395  38.842   7.616
 3299ETHY    C1 3215  23.959  38.832   7.491
 3300ETHY    C1 3216  23.433  38.773   7.419
 3301ETHY    C1 3217  22.918  38.666   7.436
 3302ETHY    C1 3218  22.424  38.520   7.535
 3303ETHY    C1 3219  21.964  38.338   7.718
 3304ETHY    C1 3220  21.545  38.125   7.983
 3305AUSL   AUS 3221  25.325  39.648   7.912
 3306AUSL   AUS 3222  24.909  39.579   7.767
 3307AUL    AUL 3223  25.022  39.863   7.993
 3308THSLK    S 3224  24.793  39.735   7.952
 3309ETHY    C1 3225  24.709  40.037   8.280
 3310ETHY    C1 3226  24.534  40.410   8.621
 3311ETHY    C1 3227  24.281  40.781   8.895
 3312ETHY    C1 3228  23.963  41.140   9.105
 3313ETHY    C1 3229  23.581  41.478   9.244
 3314ETHY    C1 3230  23.143  41.786   9.309
 3315THSLK    S 3231  25.367  39.870   8.035
 3316ETHY    C1 3232  25.551  40.145   8.347
 3317ETHY    C1 3233  25.701  40.525   8.691
 3318ETHY    C1 3234  25.767  40.948   8.998
 3319ETHY    C1 3235  25.754  41.399   9.264
 3320ETHY    C1 3236  25.657  41.868   9.485
 3321ETHY    C1 3237  25.477  42.347   9.656
 3322AUSL   AUS 3238  25.173  39.742   7.666
 3323AUSL   AUS 3239  25.477  39.742   7.339
 3324AUL    AUL 3240  25.325  40.050   7.503
 3325THSLK    S 3241  25.216  39.986   7.776
 3326ETHY    C1 3242  25.360  40.380   7.951
 3327ETHY    C1 3243  25.447  40.874   8.137
 3328ETHY    C1 3244  25.435  41.375   8.294
 3329ETHY    C1 3245  25.334  41.873   8.425
 3330ETHY    C1 3246  25.142  42.354   8.527
 3331ETHY    C1 3247  24.862  42.809   8.600
 3332THSLK    S 3248  25.532  39.973   7.243
 3333ETHY    C1 3249  25.808  40.303   7.096
 3334ETHY    C1 3250  26.058  40.744   6.927
 3335ETHY    C1 3251  26.214  41.221   6.771
 3336ETHY    C1 3252  26.283  41.723   6.635
 3337ETHY    C1 3253  26.259  42.239   6.525
 3338ETHY    C1 3254  26.142  42.759   6.443
 3339AUSL   AUS 3255  25.477  39.742   7.666
 3340AUSL   AUS 3256  25.590  39.485   8.013
 3341AUL    AUL 3257  25.628  39.863   7.993
 3342THSLK    S 3258  25.761  39.593   8.183
 3343ETHY    C1 3259  26.056  39.658   8.523
 3344ETHY    C1 3260  26.374  39.820   8.920
 3345ETHY    C1 3261  26.642  40.069   9.298
 3346ETHY    C1 3262  26.856  40.391   9.653
 3347ETHY    C1 3263  27.008  40.779   9.976
 3348ETHY    C1 3264  27.094  41.229  10.262
 3349THSLK    S 3265  25.530  39.971   7.772
 3350ETHY    C1 3266  25.802  40.299   7.929
 3351ETHY    C1 3267  26.052  40.739   8.100
 3352ETHY    C1 3268  26.210  41.218   8.251
 3353ETHY    C1 3269  26.279  41.720   8.383
 3354ETHY    C1 3270  26.255  42.235   8.494
 3355ETHY    C1 3271  26.136  42.754   8.585
 3356AUSL   AUS 3272  25.325  38.488   7.912
 3357AUSL   AUS 3273  25.741  38.558   7.767
 3358AUL    AUL 3274  25.628  38.274   7.993
 3359THSLK    S 3275  25.278  38.238   7.989
 3360ETHY    C1 3276  25.088  37.842   8.103
 3361ETHY    C1 3277  24.937  37.364   8.289
 3362ETHY    C1 3278  24.874  36.899   8.528
 3363ETHY    C1 3279  24.889  36.457   8.809
 3364ETHY    C1 3280  24.985  36.050   9.132
 3365ETHY    C1 3281  25.160  35.687   9.489
 3366THSLK    S 3282  25.853  38.371   7.907
 3367ETHY    C1 3283  25.932  37.943   8.040
 3368ETHY    C1 3284  26.107  37.473   8.222
 3369ETHY    C1 3285  26.361  37.061   8.428
 3370ETHY    C1 3286  26.681  36.712   8.652
 3371ETHY    C1 3287  27.062  36.437   8.893
 3372ETHY    C1 3288  27.497  36.241   9.147
 3373AUSL   AUS 3289  25.173  38.395   7.666
 3374AUSL   AUS 3290  25.060  38.652   8.013
 3375AUL    AUL 3291  25.022  38.274   7.993
 3376THSLK    S 3292  25.118  38.159   7.745
 3377ETHY    C1 3293  24.843  37.800   7.788
 3378ETHY    C1 3294  24.592  37.335   7.869
 3379ETHY    C1 3295  24.436  36.845   7.981
 3380ETHY    C1 3296  24.367  36.346   8.122
 3381ETHY    C1 3297  24.391  35.846   8.292
 3382ETHY    C1 3298  24.508  35.358   8.489
 3383THSLK    S 3299  24.882  38.486   8.129
 3384ETHY    C1 3300  24.580  38.168   8.248
 3385ETHY    C1 3301  24.261  37.801   8.471
 3386ETHY    C1 3302  23.996  37.464   8.776
 3387ETHY    C1 3303  23.784  37.162   9.147
 3388ETHY    C1 3304  23.631  36.904   9.582
 3389ETHY    C1 3305  23.540  36.697  10.072
 3390AUSL   AUS 3306  25.477  38.395   7.666
 3391AUSL   AUS 3307  25.173  38.395   7.339
 3392AUL    AUL 3308  25.325  38.087   7.503
 3393THSLK    S 3309  25.120  38.156   7.270
 3394ETHY    C1 3310  24.848  37.794   7.236
 3395ETHY    C1 3311  24.598  37.329   7.157
 3396ETHY    C1 3312  24.441  36.840   7.041
 3397ETHY    C1 3313  24.371  36.341   6.896
 3398ETHY    C1 3314  24.395  35.842   6.727
 3399ETHY    C1 3315  24.514  35.351   6.538
 3400THSLK    S 3316  25.431  38.143   7.749
 3401ETHY    C1 3317  25.284  37.717   7.811
 3402ETHY    C1 3318  25.198  37.199   7.906
 3403ETHY    C1 3319  25.210  36.686   8.025
 3404ETHY    C1 3320  25.312  36.191   8.165
 3405ETHY    C1 3321  25.504  35.726   8.325
 3406ETHY    C1 3322  25.782  35.300   8.504
 3407AUSL   AUS 3323  25.325  39.648   7.094
 3408AUSL   AUS 3324  25.741  39.579   7.238
 3409AUL    AUL 3325  25.628  39.863   7.012
 3410THSLK    S 3326  25.372  39.875   6.977
 3411ETHY    C1 3327  25.562  40.154   6.674
 3412ETHY    C1 3328  25.713  40.535   6.330
 3413ETHY    C1 3329  25.777  40.955   6.021
 3414ETHY    C1 3330  25.761  41.405   5.752
 3415ETHY    C1 3331  25.665  41.875   5.532
 3416ETHY    C1 3332  25.490  42.358   5.366
 3417THSLK    S 3333  25.929  39.695   7.089
 3418ETHY    C1 3334  26.316  39.815   6.883
 3419ETHY    C1 3335  26.734  40.038   6.637
 3420ETHY    C1 3336  27.092  40.342   6.400
 3421ETHY    C1 3337  27.387  40.714   6.178
 3422ETHY    C1 3338  27.612  41.149   5.981
 3423ETHY    C1 3339  27.763  41.638   5.811
 3424AUSL   AUS 3340  25.173  39.742   7.339
 3425AUSL   AUS 3341  25.060  39.485   6.992
 3426AUL    AUL 3342  25.022  39.863   7.012
 3427THSLK    S 3343  25.219  39.989   7.239
 3428ETHY    C1 3344  25.366  40.386   7.074
 3429ETHY    C1 3345  25.452  40.880   6.889
 3430ETHY    C1 3346  25.440  41.381   6.727
 3431ETHY    C1 3347  25.338  41.877   6.593
 3432ETHY    C1 3348  25.146  42.358   6.492
 3433ETHY    C1 3349  24.868  42.816   6.427
 3434THSLK    S 3350  24.950  39.617   6.805
 3435ETHY    C1 3351  24.914  39.766   6.377
 3436ETHY    C1 3352  24.804  39.992   5.906
 3437ETHY    C1 3353  24.626  40.267   5.494
 3438ETHY    C1 3354  24.392  40.580   5.145
 3439ETHY    C1 3355  24.106  40.929   4.870
 3440ETHY    C1 3356  23.775  41.307   4.675
 3441AUSL   AUS 3357  25.325  38.488   7.094
 3442AUSL   AUS 3358  24.909  38.558   7.238
 3443AUL    AUL 3359  25.022  38.274   7.012
 3444THSLK    S 3360  24.726  38.410   7.134
 3445ETHY    C1 3361  24.343  38.166   7.124
 3446ETHY    C1 3362  23.925  37.845   7.035
 3447ETHY    C1 3363  23.566  37.499   6.866
 3448ETHY    C1 3364  23.269  37.138   6.631
 3449ETHY    C1 3365  23.044  36.766   6.331
 3450ETHY    C1 3366  22.897  36.389   5.974
 3451THSLK    S 3367  25.283  38.233   7.024
 3452ETHY    C1 3368  25.099  37.832   6.917
 3453ETHY    C1 3369  24.949  37.354   6.732
 3454ETHY    C1 3370  24.883  36.891   6.491
 3455ETHY    C1 3371  24.896  36.451   6.206
 3456ETHY    C1 3372  24.993  36.044   5.885
 3457ETHY    C1 3373  25.173  35.676   5.533
 3458AUSL   AUS 3374  25.477  38.395   7.339
 3459AUSL   AUS 3375  25.590  38.652   6.992
 3460AUL    AUL 3376  25.628  38.274   7.012
 3461THSLK    S 3377  25.434  38.141   7.266
 3462ETHY    C1 3378  25.290  37.713   7.213
 3463ETHY    C1 3379  25.203  37.194   7.120
 3464ETHY    C1 3380  25.215  36.682   6.997
 3465ETHY    C1 3381  25.316  36.188   6.854
 3466ETHY    C1 3382  25.508  35.723   6.695
 3467ETHY    C1 3383  25.788  35.295   6.523
 3468THSLK    S 3384  25.707  38.462   6.859
 3469ETHY    C1 3385  25.751  38.060   6.651
 3470ETHY    C1 3386  25.861  37.629   6.355
 3471ETHY    C1 3387  26.037  37.266   6.017
 3472ETHY    C1 3388  26.268  36.972   5.651
 3473ETHY    C1 3389  26.554  36.755   5.264
 3474ETHY    C1 3390  26.891  36.619   4.865
 3475AUC    AUC 3391  22.875  22.568   7.503
 3476AUC    AUC 3392  23.120  22.568   7.351
 3477AUC    AUC 3393  23.120  22.568   7.654
 3478AUC    AUC 3394  22.630  22.568   7.351
 3479AUC    AUC 3395  22.630  22.568   7.654
 3480AUC    AUC 3396  22.723  22.814   7.503
 3481AUC    AUC 3397  23.027  22.814   7.503
 3482AUC    AUC 3398  22.723  22.323   7.503
 3483AUC    AUC 3399  23.027  22.323   7.503
 3484AUC    AUC 3400  22.875  22.417   7.748
 3485AUC    AUC 3401  22.875  22.720   7.748
 3486AUC    AUC 3402  22.875  22.417   7.257
 3487AUC    AUC 3403  22.875  22.720   7.257
 3488AUC    AUC 3404  23.366  22.568   7.199
 3489AUC    AUC 3405  23.366  22.568   7.503
 3490AUC    AUC 3406  23.366  22.568   7.806
 3491AUC    AUC 3407  22.384  22.568   7.199
 3492AUC    AUC 3408  22.384  22.568   7.503
 3493AUC    AUC 3409  22.384  22.568   7.806
 3494AUC    AUC 3410  22.572  23.059   7.503
 3495AUC    AUC 3411  22.875  23.059   7.503
 3496AUC    AUC 3412  23.178  23.059   7.503
 3497AUC    AUC 3413  22.572  22.078   7.503
 3498AUC    AUC 3414  22.875  22.078   7.503
 3499AUC    AUC 3415  23.178  22.078   7.503
 3500AUC    AUC 3416  22.875  22.265   7.993
 3501AUC    AUC 3417  22.875  22.568   7.993
 3502AUC    AUC 3418  22.875  22.872   7.993
 3503AUC    AUC 3419  22.875  22.265   7.012
 3504AUC    AUC 3420  22.875  22.568   7.012
 3505AUC    AUC 3421  22.875  22.872   7.012
 3506AUC    AUC 3422  23.120  22.417   7.900
 3507AUC    AUC 3423  23.120  22.720   7.900
 3508AUC    AUC 3424  23.120  22.417   7.106
 3509AUC    AUC 3425  23.120  22.720   7.106
 3510AUC    AUC 3426  22.630  22.417   7.900
 3511AUC    AUC 3427  22.630  22.720   7.900
 3512AUC    AUC 3428  22.630  22.417   7.106
 3513AUC    AUC 3429  22.630  22.720   7.106
 3514AUC    AUC 3430  23.272  22.814   7.351
 3515AUC    AUC 3431  23.272  22.814   7.654
 3516AUC    AUC 3432  22.478  22.814   7.351
 3517AUC    AUC 3433  22.478  22.814   7.654
 3518AUC    AUC 3434  23.272  22.323   7.351
 3519AUC    AUC 3435  23.272  22.323   7.654
 3520AUC    AUC 3436  22.478  22.323   7.351
 3521AUC    AUC 3437  22.478  22.323   7.654
 3522AUC    AUC 3438  22.723  22.966   7.748
 3523AUC    AUC 3439  23.027  22.966   7.748
 3524AUC    AUC 3440  22.723  22.171   7.748
 3525AUC    AUC 3441  23.027  22.171   7.748
 3526AUC    AUC 3442  22.723  22.966   7.257
 3527AUC    AUC 3443  23.027  22.966   7.257
 3528AUC    AUC 3444  22.723  22.171   7.257
 3529AUC    AUC 3445  23.027  22.171   7.257
 3530AUSL   AUS 3446  23.284  22.568   8.083
 3531AUSL   AUS 3447  23.140  22.152   8.013
 3532AUL    AUL 3448  23.366  22.265   8.297
 3533THSLK    S 3449  23.250  21.965   8.153
 3534ETHY    C1 3450  23.286  21.566   8.368
 3535ETHY    C1 3451  23.396  21.136   8.665
 3536ETHY    C1 3452  23.574  20.772   9.000
 3537ETHY    C1 3453  23.808  20.476   9.364
 3538ETHY    C1 3454  24.094  20.259   9.752
 3539ETHY    C1 3455  24.425  20.126  10.156
 3540THSLK    S 3456  23.377  22.516   8.324
 3541ETHY    C1 3457  23.581  22.296   8.665
 3542ETHY    C1 3458  23.845  22.119   9.094
 3543ETHY    C1 3459  24.121  22.043   9.535
 3544ETHY    C1 3460  24.398  22.060   9.980
 3545ETHY    C1 3461  24.668  22.173  10.419
 3546ETHY    C1 3462  24.927  22.382  10.845
 3547AUSL   AUS 3463  23.039  22.417   8.176
 3548AUSL   AUS 3464  22.711  22.720   8.176
 3549AUL    AUL 3465  22.875  22.568   8.484
 3550THSLK    S 3466  23.114  22.362   8.413
 3551ETHY    C1 3467  23.178  22.082   8.765
 3552ETHY    C1 3468  23.281  21.827   9.223
 3553ETHY    C1 3469  23.408  21.668   9.708
 3554ETHY    C1 3470  23.550  21.599  10.208
 3555ETHY    C1 3471  23.704  21.627  10.713
 3556ETHY    C1 3472  23.864  21.751  11.212
 3557THSLK    S 3473  22.626  22.674   8.428
 3558ETHY    C1 3474  22.552  22.524   8.850
 3559ETHY    C1 3475  22.447  22.436   9.367
 3560ETHY    C1 3476  22.325  22.448   9.878
 3561ETHY    C1 3477  22.187  22.549  10.373
 3562ETHY    C1 3478  22.032  22.742  10.840
 3563ETHY    C1 3479  21.863  23.023  11.268
 3564AUSL   AUS 3480  23.039  22.720   8.176
 3565AUSL   AUS 3481  23.385  22.833   7.919
 3566AUL    AUL 3482  23.366  22.872   8.297
 3567THSLK    S 3483  23.124  22.776   8.410
 3568ETHY    C1 3484  23.198  23.057   8.759
 3569ETHY    C1 3485  23.303  23.312   9.217
 3570ETHY    C1 3486  23.425  23.471   9.703
 3571ETHY    C1 3487  23.564  23.540  10.204
 3572ETHY    C1 3488  23.718  23.513  10.708
 3573ETHY    C1 3489  23.887  23.389  11.206
 3574THSLK    S 3490  23.557  22.931   8.080
 3575ETHY    C1 3491  23.920  22.902   8.350
 3576ETHY    C1 3492  24.342  22.958   8.673
 3577ETHY    C1 3493  24.734  23.112   8.989
 3578ETHY    C1 3494  25.088  23.350   9.293
 3579ETHY    C1 3495  25.395  23.671   9.580
 3580ETHY    C1 3496  25.646  24.068   9.844
 3581AUSL   AUS 3497  23.284  22.568   6.923
 3582AUSL   AUS 3498  23.140  22.985   6.992
 3583AUL    AUL 3499  23.366  22.872   6.708
 3584THSLK    S 3500  23.386  22.516   6.687
 3585ETHY    C1 3501  23.599  22.296   6.351
 3586ETHY    C1 3502  23.864  22.119   5.923
 3587ETHY    C1 3503  24.136  22.043   5.479
 3588ETHY    C1 3504  24.410  22.060   5.033
 3589ETHY    C1 3505  24.681  22.173   4.594
 3590ETHY    C1 3506  24.946  22.382   4.173
 3591THSLK    S 3507  23.318  23.096   6.829
 3592ETHY    C1 3508  23.620  23.164   6.497
 3593ETHY    C1 3509  23.939  23.327   6.100
 3594ETHY    C1 3510  24.204  23.574   5.719
 3595ETHY    C1 3511  24.416  23.894   5.362
 3596ETHY    C1 3512  24.569  24.284   5.039
 3597ETHY    C1 3513  24.660  24.736   4.759
 3598AUSL   AUS 3514  23.039  22.417   6.829
 3599AUSL   AUS 3515  23.385  22.304   7.086
 3600AUL    AUL 3516  23.366  22.265   6.708
 3601THSLK    S 3517  23.518  22.112   6.949
 3602ETHY    C1 3518  23.701  21.745   6.752
 3603ETHY    C1 3519  23.973  21.373   6.483
 3604ETHY    C1 3520  24.298  21.084   6.186
 3605ETHY    C1 3521  24.664  20.877   5.874
 3606ETHY    C1 3522  25.068  20.758   5.555
 3607ETHY    C1 3523  25.501  20.733   5.235
 3608THSLK    S 3524  23.124  22.361   6.596
 3609ETHY    C1 3525  23.198  22.080   6.246
 3610ETHY    C1 3526  23.303  21.824   5.788
 3611ETHY    C1 3527  23.425  21.666   5.302
 3612ETHY    C1 3528  23.564  21.597   4.801
 3613ETHY    C1 3529  23.718  21.624   4.297
 3614ETHY    C1 3530  23.887  21.748   3.799
 3615AUSL   AUS 3531  23.039  22.720   6.829
 3616AUSL   AUS 3532  22.711  22.417   6.829
 3617AUL    AUL 3533  22.875  22.568   6.521
 3618THSLK    S 3534  22.619  22.361   6.597
 3619ETHY    C1 3535  22.484  22.083   6.264
 3620ETHY    C1 3536  22.323  21.830   5.822
 3621ETHY    C1 3537  22.171  21.673   5.343
 3622ETHY    C1 3538  22.035  21.604   4.842
 3623ETHY    C1 3539  21.918  21.630   4.328
 3624ETHY    C1 3540  21.825  21.749   3.810
 3625THSLK    S 3541  23.141  22.674   6.583
 3626ETHY    C1 3542  23.287  22.524   6.179
 3627ETHY    C1 3543  23.449  22.433   5.678
 3628ETHY    C1 3544  23.596  22.443   5.173
 3629ETHY    C1 3545  23.729  22.544   4.677
 3630ETHY    C1 3546  23.846  22.739   4.200
 3631ETHY    C1 3547  23.947  23.025   3.754
 3632AUSL   AUS 3548  22.466  22.568   8.083
 3633AUSL   AUS 3549  22.610  22.985   8.013
 3634AUL    AUL 3550  22.384  22.872   8.297
 3635THSLK    S 3551  22.364  22.516   8.319
 3636ETHY    C1 3552  22.152  22.296   8.654
 3637ETHY    C1 3553  21.886  22.119   9.082
 3638ETHY    C1 3554  21.614  22.043   9.526
 3639ETHY    C1 3555  21.340  22.060   9.973
 3640ETHY    C1 3556  21.069  22.173  10.411
 3641ETHY    C1 3557  20.804  22.382  10.832
 3642THSLK    S 3558  22.493  23.109   8.202
 3643ETHY    C1 3559  22.450  23.252   8.632
 3644ETHY    C1 3560  22.339  23.477   9.104
 3645ETHY    C1 3561  22.163  23.754   9.515
 3646ETHY    C1 3562  21.932  24.070   9.863
 3647ETHY    C1 3563  21.646  24.418  10.138
 3648ETHY    C1 3564  21.309  24.791  10.334
 3649AUSL   AUS 3565  22.711  22.417   8.176
 3650AUSL   AUS 3566  22.365  22.304   7.919
 3651AUL    AUL 3567  22.384  22.265   8.297
 3652THSLK    S 3568  22.188  22.141   8.026
 3653ETHY    C1 3569  21.817  21.884   8.082
 3654ETHY    C1 3570  21.395  21.596   8.237
 3655ETHY    C1 3571  21.005  21.341   8.482
 3656ETHY    C1 3572  20.653  21.124   8.803
 3657ETHY    C1 3573  20.347  20.953   9.198
 3658ETHY    C1 3574  20.090  20.832   9.657
 3659THSLK    S 3575  22.609  22.363   8.406
 3660ETHY    C1 3576  22.463  22.087   8.736
 3661ETHY    C1 3577  22.301  21.835   9.178
 3662ETHY    C1 3578  22.154  21.677   9.658
 3663ETHY    C1 3579  22.021  21.607  10.160
 3664ETHY    C1 3580  21.904  21.633  10.674
 3665ETHY    C1 3581  21.803  21.754  11.190
 3666AUSL   AUS 3582  22.466  22.568   6.923
 3667AUSL   AUS 3583  22.610  22.152   6.992
 3668AUL    AUL 3584  22.384  22.265   6.708
 3669THSLK    S 3585  22.373  22.516   6.681
 3670ETHY    C1 3586  22.169  22.296   6.341
 3671ETHY    C1 3587  21.905  22.119   5.911
 3672ETHY    C1 3588  21.629  22.043   5.470
 3673ETHY    C1 3589  21.352  22.060   5.025
 3674ETHY    C1 3590  21.082  22.173   4.586
 3675ETHY    C1 3591  20.823  22.382   4.161
 3676THSLK    S 3592  22.439  21.979   6.878
 3677ETHY    C1 3593  22.144  21.653   6.760
 3678ETHY    C1 3594  21.826  21.286   6.538
 3679ETHY    C1 3595  21.558  20.951   6.233
 3680ETHY    C1 3596  21.344  20.651   5.861
 3681ETHY    C1 3597  21.192  20.393   5.426
 3682ETHY    C1 3598  21.106  20.181   4.937
 3683AUSL   AUS 3599  22.711  22.720   6.829
 3684AUSL   AUS 3600  22.365  22.833   7.086
 3685AUL    AUL 3601  22.384  22.872   6.708
 3686THSLK    S 3602  22.238  22.960   6.895
 3687ETHY    C1 3603  22.061  23.041   6.484
 3688ETHY    C1 3604  21.790  23.181   6.046
 3689ETHY    C1 3605  21.463  23.369   5.679
 3690ETHY    C1 3606  21.094  23.598   5.385
 3691ETHY    C1 3607  20.692  23.865   5.173
 3692ETHY    C1 3608  20.263  24.167   5.047
 3693THSLK    S 3609  22.636  22.676   6.576
 3694ETHY    C1 3610  22.572  22.529   6.150
 3695ETHY    C1 3611  22.469  22.440   5.634
 3696ETHY    C1 3612  22.342  22.451   5.123
 3697ETHY    C1 3613  22.200  22.552   4.629
 3698ETHY    C1 3614  22.047  22.745   4.162
 3699ETHY    C1 3615  21.886  23.028   3.732
 3700AUSL   AUS 3616  23.455  22.977   7.503
 3701AUSL   AUS 3617  23.385  22.833   7.086
 3702AUL    AUL 3618  23.669  23.059   7.199
 3703THSLK    S 3619  23.563  22.932   6.934
 3704ETHY    C1 3620  23.933  22.905   6.671
 3705ETHY    C1 3621  24.355  22.961   6.349
 3706ETHY    C1 3622  24.745  23.115   6.030
 3707ETHY    C1 3623  25.097  23.352   5.724
 3708ETHY    C1 3624  25.404  23.673   5.438
 3709ETHY    C1 3625  25.660  24.072   5.179
 3710THSLK    S 3626  23.721  23.030   7.508
 3711ETHY    C1 3627  24.175  23.052   7.513
 3712ETHY    C1 3628  24.697  23.166   7.514
 3713ETHY    C1 3629  25.180  23.375   7.511
 3714ETHY    C1 3630  25.616  23.665   7.510
 3715ETHY    C1 3631  25.995  24.032   7.510
 3716ETHY    C1 3632  26.309  24.472   7.514
 3717AUSL   AUS 3633  23.549  22.732   7.351
 3718AUSL   AUS 3634  23.549  22.405   7.654
 3719AUL    AUL 3635  23.857  22.568   7.503
 3720THSLK    S 3636  23.805  22.771   7.350
 3721ETHY    C1 3637  24.241  22.663   7.286
 3722ETHY    C1 3638  24.767  22.625   7.201
 3723ETHY    C1 3639  25.282  22.689   7.113
 3724ETHY    C1 3640  25.776  22.843   7.026
 3725ETHY    C1 3641  26.236  23.088   6.945
 3726ETHY    C1 3642  26.655  23.420   6.873
 3727THSLK    S 3643  23.776  22.265   7.663
 3728ETHY    C1 3644  24.095  21.949   7.728
 3729ETHY    C1 3645  24.528  21.645   7.807
 3730ETHY    C1 3646  25.003  21.435   7.887
 3731ETHY    C1 3647  25.506  21.314   7.971
 3732ETHY    C1 3648  26.026  21.288   8.058
 3733ETHY    C1 3649  26.554  21.358   8.147
 3734AUSL   AUS 3650  23.549  22.732   7.654
 3735AUSL   AUS 3651  23.291  23.079   7.767
 3736AUL    AUL 3652  23.669  23.059   7.806
 3737THSLK    S 3653  23.474  23.193   7.926
 3738ETHY    C1 3654  23.857  23.311   8.140
 3739ETHY    C1 3655  24.275  23.534   8.388
 3740ETHY    C1 3656  24.634  23.839   8.622
 3741ETHY    C1 3657  24.931  24.212   8.840
 3742ETHY    C1 3658  25.156  24.646   9.038
 3743ETHY    C1 3659  25.303  25.134   9.215
 3744THSLK    S 3660  23.803  22.771   7.665
 3745ETHY    C1 3661  24.238  22.663   7.740
 3746ETHY    C1 3662  24.764  22.625   7.826
 3747ETHY    C1 3663  25.279  22.688   7.910
 3748ETHY    C1 3664  25.773  22.842   7.993
 3749ETHY    C1 3665  26.234  23.087   8.075
 3750ETHY    C1 3666  26.651  23.419   8.155
 3751AUSL   AUS 3667  22.295  22.977   7.503
 3752AUSL   AUS 3668  22.365  22.833   7.919
 3753AUL    AUL 3669  22.081  23.059   7.806
 3754THSLK    S 3670  22.232  22.952   8.109
 3755ETHY    C1 3671  22.049  23.024   8.519
 3756ETHY    C1 3672  21.777  23.164   8.957
 3757ETHY    C1 3673  21.452  23.355   9.324
 3758ETHY    C1 3674  21.086  23.586   9.619
 3759ETHY    C1 3675  20.683  23.853   9.831
 3760ETHY    C1 3676  20.249  24.149   9.956
 3761THSLK    S 3677  22.084  23.118   7.508
 3762ETHY    C1 3678  21.862  23.515   7.513
 3763ETHY    C1 3679  21.526  23.930   7.514
 3764ETHY    C1 3680  21.123  24.269   7.511
 3765ETHY    C1 3681  20.669  24.530   7.510
 3766ETHY    C1 3682  20.170  24.704   7.510
 3767ETHY    C1 3683  19.637  24.788   7.514
 3768AUSL   AUS 3684  22.201  22.732   7.351
 3769AUSL   AUS 3685  22.459  23.079   7.238
 3770AUL    AUL 3686  22.081  23.059   7.199
 3771THSLK    S 3687  21.974  22.847   7.303
 3772ETHY    C1 3688  21.655  23.047   7.049
 3773ETHY    C1 3689  21.222  23.253   6.813
 3774ETHY    C1 3690  20.747  23.419   6.661
 3775ETHY    C1 3691  20.244  23.548   6.590
 3776ETHY    C1 3692  19.724  23.638   6.605
 3777ETHY    C1 3693  19.196  23.686   6.708
 3778THSLK    S 3694  22.347  23.242   7.060
 3779ETHY    C1 3695  22.268  23.552   6.737
 3780ETHY    C1 3696  22.093  23.926   6.397
 3781ETHY    C1 3697  21.839  24.294   6.120
 3782ETHY    C1 3698  21.519  24.651   5.909
 3783ETHY    C1 3699  21.138  24.989   5.770
 3784ETHY    C1 3700  20.703  25.303   5.709
 3785AUSL   AUS 3701  22.201  22.732   7.654
 3786AUSL   AUS 3702  22.201  22.405   7.351
 3787AUL    AUL 3703  21.893  22.568   7.503
 3788THSLK    S 3704  21.947  22.332   7.394
 3789ETHY    C1 3705  21.512  22.314   7.524
 3790ETHY    C1 3706  20.986  22.254   7.597
 3791ETHY    C1 3707  20.471  22.150   7.578
 3792ETHY    C1 3708  19.977  22.007   7.477
 3793ETHY    C1 3709  19.517  21.824   7.294
 3794ETHY    C1 3710  19.099  21.604   7.034
 3795THSLK    S 3711  21.973  22.838   7.707
 3796ETHY    C1 3712  21.652  23.029   7.966
 3797ETHY    C1 3713  21.219  23.233   8.202
 3798ETHY    C1 3714  20.744  23.404   8.352
 3799ETHY    C1 3715  20.242  23.536   8.422
 3800ETHY    C1 3716  19.722  23.624   8.407
 3801ETHY    C1 3717  19.193  23.665   8.308
 3802AUSL   AUS 3718  23.455  22.159   7.503
 3803AUSL   AUS 3719  23.385  22.304   7.919
 3804AUL    AUL 3720  23.669  22.078   7.806
 3805THSLK    S 3721  23.666  22.018   7.508
 3806ETHY    C1 3722  23.888  21.622   7.513
 3807ETHY    C1 3723  24.224  21.207   7.514
 3808ETHY    C1 3724  24.627  20.868   7.511
 3809ETHY    C1 3725  25.081  20.607   7.510
 3810ETHY    C1 3726  25.580  20.433   7.510
 3811ETHY    C1 3727  26.113  20.349   7.514
 3812THSLK    S 3728  23.512  22.113   8.064
 3813ETHY    C1 3729  23.689  21.748   8.270
 3814ETHY    C1 3730  23.960  21.376   8.540
 3815ETHY    C1 3731  24.287  21.087   8.834
 3816ETHY    C1 3732  24.656  20.879   9.142
 3817ETHY    C1 3733  25.058  20.761   9.462
 3818ETHY    C1 3734  25.487  20.736   9.789
 3819AUSL   AUS 3735  23.549  22.405   7.351
 3820AUSL   AUS 3736  23.291  22.058   7.238
 3821AUL    AUL 3737  23.669  22.078   7.199
 3822THSLK    S 3738  23.777  22.265   7.353
 3823ETHY    C1 3739  24.098  21.948   7.298
 3824ETHY    C1 3740  24.531  21.645   7.221
 3825ETHY    C1 3741  25.006  21.435   7.136
 3826ETHY    C1 3742  25.508  21.314   7.048
 3827ETHY    C1 3743  26.028  21.287   6.963
 3828ETHY    C1 3744  26.557  21.358   6.881
 3829THSLK    S 3745  23.407  21.869   7.108
 3830ETHY    C1 3746  23.491  21.440   6.984
 3831ETHY    C1 3747  23.666  20.968   6.803
 3832ETHY    C1 3748  23.919  20.557   6.593
 3833ETHY    C1 3749  24.237  20.209   6.366
 3834ETHY    C1 3750  24.619  19.934   6.126
 3835ETHY    C1 3751  25.057  19.737   5.880
 3836AUSL   AUS 3752  22.295  22.159   7.503
 3837AUSL   AUS 3753  22.365  22.304   7.086
 3838AUL    AUL 3754  22.081  22.078   7.199
 3839THSLK    S 3755  22.194  22.133   6.978
 3840ETHY    C1 3756  21.830  21.868   6.921
 3841ETHY    C1 3757  21.408  21.578   6.766
 3842ETHY    C1 3758  21.016  21.326   6.521
 3843ETHY    C1 3759  20.662  21.113   6.200
 3844ETHY    C1 3760  20.355  20.940   5.806
 3845ETHY    C1 3761  20.104  20.813   5.346
 3846THSLK    S 3762  22.029  22.107   7.508
 3847ETHY    C1 3763  21.575  22.085   7.513
 3848ETHY    C1 3764  21.053  21.971   7.514
 3849ETHY    C1 3765  20.571  21.762   7.511
 3850ETHY    C1 3766  20.134  21.472   7.510
 3851ETHY    C1 3767  19.755  21.105   7.510
 3852ETHY    C1 3768  19.442  20.665   7.514
 3853AUSL   AUS 3769  22.201  22.405   7.654
 3854AUSL   AUS 3770  22.459  22.058   7.767
 3855AUL    AUL 3771  22.081  22.078   7.806
 3856THSLK    S 3772  22.271  21.918   7.878
 3857ETHY    C1 3773  21.884  21.681   7.893
 3858ETHY    C1 3774  21.466  21.361   7.982
 3859ETHY    C1 3775  21.108  21.012   8.149
 3860ETHY    C1 3776  20.813  20.648   8.382
 3861ETHY    C1 3777  20.588  20.277   8.683
 3862ETHY    C1 3778  20.437  19.906   9.045
 3863THSLK    S 3779  21.945  22.342   7.616
 3864ETHY    C1 3780  21.509  22.332   7.491
 3865ETHY    C1 3781  20.983  22.273   7.419
 3866ETHY    C1 3782  20.468  22.166   7.436
 3867ETHY    C1 3783  19.974  22.020   7.535
 3868ETHY    C1 3784  19.514  21.838   7.718
 3869ETHY    C1 3785  19.095  21.625   7.983
 3870AUSL   AUS 3786  22.875  23.148   7.912
 3871AUSL   AUS 3787  22.459  23.079   7.767
 3872AUL    AUL 3788  22.572  23.363   7.993
 3873THSLK    S 3789  22.343  23.235   7.952
 3874ETHY    C1 3790  22.259  23.537   8.280
 3875ETHY    C1 3791  22.084  23.910   8.621
 3876ETHY    C1 3792  21.831  24.281   8.895
 3877ETHY    C1 3793  21.513  24.640   9.105
 3878ETHY    C1 3794  21.131  24.978   9.244
 3879ETHY    C1 3795  20.693  25.286   9.309
 3880THSLK    S 3796  22.917  23.370   8.035
 3881ETHY    C1 3797  23.101  23.645   8.347
 3882ETHY    C1 3798  23.251  24.025   8.691
 3883ETHY    C1 3799  23.317  24.448   8.998
 3884ETHY    C1 3800  23.304  24.899   9.264
 3885ETHY    C1 3801  23.207  25.368   9.485
 3886ETHY    C1 3802  23.027  25.847   9.656
 3887AUSL   AUS 3803  22.723  23.242   7.666
 3888AUSL   AUS 3804  23.027  23.242   7.339
 3889AUL    AUL 3805  22.875  23.550   7.503
 3890THSLK    S 3806  22.766  23.486   7.776
 3891ETHY    C1 3807  22.910  23.880   7.951
 3892ETHY    C1 3808  22.997  24.374   8.137
 3893ETHY    C1 3809  22.985  24.875   8.294
 3894ETHY    C1 3810  22.884  25.373   8.425
 3895ETHY    C1 3811  22.692  25.854   8.527
 3896ETHY    C1 3812  22.412  26.309   8.600
 3897THSLK    S 3813  23.082  23.473   7.243
 3898ETHY    C1 3814  23.358  23.803   7.096
 3899ETHY    C1 3815  23.608  24.244   6.927
 3900ETHY    C1 3816  23.764  24.721   6.771
 3901ETHY    C1 3817  23.833  25.223   6.635
 3902ETHY    C1 3818  23.809  25.739   6.525
 3903ETHY    C1 3819  23.692  26.259   6.443
 3904AUSL   AUS 3820  23.027  23.242   7.666
 3905AUSL   AUS 3821  23.140  22.985   8.013
 3906AUL    AUL 3822  23.178  23.363   7.993
 3907THSLK    S 3823  23.311  23.093   8.183
 3908ETHY    C1 3824  23.606  23.158   8.523
 3909ETHY    C1 3825  23.924  23.320   8.920
 3910ETHY    C1 3826  24.192  23.569   9.298
 3911ETHY    C1 3827  24.406  23.891   9.653
 3912ETHY    C1 3828  24.558  24.279   9.976
 3913ETHY    C1 3829  24.644  24.729  10.262
 3914THSLK    S 3830  23.080  23.471   7.772
 3915ETHY    C1 3831  23.352  23.799   7.929
 3916ETHY    C1 3832  23.602  24.239   8.100
 3917ETHY    C1 3833  23.760  24.718   8.251
 3918ETHY    C1 3834  23.829  25.220   8.383
 3919ETHY    C1 3835  23.805  25.735   8.494
 3920ETHY    C1 3836  23.686  26.254   8.585
 3921AUSL   AUS 3837  22.875  21.988   7.912
 3922AUSL   AUS 3838  23.291  22.058   7.767
 3923AUL    AUL 3839  23.178  21.774   7.993
 3924THSLK    S 3840  22.828  21.738   7.989
 3925ETHY    C1 3841  22.638  21.342   8.103
 3926ETHY    C1 3842  22.487  20.864   8.289
 3927ETHY    C1 3843  22.424  20.399   8.528
 3928ETHY    C1 3844  22.439  19.957   8.809
 3929ETHY    C1 3845  22.535  19.550   9.132
 3930ETHY    C1 3846  22.710  19.187   9.489
 3931THSLK    S 3847  23.403  21.871   7.907
 3932ETHY    C1 3848  23.482  21.443   8.040
 3933ETHY    C1 3849  23.657  20.973   8.222
 3934ETHY    C1 3850  23.911  20.561   8.428
 3935ETHY    C1 3851  24.231  20.212   8.652
 3936ETHY    C1 3852  24.612  19.937   8.893
 3937ETHY    C1 3853  25.047  19.741   9.147
 3938AUSL   AUS 3854  22.723  21.895   7.666
 3939AUSL   AUS 3855  22.610  22.152   8.013
 3940AUL    AUL 3856  22.572  21.774   7.993
 3941THSLK    S 3857  22.668  21.659   7.745
 3942ETHY    C1 3858  22.393  21.300   7.788
 3943ETHY    C1 3859  22.142  20.835   7.869
 3944ETHY    C1 3860  21.986  20.345   7.981
 3945ETHY    C1 3861  21.917  19.846   8.122
 3946ETHY    C1 3862  21.941  19.346   8.292
 3947ETHY    C1 3863  22.058  18.858   8.489
 3948THSLK    S 3864  22.432  21.986   8.129
 3949ETHY    C1 3865  22.130  21.668   8.248
 3950ETHY    C1 3866  21.811  21.301   8.471
 3951ETHY    C1 3867  21.546  20.964   8.776
 3952ETHY    C1 3868  21.334  20.662   9.147
 3953ETHY    C1 3869  21.181  20.404   9.582
 3954ETHY    C1 3870  21.090  20.197  10.072
 3955AUSL   AUS 3871  23.027  21.895   7.666
 3956AUSL   AUS 3872  22.723  21.895   7.339
 3957AUL    AUL 3873  22.875  21.587   7.503
 3958THSLK    S 3874  22.670  21.656   7.270
 3959ETHY    C1 3875  22.398  21.294   7.236
 3960ETHY    C1 3876  22.148  20.829   7.157
 3961ETHY    C1 3877  21.991  20.340   7.041
 3962ETHY    C1 3878  21.921  19.841   6.896
 3963ETHY    C1 3879  21.945  19.342   6.727
 3964ETHY    C1 3880  22.064  18.851   6.538
 3965THSLK    S 3881  22.981  21.643   7.749
 3966ETHY    C1 3882  22.834  21.217   7.811
 3967ETHY    C1 3883  22.748  20.699   7.906
 3968ETHY    C1 3884  22.760  20.186   8.025
 3969ETHY    C1 3885  22.862  19.691   8.165
 3970ETHY    C1 3886  23.054  19.226   8.325
 3971ETHY    C1 3887  23.332  18.800   8.504
 3972AUSL   AUS 3888  22.875  23.148   7.094
 3973AUSL   AUS 3889  23.291  23.079   7.238
 3974AUL    AUL 3890  23.178  23.363   7.012
 3975THSLK    S 3891  22.922  23.375   6.977
 3976ETHY    C1 3892  23.112  23.654   6.674
 3977ETHY    C1 3893  23.263  24.035   6.330
 3978ETHY    C1 3894  23.327  24.455   6.021
 3979ETHY    C1 3895  23.311  24.905   5.752
 3980ETHY    C1 3896  23.215  25.375   5.532
 3981ETHY    C1 3897  23.040  25.858   5.366
 3982THSLK    S 3898  23.479  23.195   7.089
 3983ETHY    C1 3899  23.866  23.315   6.883
 3984ETHY    C1 3900  24.284  23.538   6.637
 3985ETHY    C1 3901  24.642  23.842   6.400
 3986ETHY    C1 3902  24.937  24.214   6.178
 3987ETHY    C1 3903  25.162  24.649   5.981
 3988ETHY    C1 3904  25.313  25.138   5.811
 3989AUSL   AUS 3905  22.723  23.242   7.339
 3990AUSL   AUS 3906  22.610  22.985   6.992
 3991AUL    AUL 3907  22.572  23.363   7.012
 3992THSLK    S 3908  22.769  23.489   7.239
 3993ETHY    C1 3909  22.916  23.886   7.074
 3994ETHY    C1 3910  23.002  24.380   6.889
 3995ETHY    C1 3911  22.990  24.881   6.727
 3996ETHY    C1 3912  22.888  25.377   6.593
 3997ETHY    C1 3913  22.696  25.858   6.492
 3998ETHY    C1 3914  22.418  26.316   6.427
 3999THSLK    S 3915  22.500  23.117   6.805
 4000ETHY    C1 3916  22.464  23.266   6.377
 4001ETHY    C1 3917  22.354  23.492   5.906
 4002ETHY    C1 3918  22.176  23.767   5.494
 4003ETHY    C1 3919  21.942  24.080   5.145
 4004ETHY    C1 3920  21.656  24.429   4.870
 4005ETHY    C1 3921  21.325  24.807   4.675
 4006AUSL   AUS 3922  22.875  21.988   7.094
 4007AUSL   AUS 3923  22.459  22.058   7.238
 4008AUL    AUL 3924  22.572  21.774   7.012
 4009THSLK    S 3925  22.276  21.910   7.134
 4010ETHY    C1 3926  21.893  21.666   7.124
 4011ETHY    C1 3927  21.475  21.345   7.035
 4012ETHY    C1 3928  21.116  20.999   6.866
 4013ETHY    C1 3929  20.819  20.638   6.631
 4014ETHY    C1 3930  20.594  20.266   6.331
 4015ETHY    C1 3931  20.447  19.889   5.974
 4016THSLK    S 3932  22.833  21.733   7.024
 4017ETHY    C1 3933  22.649  21.332   6.917
 4018ETHY    C1 3934  22.499  20.854   6.732
 4019ETHY    C1 3935  22.433  20.391   6.491
 4020ETHY    C1 3936  22.446  19.951   6.206
 4021ETHY    C1 3937  22.543  19.544   5.885
 4022ETHY    C1 3938  22.723  19.176   5.533
 4023AUSL   AUS 3939  23.027  21.895   7.339
 4024AUSL   AUS 3940  23.140  22.152   6.992
 4025AUL    AUL 3941  23.178  21.774   7.012
 4026THSLK    S 3942  22.984  21.641   7.266
 4027ETHY    C1 3943  22.840  21.213   7.213
 4028ETHY    C1 3944  22.753  20.694   7.120
 4029ETHY    C1 3945  22.765  20.182   6.997
 4030ETHY    C1 3946  22.866  19.688   6.854
 4031ETHY    C1 3947  23.058  19.223   6.695
 4032ETHY    C1 3948  23.338  18.795   6.523
 4033THSLK    S 3949  23.257  21.962   6.859
 4034ETHY    C1 3950  23.301  21.560   6.651
 4035ETHY    C1 3951  23.411  21.129   6.355
 4036ETHY    C1 3952  23.587  20.766   6.017
 4037ETHY    C1 3953  23.818  20.472   5.651
 4038ETHY    C1 3954  24.104  20.255   5.264
 4039ETHY    C1 3955  24.441  20.119   4.865
 4040AUC    AUC 3956  19.114  16.943   7.503
 4041AUC    AUC 3957  19.359  16.943   7.351
 4042AUC    AUC 3958  19.359  16.943   7.654
 4043AUC    AUC 3959  18.869  16.943   7.351
 4044AUC    AUC 3960  18.869  16.943   7.654
 4045AUC    AUC 3961  18.962  17.189   7.503
 4046AUC    AUC 3962  19.266  17.189   7.503
 4047AUC    AUC 3963  18.962  16.698   7.503
 4048AUC    AUC 3964  19.266  16.698   7.503
 4049AUC    AUC 3965  19.114  16.792   7.748
 4050AUC    AUC 3966  19.114  17.095   7.748
 4051AUC    AUC 3967  19.114  16.792   7.257
 4052AUC    AUC 3968  19.114  17.095   7.257
 4053AUC    AUC 3969  19.605  16.943   7.199
 4054AUC    AUC 3970  19.605  16.943   7.503
 4055AUC    AUC 3971  19.605  16.943   7.806
 4056AUC    AUC 3972  18.623  16.943   7.199
 4057AUC    AUC 3973  18.623  16.943   7.503
 4058AUC    AUC 3974  18.623  16.943   7.806
 4059AUC    AUC 3975  18.811  17.434   7.503
 4060AUC    AUC 3976  19.114  17.434   7.503
 4061AUC    AUC 3977  19.417  17.434   7.503
 4062AUC    AUC 3978  18.811  16.453   7.503
 4063AUC    AUC 3979  19.114  16.453   7.503
 4064AUC    AUC 3980  19.417  16.453   7.503
 4065AUC    AUC 3981  19.114  16.640   7.993
 4066AUC    AUC 3982  19.114  16.943   7.993
 4067AUC    AUC 3983  19.114  17.247   7.993
 4068AUC    AUC 3984  19.114  16.640   7.012
 4069AUC    AUC 3985  19.114  16.943   7.012
 4070AUC    AUC 3986  19.114  17.247   7.012
 4071AUC    AUC 3987  19.359  16.792   7.900
 4072AUC    AUC 3988  19.359  17.095   7.900
 4073AUC    AUC 3989  19.359  16.792   7.106
 4074AUC    AUC 3990  19.359  17.095   7.106
 4075AUC    AUC 3991  18.869  16.792   7.900
 4076AUC    AUC 3992  18.869  17.095   7.900
 4077AUC    AUC 3993  18.869  16.792   7.106
 4078AUC    AUC 3994  18.869  17.095   7.106
 4079AUC    AUC 3995  19.511  17.189   7.351
 4080AUC    AUC 3996  19.511  17.189   7.654
 4081AUC    AUC 3997  18.717  17.189   7.351
 4082AUC    AUC 3998  18.717  17.189   7.654
 4083AUC    AUC 3999  19.511  16.698   7.351
 4084AUC    AUC 4000  19.511  16.698   7.654
 4085AUC    AUC 4001  18.717  16.698   7.351
 4086AUC    AUC 4002  18.717  16.698   7.654
 4087AUC    AUC 4003  18.962  17.341   7.748
 4088AUC    AUC 4004  19.266  17.341   7.748
 4089AUC    AUC 4005  18.962  16.546   7.748
 4090AUC    AUC 4006  19.266  16.546   7.748
 4091AUC    AUC 4007  18.962  17.341   7.257
 4092AUC    AUC 4008  19.266  17.341   7.257
 4093AUC    AUC 4009  18.962  16.546   7.257
 4094AUC    AUC 4010  19.266  16.546   7.257
 4095AUSL   AUS 4011  19.523  16.943   8.083
 4096AUSL   AUS 4012  19.379  16.527   8.013
 4097AUL    AUL 4013  19.605  16.640   8.297
 4098THSLK    S 4014  19.489  16.340   8.153
 4099ETHY    C1 4015  19.525  15.941   8.368
 4100ETHY    C1 4016  19.635  15.511   8.665
 4101ETHY    C1 4017  19.813  15.147   9.000
 4102ETHY    C1 4018  20.047  14.851   9.364
 4103ETHY    C1 4019  20.333  14.634   9.752
 4104ETHY    C1 4020  20.664  14.501  10.156
 4105THSLK    S 4021  19.616  16.891   8.324
 4106ETHY    C1 4022  19.820  16.671   8.665
 4107ETHY    C1 4023  20.084  16.494   9.094
 4108ETHY    C1 4024  20.360  16.418   9.535
 4109ETHY    C1 4025  20.637  16.435   9.980
 4110ETHY    C1 4026  20.907  16.548  10.419
 4111ETHY    C1 4027  21.166  16.757  10.845
 4112AUSL   AUS 4028  19.278  16.792   8.176
 4113AUSL   AUS 4029  18.950  17.095   8.176
 4114AUL    AUL 4030  19.114  16.943   8.484
 4115THSLK    S 4031  19.353  16.737   8.413
 4116ETHY    C1 4032  19.417  16.457   8.765
 4117ETHY    C1 4033  19.520  16.202   9.223
 4118ETHY    C1 4034  19.647  16.043   9.708
 4119ETHY    C1 4035  19.789  15.974  10.208
 4120ETHY    C1 4036  19.943  16.002  10.713
 4121ETHY    C1 4037  20.103  16.126  11.212
 4122THSLK    S 4038  18.865  17.049   8.428
 4123ETHY    C1 4039  18.791  16.899   8.850
 4124ETHY    C1 4040  18.686  16.811   9.367
 4125ETHY    C1 4041  18.564  16.823   9.878
 4126ETHY    C1 4042  18.426  16.924  10.373
 4127ETHY    C1 4043  18.271  17.117  10.840
 4128ETHY    C1 4044  18.102  17.398  11.268
 4129AUSL   AUS 4045  19.278  17.095   8.176
 4130AUSL   AUS 4046  19.624  17.208   7.919
 4131AUL    AUL 4047  19.605  17.247   8.297
 4132THSLK    S 4048  19.363  17.151   8.410
 4133ETHY    C1 4049  19.437  17.432   8.759
 4134ETHY    C1 4050  19.542  17.687   9.217
 4135ETHY    C1 4051  19.664  17.846   9.703
 4136ETHY    C1 4052  19.803  17.915  10.204
 4137ETHY    C1 4053  19.957  17.888  10.708
 4138ETHY    C1 4054  20.126  17.764  11.206
 4139THSLK    S 4055  19.796  17.306   8.080
 4140ETHY    C1 4056  20.159  17.277   8.350
 4141ETHY    C1 4057  20.581  17.333   8.673
 4142ETHY    C1 4058  20.973  17.487   8.989
 4143ETHY    C1 4059  21.327  17.725   9.293
 4144ETHY    C1 4060  21.634  18.046   9.580
 4145ETHY    C1 4061  21.885  18.443   9.844
 4146AUSL   AUS 4062  19.523  16.943   6.923
 4147AUSL   AUS 4063  19.379  17.360   6.992
 4148AUL    AUL 4064  19.605  17.247   6.708
 4149THSLK    S 4065  19.625  16.891   6.687
 4150ETHY    C1 4066  19.838  16.671   6.351
 4151ETHY    C1 4067  20.103  16.494   5.923
 4152ETHY    C1 4068  20.375  16.418   5.479
 4153ETHY    C1 4069  20.649  16.435   5.033
 4154ETHY    C1 4070  20.920  16.548   4.594
 4155ETHY    C1 4071  21.185  16.757   4.173
 4156THSLK    S 4072  19.557  17.471   6.829
 4157ETHY    C1 4073  19.859  17.539   6.497
 4158ETHY    C1 4074  20.178  17.702   6.100
 4159ETHY    C1 4075  20.443  17.949   5.719
 4160ETHY    C1 4076  20.655  18.269   5.362
 4161ETHY    C1 4077  20.808  18.659   5.039
 4162ETHY    C1 4078  20.899  19.111   4.759
 4163AUSL   AUS 4079  19.278  16.792   6.829
 4164AUSL   AUS 4080  19.624  16.679   7.086
 4165AUL    AUL 4081  19.605  16.640   6.708
 4166THSLK    S 4082  19.757  16.487   6.949
 4167ETHY    C1 4083  19.940  16.120   6.752
 4168ETHY    C1 4084  20.212  15.748   6.483
 4169ETHY    C1 4085  20.537  15.459   6.186
 4170ETHY    C1 4086  20.903  15.252   5.874
 4171ETHY    C1 4087  21.307  15.133   5.555
 4172ETHY    C1 4088  21.740  15.108   5.235
 4173THSLK    S 4089  19.363  16.736   6.596
 4174ETHY    C1 4090  19.437  16.455   6.246
 4175ETHY    C1 4091  19.542  16.199   5.788
 4176ETHY    C1 4092  19.664  16.041   5.302
 4177ETHY    C1 4093  19.803  15.972   4.801
 4178ETHY    C1 4094  19.957  15.999   4.297
 4179ETHY    C1 4095  20.126  16.123   3.799
 4180AUSL   AUS 4096  19.278  17.095   6.829
 4181AUSL   AUS 4097  18.950  16.792   6.829
 4182AUL    AUL 4098  19.114  16.943   6.521
 4183THSLK    S 4099  18.858  16.736   6.597
 4184ETHY    C1 4100  18.723  16.458   6.264
 4185ETHY    C1 4101  18.562  16.205   5.822
 4186ETHY    C1 4102  18.410  16.048   5.343
 4187ETHY    C1 4103  18.274  15.979   4.842
 4188ETHY    C1 4104  18.157  16.005   4.328
 4189ETHY    C1 4105  18.064  16.124   3.810
 4190THSLK    S 4106  19.380  17.049   6.583
 4191ETHY    C1 4107  19.526  16.899   6.179
 4192ETHY    C1 4108  19.688  16.808   5.678
 4193ETHY    C1 4109  19.835  16.818   5.173
 4194ETHY    C1 4110  19.968  16.919   4.677
 4195ETHY    C1 4111  20.085  17.114   4.200
 4196ETHY    C1 4112  20.186  17.400   3.754
 4197AUSL   AUS 4113  18.705  16.943   8.083
 4198AUSL   AUS 4114  18.849  17.360   8.013
 4199AUL    AUL 4115  18.623  17.247   8.297
 4200THSLK    S 4116  18.603  16.891   8.319
 4201ETHY    C1 4117  18.391  16.671   8.654
 4202ETHY    C1 4118  18.125  16.494   9.082
 4203ETHY    C1 4119  17.853  16.418   9.526
 4204ETHY    C1 4120  17.579  16.435   9.973
 4205ETHY    C1 4121  17.308  16.548  10.411
 4206ETHY    C1 4122  17.043  16.757  10.832
 4207THSLK    S 4123  18.732  17.484   8.202
 4208ETHY    C1 4124  18.689  17.627   8.632
 4209ETHY    C1 4125  18.578  17.852   9.104
 4210ETHY    C1 4126  18.402  18.129   9.515
 4211ETHY    C1 4127  18.171  18.445   9.863
 4212ETHY    C1 4128  17.885  18.793  10.138
 4213ETHY    C1 4129  17.548  19.166  10.334
 4214AUSL   AUS 4130  18.950  16.792   8.176
 4215AUSL   AUS 4131  18.604  16.679   7.919
 4216AUL    AUL 4132  18.623  16.640   8.297
 4217THSLK    S 4133  18.427  16.516   8.026
 4218ETHY    C1 4134  18.056  16.259   8.082
 4219ETHY    C1 4135  17.634  15.971   8.237
 4220ETHY    C1 4136  17.244  15.716   8.482
 4221ETHY    C1 4137  16.892  15.499   8.803
 4222ETHY    C1 4138  16.586  15.328   9.198
 4223ETHY    C1 4139  16.329  15.207   9.657
 4224THSLK    S 4140  18.848  16.738   8.406
 4225ETHY    C1 4141  18.702  16.462   8.736
 4226ETHY    C1 4142  18.540  16.210   9.178
 4227ETHY    C1 4143  18.393  16.052   9.658
 4228ETHY    C1 4144  18.260  15.982  10.160
 4229ETHY    C1 4145  18.143  16.008  10.674
 4230ETHY    C1 4146  18.042  16.129  11.190
 4231AUSL   AUS 4147  18.705  16.943   6.923
 4232AUSL   AUS 4148  18.849  16.527   6.992
 4233AUL    AUL 4149  18.623  16.640   6.708
 4234THSLK    S 4150  18.612  16.891   6.681
 4235ETHY    C1 4151  18.408  16.671   6.341
 4236ETHY    C1 4152  18.144  16.494   5.911
 4237ETHY    C1 4153  17.868  16.418   5.470
 4238ETHY    C1 4154  17.591  16.435   5.025
 4239ETHY    C1 4155  17.321  16.548   4.586
 4240ETHY    C1 4156  17.062  16.757   4.161
 4241THSLK    S 4157  18.678  16.354   6.878
 4242ETHY    C1 4158  18.383  16.028   6.760
 4243ETHY    C1 4159  18.065  15.661   6.538
 4244ETHY    C1 4160  17.797  15.326   6.233
 4245ETHY    C1 4161  17.583  15.026   5.861
 4246ETHY    C1 4162  17.431  14.768   5.426
 4247ETHY    C1 4163  17.345  14.556   4.937
 4248AUSL   AUS 4164  18.950  17.095   6.829
 4249AUSL   AUS 4165  18.604  17.208   7.086
 4250AUL    AUL 4166  18.623  17.247   6.708
 4251THSLK    S 4167  18.477  17.335   6.895
 4252ETHY    C1 4168  18.300  17.416   6.484
 4253ETHY    C1 4169  18.029  17.556   6.046
 4254ETHY    C1 4170  17.702  17.744   5.679
 4255ETHY    C1 4171  17.333  17.973   5.385
 4256ETHY    C1 4172  16.931  18.240   5.173
 4257ETHY    C1 4173  16.502  18.542   5.047
 4258THSLK    S 4174  18.875  17.051   6.576
 4259ETHY    C1 4175  18.811  16.904   6.150
 4260ETHY    C1 4176  18.708  16.815   5.634
 4261ETHY    C1 4177  18.581  16.826   5.123
 4262ETHY    C1 4178  18.439  16.927   4.629
 4263ETHY    C1 4179  18.286  17.120   4.162
 4264ETHY    C1 4180  18.125  17.403   3.732
 4265AUSL   AUS 4181  19.694  17.352   7.503
 4266AUSL   AUS 4182  19.624  17.208   7.086
 4267AUL    AUL 4183  19.908  17.434   7.199
 4268THSLK    S 4184  19.802  17.307   6.934
 4269ETHY    C1 4185  20.172  17.280   6.671
 4270ETHY    C1 4186  20.594  17.336   6.349
 4271ETHY    C1 4187  20.984  17.490   6.030
 4272ETHY    C1 4188  21.336  17.727   5.724
 4273ETHY    C1 4189  21.643  18.048   5.438
 4274ETHY    C1 4190  21.899  18.447   5.179
 4275THSLK    S 4191  19.960  17.405   7.508
 4276ETHY    C1 4192  20.414  17.427   7.513
 4277ETHY    C1 4193  20.936  17.541   7.514
 4278ETHY    C1 4194  21.419  17.750   7.511
 4279ETHY    C1 4195  21.855  18.040   7.510
 4280ETHY    C1 4196  22.234  18.407   7.510
 4281ETHY    C1 4197  22.548  18.847   7.514
 4282AUSL   AUS 4198  19.788  17.107   7.351
 4283AUSL   AUS 4199  19.788  16.780   7.654
 4284AUL    AUL 4200  20.096  16.943   7.503
 4285THSLK    S 4201  20.044  17.146   7.350
 4286ETHY    C1 4202  20.480  17.038   7.286
 4287ETHY    C1 4203  21.006  17.000   7.201
 4288ETHY    C1 4204  21.521  17.064   7.113
 4289ETHY    C1 4205  22.015  17.218   7.026
 4290ETHY    C1 4206  22.475  17.463   6.945
 4291ETHY    C1 4207  22.894  17.795   6.873
 4292THSLK    S 4208  20.015  16.640   7.663
 4293ETHY    C1 4209  20.334  16.324   7.728
 4294ETHY    C1 4210  20.767  16.020   7.807
 4295ETHY    C1 4211  21.242  15.810   7.887
 4296ETHY    C1 4212  21.745  15.689   7.971
 4297ETHY    C1 4213  22.265  15.663   8.058
 4298ETHY    C1 4214  22.793  15.733   8.147
 4299AUSL   AUS 4215  19.788  17.107   7.654
 4300AUSL   AUS 4216  19.530  17.454   7.767
 4301AUL    AUL 4217  19.908  17.434   7.806
 4302THSLK    S 4218  19.713  17.568   7.926
 4303ETHY    C1 4219  20.096  17.686   8.140
 4304ETHY    C1 4220  20.514  17.909   8.388
 4305ETHY    C1 4221  20.873  18.214   8.622
 4306ETHY    C1 4222  21.170  18.587   8.840
 4307ETHY    C1 4223  21.395  19.021   9.038
 4308ETHY    C1 4224  21.542  19.509   9.215
 4309THSLK    S 4225  20.042  17.146   7.665
 4310ETHY    C1 4226  20.477  17.038   7.740
 4311ETHY    C1 4227  21.003  17.000   7.826
 4312ETHY    C1 4228  21.518  17.063   7.910
 4313ETHY    C1 4229  22.012  17.217   7.993
 4314ETHY    C1 4230  22.473  17.462   8.075
 4315ETHY    C1 4231  22.890  17.794   8.155
 4316AUSL   AUS 4232  18.534  17.352   7.503
 4317AUSL   AUS 4233  18.604  17.208   7.919
 4318AUL    AUL 4234  18.320  17.434   7.806
 4319THSLK    S 4235  18.471  17.327   8.109
 4320ETHY    C1 4236  18.288  17.399   8.519
 4321ETHY    C1 4237  18.016  17.539   8.957
 4322ETHY    C1 4238  17.691  17.730   9.324
 4323ETHY    C1 4239  17.325  17.961   9.619
 4324ETHY    C1 4240  16.922  18.228   9.831
 4325ETHY    C1 4241  16.488  18.524   9.956
 4326THSLK    S 4242  18.323  17.493   7.508
 4327ETHY    C1 4243  18.101  17.890   7.513
 4328ETHY    C1 4244  17.765  18.305   7.514
 4329ETHY    C1 4245  17.362  18.644   7.511
 4330ETHY    C1 4246  16.908  18.905   7.510
 4331ETHY    C1 4247  16.409  19.079   7.510
 4332ETHY    C1 4248  15.876  19.163   7.514
 4333AUSL   AUS 4249  18.440  17.107   7.351
 4334AUSL   AUS 4250  18.698  17.454   7.238
 4335AUL    AUL 4251  18.320  17.434   7.199
 4336THSLK    S 4252  18.213  17.222   7.303
 4337ETHY    C1 4253  17.894  17.422   7.049
 4338ETHY    C1 4254  17.461  17.628   6.813
 4339ETHY    C1 4255  16.986  17.794   6.661
 4340ETHY    C1 4256  16.483  17.923   6.590
 4341ETHY    C1 4257  15.963  18.013   6.605
 4342ETHY    C1 4258  15.435  18.061   6.708
 4343THSLK    S 4259  18.586  17.617   7.060
 4344ETHY    C1 4260  18.507  17.927   6.737
 4345ETHY    C1 4261  18.332  18.301   6.397
 4346ETHY    C1 4262  18.078  18.669   6.120
 4347ETHY    C1 4263  17.758  19.026   5.909
 4348ETHY    C1 4264  17.377  19.364   5.770
 4349ETHY    C1 4265  16.942  19.678   5.709
 4350AUSL   AUS 4266  18.440  17.107   7.654
 4351AUSL   AUS 4267  18.440  16.780   7.351
 4352AUL    AUL 4268  18.132  16.943   7.503
 4353THSLK    S 4269  18.186  16.707   7.394
 4354ETHY    C1 4270  17.751  16.689   7.524
 4355ETHY    C1 4271  17.225  16.629   7.597
 4356ETHY    C1 4272  16.710  16.525   7.578
 4357ETHY    C1 4273  16.216  16.382   7.477
 4358ETHY    C1 4274  15.756  16.199   7.294
 4359ETHY    C1 4275  15.338  15.979   7.034
 4360THSLK    S 4276  18.212  17.213   7.707
 4361ETHY    C1 4277  17.891  17.404   7.966
 4362ETHY    C1 4278  17.458  17.608   8.202
 4363ETHY    C1 4279  16.983  17.779   8.352
 4364ETHY    C1 4280  16.481  17.911   8.422
 4365ETHY    C1 4281  15.961  17.999   8.407
 4366ETHY    C1 4282  15.432  18.040   8.308
 4367AUSL   AUS 4283  19.694  16.534   7.503
 4368AUSL   AUS 4284  19.624  16.679   7.919
 4369AUL    AUL 4285  19.908  16.453   7.806
 4370THSLK    S 4286  19.905  16.393   7.508
 4371ETHY    C1 4287  20.127  15.997   7.513
 4372ETHY    C1 4288  20.463  15.582   7.514
 4373ETHY    C1 4289  20.866  15.243   7.511
 4374ETHY    C1 4290  21.320  14.982   7.510
 4375ETHY    C1 4291  21.819  14.808   7.510
 4376ETHY    C1 4292  22.352  14.724   7.514
 4377THSLK    S 4293  19.751  16.488   8.064
 4378ETHY    C1 4294  19.928  16.123   8.270
 4379ETHY    C1 4295  20.199  15.751   8.540
 4380ETHY    C1 4296  20.526  15.462   8.834
 4381ETHY    C1 4297  20.895  15.254   9.142
 4382ETHY    C1 4298  21.297  15.136   9.462
 4383ETHY    C1 4299  21.726  15.111   9.789
 4384AUSL   AUS 4300  19.788  16.780   7.351
 4385AUSL   AUS 4301  19.530  16.433   7.238
 4386AUL    AUL 4302  19.908  16.453   7.199
 4387THSLK    S 4303  20.016  16.640   7.353
 4388ETHY    C1 4304  20.337  16.323   7.298
 4389ETHY    C1 4305  20.770  16.020   7.221
 4390ETHY    C1 4306  21.245  15.810   7.136
 4391ETHY    C1 4307  21.747  15.689   7.048
 4392ETHY    C1 4308  22.267  15.662   6.963
 4393ETHY    C1 4309  22.796  15.733   6.881
 4394THSLK    S 4310  19.646  16.244   7.108
 4395ETHY    C1 4311  19.730  15.815   6.984
 4396ETHY    C1 4312  19.905  15.343   6.803
 4397ETHY    C1 4313  20.158  14.932   6.593
 4398ETHY    C1 4314  20.476  14.584   6.366
 4399ETHY    C1 4315  20.858  14.309   6.126
 4400ETHY    C1 4316  21.296  14.112   5.880
 4401AUSL   AUS 4317  18.534  16.534   7.503
 4402AUSL   AUS 4318  18.604  16.679   7.086
 4403AUL    AUL 4319  18.320  16.453   7.199
 4404THSLK    S 4320  18.433  16.508   6.978
 4405ETHY    C1 4321  18.069  16.243   6.921
 4406ETHY    C1 4322  17.647  15.953   6.766
 4407ETHY    C1 4323  17.255  15.701   6.521
 4408ETHY    C1 4324  16.901  15.488   6.200
 4409ETHY    C1 4325  16.594  15.315   5.806
 4410ETHY    C1 4326  16.343  15.188   5.346
 4411THSLK    S 4327  18.268  16.482   7.508
 4412ETHY    C1 4328  17.814  16.460   7.513
 4413ETHY    C1 4329  17.292  16.346   7.514
 4414ETHY    C1 4330  16.810  16.137   7.511
 4415ETHY    C1 4331  16.373  15.847   7.510
 4416ETHY    C1 4332  15.994  15.480   7.510
 4417ETHY    C1 4333  15.681  15.040   7.514
 4418AUSL   AUS 4334  18.440  16.780   7.654
 4419AUSL   AUS 4335  18.698  16.433   7.767
 4420AUL    AUL 4336  18.320  16.453   7.806
 4421THSLK    S 4337  18.510  16.293   7.878
 4422ETHY    C1 4338  18.123  16.056   7.893
 4423ETHY    C1 4339  17.705  15.736   7.982
 4424ETHY    C1 4340  17.347  15.387   8.149
 4425ETHY    C1 4341  17.052  15.023   8.382
 4426ETHY    C1 4342  16.827  14.652   8.683
 4427ETHY    C1 4343  16.676  14.281   9.045
 4428THSLK    S 4344  18.184  16.717   7.616
 4429ETHY    C1 4345  17.748  16.707   7.491
 4430ETHY    C1 4346  17.222  16.648   7.419
 4431ETHY    C1 4347  16.707  16.541   7.436
 4432ETHY    C1 4348  16.213  16.395   7.535
 4433ETHY    C1 4349  15.753  16.213   7.718
 4434ETHY    C1 4350  15.334  16.000   7.983
 4435AUSL   AUS 4351  19.114  17.523   7.912
 4436AUSL   AUS 4352  18.698  17.454   7.767
 4437AUL    AUL 4353  18.811  17.738   7.993
 4438THSLK    S 4354  18.582  17.610   7.952
 4439ETHY    C1 4355  18.498  17.912   8.280
 4440ETHY    C1 4356  18.323  18.285   8.621
 4441ETHY    C1 4357  18.070  18.656   8.895
 4442ETHY    C1 4358  17.752  19.015   9.105
 4443ETHY    C1 4359  17.370  19.353   9.244
 4444ETHY    C1 4360  16.932  19.661   9.309
 4445THSLK    S 4361  19.156  17.745   8.035
 4446ETHY    C1 4362  19.340  18.020   8.347
 4447ETHY    C1 4363  19.490  18.400   8.691
 4448ETHY    C1 4364  19.556  18.823   8.998
 4449ETHY    C1 4365  19.543  19.274   9.264
 4450ETHY    C1 4366  19.446  19.743   9.485
 4451ETHY    C1 4367  19.266  20.222   9.656
 4452AUSL   AUS 4368  18.962  17.617   7.666
 4453AUSL   AUS 4369  19.266  17.617   7.339
 4454AUL    AUL 4370  19.114  17.925   7.503
 4455THSLK    S 4371  19.005  17.861   7.776
 4456ETHY    C1 4372  19.149  18.255   7.951
 4457ETHY    C1 4373  19.236  18.749   8.137
 4458ETHY    C1 4374  19.224  19.250   8.294
 4459ETHY    C1 4375  19.123  19.748   8.425
 4460ETHY    C1 4376  18.931  20.229   8.527
 4461ETHY    C1 4377  18.651  20.684   8.600
 4462THSLK    S 4378  19.321  17.848   7.243
 4463ETHY    C1 4379  19.597  18.178   7.096
 4464ETHY    C1 4380  19.847  18.619   6.927
 4465ETHY    C1 4381  20.003  19.096   6.771
 4466ETHY    C1 4382  20.072  19.598   6.635
 4467ETHY    C1 4383  20.048  20.114   6.525
 4468ETHY    C1 4384  19.931  20.634   6.443
 4469AUSL   AUS 4385  19.266  17.617   7.666
 4470AUSL   AUS 4386  19.379  17.360   8.013
 4471AUL    AUL 4387  19.417  17.738   7.993
 4472THSLK    S 4388  19.550  17.468   8.183
 4473ETHY    C1 4389  19.845  17.533   8.523
 4474ETHY    C1 4390  20.163  17.695   8.920
 4475ETHY    C1 4391  20.431  17.944   9.298
 4476ETHY    C1 4392  20.645  18.266   9.653
 4477ETHY    C1 4393  20.797  18.654   9.976
 4478ETHY    C1 4394  20.883  19.104  10.262
 4479THSLK    S 4395  19.319  17.846   7.772
 4480ETHY    C1 4396  19.591  18.174   7.929
 4481ETHY    C1 4397  19.841  18.614   8.100
 4482ETHY    C1 4398  19.999  19.093   8.251
 4483ETHY    C1 4399  20.068  19.595   8.383
 4484ETHY    C1 4400  20.044  20.110   8.494
 4485ETHY    C1 4401  19.925  20.629   8.585
 4486AUSL   AUS 4402  19.114  16.363   7.912
 4487AUSL   AUS 4403  19.530  16.433   7.767
 4488AUL    AUL 4404  19.417  16.149   7.993
 4489THSLK    S 4405  19.067  16.113   7.989
 4490ETHY    C1 4406  18.877  15.717   8.103
 4491ETHY    C1 4407  18.726  15.239   8.289
 4492ETHY    C1 4408  18.663  14.774   8.528
 4493ETHY    C1 4409  18.678  14.332   8.809
 4494ETHY    C1 4410  18.774  13.925   9.132
 4495ETHY    C1 4411  18.949  13.562   9.489
 4496THSLK    S 4412  19.642  16.246   7.907
 4497ETHY    C1 4413  19.721  15.818   8.040
 4498ETHY    C1 4414  19.896  15.348   8.222
 4499ETHY    C1 4415  20.150  14.936   8.428
 4500ETHY    C1 4416  20.470  14.587   8.652
 4501ETHY    C1 4417  20.851  14.312   8.893
 4502ETHY    C1 4418  21.286  14.116   9.147
 4503AUSL   AUS 4419  18.962  16.270   7.666
 4504AUSL   AUS 4420  18.849  16.527   8.013
 4505AUL    AUL 4421  18.811  16.149   7.993
 4506THSLK    S 4422  18.907  16.034   7.745
 4507ETHY    C1 4423  18.632  15.675   7.788
 4508ETHY    C1 4424  18.381  15.210   7.869
 4509ETHY    C1 4425  18.225  14.720   7.981
 4510ETHY    C1 4426  18.156  14.221   8.122
 4511ETHY    C1 4427  18.180  13.721   8.292
 4512ETHY    C1 4428  18.297  13.233   8.489
 4513THSLK    S 4429  18.671  16.361   8.129
 4514ETHY    C1 4430  18.369  16.043   8.248
 4515ETHY    C1 4431  18.050  15.676   8.471
 4516ETHY    C1 4432  17.785  15.339   8.776
 4517ETHY    C1 4433  17.573  15.037   9.147
 4518ETHY    C1 4434  17.420  14.779   9.582
 4519ETHY    C1 4435  17.329  14.572  10.072
 4520AUSL   AUS 4436  19.266  16.270   7.666
 4521AUSL   AUS 4437  18.962  16.270   7.339
 4522AUL    AUL 4438  19.114  15.962   7.503
 4523THSLK    S 4439  18.909  16.031   7.270
 4524ETHY    C1 4440  18.637  15.669   7.236
 4525ETHY    C1 4441  18.387  15.204   7.157
 4526ETHY    C1 4442  18.230  14.715   7.041
 4527ETHY    C1 4443  18.160  14.216   6.896
 4528ETHY    C1 4444  18.184  13.717   6.727
 4529ETHY    C1 4445  18.303  13.226   6.538
 4530THSLK    S 4446  19.220  16.018   7.749
 4531ETHY    C1 4447  19.073  15.592   7.811
 4532ETHY    C1 4448  18.987  15.074   7.906
 4533ETHY    C1 4449  18.999  14.561   8.025
 4534ETHY    C1 4450  19.101  14.066   8.165
 4535ETHY    C1 4451  19.293  13.601   8.325
 4536ETHY    C1 4452  19.571  13.175   8.504
 4537AUSL   AUS 4453  19.114  17.523   7.094
 4538AUSL   AUS 4454  19.530  17.454   7.238
 4539AUL    AUL 4455  19.417  17.738   7.012
 4540THSLK    S 4456  19.161  17.750   6.977
 4541ETHY    C1 4457  19.351  18.029   6.674
 4542ETHY    C1 4458  19.502  18.410   6.330
 4543ETHY    C1 4459  19.566  18.830   6.021
 4544ETHY    C1 4460  19.550  19.280   5.752
 4545ETHY    C1 4461  19.454  19.750   5.532
 4546ETHY    C1 4462  19.279  20.233   5.366
 4547THSLK    S 4463  19.718  17.570   7.089
 4548ETHY    C1 4464  20.105  17.690   6.883
 4549ETHY    C1 4465  20.523  17.913   6.637
 4550ETHY    C1 4466  20.881  18.217   6.400
 4551ETHY    C1 4467  21.176  18.589   6.178
 4552ETHY    C1 4468  21.401  19.024   5.981
 4553ETHY    C1 4469  21.552  19.513   5.811
 4554AUSL   AUS 4470  18.962  17.617   7.339
 4555AUSL   AUS 4471  18.849  17.360   6.992
 4556AUL    AUL 4472  18.811  17.738   7.012
 4557THSLK    S 4473  19.008  17.864   7.239
 4558ETHY    C1 4474  19.155  18.261   7.074
 4559ETHY    C1 4475  19.241  18.755   6.889
 4560ETHY    C1 4476  19.229  19.256   6.727
 4561ETHY    C1 4477  19.127  19.752   6.593
 4562ETHY    C1 4478  18.935  20.233   6.492
 4563ETHY    C1 4479  18.657  20.691   6.427
 4564THSLK    S 4480  18.739  17.492   6.805
 4565ETHY    C1 4481  18.703  17.641   6.377
 4566ETHY    C1 4482  18.593  17.867   5.906
 4567ETHY    C1 4483  18.415  18.142   5.494
 4568ETHY    C1 4484  18.181  18.455   5.145
 4569ETHY    C1 4485  17.895  18.804   4.870
 4570ETHY    C1 4486  17.564  19.182   4.675
 4571AUSL   AUS 4487  19.114  16.363   7.094
 4572AUSL   AUS 4488  18.698  16.433   7.238
 4573AUL    AUL 4489  18.811  16.149   7.012
 4574THSLK    S 4490  18.515  16.285   7.134
 4575ETHY    C1 4491  18.132  16.041   7.124
 4576ETHY    C1 4492  17.714  15.720   7.035
 4577ETHY    C1 4493  17.355  15.374   6.866
 4578ETHY    C1 4494  17.058  15.013   6.631
 4579ETHY    C1 4495  16.833  14.641   6.331
 4580ETHY    C1 4496  16.686  14.264   5.974
 4581THSLK    S 4497  19.072  16.108   7.024
 4582ETHY    C1 4498  18.888  15.707   6.917
 4583ETHY    C1 4499  18.738  15.229   6.732
 4584ETHY    C1 4500  18.672  14.766   6.491
 4585ETHY    C1 4501  18.685  14.326   6.206
 4586ETHY    C1 4502  18.782  13.919   5.885
 4587ETHY    C1 4503  18.962  13.551   5.533
 4588AUSL   AUS 4504  19.266  16.270   7.339
 4589AUSL   AUS 4505  19.379  16.527   6.992
 4590AUL    AUL 4506  19.417  16.149   7.012
 4591THSLK    S 4507  19.223  16.016   7.266
 4592ETHY    C1 4508  19.079  15.588   7.213
 4593ETHY    C1 4509  18.992  15.069   7.120
 4594ETHY    C1 4510  19.004  14.557   6.997
 4595ETHY    C1 4511  19.105  14.063   6.854
 4596ETHY    C1 4512  19.297  13.598   6.695
 4597ETHY    C1 4513  19.577  13.170   6.523
 4598THSLK    S 4514  19.496  16.337   6.859
 4599ETHY    C1 4515  19.540  15.935   6.651
 4600ETHY    C1 4516  19.650  15.504   6.355
 4601ETHY    C1 4517  19.826  15.141   6.017
 4602ETHY    C1 4518  20.057  14.847   5.651
 4603ETHY    C1 4519  20.343  14.630   5.264
 4604ETHY    C1 4520  20.680  14.494   4.865
 4605AUC    AUC 4521  16.664  -4.632   7.503
 4606AUC    AUC 4522  16.909  -4.632   7.351
 4607AUC    AUC 4523  16.909  -4.632   7.654
 4608AUC    AUC 4524  16.419  -4.632   7.351
 4609AUC    AUC 4525  16.419  -4.632   7.654
 4610AUC    AUC 4526  16.512  -4.386   7.503
 4611AUC    AUC 4527  16.816  -4.386   7.503
 4612AUC    AUC 4528  16.512  -4.877   7.503
 4613AUC    AUC 4529  16.816  -4.877   7.503
 4614AUC    AUC 4530  16.664  -4.783   7.748
 4615AUC    AUC 4531  16.664  -4.480   7.748
 4616AUC    AUC 4532  16.664  -4.783   7.257
 4617AUC    AUC 4533  16.664  -4.480   7.257
 4618AUC    AUC 4534  17.155  -4.632   7.199
 4619AUC    AUC 4535  17.155  -4.632   7.503
 4620AUC    AUC 4536  17.155  -4.632   7.806
 4621AUC    AUC 4537  16.173  -4.632   7.199
 4622AUC    AUC 4538  16.173  -4.632   7.503
 4623AUC    AUC 4539  16.173  -4.632   7.806
 4624AUC    AUC 4540  16.361  -4.141   7.503
 4625AUC    AUC 4541  16.664  -4.141   7.503
 4626AUC    AUC 4542  16.967  -4.141   7.503
 4627AUC    AUC 4543  16.361  -5.122   7.503
 4628AUC    AUC 4544  16.664  -5.122   7.503
 4629AUC    AUC 4545  16.967  -5.122   7.503
 4630AUC    AUC 4546  16.664  -4.935   7.993
 4631AUC    AUC 4547  16.664  -4.632   7.993
 4632AUC    AUC 4548  16.664  -4.328   7.993
 4633AUC    AUC 4549  16.664  -4.935   7.012
 4634AUC    AUC 4550  16.664  -4.632   7.012
 4635AUC    AUC 4551  16.664  -4.328   7.012
 4636AUC    AUC 4552  16.909  -4.783   7.900
 4637AUC    AUC 4553  16.909  -4.480   7.900
 4638AUC    AUC 4554  16.909  -4.783   7.106
 4639AUC    AUC 4555  16.909  -4.480   7.106
 4640AUC    AUC 4556  16.419  -4.783   7.900
 4641AUC    AUC 4557  16.419  -4.480   7.900
 4642AUC    AUC 4558  16.419  -4.783   7.106
 4643AUC    AUC 4559  16.419  -4.480   7.106
 4644AUC    AUC 4560  17.061  -4.386   7.351
 4645AUC    AUC 4561  17.061  -4.386   7.654
 4646AUC    AUC 4562  16.267  -4.386   7.351
 4647AUC    AUC 4563  16.267  -4.386   7.654
 4648AUC    AUC 4564  17.061  -4.877   7.351
 4649AUC    AUC 4565  17.061  -4.877   7.654
 4650AUC    AUC 4566  16.267  -4.877   7.351
 4651AUC    AUC 4567  16.267  -4.877   7.654
 4652AUC    AUC 4568  16.512  -4.234   7.748
 4653AUC    AUC 4569  16.816  -4.234   7.748
 4654AUC    AUC 4570  16.512  -5.029   7.748
 4655AUC    AUC 4571  16.816  -5.029   7.748
 4656AUC    AUC 4572  16.512  -4.234   7.257
 4657AUC    AUC 4573  16.816  -4.234   7.257
 4658AUC    AUC 4574  16.512  -5.029   7.257
 4659AUC    AUC 4575  16.816  -5.029   7.257
 4660AUSL   AUS 4576  17.073  -4.632   8.083
 4661AUSL   AUS 4577  16.929  -5.048   8.013
 4662AUL    AUL 4578  17.155  -4.935   8.297
 4663THSLK    S 4579  17.039  -5.235   8.153
 4664ETHY    C1 4580  17.075  -5.634   8.368
 4665ETHY    C1 4581  17.185  -6.064   8.665
 4666ETHY    C1 4582  17.363  -6.428   9.000
 4667ETHY    C1 4583  17.597  -6.724   9.364
 4668ETHY    C1 4584  17.883  -6.941   9.752
 4669ETHY    C1 4585  18.214  -7.074  10.156
 4670THSLK    S 4586  17.166  -4.684   8.324
 4671ETHY    C1 4587  17.370  -4.904   8.665
 4672ETHY    C1 4588  17.634  -5.081   9.094
 4673ETHY    C1 4589  17.910  -5.157   9.535
 4674ETHY    C1 4590  18.187  -5.140   9.980
 4675ETHY    C1 4591  18.457  -5.027  10.419
 4676ETHY    C1 4592  18.716  -4.818  10.845
 4677AUSL   AUS 4593  16.828  -4.783   8.176
 4678AUSL   AUS 4594  16.500  -4.480   8.176
 4679AUL    AUL 4595  16.664  -4.632   8.484
 4680THSLK    S 4596  16.903  -4.838   8.413
 4681ETHY    C1 4597  16.967  -5.118   8.765
 4682ETHY    C1 4598  17.070  -5.373   9.223
 4683ETHY    C1 4599  17.197  -5.532   9.708
 4684ETHY    C1 4600  17.339  -5.601  10.208
 4685ETHY    C1 4601  17.493  -5.573  10.713
 4686ETHY    C1 4602  17.653  -5.449  11.212
 4687THSLK    S 4603  16.415  -4.526   8.428
 4688ETHY    C1 4604  16.341  -4.676   8.850
 4689ETHY    C1 4605  16.236  -4.764   9.367
 4690ETHY    C1 4606  16.114  -4.752   9.878
 4691ETHY    C1 4607  15.976  -4.651  10.373
 4692ETHY    C1 4608  15.821  -4.458  10.840
 4693ETHY    C1 4609  15.652  -4.177  11.268
 4694AUSL   AUS 4610  16.828  -4.480   8.176
 4695AUSL   AUS 4611  17.174  -4.367   7.919
 4696AUL    AUL 4612  17.155  -4.328   8.297
 4697THSLK    S 4613  16.913  -4.424   8.410
 4698ETHY    C1 4614  16.987  -4.143   8.759
 4699ETHY    C1 4615  17.092  -3.888   9.217
 4700ETHY    C1 4616  17.214  -3.729   9.703
 4701ETHY    C1 4617  17.353  -3.660  10.204
 4702ETHY    C1 4618  17.507  -3.687  10.708
 4703ETHY    C1 4619  17.676  -3.811  11.206
 4704THSLK    S 4620  17.346  -4.269   8.080
 4705ETHY    C1 4621  17.709  -4.298   8.350
 4706ETHY    C1 4622  18.131  -4.242   8.673
 4707ETHY    C1 4623  18.523  -4.088   8.989
 4708ETHY    C1 4624  18.877  -3.850   9.293
 4709ETHY    C1 4625  19.184  -3.529   9.580
 4710ETHY    C1 4626  19.435  -3.132   9.844
 4711AUSL   AUS 4627  17.073  -4.632   6.923
 4712AUSL   AUS 4628  16.929  -4.215   6.992
 4713AUL    AUL 4629  17.155  -4.328   6.708
 4714THSLK    S 4630  17.175  -4.684   6.687
 4715ETHY    C1 4631  17.388  -4.904   6.351
 4716ETHY    C1 4632  17.653  -5.081   5.923
 4717ETHY    C1 4633  17.925  -5.157   5.479
 4718ETHY    C1 4634  18.199  -5.140   5.033
 4719ETHY    C1 4635  18.470  -5.027   4.594
 4720ETHY    C1 4636  18.735  -4.818   4.173
 4721THSLK    S 4637  17.107  -4.104   6.829
 4722ETHY    C1 4638  17.409  -4.036   6.497
 4723ETHY    C1 4639  17.728  -3.873   6.100
 4724ETHY    C1 4640  17.993  -3.626   5.719
 4725ETHY    C1 4641  18.205  -3.306   5.362
 4726ETHY    C1 4642  18.358  -2.916   5.039
 4727ETHY    C1 4643  18.449  -2.464   4.759
 4728AUSL   AUS 4644  16.828  -4.783   6.829
 4729AUSL   AUS 4645  17.174  -4.896   7.086
 4730AUL    AUL 4646  17.155  -4.935   6.708
 4731THSLK    S 4647  17.307  -5.088   6.949
 4732ETHY    C1 4648  17.490  -5.455   6.752
 4733ETHY    C1 4649  17.762  -5.827   6.483
 4734ETHY    C1 4650  18.087  -6.116   6.186
 4735ETHY    C1 4651  18.453  -6.323   5.874
 4736ETHY    C1 4652  18.857  -6.442   5.555
 4737ETHY    C1 4653  19.290  -6.467   5.235
 4738THSLK    S 4654  16.913  -4.839   6.596
 4739ETHY    C1 4655  16.987  -5.120   6.246
 4740ETHY    C1 4656  17.092  -5.376   5.788
 4741ETHY    C1 4657  17.214  -5.534   5.302
 4742ETHY    C1 4658  17.353  -5.603   4.801
 4743ETHY    C1 4659  17.507  -5.576   4.297
 4744ETHY    C1 4660  17.676  -5.452   3.799
 4745AUSL   AUS 4661  16.828  -4.480   6.829
 4746AUSL   AUS 4662  16.500  -4.783   6.829
 4747AUL    AUL 4663  16.664  -4.632   6.521
 4748THSLK    S 4664  16.408  -4.839   6.597
 4749ETHY    C1 4665  16.273  -5.117   6.264
 4750ETHY    C1 4666  16.112  -5.370   5.822
 4751ETHY    C1 4667  15.960  -5.527   5.343
 4752ETHY    C1 4668  15.824  -5.596   4.842
 4753ETHY    C1 4669  15.707  -5.570   4.328
 4754ETHY    C1 4670  15.614  -5.451   3.810
 4755THSLK    S 4671  16.930  -4.526   6.583
 4756ETHY    C1 4672  17.076  -4.676   6.179
 4757ETHY    C1 4673  17.238  -4.767   5.678
 4758ETHY    C1 4674  17.385  -4.757   5.173
 4759ETHY    C1 4675  17.518  -4.656   4.677
 4760ETHY    C1 4676  17.635  -4.461   4.200
 4761ETHY    C1 4677  17.736  -4.175   3.754
 4762AUSL   AUS 4678  16.255  -4.632   8.083
 4763AUSL   AUS 4679  16.399  -4.215   8.013
 4764AUL    AUL 4680  16.173  -4.328   8.297
 4765THSLK    S 4681  16.153  -4.684   8.319
 4766ETHY    C1 4682  15.941  -4.904   8.654
 4767ETHY    C1 4683  15.675  -5.081   9.082
 4768ETHY    C1 4684  15.403  -5.157   9.526
 4769ETHY    C1 4685  15.129  -5.140   9.973
 4770ETHY    C1 4686  14.858  -5.027  10.411
 4771ETHY    C1 4687  14.593  -4.818  10.832
 4772THSLK    S 4688  16.282  -4.091   8.202
 4773ETHY    C1 4689  16.239  -3.948   8.632
 4774ETHY    C1 4690  16.128  -3.723   9.104
 4775ETHY    C1 4691  15.952  -3.446   9.515
 4776ETHY    C1 4692  15.721  -3.130   9.863
 4777ETHY    C1 4693  15.435  -2.782  10.138
 4778ETHY    C1 4694  15.098  -2.409  10.334
 4779AUSL   AUS 4695  16.500  -4.783   8.176
 4780AUSL   AUS 4696  16.154  -4.896   7.919
 4781AUL    AUL 4697  16.173  -4.935   8.297
 4782THSLK    S 4698  15.977  -5.059   8.026
 4783ETHY    C1 4699  15.606  -5.316   8.082
 4784ETHY    C1 4700  15.184  -5.604   8.237
 4785ETHY    C1 4701  14.794  -5.859   8.482
 4786ETHY    C1 4702  14.442  -6.076   8.803
 4787ETHY    C1 4703  14.136  -6.247   9.198
 4788ETHY    C1 4704  13.879  -6.368   9.657
 4789THSLK    S 4705  16.398  -4.837   8.406
 4790ETHY    C1 4706  16.252  -5.113   8.736
 4791ETHY    C1 4707  16.090  -5.365   9.178
 4792ETHY    C1 4708  15.943  -5.523   9.658
 4793ETHY    C1 4709  15.810  -5.593  10.160
 4794ETHY    C1 4710  15.693  -5.567  10.674
 4795ETHY    C1 4711  15.592  -5.446  11.190
 4796AUSL   AUS 4712  16.255  -4.632   6.923
 4797AUSL   AUS 4713  16.399  -5.048   6.992
 4798AUL    AUL 4714  16.173  -4.935   6.708
 4799THSLK    S 4715  16.162  -4.684   6.681
 4800ETHY    C1 4716  15.958  -4.904   6.341
 4801ETHY    C1 4717  15.694  -5.081   5.911
 4802ETHY    C1 4718  15.418  -5.157   5.470
 4803ETHY    C1 4719  15.141  -5.140   5.025
 4804ETHY    C1 4720  14.871  -5.027   4.586
 4805ETHY    C1 4721  14.612  -4.818   4.161
 4806THSLK    S 4722  16.228  -5.221   6.878
 4807ETHY    C1 4723  15.933  -5.547   6.760
 4808ETHY    C1 4724  15.615  -5.914   6.538
 4809ETHY    C1 4725  15.347  -6.249   6.233
 4810ETHY    C1 4726  15.133  -6.549   5.861
 4811ETHY    C1 4727  14.981  -6.807   5.426
 4812ETHY    C1 4728  14.895  -7.019   4.937
 4813AUSL   AUS 4729  16.500  -4.480   6.829
 4814AUSL   AUS 4730  16.154  -4.367   7.086
 4815AUL    AUL 4731  16.173  -4.328   6.708
 4816THSLK    S 4732  16.027  -4.240   6.895
 4817ETHY    C1 4733  15.850  -4.159   6.484
 4818ETHY    C1 4734  15.579  -4.019   6.046
 4819ETHY    C1 4735  15.252  -3.831   5.679
 4820ETHY    C1 4736  14.883  -3.602   5.385
 4821ETHY    C1 4737  14.481  -3.335   5.173
 4822ETHY    C1 4738  14.052  -3.033   5.047
 4823THSLK    S 4739  16.425  -4.524   6.576
 4824ETHY    C1 4740  16.361  -4.671   6.150
 4825ETHY    C1 4741  16.258  -4.760   5.634
 4826ETHY    C1 4742  16.131  -4.749   5.123
 4827ETHY    C1 4743  15.989  -4.648   4.629
 4828ETHY    C1 4744  15.836  -4.455   4.162
 4829ETHY    C1 4745  15.675  -4.172   3.732
 4830AUSL   AUS 4746  17.244  -4.223   7.503
 4831AUSL   AUS 4747  17.174  -4.367   7.086
 4832AUL    AUL 4748  17.458  -4.141   7.199
 4833THSLK    S 4749  17.352  -4.268   6.934
 4834ETHY    C1 4750  17.722  -4.295   6.671
 4835ETHY    C1 4751  18.144  -4.239   6.349
 4836ETHY    C1 4752  18.534  -4.085   6.030
 4837ETHY    C1 4753  18.886  -3.848   5.724
 4838ETHY    C1 4754  19.193  -3.527   5.438
 4839ETHY    C1 4755  19.449  -3.128   5.179
 4840THSLK    S 4756  17.510  -4.170   7.508
 4841ETHY    C1 4757  17.964  -4.148   7.513
 4842ETHY    C1 4758  18.486  -4.034   7.514
 4843ETHY    C1 4759  18.969  -3.825   7.511
 4844ETHY    C1 4760  19.405  -3.535   7.510
 4845ETHY    C1 4761  19.784  -3.168   7.510
 4846ETHY    C1 4762  20.098  -2.728   7.514
 4847AUSL   AUS 4763  17.338  -4.468   7.351
 4848AUSL   AUS 4764  17.338  -4.795   7.654
 4849AUL    AUL 4765  17.646  -4.632   7.503
 4850THSLK    S 4766  17.594  -4.429   7.350
 4851ETHY    C1 4767  18.030  -4.537   7.286
 4852ETHY    C1 4768  18.556  -4.575   7.201
 4853ETHY    C1 4769  19.071  -4.511   7.113
 4854ETHY    C1 4770  19.565  -4.357   7.026
 4855ETHY    C1 4771  20.025  -4.112   6.945
 4856ETHY    C1 4772  20.444  -3.780   6.873
 4857THSLK    S 4773  17.565  -4.935   7.663
 4858ETHY    C1 4774  17.884  -5.251   7.728
 4859ETHY    C1 4775  18.317  -5.555   7.807
 4860ETHY    C1 4776  18.792  -5.765   7.887
 4861ETHY    C1 4777  19.295  -5.886   7.971
 4862ETHY    C1 4778  19.815  -5.912   8.058
 4863ETHY    C1 4779  20.343  -5.842   8.147
 4864AUSL   AUS 4780  17.338  -4.468   7.654
 4865AUSL   AUS 4781  17.080  -4.121   7.767
 4866AUL    AUL 4782  17.458  -4.141   7.806
 4867THSLK    S 4783  17.263  -4.007   7.926
 4868ETHY    C1 4784  17.646  -3.889   8.140
 4869ETHY    C1 4785  18.064  -3.666   8.388
 4870ETHY    C1 4786  18.423  -3.361   8.622
 4871ETHY    C1 4787  18.720  -2.988   8.840
 4872ETHY    C1 4788  18.945  -2.554   9.038
 4873ETHY    C1 4789  19.092  -2.066   9.215
 4874THSLK    S 4790  17.592  -4.429   7.665
 4875ETHY    C1 4791  18.027  -4.537   7.740
 4876ETHY    C1 4792  18.553  -4.575   7.826
 4877ETHY    C1 4793  19.068  -4.512   7.910
 4878ETHY    C1 4794  19.562  -4.358   7.993
 4879ETHY    C1 4795  20.023  -4.113   8.075
 4880ETHY    C1 4796  20.440  -3.781   8.155
 4881AUSL   AUS 4797  16.084  -4.223   7.503
 4882AUSL   AUS 4798  16.154  -4.367   7.919
 4883AUL    AUL 4799  15.870  -4.141   7.806
 4884THSLK    S 4800  16.021  -4.248   8.109
 4885ETHY    C1 4801  15.838  -4.176   8.519
 4886ETHY    C1 4802  15.566  -4.036   8.957
 4887ETHY    C1 4803  15.241  -3.845   9.324
 4888ETHY    C1 4804  14.875  -3.614   9.619
 4889ETHY    C1 4805  14.472  -3.347   9.831
 4890ETHY    C1 4806  14.038  -3.051   9.956
 4891THSLK    S 4807  15.873  -4.082   7.508
 4892ETHY    C1 4808  15.651  -3.685   7.513
 4893ETHY    C1 4809  15.315  -3.270   7.514
 4894ETHY    C1 4810  14.912  -2.931   7.511
 4895ETHY    C1 4811  14.458  -2.670   7.510
 4896ETHY    C1 4812  13.959  -2.496   7.510
 4897ETHY    C1 4813  13.426  -2.412   7.514
 4898AUSL   AUS 4814  15.990  -4.468   7.351
 4899AUSL   AUS 4815  16.248  -4.121   7.238
 4900AUL    AUL 4816  15.870  -4.141   7.199
 4901THSLK    S 4817  15.763  -4.353   7.303
 4902ETHY    C1 4818  15.444  -4.153   7.049
 4903ETHY    C1 4819  15.011  -3.947   6.813
 4904ETHY    C1 4820  14.536  -3.781   6.661
 4905ETHY    C1 4821  14.033  -3.652   6.590
 4906ETHY    C1 4822  13.513  -3.562   6.605
 4907ETHY    C1 4823  12.985  -3.514   6.708
 4908THSLK    S 4824  16.136  -3.958   7.060
 4909ETHY    C1 4825  16.057  -3.648   6.737
 4910ETHY    C1 4826  15.882  -3.274   6.397
 4911ETHY    C1 4827  15.628  -2.906   6.120
 4912ETHY    C1 4828  15.308  -2.549   5.909
 4913ETHY    C1 4829  14.927  -2.211   5.770
 4914ETHY    C1 4830  14.492  -1.897   5.709
 4915AUSL   AUS 4831  15.990  -4.468   7.654
 4916AUSL   AUS 4832  15.990  -4.795   7.351
 4917AUL    AUL 4833  15.682  -4.632   7.503
 4918THSLK    S 4834  15.736  -4.868   7.394
 4919ETHY    C1 4835  15.301  -4.886   7.524
 4920ETHY    C1 4836  14.775  -4.946   7.597
 4921ETHY    C1 4837  14.260  -5.050   7.578
 4922ETHY    C1 4838  13.766  -5.193   7.477
 4923ETHY    C1 4839  13.306  -5.376   7.294
 4924ETHY    C1 4840  12.888  -5.596   7.034
 4925THSLK    S 4841  15.762  -4.362   7.707
 4926ETHY    C1 4842  15.441  -4.171   7.966
 4927ETHY    C1 4843  15.008  -3.967   8.202
 4928ETHY    C1 4844  14.533  -3.796   8.352
 4929ETHY    C1 4845  14.031  -3.664   8.422
 4930ETHY    C1 4846  13.511  -3.576   8.407
 4931ETHY    C1 4847  12.982  -3.535   8.308
 4932AUSL   AUS 4848  17.244  -5.041   7.503
 4933AUSL   AUS 4849  17.174  -4.896   7.919
 4934AUL    AUL 4850  17.458  -5.122   7.806
 4935THSLK    S 4851  17.455  -5.182   7.508
 4936ETHY    C1 4852  17.677  -5.578   7.513
 4937ETHY    C1 4853  18.013  -5.993   7.514
 4938ETHY    C1 4854  18.416  -6.332   7.511
 4939ETHY    C1 4855  18.870  -6.593   7.510
 4940ETHY    C1 4856  19.369  -6.767   7.510
 4941ETHY    C1 4857  19.902  -6.851   7.514
 4942THSLK    S 4858  17.301  -5.087   8.064
 4943ETHY    C1 4859  17.478  -5.452   8.270
 4944ETHY    C1 4860  17.749  -5.824   8.540
 4945ETHY    C1 4861  18.076  -6.113   8.834
 4946ETHY    C1 4862  18.445  -6.321   9.142
 4947ETHY    C1 4863  18.847  -6.439   9.462
 4948ETHY    C1 4864  19.276  -6.464   9.789
 4949AUSL   AUS 4865  17.338  -4.795   7.351
 4950AUSL   AUS 4866  17.080  -5.142   7.238
 4951AUL    AUL 4867  17.458  -5.122   7.199
 4952THSLK    S 4868  17.566  -4.935   7.353
 4953ETHY    C1 4869  17.887  -5.252   7.298
 4954ETHY    C1 4870  18.320  -5.555   7.221
 4955ETHY    C1 4871  18.795  -5.765   7.136
 4956ETHY    C1 4872  19.297  -5.886   7.048
 4957ETHY    C1 4873  19.817  -5.913   6.963
 4958ETHY    C1 4874  20.346  -5.842   6.881
 4959THSLK    S 4875  17.196  -5.331   7.108
 4960ETHY    C1 4876  17.280  -5.760   6.984
 4961ETHY    C1 4877  17.455  -6.232   6.803
 4962ETHY    C1 4878  17.708  -6.643   6.593
 4963ETHY    C1 4879  18.026  -6.991   6.366
 4964ETHY    C1 4880  18.408  -7.266   6.126
 4965ETHY    C1 4881  18.846  -7.463   5.880
 4966AUSL   AUS 4882  16.084  -5.041   7.503
 4967AUSL   AUS 4883  16.154  -4.896   7.086
 4968AUL    AUL 4884  15.870  -5.122   7.199
 4969THSLK    S 4885  15.983  -5.067   6.978
 4970ETHY    C1 4886  15.619  -5.332   6.921
 4971ETHY    C1 4887  15.197  -5.622   6.766
 4972ETHY    C1 4888  14.805  -5.874   6.521
 4973ETHY    C1 4889  14.451  -6.087   6.200
 4974ETHY    C1 4890  14.144  -6.260   5.806
 4975ETHY    C1 4891  13.893  -6.387   5.346
 4976THSLK    S 4892  15.818  -5.093   7.508
 4977ETHY    C1 4893  15.364  -5.115   7.513
 4978ETHY    C1 4894  14.842  -5.229   7.514
 4979ETHY    C1 4895  14.360  -5.438   7.511
 4980ETHY    C1 4896  13.923  -5.728   7.510
 4981ETHY    C1 4897  13.544  -6.095   7.510
 4982ETHY    C1 4898  13.231  -6.535   7.514
 4983AUSL   AUS 4899  15.990  -4.795   7.654
 4984AUSL   AUS 4900  16.248  -5.142   7.767
 4985AUL    AUL 4901  15.870  -5.122   7.806
 4986THSLK    S 4902  16.060  -5.282   7.878
 4987ETHY    C1 4903  15.673  -5.519   7.893
 4988ETHY    C1 4904  15.255  -5.839   7.982
 4989ETHY    C1 4905  14.897  -6.188   8.149
 4990ETHY    C1 4906  14.602  -6.552   8.382
 4991ETHY    C1 4907  14.377  -6.923   8.683
 4992ETHY    C1 4908  14.226  -7.294   9.045
 4993THSLK    S 4909  15.734  -4.858   7.616
 4994ETHY    C1 4910  15.298  -4.868   7.491
 4995ETHY    C1 4911  14.772  -4.927   7.419
 4996ETHY    C1 4912  14.257  -5.034   7.436
 4997ETHY    C1 4913  13.763  -5.180   7.535
 4998ETHY    C1 4914  13.303  -5.362   7.718
 4999ETHY    C1 4915  12.884  -5.575   7.983
 5000AUSL   AUS 4916  16.664  -4.052   7.912
 5001AUSL   AUS 4917  16.248  -4.121   7.767
 5002AUL    AUL 4918  16.361  -3.837   7.993
 5003THSLK    S 4919  16.132  -3.965   7.952
 5004ETHY    C1 4920  16.048  -3.663   8.280
 5005ETHY    C1 4921  15.873  -3.290   8.621
 5006ETHY    C1 4922  15.620  -2.919   8.895
 5007ETHY    C1 4923  15.302  -2.560   9.105
 5008ETHY    C1 4924  14.920  -2.222   9.244
 5009ETHY    C1 4925  14.482  -1.914   9.309
 5010THSLK    S 4926  16.706  -3.830   8.035
 5011ETHY    C1 4927  16.890  -3.555   8.347
 5012ETHY    C1 4928  17.040  -3.175   8.691
 5013ETHY    C1 4929  17.106  -2.752   8.998
 5014ETHY    C1 4930  17.093  -2.301   9.264
 5015ETHY    C1 4931  16.996  -1.832   9.485
 5016ETHY    C1 4932  16.816  -1.353   9.656
 5017AUSL   AUS 4933  16.512  -3.958   7.666
 5018AUSL   AUS 4934  16.816  -3.958   7.339
 5019AUL    AUL 4935  16.664  -3.650   7.503
 5020THSLK    S 4936  16.555  -3.714   7.776
 5021ETHY    C1 4937  16.699  -3.320   7.951
 5022ETHY    C1 4938  16.786  -2.826   8.137
 5023ETHY    C1 4939  16.774  -2.325   8.294
 5024ETHY    C1 4940  16.673  -1.827   8.425
 5025ETHY    C1 4941  16.481  -1.346   8.527
 5026ETHY    C1 4942  16.201  -0.891   8.600
 5027THSLK    S 4943  16.871  -3.727   7.243
 5028ETHY    C1 4944  17.147  -3.397   7.096
 5029ETHY    C1 4945  17.397  -2.956   6.927
 5030ETHY    C1 4946  17.553  -2.479   6.771
 5031ETHY    C1 4947  17.622  -1.977   6.635
 5032ETHY    C1 4948  17.598  -1.461   6.525
 5033ETHY    C1 4949  17.481  -0.941   6.443
 5034AUSL   AUS 4950  16.816  -3.958   7.666
 5035AUSL   AUS 4951  16.929  -4.215   8.013
 5036AUL    AUL 4952  16.967  -3.837   7.993
 5037THSLK    S 4953  17.100  -4.107   8.183
 5038ETHY    C1 4954  17.395  -4.042   8.523
 5039ETHY    C1 4955  17.713  -3.880   8.920
 5040ETHY    C1 4956  17.981  -3.631   9.298
 5041ETHY    C1 4957  18.195  -3.309   9.653
 5042ETHY    C1 4958  18.347  -2.921   9.976
 5043ETHY    C1 4959  18.433  -2.471  10.262
 5044THSLK    S 4960  16.869  -3.729   7.772
 5045ETHY    C1 4961  17.141  -3.401   7.929
 5046ETHY    C1 4962  17.391  -2.961   8.100
 5047ETHY    C1 4963  17.549  -2.482   8.251
 5048ETHY    C1 4964  17.618  -1.980   8.383
 5049ETHY    C1 4965  17.594  -1.465   8.494
 5050ETHY    C1 4966  17.475  -0.946   8.585
 5051AUSL   AUS 4967  16.664  -5.212   7.912
 5052AUSL   AUS 4968  17.080  -5.142   7.767
 5053AUL    AUL 4969  16.967  -5.426   7.993
 5054THSLK    S 4970  16.617  -5.462   7.989
 5055ETHY    C1 4971  16.427  -5.858   8.103
 5056ETHY    C1 4972  16.276  -6.336   8.289
 5057ETHY    C1 4973  16.213  -6.801   8.528
 5058ETHY    C1 4974  16.228  -7.243   8.809
 5059ETHY    C1 4975  16.324  -7.650   9.132
 5060ETHY    C1 4976  16.499  -8.013   9.489
 5061THSLK    S 4977  17.192  -5.329   7.907
 5062ETHY    C1 4978  17.271  -5.757   8.040
 5063ETHY    C1 4979  17.446  -6.227   8.222
 5064ETHY    C1 4980  17.700  -6.639   8.428
 5065ETHY    C1 4981  18.020  -6.988   8.652
 5066ETHY    C1 4982  18.401  -7.263   8.893
 5067ETHY    C1 4983  18.836  -7.459   9.147
 5068AUSL   AUS 4984  16.512  -5.305   7.666
 5069AUSL   AUS 4985  16.399  -5.048   8.013
 5070AUL    AUL 4986  16.361  -5.426   7.993
 5071THSLK    S 4987  16.457  -5.541   7.745
 5072ETHY    C1 4988  16.182  -5.900   7.788
 5073ETHY    C1 4989  15.931  -6.365   7.869
 5074ETHY    C1 4990  15.775  -6.855   7.981
 5075ETHY    C1 4991  15.706  -7.354   8.122
 5076ETHY    C1 4992  15.730  -7.854   8.292
 5077ETHY    C1 4993  15.847  -8.342   8.489
 5078THSLK    S 4994  16.221  -5.214   8.129
 5079ETHY    C1 4995  15.919  -5.532   8.248
 5080ETHY    C1 4996  15.600  -5.899   8.471
 5081ETHY    C1 4997  15.335  -6.236   8.776
 5082ETHY    C1 4998  15.123  -6.538   9.147
 5083ETHY    C1 4999  14.970  -6.796   9.582
 5084ETHY    C1 5000  14.879  -7.003  10.072
 5085AUSL   AUS 5001  16.816  -5.305   7.666
 5086AUSL   AUS 5002  16.512  -5.305   7.339
 5087AUL    AUL 5003  16.664  -5.613   7.503
 5088THSLK    S 5004  16.459  -5.544   7.270
 5089ETHY    C1 5005  16.187  -5.906   7.236
 5090ETHY    C1 5006  15.937  -6.371   7.157
 5091ETHY    C1 5007  15.780  -6.860   7.041
 5092ETHY    C1 5008  15.710  -7.359   6.896
 5093ETHY    C1 5009  15.734  -7.858   6.727
 5094ETHY    C1 5010  15.853  -8.349   6.538
 5095THSLK    S 5011  16.770  -5.557   7.749
 5096ETHY    C1 5012  16.623  -5.983   7.811
 5097ETHY    C1 5013  16.537  -6.501   7.906
 5098ETHY    C1 5014  16.549  -7.014   8.025
 5099ETHY    C1 5015  16.651  -7.509   8.165
 5100ETHY    C1 5016  16.843  -7.974   8.325
 5101ETHY    C1 5017  17.121  -8.400   8.504
 5102AUSL   AUS 5018  16.664  -4.052   7.094
 5103AUSL   AUS 5019  17.080  -4.121   7.238
 5104AUL    AUL 5020  16.967  -3.837   7.012
 5105THSLK    S 5021  16.711  -3.825   6.977
 5106ETHY    C1 5022  16.901  -3.546   6.674
 5107ETHY    C1 5023  17.052  -3.165   6.330
 5108ETHY    C1 5024  17.116  -2.745   6.021
 5109ETHY    C1 5025  17.100  -2.295   5.752
 5110ETHY    C1 5026  17.004  -1.825   5.532
 5111ETHY    C1 5027  16.829  -1.342   5.366
 5112THSLK    S 5028  17.268  -4.005   7.089
 5113ETHY    C1 5029  17.655  -3.885   6.883
 5114ETHY    C1 5030  18.073  -3.662   6.637
 5115ETHY    C1 5031  18.431  -3.358   6.400
 5116ETHY    C1 5032  18.726  -2.986   6.178
 5117ETHY    C1 5033  18.951  -2.551   5.981
 5118ETHY    C1 5034  19.102  -2.062   5.811
 5119AUSL   AUS 5035  16.512  -3.958   7.339
 5120AUSL   AUS 5036  16.399  -4.215   6.992
 5121AUL    AUL 5037  16.361  -3.837   7.012
 5122THSLK    S 5038  16.558  -3.711   7.239
 5123ETHY    C1 5039  16.705  -3.314   7.074
 5124ETHY    C1 5040  16.791  -2.820   6.889
 5125ETHY    C1 5041  16.779  -2.319   6.727
 5126ETHY    C1 5042  16.677  -1.823   6.593
 5127ETHY    C1 5043  16.485  -1.342   6.492
 5128ETHY    C1 5044  16.207  -0.884   6.427
 5129THSLK    S 5045  16.289  -4.083   6.805
 5130ETHY    C1 5046  16.253  -3.934   6.377
 5131ETHY    C1 5047  16.143  -3.708   5.906
 5132ETHY    C1 5048  15.965  -3.433   5.494
 5133ETHY    C1 5049  15.731  -3.120   5.145
 5134ETHY    C1 5050  15.445  -2.771   4.870
 5135ETHY    C1 5051  15.114  -2.393   4.675
 5136AUSL   AUS 5052  16.664  -5.212   7.094
 5137AUSL   AUS 5053  16.248  -5.142   7.238
 5138AUL    AUL 5054  16.361  -5.426   7.012
 5139THSLK    S 5055  16.065  -5.290   7.134
 5140ETHY    C1 5056  15.682  -5.534   7.124
 5141ETHY    C1 5057  15.264  -5.855   7.035
 5142ETHY    C1 5058  14.905  -6.201   6.866
 5143ETHY    C1 5059  14.608  -6.562   6.631
 5144ETHY    C1 5060  14.383  -6.934   6.331
 5145ETHY    C1 5061  14.236  -7.311   5.974
 5146THSLK    S 5062  16.622  -5.467   7.024
 5147ETHY    C1 5063  16.438  -5.868   6.917
 5148ETHY    C1 5064  16.288  -6.346   6.732
 5149ETHY    C1 5065  16.222  -6.809   6.491
 5150ETHY    C1 5066  16.235  -7.249   6.206
 5151ETHY    C1 5067  16.332  -7.656   5.885
 5152ETHY    C1 5068  16.512  -8.024   5.533
 5153AUSL   AUS 5069  16.816  -5.305   7.339
 5154AUSL   AUS 5070  16.929  -5.048   6.992
 5155AUL    AUL 5071  16.967  -5.426   7.012
 5156THSLK    S 5072  16.773  -5.559   7.266
 5157ETHY    C1 5073  16.629  -5.987   7.213
 5158ETHY    C1 5074  16.542  -6.506   7.120
 5159ETHY    C1 5075  16.554  -7.018   6.997
 5160ETHY    C1 5076  16.655  -7.512   6.854
 5161ETHY    C1 5077  16.847  -7.977   6.695
 5162ETHY    C1 5078  17.127  -8.405   6.523
 5163THSLK    S 5079  17.046  -5.238   6.859
 5164ETHY    C1 5080  17.090  -5.640   6.651
 5165ETHY    C1 5081  17.200  -6.071   6.355
 5166ETHY    C1 5082  17.376  -6.434   6.017
 5167ETHY    C1 5083  17.607  -6.728   5.651
 5168ETHY    C1 5084  17.893  -6.945   5.264
 5169ETHY    C1 5085  18.230  -7.081   4.865
 5170AUC    AUC 5086  33.698  39.692   7.503
 5171AUC    AUC 5087  33.943  39.692   7.351
 5172AUC    AUC 5088  33.943  39.692   7.654
 5173AUC    AUC 5089  33.453  39.692   7.351
 5174AUC    AUC 5090  33.453  39.692   7.654
 5175AUC    AUC 5091  33.546  39.938   7.503
 5176AUC    AUC 5092  33.850  39.938   7.503
 5177AUC    AUC 5093  33.546  39.447   7.503
 5178AUC    AUC 5094  33.850  39.447   7.503
 5179AUC    AUC 5095  33.698  39.541   7.748
 5180AUC    AUC 5096  33.698  39.844   7.748
 5181AUC    AUC 5097  33.698  39.541   7.257
 5182AUC    AUC 5098  33.698  39.844   7.257
 5183AUC    AUC 5099  34.189  39.692   7.199
 5184AUC    AUC 5100  34.189  39.692   7.503
 5185AUC    AUC 5101  34.189  39.692   7.806
 5186AUC    AUC 5102  33.207  39.692   7.199
 5187AUC    AUC 5103  33.207  39.692   7.503
 5188AUC    AUC 5104  33.207  39.692   7.806
 5189AUC    AUC 5105  33.395  40.183   7.503
 5190AUC    AUC 5106  33.698  40.183   7.503
 5191AUC    AUC 5107  34.001  40.183   7.503
 5192AUC    AUC 5108  33.395  39.202   7.503
 5193AUC    AUC 5109  33.698  39.202   7.503
 5194AUC    AUC 5110  34.001  39.202   7.503
 5195AUC    AUC 5111  33.698  39.389   7.993
 5196AUC    AUC 5112  33.698  39.692   7.993
 5197AUC    AUC 5113  33.698  39.996   7.993
 5198AUC    AUC 5114  33.698  39.389   7.012
 5199AUC    AUC 5115  33.698  39.692   7.012
 5200AUC    AUC 5116  33.698  39.996   7.012
 5201AUC    AUC 5117  33.943  39.541   7.900
 5202AUC    AUC 5118  33.943  39.844   7.900
 5203AUC    AUC 5119  33.943  39.541   7.106
 5204AUC    AUC 5120  33.943  39.844   7.106
 5205AUC    AUC 5121  33.453  39.541   7.900
 5206AUC    AUC 5122  33.453  39.844   7.900
 5207AUC    AUC 5123  33.453  39.541   7.106
 5208AUC    AUC 5124  33.453  39.844   7.106
 5209AUC    AUC 5125  34.095  39.938   7.351
 5210AUC    AUC 5126  34.095  39.938   7.654
 5211AUC    AUC 5127  33.301  39.938   7.351
 5212AUC    AUC 5128  33.301  39.938   7.654
 5213AUC    AUC 5129  34.095  39.447   7.351
 5214AUC    AUC 5130  34.095  39.447   7.654
 5215AUC    AUC 5131  33.301  39.447   7.351
 5216AUC    AUC 5132  33.301  39.447   7.654
 5217AUC    AUC 5133  33.546  40.090   7.748
 5218AUC    AUC 5134  33.850  40.090   7.748
 5219AUC    AUC 5135  33.546  39.295   7.748
 5220AUC    AUC 5136  33.850  39.295   7.748
 5221AUC    AUC 5137  33.546  40.090   7.257
 5222AUC    AUC 5138  33.850  40.090   7.257
 5223AUC    AUC 5139  33.546  39.295   7.257
 5224AUC    AUC 5140  33.850  39.295   7.257
 5225AUSL   AUS 5141  34.107  39.692   8.083
 5226AUSL   AUS 5142  33.963  39.276   8.013
 5227AUL    AUL 5143  34.189  39.389   8.297
 5228THSLK    S 5144  34.073  39.089   8.153
 5229ETHY    C1 5145  34.109  38.690   8.368
 5230ETHY    C1 5146  34.219  38.260   8.665
 5231ETHY    C1 5147  34.397  37.896   9.000
 5232ETHY    C1 5148  34.631  37.600   9.364
 5233ETHY    C1 5149  34.917  37.383   9.752
 5234ETHY    C1 5150  35.248  37.250  10.156
 5235THSLK    S 5151  34.200  39.640   8.324
 5236ETHY    C1 5152  34.404  39.420   8.665
 5237ETHY    C1 5153  34.668  39.243   9.094
 5238ETHY    C1 5154  34.944  39.167   9.535
 5239ETHY    C1 5155  35.221  39.184   9.980
 5240ETHY    C1 5156  35.491  39.297  10.419
 5241ETHY    C1 5157  35.750  39.506  10.845
 5242AUSL   AUS 5158  33.862  39.541   8.176
 5243AUSL   AUS 5159  33.534  39.844   8.176
 5244AUL    AUL 5160  33.698  39.692   8.484
 5245THSLK    S 5161  33.937  39.486   8.413
 5246ETHY    C1 5162  34.001  39.206   8.765
 5247ETHY    C1 5163  34.104  38.951   9.223
 5248ETHY    C1 5164  34.231  38.792   9.708
 5249ETHY    C1 5165  34.373  38.723  10.208
 5250ETHY    C1 5166  34.527  38.751  10.713
 5251ETHY    C1 5167  34.687  38.875  11.212
 5252THSLK    S 5168  33.449  39.798   8.428
 5253ETHY    C1 5169  33.375  39.648   8.850
 5254ETHY    C1 5170  33.270  39.560   9.367
 5255ETHY    C1 5171  33.148  39.572   9.878
 5256ETHY    C1 5172  33.010  39.673  10.373
 5257ETHY    C1 5173  32.855  39.866  10.840
 5258ETHY    C1 5174  32.686  40.147  11.268
 5259AUSL   AUS 5175  33.862  39.844   8.176
 5260AUSL   AUS 5176  34.208  39.957   7.919
 5261AUL    AUL 5177  34.189  39.996   8.297
 5262THSLK    S 5178  33.947  39.900   8.410
 5263ETHY    C1 5179  34.021  40.181   8.759
 5264ETHY    C1 5180  34.126  40.436   9.217
 5265ETHY    C1 5181  34.248  40.595   9.703
 5266ETHY    C1 5182  34.387  40.664  10.204
 5267ETHY    C1 5183  34.541  40.637  10.708
 5268ETHY    C1 5184  34.710  40.513  11.206
 5269THSLK    S 5185  34.380  40.055   8.080
 5270ETHY    C1 5186  34.743  40.026   8.350
 5271ETHY    C1 5187  35.165  40.082   8.673
 5272ETHY    C1 5188  35.557  40.236   8.989
 5273ETHY    C1 5189  35.911  40.474   9.293
 5274ETHY    C1 5190  36.218  40.795   9.580
 5275ETHY    C1 5191  36.469  41.192   9.844
 5276AUSL   AUS 5192  34.107  39.692   6.923
 5277AUSL   AUS 5193  33.963  40.109   6.992
 5278AUL    AUL 5194  34.189  39.996   6.708
 5279THSLK    S 5195  34.209  39.640   6.687
 5280ETHY    C1 5196  34.422  39.420   6.351
 5281ETHY    C1 5197  34.687  39.243   5.923
 5282ETHY    C1 5198  34.959  39.167   5.479
 5283ETHY    C1 5199  35.233  39.184   5.033
 5284ETHY    C1 5200  35.504  39.297   4.594
 5285ETHY    C1 5201  35.769  39.506   4.173
 5286THSLK    S 5202  34.141  40.220   6.829
 5287ETHY    C1 5203  34.443  40.288   6.497
 5288ETHY    C1 5204  34.762  40.451   6.100
 5289ETHY    C1 5205  35.027  40.698   5.719
 5290ETHY    C1 5206  35.239  41.018   5.362
 5291ETHY    C1 5207  35.392  41.408   5.039
 5292ETHY    C1 5208  35.483  41.860   4.759
 5293AUSL   AUS 5209  33.862  39.541   6.829
 5294AUSL   AUS 5210  34.208  39.428   7.086
 5295AUL    AUL 5211  34.189  39.389   6.708
 5296THSLK    S 5212  34.341  39.236   6.949
 5297ETHY    C1 5213  34.524  38.869   6.752
 5298ETHY    C1 5214  34.796  38.497   6.483
 5299ETHY    C1 5215  35.121  38.208   6.186
 5300ETHY    C1 5216  35.487  38.001   5.874
 5301ETHY    C1 5217  35.891  37.882   5.555
 5302ETHY    C1 5218  36.324  37.857   5.235
 5303THSLK    S 5219  33.947  39.485   6.596
 5304ETHY    C1 5220  34.021  39.204   6.246
 5305ETHY    C1 5221  34.126  38.948   5.788
 5306ETHY    C1 5222  34.248  38.790   5.302
 5307ETHY    C1 5223  34.387  38.721   4.801
 5308ETHY    C1 5224  34.541  38.748   4.297
 5309ETHY    C1 5225  34.710  38.872   3.799
 5310AUSL   AUS 5226  33.862  39.844   6.829
 5311AUSL   AUS 5227  33.534  39.541   6.829
 5312AUL    AUL 5228  33.698  39.692   6.521
 5313THSLK    S 5229  33.442  39.485   6.597
 5314ETHY    C1 5230  33.307  39.207   6.264
 5315ETHY    C1 5231  33.146  38.954   5.822
 5316ETHY    C1 5232  32.994  38.797   5.343
 5317ETHY    C1 5233  32.858  38.728   4.842
 5318ETHY    C1 5234  32.741  38.754   4.328
 5319ETHY    C1 5235  32.648  38.873   3.810
 5320THSLK    S 5236  33.964  39.798   6.583
 5321ETHY    C1 5237  34.110  39.648   6.179
 5322ETHY    C1 5238  34.272  39.557   5.678
 5323ETHY    C1 5239  34.419  39.567   5.173
 5324ETHY    C1 5240  34.552  39.668   4.677
 5325ETHY    C1 5241  34.669  39.863   4.200
 5326ETHY    C1 5242  34.770  40.149   3.754
 5327AUSL   AUS 5243  33.289  39.692   8.083
 5328AUSL   AUS 5244  33.433  40.109   8.013
 5329AUL    AUL 5245  33.207  39.996   8.297
 5330THSLK    S 5246  33.187  39.640   8.319
 5331ETHY    C1 5247  32.975  39.420   8.654
 5332ETHY    C1 5248  32.709  39.243   9.082
 5333ETHY    C1 5249  32.437  39.167   9.526
 5334ETHY    C1 5250  32.163  39.184   9.973
 5335ETHY    C1 5251  31.892  39.297  10.411
 5336ETHY    C1 5252  31.627  39.506  10.832
 5337THSLK    S 5253  33.316  40.233   8.202
 5338ETHY    C1 5254  33.273  40.376   8.632
 5339ETHY    C1 5255  33.162  40.601   9.104
 5340ETHY    C1 5256  32.986  40.878   9.515
 5341ETHY    C1 5257  32.755  41.194   9.863
 5342ETHY    C1 5258  32.469  41.542  10.138
 5343ETHY    C1 5259  32.132  41.915  10.334
 5344AUSL   AUS 5260  33.534  39.541   8.176
 5345AUSL   AUS 5261  33.188  39.428   7.919
 5346AUL    AUL 5262  33.207  39.389   8.297
 5347THSLK    S 5263  33.011  39.265   8.026
 5348ETHY    C1 5264  32.640  39.008   8.082
 5349ETHY    C1 5265  32.218  38.720   8.237
 5350ETHY    C1 5266  31.828  38.465   8.482
 5351ETHY    C1 5267  31.476  38.248   8.803
 5352ETHY    C1 5268  31.170  38.077   9.198
 5353ETHY    C1 5269  30.913  37.956   9.657
 5354THSLK    S 5270  33.432  39.487   8.406
 5355ETHY    C1 5271  33.286  39.211   8.736
 5356ETHY    C1 5272  33.124  38.959   9.178
 5357ETHY    C1 5273  32.977  38.801   9.658
 5358ETHY    C1 5274  32.844  38.731  10.160
 5359ETHY    C1 5275  32.727  38.757  10.674
 5360ETHY    C1 5276  32.626  38.878  11.190
 5361AUSL   AUS 5277  33.289  39.692   6.923
 5362AUSL   AUS 5278  33.433  39.276   6.992
 5363AUL    AUL 5279  33.207  39.389   6.708
 5364THSLK    S 5280  33.196  39.640   6.681
 5365ETHY    C1 5281  32.992  39.420   6.341
 5366ETHY    C1 5282  32.728  39.243   5.911
 5367ETHY    C1 5283  32.452  39.167   5.470
 5368ETHY    C1 5284  32.175  39.184   5.025
 5369ETHY    C1 5285  31.905  39.297   4.586
 5370ETHY    C1 5286  31.646  39.506   4.161
 5371THSLK    S 5287  33.262  39.103   6.878
 5372ETHY    C1 5288  32.967  38.777   6.760
 5373ETHY    C1 5289  32.649  38.410   6.538
 5374ETHY    C1 5290  32.381  38.075   6.233
 5375ETHY    C1 5291  32.167  37.775   5.861
 5376ETHY    C1 5292  32.015  37.517   5.426
 5377ETHY    C1 5293  31.929  37.305   4.937
 5378AUSL   AUS 5294  33.534  39.844   6.829
 5379AUSL   AUS 5295  33.188  39.957   7.086
 5380AUL    AUL 5296  33.207  39.996   6.708
 5381THSLK    S 5297  33.061  40.084   6.895
 5382ETHY    C1 5298  32.884  40.165   6.484
 5383ETHY    C1 5299  32.613  40.305   6.046
 5384ETHY    C1 5300  32.286  40.493   5.679
 5385ETHY    C1 5301  31.917  40.722   5.385
 5386ETHY    C1 5302  31.515  40.989   5.173
 5387ETHY    C1 5303  31.086  41.291   5.047
 5388THSLK    S 5304  33.459  39.800   6.576
 5389ETHY    C1 5305  33.395  39.653   6.150
 5390ETHY    C1 5306  33.292  39.564   5.634
 5391ETHY    C1 5307  33.165  39.575   5.123
 5392ETHY    C1 5308  33.023  39.676   4.629
 5393ETHY    C1 5309  32.870  39.869   4.162
 5394ETHY    C1 5310  32.709  40.152   3.732
 5395AUSL   AUS 5311  34.278  40.101   7.503
 5396AUSL   AUS 5312  34.208  39.957   7.086
 5397AUL    AUL 5313  34.492  40.183   7.199
 5398THSLK    S 5314  34.386  40.056   6.934
 5399ETHY    C1 5315  34.756  40.029   6.671
 5400ETHY    C1 5316  35.178  40.085   6.349
 5401ETHY    C1 5317  35.568  40.239   6.030
 5402ETHY    C1 5318  35.920  40.476   5.724
 5403ETHY    C1 5319  36.227  40.797   5.438
 5404ETHY    C1 5320  36.483  41.196   5.179
 5405THSLK    S 5321  34.544  40.154   7.508
 5406ETHY    C1 5322  34.998  40.176   7.513
 5407ETHY    C1 5323  35.520  40.290   7.514
 5408ETHY    C1 5324  36.003  40.499   7.511
 5409ETHY    C1 5325  36.439  40.789   7.510
 5410ETHY    C1 5326  36.818  41.156   7.510
 5411ETHY    C1 5327  37.132  41.596   7.514
 5412AUSL   AUS 5328  34.372  39.856   7.351
 5413AUSL   AUS 5329  34.372  39.529   7.654
 5414AUL    AUL 5330  34.680  39.692   7.503
 5415THSLK    S 5331  34.628  39.895   7.350
 5416ETHY    C1 5332  35.064  39.787   7.286
 5417ETHY    C1 5333  35.590  39.749   7.201
 5418ETHY    C1 5334  36.105  39.813   7.113
 5419ETHY    C1 5335  36.599  39.967   7.026
 5420ETHY    C1 5336  37.059  40.212   6.945
 5421ETHY    C1 5337  37.478  40.544   6.873
 5422THSLK    S 5338  34.599  39.389   7.663
 5423ETHY    C1 5339  34.918  39.073   7.728
 5424ETHY    C1 5340  35.351  38.769   7.807
 5425ETHY    C1 5341  35.826  38.559   7.887
 5426ETHY    C1 5342  36.329  38.438   7.971
 5427ETHY    C1 5343  36.849  38.412   8.058
 5428ETHY    C1 5344  37.377  38.482   8.147
 5429AUSL   AUS 5345  34.372  39.856   7.654
 5430AUSL   AUS 5346  34.114  40.203   7.767
 5431AUL    AUL 5347  34.492  40.183   7.806
 5432THSLK    S 5348  34.297  40.317   7.926
 5433ETHY    C1 5349  34.680  40.435   8.140
 5434ETHY    C1 5350  35.098  40.658   8.388
 5435ETHY    C1 5351  35.457  40.963   8.622
 5436ETHY    C1 5352  35.754  41.336   8.840
 5437ETHY    C1 5353  35.979  41.770   9.038
 5438ETHY    C1 5354  36.126  42.258   9.215
 5439THSLK    S 5355  34.626  39.895   7.665
 5440ETHY    C1 5356  35.061  39.787   7.740
 5441ETHY    C1 5357  35.587  39.749   7.826
 5442ETHY    C1 5358  36.102  39.812   7.910
 5443ETHY    C1 5359  36.596  39.966   7.993
 5444ETHY    C1 5360  37.057  40.211   8.075
 5445ETHY    C1 5361  37.474  40.543   8.155
 5446AUSL   AUS 5362  33.118  40.101   7.503
 5447AUSL   AUS 5363  33.188  39.957   7.919
 5448AUL    AUL 5364  32.904  40.183   7.806
 5449THSLK    S 5365  33.055  40.076   8.109
 5450ETHY    C1 5366  32.872  40.148   8.519
 5451ETHY    C1 5367  32.600  40.288   8.957
 5452ETHY    C1 5368  32.275  40.479   9.324
 5453ETHY    C1 5369  31.909  40.710   9.619
 5454ETHY    C1 5370  31.506  40.977   9.831
 5455ETHY    C1 5371  31.072  41.273   9.956
 5456THSLK    S 5372  32.907  40.242   7.508
 5457ETHY    C1 5373  32.685  40.639   7.513
 5458ETHY    C1 5374  32.349  41.054   7.514
 5459ETHY    C1 5375  31.946  41.393   7.511
 5460ETHY    C1 5376  31.492  41.654   7.510
 5461ETHY    C1 5377  30.993  41.828   7.510
 5462ETHY    C1 5378  30.460  41.912   7.514
 5463AUSL   AUS 5379  33.024  39.856   7.351
 5464AUSL   AUS 5380  33.282  40.203   7.238
 5465AUL    AUL 5381  32.904  40.183   7.199
 5466THSLK    S 5382  32.797  39.971   7.303
 5467ETHY    C1 5383  32.478  40.171   7.049
 5468ETHY    C1 5384  32.045  40.377   6.813
 5469ETHY    C1 5385  31.570  40.543   6.661
 5470ETHY    C1 5386  31.067  40.672   6.590
 5471ETHY    C1 5387  30.547  40.762   6.605
 5472ETHY    C1 5388  30.019  40.810   6.708
 5473THSLK    S 5389  33.170  40.366   7.060
 5474ETHY    C1 5390  33.091  40.676   6.737
 5475ETHY    C1 5391  32.916  41.050   6.397
 5476ETHY    C1 5392  32.662  41.418   6.120
 5477ETHY    C1 5393  32.342  41.775   5.909
 5478ETHY    C1 5394  31.961  42.113   5.770
 5479ETHY    C1 5395  31.526  42.427   5.709
 5480AUSL   AUS 5396  33.024  39.856   7.654
 5481AUSL   AUS 5397  33.024  39.529   7.351
 5482AUL    AUL 5398  32.716  39.692   7.503
 5483THSLK    S 5399  32.770  39.456   7.394
 5484ETHY    C1 5400  32.335  39.438   7.524
 5485ETHY    C1 5401  31.809  39.378   7.597
 5486ETHY    C1 5402  31.294  39.274   7.578
 5487ETHY    C1 5403  30.800  39.131   7.477
 5488ETHY    C1 5404  30.340  38.948   7.294
 5489ETHY    C1 5405  29.922  38.728   7.034
 5490THSLK    S 5406  32.796  39.962   7.707
 5491ETHY    C1 5407  32.475  40.153   7.966
 5492ETHY    C1 5408  32.042  40.357   8.202
 5493ETHY    C1 5409  31.567  40.528   8.352
 5494ETHY    C1 5410  31.065  40.660   8.422
 5495ETHY    C1 5411  30.545  40.748   8.407
 5496ETHY    C1 5412  30.016  40.789   8.308
 5497AUSL   AUS 5413  34.278  39.283   7.503
 5498AUSL   AUS 5414  34.208  39.428   7.919
 5499AUL    AUL 5415  34.492  39.202   7.806
 5500THSLK    S 5416  34.489  39.142   7.508
 5501ETHY    C1 5417  34.711  38.746   7.513
 5502ETHY    C1 5418  35.047  38.331   7.514
 5503ETHY    C1 5419  35.450  37.992   7.511
 5504ETHY    C1 5420  35.904  37.731   7.510
 5505ETHY    C1 5421  36.403  37.557   7.510
 5506ETHY    C1 5422  36.936  37.473   7.514
 5507THSLK    S 5423  34.335  39.237   8.064
 5508ETHY    C1 5424  34.512  38.872   8.270
 5509ETHY    C1 5425  34.783  38.500   8.540
 5510ETHY    C1 5426  35.110  38.211   8.834
 5511ETHY    C1 5427  35.479  38.003   9.142
 5512ETHY    C1 5428  35.881  37.885   9.462
 5513ETHY    C1 5429  36.310  37.860   9.789
 5514AUSL   AUS 5430  34.372  39.529   7.351
 5515AUSL   AUS 5431  34.114  39.182   7.238
 5516AUL    AUL 5432  34.492  39.202   7.199
 5517THSLK    S 5433  34.600  39.389   7.353
 5518ETHY    C1 5434  34.921  39.072   7.298
 5519ETHY    C1 5435  35.354  38.769   7.221
 5520ETHY    C1 5436  35.829  38.559   7.136
 5521ETHY    C1 5437  36.331  38.438   7.048
 5522ETHY    C1 5438  36.851  38.411   6.963
 5523ETHY    C1 5439  37.380  38.482   6.881
 5524THSLK    S 5440  34.230  38.993   7.108
 5525ETHY    C1 5441  34.314  38.564   6.984
 5526ETHY    C1 5442  34.489  38.092   6.803
 5527ETHY    C1 5443  34.742  37.681   6.593
 5528ETHY    C1 5444  35.060  37.333   6.366
 5529ETHY    C1 5445  35.442  37.058   6.126
 5530ETHY    C1 5446  35.880  36.861   5.880
 5531AUSL   AUS 5447  33.118  39.283   7.503
 5532AUSL   AUS 5448  33.188  39.428   7.086
 5533AUL    AUL 5449  32.904  39.202   7.199
 5534THSLK    S 5450  33.017  39.257   6.978
 5535ETHY    C1 5451  32.653  38.992   6.921
 5536ETHY    C1 5452  32.231  38.702   6.766
 5537ETHY    C1 5453  31.839  38.450   6.521
 5538ETHY    C1 5454  31.485  38.237   6.200
 5539ETHY    C1 5455  31.178  38.064   5.806
 5540ETHY    C1 5456  30.927  37.937   5.346
 5541THSLK    S 5457  32.852  39.231   7.508
 5542ETHY    C1 5458  32.398  39.209   7.513
 5543ETHY    C1 5459  31.876  39.095   7.514
 5544ETHY    C1 5460  31.394  38.886   7.511
 5545ETHY    C1 5461  30.957  38.596   7.510
 5546ETHY    C1 5462  30.578  38.229   7.510
 5547ETHY    C1 5463  30.265  37.789   7.514
 5548AUSL   AUS 5464  33.024  39.529   7.654
 5549AUSL   AUS 5465  33.282  39.182   7.767
 5550AUL    AUL 5466  32.904  39.202   7.806
 5551THSLK    S 5467  33.094  39.042   7.878
 5552ETHY    C1 5468  32.707  38.805   7.893
 5553ETHY    C1 5469  32.289  38.485   7.982
 5554ETHY    C1 5470  31.931  38.136   8.149
 5555ETHY    C1 5471  31.636  37.772   8.382
 5556ETHY    C1 5472  31.411  37.401   8.683
 5557ETHY    C1 5473  31.260  37.030   9.045
 5558THSLK    S 5474  32.768  39.466   7.616
 5559ETHY    C1 5475  32.332  39.456   7.491
 5560ETHY    C1 5476  31.806  39.397   7.419
 5561ETHY    C1 5477  31.291  39.290   7.436
 5562ETHY    C1 5478  30.797  39.144   7.535
 5563ETHY    C1 5479  30.337  38.962   7.718
 5564ETHY    C1 5480  29.918  38.749   7.983
 5565AUSL   AUS 5481  33.698  40.272   7.912
 5566AUSL   AUS 5482  33.282  40.203   7.767
 5567AUL    AUL 5483  33.395  40.487   7.993
 5568THSLK    S 5484  33.166  40.359   7.952
 5569ETHY    C1 5485  33.082  40.661   8.280
 5570ETHY    C1 5486  32.907  41.034   8.621
 5571ETHY    C1 5487  32.654  41.405   8.895
 5572ETHY    C1 5488  32.336  41.764   9.105
 5573ETHY    C1 5489  31.954  42.102   9.244
 5574ETHY    C1 5490  31.516  42.410   9.309
 5575THSLK    S 5491  33.740  40.494   8.035
 5576ETHY    C1 5492  33.924  40.769   8.347
 5577ETHY    C1 5493  34.074  41.149   8.691
 5578ETHY    C1 5494  34.140  41.572   8.998
 5579ETHY    C1 5495  34.127  42.023   9.264
 5580ETHY    C1 5496  34.030  42.492   9.485
 5581ETHY    C1 5497  33.850  42.971   9.656
 5582AUSL   AUS 5498  33.546  40.366   7.666
 5583AUSL   AUS 5499  33.850  40.366   7.339
 5584AUL    AUL 5500  33.698  40.674   7.503
 5585THSLK    S 5501  33.589  40.610   7.776
 5586ETHY    C1 5502  33.733  41.004   7.951
 5587ETHY    C1 5503  33.820  41.498   8.137
 5588ETHY    C1 5504  33.808  41.999   8.294
 5589ETHY    C1 5505  33.707  42.497   8.425
 5590ETHY    C1 5506  33.515  42.978   8.527
 5591ETHY    C1 5507  33.235  43.433   8.600
 5592THSLK    S 5508  33.905  40.597   7.243
 5593ETHY    C1 5509  34.181  40.927   7.096
 5594ETHY    C1 5510  34.431  41.368   6.927
 5595ETHY    C1 5511  34.587  41.845   6.771
 5596ETHY    C1 5512  34.656  42.347   6.635
 5597ETHY    C1 5513  34.632  42.863   6.525
 5598ETHY    C1 5514  34.515  43.383   6.443
 5599AUSL   AUS 5515  33.850  40.366   7.666
 5600AUSL   AUS 5516  33.963  40.109   8.013
 5601AUL    AUL 5517  34.001  40.487   7.993
 5602THSLK    S 5518  34.134  40.217   8.183
 5603ETHY    C1 5519  34.429  40.282   8.523
 5604ETHY    C1 5520  34.747  40.444   8.920
 5605ETHY    C1 5521  35.015  40.693   9.298
 5606ETHY    C1 5522  35.229  41.015   9.653
 5607ETHY    C1 5523  35.381  41.403   9.976
 5608ETHY    C1 5524  35.467  41.853  10.262
 5609THSLK    S 5525  33.903  40.595   7.772
 5610ETHY    C1 5526  34.175  40.923   7.929
 5611ETHY    C1 5527  34.425  41.363   8.100
 5612ETHY    C1 5528  34.583  41.842   8.251
 5613ETHY    C1 5529  34.652  42.344   8.383
 5614ETHY    C1 5530  34.628  42.859   8.494
 5615ETHY    C1 5531  34.509  43.378   8.585
 5616AUSL   AUS 5532  33.698  39.112   7.912
 5617AUSL   AUS 5533  34.114  39.182   7.767
 5618AUL    AUL 5534  34.001  38.898   7.993
 5619THSLK    S 5535  33.651  38.862   7.989
 5620ETHY    C1 5536  33.461  38.466   8.103
 5621ETHY    C1 5537  33.310  37.988   8.289
 5622ETHY    C1 5538  33.247  37.523   8.528
 5623ETHY    C1 5539  33.262  37.081   8.809
 5624ETHY    C1 5540  33.358  36.674   9.132
 5625ETHY    C1 5541  33.533  36.311   9.489
 5626THSLK    S 5542  34.226  38.995   7.907
 5627ETHY    C1 5543  34.305  38.567   8.040
 5628ETHY    C1 5544  34.480  38.097   8.222
 5629ETHY    C1 5545  34.734  37.685   8.428
 5630ETHY    C1 5546  35.054  37.336   8.652
 5631ETHY    C1 5547  35.435  37.061   8.893
 5632ETHY    C1 5548  35.870  36.865   9.147
 5633AUSL   AUS 5549  33.546  39.019   7.666
 5634AUSL   AUS 5550  33.433  39.276   8.013
 5635AUL    AUL 5551  33.395  38.898   7.993
 5636THSLK    S 5552  33.491  38.783   7.745
 5637ETHY    C1 5553  33.216  38.424   7.788
 5638ETHY    C1 5554  32.965  37.959   7.869
 5639ETHY    C1 5555  32.809  37.469   7.981
 5640ETHY    C1 5556  32.740  36.970   8.122
 5641ETHY    C1 5557  32.764  36.470   8.292
 5642ETHY    C1 5558  32.881  35.982   8.489
 5643THSLK    S 5559  33.255  39.110   8.129
 5644ETHY    C1 5560  32.953  38.792   8.248
 5645ETHY    C1 5561  32.634  38.425   8.471
 5646ETHY    C1 5562  32.369  38.088   8.776
 5647ETHY    C1 5563  32.157  37.786   9.147
 5648ETHY    C1 5564  32.004  37.528   9.582
 5649ETHY    C1 5565  31.913  37.321  10.072
 5650AUSL   AUS 5566  33.850  39.019   7.666
 5651AUSL   AUS 5567  33.546  39.019   7.339
 5652AUL    AUL 5568  33.698  38.711   7.503
 5653THSLK    S 5569  33.493  38.780   7.270
 5654ETHY    C1 5570  33.221  38.418   7.236
 5655ETHY    C1 5571  32.971  37.953   7.157
 5656ETHY    C1 5572  32.814  37.464   7.041
 5657ETHY    C1 5573  32.744  36.965   6.896
 5658ETHY    C1 5574  32.768  36.466   6.727
 5659ETHY    C1 5575  32.887  35.975   6.538
 5660THSLK    S 5576  33.804  38.767   7.749
 5661ETHY    C1 5577  33.657  38.341   7.811
 5662ETHY    C1 5578  33.571  37.823   7.906
 5663ETHY    C1 5579  33.583  37.310   8.025
 5664ETHY    C1 5580  33.685  36.815   8.165
 5665ETHY    C1 5581  33.877  36.350   8.325
 5666ETHY    C1 5582  34.155  35.924   8.504
 5667AUSL   AUS 5583  33.698  40.272   7.094
 5668AUSL   AUS 5584  34.114  40.203   7.238
 5669AUL    AUL 5585  34.001  40.487   7.012
 5670THSLK    S 5586  33.745  40.499   6.977
 5671ETHY    C1 5587  33.935  40.778   6.674
 5672ETHY    C1 5588  34.086  41.159   6.330
 5673ETHY    C1 5589  34.150  41.579   6.021
 5674ETHY    C1 5590  34.134  42.029   5.752
 5675ETHY    C1 5591  34.038  42.499   5.532
 5676ETHY    C1 5592  33.863  42.982   5.366
 5677THSLK    S 5593  34.302  40.319   7.089
 5678ETHY    C1 5594  34.689  40.439   6.883
 5679ETHY    C1 5595  35.107  40.662   6.637
 5680ETHY    C1 5596  35.465  40.966   6.400
 5681ETHY    C1 5597  35.760  41.338   6.178
 5682ETHY    C1 5598  35.985  41.773   5.981
 5683ETHY    C1 5599  36.136  42.262   5.811
 5684AUSL   AUS 5600  33.546  40.366   7.339
 5685AUSL   AUS 5601  33.433  40.109   6.992
 5686AUL    AUL 5602  33.395  40.487   7.012
 5687THSLK    S 5603  33.592  40.613   7.239
 5688ETHY    C1 5604  33.739  41.010   7.074
 5689ETHY    C1 5605  33.825  41.504   6.889
 5690ETHY    C1 5606  33.813  42.005   6.727
 5691ETHY    C1 5607  33.711  42.501   6.593
 5692ETHY    C1 5608  33.519  42.982   6.492
 5693ETHY    C1 5609  33.241  43.440   6.427
 5694THSLK    S 5610  33.323  40.241   6.805
 5695ETHY    C1 5611  33.287  40.390   6.377
 5696ETHY    C1 5612  33.177  40.616   5.906
 5697ETHY    C1 5613  32.999  40.891   5.494
 5698ETHY    C1 5614  32.765  41.204   5.145
 5699ETHY    C1 5615  32.479  41.553   4.870
 5700ETHY    C1 5616  32.148  41.931   4.675
 5701AUSL   AUS 5617  33.698  39.112   7.094
 5702AUSL   AUS 5618  33.282  39.182   7.238
 5703AUL    AUL 5619  33.395  38.898   7.012
 5704THSLK    S 5620  33.099  39.034   7.134
 5705ETHY    C1 5621  32.716  38.790   7.124
 5706ETHY    C1 5622  32.298  38.469   7.035
 5707ETHY    C1 5623  31.939  38.123   6.866
 5708ETHY    C1 5624  31.642  37.762   6.631
 5709ETHY    C1 5625  31.417  37.390   6.331
 5710ETHY    C1 5626  31.270  37.013   5.974
 5711THSLK    S 5627  33.656  38.857   7.024
 5712ETHY    C1 5628  33.472  38.456   6.917
 5713ETHY    C1 5629  33.322  37.978   6.732
 5714ETHY    C1 5630  33.256  37.515   6.491
 5715ETHY    C1 5631  33.269  37.075   6.206
 5716ETHY    C1 5632  33.366  36.668   5.885
 5717ETHY    C1 5633  33.546  36.300   5.533
 5718AUSL   AUS 5634  33.850  39.019   7.339
 5719AUSL   AUS 5635  33.963  39.276   6.992
 5720AUL    AUL 5636  34.001  38.898   7.012
 5721THSLK    S 5637  33.807  38.765   7.266
 5722ETHY    C1 5638  33.663  38.337   7.213
 5723ETHY    C1 5639  33.576  37.818   7.120
 5724ETHY    C1 5640  33.588  37.306   6.997
 5725ETHY    C1 5641  33.689  36.812   6.854
 5726ETHY    C1 5642  33.881  36.347   6.695
 5727ETHY    C1 5643  34.161  35.919   6.523
 5728THSLK    S 5644  34.080  39.086   6.859
 5729ETHY    C1 5645  34.124  38.684   6.651
 5730ETHY    C1 5646  34.234  38.253   6.355
 5731ETHY    C1 5647  34.410  37.890   6.017
 5732ETHY    C1 5648  34.641  37.596   5.651
 5733ETHY    C1 5649  34.927  37.379   5.264
 5734ETHY    C1 5650  35.264  37.243   4.865
 5735POPC   NC3 5651  17.473   0.443   9.455
 5735POPC   PO4 5652  17.462   0.474   9.155
 5735POPC   GL1 5653  17.458   0.439   8.855
 5735POPC   GL2 5654  17.424   0.412   8.855
 5735POPC   C1A 5655  17.485   0.468   8.555
 5735POPC   D2A 5656  17.534   0.484   8.255
 5735POPC   C3A 5657  17.495   0.429   7.955
 5735POPC   C4A 5658  17.544   0.420   7.655
 5735POPC   C1B 5659  17.236   0.449   8.555
 5735POPC   C2B 5660  17.237   0.392   8.255
 5735POPC   C3B 5661  17.297   0.440   7.955
 5735POPC   C4B 5662  17.303   0.387   7.655
 5736POPC   NC3 5663  26.834  25.257   9.455
 5736POPC   PO4 5664  26.857  25.315   9.155
 5736POPC   GL1 5665  26.786  25.289   8.855
 5736POPC   GL2 5666  26.755  25.296   8.855
 5736POPC   C1A 5667  26.838  25.300   8.555
 5736POPC   D2A 5668  26.841  25.238   8.255
 5736POPC   C3A 5669  26.859  25.256   7.955
 5736POPC   C4A 5670  26.821  25.298   7.655
 5736POPC   C1B 5671  26.646  25.428   8.555
 5736POPC   C2B 5672  26.619  25.404   8.255
 5736POPC   C3B 5673  26.564  25.383   7.955
 5736POPC   C4B 5674  26.620  25.372   7.655
 5737POPC   NC3 5675  24.516  28.402   9.455
 5737POPC   PO4 5676  24.473  28.355   9.155
 5737POPC   GL1 5677  24.478  28.349   8.855
 5737POPC   GL2 5678  24.562  28.294   8.855
 5737POPC   C1A 5679  24.503  28.361   8.555
 5737POPC   D2A 5680  24.539  28.333   8.255
 5737POPC   C3A 5681  24.530  28.350   7.955
 5737POPC   C4A 5682  24.453  28.370   7.655
 5737POPC   C1B 5683  24.733  28.166   8.555
 5737POPC   C2B 5684  24.717  28.186   8.255
 5737POPC   C3B 5685  24.729  28.164   7.955
 5737POPC   C4B 5686  24.733  28.192   7.655
 5738POPC   NC3 5687   9.785  12.873   9.455
 5738POPC   PO4 5688   9.761  12.872   9.155
 5738POPC   GL1 5689   9.719  12.854   8.855
 5738POPC   GL2 5690   9.619  12.716   8.855
 5738POPC   C1A 5691   9.791  12.836   8.555
 5738POPC   D2A 5692   9.740  12.894   8.255
 5738POPC   C3A 5693   9.711  12.862   7.955
 5738POPC   C4A 5694   9.711  12.896   7.655
 5738POPC   C1B 5695   9.609  12.680   8.555
 5738POPC   C2B 5696   9.606  12.633   8.255
 5738POPC   C3B 5697   9.632  12.699   7.955
 5738POPC   C4B 5698   9.637  12.656   7.655
 5739POPC   NC3 5699  37.726  35.351   9.455
 5739POPC   PO4 5700  37.647  35.348   9.155
 5739POPC   GL1 5701  37.719  35.341   8.855
 5739POPC   GL2 5702  37.696  35.452   8.855
 5739POPC   C1A 5703  37.656  35.367   8.555
 5739POPC   D2A 5704  37.686  35.318   8.255
 5739POPC   C3A 5705  37.679  35.336   7.955
 5739POPC   C4A 5706  37.649  35.343   7.655
 5739POPC   C1B 5707  37.790  35.547   8.555
 5739POPC   C2B 5708  37.784  35.542   8.255
 5739POPC   C3B 5709  37.796  35.599   7.955
 5739POPC   C4B 5710  37.794  35.617   7.655
 5740POPC   NC3 5711  23.689  33.815   9.455
 5740POPC   PO4 5712  23.746  33.768   9.155
 5740POPC   GL1 5713  23.719  33.818   8.855
 5740POPC   GL2 5714  23.683  33.869   8.855
 5740POPC   C1A 5715  23.736  33.838   8.555
 5740POPC   D2A 5716  23.689  33.846   8.255
 5740POPC   C3A 5717  23.741  33.769   7.955
 5740POPC   C4A 5718  23.742  33.758   7.655
 5740POPC   C1B 5719  23.562  33.991   8.555
 5740POPC   C2B 5720  23.623  34.048   8.255
 5740POPC   C3B 5721  23.632  34.001   7.955
 5740POPC   C4B 5722  23.586  34.032   7.655
 5741POPC   NC3 5723  12.875  14.354   9.455
 5741POPC   PO4 5724  12.871  14.398   9.155
 5741POPC   GL1 5725  12.879  14.356   8.855
 5741POPC   GL2 5726  12.865  14.234   8.855
 5741POPC   C1A 5727  12.821  14.364   8.555
 5741POPC   D2A 5728  12.803  14.426   8.255
 5741POPC   C3A 5729  12.857  14.371   7.955
 5741POPC   C4A 5730  12.829  14.400   7.655
 5741POPC   C1B 5731  12.860  14.108   8.555
 5741POPC   C2B 5732  12.803  14.137   8.255
 5741POPC   C3B 5733  12.784  14.110   7.955
 5741POPC   C4B 5734  12.831  14.161   7.655
 5742POPC   NC3 5735  21.399  39.236   9.455
 5742POPC   PO4 5736  21.401  39.217   9.155
 5742POPC   GL1 5737  21.436  39.195   8.855
 5742POPC   GL2 5738  21.301  39.321   8.855
 5742POPC   C1A 5739  21.343  39.185   8.555
 5742POPC   D2A 5740  21.387  39.281   8.255
 5742POPC   C3A 5741  21.386  39.248   7.955
 5742POPC   C4A 5742  21.431  39.212   7.655
 5742POPC   C1B 5743  21.274  39.440   8.555
 5742POPC   C2B 5744  21.228  39.430   8.255
 5742POPC   C3B 5745  21.206  39.465   7.955
 5742POPC   C4B 5746  21.262  39.408   7.655
 5743POPC   NC3 5747   8.208  21.388   9.455
 5743POPC   PO4 5748   8.206  21.423   9.155
 5743POPC   GL1 5749   8.182  21.422   8.855
 5743POPC   GL2 5750   8.344  21.416   8.855
 5743POPC   C1A 5751   8.242  21.400   8.555
 5743POPC   D2A 5752   8.196  21.431   8.255
 5743POPC   C3A 5753   8.220  21.410   7.955
 5743POPC   C4A 5754   8.193  21.404   7.655
 5743POPC   C1B 5755   8.454  21.531   8.555
 5743POPC   C2B 5756   8.469  21.473   8.255
 5743POPC   C3B 5757   8.388  21.529   7.955
 5743POPC   C4B 5758   8.410  21.492   7.655
 5744POPC   NC3 5759  24.535   7.411   9.455
 5744POPC   PO4 5760  24.502   7.381   9.155
 5744POPC   GL1 5761  24.525   7.397   8.855
 5744POPC   GL2 5762  24.624   7.473   8.855
 5744POPC   C1A 5763  24.523   7.407   8.555
 5744POPC   D2A 5764  24.525   7.371   8.255
 5744POPC   C3A 5765  24.440   7.467   7.955
 5744POPC   C4A 5766  24.448   7.379   7.655
 5744POPC   C1B 5767  24.750   7.575   8.555
 5744POPC   C2B 5768  24.747   7.542   8.255
 5744POPC   C3B 5769  24.727   7.567   7.955
 5744POPC   C4B 5770  24.679   7.513   7.655
 5745POPC   NC3 5771   2.026  32.210   9.455
 5745POPC   PO4 5772   2.012  32.294   9.155
 5745POPC   GL1 5773   2.034  32.201   8.855
 5745POPC   GL2 5774   2.142  32.286   8.855
 5745POPC   C1A 5775   1.997  32.292   8.555
 5745POPC   D2A 5776   1.976  32.252   8.255
 5745POPC   C3A 5777   1.951  32.245   7.955
 5745POPC   C4A 5778   2.034  32.281   7.655
 5745POPC   C1B 5779   2.229  32.398   8.555
 5745POPC   C2B 5780   2.230  32.394   8.255
 5745POPC   C3B 5781   2.206  32.385   7.955
 5745POPC   C4B 5782   2.218  32.402   7.655
 5746POPC   NC3 5783  24.512  34.563   9.455
 5746POPC   PO4 5784  24.452  34.586   9.155
 5746POPC   GL1 5785  24.464  34.534   8.855
 5746POPC   GL2 5786  24.467  34.454   8.855
 5746POPC   C1A 5787  24.530  34.570   8.555
 5746POPC   D2A 5788  24.521  34.531   8.255
 5746POPC   C3A 5789  24.533  34.623   7.955
 5746POPC   C4A 5790  24.535  34.549   7.655
 5746POPC   C1B 5791  24.488  34.346   8.555
 5746POPC   C2B 5792  24.479  34.332   8.255
 5746POPC   C3B 5793  24.500  34.341   7.955
 5746POPC   C4B 5794  24.519  34.340   7.655
 5747POPC   NC3 5795  30.705  13.660   9.455
 5747POPC   PO4 5796  30.649  13.643   9.155
 5747POPC   GL1 5797  30.709  13.665   8.855
 5747POPC   GL2 5798  30.571  13.549   8.855
 5747POPC   C1A 5799  30.684  13.661   8.555
 5747POPC   D2A 5800  30.670  13.664   8.255
 5747POPC   C3A 5801  30.647  13.624   7.955
 5747POPC   C4A 5802  30.720  13.621   7.655
 5747POPC   C1B 5803  30.504  13.520   8.555
 5747POPC   C2B 5804  30.493  13.577   8.255
 5747POPC   C3B 5805  30.439  13.572   7.955
 5747POPC   C4B 5806  30.412  13.591   7.655
 5748POPC   NC3 5807  30.704  10.527   9.455
 5748POPC   PO4 5808  30.665  10.494   9.155
 5748POPC   GL1 5809  30.693  10.525   8.855
 5748POPC   GL2 5810  30.719  10.353   8.855
 5748POPC   C1A 5811  30.728  10.486   8.555
 5748POPC   D2A 5812  30.713  10.486   8.255
 5748POPC   C3A 5813  30.683  10.500   7.955
 5748POPC   C4A 5814  30.721  10.571   7.655
 5748POPC   C1B 5815  30.724  10.298   8.555
 5748POPC   C2B 5816  30.724  10.276   8.255
 5748POPC   C3B 5817  30.690  10.227   7.955
 5748POPC   C4B 5818  30.771  10.238   7.655
 5749POPC   NC3 5819  35.388   6.667   9.455
 5749POPC   PO4 5820  35.384   6.690   9.155
 5749POPC   GL1 5821  35.393   6.660   8.855
 5749POPC   GL2 5822  35.422   6.760   8.855
 5749POPC   C1A 5823  35.382   6.625   8.555
 5749POPC   D2A 5824  35.399   6.631   8.255
 5749POPC   C3A 5825  35.390   6.669   7.955
 5749POPC   C4A 5826  35.391   6.638   7.655
 5749POPC   C1B 5827  35.586   6.844   8.555
 5749POPC   C2B 5828  35.495   6.780   8.255
 5749POPC   C3B 5829  35.495   6.831   7.955
 5749POPC   C4B 5830  35.530   6.844   7.655
 5750POPC   NC3 5831  40.038  36.130   9.455
 5750POPC   PO4 5832  40.038  36.120   9.155
 5750POPC   GL1 5833  39.989  36.132   8.855
 5750POPC   GL2 5834  40.127  36.103   8.855
 5750POPC   C1A 5835  40.032  36.102   8.555
 5750POPC   D2A 5836  40.015  36.121   8.255
 5750POPC   C3A 5837  40.037  36.139   7.955
 5750POPC   C4A 5838  39.982  36.160   7.655
 5750POPC   C1B 5839  40.225  36.107   8.555
 5750POPC   C2B 5840  40.289  36.113   8.255
 5750POPC   C3B 5841  40.211  36.129   7.955
 5750POPC   C4B 5842  40.244  36.085   7.655
 5751POPC   NC3 5843  40.038  38.406   9.455
 5751POPC   PO4 5844  40.013  38.496   9.155
 5751POPC   GL1 5845  39.978  38.493   8.855
 5751POPC   GL2 5846  39.908  38.372   8.855
 5751POPC   C1A 5847  40.031  38.470   8.555
 5751POPC   D2A 5848  39.984  38.417   8.255
 5751POPC   C3A 5849  39.973  38.481   7.955
 5751POPC   C4A 5850  40.017  38.462   7.655
 5751POPC   C1B 5851  39.854  38.286   8.555
 5751POPC   C2B 5852  39.813  38.275   8.255
 5751POPC   C3B 5853  39.792  38.279   7.955
 5751POPC   C4B 5854  39.769  38.339   7.655
 5752POPC   NC3 5855  32.270  35.321   9.455
 5752POPC   PO4 5856  32.225  35.330   9.155
 5752POPC   GL1 5857  32.279  35.318   8.855
 5752POPC   GL2 5858  32.184  35.457   8.855
 5752POPC   C1A 5859  32.292  35.313   8.555
 5752POPC   D2A 5860  32.260  35.358   8.255
 5752POPC   C3A 5861  32.214  35.391   7.955
 5752POPC   C4A 5862  32.211  35.337   7.655
 5752POPC   C1B 5863  32.234  35.636   8.555
 5752POPC   C2B 5864  32.157  35.629   8.255
 5752POPC   C3B 5865  32.171  35.626   7.955
 5752POPC   C4B 5866  32.222  35.555   7.655
 5753POPC   NC3 5867  40.007  15.994   9.455
 5753POPC   PO4 5868  40.048  15.918   9.155
 5753POPC   GL1 5869  39.973  15.974   8.855
 5753POPC   GL2 5870  40.000  15.823   8.855
 5753POPC   C1A 5871  40.015  15.935   8.555
 5753POPC   D2A 5872  40.022  15.969   8.255
 5753POPC   C3A 5873  40.023  15.955   7.955
 5753POPC   C4A 5874  39.994  15.948   7.655
 5753POPC   C1B 5875  39.889  15.689   8.555
 5753POPC   C2B 5876  39.956  15.746   8.255
 5753POPC   C3B 5877  39.951  15.714   7.955
 5753POPC   C4B 5878  39.897  15.749   7.655
 5754POPC   NC3 5879  43.100   6.616   9.455
 5754POPC   PO4 5880  43.143   6.613   9.155
 5754POPC   GL1 5881  43.064   6.644   8.855
 5754POPC   GL2 5882  43.093   6.809   8.855
 5754POPC   C1A 5883  43.160   6.598   8.555
 5754POPC   D2A 5884  43.121   6.672   8.255
 5754POPC   C3A 5885  43.075   6.660   7.955
 5754POPC   C4A 5886  43.110   6.636   7.655
 5754POPC   C1B 5887  43.066   6.927   8.555
 5754POPC   C2B 5888  43.042   6.854   8.255
 5754POPC   C3B 5889  43.028   6.901   7.955
 5754POPC   C4B 5890  43.083   6.864   7.655
 5755POPC   NC3 5891  17.467  36.095   9.455
 5755POPC   PO4 5892  17.496  36.097   9.155
 5755POPC   GL1 5893  17.468  36.169   8.855
 5755POPC   GL2 5894  17.387  36.082   8.855
 5755POPC   C1A 5895  17.470  36.135   8.555
 5755POPC   D2A 5896  17.459  36.109   8.255
 5755POPC   C3A 5897  17.480  36.166   7.955
 5755POPC   C4A 5898  17.499  36.087   7.655
 5755POPC   C1B 5899  17.297  36.127   8.555
 5755POPC   C2B 5900  17.257  36.065   8.255
 5755POPC   C3B 5901  17.247  36.101   7.955
 5755POPC   C4B 5902  17.307  36.117   7.655
 5756POPC   NC3 5903  12.049  20.585   9.455
 5756POPC   PO4 5904  12.122  20.570   9.155
 5756POPC   GL1 5905  12.083  20.635   8.855
 5756POPC   GL2 5906  12.151  20.752   8.855
 5756POPC   C1A 5907  12.120  20.600   8.555
 5756POPC   D2A 5908  12.097  20.586   8.255
 5756POPC   C3A 5909  12.066  20.592   7.955
 5756POPC   C4A 5910  12.034  20.583   7.655
 5756POPC   C1B 5911  12.256  20.793   8.555
 5756POPC   C2B 5912  12.223  20.790   8.255
 5756POPC   C3B 5913  12.267  20.797   7.955
 5756POPC   C4B 5914  12.196  20.832   7.655
 5757POPC   NC3 5915   7.371  44.699   9.455
 5757POPC   PO4 5916   7.461  44.688   9.155
 5757POPC   GL1 5917   7.439  44.632   8.855
 5757POPC   GL2 5918   7.514  44.535   8.855
 5757POPC   C1A 5919   7.422  44.657   8.555
 5757POPC   D2A 5920   7.417  44.623   8.255
 5757POPC   C3A 5921   7.379  44.661   7.955
 5757POPC   C4A 5922   7.373  44.647   7.655
 5757POPC   C1B 5923   7.556  44.466   8.555
 5757POPC   C2B 5924   7.623  44.489   8.255
 5757POPC   C3B 5925   7.612  44.435   7.955
 5757POPC   C4B 5926   7.557  44.502   7.655
 5758POPC   NC3 5927  19.835   5.873   9.455
 5758POPC   PO4 5928  19.829   5.860   9.155
 5758POPC   GL1 5929  19.851   5.900   8.855
 5758POPC   GL2 5930  19.751   5.742   8.855
 5758POPC   C1A 5931  19.884   5.919   8.555
 5758POPC   D2A 5932  19.800   5.826   8.255
 5758POPC   C3A 5933  19.806   5.838   7.955
 5758POPC   C4A 5934  19.878   5.843   7.655
 5758POPC   C1B 5935  19.684   5.669   8.555
 5758POPC   C2B 5936  19.679   5.702   8.255
 5758POPC   C3B 5937  19.672   5.699   7.955
 5758POPC   C4B 5938  19.603   5.676   7.655
 5759POPC   NC3 5939  42.331   5.106   9.455
 5759POPC   PO4 5940  42.350   5.052   9.155
 5759POPC   GL1 5941  42.328   5.054   8.855
 5759POPC   GL2 5942  42.396   5.018   8.855
 5759POPC   C1A 5943  42.289   5.048   8.555
 5759POPC   D2A 5944  42.313   5.074   8.255
 5759POPC   C3A 5945  42.379   5.065   7.955
 5759POPC   C4A 5946  42.334   5.093   7.655
 5759POPC   C1B 5947  42.441   4.843   8.555
 5759POPC   C2B 5948  42.409   4.901   8.255
 5759POPC   C3B 5949  42.445   4.809   7.955
 5759POPC   C4B 5950  42.411   4.816   7.655
 5760POPC   NC3 5951   5.874  33.023   9.455
 5760POPC   PO4 5952   5.860  33.053   9.155
 5760POPC   GL1 5953   5.873  33.015   8.855
 5760POPC   GL2 5954   5.729  33.021   8.855
 5760POPC   C1A 5955   5.864  32.996   8.555
 5760POPC   D2A 5956   5.871  33.023   8.255
 5760POPC   C3A 5957   5.877  32.975   7.955
 5760POPC   C4A 5958   5.859  33.063   7.655
 5760POPC   C1B 5959   5.598  33.028   8.555
 5760POPC   C2B 5960   5.650  33.069   8.255
 5760POPC   C3B 5961   5.605  33.073   7.955
 5760POPC   C4B 5962   5.571  33.064   7.655
 5761POPC   NC3 5963   3.548  33.818   9.455
 5761POPC   PO4 5964   3.580  33.782   9.155
 5761POPC   GL1 5965   3.573  33.818   8.855
 5761POPC   GL2 5966   3.532  33.943   8.855
 5761POPC   C1A 5967   3.543  33.758   8.555
 5761POPC   D2A 5968   3.510  33.842   8.255
 5761POPC   C3A 5969   3.524  33.848   7.955
 5761POPC   C4A 5970   3.541  33.776   7.655
 5761POPC   C1B 5971   3.493  33.986   8.555
 5761POPC   C2B 5972   3.398  34.020   8.255
 5761POPC   C3B 5973   3.448  34.077   7.955
 5761POPC   C4B 5974   3.460  34.078   7.655
 5762POPC   NC3 5975  20.624  26.860   9.455
 5762POPC   PO4 5976  20.650  26.796   9.155
 5762POPC   GL1 5977  20.658  26.782   8.855
 5762POPC   GL2 5978  20.509  26.883   8.855
 5762POPC   C1A 5979  20.607  26.852   8.555
 5762POPC   D2A 5980  20.581  26.777   8.255
 5762POPC   C3A 5981  20.626  26.841   7.955
 5762POPC   C4A 5982  20.565  26.818   7.655
 5762POPC   C1B 5983  20.407  26.957   8.555
 5762POPC   C2B 5984  20.347  26.914   8.255
 5762POPC   C3B 5985  20.423  26.876   7.955
 5762POPC   C4B 5986  20.366  26.876   7.655
 5763POPC   NC3 5987   1.250   1.978   9.455
 5763POPC   PO4 5988   1.194   1.999   9.155
 5763POPC   GL1 5989   1.165   1.971   8.855
 5763POPC   GL2 5990   1.133   1.904   8.855
 5763POPC   C1A 5991   1.187   1.960   8.555
 5763POPC   D2A 5992   1.204   1.983   8.255
 5763POPC   C3A 5993   1.187   2.022   7.955
 5763POPC   C4A 5994   1.249   1.958   7.655
 5763POPC   C1B 5995   1.076   1.787   8.555
 5763POPC   C2B 5996   1.091   1.816   8.255
 5763POPC   C3B 5997   1.042   1.777   7.955
 5763POPC   C4B 5998   1.031   1.794   7.655
 5764POPC   NC3 5999  43.075  29.912   9.455
 5764POPC   PO4 6000  43.113  29.956   9.155
 5764POPC   GL1 6001  43.120  29.948   8.855
 5764POPC   GL2 6002  43.048  29.843   8.855
 5764POPC   C1A 6003  43.128  29.955   8.555
 5764POPC   D2A 6004  43.105  29.878   8.255
 5764POPC   C3A 6005  43.064  29.916   7.955
 5764POPC   C4A 6006  43.107  29.956   7.655
 5764POPC   C1B 6007  42.997  29.700   8.555
 5764POPC   C2B 6008  43.001  29.721   8.255
 5764POPC   C3B 6009  43.029  29.702   7.955
 5764POPC   C4B 6010  42.976  29.698   7.655
 5765POPC   NC3 6011  34.587  33.837   9.455
 5765POPC   PO4 6012  34.609  33.785   9.155
 5765POPC   GL1 6013  34.558  33.796   8.855
 5765POPC   GL2 6014  34.658  33.837   8.855
 5765POPC   C1A 6015  34.527  33.790   8.555
 5765POPC   D2A 6016  34.614  33.802   8.255
 5765POPC   C3A 6017  34.542  33.758   7.955
 5765POPC   C4A 6018  34.529  33.791   7.655
 5765POPC   C1B 6019  34.777  33.906   8.555
 5765POPC   C2B 6020  34.749  33.940   8.255
 5765POPC   C3B 6021  34.781  33.975   7.955
 5765POPC   C4B 6022  34.796  33.933   7.655
 5766POPC   NC3 6023  10.481  14.359   9.455
 5766POPC   PO4 6024  10.526  14.450   9.155
 5766POPC   GL1 6025  10.561  14.370   8.855
 5766POPC   GL2 6026  10.641  14.370   8.855
 5766POPC   C1A 6027  10.524  14.451   8.555
 5766POPC   D2A 6028  10.509  14.449   8.255
 5766POPC   C3A 6029  10.485  14.379   7.955
 5766POPC   C4A 6030  10.507  14.371   7.655
 5766POPC   C1B 6031  10.740  14.338   8.555
 5766POPC   C2B 6032  10.751  14.288   8.255
 5766POPC   C3B 6033  10.753  14.327   7.955
 5766POPC   C4B 6034  10.777  14.352   7.655
 5767POPC   NC3 6035   0.439   5.075   9.455
 5767POPC   PO4 6036   0.471   5.133   9.155
 5767POPC   GL1 6037   0.418   5.049   8.855
 5767POPC   GL2 6038   0.506   4.948   8.855
 5767POPC   C1A 6039   0.420   5.077   8.555
 5767POPC   D2A 6040   0.454   5.117   8.255
 5767POPC   C3A 6041   0.420   5.113   7.955
 5767POPC   C4A 6042   0.399   5.140   7.655
 5767POPC   C1B 6043   0.564   4.877   8.555
 5767POPC   C2B 6044   0.583   4.875   8.255
 5767POPC   C3B 6045   0.631   4.871   7.955
 5767POPC   C4B 6046   0.575   4.918   7.655
 5768POPC   NC3 6047  30.716  27.545   9.455
 5768POPC   PO4 6048  30.680  27.620   9.155
 5768POPC   GL1 6049  30.662  27.546   8.855
 5768POPC   GL2 6050  30.708  27.713   8.855
 5768POPC   C1A 6051  30.664  27.564   8.555
 5768POPC   D2A 6052  30.706  27.634   8.255
 5768POPC   C3A 6053  30.693  27.613   7.955
 5768POPC   C4A 6054  30.669  27.579   7.655
 5768POPC   C1B 6055  30.702  27.858   8.555
 5768POPC   C2B 6056  30.658  27.844   8.255
 5768POPC   C3B 6057  30.672  27.832   7.955
 5768POPC   C4B 6058  30.664  27.848   7.655
 5769POPC   NC3 6059  39.205  12.878   9.455
 5769POPC   PO4 6060  39.220  12.882   9.155
 5769POPC   GL1 6061  39.193  12.895   8.855
 5769POPC   GL2 6062  39.113  12.763   8.855
 5769POPC   C1A 6063  39.194  12.813   8.555
 5769POPC   D2A 6064  39.231  12.883   8.255
 5769POPC   C3A 6065  39.211  12.838   7.955
 5769POPC   C4A 6066  39.263  12.901   7.655
 5769POPC   C1B 6067  39.009  12.712   8.555
 5769POPC   C2B 6068  38.996  12.775   8.255
 5769POPC   C3B 6069  39.046  12.717   7.955
 5769POPC   C4B 6070  39.012  12.739   7.655
 5770POPC   NC3 6071  17.527   5.059   9.455
 5770POPC   PO4 6072  17.544   5.091   9.155
 5770POPC   GL1 6073  17.550   5.044   8.855
 5770POPC   GL2 6074  17.575   5.184   8.855
 5770POPC   C1A 6075  17.549   5.124   8.555
 5770POPC   D2A 6076  17.483   5.114   8.255
 5770POPC   C3A 6077  17.462   5.048   7.955
 5770POPC   C4A 6078  17.537   5.069   7.655
 5770POPC   C1B 6079  17.676   5.308   8.555
 5770POPC   C2B 6080  17.611   5.309   8.255
 5770POPC   C3B 6081  17.637   5.265   7.955
 5770POPC   C4B 6082  17.675   5.316   7.655
 5771POPC   NC3 6083  36.130  31.509   9.455
 5771POPC   PO4 6084  36.091  31.486   9.155
 5771POPC   GL1 6085  36.172  31.448   8.855
 5771POPC   GL2 6086  36.007  31.591   8.855
 5771POPC   C1A 6087  36.165  31.445   8.555
 5771POPC   D2A 6088  36.151  31.505   8.255
 5771POPC   C3A 6089  36.101  31.489   7.955
 5771POPC   C4A 6090  36.149  31.441   7.655
 5771POPC   C1B 6091  35.973  31.612   8.555
 5771POPC   C2B 6092  35.977  31.631   8.255
 5771POPC   C3B 6093  35.953  31.662   7.955
 5771POPC   C4B 6094  35.978  31.694   7.655
 5772POPC   NC3 6095  38.504  22.185   9.455
 5772POPC   PO4 6096  38.474  22.210   9.155
 5772POPC   GL1 6097  38.484  22.206   8.855
 5772POPC   GL2 6098  38.543  22.165   8.855
 5772POPC   C1A 6099  38.442  22.127   8.555
 5772POPC   D2A 6100  38.434  22.165   8.255
 5772POPC   C3A 6101  38.433  22.208   7.955
 5772POPC   C4A 6102  38.485  22.161   7.655
 5772POPC   C1B 6103  38.718  22.126   8.555
 5772POPC   C2B 6104  38.691  22.086   8.255
 5772POPC   C3B 6105  38.706  22.114   7.955
 5772POPC   C4B 6106  38.721  22.080   7.655
 5773POPC   NC3 6107  39.192   1.222   9.455
 5773POPC   PO4 6108  39.233   1.260   9.155
 5773POPC   GL1 6109  39.252   1.257   8.855
 5773POPC   GL2 6110  39.298   1.102   8.855
 5773POPC   C1A 6111  39.262   1.181   8.555
 5773POPC   D2A 6112  39.205   1.172   8.255
 5773POPC   C3A 6113  39.188   1.205   7.955
 5773POPC   C4A 6114  39.214   1.210   7.655
 5773POPC   C1B 6115  39.285   1.004   8.555
 5773POPC   C2B 6116  39.312   0.953   8.255
 5773POPC   C3B 6117  39.233   1.008   7.955
 5773POPC   C4B 6118  39.305   0.964   7.655
 5774POPC   NC3 6119  12.823  29.885   9.455
 5774POPC   PO4 6120  12.803  29.924   9.155
 5774POPC   GL1 6121  12.880  29.880   8.855
 5774POPC   GL2 6122  12.765  30.057   8.855
 5774POPC   C1A 6123  12.843  29.941   8.555
 5774POPC   D2A 6124  12.842  29.919   8.255
 5774POPC   C3A 6125  12.857  29.882   7.955
 5774POPC   C4A 6126  12.865  29.915   7.655
 5774POPC   C1B 6127  12.746  30.141   8.555
 5774POPC   C2B 6128  12.696  30.104   8.255
 5774POPC   C3B 6129  12.712  30.172   7.955
 5774POPC   C4B 6130  12.706  30.107   7.655
 5775POPC   NC3 6131  27.608   0.413   9.455
 5775POPC   PO4 6132  27.625   0.457   9.155
 5775POPC   GL1 6133  27.636   0.443   8.855
 5775POPC   GL2 6134  27.672   0.601   8.855
 5775POPC   C1A 6135  27.603   0.428   8.555
 5775POPC   D2A 6136  27.601   0.408   8.255
 5775POPC   C3A 6137  27.568   0.430   7.955
 5775POPC   C4A 6138  27.627   0.432   7.655
 5775POPC   C1B 6139  27.640   0.693   8.555
 5775POPC   C2B 6140  27.660   0.677   8.255
 5775POPC   C3B 6141  27.696   0.713   7.955
 5775POPC   C4B 6142  27.680   0.719   7.655
 5776POPC   NC3 6143  10.508  41.594   9.455
 5776POPC   PO4 6144  10.488  41.544   9.155
 5776POPC   GL1 6145  10.479  41.511   8.855
 5776POPC   GL2 6146  10.596  41.442   8.855
 5776POPC   C1A 6147  10.531  41.554   8.555
 5776POPC   D2A 6148  10.503  41.524   8.255
 5776POPC   C3A 6149  10.570  41.543   7.955
 5776POPC   C4A 6150  10.556  41.535   7.655
 5776POPC   C1B 6151  10.609  41.371   8.555
 5776POPC   C2B 6152  10.582  41.309   8.255
 5776POPC   C3B 6153  10.623  41.372   7.955
 5776POPC   C4B 6154  10.667  41.356   7.655
 5777POPC   NC3 6155  29.954   8.186   9.455
 5777POPC   PO4 6156  29.945   8.157   9.155
 5777POPC   GL1 6157  29.955   8.179   8.855
 5777POPC   GL2 6158  29.891   8.057   8.855
 5777POPC   C1A 6159  29.941   8.219   8.555
 5777POPC   D2A 6160  29.877   8.171   8.255
 5777POPC   C3A 6161  29.906   8.194   7.955
 5777POPC   C4A 6162  29.929   8.201   7.655
 5777POPC   C1B 6163  29.756   7.974   8.555
 5777POPC   C2B 6164  29.744   8.008   8.255
 5777POPC   C3B 6165  29.808   8.005   7.955
 5777POPC   C4B 6166  29.747   7.997   7.655
 5778POPC   NC3 6167  28.338  27.574   9.455
 5778POPC   PO4 6168  28.364  27.595   9.155
 5778POPC   GL1 6169  28.373  27.560   8.855
 5778POPC   GL2 6170  28.496  27.491   8.855
 5778POPC   C1A 6171  28.390  27.596   8.555
 5778POPC   D2A 6172  28.372  27.553   8.255
 5778POPC   C3A 6173  28.415  27.614   7.955
 5778POPC   C4A 6174  28.323  27.602   7.655
 5778POPC   C1B 6175  28.546  27.419   8.555
 5778POPC   C2B 6176  28.512  27.438   8.255
 5778POPC   C3B 6177  28.515  27.372   7.955
 5778POPC   C4B 6178  28.509  27.399   7.655
 5779POPC   NC3 6179  29.096  31.442   9.455
 5779POPC   PO4 6180  29.188  31.474   9.155
 5779POPC   GL1 6181  29.119  31.477   8.855
 5779POPC   GL2 6182  29.243  31.401   8.855
 5779POPC   C1A 6183  29.188  31.448   8.555
 5779POPC   D2A 6184  29.171  31.437   8.255
 5779POPC   C3A 6185  29.096  31.475   7.955
 5779POPC   C4A 6186  29.096  31.437   7.655
 5779POPC   C1B 6187  29.231  31.275   8.555
 5779POPC   C2B 6188  29.215  31.267   8.255
 5779POPC   C3B 6189  29.255  31.266   7.955
 5779POPC   C4B 6190  29.280  31.289   7.655
 5780POPC   NC3 6191  33.026  35.385   9.455
 5780POPC   PO4 6192  33.054  35.401   9.155
 5780POPC   GL1 6193  32.999  35.392   8.855
 5780POPC   GL2 6194  32.890  35.440   8.855
 5780POPC   C1A 6195  33.053  35.386   8.555
 5780POPC   D2A 6196  33.029  35.322   8.255
 5780POPC   C3A 6197  33.005  35.383   7.955
 5780POPC   C4A 6198  33.063  35.316   7.655
 5780POPC   C1B 6199  32.762  35.457   8.555
 5780POPC   C2B 6200  32.836  35.529   8.255
 5780POPC   C3B 6201  32.804  35.456   7.955
 5780POPC   C4B 6202  32.859  35.501   7.655
 5781POPC   NC3 6203  20.650  37.636   9.455
 5781POPC   PO4 6204  20.571  37.678   9.155
 5781POPC   GL1 6205  20.577  37.672   8.855
 5781POPC   GL2 6206  20.599  37.523   8.855
 5781POPC   C1A 6207  20.603  37.637   8.555
 5781POPC   D2A 6208  20.591  37.648   8.255
 5781POPC   C3A 6209  20.620  37.706   7.955
 5781POPC   C4A 6210  20.611  37.644   7.655
 5781POPC   C1B 6211  20.519  37.454   8.555
 5781POPC   C2B 6212  20.597  37.468   8.255
 5781POPC   C3B 6213  20.582  37.454   7.955
 5781POPC   C4B 6214  20.603  37.386   7.655
 5782POPC   NC3 6215  15.197   6.670   9.455
 5782POPC   PO4 6216  15.188   6.597   9.155
 5782POPC   GL1 6217  15.148   6.607   8.855
 5782POPC   GL2 6218  15.190   6.553   8.855
 5782POPC   C1A 6219  15.226   6.669   8.555
 5782POPC   D2A 6220  15.175   6.599   8.255
 5782POPC   C3A 6221  15.210   6.649   7.955
 5782POPC   C4A 6222  15.197   6.629   7.655
 5782POPC   C1B 6223  15.151   6.383   8.555
 5782POPC   C2B 6224  15.098   6.398   8.255
 5782POPC   C3B 6225  15.153   6.409   7.955
 5782POPC   C4B 6226  15.153   6.414   7.655
 5783POPC   NC3 6227   9.701  26.768   9.455
 5783POPC   PO4 6228   9.738  26.791   9.155
 5783POPC   GL1 6229   9.715  26.859   8.855
 5783POPC   GL2 6230   9.752  26.954   8.855
 5783POPC   C1A 6231   9.745  26.819   8.555
 5783POPC   D2A 6232   9.787  26.827   8.255
 5783POPC   C3A 6233   9.751  26.862   7.955
 5783POPC   C4A 6234   9.747  26.833   7.655
 5783POPC   C1B 6235   9.872  27.071   8.555
 5783POPC   C2B 6236   9.882  27.095   8.255
 5783POPC   C3B 6237   9.844  27.046   7.955
 5783POPC   C4B 6238   9.894  27.073   7.655
 5784POPC   NC3 6239  32.202   7.391   9.455
 5784POPC   PO4 6240  32.248   7.438   9.155
 5784POPC   GL1 6241  32.265   7.464   8.855
 5784POPC   GL2 6242  32.316   7.329   8.855
 5784POPC   C1A 6243  32.277   7.417   8.555
 5784POPC   D2A 6244  32.292   7.408   8.255
 5784POPC   C3A 6245  32.280   7.373   7.955
 5784POPC   C4A 6246  32.286   7.457   7.655
 5784POPC   C1B 6247  32.527   7.369   8.555
 5784POPC   C2B 6248  32.437   7.307   8.255
 5784POPC   C3B 6249  32.492   7.291   7.955
 5784POPC   C4B 6250  32.495   7.288   7.655
 5785POPC   NC3 6251  14.379  19.063   9.455
 5785POPC   PO4 6252  14.416  19.051   9.155
 5785POPC   GL1 6253  14.373  19.045   8.855
 5785POPC   GL2 6254  14.507  18.932   8.855
 5785POPC   C1A 6255  14.371  19.081   8.555
 5785POPC   D2A 6256  14.427  19.030   8.255
 5785POPC   C3A 6257  14.374  19.081   7.955
 5785POPC   C4A 6258  14.370  19.035   7.655
 5785POPC   C1B 6259  14.487  18.813   8.555
 5785POPC   C2B 6260  14.502  18.814   8.255
 5785POPC   C3B 6261  14.544  18.827   7.955
 5785POPC   C4B 6262  14.536  18.890   7.655
 5786POPC   NC3 6263  43.932   8.229   9.455
 5786POPC   PO4 6264  43.895   8.162   9.155
 5786POPC   GL1 6265  43.850   8.181   8.855
 5786POPC   GL2 6266  43.953   8.291   8.855
 5786POPC   C1A 6267  43.849   8.178   8.555
 5786POPC   D2A 6268  43.843   8.166   8.255
 5786POPC   C3A 6269  43.930   8.174   7.955
 5786POPC   C4A 6270  43.871   8.239   7.655
 5786POPC   C1B 6271  44.133   8.332   8.555
 5786POPC   C2B 6272  44.160   8.263   8.255
 5786POPC   C3B 6273  44.144   8.281   7.955
 5786POPC   C4B 6274  44.087   8.320   7.655
 5787POPC   NC3 6275  12.079  14.439   9.455
 5787POPC   PO4 6276  12.115  14.396   9.155
 5787POPC   GL1 6277  12.108  14.366   8.855
 5787POPC   GL2 6278  12.161  14.269   8.855
 5787POPC   C1A 6279  12.088  14.453   8.555
 5787POPC   D2A 6280  12.116  14.426   8.255
 5787POPC   C3A 6281  12.101  14.393   7.955
 5787POPC   C4A 6282  12.112  14.365   7.655
 5787POPC   C1B 6283  12.137  14.179   8.555
 5787POPC   C2B 6284  12.188  14.216   8.255
 5787POPC   C3B 6285  12.185  14.118   7.955
 5787POPC   C4B 6286  12.190  14.205   7.655
 5788POPC   NC3 6287  34.618   4.289   9.455
 5788POPC   PO4 6288  34.562   4.357   9.155
 5788POPC   GL1 6289  34.619   4.316   8.855
 5788POPC   GL2 6290  34.497   4.319   8.855
 5788POPC   C1A 6291  34.618   4.349   8.555
 5788POPC   D2A 6292  34.587   4.278   8.255
 5788POPC   C3A 6293  34.601   4.314   7.955
 5788POPC   C4A 6294  34.535   4.341   7.655
 5788POPC   C1B 6295  34.284   4.326   8.555
 5788POPC   C2B 6296  34.381   4.401   8.255
 5788POPC   C3B 6297  34.371   4.401   7.955
 5788POPC   C4B 6298  34.329   4.344   7.655
 5789POPC   NC3 6299  19.102   8.924   9.455
 5789POPC   PO4 6300  19.078   9.010   9.155
 5789POPC   GL1 6301  19.101   9.019   8.855
 5789POPC   GL2 6302  18.990   8.847   8.855
 5789POPC   C1A 6303  19.042   8.961   8.555
 5789POPC   D2A 6304  19.072   8.976   8.255
 5789POPC   C3A 6305  19.045   8.947   7.955
 5789POPC   C4A 6306  19.101   9.018   7.655
 5789POPC   C1B 6307  18.946   8.746   8.555
 5789POPC   C2B 6308  19.013   8.739   8.255
 5789POPC   C3B 6309  19.007   8.752   7.955
 5789POPC   C4B 6310  18.976   8.749   7.655
 5790POPC   NC3 6311  36.947  44.708   9.455
 5790POPC   PO4 6312  36.928  44.696   9.155
 5790POPC   GL1 6313  36.864  44.709   8.855
 5790POPC   GL2 6314  36.832  44.778   8.855
 5790POPC   C1A 6315  36.949  44.639   8.555
 5790POPC   D2A 6316  36.858  44.675   8.255
 5790POPC   C3A 6317  36.948  44.707   7.955
 5790POPC   C4A 6318  36.862  44.688   7.655
 5790POPC   C1B 6319  36.666  44.808   8.555
 5790POPC   C2B 6320  36.695  44.853   8.255
 5790POPC   C3B 6321  36.716  44.834   7.955
 5790POPC   C4B 6322  36.707  44.806   7.655
 5791POPC   NC3 6323   5.081   8.214   9.455
 5791POPC   PO4 6324   5.071   8.228   9.155
 5791POPC   GL1 6325   5.114   8.188   8.855
 5791POPC   GL2 6326   4.982   8.268   8.855
 5791POPC   C1A 6327   5.058   8.163   8.555
 5791POPC   D2A 6328   5.131   8.169   8.255
 5791POPC   C3A 6329   5.081   8.212   7.955
 5791POPC   C4A 6330   5.105   8.191   7.655
 5791POPC   C1B 6331   4.852   8.209   8.555
 5791POPC   C2B 6332   4.823   8.260   8.255
 5791POPC   C3B 6333   4.822   8.226   7.955
 5791POPC   C4B 6334   4.811   8.277   7.655
 5792POPC   NC3 6335  24.512  33.762   9.455
 5792POPC   PO4 6336  24.514  33.819   9.155
 5792POPC   GL1 6337  24.459  33.794   8.855
 5792POPC   GL2 6338  24.514  33.649   8.855
 5792POPC   C1A 6339  24.442  33.767   8.555
 5792POPC   D2A 6340  24.507  33.848   8.255
 5792POPC   C3A 6341  24.455  33.813   7.955
 5792POPC   C4A 6342  24.518  33.798   7.655
 5792POPC   C1B 6343  24.523  33.529   8.555
 5792POPC   C2B 6344  24.466  33.537   8.255
 5792POPC   C3B 6345  24.457  33.539   7.955
 5792POPC   C4B 6346  24.448  33.505   7.655
 5793POPC   NC3 6347  28.349   2.010   9.455
 5793POPC   PO4 6348  28.328   1.960   9.155
 5793POPC   GL1 6349  28.337   2.031   8.855
 5793POPC   GL2 6350  28.276   2.040   8.855
 5793POPC   C1A 6351  28.347   1.985   8.555
 5793POPC   D2A 6352  28.397   1.970   8.255
 5793POPC   C3A 6353  28.372   1.964   7.955
 5793POPC   C4A 6354  28.411   2.006   7.655
 5793POPC   C1B 6355  28.157   2.077   8.555
 5793POPC   C2B 6356  28.106   2.044   8.255
 5793POPC   C3B 6357  28.115   2.104   7.955
 5793POPC   C4B 6358  28.151   2.100   7.655
 5794POPC   NC3 6359  31.450  43.925   9.455
 5794POPC   PO4 6360  31.508  43.927   9.155
 5794POPC   GL1 6361  31.498  43.883   8.855
 5794POPC   GL2 6362  31.337  43.827   8.855
 5794POPC   C1A 6363  31.469  43.880   8.555
 5794POPC   D2A 6364  31.446  43.936   8.255
 5794POPC   C3A 6365  31.497  43.894   7.955
 5794POPC   C4A 6366  31.432  43.853   7.655
 5794POPC   C1B 6367  31.192  43.822   8.555
 5794POPC   C2B 6368  31.273  43.827   8.255
 5794POPC   C3B 6369  31.238  43.840   7.955
 5794POPC   C4B 6370  31.199  43.839   7.655
 5795POPC   NC3 6371  35.311   2.020   9.455
 5795POPC   PO4 6372  35.304   2.005   9.155
 5795POPC   GL1 6373  35.382   1.961   8.855
 5795POPC   GL2 6374  35.338   1.818   8.855
 5795POPC   C1A 6375  35.313   1.951   8.555
 5795POPC   D2A 6376  35.312   1.949   8.255
 5795POPC   C3A 6377  35.330   1.956   7.955
 5795POPC   C4A 6378  35.306   1.962   7.655
 5795POPC   C1B 6379  35.351   1.777   8.555
 5795POPC   C2B 6380  35.397   1.705   8.255
 5795POPC   C3B 6381  35.386   1.762   7.955
 5795POPC   C4B 6382  35.341   1.706   7.655
 5796POPC   NC3 6383   4.360  10.569   9.455
 5796POPC   PO4 6384   4.362  10.502   9.155
 5796POPC   GL1 6385   4.320  10.486   8.855
 5796POPC   GL2 6386   4.410  10.484   8.855
 5796POPC   C1A 6387   4.307  10.493   8.555
 5796POPC   D2A 6388   4.312  10.530   8.255
 5796POPC   C3A 6389   4.311  10.563   7.955
 5796POPC   C4A 6390   4.356  10.532   7.655
 5796POPC   C1B 6391   4.559  10.450   8.555
 5796POPC   C2B 6392   4.543  10.393   8.255
 5796POPC   C3B 6393   4.511  10.423   7.955
 5796POPC   C4B 6394   4.530  10.421   7.655
 5797POPC   NC3 6395   5.899   5.834   9.455
 5797POPC   PO4 6396   5.849   5.910   9.155
 5797POPC   GL1 6397   5.879   5.885   8.855
 5797POPC   GL2 6398   5.779   5.734   8.855
 5797POPC   C1A 6399   5.917   5.917   8.555
 5797POPC   D2A 6400   5.897   5.848   8.255
 5797POPC   C3A 6401   5.868   5.898   7.955
 5797POPC   C4A 6402   5.834   5.877   7.655
 5797POPC   C1B 6403   5.718   5.714   8.555
 5797POPC   C2B 6404   5.706   5.712   8.255
 5797POPC   C3B 6405   5.762   5.655   7.955
 5797POPC   C4B 6406   5.751   5.690   7.655
 5798POPC   NC3 6407  41.583  43.121   9.455
 5798POPC   PO4 6408  41.542  43.106   9.155
 5798POPC   GL1 6409  41.512  43.132   8.855
 5798POPC   GL2 6410  41.635  43.073   8.855
 5798POPC   C1A 6411  41.513  43.100   8.555
 5798POPC   D2A 6412  41.589  43.085   8.255
 5798POPC   C3A 6413  41.549  43.149   7.955
 5798POPC   C4A 6414  41.573  43.113   7.655
 5798POPC   C1B 6415  41.811  43.073   8.555
 5798POPC   C2B 6416  41.761  43.142   8.255
 5798POPC   C3B 6417  41.810  43.079   7.955
 5798POPC   C4B 6418  41.791  43.090   7.655
 5799POPC   NC3 6419  11.333  22.183   9.455
 5799POPC   PO4 6420  11.276  22.179   9.155
 5799POPC   GL1 6421  11.342  22.173   8.855
 5799POPC   GL2 6422  11.384  22.131   8.855
 5799POPC   C1A 6423  11.252  22.199   8.555
 5799POPC   D2A 6424  11.338  22.132   8.255
 5799POPC   C3A 6425  11.315  22.158   7.955
 5799POPC   C4A 6426  11.336  22.142   7.655
 5799POPC   C1B 6427  11.544  22.110   8.555
 5799POPC   C2B 6428  11.540  22.138   8.255
 5799POPC   C3B 6429  11.588  22.121   7.955
 5799POPC   C4B 6430  11.562  22.190   7.655
 5800POPC   NC3 6431  22.964  39.228   9.455
 5800POPC   PO4 6432  22.919  39.251   9.155
 5800POPC   GL1 6433  22.936  39.213   8.855
 5800POPC   GL2 6434  22.875  39.226   8.855
 5800POPC   C1A 6435  22.941  39.212   8.555
 5800POPC   D2A 6436  22.955  39.268   8.255
 5800POPC   C3A 6437  22.922  39.188   7.955
 5800POPC   C4A 6438  22.891  39.210   7.655
 5800POPC   C1B 6439  22.760  39.162   8.555
 5800POPC   C2B 6440  22.700  39.154   8.255
 5800POPC   C3B 6441  22.733  39.100   7.955
 5800POPC   C4B 6442  22.715  39.131   7.655
 5801POPC   NC3 6443  11.255  36.143   9.455
 5801POPC   PO4 6444  11.335  36.145   9.155
 5801POPC   GL1 6445  11.270  36.094   8.855
 5801POPC   GL2 6446  11.222  36.198   8.855
 5801POPC   C1A 6447  11.262  36.112   8.555
 5801POPC   D2A 6448  11.307  36.171   8.255
 5801POPC   C3A 6449  11.321  36.139   7.955
 5801POPC   C4A 6450  11.276  36.135   7.655
 5801POPC   C1B 6451  11.236  36.362   8.555
 5801POPC   C2B 6452  11.157  36.376   8.255
 5801POPC   C3B 6453  11.177  36.321   7.955
 5801POPC   C4B 6454  11.248  36.363   7.655
 5802POPC   NC3 6455  31.474  18.295   9.455
 5802POPC   PO4 6456  31.514  18.260   9.155
 5802POPC   GL1 6457  31.449  18.304   8.855
 5802POPC   GL2 6458  31.361  18.334   8.855
 5802POPC   C1A 6459  31.499  18.321   8.555
 5802POPC   D2A 6460  31.479  18.328   8.255
 5802POPC   C3A 6461  31.434  18.267   7.955
 5802POPC   C4A 6462  31.495  18.331   7.655
 5802POPC   C1B 6463  31.209  18.305   8.555
 5802POPC   C2B 6464  31.218  18.284   8.255
 5802POPC   C3B 6465  31.193  18.355   7.955
 5802POPC   C4B 6466  31.232  18.361   7.655
 5803POPC   NC3 6467  42.361  31.521   9.455
 5803POPC   PO4 6468  42.329  31.504   9.155
 5803POPC   GL1 6469  42.332  31.491   8.855
 5803POPC   GL2 6470  42.235  31.366   8.855
 5803POPC   C1A 6471  42.365  31.487   8.555
 5803POPC   D2A 6472  42.381  31.499   8.255
 5803POPC   C3A 6473  42.338  31.463   7.955
 5803POPC   C4A 6474  42.347  31.486   7.655
 5803POPC   C1B 6475  42.180  31.226   8.555
 5803POPC   C2B 6476  42.194  31.251   8.255
 5803POPC   C3B 6477  42.214  31.222   7.955
 5803POPC   C4B 6478  42.214  31.270   7.655
 5804POPC   NC3 6479  26.037  32.279   9.455
 5804POPC   PO4 6480  26.083  32.292   9.155
 5804POPC   GL1 6481  25.992  32.298   8.855
 5804POPC   GL2 6482  25.944  32.349   8.855
 5804POPC   C1A 6483  26.014  32.230   8.555
 5804POPC   D2A 6484  26.064  32.227   8.255
 5804POPC   C3A 6485  26.085  32.213   7.955
 5804POPC   C4A 6486  26.033  32.261   7.655
 5804POPC   C1B 6487  25.830  32.426   8.555
 5804POPC   C2B 6488  25.831  32.382   8.255
 5804POPC   C3B 6489  25.801  32.380   7.955
 5804POPC   C4B 6490  25.819  32.389   7.655
 5805POPC   NC3 6491  13.604  16.001   9.455
 5805POPC   PO4 6492  13.596  15.950   9.155
 5805POPC   GL1 6493  13.649  15.932   8.855
 5805POPC   GL2 6494  13.766  15.911   8.855
 5805POPC   C1A 6495  13.593  15.964   8.555
 5805POPC   D2A 6496  13.617  15.970   8.255
 5805POPC   C3A 6497  13.597  15.978   7.955
 5805POPC   C4A 6498  13.580  15.958   7.655
 5805POPC   C1B 6499  13.901  15.933   8.555
 5805POPC   C2B 6500  13.875  15.912   8.255
 5805POPC   C3B 6501  13.877  15.894   7.955
 5805POPC   C4B 6502  13.914  15.882   7.655
 5806POPC   NC3 6503  10.513  11.284   9.455
 5806POPC   PO4 6504  10.563  11.298   9.155
 5806POPC   GL1 6505  10.548  11.342   8.855
 5806POPC   GL2 6506  10.600  11.389   8.855
 5806POPC   C1A 6507  10.475  11.272   8.555
 5806POPC   D2A 6508  10.533  11.268   8.255
 5806POPC   C3A 6509  10.537  11.289   7.955
 5806POPC   C4A 6510  10.573  11.341   7.655
 5806POPC   C1B 6511  10.548  11.587   8.555
 5806POPC   C2B 6512  10.553  11.586   8.255
 5806POPC   C3B 6513  10.567  11.551   7.955
 5806POPC   C4B 6514  10.622  11.506   7.655
 5807POPC   NC3 6515  42.323  23.701   9.455
 5807POPC   PO4 6516  42.322  23.761   9.155
 5807POPC   GL1 6517  42.287  23.753   8.855
 5807POPC   GL2 6518  42.247  23.643   8.855
 5807POPC   C1A 6519  42.286  23.716   8.555
 5807POPC   D2A 6520  42.346  23.725   8.255
 5807POPC   C3A 6521  42.331  23.744   7.955
 5807POPC   C4A 6522  42.351  23.725   7.655
 5807POPC   C1B 6523  42.173  23.518   8.555
 5807POPC   C2B 6524  42.198  23.491   8.255
 5807POPC   C3B 6525  42.154  23.461   7.955
 5807POPC   C4B 6526  42.230  23.513   7.655
 5808POPC   NC3 6527   8.179  16.766   9.455
 5808POPC   PO4 6528   8.177  16.750   9.155
 5808POPC   GL1 6529   8.209  16.778   8.855
 5808POPC   GL2 6530   8.206  16.621   8.855
 5808POPC   C1A 6531   8.160  16.753   8.555
 5808POPC   D2A 6532   8.173  16.691   8.255
 5808POPC   C3A 6533   8.241  16.760   7.955
 5808POPC   C4A 6534   8.179  16.758   7.655
 5808POPC   C1B 6535   8.152  16.513   8.555
 5808POPC   C2B 6536   8.215  16.506   8.255
 5808POPC   C3B 6537   8.175  16.482   7.955
 5808POPC   C4B 6538   8.212  16.455   7.655
 5809POPC   NC3 6539  41.521  36.907   9.455
 5809POPC   PO4 6540  41.510  36.934   9.155
 5809POPC   GL1 6541  41.602  36.870   8.855
 5809POPC   GL2 6542  41.673  37.025   8.855
 5809POPC   C1A 6543  41.577  36.856   8.555
 5809POPC   D2A 6544  41.534  36.876   8.255
 5809POPC   C3A 6545  41.596  36.952   7.955
 5809POPC   C4A 6546  41.589  36.918   7.655
 5809POPC   C1B 6547  41.744  37.099   8.555
 5809POPC   C2B 6548  41.746  37.052   8.255
 5809POPC   C3B 6549  41.698  37.070   7.955
 5809POPC   C4B 6550  41.772  37.089   7.655
 5810POPC   NC3 6551  11.290  12.817   9.455
 5810POPC   PO4 6552  11.305  12.894   9.155
 5810POPC   GL1 6553  11.276  12.822   8.855
 5810POPC   GL2 6554  11.181  12.926   8.855
 5810POPC   C1A 6555  11.259  12.850   8.555
 5810POPC   D2A 6556  11.314  12.846   8.255
 5810POPC   C3A 6557  11.263  12.827   7.955
 5810POPC   C4A 6558  11.255  12.810   7.655
 5810POPC   C1B 6559  11.112  13.043   8.555
 5810POPC   C2B 6560  11.180  13.025   8.255
 5810POPC   C3B 6561  11.136  13.042   7.955
 5810POPC   C4B 6562  11.124  13.052   7.655
 5811POPC   NC3 6563  12.110   1.178   9.455
 5811POPC   PO4 6564  12.054   1.182   9.155
 5811POPC   GL1 6565  12.046   1.166   8.855
 5811POPC   GL2 6566  12.177   1.157   8.855
 5811POPC   C1A 6567  12.036   1.170   8.555
 5811POPC   D2A 6568  12.070   1.226   8.255
 5811POPC   C3A 6569  12.092   1.264   7.955
 5811POPC   C4A 6570  12.071   1.206   7.655
 5811POPC   C1B 6571  12.254   1.015   8.555
 5811POPC   C2B 6572  12.216   0.971   8.255
 5811POPC   C3B 6573  12.242   1.006   7.955
 5811POPC   C4B 6574  12.193   0.967   7.655
 5812POPC   NC3 6575  34.550   5.113   9.455
 5812POPC   PO4 6576  34.544   5.063   9.155
 5812POPC   GL1 6577  34.572   5.116   8.855
 5812POPC   GL2 6578  34.592   5.196   8.855
 5812POPC   C1A 6579  34.620   5.117   8.555
 5812POPC   D2A 6580  34.551   5.053   8.255
 5812POPC   C3A 6581  34.608   5.124   7.955
 5812POPC   C4A 6582  34.621   5.100   7.655
 5812POPC   C1B 6583  34.599   5.303   8.555
 5812POPC   C2B 6584  34.606   5.295   8.255
 5812POPC   C3B 6585  34.513   5.347   7.955
 5812POPC   C4B 6586  34.531   5.342   7.655
 5813POPC   NC3 6587   9.009  12.033   9.455
 5813POPC   PO4 6588   8.957  12.118   9.155
 5813POPC   GL1 6589   9.006  12.104   8.855
 5813POPC   GL2 6590   8.975  12.185   8.855
 5813POPC   C1A 6591   8.953  12.051   8.555
 5813POPC   D2A 6592   8.967  12.067   8.255
 5813POPC   C3A 6593   8.961  12.086   7.955
 5813POPC   C4A 6594   8.992  12.112   7.655
 5813POPC   C1B 6595   8.995  12.354   8.555
 5813POPC   C2B 6596   8.916  12.302   8.255
 5813POPC   C3B 6597   8.928  12.297   7.955
 5813POPC   C4B 6598   8.967  12.300   7.655
 5814POPC   NC3 6599   5.827  17.485   9.455
 5814POPC   PO4 6600   5.858  17.503   9.155
 5814POPC   GL1 6601   5.820  17.526   8.855
 5814POPC   GL2 6602   5.782  17.441   8.855
 5814POPC   C1A 6603   5.879  17.489   8.555
 5814POPC   D2A 6604   5.896  17.522   8.255
 5814POPC   C3A 6605   5.916  17.476   7.955
 5814POPC   C4A 6606   5.855  17.483   7.655
 5814POPC   C1B 6607   5.580  17.459   8.555
 5814POPC   C2B 6608   5.651  17.460   8.255
 5814POPC   C3B 6609   5.677  17.391   7.955
 5814POPC   C4B 6610   5.653  17.396   7.655
 5815POPC   NC3 6611  14.448  14.410   9.455
 5815POPC   PO4 6612  14.445  14.440   9.155
 5815POPC   GL1 6613  14.388  14.390   8.855
 5815POPC   GL2 6614  14.419  14.504   8.855
 5815POPC   C1A 6615  14.428  14.369   8.555
 5815POPC   D2A 6616  14.425  14.415   8.255
 5815POPC   C3A 6617  14.380  14.450   7.955
 5815POPC   C4A 6618  14.392  14.397   7.655
 5815POPC   C1B 6619  14.482  14.680   8.555
 5815POPC   C2B 6620  14.517  14.677   8.255
 5815POPC   C3B 6621  14.505  14.640   7.955
 5815POPC   C4B 6622  14.473  14.643   7.655
 5816POPC   NC3 6623  14.407  33.000   9.455
 5816POPC   PO4 6624  14.427  33.044   9.155
 5816POPC   GL1 6625  14.439  33.056   8.855
 5816POPC   GL2 6626  14.265  33.040   8.855
 5816POPC   C1A 6627  14.434  33.011   8.555
 5816POPC   D2A 6628  14.444  32.986   8.255
 5816POPC   C3A 6629  14.408  32.980   7.955
 5816POPC   C4A 6630  14.382  32.983   7.655
 5816POPC   C1B 6631  14.165  32.958   8.555
 5816POPC   C2B 6632  14.124  32.997   8.255
 5816POPC   C3B 6633  14.119  33.001   7.955
 5816POPC   C4B 6634  14.127  32.970   7.655
 5817POPC   NC3 6635  31.474  43.104   9.455
 5817POPC   PO4 6636  31.442  43.123   9.155
 5817POPC   GL1 6637  31.437  43.102   8.855
 5817POPC   GL2 6638  31.479  43.199   8.855
 5817POPC   C1A 6639  31.449  43.096   8.555
 5817POPC   D2A 6640  31.455  43.096   8.255
 5817POPC   C3A 6641  31.453  43.137   7.955
 5817POPC   C4A 6642  31.496  43.122   7.655
 5817POPC   C1B 6643  31.447  43.341   8.555
 5817POPC   C2B 6644  31.514  43.370   8.255
 5817POPC   C3B 6645  31.434  43.324   7.955
 5817POPC   C4B 6646  31.441  43.331   7.655
 5818POPC   NC3 6647   6.654  12.086   9.455
 5818POPC   PO4 6648   6.666  12.115   9.155
 5818POPC   GL1 6649   6.604  12.101   8.855
 5818POPC   GL2 6650   6.497  12.095   8.855
 5818POPC   C1A 6651   6.654  12.106   8.555
 5818POPC   D2A 6652   6.686  12.052   8.255
 5818POPC   C3A 6653   6.642  12.099   7.955
 5818POPC   C4A 6654   6.631  12.115   7.655
 5818POPC   C1B 6655   6.354  12.169   8.555
 5818POPC   C2B 6656   6.434  12.084   8.255
 5818POPC   C3B 6657   6.365  12.159   7.955
 5818POPC   C4B 6658   6.410  12.162   7.655
 5819POPC   NC3 6659   4.364   3.554   9.455
 5819POPC   PO4 6660   4.274   3.565   9.155
 5819POPC   GL1 6661   4.296   3.572   8.855
 5819POPC   GL2 6662   4.233   3.609   8.855
 5819POPC   C1A 6663   4.343   3.525   8.555
 5819POPC   D2A 6664   4.290   3.557   8.255
 5819POPC   C3A 6665   4.321   3.529   7.955
 5819POPC   C4A 6666   4.312   3.591   7.655
 5819POPC   C1B 6667   4.140   3.660   8.555
 5819POPC   C2B 6668   4.160   3.740   8.255
 5819POPC   C3B 6669   4.175   3.701   7.955
 5819POPC   C4B 6670   4.119   3.729   7.655
 5820POPC   NC3 6671  34.577  10.523   9.455
 5820POPC   PO4 6672  34.560  10.503   9.155
 5820POPC   GL1 6673  34.562  10.551   8.855
 5820POPC   GL2 6674  34.613  10.661   8.855
 5820POPC   C1A 6675  34.532  10.500   8.555
 5820POPC   D2A 6676  34.534  10.538   8.255
 5820POPC   C3A 6677  34.604  10.509   7.955
 5820POPC   C4A 6678  34.530  10.559   7.655
 5820POPC   C1B 6679  34.719  10.760   8.555
 5820POPC   C2B 6680  34.698  10.710   8.255
 5820POPC   C3B 6681  34.650  10.713   7.955
 5820POPC   C4B 6682  34.718  10.729   7.655
 5821POPC   NC3 6683  36.080  11.312   9.455
 5821POPC   PO4 6684  36.092  11.323   9.155
 5821POPC   GL1 6685  36.094  11.326   8.855
 5821POPC   GL2 6686  36.218  11.322   8.855
 5821POPC   C1A 6687  36.129  11.307   8.555
 5821POPC   D2A 6688  36.080  11.258   8.255
 5821POPC   C3A 6689  36.116  11.295   7.955
 5821POPC   C4A 6690  36.089  11.319   7.655
 5821POPC   C1B 6691  36.340  11.419   8.555
 5821POPC   C2B 6692  36.327  11.343   8.255
 5821POPC   C3B 6693  36.392  11.362   7.955
 5821POPC   C4B 6694  36.379  11.366   7.655
 5822POPC   NC3 6695  14.450   0.432   9.455
 5822POPC   PO4 6696  14.380   0.453   9.155
 5822POPC   GL1 6697  14.384   0.433   8.855
 5822POPC   GL2 6698  14.554   0.409   8.855
 5822POPC   C1A 6699  14.362   0.453   8.555
 5822POPC   D2A 6700  14.361   0.461   8.255
 5822POPC   C3A 6701  14.408   0.451   7.955
 5822POPC   C4A 6702  14.377   0.393   7.655
 5822POPC   C1B 6703  14.640   0.342   8.555
 5822POPC   C2B 6704  14.671   0.346   8.255
 5822POPC   C3B 6705  14.689   0.364   7.955
 5822POPC   C4B 6706  14.690   0.379   7.655
 5823POPC   NC3 6707   5.879  40.036   9.455
 5823POPC   PO4 6708   5.852  39.968   9.155
 5823POPC   GL1 6709   5.916  40.035   8.855
 5823POPC   GL2 6710   5.882  39.855   8.855
 5823POPC   C1A 6711   5.845  40.042   8.555
 5823POPC   D2A 6712   5.854  39.999   8.255
 5823POPC   C3A 6713   5.860  39.991   7.955
 5823POPC   C4A 6714   5.881  40.030   7.655
 5823POPC   C1B 6715   5.992  39.767   8.555
 5823POPC   C2B 6716   5.983  39.731   8.255
 5823POPC   C3B 6717   5.972  39.802   7.955
 5823POPC   C4B 6718   6.004  39.794   7.655
 5824POPC   NC3 6719  28.322   2.787   9.455
 5824POPC   PO4 6720  28.336   2.789   9.155
 5824POPC   GL1 6721  28.325   2.718   8.855
 5824POPC   GL2 6722  28.320   2.925   8.855
 5824POPC   C1A 6723  28.392   2.730   8.555
 5824POPC   D2A 6724  28.357   2.749   8.255
 5824POPC   C3A 6725  28.328   2.784   7.955
 5824POPC   C4A 6726  28.339   2.776   7.655
 5824POPC   C1B 6727  28.300   3.002   8.555
 5824POPC   C2B 6728  28.320   2.971   8.255
 5824POPC   C3B 6729  28.273   2.996   7.955
 5824POPC   C4B 6730  28.244   2.995   7.655
 5825POPC   NC3 6731  21.422  27.578   9.455
 5825POPC   PO4 6732  21.414  27.587   9.155
 5825POPC   GL1 6733  21.434  27.628   8.855
 5825POPC   GL2 6734  21.305  27.565   8.855
 5825POPC   C1A 6735  21.402  27.639   8.555
 5825POPC   D2A 6736  21.422  27.595   8.255
 5825POPC   C3A 6737  21.341  27.604   7.955
 5825POPC   C4A 6738  21.390  27.581   7.655
 5825POPC   C1B 6739  21.139  27.430   8.555
 5825POPC   C2B 6740  21.187  27.461   8.255
 5825POPC   C3B 6741  21.158  27.437   7.955
 5825POPC   C4B 6742  21.214  27.446   7.655
 5826POPC   NC3 6743  41.524  22.185   9.455
 5826POPC   PO4 6744  41.600  22.193   9.155
 5826POPC   GL1 6745  41.592  22.201   8.855
 5826POPC   GL2 6746  41.629  22.264   8.855
 5826POPC   C1A 6747  41.589  22.162   8.555
 5826POPC   D2A 6748  41.595  22.200   8.255
 5826POPC   C3A 6749  41.557  22.138   7.955
 5826POPC   C4A 6750  41.545  22.171   7.655
 5826POPC   C1B 6751  41.692  22.362   8.555
 5826POPC   C2B 6752  41.676  22.368   8.255
 5826POPC   C3B 6753  41.730  22.348   7.955
 5826POPC   C4B 6754  41.687  22.353   7.655
 5827POPC   NC3 6755  23.724  32.280   9.455
 5827POPC   PO4 6756  23.725  32.207   9.155
 5827POPC   GL1 6757  23.726  32.297   8.855
 5827POPC   GL2 6758  23.636  32.351   8.855
 5827POPC   C1A 6759  23.715  32.253   8.555
 5827POPC   D2A 6760  23.670  32.251   8.255
 5827POPC   C3A 6761  23.676  32.246   7.955
 5827POPC   C4A 6762  23.727  32.198   7.655
 5827POPC   C1B 6763  23.631  32.493   8.555
 5827POPC   C2B 6764  23.583  32.485   8.255
 5827POPC   C3B 6765  23.598  32.522   7.955
 5827POPC   C4B 6766  23.574  32.499   7.655
 5828POPC   NC3 6767  10.565  12.100   9.455
 5828POPC   PO4 6768  10.513  12.079   9.155
 5828POPC   GL1 6769  10.517  12.067   8.855
 5828POPC   GL2 6770  10.525  11.929   8.855
 5828POPC   C1A 6771  10.484  12.106   8.555
 5828POPC   D2A 6772  10.527  12.082   8.255
 5828POPC   C3A 6773  10.532  12.042   7.955
 5828POPC   C4A 6774  10.503  12.055   7.655
 5828POPC   C1B 6775  10.574  11.810   8.555
 5828POPC   C2B 6776  10.617  11.854   8.255
 5828POPC   C3B 6777  10.573  11.795   7.955
 5828POPC   C4B 6778  10.584  11.799   7.655
 5829POPC   NC3 6779  24.533  14.414   9.455
 5829POPC   PO4 6780  24.503  14.371   9.155
 5829POPC   GL1 6781  24.444  14.449   8.855
 5829POPC   GL2 6782  24.394  14.365   8.855
 5829POPC   C1A 6783  24.459  14.375   8.555
 5829POPC   D2A 6784  24.493  14.399   8.255
 5829POPC   C3A 6785  24.473  14.426   7.955
 5829POPC   C4A 6786  24.446  14.439   7.655
 5829POPC   C1B 6787  24.244  14.231   8.555
 5829POPC   C2B 6788  24.312  14.279   8.255
 5829POPC   C3B 6789  24.303  14.247   7.955
 5829POPC   C4B 6790  24.249  14.304   7.655
 5830POPC   NC3 6791  32.273   3.526   9.455
 5830POPC   PO4 6792  32.239   3.541   9.155
 5830POPC   GL1 6793  32.231   3.591   8.855
 5830POPC   GL2 6794  32.315   3.617   8.855
 5830POPC   C1A 6795  32.215   3.539   8.555
 5830POPC   D2A 6796  32.273   3.577   8.255
 5830POPC   C3A 6797  32.200   3.518   7.955
 5830POPC   C4A 6798  32.273   3.567   7.655
 5830POPC   C1B 6799  32.429   3.726   8.555
 5830POPC   C2B 6800  32.444   3.766   8.255
 5830POPC   C3B 6801  32.418   3.757   7.955
 5830POPC   C4B 6802  32.408   3.730   7.655
 5831POPC   NC3 6803  25.249   5.833   9.455
 5831POPC   PO4 6804  25.308   5.895   9.155
 5831POPC   GL1 6805  25.277   5.872   8.855
 5831POPC   GL2 6806  25.372   5.912   8.855
 5831POPC   C1A 6807  25.231   5.890   8.555
 5831POPC   D2A 6808  25.225   5.912   8.255
 5831POPC   C3A 6809  25.252   5.904   7.955
 5831POPC   C4A 6810  25.315   5.847   7.655
 5831POPC   C1B 6811  25.498   6.001   8.555
 5831POPC   C2B 6812  25.481   5.987   8.255
 5831POPC   C3B 6813  25.431   5.978   7.955
 5831POPC   C4B 6814  25.513   6.010   7.655
 5832POPC   NC3 6815   9.699  29.919   9.455
 5832POPC   PO4 6816   9.798  29.890   9.155
 5832POPC   GL1 6817   9.755  29.928   8.855
 5832POPC   GL2 6818   9.577  29.875   8.855
 5832POPC   C1A 6819   9.772  29.881   8.555
 5832POPC   D2A 6820   9.718  29.949   8.255
 5832POPC   C3A 6821   9.722  29.962   7.955
 5832POPC   C4A 6822   9.725  29.934   7.655
 5832POPC   C1B 6823   9.508  29.903   8.555
 5832POPC   C2B 6824   9.532  29.926   8.255
 5832POPC   C3B 6825   9.537  29.968   7.955
 5832POPC   C4B 6826   9.546  29.907   7.655
 5833POPC   NC3 6827  20.612  36.085   9.455
 5833POPC   PO4 6828  20.651  36.136   9.155
 5833POPC   GL1 6829  20.655  36.102   8.855
 5833POPC   GL2 6830  20.740  36.143   8.855
 5833POPC   C1A 6831  20.649  36.092   8.555
 5833POPC   D2A 6832  20.606  36.115   8.255
 5833POPC   C3A 6833  20.570  36.153   7.955
 5833POPC   C4A 6834  20.641  36.171   7.655
 5833POPC   C1B 6835  20.873  36.174   8.555
 5833POPC   C2B 6836  20.880  36.118   8.255
 5833POPC   C3B 6837  20.822  36.195   7.955
 5833POPC   C4B 6838  20.845  36.129   7.655
 5834POPC   NC3 6839  35.316  42.379   9.455
 5834POPC   PO4 6840  35.324  42.312   9.155
 5834POPC   GL1 6841  35.304  42.316   8.855
 5834POPC   GL2 6842  35.364  42.420   8.855
 5834POPC   C1A 6843  35.393  42.289   8.555
 5834POPC   D2A 6844  35.360  42.321   8.255
 5834POPC   C3A 6845  35.325  42.383   7.955
 5834POPC   C4A 6846  35.381  42.370   7.655
 5834POPC   C1B 6847  35.330  42.619   8.555
 5834POPC   C2B 6848  35.318  42.615   8.255
 5834POPC   C3B 6849  35.357  42.599   7.955
 5834POPC   C4B 6850  35.325  42.629   7.655
 5835POPC   NC3 6851   9.749  15.953   9.455
 5835POPC   PO4 6852   9.744  15.965   9.155
 5835POPC   GL1 6853   9.699  15.985   8.855
 5835POPC   GL2 6854   9.690  16.090   8.855
 5835POPC   C1A 6855   9.790  15.907   8.555
 5835POPC   D2A 6856   9.713  16.000   8.255
 5835POPC   C3A 6857   9.795  15.964   7.955
 5835POPC   C4A 6858   9.791  15.957   7.655
 5835POPC   C1B 6859   9.658  16.144   8.555
 5835POPC   C2B 6860   9.690  16.216   8.255
 5835POPC   C3B 6861   9.620  16.148   7.955
 5835POPC   C4B 6862   9.659  16.161   7.655
 5836POPC   NC3 6863  18.279   2.006   9.455
 5836POPC   PO4 6864  18.252   2.036   9.155
 5836POPC   GL1 6865  18.234   2.022   8.855
 5836POPC   GL2 6866  18.216   1.954   8.855
 5836POPC   C1A 6867  18.241   1.955   8.555
 5836POPC   D2A 6868  18.317   1.942   8.255
 5836POPC   C3A 6869  18.320   2.015   7.955
 5836POPC   C4A 6870  18.333   1.976   7.655
 5836POPC   C1B 6871  18.113   1.878   8.555
 5836POPC   C2B 6872  18.105   1.857   8.255
 5836POPC   C3B 6873  18.060   1.807   7.955
 5836POPC   C4B 6874  18.047   1.899   7.655
 5837POPC   NC3 6875   6.630  16.690   9.455
 5837POPC   PO4 6876   6.597  16.737   9.155
 5837POPC   GL1 6877   6.683  16.755   8.855
 5837POPC   GL2 6878   6.782  16.768   8.855
 5837POPC   C1A 6879   6.625  16.717   8.555
 5837POPC   D2A 6880   6.616  16.691   8.255
 5837POPC   C3A 6881   6.693  16.686   7.955
 5837POPC   C4A 6882   6.666  16.740   7.655
 5837POPC   C1B 6883   6.898  16.865   8.555
 5837POPC   C2B 6884   6.925  16.780   8.255
 5837POPC   C3B 6885   6.883  16.773   7.955
 5837POPC   C4B 6886   6.914  16.783   7.655
 5838POPC   NC3 6887  12.860  15.199   9.455
 5838POPC   PO4 6888  12.864  15.205   9.155
 5838POPC   GL1 6889  12.856  15.209   8.855
 5838POPC   GL2 6890  12.777  15.068   8.855
 5838POPC   C1A 6891  12.821  15.198   8.555
 5838POPC   D2A 6892  12.883  15.168   8.255
 5838POPC   C3A 6893  12.864  15.172   7.955
 5838POPC   C4A 6894  12.835  15.218   7.655
 5838POPC   C1B 6895  12.652  15.031   8.555
 5838POPC   C2B 6896  12.592  15.093   8.255
 5838POPC   C3B 6897  12.680  15.002   7.955
 5838POPC   C4B 6898  12.647  15.010   7.655
 5839POPC   NC3 6899  39.265  41.536   9.455
 5839POPC   PO4 6900  39.240  41.585   9.155
 5839POPC   GL1 6901  39.210  41.530   8.855
 5839POPC   GL2 6902  39.253  41.423   8.855
 5839POPC   C1A 6903  39.279  41.565   8.555
 5839POPC   D2A 6904  39.227  41.520   8.255
 5839POPC   C3A 6905  39.276  41.558   7.955
 5839POPC   C4A 6906  39.208  41.529   7.655
 5839POPC   C1B 6907  39.244  41.260   8.555
 5839POPC   C2B 6908  39.198  41.322   8.255
 5839POPC   C3B 6909  39.208  41.359   7.955
 5839POPC   C4B 6910  39.160  41.288   7.655
 5840POPC   NC3 6911  29.960   4.359   9.455
 5840POPC   PO4 6912  29.878   4.358   9.155
 5840POPC   GL1 6913  29.902   4.362   8.855
 5840POPC   GL2 6914  30.046   4.241   8.855
 5840POPC   C1A 6915  29.927   4.313   8.555
 5840POPC   D2A 6916  29.905   4.344   8.255
 5840POPC   C3A 6917  29.953   4.318   7.955
 5840POPC   C4A 6918  29.939   4.364   7.655
 5840POPC   C1B 6919  30.186   4.290   8.555
 5840POPC   C2B 6920  30.156   4.221   8.255
 5840POPC   C3B 6921  30.171   4.295   7.955
 5840POPC   C4B 6922  30.206   4.246   7.655
 5841POPC   NC3 6923   1.253  22.202   9.455
 5841POPC   PO4 6924   1.205  22.206   9.155
 5841POPC   GL1 6925   1.230  22.160   8.855
 5841POPC   GL2 6926   1.279  22.269   8.855
 5841POPC   C1A 6927   1.200  22.205   8.555
 5841POPC   D2A 6928   1.249  22.192   8.255
 5841POPC   C3A 6929   1.193  22.144   7.955
 5841POPC   C4A 6930   1.186  22.156   7.655
 5841POPC   C1B 6931   1.396  22.322   8.555
 5841POPC   C2B 6932   1.349  22.410   8.255
 5841POPC   C3B 6933   1.390  22.387   7.955
 5841POPC   C4B 6934   1.328  22.330   7.655
 5842POPC   NC3 6935   0.456  27.617   9.455
 5842POPC   PO4 6936   0.412  27.602   9.155
 5842POPC   GL1 6937   0.404  27.633   8.855
 5842POPC   GL2 6938   0.400  27.521   8.855
 5842POPC   C1A 6939   0.446  27.609   8.555
 5842POPC   D2A 6940   0.448  27.600   8.255
 5842POPC   C3A 6941   0.429  27.595   7.955
 5842POPC   C4A 6942   0.418  27.554   7.655
 5842POPC   C1B 6943   0.349  27.326   8.555
 5842POPC   C2B 6944   0.333  27.388   8.255
 5842POPC   C3B 6945   0.352  27.380   7.955
 5842POPC   C4B 6946   0.312  27.374   7.655
 5843POPC   NC3 6947  10.505  15.940   9.455
 5843POPC   PO4 6948  10.554  15.930   9.155
 5843POPC   GL1 6949  10.499  15.960   8.855
 5843POPC   GL2 6950  10.516  15.810   8.855
 5843POPC   C1A 6951  10.520  15.964   8.555
 5843POPC   D2A 6952  10.541  15.930   8.255
 5843POPC   C3A 6953  10.517  15.940   7.955
 5843POPC   C4A 6954  10.529  15.992   7.655
 5843POPC   C1B 6955  10.622  15.737   8.555
 5843POPC   C2B 6956  10.569  15.710   8.255
 5843POPC   C3B 6957  10.541  15.668   7.955
 5843POPC   C4B 6958  10.606  15.668   7.655
 5844POPC   NC3 6959  36.145   5.099   9.455
 5844POPC   PO4 6960  36.166   5.142   9.155
 5844POPC   GL1 6961  36.114   5.110   8.855
 5844POPC   GL2 6962  36.146   4.969   8.855
 5844POPC   C1A 6963  36.137   5.112   8.555
 5844POPC   D2A 6964  36.090   5.049   8.255
 5844POPC   C3A 6965  36.170   5.071   7.955
 5844POPC   C4A 6966  36.169   5.119   7.655
 5844POPC   C1B 6967  36.192   4.842   8.555
 5844POPC   C2B 6968  36.154   4.816   8.255
 5844POPC   C3B 6969  36.205   4.882   7.955
 5844POPC   C4B 6970  36.211   4.861   7.655
 5845POPC   NC3 6971  42.375   3.547   9.455
 5845POPC   PO4 6972  42.363   3.517   9.155
 5845POPC   GL1 6973  42.380   3.535   8.855
 5845POPC   GL2 6974  42.329   3.385   8.855
 5845POPC   C1A 6975  42.381   3.533   8.555
 5845POPC   D2A 6976  42.359   3.581   8.255
 5845POPC   C3A 6977  42.373   3.493   7.955
 5845POPC   C4A 6978  42.335   3.574   7.655
 5845POPC   C1B 6979  42.190   3.307   8.555
 5845POPC   C2B 6980  42.257   3.304   8.255
 5845POPC   C3B 6981  42.237   3.291   7.955
 5845POPC   C4B 6982  42.187   3.342   7.655
 5846POPC   NC3 6983   7.456  43.919   9.455
 5846POPC   PO4 6984   7.433  43.906   9.155
 5846POPC   GL1 6985   7.452  43.854   8.855
 5846POPC   GL2 6986   7.292  43.936   8.855
 5846POPC   C1A 6987   7.420  43.846   8.555
 5846POPC   D2A 6988   7.455  43.934   8.255
 5846POPC   C3A 6989   7.375  43.874   7.955
 5846POPC   C4A 6990   7.469  43.871   7.655
 5846POPC   C1B 6991   7.299  44.116   8.555
 5846POPC   C2B 6992   7.220  44.088   8.255
 5846POPC   C3B 6993   7.256  44.061   7.955
 5846POPC   C4B 6994   7.296  44.100   7.655
 5847POPC   NC3 6995   1.199  32.272   9.455
 5847POPC   PO4 6996   1.197  32.285   9.155
 5847POPC   GL1 6997   1.180  32.255   8.855
 5847POPC   GL2 6998   1.345  32.260   8.855
 5847POPC   C1A 6999   1.247  32.210   8.555
 5847POPC   D2A 7000   1.168  32.271   8.255
 5847POPC   C3A 7001   1.255  32.288   7.955
 5847POPC   C4A 7002   1.167  32.273   7.655
 5847POPC   C1B 7003   1.453  32.307   8.555
 5847POPC   C2B 7004   1.474  32.329   8.255
 5847POPC   C3B 7005   1.418  32.307   7.955
 5847POPC   C4B 7006   1.431  32.365   7.655
 5848POPC   NC3 7007  37.652   7.449   9.455
 5848POPC   PO4 7008  37.720   7.409   9.155
 5848POPC   GL1 7009  37.725   7.409   8.855
 5848POPC   GL2 7010  37.786   7.398   8.855
 5848POPC   C1A 7011  37.668   7.462   8.555
 5848POPC   D2A 7012  37.634   7.409   8.255
 5848POPC   C3A 7013  37.644   7.462   7.955
 5848POPC   C4A 7014  37.657   7.436   7.655
 5848POPC   C1B 7015  37.885   7.428   8.555
 5848POPC   C2B 7016  37.910   7.467   8.255
 5848POPC   C3B 7017  37.931   7.453   7.955
 5848POPC   C4B 7018  37.914   7.518   7.655
 5849POPC   NC3 7019  17.555  29.921   9.455
 5849POPC   PO4 7020  17.546  29.931   9.155
 5849POPC   GL1 7021  17.548  29.873   8.855
 5849POPC   GL2 7022  17.504  30.059   8.855
 5849POPC   C1A 7023  17.467  29.894   8.555
 5849POPC   D2A 7024  17.544  29.883   8.255
 5849POPC   C3A 7025  17.487  29.907   7.955
 5849POPC   C4A 7026  17.519  29.946   7.655
 5849POPC   C1B 7027  17.389  30.121   8.555
 5849POPC   C2B 7028  17.457  30.144   8.255
 5849POPC   C3B 7029  17.361  30.200   7.955
 5849POPC   C4B 7030  17.436  30.163   7.655
 5850POPC   NC3 7031  32.239  30.713   9.455
 5850POPC   PO4 7032  32.229  30.734   9.155
 5850POPC   GL1 7033  32.270  30.696   8.855
 5850POPC   GL2 7034  32.206  30.559   8.855
 5850POPC   C1A 7035  32.254  30.652   8.555
 5850POPC   D2A 7036  32.223  30.742   8.255
 5850POPC   C3A 7037  32.270  30.733   7.955
 5850POPC   C4A 7038  32.230  30.710   7.655
 5850POPC   C1B 7039  32.100  30.422   8.555
 5850POPC   C2B 7040  32.140  30.468   8.255
 5850POPC   C3B 7041  32.124  30.481   7.955
 5850POPC   C4B 7042  32.169  30.447   7.655
 5851POPC   NC3 7043  10.570  43.156   9.455
 5851POPC   PO4 7044  10.534  43.067   9.155
 5851POPC   GL1 7045  10.492  43.062   8.855
 5851POPC   GL2 7046  10.567  43.239   8.855
 5851POPC   C1A 7047  10.495  43.136   8.555
 5851POPC   D2A 7048  10.492  43.159   8.255
 5851POPC   C3A 7049  10.491  43.076   7.955
 5851POPC   C4A 7050  10.526  43.131   7.655
 5851POPC   C1B 7051  10.565  43.314   8.555
 5851POPC   C2B 7052  10.571  43.393   8.255
 5851POPC   C3B 7053  10.600  43.306   7.955
 5851POPC   C4B 7054  10.581  43.390   7.655
 5852POPC   NC3 7055  29.895   9.703   9.455
 5852POPC   PO4 7056  29.965   9.735   9.155
 5852POPC   GL1 7057  29.877   9.731   8.855
 5852POPC   GL2 7058  30.058   9.748   8.855
 5852POPC   C1A 7059  29.944   9.741   8.555
 5852POPC   D2A 7060  29.880   9.736   8.255
 5852POPC   C3A 7061  29.894   9.731   7.955
 5852POPC   C4A 7062  29.909   9.711   7.655
 5852POPC   C1B 7063  30.140   9.862   8.555
 5852POPC   C2B 7064  30.166   9.840   8.255
 5852POPC   C3B 7065  30.194   9.798   7.955
 5852POPC   C4B 7066  30.149   9.778   7.655
 5853POPC   NC3 7067   1.235  18.314   9.455
 5853POPC   PO4 7068   1.181  18.332   9.155
 5853POPC   GL1 7069   1.259  18.297   8.855
 5853POPC   GL2 7070   1.173  18.119   8.855
 5853POPC   C1A 7071   1.195  18.304   8.555
 5853POPC   D2A 7072   1.248  18.257   8.255
 5853POPC   C3A 7073   1.235  18.312   7.955
 5853POPC   C4A 7074   1.240  18.314   7.655
 5853POPC   C1B 7075   1.141  18.010   8.555
 5853POPC   C2B 7076   1.121  18.082   8.255
 5853POPC   C3B 7077   1.184  18.041   7.955
 5853POPC   C4B 7078   1.153  18.017   7.655
 5854POPC   NC3 7079  12.056  38.407   9.455
 5854POPC   PO4 7080  12.062  38.482   9.155
 5854POPC   GL1 7081  12.069  38.437   8.855
 5854POPC   GL2 7082  12.153  38.601   8.855
 5854POPC   C1A 7083  12.095  38.501   8.555
 5854POPC   D2A 7084  12.067  38.448   8.255
 5854POPC   C3A 7085  12.030  38.460   7.955
 5854POPC   C4A 7086  12.028  38.460   7.655
 5854POPC   C1B 7087  12.177  38.619   8.555
 5854POPC   C2B 7088  12.212  38.613   8.255
 5854POPC   C3B 7089  12.204  38.627   7.955
 5854POPC   C4B 7090  12.209  38.693   7.655
 5855POPC   NC3 7091  38.455  33.839   9.455
 5855POPC   PO4 7092  38.424  33.844   9.155
 5855POPC   GL1 7093  38.486  33.760   8.855
 5855POPC   GL2 7094  38.392  33.825   8.855
 5855POPC   C1A 7095  38.477  33.797   8.555
 5855POPC   D2A 7096  38.437  33.777   8.255
 5855POPC   C3A 7097  38.475  33.818   7.955
 5855POPC   C4A 7098  38.459  33.792   7.655
 5855POPC   C1B 7099  38.203  33.861   8.555
 5855POPC   C2B 7100  38.206  33.866   8.255
 5855POPC   C3B 7101  38.243  33.866   7.955
 5855POPC   C4B 7102  38.193  33.940   7.655
 5856POPC   NC3 7103  32.248  43.137   9.455
 5856POPC   PO4 7104  32.290  43.092   9.155
 5856POPC   GL1 7105  32.288  43.146   8.855
 5856POPC   GL2 7106  32.116  43.038   8.855
 5856POPC   C1A 7107  32.236  43.157   8.555
 5856POPC   D2A 7108  32.202  43.134   8.255
 5856POPC   C3A 7109  32.229  43.126   7.955
 5856POPC   C4A 7110  32.278  43.103   7.655
 5856POPC   C1B 7111  31.998  43.000   8.555
 5856POPC   C2B 7112  32.056  43.074   8.255
 5856POPC   C3B 7113  31.991  43.026   7.955
 5856POPC   C4B 7114  32.021  43.016   7.655
 5857POPC   NC3 7115  39.200  36.131   9.455
 5857POPC   PO4 7116  39.273  36.097   9.155
 5857POPC   GL1 7117  39.254  36.125   8.855
 5857POPC   GL2 7118  39.342  36.219   8.855
 5857POPC   C1A 7119  39.248  36.126   8.555
 5857POPC   D2A 7120  39.207  36.153   8.255
 5857POPC   C3A 7121  39.188  36.165   7.955
 5857POPC   C4A 7122  39.190  36.134   7.655
 5857POPC   C1B 7123  39.424  36.232   8.555
 5857POPC   C2B 7124  39.469  36.326   8.255
 5857POPC   C3B 7125  39.471  36.265   7.955
 5857POPC   C4B 7126  39.452  36.294   7.655
 5858POPC   NC3 7127  16.726  30.705   9.455
 5858POPC   PO4 7128  16.769  30.726   9.155
 5858POPC   GL1 7129  16.757  30.666   8.855
 5858POPC   GL2 7130  16.857  30.729   8.855
 5858POPC   C1A 7131  16.745  30.664   8.555
 5858POPC   D2A 7132  16.770  30.739   8.255
 5858POPC   C3A 7133  16.704  30.674   7.955
 5858POPC   C4A 7134  16.762  30.741   7.655
 5858POPC   C1B 7135  16.933  30.775   8.555
 5858POPC   C2B 7136  16.947  30.794   8.255
 5858POPC   C3B 7137  16.937  30.790   7.955
 5858POPC   C4B 7138  16.967  30.759   7.655
 5859POPC   NC3 7139  40.002  23.675   9.455
 5859POPC   PO4 7140  39.965  23.673   9.155
 5859POPC   GL1 7141  40.040  23.757   8.855
 5859POPC   GL2 7142  40.016  23.600   8.855
 5859POPC   C1A 7143  39.991  23.745   8.555
 5859POPC   D2A 7144  40.000  23.676   8.255
 5859POPC   C3A 7145  39.990  23.689   7.955
 5859POPC   C4A 7146  40.029  23.736   7.655
 5859POPC   C1B 7147  40.074  23.494   8.555
 5859POPC   C2B 7148  40.015  23.446   8.255
 5859POPC   C3B 7149  40.070  23.504   7.955
 5859POPC   C4B 7150  40.054  23.463   7.655
 5860POPC   NC3 7151   5.873   1.261   9.455
 5860POPC   PO4 7152   5.825   1.199   9.155
 5860POPC   GL1 7153   5.828   1.247   8.855
 5860POPC   GL2 7154   5.873   1.322   8.855
 5860POPC   C1A 7155   5.822   1.239   8.555
 5860POPC   D2A 7156   5.901   1.226   8.255
 5860POPC   C3A 7157   5.866   1.217   7.955
 5860POPC   C4A 7158   5.869   1.171   7.655
 5860POPC   C1B 7159   5.944   1.461   8.555
 5860POPC   C2B 7160   5.927   1.426   8.255
 5860POPC   C3B 7161   5.917   1.462   7.955
 5860POPC   C4B 7162   5.909   1.439   7.655
 5861POPC   NC3 7163  15.197  20.578   9.455
 5861POPC   PO4 7164  15.138  20.580   9.155
 5861POPC   GL1 7165  15.184  20.642   8.855
 5861POPC   GL2 7166  15.143  20.483   8.855
 5861POPC   C1A 7167  15.219  20.593   8.555
 5861POPC   D2A 7168  15.182  20.582   8.255
 5861POPC   C3A 7169  15.191  20.659   7.955
 5861POPC   C4A 7170  15.220  20.629   7.655
 5861POPC   C1B 7171  15.207  20.336   8.555
 5861POPC   C2B 7172  15.229  20.333   8.255
 5861POPC   C3B 7173  15.190  20.328   7.955
 5861POPC   C4B 7174  15.180  20.394   7.655
 5862POPC   NC3 7175  44.706  27.629   9.455
 5862POPC   PO4 7176  44.675  27.602   9.155
 5862POPC   GL1 7177  44.693  27.593   8.855
 5862POPC   GL2 7178  44.731  27.548   8.855
 5862POPC   C1A 7179  44.645  27.618   8.555
 5862POPC   D2A 7180  44.698  27.567   8.255
 5862POPC   C3A 7181  44.620  27.630   7.955
 5862POPC   C4A 7182  44.636  27.584   7.655
 5862POPC   C1B 7183  44.924  27.436   8.555
 5862POPC   C2B 7184  44.922  27.454   8.255
 5862POPC   C3B 7185  44.854  27.470   7.955
 5862POPC   C4B 7186  44.850  27.444   7.655
 5863POPC   NC3 7187  44.706  29.122   9.455
 5863POPC   PO4 7188  44.644  29.120   9.155
 5863POPC   GL1 7189  44.693  29.128   8.855
 5863POPC   GL2 7190  44.644  28.981   8.855
 5863POPC   C1A 7191  44.662  29.117   8.555
 5863POPC   D2A 7192  44.622  29.134   8.255
 5863POPC   C3A 7193  44.628  29.162   7.955
 5863POPC   C4A 7194  44.661  29.143   7.655
 5863POPC   C1B 7195  44.680  28.910   8.555
 5863POPC   C2B 7196  44.654  28.897   8.255
 5863POPC   C3B 7197  44.664  28.880   7.955
 5863POPC   C4B 7198  44.606  28.904   7.655
 5864POPC   NC3 7199   2.807   3.510   9.455
 5864POPC   PO4 7200   2.729   3.545   9.155
 5864POPC   GL1 7201   2.732   3.542   8.855
 5864POPC   GL2 7202   2.787   3.425   8.855
 5864POPC   C1A 7203   2.811   3.553   8.555
 5864POPC   D2A 7204   2.757   3.587   8.255
 5864POPC   C3A 7205   2.755   3.507   7.955
 5864POPC   C4A 7206   2.732   3.493   7.655
 5864POPC   C1B 7207   2.876   3.282   8.555
 5864POPC   C2B 7208   2.925   3.364   8.255
 5864POPC   C3B 7209   2.868   3.337   7.955
 5864POPC   C4B 7210   2.878   3.296   7.655
 5865POPC   NC3 7211  10.512  31.518   9.455
 5865POPC   PO4 7212  10.527  31.498   9.155
 5865POPC   GL1 7213  10.571  31.452   8.855
 5865POPC   GL2 7214  10.466  31.563   8.855
 5865POPC   C1A 7215  10.542  31.448   8.555
 5865POPC   D2A 7216  10.569  31.460   8.255
 5865POPC   C3A 7217  10.494  31.466   7.955
 5865POPC   C4A 7218  10.477  31.447   7.655
 5865POPC   C1B 7219  10.468  31.686   8.555
 5865POPC   C2B 7220  10.469  31.728   8.255
 5865POPC   C3B 7221  10.455  31.658   7.955
 5865POPC   C4B 7222  10.484  31.724   7.655
 5866POPC   NC3 7223  40.033  44.683   9.455
 5866POPC   PO4 7224  40.027  44.632   9.155
 5866POPC   GL1 7225  40.011  44.628   8.855
 5866POPC   GL2 7226  39.954  44.595   8.855
 5866POPC   C1A 7227  39.968  44.667   8.555
 5866POPC   D2A 7228  40.019  44.678   8.255
 5866POPC   C3A 7229  39.994  44.698   7.955
 5866POPC   C4A 7230  40.048  44.675   7.655
 5866POPC   C1B 7231  39.796  44.455   8.555
 5866POPC   C2B 7232  39.815  44.447   8.255
 5866POPC   C3B 7233  39.851  44.467   7.955
 5866POPC   C4B 7234  39.798  44.450   7.655
 5867POPC   NC3 7235   5.906  14.415   9.455
 5867POPC   PO4 7236   5.880  14.414   9.155
 5867POPC   GL1 7237   5.894  14.421   8.855
 5867POPC   GL2 7238   5.733  14.327   8.855
 5867POPC   C1A 7239   5.859  14.405   8.555
 5867POPC   D2A 7240   5.866  14.354   8.255
 5867POPC   C3A 7241   5.859  14.406   7.955
 5867POPC   C4A 7242   5.887  14.363   7.655
 5867POPC   C1B 7243   5.671  14.341   8.555
 5867POPC   C2B 7244   5.674  14.345   8.255
 5867POPC   C3B 7245   5.656  14.341   7.955
 5867POPC   C4B 7246   5.607  14.324   7.655
 5868POPC   NC3 7247  26.025  43.928   9.455
 5868POPC   PO4 7248  26.048  43.892   9.155
 5868POPC   GL1 7249  26.028  43.851   8.855
 5868POPC   GL2 7250  25.928  43.875   8.855
 5868POPC   C1A 7251  26.070  43.875   8.555
 5868POPC   D2A 7252  26.038  43.917   8.255
 5868POPC   C3A 7253  26.090  43.920   7.955
 5868POPC   C4A 7254  26.052  43.905   7.655
 5868POPC   C1B 7255  25.840  43.899   8.555
 5868POPC   C2B 7256  25.803  43.946   8.255
 5868POPC   C3B 7257  25.840  43.905   7.955
 5868POPC   C4B 7258  25.813  43.904   7.655
 5869POPC   NC3 7259  32.208  44.630   9.455
 5869POPC   PO4 7260  32.289  44.635   9.155
 5869POPC   GL1 7261  32.222  44.627   8.855
 5869POPC   GL2 7262  32.130  44.672   8.855
 5869POPC   C1A 7263  32.218  44.615   8.555
 5869POPC   D2A 7264  32.225  44.712   8.255
 5869POPC   C3A 7265  32.210  44.653   7.955
 5869POPC   C4A 7266  32.233  44.679   7.655
 5869POPC   C1B 7267  31.976  44.808   8.555
 5869POPC   C2B 7268  32.035  44.783   8.255
 5869POPC   C3B 7269  32.002  44.761   7.955
 5869POPC   C4B 7270  31.989  44.794   7.655
 5870POPC   NC3 7271  19.013  32.205   9.455
 5870POPC   PO4 7272  19.041  32.233   9.155
 5870POPC   GL1 7273  19.071  32.294   8.855
 5870POPC   GL2 7274  18.899  32.345   8.855
 5870POPC   C1A 7275  19.070  32.239   8.555
 5870POPC   D2A 7276  19.045  32.243   8.255
 5870POPC   C3A 7277  19.086  32.295   7.955
 5870POPC   C4A 7278  19.022  32.233   7.655
 5870POPC   C1B 7279  18.787  32.392   8.555
 5870POPC   C2B 7280  18.827  32.332   8.255
 5870POPC   C3B 7281  18.877  32.366   7.955
 5870POPC   C4B 7282  18.830  32.298   7.655
 5871POPC   NC3 7283   3.585  39.226   9.455
 5871POPC   PO4 7284   3.555  39.210   9.155
 5871POPC   GL1 7285   3.543  39.225   8.855
 5871POPC   GL2 7286   3.596  39.141   8.855
 5871POPC   C1A 7287   3.510  39.277   8.555
 5871POPC   D2A 7288   3.581  39.199   8.255
 5871POPC   C3A 7289   3.492  39.247   7.955
 5871POPC   C4A 7290   3.576  39.229   7.655
 5871POPC   C1B 7291   3.572  39.035   8.555
 5871POPC   C2B 7292   3.627  39.027   8.255
 5871POPC   C3B 7293   3.633  39.009   7.955
 5871POPC   C4B 7294   3.575  39.012   7.655
 5872POPC   NC3 7295   2.035   0.397   9.455
 5872POPC   PO4 7296   1.961   0.476   9.155
 5872POPC   GL1 7297   1.979   0.459   8.855
 5872POPC   GL2 7298   1.995   0.544   8.855
 5872POPC   C1A 7299   1.964   0.399   8.555
 5872POPC   D2A 7300   2.026   0.458   8.255
 5872POPC   C3A 7301   1.945   0.444   7.955
 5872POPC   C4A 7302   1.955   0.459   7.655
 5872POPC   C1B 7303   2.039   0.724   8.555
 5872POPC   C2B 7304   2.022   0.655   8.255
 5872POPC   C3B 7305   1.992   0.658   7.955
 5872POPC   C4B 7306   2.026   0.659   7.655
 5873POPC   NC3 7307  37.643  28.353   9.455
 5873POPC   PO4 7308  37.660  28.349   9.155
 5873POPC   GL1 7309  37.676  28.397   8.855
 5873POPC   GL2 7310  37.576  28.381   8.855
 5873POPC   C1A 7311  37.630  28.354   8.555
 5873POPC   D2A 7312  37.663  28.360   8.255
 5873POPC   C3A 7313  37.633  28.332   7.955
 5873POPC   C4A 7314  37.683  28.404   7.655
 5873POPC   C1B 7315  37.495  28.447   8.555
 5873POPC   C2B 7316  37.438  28.516   8.255
 5873POPC   C3B 7317  37.466  28.512   7.955
 5873POPC   C4B 7318  37.429  28.449   7.655
 5874POPC   NC3 7319  23.690  28.416   9.455
 5874POPC   PO4 7320  23.669  28.391   9.155
 5874POPC   GL1 7321  23.741  28.323   8.855
 5874POPC   GL2 7322  23.631  28.496   8.855
 5874POPC   C1A 7323  23.677  28.398   8.555
 5874POPC   D2A 7324  23.746  28.351   8.255
 5874POPC   C3A 7325  23.677  28.361   7.955
 5874POPC   C4A 7326  23.748  28.407   7.655
 5874POPC   C1B 7327  23.634  28.614   8.555
 5874POPC   C2B 7328  23.579  28.635   8.255
 5874POPC   C3B 7329  23.589  28.552   7.955
 5874POPC   C4B 7330  23.647  28.569   7.655
 5875POPC   NC3 7331  36.104  43.892   9.455
 5875POPC   PO4 7332  36.164  43.934   9.155
 5875POPC   GL1 7333  36.171  43.860   8.855
 5875POPC   GL2 7334  36.105  44.057   8.855
 5875POPC   C1A 7335  36.174  43.899   8.555
 5875POPC   D2A 7336  36.095  43.928   8.255
 5875POPC   C3A 7337  36.103  43.925   7.955
 5875POPC   C4A 7338  36.145  43.905   7.655
 5875POPC   C1B 7339  36.129  44.149   8.555
 5875POPC   C2B 7340  36.164  44.085   8.255
 5875POPC   C3B 7341  36.147  44.118   7.955
 5875POPC   C4B 7342  36.140  44.098   7.655
 5876POPC   NC3 7343  14.362  34.586   9.455
 5876POPC   PO4 7344  14.451  34.553   9.155
 5876POPC   GL1 7345  14.360  34.588   8.855
 5876POPC   GL2 7346  14.237  34.553   8.855
 5876POPC   C1A 7347  14.370  34.577   8.555
 5876POPC   D2A 7348  14.358  34.539   8.255
 5876POPC   C3A 7349  14.451  34.563   7.955
 5876POPC   C4A 7350  14.435  34.564   7.655
 5876POPC   C1B 7351  14.151  34.465   8.555
 5876POPC   C2B 7352  14.161  34.474   8.255
 5876POPC   C3B 7353  14.153  34.501   7.955
 5876POPC   C4B 7354  14.158  34.446   7.655
 5877POPC   NC3 7355  42.299  43.900   9.455
 5877POPC   PO4 7356  42.371  43.849   9.155
 5877POPC   GL1 7357  42.308  43.929   8.855
 5877POPC   GL2 7358  42.284  43.953   8.855
 5877POPC   C1A 7359  42.367  43.880   8.555
 5877POPC   D2A 7360  42.363  43.862   8.255
 5877POPC   C3A 7361  42.297  43.851   7.955
 5877POPC   C4A 7362  42.318  43.915   7.655
 5877POPC   C1B 7363  42.177  44.073   8.555
 5877POPC   C2B 7364  42.175  44.061   8.255
 5877POPC   C3B 7365  42.213  44.117   7.955
 5877POPC   C4B 7366  42.188  44.080   7.655
 5878POPC   NC3 7367   5.130  38.441   9.455
 5878POPC   PO4 7368   5.061  38.495   9.155
 5878POPC   GL1 7369   5.115  38.481   8.855
 5878POPC   GL2 7370   4.945  38.554   8.855
 5878POPC   C1A 7371   5.124  38.459   8.555
 5878POPC   D2A 7372   5.108  38.483   8.255
 5878POPC   C3A 7373   5.116  38.430   7.955
 5878POPC   C4A 7374   5.083  38.428   7.655
 5878POPC   C1B 7375   4.898  38.563   8.555
 5878POPC   C2B 7376   4.937  38.564   8.255
 5878POPC   C3B 7377   4.938  38.633   7.955
 5878POPC   C4B 7378   4.944  38.635   7.655
 5879POPC   NC3 7379  22.184  32.199   9.455
 5879POPC   PO4 7380  22.140  32.237   9.155
 5879POPC   GL1 7381  22.192  32.270   8.855
 5879POPC   GL2 7382  22.082  32.147   8.855
 5879POPC   C1A 7383  22.117  32.282   8.555
 5879POPC   D2A 7384  22.129  32.269   8.255
 5879POPC   C3A 7385  22.170  32.256   7.955
 5879POPC   C4A 7386  22.211  32.234   7.655
 5879POPC   C1B 7387  22.062  32.067   8.555
 5879POPC   C2B 7388  22.016  32.009   8.255
 5879POPC   C3B 7389  22.077  32.007   7.955
 5879POPC   C4B 7390  22.038  32.007   7.655
 5880POPC   NC3 7391  39.267  38.462   9.455
 5880POPC   PO4 7392  39.263  38.406   9.155
 5880POPC   GL1 7393  39.262  38.491   8.855
 5880POPC   GL2 7394  39.253  38.349   8.855
 5880POPC   C1A 7395  39.244  38.462   8.555
 5880POPC   D2A 7396  39.281  38.406   8.255
 5880POPC   C3A 7397  39.246  38.468   7.955
 5880POPC   C4A 7398  39.273  38.455   7.655
 5880POPC   C1B 7399  39.211  38.246   8.555
 5880POPC   C2B 7400  39.225  38.215   8.255
 5880POPC   C3B 7401  39.227  38.214   7.955
 5880POPC   C4B 7402  39.244  38.181   7.655
 5881POPC   NC3 7403  15.193  21.399   9.455
 5881POPC   PO4 7404  15.218  21.419   9.155
 5881POPC   GL1 7405  15.160  21.394   8.855
 5881POPC   GL2 7406  15.220  21.312   8.855
 5881POPC   C1A 7407  15.189  21.389   8.555
 5881POPC   D2A 7408  15.218  21.354   8.255
 5881POPC   C3A 7409  15.180  21.357   7.955
 5881POPC   C4A 7410  15.152  21.413   7.655
 5881POPC   C1B 7411  15.231  21.148   8.555
 5881POPC   C2B 7412  15.279  21.197   8.255
 5881POPC   C3B 7413  15.307  21.116   7.955
 5881POPC   C4B 7414  15.275  21.157   7.655
 5882POPC   NC3 7415  32.238  11.309   9.455
 5882POPC   PO4 7416  32.237  11.322   9.155
 5882POPC   GL1 7417  32.257  11.278   8.855
 5882POPC   GL2 7418  32.333  11.337   8.855
 5882POPC   C1A 7419  32.203  11.300   8.555
 5882POPC   D2A 7420  32.236  11.257   8.255
 5882POPC   C3A 7421  32.265  11.347   7.955
 5882POPC   C4A 7422  32.274  11.310   7.655
 5882POPC   C1B 7423  32.522  11.391   8.555
 5882POPC   C2B 7424  32.436  11.441   8.255
 5882POPC   C3B 7425  32.470  11.409   7.955
 5882POPC   C4B 7426  32.495  11.372   7.655
 5883POPC   NC3 7427  16.001   7.464   9.455
 5883POPC   PO4 7428  15.948   7.407   9.155
 5883POPC   GL1 7429  15.976   7.446   8.855
 5883POPC   GL2 7430  15.889   7.305   8.855
 5883POPC   C1A 7431  15.950   7.380   8.555
 5883POPC   D2A 7432  15.964   7.388   8.255
 5883POPC   C3A 7433  15.992   7.436   7.955
 5883POPC   C4A 7434  15.950   7.417   7.655
 5883POPC   C1B 7435  15.812   7.201   8.555
 5883POPC   C2B 7436  15.804   7.184   8.255
 5883POPC   C3B 7437  15.823   7.266   7.955
 5883POPC   C4B 7438  15.769   7.213   7.655
 5884POPC   NC3 7439  12.896  12.120   9.455
 5884POPC   PO4 7440  12.817  12.117   9.155
 5884POPC   GL1 7441  12.849  12.057   8.855
 5884POPC   GL2 7442  12.826  12.173   8.855
 5884POPC   C1A 7443  12.894  12.111   8.555
 5884POPC   D2A 7444  12.807  12.056   8.255
 5884POPC   C3A 7445  12.817  12.106   7.955
 5884POPC   C4A 7446  12.873  12.101   7.655
 5884POPC   C1B 7447  12.735  12.265   8.555
 5884POPC   C2B 7448  12.774  12.296   8.255
 5884POPC   C3B 7449  12.778  12.327   7.955
 5884POPC   C4B 7450  12.723  12.314   7.655
 5885POPC   NC3 7451   5.844  12.111   9.455
 5885POPC   PO4 7452   5.865  12.069   9.155
 5885POPC   GL1 7453   5.840  12.063   8.855
 5885POPC   GL2 7454   5.985  12.082   8.855
 5885POPC   C1A 7455   5.825  12.052   8.555
 5885POPC   D2A 7456   5.876  12.040   8.255
 5885POPC   C3A 7457   5.844  12.097   7.955
 5885POPC   C4A 7458   5.899  12.050   7.655
 5885POPC   C1B 7459   6.136  12.084   8.555
 5885POPC   C2B 7460   6.082  12.115   8.255
 5885POPC   C3B 7461   6.088  12.117   7.955
 5885POPC   C4B 7462   6.164  12.137   7.655
 5886POPC   NC3 7463  23.672  29.891   9.455
 5886POPC   PO4 7464  23.730  29.943   9.155
 5886POPC   GL1 7465  23.740  29.890   8.855
 5886POPC   GL2 7466  23.604  29.837   8.855
 5886POPC   C1A 7467  23.739  29.951   8.555
 5886POPC   D2A 7468  23.730  29.953   8.255
 5886POPC   C3A 7469  23.685  29.935   7.955
 5886POPC   C4A 7470  23.751  29.875   7.655
 5886POPC   C1B 7471  23.521  29.814   8.555
 5886POPC   C2B 7472  23.446  29.830   8.255
 5886POPC   C3B 7473  23.525  29.789   7.955
 5886POPC   C4B 7474  23.440  29.804   7.655
 5887POPC   NC3 7475  40.014  16.696   9.455
 5887POPC   PO4 7476  40.015  16.732   9.155
 5887POPC   GL1 7477  40.018  16.699   8.855
 5887POPC   GL2 7478  39.943  16.647   8.855
 5887POPC   C1A 7479  39.994  16.761   8.555
 5887POPC   D2A 7480  40.028  16.722   8.255
 5887POPC   C3A 7481  39.958  16.729   7.955
 5887POPC   C4A 7482  40.000  16.765   7.655
 5887POPC   C1B 7483  39.899  16.481   8.555
 5887POPC   C2B 7484  39.876  16.487   8.255
 5887POPC   C3B 7485  39.847  16.535   7.955
 5887POPC   C4B 7486  39.898  16.525   7.655
 5888POPC   NC3 7487  18.324  29.110   9.455
 5888POPC   PO4 7488  18.326  29.126   9.155
 5888POPC   GL1 7489  18.244  29.119   8.855
 5888POPC   GL2 7490  18.393  29.266   8.855
 5888POPC   C1A 7491  18.276  29.104   8.555
 5888POPC   D2A 7492  18.313  29.096   8.255
 5888POPC   C3A 7493  18.259  29.095   7.955
 5888POPC   C4A 7494  18.293  29.129   7.655
 5888POPC   C1B 7495  18.518  29.309   8.555
 5888POPC   C2B 7496  18.521  29.269   8.255
 5888POPC   C3B 7497  18.471  29.257   7.955
 5888POPC   C4B 7498  18.515  29.300   7.655
 5889POPC   NC3 7499  36.935  43.158   9.455
 5889POPC   PO4 7500  36.873  43.065   9.155
 5889POPC   GL1 7501  36.901  43.142   8.855
 5889POPC   GL2 7502  36.987  43.117   8.855
 5889POPC   C1A 7503  36.864  43.156   8.555
 5889POPC   D2A 7504  36.949  43.093   8.255
 5889POPC   C3A 7505  36.953  43.121   7.955
 5889POPC   C4A 7506  36.950  43.090   7.655
 5889POPC   C1B 7507  37.134  43.231   8.555
 5889POPC   C2B 7508  37.125  43.220   8.255
 5889POPC   C3B 7509  37.101  43.183   7.955
 5889POPC   C4B 7510  37.110  43.144   7.655
 5890POPC   NC3 7511  15.910  31.503   9.455
 5890POPC   PO4 7512  15.932  31.438   9.155
 5890POPC   GL1 7513  15.983  31.470   8.855
 5890POPC   GL2 7514  16.059  31.482   8.855
 5890POPC   C1A 7515  16.000  31.484   8.555
 5890POPC   D2A 7516  15.957  31.499   8.255
 5890POPC   C3A 7517  15.918  31.518   7.955
 5890POPC   C4A 7518  15.992  31.439   7.655
 5890POPC   C1B 7519  16.178  31.581   8.555
 5890POPC   C2B 7520  16.143  31.563   8.255
 5890POPC   C3B 7521  16.216  31.521   7.955
 5890POPC   C4B 7522  16.207  31.519   7.655
 5891POPC   NC3 7523  43.900  24.531   9.455
 5891POPC   PO4 7524  43.907  24.533   9.155
 5891POPC   GL1 7525  43.843  24.471   8.855
 5891POPC   GL2 7526  43.848  24.349   8.855
 5891POPC   C1A 7527  43.926  24.483   8.555
 5891POPC   D2A 7528  43.916  24.536   8.255
 5891POPC   C3A 7529  43.907  24.510   7.955
 5891POPC   C4A 7530  43.895  24.464   7.655
 5891POPC   C1B 7531  43.840  24.198   8.555
 5891POPC   C2B 7532  43.800  24.267   8.255
 5891POPC   C3B 7533  43.864  24.247   7.955
 5891POPC   C4B 7534  43.872  24.205   7.655
 5892POPC   NC3 7535  35.397  18.255   9.455
 5892POPC   PO4 7536  35.385  18.284   9.155
 5892POPC   GL1 7537  35.350  18.315   8.855
 5892POPC   GL2 7538  35.428  18.294   8.855
 5892POPC   C1A 7539  35.381  18.274   8.555
 5892POPC   D2A 7540  35.389  18.281   8.255
 5892POPC   C3A 7541  35.332  18.275   7.955
 5892POPC   C4A 7542  35.391  18.246   7.655
 5892POPC   C1B 7543  35.592  18.230   8.555
 5892POPC   C2B 7544  35.645  18.261   8.255
 5892POPC   C3B 7545  35.557  18.225   7.955
 5892POPC   C4B 7546  35.553  18.221   7.655
 5893POPC   NC3 7547  32.990  18.318   9.455
 5893POPC   PO4 7548  33.032  18.293   9.155
 5893POPC   GL1 7549  32.997  18.320   8.855
 5893POPC   GL2 7550  33.057  18.192   8.855
 5893POPC   C1A 7551  32.988  18.305   8.555
 5893POPC   D2A 7552  33.016  18.285   8.255
 5893POPC   C3A 7553  33.041  18.328   7.955
 5893POPC   C4A 7554  33.059  18.292   7.655
 5893POPC   C1B 7555  33.049  18.083   8.555
 5893POPC   C2B 7556  33.067  18.060   8.255
 5893POPC   C3B 7557  33.019  18.044   7.955
 5893POPC   C4B 7558  33.044  17.995   7.655
 5894POPC   NC3 7559  19.830  37.657   9.455
 5894POPC   PO4 7560  19.882  37.675   9.155
 5894POPC   GL1 7561  19.820  37.652   8.855
 5894POPC   GL2 7562  20.005  37.661   8.855
 5894POPC   C1A 7563  19.849  37.705   8.555
 5894POPC   D2A 7564  19.881  37.650   8.255
 5894POPC   C3A 7565  19.856  37.644   7.955
 5894POPC   C4A 7566  19.850  37.716   7.655
 5894POPC   C1B 7567  20.112  37.668   8.555
 5894POPC   C2B 7568  20.109  37.680   8.255
 5894POPC   C3B 7569  20.047  37.624   7.955
 5894POPC   C4B 7570  20.126  37.610   7.655
 5895POPC   NC3 7571  24.496   5.106   9.455
 5895POPC   PO4 7572  24.487   5.132   9.155
 5895POPC   GL1 7573  24.447   5.142   8.855
 5895POPC   GL2 7574  24.415   5.056   8.855
 5895POPC   C1A 7575  24.456   5.136   8.555
 5895POPC   D2A 7576  24.456   5.074   8.255
 5895POPC   C3A 7577  24.476   5.132   7.955
 5895POPC   C4A 7578  24.496   5.125   7.655
 5895POPC   C1B 7579  24.308   4.950   8.555
 5895POPC   C2B 7580  24.316   4.966   8.255
 5895POPC   C3B 7581  24.344   4.891   7.955
 5895POPC   C4B 7582  24.312   4.953   7.655
 5896POPC   NC3 7583  18.250  10.482   9.455
 5896POPC   PO4 7584  18.272  10.564   9.155
 5896POPC   GL1 7585  18.326  10.570   8.855
 5896POPC   GL2 7586  18.428  10.535   8.855
 5896POPC   C1A 7587  18.237  10.494   8.555
 5896POPC   D2A 7588  18.258  10.518   8.255
 5896POPC   C3A 7589  18.289  10.475   7.955
 5896POPC   C4A 7590  18.251  10.565   7.655
 5896POPC   C1B 7591  18.535  10.617   8.555
 5896POPC   C2B 7592  18.525  10.615   8.255
 5896POPC   C3B 7593  18.509  10.633   7.955
 5896POPC   C4B 7594  18.530  10.576   7.655
 5897POPC   NC3 7595  12.882  23.730   9.455
 5897POPC   PO4 7596  12.816  23.713   9.155
 5897POPC   GL1 7597  12.839  23.720   8.855
 5897POPC   GL2 7598  12.972  23.643   8.855
 5897POPC   C1A 7599  12.812  23.696   8.555
 5897POPC   D2A 7600  12.825  23.728   8.255
 5897POPC   C3A 7601  12.878  23.708   7.955
 5897POPC   C4A 7602  12.816  23.705   7.655
 5897POPC   C1B 7603  13.109  23.684   8.555
 5897POPC   C2B 7604  13.117  23.617   8.255
 5897POPC   C3B 7605  13.113  23.676   7.955
 5897POPC   C4B 7606  13.050  23.702   7.655
 5898POPC   NC3 7607  14.449  36.122   9.455
 5898POPC   PO4 7608  14.368  36.139   9.155
 5898POPC   GL1 7609  14.394  36.176   8.855
 5898POPC   GL2 7610  14.239  36.099   8.855
 5898POPC   C1A 7611  14.382  36.127   8.555
 5898POPC   D2A 7612  14.409  36.128   8.255
 5898POPC   C3A 7613  14.414  36.167   7.955
 5898POPC   C4A 7614  14.374  36.119   7.655
 5898POPC   C1B 7615  14.107  36.192   8.555
 5898POPC   C2B 7616  14.162  36.144   8.255
 5898POPC   C3B 7617  14.134  36.139   7.955
 5898POPC   C4B 7618  14.186  36.196   7.655
 5899POPC   NC3 7619  40.745  19.804   9.455
 5899POPC   PO4 7620  40.800  19.848   9.155
 5899POPC   GL1 7621  40.760  19.817   8.855
 5899POPC   GL2 7622  40.894  19.891   8.855
 5899POPC   C1A 7623  40.803  19.865   8.555
 5899POPC   D2A 7624  40.758  19.787   8.255
 5899POPC   C3A 7625  40.762  19.819   7.955
 5899POPC   C4A 7626  40.807  19.797   7.655
 5899POPC   C1B 7627  41.005  19.970   8.555
 5899POPC   C2B 7628  40.986  19.996   8.255
 5899POPC   C3B 7629  40.946  19.935   7.955
 5899POPC   C4B 7630  40.944  20.010   7.655
 5900POPC   NC3 7631  13.588   8.991   9.455
 5900POPC   PO4 7632  13.659   8.955   9.155
 5900POPC   GL1 7633  13.613   8.996   8.855
 5900POPC   GL2 7634  13.639   8.877   8.855
 5900POPC   C1A 7635  13.658   9.014   8.555
 5900POPC   D2A 7636  13.655   8.948   8.255
 5900POPC   C3A 7637  13.658   8.956   7.955
 5900POPC   C4A 7638  13.646   8.932   7.655
 5900POPC   C1B 7639  13.701   8.704   8.555
 5900POPC   C2B 7640  13.749   8.786   8.255
 5900POPC   C3B 7641  13.688   8.735   7.955
 5900POPC   C4B 7642  13.696   8.716   7.655
 5901POPC   NC3 7643  18.258  22.139   9.455
 5901POPC   PO4 7644  18.318  22.169   9.155
 5901POPC   GL1 7645  18.237  22.136   8.855
 5901POPC   GL2 7646  18.314  22.325   8.855
 5901POPC   C1A 7647  18.236  22.168   8.555
 5901POPC   D2A 7648  18.307  22.171   8.255
 5901POPC   C3A 7649  18.270  22.120   7.955
 5901POPC   C4A 7650  18.239  22.129   7.655
 5901POPC   C1B 7651  18.390  22.381   8.555
 5901POPC   C2B 7652  18.301  22.374   8.255
 5901POPC   C3B 7653  18.376  22.416   7.955
 5901POPC   C4B 7654  18.337  22.380   7.655
 5902POPC   NC3 7655  22.985  29.926   9.455
 5902POPC   PO4 7656  22.912  29.933   9.155
 5902POPC   GL1 7657  22.904  29.917   8.855
 5902POPC   GL2 7658  23.040  29.945   8.855
 5902POPC   C1A 7659  22.925  29.910   8.555
 5902POPC   D2A 7660  22.933  29.879   8.255
 5902POPC   C3A 7661  22.960  29.929   7.955
 5902POPC   C4A 7662  22.907  29.916   7.655
 5902POPC   C1B 7663  23.144  30.004   8.555
 5902POPC   C2B 7664  23.115  30.023   8.255
 5902POPC   C3B 7665  23.154  30.073   7.955
 5902POPC   C4B 7666  23.110  30.043   7.655
 5903POPC   NC3 7667  17.538  25.219   9.455
 5903POPC   PO4 7668  17.538  25.221   9.155
 5903POPC   GL1 7669  17.514  25.243   8.855
 5903POPC   GL2 7670  17.545  25.381   8.855
 5903POPC   C1A 7671  17.547  25.237   8.555
 5903POPC   D2A 7672  17.498  25.296   8.255
 5903POPC   C3A 7673  17.459  25.262   7.955
 5903POPC   C4A 7674  17.486  25.258   7.655
 5903POPC   C1B 7675  17.645  25.406   8.555
 5903POPC   C2B 7676  17.670  25.488   8.255
 5903POPC   C3B 7677  17.700  25.471   7.955
 5903POPC   C4B 7678  17.669  25.472   7.655
 5904POPC   NC3 7679  38.457  17.469   9.455
 5904POPC   PO4 7680  38.413  17.543   9.155
 5904POPC   GL1 7681  38.422  17.499   8.855
 5904POPC   GL2 7682  38.361  17.479   8.855
 5904POPC   C1A 7683  38.488  17.508   8.555
 5904POPC   D2A 7684  38.499  17.460   8.255
 5904POPC   C3A 7685  38.428  17.521   7.955
 5904POPC   C4A 7686  38.445  17.539   7.655
 5904POPC   C1B 7687  38.200  17.522   8.555
 5904POPC   C2B 7688  38.223  17.523   8.255
 5904POPC   C3B 7689  38.203  17.528   7.955
 5904POPC   C4B 7690  38.254  17.466   7.655
 5905POPC   NC3 7691  12.849  13.618   9.455
 5905POPC   PO4 7692  12.847  13.662   9.155
 5905POPC   GL1 7693  12.830  13.628   8.855
 5905POPC   GL2 7694  12.792  13.572   8.855
 5905POPC   C1A 7695  12.809  13.585   8.555
 5905POPC   D2A 7696  12.859  13.589   8.255
 5905POPC   C3A 7697  12.840  13.588   7.955
 5905POPC   C4A 7698  12.864  13.583   7.655
 5905POPC   C1B 7699  12.672  13.470   8.555
 5905POPC   C2B 7700  12.631  13.483   8.255
 5905POPC   C3B 7701  12.679  13.461   7.955
 5905POPC   C4B 7702  12.643  13.437   7.655
 5906POPC   NC3 7703  34.612  32.987   9.455
 5906POPC   PO4 7704  34.575  33.028   9.155
 5906POPC   GL1 7705  34.603  33.069   8.855
 5906POPC   GL2 7706  34.712  33.004   8.855
 5906POPC   C1A 7707  34.568  33.015   8.555
 5906POPC   D2A 7708  34.606  33.068   8.255
 5906POPC   C3A 7709  34.546  33.068   7.955
 5906POPC   C4A 7710  34.600  33.053   7.655
 5906POPC   C1B 7711  34.777  33.022   8.555
 5906POPC   C2B 7712  34.874  33.058   8.255
 5906POPC   C3B 7713  34.790  33.010   7.955
 5906POPC   C4B 7714  34.780  33.048   7.655
 5907POPC   NC3 7715  30.731  16.711   9.455
 5907POPC   PO4 7716  30.679  16.691   9.155
 5907POPC   GL1 7717  30.703  16.751   8.855
 5907POPC   GL2 7718  30.585  16.675   8.855
 5907POPC   C1A 7719  30.738  16.743   8.555
 5907POPC   D2A 7720  30.676  16.684   8.255
 5907POPC   C3A 7721  30.668  16.703   7.955
 5907POPC   C4A 7722  30.711  16.748   7.655
 5907POPC   C1B 7723  30.469  16.634   8.555
 5907POPC   C2B 7724  30.431  16.590   8.255
 5907POPC   C3B 7725  30.504  16.622   7.955
 5907POPC   C4B 7726  30.458  16.656   7.655
 5908POPC   NC3 7727   1.226   6.690   9.455
 5908POPC   PO4 7728   1.209   6.688   9.155
 5908POPC   GL1 7729   1.206   6.610   8.855
 5908POPC   GL2 7730   1.083   6.597   8.855
 5908POPC   C1A 7731   1.212   6.601   8.555
 5908POPC   D2A 7732   1.224   6.684   8.255
 5908POPC   C3A 7733   1.220   6.687   7.955
 5908POPC   C4A 7734   1.184   6.655   7.655
 5908POPC   C1B 7735   1.001   6.449   8.555
 5908POPC   C2B 7736   1.050   6.468   8.255
 5908POPC   C3B 7737   1.067   6.464   7.955
 5908POPC   C4B 7738   1.083   6.506   7.655
 5909POPC   NC3 7739  37.688   2.790   9.455
 5909POPC   PO4 7740  37.686   2.743   9.155
 5909POPC   GL1 7741  37.668   2.727   8.855
 5909POPC   GL2 7742  37.753   2.873   8.855
 5909POPC   C1A 7743  37.712   2.803   8.555
 5909POPC   D2A 7744  37.634   2.762   8.255
 5909POPC   C3A 7745  37.691   2.729   7.955
 5909POPC   C4A 7746  37.692   2.734   7.655
 5909POPC   C1B 7747  37.785   2.986   8.555
 5909POPC   C2B 7748  37.765   2.962   8.255
 5909POPC   C3B 7749  37.724   2.996   7.955
 5909POPC   C4B 7750  37.768   2.978   7.655
 5910POPC   NC3 7751  18.292  30.663   9.455
 5910POPC   PO4 7752  18.293  30.710   9.155
 5910POPC   GL1 7753  18.273  30.685   8.855
 5910POPC   GL2 7754  18.412  30.666   8.855
 5910POPC   C1A 7755  18.278  30.742   8.555
 5910POPC   D2A 7756  18.266  30.745   8.255
 5910POPC   C3A 7757  18.302  30.708   7.955
 5910POPC   C4A 7758  18.250  30.746   7.655
 5910POPC   C1B 7759  18.505  30.588   8.555
 5910POPC   C2B 7760  18.448  30.502   8.255
 5910POPC   C3B 7761  18.507  30.500   7.955
 5910POPC   C4B 7762  18.512  30.562   7.655
 5911POPC   NC3 7763  35.343  10.525   9.455
 5911POPC   PO4 7764  35.327  10.481   9.155
 5911POPC   GL1 7765  35.307  10.498   8.855
 5911POPC   GL2 7766  35.512  10.584   8.855
 5911POPC   C1A 7767  35.352  10.549   8.555
 5911POPC   D2A 7768  35.373  10.571   8.255
 5911POPC   C3A 7769  35.347  10.499   7.955
 5911POPC   C4A 7770  35.378  10.516   7.655
 5911POPC   C1B 7771  35.546  10.677   8.555
 5911POPC   C2B 7772  35.581  10.655   8.255
 5911POPC   C3B 7773  35.557  10.662   7.955
 5911POPC   C4B 7774  35.579  10.587   7.655
 5912POPC   NC3 7775  40.780  26.818   9.455
 5912POPC   PO4 7776  40.740  26.771   9.155
 5912POPC   GL1 7777  40.751  26.827   8.855
 5912POPC   GL2 7778  40.948  26.832   8.855
 5912POPC   C1A 7779  40.741  26.831   8.555
 5912POPC   D2A 7780  40.754  26.834   8.255
 5912POPC   C3A 7781  40.785  26.780   7.955
 5912POPC   C4A 7782  40.776  26.788   7.655
 5912POPC   C1B 7783  41.011  26.759   8.555
 5912POPC   C2B 7784  41.061  26.762   8.255
 5912POPC   C3B 7785  41.064  26.768   7.955
 5912POPC   C4B 7786  40.990  26.722   7.655
 5913POPC   NC3 7787   5.068  35.370   9.455
 5913POPC   PO4 7788   5.064  35.319   9.155
 5913POPC   GL1 7789   5.064  35.381   8.855
 5913POPC   GL2 7790   5.206  35.272   8.855
 5913POPC   C1A 7791   5.091  35.391   8.555
 5913POPC   D2A 7792   5.074  35.328   8.255
 5913POPC   C3A 7793   5.064  35.351   7.955
 5913POPC   C4A 7794   5.084  35.306   7.655
 5913POPC   C1B 7795   5.237  35.186   8.555
 5913POPC   C2B 7796   5.263  35.151   8.255
 5913POPC   C3B 7797   5.284  35.163   7.955
 5913POPC   C4B 7798   5.269  35.185   7.655
 5914POPC   NC3 7799  17.555   9.699   9.455
 5914POPC   PO4 7800  17.508   9.794   9.155
 5914POPC   GL1 7801  17.514   9.730   8.855
 5914POPC   GL2 7802  17.668   9.819   8.855
 5914POPC   C1A 7803  17.518   9.759   8.555
 5914POPC   D2A 7804  17.531   9.740   8.255
 5914POPC   C3A 7805  17.533   9.737   7.955
 5914POPC   C4A 7806  17.532   9.770   7.655
 5914POPC   C1B 7807  17.757   9.807   8.555
 5914POPC   C2B 7808  17.779   9.775   8.255
 5914POPC   C3B 7809  17.741   9.799   7.955
 5914POPC   C4B 7810  17.725   9.823   7.655
 5915POPC   NC3 7811   9.704  13.610   9.455
 5915POPC   PO4 7812   9.759  13.602   9.155
 5915POPC   GL1 7813   9.699  13.621   8.855
 5915POPC   GL2 7814   9.646  13.525   8.855
 5915POPC   C1A 7815   9.745  13.673   8.555
 5915POPC   D2A 7816   9.760  13.591   8.255
 5915POPC   C3A 7817   9.774  13.594   7.955
 5915POPC   C4A 7818   9.720  13.586   7.655
 5915POPC   C1B 7819   9.590  13.405   8.555
 5915POPC   C2B 7820   9.641  13.470   8.255
 5915POPC   C3B 7821   9.566  13.425   7.955
 5915POPC   C4B 7822   9.613  13.391   7.655
 5916POPC   NC3 7823  36.943   5.856   9.455
 5916POPC   PO4 7824  36.861   5.896   9.155
 5916POPC   GL1 7825  36.952   5.861   8.855
 5916POPC   GL2 7826  36.900   6.038   8.855
 5916POPC   C1A 7827  36.873   5.913   8.555
 5916POPC   D2A 7828  36.923   5.878   8.255
 5916POPC   C3A 7829  36.858   5.896   7.955
 5916POPC   C4A 7830  36.885   5.862   7.655
 5916POPC   C1B 7831  36.892   6.161   8.555
 5916POPC   C2B 7832  36.905   6.068   8.255
 5916POPC   C3B 7833  36.852   6.104   7.955
 5916POPC   C4B 7834  36.850   6.074   7.655
 5917POPC   NC3 7835   1.212   5.059   9.455
 5917POPC   PO4 7836   1.247   5.100   9.155
 5917POPC   GL1 7837   1.202   5.083   8.855
 5917POPC   GL2 7838   1.116   5.103   8.855
 5917POPC   C1A 7839   1.254   5.052   8.555
 5917POPC   D2A 7840   1.175   5.109   8.255
 5917POPC   C3A 7841   1.200   5.087   7.955
 5917POPC   C4A 7842   1.214   5.052   7.655
 5917POPC   C1B 7843   1.027   5.177   8.555
 5917POPC   C2B 7844   0.962   5.157   8.255
 5917POPC   C3B 7845   1.003   5.224   7.955
 5917POPC   C4B 7846   0.999   5.209   7.655
 5918POPC   NC3 7847  29.907  35.383   9.455
 5918POPC   PO4 7848  29.908  35.363   9.155
 5918POPC   GL1 7849  29.965  35.392   8.855
 5918POPC   GL2 7850  29.998  35.231   8.855
 5918POPC   C1A 7851  29.911  35.394   8.555
 5918POPC   D2A 7852  29.909  35.389   8.255
 5918POPC   C3A 7853  29.897  35.346   7.955
 5918POPC   C4A 7854  29.904  35.371   7.655
 5918POPC   C1B 7855  30.060  35.148   8.555
 5918POPC   C2B 7856  30.107  35.143   8.255
 5918POPC   C3B 7857  30.061  35.158   7.955
 5918POPC   C4B 7858  30.073  35.194   7.655
 5919POPC   NC3 7859   4.362  17.546   9.455
 5919POPC   PO4 7860   4.272  17.491   9.155
 5919POPC   GL1 7861   4.336  17.544   8.855
 5919POPC   GL2 7862   4.414  17.402   8.855
 5919POPC   C1A 7863   4.330  17.464   8.555
 5919POPC   D2A 7864   4.356  17.534   8.255
 5919POPC   C3A 7865   4.337  17.499   7.955
 5919POPC   C4A 7866   4.317  17.556   7.655
 5919POPC   C1B 7867   4.558  17.333   8.555
 5919POPC   C2B 7868   4.489  17.348   8.255
 5919POPC   C3B 7869   4.557  17.318   7.955
 5919POPC   C4B 7870   4.505  17.336   7.655
 5920POPC   NC3 7871   7.437   2.741   9.455
 5920POPC   PO4 7872   7.439   2.720   9.155
 5920POPC   GL1 7873   7.455   2.730   8.855
 5920POPC   GL2 7874   7.341   2.689   8.855
 5920POPC   C1A 7875   7.384   2.775   8.555
 5920POPC   D2A 7876   7.418   2.742   8.255
 5920POPC   C3A 7877   7.388   2.756   7.955
 5920POPC   C4A 7878   7.443   2.746   7.655
 5920POPC   C1B 7879   7.181   2.701   8.555
 5920POPC   C2B 7880   7.206   2.633   8.255
 5920POPC   C3B 7881   7.216   2.648   7.955
 5920POPC   C4B 7882   7.188   2.616   7.655
 5921POPC   NC3 7883   0.487   1.250   9.455
 5921POPC   PO4 7884   0.409   1.258   9.155
 5921POPC   GL1 7885   0.450   1.250   8.855
 5921POPC   GL2 7886   0.351   1.134   8.855
 5921POPC   C1A 7887   0.440   1.206   8.555
 5921POPC   D2A 7888   0.484   1.175   8.255
 5921POPC   C3A 7889   0.486   1.202   7.955
 5921POPC   C4A 7890   0.480   1.195   7.655
 5921POPC   C1B 7891   0.220   1.094   8.555
 5921POPC   C2B 7892   0.224   1.115   8.255
 5921POPC   C3B 7893   0.177   1.086   7.955
 5921POPC   C4B 7894   0.200   1.074   7.655
 5922POPC   NC3 7895   7.417  33.047   9.455
 5922POPC   PO4 7896   7.453  33.012   9.155
 5922POPC   GL1 7897   7.455  33.072   8.855
 5922POPC   GL2 7898   7.319  33.088   8.855
 5922POPC   C1A 7899   7.399  32.977   8.555
 5922POPC   D2A 7900   7.384  32.993   8.255
 5922POPC   C3A 7901   7.439  33.030   7.955
 5922POPC   C4A 7902   7.446  32.999   7.655
 5922POPC   C1B 7903   7.287  33.158   8.555
 5922POPC   C2B 7904   7.219  33.159   8.255
 5922POPC   C3B 7905   7.210  33.196   7.955
 5922POPC   C4B 7906   7.291  33.231   7.655
 5923POPC   NC3 7907   9.706  43.135   9.455
 5923POPC   PO4 7908   9.776  43.121   9.155
 5923POPC   GL1 7909   9.752  43.080   8.855
 5923POPC   GL2 7910   9.838  43.151   8.855
 5923POPC   C1A 7911   9.710  43.062   8.555
 5923POPC   D2A 7912   9.731  43.116   8.255
 5923POPC   C3A 7913   9.746  43.104   7.955
 5923POPC   C4A 7914   9.726  43.088   7.655
 5923POPC   C1B 7915  10.007  43.235   8.555
 5923POPC   C2B 7916   9.971  43.196   8.255
 5923POPC   C3B 7917  10.024  43.185   7.955
 5923POPC   C4B 7918  10.031  43.168   7.655
 5924POPC   NC3 7919  25.293  31.430   9.455
 5924POPC   PO4 7920  25.231  31.444   9.155
 5924POPC   GL1 7921  25.241  31.435   8.855
 5924POPC   GL2 7922  25.381  31.472   8.855
 5924POPC   C1A 7923  25.224  31.500   8.555
 5924POPC   D2A 7924  25.231  31.457   8.255
 5924POPC   C3A 7925  25.247  31.504   7.955
 5924POPC   C4A 7926  25.306  31.449   7.655
 5924POPC   C1B 7927  25.509  31.524   8.555
 5924POPC   C2B 7928  25.524  31.551   8.255
 5924POPC   C3B 7929  25.498  31.588   7.955
 5924POPC   C4B 7930  25.547  31.587   7.655
 5925POPC   NC3 7931  33.016  32.985   9.455
 5925POPC   PO4 7932  32.986  33.053   9.155
 5925POPC   GL1 7933  32.992  33.064   8.855
 5925POPC   GL2 7934  33.068  33.106   8.855
 5925POPC   C1A 7935  32.995  33.005   8.555
 5925POPC   D2A 7936  33.056  32.986   8.255
 5925POPC   C3A 7937  32.978  33.029   7.955
 5925POPC   C4A 7938  32.988  33.074   7.655
 5925POPC   C1B 7939  33.174  33.269   8.555
 5925POPC   C2B 7940  33.093  33.205   8.255
 5925POPC   C3B 7941  33.121  33.238   7.955
 5925POPC   C4B 7942  33.134  33.205   7.655
 5926POPC   NC3 7943  41.546  18.256   9.455
 5926POPC   PO4 7944  41.571  18.236   9.155
 5926POPC   GL1 7945  41.527  18.294   8.855
 5926POPC   GL2 7946  41.607  18.176   8.855
 5926POPC   C1A 7947  41.579  18.242   8.555
 5926POPC   D2A 7948  41.604  18.270   8.255
 5926POPC   C3A 7949  41.556  18.329   7.955
 5926POPC   C4A 7950  41.558  18.263   7.655
 5926POPC   C1B 7951  41.658  18.089   8.555
 5926POPC   C2B 7952  41.640  18.041   8.255
 5926POPC   C3B 7953  41.626  18.100   7.955
 5926POPC   C4B 7954  41.675  18.027   7.655
 5927POPC   NC3 7955  22.185  35.371   9.455
 5927POPC   PO4 7956  22.211  35.311   9.155
 5927POPC   GL1 7957  22.116  35.348   8.855
 5927POPC   GL2 7958  22.288  35.217   8.855
 5927POPC   C1A 7959  22.205  35.331   8.555
 5927POPC   D2A 7960  22.140  35.363   8.255
 5927POPC   C3A 7961  22.184  35.388   7.955
 5927POPC   C4A 7962  22.175  35.384   7.655
 5927POPC   C1B 7963  22.362  35.214   8.555
 5927POPC   C2B 7964  22.372  35.142   8.255
 5927POPC   C3B 7965  22.352  35.144   7.955
 5927POPC   C4B 7966  22.320  35.119   7.655
 5928POPC   NC3 7967  38.420   5.822   9.455
 5928POPC   PO4 7968  38.455   5.896   9.155
 5928POPC   GL1 7969  38.448   5.857   8.855
 5928POPC   GL2 7970  38.368   5.723   8.855
 5928POPC   C1A 7971  38.431   5.836   8.555
 5928POPC   D2A 7972  38.407   5.861   8.255
 5928POPC   C3A 7973  38.494   5.824   7.955
 5928POPC   C4A 7974  38.421   5.821   7.655
 5928POPC   C1B 7975  38.288   5.636   8.555
 5928POPC   C2B 7976  38.258   5.629   8.255
 5928POPC   C3B 7977  38.307   5.707   7.955
 5928POPC   C4B 7978  38.302   5.635   7.655
 5929POPC   NC3 7979   0.451  32.977   9.455
 5929POPC   PO4 7980   0.389  33.052   9.155
 5929POPC   GL1 7981   0.480  33.057   8.855
 5929POPC   GL2 7982   0.575  33.045   8.855
 5929POPC   C1A 7983   0.391  32.991   8.555
 5929POPC   D2A 7984   0.420  33.017   8.255
 5929POPC   C3A 7985   0.472  33.003   7.955
 5929POPC   C4A 7986   0.426  33.069   7.655
 5929POPC   C1B 7987   0.707  33.129   8.555
 5929POPC   C2B 7988   0.719  33.161   8.255
 5929POPC   C3B 7989   0.642  33.157   7.955
 5929POPC   C4B 7990   0.671  33.073   7.655
 5930POPC   NC3 7991  44.690  20.616   9.455
 5930POPC   PO4 7992  44.696  20.620   9.155
 5930POPC   GL1 7993  44.622  20.583   8.855
 5930POPC   GL2 7994  44.755  20.669   8.855
 5930POPC   C1A 7995  44.675  20.569   8.555
 5930POPC   D2A 7996  44.641  20.643   8.255
 5930POPC   C3A 7997  44.620  20.607   7.955
 5930POPC   C4A 7998  44.622  20.577   7.655
 5930POPC   C1B 7999  44.877  20.675   8.555
 5930POPC   C2B 8000  44.880  20.698   8.255
 5930POPC   C3B 8001  44.930  20.664   7.955
 5930POPC   C4B 8002  44.913  20.725   7.655
 5931POPC   NC3 8003  26.828  34.546   9.455
 5931POPC   PO4 8004  26.786  34.553   9.155
 5931POPC   GL1 8005  26.852  34.540   8.855
 5931POPC   GL2 8006  26.701  34.448   8.855
 5931POPC   C1A 8007  26.820  34.577   8.555
 5931POPC   D2A 8008  26.865  34.621   8.255
 5931POPC   C3A 8009  26.817  34.621   7.955
 5931POPC   C4A 8010  26.847  34.532   7.655
 5931POPC   C1B 8011  26.690  34.344   8.555
 5931POPC   C2B 8012  26.694  34.370   8.255
 5931POPC   C3B 8013  26.656  34.363   7.955
 5931POPC   C4B 8014  26.632  34.353   7.655
 5932POPC   NC3 8015  29.961   1.236   9.455
 5932POPC   PO4 8016  29.927   1.198   9.155
 5932POPC   GL1 8017  29.918   1.201   8.855
 5932POPC   GL2 8018  29.871   1.122   8.855
 5932POPC   C1A 8019  29.905   1.169   8.555
 5932POPC   D2A 8020  29.914   1.180   8.255
 5932POPC   C3A 8021  29.968   1.226   7.955
 5932POPC   C4A 8022  29.902   1.196   7.655
 5932POPC   C1B 8023  29.760   1.000   8.555
 5932POPC   C2B 8024  29.747   1.025   8.255
 5932POPC   C3B 8025  29.712   0.990   7.955
 5932POPC   C4B 8026  29.710   1.070   7.655
 5933POPC   NC3 8027  32.991   8.185   9.455
 5933POPC   PO4 8028  33.040   8.229   9.155
 5933POPC   GL1 8029  32.975   8.242   8.855
 5933POPC   GL2 8030  32.951   8.139   8.855
 5933POPC   C1A 8031  33.035   8.221   8.555
 5933POPC   D2A 8032  33.048   8.171   8.255
 5933POPC   C3A 8033  33.052   8.187   7.955
 5933POPC   C4A 8034  32.993   8.180   7.655
 5933POPC   C1B 8035  32.891   7.987   8.555
 5933POPC   C2B 8036  32.880   7.977   8.255
 5933POPC   C3B 8037  32.837   8.058   7.955
 5933POPC   C4B 8038  32.815   8.009   7.655
 5934POPC   NC3 8039  39.969  36.949   9.455
 5934POPC   PO4 8040  40.000  36.860   9.155
 5934POPC   GL1 8041  40.043  36.950   8.855
 5934POPC   GL2 8042  40.103  36.902   8.855
 5934POPC   C1A 8043  40.007  36.921   8.555
 5934POPC   D2A 8044  39.991  36.873   8.255
 5934POPC   C3A 8045  39.980  36.905   7.955
 5934POPC   C4A 8046  40.055  36.941   7.655
 5934POPC   C1B 8047  40.255  36.855   8.555
 5934POPC   C2B 8048  40.214  36.868   8.255
 5934POPC   C3B 8049  40.249  36.893   7.955
 5934POPC   C4B 8050  40.230  36.876   7.655
 5935POPC   NC3 8051  10.515  36.088   9.455
 5935POPC   PO4 8052  10.557  36.105   9.155
 5935POPC   GL1 8053  10.519  36.095   8.855
 5935POPC   GL2 8054  10.395  36.070   8.855
 5935POPC   C1A 8055  10.475  36.103   8.555
 5935POPC   D2A 8056  10.539  36.173   8.255
 5935POPC   C3A 8057  10.509  36.156   7.955
 5935POPC   C4A 8058  10.536  36.107   7.655
 5935POPC   C1B 8059  10.314  36.098   8.555
 5935POPC   C2B 8060  10.311  36.094   8.255
 5935POPC   C3B 8061  10.309  36.046   7.955
 5935POPC   C4B 8062  10.243  36.024   7.655
 5936POPC   NC3 8063  36.878  28.343   9.455
 5936POPC   PO4 8064  36.860  28.351   9.155
 5936POPC   GL1 8065  36.865  28.409   8.855
 5936POPC   GL2 8066  36.905  28.249   8.855
 5936POPC   C1A 8067  36.893  28.326   8.555
 5936POPC   D2A 8068  36.908  28.376   8.255
 5936POPC   C3A 8069  36.880  28.404   7.955
 5936POPC   C4A 8070  36.949  28.372   7.655
 5936POPC   C1B 8071  37.032  28.126   8.555
 5936POPC   C2B 8072  37.016  28.149   8.255
 5936POPC   C3B 8073  36.984  28.115   7.955
 5936POPC   C4B 8074  36.979  28.132   7.655
 5937POPC   NC3 8075   5.867  39.249   9.455
 5937POPC   PO4 8076   5.871  39.259   9.155
 5937POPC   GL1 8077   5.852  39.263   8.855
 5937POPC   GL2 8078   5.835  39.392   8.855
 5937POPC   C1A 8079   5.892  39.265   8.555
 5937POPC   D2A 8080   5.919  39.260   8.255
 5937POPC   C3A 8081   5.889  39.206   7.955
 5937POPC   C4A 8082   5.828  39.238   7.655
 5937POPC   C1B 8083   5.809  39.432   8.555
 5937POPC   C2B 8084   5.758  39.497   8.255
 5937POPC   C3B 8085   5.723  39.451   7.955
 5937POPC   C4B 8086   5.800  39.444   7.655
 5938POPC   NC3 8087  33.795  11.320   9.455
 5938POPC   PO4 8088  33.838  11.272   9.155
 5938POPC   GL1 8089  33.796  11.322   8.855
 5938POPC   GL2 8090  33.655  11.274   8.855
 5938POPC   C1A 8091  33.846  11.326   8.555
 5938POPC   D2A 8092  33.823  11.316   8.255
 5938POPC   C3A 8093  33.768  11.350   7.955
 5938POPC   C4A 8094  33.754  11.275   7.655
 5938POPC   C1B 8095  33.631  11.181   8.555
 5938POPC   C2B 8096  33.537  11.149   8.255
 5938POPC   C3B 8097  33.584  11.207   7.955
 5938POPC   C4B 8098  33.551  11.182   7.655
 5939POPC   NC3 8099   5.858  31.517   9.455
 5939POPC   PO4 8100   5.839  31.430   9.155
 5939POPC   GL1 8101   5.874  31.434   8.855
 5939POPC   GL2 8102   6.009  31.478   8.855
 5939POPC   C1A 8103   5.892  31.514   8.555
 5939POPC   D2A 8104   5.866  31.438   8.255
 5939POPC   C3A 8105   5.906  31.467   7.955
 5939POPC   C4A 8106   5.897  31.505   7.655
 5939POPC   C1B 8107   6.101  31.511   8.555
 5939POPC   C2B 8108   6.135  31.568   8.255
 5939POPC   C3B 8109   6.120  31.512   7.955
 5939POPC   C4B 8110   6.130  31.498   7.655
 5940POPC   NC3 8111  20.641  27.641   9.455
 5940POPC   PO4 8112  20.619  27.549   9.155
 5940POPC   GL1 8113  20.631  27.587   8.855
 5940POPC   GL2 8114  20.492  27.609   8.855
 5940POPC   C1A 8115  20.601  27.547   8.555
 5940POPC   D2A 8116  20.588  27.638   8.255
 5940POPC   C3A 8117  20.599  27.605   7.955
 5940POPC   C4A 8118  20.609  27.558   7.655
 5940POPC   C1B 8119  20.398  27.702   8.555
 5940POPC   C2B 8120  20.420  27.738   8.255
 5940POPC   C3B 8121  20.431  27.676   7.955
 5940POPC   C4B 8122  20.424  27.697   7.655
 5941POPC   NC3 8123   5.821  34.596   9.455
 5941POPC   PO4 8124   5.893  34.556   9.155
 5941POPC   GL1 8125   5.899  34.586   8.855
 5941POPC   GL2 8126   5.768  34.566   8.855
 5941POPC   C1A 8127   5.894  34.593   8.555
 5941POPC   D2A 8128   5.909  34.598   8.255
 5941POPC   C3A 8129   5.892  34.598   7.955
 5941POPC   C4A 8130   5.912  34.556   7.655
 5941POPC   C1B 8131   5.603  34.559   8.555
 5941POPC   C2B 8132   5.634  34.492   8.255
 5941POPC   C3B 8133   5.671  34.515   7.955
 5941POPC   C4B 8134   5.637  34.527   7.655
 5942POPC   NC3 8135  41.555  41.577   9.455
 5942POPC   PO4 8136  41.599  41.513   9.155
 5942POPC   GL1 8137  41.535  41.555   8.855
 5942POPC   GL2 8138  41.624  41.635   8.855
 5942POPC   C1A 8139  41.535  41.605   8.555
 5942POPC   D2A 8140  41.509  41.545   8.255
 5942POPC   C3A 8141  41.527  41.607   7.955
 5942POPC   C4A 8142  41.522  41.510   7.655
 5942POPC   C1B 8143  41.666  41.750   8.555
 5942POPC   C2B 8144  41.626  41.842   8.255
 5942POPC   C3B 8145  41.685  41.807   7.955
 5942POPC   C4B 8146  41.597  41.804   7.655
 5943POPC   NC3 8147   9.717  32.256   9.455
 5943POPC   PO4 8148   9.753  32.232   9.155
 5943POPC   GL1 8149   9.715  32.242   8.855
 5943POPC   GL2 8150   9.679  32.340   8.855
 5943POPC   C1A 8151   9.758  32.265   8.555
 5943POPC   D2A 8152   9.797  32.204   8.255
 5943POPC   C3A 8153   9.774  32.287   7.955
 5943POPC   C4A 8154   9.724  32.249   7.655
 5943POPC   C1B 8155   9.544  32.450   8.555
 5943POPC   C2B 8156   9.561  32.468   8.255
 5943POPC   C3B 8157   9.608  32.436   7.955
 5943POPC   C4B 8158   9.549  32.431   7.655
 5944POPC   NC3 8159  29.929   7.375   9.455
 5944POPC   PO4 8160  29.955   7.383   9.155
 5944POPC   GL1 8161  29.925   7.421   8.855
 5944POPC   GL2 8162  29.997   7.339   8.855
 5944POPC   C1A 8163  29.899   7.451   8.555
 5944POPC   D2A 8164  29.955   7.447   8.255
 5944POPC   C3A 8165  29.896   7.461   7.955
 5944POPC   C4A 8166  29.957   7.415   7.655
 5944POPC   C1B 8167  30.120   7.317   8.555
 5944POPC   C2B 8168  30.118   7.340   8.255
 5944POPC   C3B 8169  30.208   7.335   7.955
 5944POPC   C4B 8170  30.171   7.311   7.655
 5945POPC   NC3 8171  43.852   9.701   9.455
 5945POPC   PO4 8172  43.925   9.782   9.155
 5945POPC   GL1 8173  43.920   9.724   8.855
 5945POPC   GL2 8174  43.965   9.599   8.855
 5945POPC   C1A 8175  43.878   9.757   8.555
 5945POPC   D2A 8176  43.864   9.793   8.255
 5945POPC   C3A 8177  43.902   9.726   7.955
 5945POPC   C4A 8178  43.913   9.713   7.655
 5945POPC   C1B 8179  44.000   9.520   8.555
 5945POPC   C2B 8180  43.999   9.472   8.255
 5945POPC   C3B 8181  43.953   9.537   7.955
 5945POPC   C4B 8182  43.928   9.498   7.655
 5946POPC   NC3 8183   3.530  17.522   9.455
 5946POPC   PO4 8184   3.578  17.482   9.155
 5946POPC   GL1 8185   3.496  17.528   8.855
 5946POPC   GL2 8186   3.564  17.371   8.855
 5946POPC   C1A 8187   3.528  17.498   8.555
 5946POPC   D2A 8188   3.534  17.549   8.255
 5946POPC   C3A 8189   3.496  17.518   7.955
 5946POPC   C4A 8190   3.501  17.528   7.655
 5946POPC   C1B 8191   3.586  17.216   8.555
 5946POPC   C2B 8192   3.505  17.276   8.255
 5946POPC   C3B 8193   3.517  17.271   7.955
 5946POPC   C4B 8194   3.504  17.231   7.655
 5947POPC   NC3 8195  36.094  24.529   9.455
 5947POPC   PO4 8196  36.101  24.500   9.155
 5947POPC   GL1 8197  36.145  24.469   8.855
 5947POPC   GL2 8198  36.225  24.376   8.855
 5947POPC   C1A 8199  36.152  24.506   8.555
 5947POPC   D2A 8200  36.122  24.477   8.255
 5947POPC   C3A 8201  36.107  24.534   7.955
 5947POPC   C4A 8202  36.089  24.446   7.655
 5947POPC   C1B 8203  36.186  24.295   8.555
 5947POPC   C2B 8204  36.188  24.302   8.255
 5947POPC   C3B 8205  36.252  24.272   7.955
 5947POPC   C4B 8206  36.224  24.267   7.655
 5948POPC   NC3 8207   8.983  14.400   9.455
 5948POPC   PO4 8208   8.928  14.415   9.155
 5948POPC   GL1 8209   8.948  14.363   8.855
 5948POPC   GL2 8210   8.961  14.496   8.855
 5948POPC   C1A 8211   8.939  14.429   8.555
 5948POPC   D2A 8212   8.928  14.376   8.255
 5948POPC   C3A 8213   8.958  14.377   7.955
 5948POPC   C4A 8214   8.969  14.359   7.655
 5948POPC   C1B 8215   8.913  14.662   8.555
 5948POPC   C2B 8216   8.943  14.616   8.255
 5948POPC   C3B 8217   8.895  14.643   7.955
 5948POPC   C4B 8218   8.891  14.649   7.655
 5949POPC   NC3 8219   9.785  39.985   9.455
 5949POPC   PO4 8220   9.770  40.024   9.155
 5949POPC   GL1 8221   9.786  39.959   8.855
 5949POPC   GL2 8222   9.818  39.865   8.855
 5949POPC   C1A 8223   9.768  40.045   8.555
 5949POPC   D2A 8224   9.751  40.014   8.255
 5949POPC   C3A 8225   9.740  40.018   7.955
 5949POPC   C4A 8226   9.727  40.007   7.655
 5949POPC   C1B 8227   9.869  39.833   8.555
 5949POPC   C2B 8228   9.856  39.822   8.255
 5949POPC   C3B 8229   9.862  39.820   7.955
 5949POPC   C4B 8230   9.879  39.803   7.655
 5950POPC   NC3 8231  15.989  32.224   9.455
 5950POPC   PO4 8232  15.910  32.273   9.155
 5950POPC   GL1 8233  15.955  32.250   8.855
 5950POPC   GL2 8234  15.856  32.317   8.855
 5950POPC   C1A 8235  15.969  32.199   8.555
 5950POPC   D2A 8236  15.985  32.234   8.255
 5950POPC   C3A 8237  15.915  32.285   7.955
 5950POPC   C4A 8238  15.983  32.258   7.655
 5950POPC   C1B 8239  15.686  32.365   8.555
 5950POPC   C2B 8240  15.726  32.341   8.255
 5950POPC   C3B 8241  15.691  32.325   7.955
 5950POPC   C4B 8242  15.715  32.344   7.655
 5951POPC   NC3 8243   0.435  24.475   9.455
 5951POPC   PO4 8244   0.455  24.526   9.155
 5951POPC   GL1 8245   0.410  24.524   8.855
 5951POPC   GL2 8246   0.483  24.353   8.855
 5951POPC   C1A 8247   0.455  24.515   8.555
 5951POPC   D2A 8248   0.440  24.508   8.255
 5951POPC   C3A 8249   0.461  24.469   7.955
 5951POPC   C4A 8250   0.454  24.511   7.655
 5951POPC   C1B 8251   0.487  24.249   8.555
 5951POPC   C2B 8252   0.476  24.263   8.255
 5951POPC   C3B 8253   0.508  24.289   7.955
 5951POPC   C4B 8254   0.503  24.231   7.655
 5952POPC   NC3 8255  24.472   5.898   9.455
 5952POPC   PO4 8256  24.448   5.916   9.155
 5952POPC   GL1 8257  24.444   5.871   8.855
 5952POPC   GL2 8258  24.597   5.937   8.855
 5952POPC   C1A 8259  24.447   5.827   8.555
 5952POPC   D2A 8260  24.515   5.878   8.255
 5952POPC   C3A 8261  24.446   5.901   7.955
 5952POPC   C4A 8262  24.501   5.899   7.655
 5952POPC   C1B 8263  24.653   5.953   8.555
 5952POPC   C2B 8264  24.704   5.968   8.255
 5952POPC   C3B 8265  24.676   5.962   7.955
 5952POPC   C4B 8266  24.685   5.996   7.655
 5953POPC   NC3 8267  30.727  43.884   9.455
 5953POPC   PO4 8268  30.731  43.906   9.155
 5953POPC   GL1 8269  30.650  43.867   8.855
 5953POPC   GL2 8270  30.672  43.784   8.855
 5953POPC   C1A 8271  30.701  43.934   8.555
 5953POPC   D2A 8272  30.739  43.900   8.255
 5953POPC   C3A 8273  30.679  43.876   7.955
 5953POPC   C4A 8274  30.717  43.932   7.655
 5953POPC   C1B 8275  30.707  43.603   8.555
 5953POPC   C2B 8276  30.754  43.604   8.255
 5953POPC   C3B 8277  30.761  43.669   7.955
 5953POPC   C4B 8278  30.739  43.658   7.655
 5954POPC   NC3 8279   5.894  23.755   9.455
 5954POPC   PO4 8280   5.888  23.745   9.155
 5954POPC   GL1 8281   5.863  23.761   8.855
 5954POPC   GL2 8282   5.844  23.819   8.855
 5954POPC   C1A 8283   5.900  23.679   8.555
 5954POPC   D2A 8284   5.827  23.703   8.255
 5954POPC   C3A 8285   5.878  23.731   7.955
 5954POPC   C4A 8286   5.883  23.723   7.655
 5954POPC   C1B 8287   5.735  23.935   8.555
 5954POPC   C2B 8288   5.775  23.932   8.255
 5954POPC   C3B 8289   5.738  23.961   7.955
 5954POPC   C4B 8290   5.710  23.927   7.655
 5955POPC   NC3 8291  41.578   8.951   9.455
 5955POPC   PO4 8292  41.527   8.976   9.155
 5955POPC   GL1 8293  41.603   8.974   8.855
 5955POPC   GL2 8294  41.660   8.911   8.855
 5955POPC   C1A 8295  41.567   8.936   8.555
 5955POPC   D2A 8296  41.572   8.942   8.255
 5955POPC   C3A 8297  41.537   8.993   7.955
 5955POPC   C4A 8298  41.549   8.939   7.655
 5955POPC   C1B 8299  41.642   8.738   8.555
 5955POPC   C2B 8300  41.641   8.789   8.255
 5955POPC   C3B 8301  41.720   8.705   7.955
 5955POPC   C4B 8302  41.634   8.765   7.655
 5956POPC   NC3 8303  43.884  17.461   9.455
 5956POPC   PO4 8304  43.851  17.514   9.155
 5956POPC   GL1 8305  43.887  17.539   8.855
 5956POPC   GL2 8306  44.025  17.544   8.855
 5956POPC   C1A 8307  43.845  17.548   8.555
 5956POPC   D2A 8308  43.850  17.512   8.255
 5956POPC   C3A 8309  43.900  17.528   7.955
 5956POPC   C4A 8310  43.865  17.492   7.655
 5956POPC   C1B 8311  44.161  17.516   8.555
 5956POPC   C2B 8312  44.170  17.531   8.255
 5956POPC   C3B 8313  44.125  17.566   7.955
 5956POPC   C4B 8314  44.116  17.592   7.655
 5957POPC   NC3 8315  28.417  19.104   9.455
 5957POPC   PO4 8316  28.410  19.092   9.155
 5957POPC   GL1 8317  28.329  19.037   8.855
 5957POPC   GL2 8318  28.318  19.186   8.855
 5957POPC   C1A 8319  28.370  19.075   8.555
 5957POPC   D2A 8320  28.323  19.062   8.255
 5957POPC   C3A 8321  28.391  19.069   7.955
 5957POPC   C4A 8322  28.320  19.097   7.655
 5957POPC   C1B 8323  28.262  19.253   8.555
 5957POPC   C2B 8324  28.300  19.313   8.255
 5957POPC   C3B 8325  28.286  19.338   7.955
 5957POPC   C4B 8326  28.268  19.277   7.655
 5958POPC   NC3 8327   6.645  23.700   9.455
 5958POPC   PO4 8328   6.609  23.734   9.155
 5958POPC   GL1 8329   6.692  23.739   8.855
 5958POPC   GL2 8330   6.603  23.797   8.855
 5958POPC   C1A 8331   6.687  23.728   8.555
 5958POPC   D2A 8332   6.634  23.753   8.255
 5958POPC   C3A 8333   6.660  23.687   7.955
 5958POPC   C4A 8334   6.637  23.719   7.655
 5958POPC   C1B 8335   6.426  23.858   8.555
 5958POPC   C2B 8336   6.492  23.865   8.255
 5958POPC   C3B 8337   6.460  23.912   7.955
 5958POPC   C4B 8338   6.452  23.910   7.655
 5959POPC   NC3 8339  29.923   2.747   9.455
 5959POPC   PO4 8340  29.921   2.734   9.155
 5959POPC   GL1 8341  29.882   2.770   8.855
 5959POPC   GL2 8342  29.798   2.865   8.855
 5959POPC   C1A 8343  29.928   2.787   8.555
 5959POPC   D2A 8344  29.967   2.718   8.255
 5959POPC   C3A 8345  29.888   2.727   7.955
 5959POPC   C4A 8346  29.915   2.741   7.655
 5959POPC   C1B 8347  29.744   2.932   8.555
 5959POPC   C2B 8348  29.736   2.945   8.255
 5959POPC   C3B 8349  29.786   2.969   7.955
 5959POPC   C4B 8350  29.771   3.013   7.655
 5960POPC   NC3 8351  26.834   1.193   9.455
 5960POPC   PO4 8352  26.771   1.242   9.155
 5960POPC   GL1 8353  26.822   1.251   8.855
 5960POPC   GL2 8354  26.866   1.088   8.855
 5960POPC   C1A 8355  26.867   1.184   8.555
 5960POPC   D2A 8356  26.832   1.241   8.255
 5960POPC   C3A 8357  26.810   1.172   7.955
 5960POPC   C4A 8358  26.849   1.208   7.655
 5960POPC   C1B 8359  26.930   1.070   8.555
 5960POPC   C2B 8360  26.975   1.046   8.255
 5960POPC   C3B 8361  26.949   1.030   7.955
 5960POPC   C4B 8362  26.968   1.072   7.655
 5961POPC   NC3 8363  11.344  35.355   9.455
 5961POPC   PO4 8364  11.347  35.383   9.155
 5961POPC   GL1 8365  11.281  35.323   8.855
 5961POPC   GL2 8366  11.187  35.278   8.855
 5961POPC   C1A 8367  11.315  35.392   8.555
 5961POPC   D2A 8368  11.315  35.390   8.255
 5961POPC   C3A 8369  11.250  35.305   7.955
 5961POPC   C4A 8370  11.330  35.386   7.655
 5961POPC   C1B 8371  11.144  35.164   8.555
 5961POPC   C2B 8372  11.095  35.195   8.255
 5961POPC   C3B 8373  11.080  35.194   7.955
 5961POPC   C4B 8374  11.159  35.180   7.655
 5962POPC   NC3 8375  10.479  43.852   9.455
 5962POPC   PO4 8376  10.526  43.840   9.155
 5962POPC   GL1 8377  10.521  43.850   8.855
 5962POPC   GL2 8378  10.452  43.803   8.855
 5962POPC   C1A 8379  10.493  43.841   8.555
 5962POPC   D2A 8380  10.520  43.903   8.255
 5962POPC   C3A 8381  10.569  43.932   7.955
 5962POPC   C4A 8382  10.552  43.885   7.655
 5962POPC   C1B 8383  10.332  43.740   8.555
 5962POPC   C2B 8384  10.330  43.673   8.255
 5962POPC   C3B 8385  10.320  43.684   7.955
 5962POPC   C4B 8386  10.378  43.703   7.655
 5963POPC   NC3 8387  22.924  28.404   9.455
 5963POPC   PO4 8388  22.926  28.395   9.155
 5963POPC   GL1 8389  22.932  28.358   8.855
 5963POPC   GL2 8390  22.765  28.404   8.855
 5963POPC   C1A 8391  22.936  28.401   8.555
 5963POPC   D2A 8392  22.946  28.414   8.255
 5963POPC   C3A 8393  22.909  28.337   7.955
 5963POPC   C4A 8394  22.979  28.389   7.655
 5963POPC   C1B 8395  22.687  28.451   8.555
 5963POPC   C2B 8396  22.655  28.379   8.255
 5963POPC   C3B 8397  22.666  28.402   7.955
 5963POPC   C4B 8398  22.644  28.466   7.655
 5964POPC   NC3 8399  16.719   1.979   9.455
 5964POPC   PO4 8400  16.747   1.947   9.155
 5964POPC   GL1 8401  16.686   2.000   8.855
 5964POPC   GL2 8402  16.776   2.089   8.855
 5964POPC   C1A 8403  16.752   2.019   8.555
 5964POPC   D2A 8404  16.749   1.995   8.255
 5964POPC   C3A 8405  16.692   2.025   7.955
 5964POPC   C4A 8406  16.765   2.011   7.655
 5964POPC   C1B 8407  16.878   2.222   8.555
 5964POPC   C2B 8408  16.940   2.154   8.255
 5964POPC   C3B 8409  16.892   2.198   7.955
 5964POPC   C4B 8410  16.877   2.138   7.655
 5965POPC   NC3 8411  41.565  33.045   9.455
 5965POPC   PO4 8412  41.581  33.058   9.155
 5965POPC   GL1 8413  41.604  33.069   8.855
 5965POPC   GL2 8414  41.490  33.092   8.855
 5965POPC   C1A 8415  41.533  33.051   8.555
 5965POPC   D2A 8416  41.563  33.059   8.255
 5965POPC   C3A 8417  41.587  33.072   7.955
 5965POPC   C4A 8418  41.586  32.978   7.655
 5965POPC   C1B 8419  41.452  33.217   8.555
 5965POPC   C2B 8420  41.391  33.249   8.255
 5965POPC   C3B 8421  41.392  33.264   7.955
 5965POPC   C4B 8422  41.424  33.278   7.655
 5966POPC   NC3 8423  14.395  12.833   9.455
 5966POPC   PO4 8424  14.449  12.855   9.155
 5966POPC   GL1 8425  14.377  12.859   8.855
 5966POPC   GL2 8426  14.290  12.830   8.855
 5966POPC   C1A 8427  14.414  12.837   8.555
 5966POPC   D2A 8428  14.365  12.807   8.255
 5966POPC   C3A 8429  14.388  12.817   7.955
 5966POPC   C4A 8430  14.453  12.811   7.655
 5966POPC   C1B 8431  14.199  12.833   8.555
 5966POPC   C2B 8432  14.131  12.830   8.255
 5966POPC   C3B 8433  14.163  12.773   7.955
 5966POPC   C4B 8434  14.158  12.836   7.655
 5967POPC   NC3 8435  14.416   9.716   9.455
 5967POPC   PO4 8436  14.401   9.758   9.155
 5967POPC   GL1 8437  14.437   9.759   8.855
 5967POPC   GL2 8438  14.283   9.786   8.855
 5967POPC   C1A 8439  14.368   9.740   8.555
 5967POPC   D2A 8440  14.413   9.745   8.255
 5967POPC   C3A 8441  14.358   9.796   7.955
 5967POPC   C4A 8442  14.397   9.716   7.655
 5967POPC   C1B 8443  14.164   9.824   8.555
 5967POPC   C2B 8444  14.190   9.771   8.255
 5967POPC   C3B 8445  14.153   9.775   7.955
 5967POPC   C4B 8446  14.158   9.807   7.655
 5968POPC   NC3 8447  41.590  43.864   9.455
 5968POPC   PO4 8448  41.542  43.900   9.155
 5968POPC   GL1 8449  41.591  43.908   8.855
 5968POPC   GL2 8450  41.525  43.753   8.855
 5968POPC   C1A 8451  41.517  43.839   8.555
 5968POPC   D2A 8452  41.597  43.851   8.255
 5968POPC   C3A 8453  41.585  43.854   7.955
 5968POPC   C4A 8454  41.540  43.910   7.655
 5968POPC   C1B 8455  41.463  43.638   8.555
 5968POPC   C2B 8456  41.534  43.652   8.255
 5968POPC   C3B 8457  41.531  43.615   7.955
 5968POPC   C4B 8458  41.497  43.629   7.655
 5969POPC   NC3 8459  44.673  31.453   9.455
 5969POPC   PO4 8460  44.628  31.515   9.155
 5969POPC   GL1 8461  44.622  31.458   8.855
 5969POPC   GL2 8462  44.618  31.632   8.855
 5969POPC   C1A 8463  44.645  31.517   8.555
 5969POPC   D2A 8464  44.613  31.489   8.255
 5969POPC   C3A 8465  44.658  31.510   7.955
 5969POPC   C4A 8466  44.652  31.425   7.655
 5969POPC   C1B 8467  44.578  31.661   8.555
 5969POPC   C2B 8468  44.555  31.682   8.255
 5969POPC   C3B 8469  44.612  31.739   7.955
 5969POPC   C4B 8470  44.562  31.718   7.655
 5970POPC   NC3 8471  24.528  29.889   9.455
 5970POPC   PO4 8472  24.537  29.941   9.155
 5970POPC   GL1 8473  24.524  29.915   8.855
 5970POPC   GL2 8474  24.449  30.001   8.855
 5970POPC   C1A 8475  24.473  29.968   8.555
 5970POPC   D2A 8476  24.527  29.969   8.255
 5970POPC   C3A 8477  24.467  29.900   7.955
 5970POPC   C4A 8478  24.498  29.919   7.655
 5970POPC   C1B 8479  24.384  30.127   8.555
 5970POPC   C2B 8480  24.402  30.165   8.255
 5970POPC   C3B 8481  24.373  30.169   7.955
 5970POPC   C4B 8482  24.321  30.169   7.655
 5971POPC   NC3 8483   0.428  26.793   9.455
 5971POPC   PO4 8484   0.463  26.767   9.155
 5971POPC   GL1 8485   0.436  26.792   8.855
 5971POPC   GL2 8486   0.484  26.875   8.855
 5971POPC   C1A 8487   0.485  26.834   8.555
 5971POPC   D2A 8488   0.413  26.797   8.255
 5971POPC   C3A 8489   0.438  26.799   7.955
 5971POPC   C4A 8490   0.427  26.851   7.655
 5971POPC   C1B 8491   0.629  26.975   8.555
 5971POPC   C2B 8492   0.590  27.011   8.255
 5971POPC   C3B 8493   0.599  26.962   7.955
 5971POPC   C4B 8494   0.661  27.011   7.655
 5972POPC   NC3 8495  30.709  33.026   9.455
 5972POPC   PO4 8496  30.704  32.994   9.155
 5972POPC   GL1 8497  30.653  33.003   8.855
 5972POPC   GL2 8498  30.768  32.877   8.855
 5972POPC   C1A 8499  30.691  33.028   8.555
 5972POPC   D2A 8500  30.661  32.994   8.255
 5972POPC   C3A 8501  30.663  33.005   7.955
 5972POPC   C4A 8502  30.739  33.071   7.655
 5972POPC   C1B 8503  30.755  32.837   8.555
 5972POPC   C2B 8504  30.827  32.784   8.255
 5972POPC   C3B 8505  30.750  32.803   7.955
 5972POPC   C4B 8506  30.784  32.805   7.655
 5973POPC   NC3 8507  13.650   1.220   9.455
 5973POPC   PO4 8508  13.655   1.244   9.155
 5973POPC   GL1 8509  13.597   1.226   8.855
 5973POPC   GL2 8510  13.498   1.101   8.855
 5973POPC   C1A 8511  13.588   1.254   8.555
 5973POPC   D2A 8512  13.637   1.210   8.255
 5973POPC   C3A 8513  13.634   1.249   7.955
 5973POPC   C4A 8514  13.666   1.244   7.655
 5973POPC   C1B 8515  13.420   0.996   8.555
 5973POPC   C2B 8516  13.495   1.012   8.255
 5973POPC   C3B 8517  13.496   1.018   7.955
 5973POPC   C4B 8518  13.488   1.032   7.655
 5974POPC   NC3 8519  19.055  36.165   9.455
 5974POPC   PO4 8520  19.064  36.111   9.155
 5974POPC   GL1 8521  19.025  36.114   8.855
 5974POPC   GL2 8522  19.122  36.223   8.855
 5974POPC   C1A 8523  19.082  36.134   8.555
 5974POPC   D2A 8524  19.014  36.175   8.255
 5974POPC   C3A 8525  19.037  36.117   7.955
 5974POPC   C4A 8526  19.051  36.173   7.655
 5974POPC   C1B 8527  19.115  36.404   8.555
 5974POPC   C2B 8528  19.118  36.403   8.255
 5974POPC   C3B 8529  19.069  36.324   7.955
 5974POPC   C4B 8530  19.150  36.334   7.655
 5975POPC   NC3 8531   9.724   2.005   9.455
 5975POPC   PO4 8532   9.699   1.997   9.155
 5975POPC   GL1 8533   9.709   1.982   8.855
 5975POPC   GL2 8534   9.766   1.864   8.855
 5975POPC   C1A 8535   9.750   2.027   8.555
 5975POPC   D2A 8536   9.760   1.975   8.255
 5975POPC   C3A 8537   9.735   2.003   7.955
 5975POPC   C4A 8538   9.775   1.995   7.655
 5975POPC   C1B 8539   9.666   1.738   8.555
 5975POPC   C2B 8540   9.721   1.780   8.255
 5975POPC   C3B 8541   9.750   1.782   7.955
 5975POPC   C4B 8542   9.715   1.709   7.655
 5976POPC   NC3 8543  33.766   1.179   9.455
 5976POPC   PO4 8544  33.774   1.199   9.155
 5976POPC   GL1 8545  33.820   1.190   8.855
 5976POPC   GL2 8546  33.698   1.238   8.855
 5976POPC   C1A 8547  33.782   1.216   8.555
 5976POPC   D2A 8548  33.779   1.178   8.255
 5976POPC   C3A 8549  33.796   1.257   7.955
 5976POPC   C4A 8550  33.821   1.215   7.655
 5976POPC   C1B 8551  33.570   1.331   8.555
 5976POPC   C2B 8552  33.616   1.357   8.255
 5976POPC   C3B 8553  33.548   1.313   7.955
 5976POPC   C4B 8554  33.569   1.296   7.655
 5977POPC   NC3 8555   9.714  33.837   9.455
 5977POPC   PO4 8556   9.706  33.772   9.155
 5977POPC   GL1 8557   9.784  33.806   8.855
 5977POPC   GL2 8558   9.612  33.802   8.855
 5977POPC   C1A 8559   9.716  33.829   8.555
 5977POPC   D2A 8560   9.708  33.768   8.255
 5977POPC   C3A 8561   9.746  33.797   7.955
 5977POPC   C4A 8562   9.702  33.812   7.655
 5977POPC   C1B 8563   9.486  33.828   8.555
 5977POPC   C2B 8564   9.480  33.829   8.255
 5977POPC   C3B 8565   9.494  33.782   7.955
 5977POPC   C4B 8566   9.502  33.784   7.655
 5978POPC   NC3 8567   0.463   5.891   9.455
 5978POPC   PO4 8568   0.455   5.876   9.155
 5978POPC   GL1 8569   0.461   5.898   8.855
 5978POPC   GL2 8570   0.315   5.806   8.855
 5978POPC   C1A 8571   0.483   5.861   8.555
 5978POPC   D2A 8572   0.470   5.819   8.255
 5978POPC   C3A 8573   0.453   5.911   7.955
 5978POPC   C4A 8574   0.448   5.905   7.655
 5978POPC   C1B 8575   0.206   5.744   8.555
 5978POPC   C2B 8576   0.172   5.789   8.255
 5978POPC   C3B 8577   0.164   5.773   7.955
 5978POPC   C4B 8578   0.177   5.776   7.655
 5979POPC   NC3 8579  33.801  16.695   9.455
 5979POPC   PO4 8580  33.828  16.760   9.155
 5979POPC   GL1 8581  33.759  16.734   8.855
 5979POPC   GL2 8582  33.824  16.799   8.855
 5979POPC   C1A 8583  33.787  16.723   8.555
 5979POPC   D2A 8584  33.766  16.686   8.255
 5979POPC   C3A 8585  33.817  16.734   7.955
 5979POPC   C4A 8586  33.838  16.683   7.655
 5979POPC   C1B 8587  33.913  16.927   8.555
 5979POPC   C2B 8588  33.890  16.954   8.255
 5979POPC   C3B 8589  33.919  17.009   7.955
 5979POPC   C4B 8590  33.895  16.939   7.655
 5980POPC   NC3 8591  38.441  25.301   9.455
 5980POPC   PO4 8592  38.477  25.278   9.155
 5980POPC   GL1 8593  38.450  25.256   8.855
 5980POPC   GL2 8594  38.420  25.161   8.855
 5980POPC   C1A 8595  38.447  25.274   8.555
 5980POPC   D2A 8596  38.461  25.295   8.255
 5980POPC   C3A 8597  38.500  25.220   7.955
 5980POPC   C4A 8598  38.450  25.273   7.655
 5980POPC   C1B 8599  38.345  25.012   8.555
 5980POPC   C2B 8600  38.420  25.050   8.255
 5980POPC   C3B 8601  38.372  24.990   7.955
 5980POPC   C4B 8602  38.393  25.063   7.655
 5981POPC   NC3 8603  15.984  36.863   9.455
 5981POPC   PO4 8604  15.962  36.953   9.155
 5981POPC   GL1 8605  16.001  36.859   8.855
 5981POPC   GL2 8606  16.098  36.956   8.855
 5981POPC   C1A 8607  15.913  36.937   8.555
 5981POPC   D2A 8608  15.946  36.929   8.255
 5981POPC   C3A 8609  15.959  36.878   7.955
 5981POPC   C4A 8610  15.959  36.905   7.655
 5981POPC   C1B 8611  16.125  37.020   8.555
 5981POPC   C2B 8612  16.188  37.039   8.255
 5981POPC   C3B 8613  16.116  37.025   7.955
 5981POPC   C4B 8614  16.176  37.112   7.655
 5982POPC   NC3 8615   9.771  26.050   9.455
 5982POPC   PO4 8616   9.709  26.042   9.155
 5982POPC   GL1 8617   9.738  26.049   8.855
 5982POPC   GL2 8618   9.782  25.961   8.855
 5982POPC   C1A 8619   9.724  26.072   8.555
 5982POPC   D2A 8620   9.796  26.024   8.255
 5982POPC   C3A 8621   9.739  26.074   7.955
 5982POPC   C4A 8622   9.741  26.018   7.655
 5982POPC   C1B 8623   9.771  25.791   8.555
 5982POPC   C2B 8624   9.858  25.777   8.255
 5982POPC   C3B 8625   9.791  25.838   7.955
 5982POPC   C4B 8626   9.816  25.762   7.655
 5983POPC   NC3 8627  43.128  43.910   9.455
 5983POPC   PO4 8628  43.116  43.898   9.155
 5983POPC   GL1 8629  43.108  43.928   8.855
 5983POPC   GL2 8630  43.021  43.813   8.855
 5983POPC   C1A 8631  43.132  43.869   8.555
 5983POPC   D2A 8632  43.063  43.860   8.255
 5983POPC   C3A 8633  43.138  43.917   7.955
 5983POPC   C4A 8634  43.112  43.920   7.655
 5983POPC   C1B 8635  42.917  43.707   8.555
 5983POPC   C2B 8636  42.940  43.736   8.255
 5983POPC   C3B 8637  42.917  43.787   7.955
 5983POPC   C4B 8638  42.873  43.739   7.655
 5984POPC   NC3 8639  18.251  43.901   9.455
 5984POPC   PO4 8640  18.261  43.847   9.155
 5984POPC   GL1 8641  18.250  43.865   8.855
 5984POPC   GL2 8642  18.127  43.924   8.855
 5984POPC   C1A 8643  18.293  43.934   8.555
 5984POPC   D2A 8644  18.301  43.844   8.255
 5984POPC   C3A 8645  18.267  43.878   7.955
 5984POPC   C4A 8646  18.275  43.841   7.655
 5984POPC   C1B 8647  18.066  43.853   8.555
 5984POPC   C2B 8648  18.054  43.885   8.255
 5984POPC   C3B 8649  17.991  43.835   7.955
 5984POPC   C4B 8650  18.023  43.894   7.655
 5985POPC   NC3 8651  39.277  19.797   9.455
 5985POPC   PO4 8652  39.218  19.788   9.155
 5985POPC   GL1 8653  39.199  19.809   8.855
 5985POPC   GL2 8654  39.207  20.005   8.855
 5985POPC   C1A 8655  39.268  19.883   8.555
 5985POPC   D2A 8656  39.209  19.792   8.255
 5985POPC   C3A 8657  39.218  19.824   7.955
 5985POPC   C4A 8658  39.276  19.797   7.655
 5985POPC   C1B 8659  39.207  20.098   8.555
 5985POPC   C2B 8660  39.216  20.102   8.255
 5985POPC   C3B 8661  39.232  20.077   7.955
 5985POPC   C4B 8662  39.217  20.089   7.655
 5986POPC   NC3 8663   8.989   7.446   9.455
 5986POPC   PO4 8664   8.950   7.424   9.155
 5986POPC   GL1 8665   9.011   7.461   8.855
 5986POPC   GL2 8666   9.064   7.498   8.855
 5986POPC   C1A 8667   8.937   7.403   8.555
 5986POPC   D2A 8668   8.951   7.430   8.255
 5986POPC   C3A 8669   8.935   7.458   7.955
 5986POPC   C4A 8670   9.016   7.426   7.655
 5986POPC   C1B 8671   9.158   7.486   8.555
 5986POPC   C2B 8672   9.187   7.493   8.255
 5986POPC   C3B 8673   9.230   7.567   7.955
 5986POPC   C4B 8674   9.175   7.561   7.655
 5987POPC   NC3 8675  43.070  42.297   9.455
 5987POPC   PO4 8676  43.073  42.335   9.155
 5987POPC   GL1 8677  43.158  42.319   8.855
 5987POPC   GL2 8678  43.003  42.299   8.855
 5987POPC   C1A 8679  43.073  42.351   8.555
 5987POPC   D2A 8680  43.123  42.294   8.255
 5987POPC   C3A 8681  43.134  42.328   7.955
 5987POPC   C4A 8682  43.071  42.341   7.655
 5987POPC   C1B 8683  42.873  42.308   8.555
 5987POPC   C2B 8684  42.890  42.370   8.255
 5987POPC   C3B 8685  42.859  42.336   7.955
 5987POPC   C4B 8686  42.845  42.330   7.655
 5988POPC   NC3 8687  22.116   0.413   9.455
 5988POPC   PO4 8688  22.173   0.445   9.155
 5988POPC   GL1 8689  22.174   0.478   8.855
 5988POPC   GL2 8690  22.180   0.289   8.855
 5988POPC   C1A 8691  22.115   0.442   8.555
 5988POPC   D2A 8692  22.148   0.463   8.255
 5988POPC   C3A 8693  22.133   0.470   7.955
 5988POPC   C4A 8694  22.122   0.465   7.655
 5988POPC   C1B 8695  22.270   0.180   8.555
 5988POPC   C2B 8696  22.309   0.180   8.255
 5988POPC   C3B 8697  22.326   0.220   7.955
 5988POPC   C4B 8698  22.287   0.221   7.655
 5989POPC   NC3 8699  32.282  12.897   9.455
 5989POPC   PO4 8700  32.272  12.880   9.155
 5989POPC   GL1 8701  32.223  12.866   8.855
 5989POPC   GL2 8702  32.179  12.910   8.855
 5989POPC   C1A 8703  32.261  12.834   8.555
 5989POPC   D2A 8704  32.233  12.824   8.255
 5989POPC   C3A 8705  32.290  12.837   7.955
 5989POPC   C4A 8706  32.267  12.900   7.655
 5989POPC   C1B 8707  32.093  13.082   8.555
 5989POPC   C2B 8708  32.055  13.071   8.255
 5989POPC   C3B 8709  32.069  13.034   7.955
 5989POPC   C4B 8710  32.142  13.005   7.655
 5990POPC   NC3 8711  24.454   0.422   9.455
 5990POPC   PO4 8712  24.513   0.475   9.155
 5990POPC   GL1 8713  24.460   0.425   8.855
 5990POPC   GL2 8714  24.558   0.524   8.855
 5990POPC   C1A 8715  24.532   0.463   8.555
 5990POPC   D2A 8716  24.534   0.409   8.255
 5990POPC   C3A 8717  24.460   0.420   7.955
 5990POPC   C4A 8718  24.490   0.451   7.655
 5990POPC   C1B 8719  24.667   0.592   8.555
 5990POPC   C2B 8720  24.660   0.615   8.255
 5990POPC   C3B 8721  24.643   0.632   7.955
 5990POPC   C4B 8722  24.721   0.554   7.655
 5991POPC   NC3 8723   1.174   4.277   9.455
 5991POPC   PO4 8724   1.200   4.326   9.155
 5991POPC   GL1 8725   1.257   4.271   8.855
 5991POPC   GL2 8726   1.167   4.364   8.855
 5991POPC   C1A 8727   1.260   4.336   8.555
 5991POPC   D2A 8728   1.226   4.362   8.255
 5991POPC   C3A 8729   1.225   4.284   7.955
 5991POPC   C4A 8730   1.233   4.337   7.655
 5991POPC   C1B 8731   0.995   4.431   8.555
 5991POPC   C2B 8732   0.982   4.479   8.255
 5991POPC   C3B 8733   1.021   4.435   7.955
 5991POPC   C4B 8734   1.024   4.441   7.655
 5992POPC   NC3 8735   2.748   7.441   9.455
 5992POPC   PO4 8736   2.743   7.425   9.155
 5992POPC   GL1 8737   2.727   7.451   8.855
 5992POPC   GL2 8738   2.708   7.321   8.855
 5992POPC   C1A 8739   2.720   7.373   8.555
 5992POPC   D2A 8740   2.749   7.435   8.255
 5992POPC   C3A 8741   2.755   7.469   7.955
 5992POPC   C4A 8742   2.738   7.400   7.655
 5992POPC   C1B 8743   2.615   7.189   8.555
 5992POPC   C2B 8744   2.624   7.208   8.255
 5992POPC   C3B 8745   2.595   7.164   7.955
 5992POPC   C4B 8746   2.618   7.186   7.655
 5993POPC   NC3 8747  34.588   9.788   9.455
 5993POPC   PO4 8748  34.621   9.730   9.155
 5993POPC   GL1 8749  34.564   9.741   8.855
 5993POPC   GL2 8750  34.442   9.688   8.855
 5993POPC   C1A 8751  34.572   9.797   8.555
 5993POPC   D2A 8752  34.613   9.796   8.255
 5993POPC   C3A 8753  34.615   9.773   7.955
 5993POPC   C4A 8754  34.601   9.730   7.655
 5993POPC   C1B 8755  34.330   9.667   8.555
 5993POPC   C2B 8756  34.309   9.597   8.255
 5993POPC   C3B 8757  34.325   9.626   7.955
 5993POPC   C4B 8758  34.341   9.685   7.655
 5994POPC   NC3 8759  15.199   1.197   9.455
 5994POPC   PO4 8760  15.207   1.256   9.155
 5994POPC   GL1 8761  15.158   1.209   8.855
 5994POPC   GL2 8762  15.199   1.096   8.855
 5994POPC   C1A 8763  15.137   1.178   8.555
 5994POPC   D2A 8764  15.197   1.237   8.255
 5994POPC   C3A 8765  15.130   1.252   7.955
 5994POPC   C4A 8766  15.229   1.246   7.655
 5994POPC   C1B 8767  15.323   0.944   8.555
 5994POPC   C2B 8768  15.272   1.038   8.255
 5994POPC   C3B 8769  15.263   1.008   7.955
 5994POPC   C4B 8770  15.265   0.956   7.655
 5995POPC   NC3 8771  39.218   8.229   9.455
 5995POPC   PO4 8772  39.235   8.183   9.155
 5995POPC   GL1 8773  39.244   8.166   8.855
 5995POPC   GL2 8774  39.309   8.272   8.855
 5995POPC   C1A 8775  39.225   8.183   8.555
 5995POPC   D2A 8776  39.185   8.184   8.255
 5995POPC   C3A 8777  39.264   8.241   7.955
 5995POPC   C4A 8778  39.183   8.238   7.655
 5995POPC   C1B 8779  39.301   8.404   8.555
 5995POPC   C2B 8780  39.259   8.441   8.255
 5995POPC   C3B 8781  39.325   8.479   7.955
 5995POPC   C4B 8782  39.289   8.394   7.655
 5996POPC   NC3 8783  23.746  18.331   9.455
 5996POPC   PO4 8784  23.736  18.282   9.155
 5996POPC   GL1 8785  23.719  18.296   8.855
 5996POPC   GL2 8786  23.616  18.312   8.855
 5996POPC   C1A 8787  23.674  18.308   8.555
 5996POPC   D2A 8788  23.718  18.246   8.255
 5996POPC   C3A 8789  23.744  18.283   7.955
 5996POPC   C4A 8790  23.741  18.301   7.655
 5996POPC   C1B 8791  23.505  18.398   8.555
 5996POPC   C2B 8792  23.492  18.452   8.255
 5996POPC   C3B 8793  23.535  18.455   7.955
 5996POPC   C4B 8794  23.483  18.442   7.655
 5997POPC   NC3 8795  20.588  40.754   9.455
 5997POPC   PO4 8796  20.643  40.828   9.155
 5997POPC   GL1 8797  20.647  40.801   8.855
 5997POPC   GL2 8798  20.686  40.776   8.855
 5997POPC   C1A 8799  20.567  40.824   8.555
 5997POPC   D2A 8800  20.633  40.814   8.255
 5997POPC   C3A 8801  20.622  40.832   7.955
 5997POPC   C4A 8802  20.614  40.746   7.655
 5997POPC   C1B 8803  20.907  40.833   8.555
 5997POPC   C2B 8804  20.818  40.849   8.255
 5997POPC   C3B 8805  20.893  40.848   7.955
 5997POPC   C4B 8806  20.848  40.770   7.655
 5998POPC   NC3 8807  37.712  37.696   9.455
 5998POPC   PO4 8808  37.699  37.635   9.155
 5998POPC   GL1 8809  37.655  37.699   8.855
 5998POPC   GL2 8810  37.650  37.796   8.855
 5998POPC   C1A 8811  37.724  37.645   8.555
 5998POPC   D2A 8812  37.706  37.690   8.255
 5998POPC   C3A 8813  37.630  37.645   7.955
 5998POPC   C4A 8814  37.720  37.643   7.655
 5998POPC   C1B 8815  37.702  37.959   8.555
 5998POPC   C2B 8816  37.700  37.943   8.255
 5998POPC   C3B 8817  37.695  37.954   7.955
 5998POPC   C4B 8818  37.639  37.946   7.655
 5999POPC   NC3 8819  44.672   4.329   9.455
 5999POPC   PO4 8820  44.662   4.298   9.155
 5999POPC   GL1 8821  44.683   4.354   8.855
 5999POPC   GL2 8822  44.552   4.343   8.855
 5999POPC   C1A 8823  44.662   4.289   8.555
 5999POPC   D2A 8824  44.672   4.311   8.255
 5999POPC   C3A 8825  44.689   4.352   7.955
 5999POPC   C4A 8826  44.626   4.324   7.655
 5999POPC   C1B 8827  44.424   4.367   8.555
 5999POPC   C2B 8828  44.411   4.396   8.255
 5999POPC   C3B 8829  44.402   4.438   7.955
 5999POPC   C4B 8830  44.415   4.420   7.655
 6000POPC   NC3 8831  14.371  26.797   9.455
 6000POPC   PO4 8832  14.355  26.849   9.155
 6000POPC   GL1 8833  14.380  26.865   8.855
 6000POPC   GL2 8834  14.463  26.949   8.855
 6000POPC   C1A 8835  14.416  26.843   8.555
 6000POPC   D2A 8836  14.431  26.857   8.255
 6000POPC   C3A 8837  14.389  26.782   7.955
 6000POPC   C4A 8838  14.380  26.780   7.655
 6000POPC   C1B 8839  14.455  27.020   8.555
 6000POPC   C2B 8840  14.474  27.030   8.255
 6000POPC   C3B 8841  14.380  27.055   7.955
 6000POPC   C4B 8842  14.382  27.090   7.655
 6001POPC   NC3 8843  31.475  16.746   9.455
 6001POPC   PO4 8844  31.500  16.743   9.155
 6001POPC   GL1 8845  31.500  16.727   8.855
 6001POPC   GL2 8846  31.627  16.808   8.855
 6001POPC   C1A 8847  31.489  16.766   8.555
 6001POPC   D2A 8848  31.495  16.687   8.255
 6001POPC   C3A 8849  31.431  16.703   7.955
 6001POPC   C4A 8850  31.481  16.700   7.655
 6001POPC   C1B 8851  31.709  16.795   8.555
 6001POPC   C2B 8852  31.657  16.863   8.255
 6001POPC   C3B 8853  31.722  16.848   7.955
 6001POPC   C4B 8854  31.723  16.831   7.655
 6002POPC   NC3 8855  44.679  16.690   9.455
 6002POPC   PO4 8856  44.675  16.741   9.155
 6002POPC   GL1 8857  44.631  16.751   8.855
 6002POPC   GL2 8858  44.726  16.819   8.855
 6002POPC   C1A 8859  44.697  16.761   8.555
 6002POPC   D2A 8860  44.623  16.765   8.255
 6002POPC   C3A 8861  44.637  16.720   7.955
 6002POPC   C4A 8862  44.687  16.776   7.655
 6002POPC   C1B 8863  44.691  16.952   8.555
 6002POPC   C2B 8864  44.691  16.963   8.255
 6002POPC   C3B 8865  44.761  16.935   7.955
 6002POPC   C4B 8866  44.736  16.979   7.655
 6003POPC   NC3 8867  34.618  29.961   9.455
 6003POPC   PO4 8868  34.617  29.935   9.155
 6003POPC   GL1 8869  34.608  29.898   8.855
 6003POPC   GL2 8870  34.455  29.947   8.855
 6003POPC   C1A 8871  34.541  29.890   8.555
 6003POPC   D2A 8872  34.556  29.915   8.255
 6003POPC   C3A 8873  34.580  29.958   7.955
 6003POPC   C4A 8874  34.533  29.908   7.655
 6003POPC   C1B 8875  34.342  29.869   8.555
 6003POPC   C2B 8876  34.284  29.882   8.255
 6003POPC   C3B 8877  34.370  29.863   7.955
 6003POPC   C4B 8878  34.344  29.873   7.655
 6004POPC   NC3 8879  41.509  25.278   9.455
 6004POPC   PO4 8880  41.553  25.273   9.155
 6004POPC   GL1 8881  41.542  25.279   8.855
 6004POPC   GL2 8882  41.496  25.193   8.855
 6004POPC   C1A 8883  41.523  25.225   8.555
 6004POPC   D2A 8884  41.544  25.300   8.255
 6004POPC   C3A 8885  41.510  25.259   7.955
 6004POPC   C4A 8886  41.605  25.283   7.655
 6004POPC   C1B 8887  41.484  25.008   8.555
 6004POPC   C2B 8888  41.474  25.069   8.255
 6004POPC   C3B 8889  41.495  25.076   7.955
 6004POPC   C4B 8890  41.468  25.053   7.655
 6005POPC   NC3 8891   6.654  33.831   9.455
 6005POPC   PO4 8892   6.610  33.756   9.155
 6005POPC   GL1 8893   6.691  33.826   8.855
 6005POPC   GL2 8894   6.490  33.881   8.855
 6005POPC   C1A 8895   6.625  33.804   8.555
 6005POPC   D2A 8896   6.688  33.801   8.255
 6005POPC   C3A 8897   6.610  33.775   7.955
 6005POPC   C4A 8898   6.596  33.804   7.655
 6005POPC   C1B 8899   6.455  33.936   8.555
 6005POPC   C2B 8900   6.426  33.941   8.255
 6005POPC   C3B 8901   6.395  33.956   7.955
 6005POPC   C4B 8902   6.437  33.935   7.655
 6006POPC   NC3 8903  35.330  15.217   9.455
 6006POPC   PO4 8904  35.350  15.170   9.155
 6006POPC   GL1 8905  35.390  15.193   8.855
 6006POPC   GL2 8906  35.262  15.136   8.855
 6006POPC   C1A 8907  35.322  15.134   8.555
 6006POPC   D2A 8908  35.362  15.226   8.255
 6006POPC   C3A 8909  35.319  15.208   7.955
 6006POPC   C4A 8910  35.331  15.141   7.655
 6006POPC   C1B 8911  35.127  15.013   8.555
 6006POPC   C2B 8912  35.130  14.987   8.255
 6006POPC   C3B 8913  35.117  15.027   7.955
 6006POPC   C4B 8914  35.128  15.032   7.655
 6007POPC   NC3 8915  41.545  29.879   9.455
 6007POPC   PO4 8916  41.532  29.894   9.155
 6007POPC   GL1 8917  41.530  29.912   8.855
 6007POPC   GL2 8918  41.458  29.895   8.855
 6007POPC   C1A 8919  41.587  29.892   8.555
 6007POPC   D2A 8920  41.590  29.871   8.255
 6007POPC   C3A 8921  41.577  29.875   7.955
 6007POPC   C4A 8922  41.543  29.887   7.655
 6007POPC   C1B 8923  41.308  29.903   8.555
 6007POPC   C2B 8924  41.301  29.933   8.255
 6007POPC   C3B 8925  41.349  29.984   7.955
 6007POPC   C4B 8926  41.290  29.968   7.655
 6008POPC   NC3 8927  40.743  19.030   9.455
 6008POPC   PO4 8928  40.779  19.072   9.155
 6008POPC   GL1 8929  40.806  19.013   8.855
 6008POPC   GL2 8930  40.872  19.009   8.855
 6008POPC   C1A 8931  40.764  19.046   8.555
 6008POPC   D2A 8932  40.742  19.020   8.255
 6008POPC   C3A 8933  40.776  19.053   7.955
 6008POPC   C4A 8934  40.768  19.025   7.655
 6008POPC   C1B 8935  40.980  18.855   8.555
 6008POPC   C2B 8936  40.959  18.923   8.255
 6008POPC   C3B 8937  40.997  18.879   7.955
 6008POPC   C4B 8938  40.976  18.875   7.655
 6009POPC   NC3 8939   9.769  39.194   9.455
 6009POPC   PO4 8940   9.737  39.255   9.155
 6009POPC   GL1 8941   9.789  39.206   8.855
 6009POPC   GL2 8942   9.907  39.177   8.855
 6009POPC   C1A 8943   9.739  39.226   8.555
 6009POPC   D2A 8944   9.751  39.275   8.255
 6009POPC   C3A 8945   9.778  39.203   7.955
 6009POPC   C4A 8946   9.722  39.229   7.655
 6009POPC   C1B 8947  10.035  39.191   8.555
 6009POPC   C2B 8948   9.976  39.179   8.255
 6009POPC   C3B 8949   9.982  39.224   7.955
 6009POPC   C4B 8950  10.010  39.214   7.655
 6010POPC   NC3 8951  15.936  33.058   9.455
 6010POPC   PO4 8952  15.984  32.981   9.155
 6010POPC   GL1 8953  15.968  33.057   8.855
 6010POPC   GL2 8954  16.022  32.911   8.855
 6010POPC   C1A 8955  15.944  32.976   8.555
 6010POPC   D2A 8956  16.003  32.977   8.255
 6010POPC   C3A 8957  15.969  33.049   7.955
 6010POPC   C4A 8958  15.920  33.019   7.655
 6010POPC   C1B 8959  16.119  32.867   8.555
 6010POPC   C2B 8960  16.145  32.830   8.255
 6010POPC   C3B 8961  16.153  32.823   7.955
 6010POPC   C4B 8962  16.132  32.798   7.655
 6011POPC   NC3 8963  34.586  13.610   9.455
 6011POPC   PO4 8964  34.540  13.581   9.155
 6011POPC   GL1 8965  34.550  13.661   8.855
 6011POPC   GL2 8966  34.596  13.512   8.855
 6011POPC   C1A 8967  34.561  13.616   8.555
 6011POPC   D2A 8968  34.621  13.608   8.255
 6011POPC   C3A 8969  34.582  13.608   7.955
 6011POPC   C4A 8970  34.615  13.590   7.655
 6011POPC   C1B 8971  34.561  13.419   8.555
 6011POPC   C2B 8972  34.581  13.343   8.255
 6011POPC   C3B 8973  34.526  13.356   7.955
 6011POPC   C4B 8974  34.588  13.336   7.655
 6012POPC   NC3 8975  16.744   8.220   9.455
 6012POPC   PO4 8976  16.711   8.183   9.155
 6012POPC   GL1 8977  16.769   8.217   8.855
 6012POPC   GL2 8978  16.835   8.088   8.855
 6012POPC   C1A 8979  16.758   8.213   8.555
 6012POPC   D2A 8980  16.738   8.222   8.255
 6012POPC   C3A 8981  16.698   8.245   7.955
 6012POPC   C4A 8982  16.728   8.243   7.655
 6012POPC   C1B 8983  16.880   7.965   8.555
 6012POPC   C2B 8984  16.849   7.964   8.255
 6012POPC   C3B 8985  16.858   8.005   7.955
 6012POPC   C4B 8986  16.847   7.963   7.655
 6013POPC   NC3 8987  40.756   8.163   9.455
 6013POPC   PO4 8988  40.762   8.226   9.155
 6013POPC   GL1 8989  40.759   8.198   8.855
 6013POPC   GL2 8990  40.882   8.112   8.855
 6013POPC   C1A 8991  40.755   8.183   8.555
 6013POPC   D2A 8992  40.790   8.208   8.255
 6013POPC   C3A 8993  40.770   8.219   7.955
 6013POPC   C4A 8994  40.798   8.184   7.655
 6013POPC   C1B 8995  40.962   8.043   8.555
 6013POPC   C2B 8996  40.971   8.120   8.255
 6013POPC   C3B 8997  41.032   8.035   7.955
 6013POPC   C4B 8998  41.027   8.113   7.655
 6014POPC   NC3 8999  35.311  41.608   9.455
 6014POPC   PO4 9000  35.401  41.511   9.155
 6014POPC   GL1 9001  35.353  41.543   8.855
 6014POPC   GL2 9002  35.291  41.668   8.855
 6014POPC   C1A 9003  35.388  41.510   8.555
 6014POPC   D2A 9004  35.387  41.560   8.255
 6014POPC   C3A 9005  35.305  41.590   7.955
 6014POPC   C4A 9006  35.397  41.542   7.655
 6014POPC   C1B 9007  35.351  41.790   8.555
 6014POPC   C2B 9008  35.325  41.833   8.255
 6014POPC   C3B 9009  35.333  41.774   7.955
 6014POPC   C4B 9010  35.358  41.794   7.655
 6015POPC   NC3 9011   8.232  38.406   9.455
 6015POPC   PO4 9012   8.156  38.418   9.155
 6015POPC   GL1 9013   8.214  38.466   8.855
 6015POPC   GL2 9014   8.286  38.512   8.855
 6015POPC   C1A 9015   8.167  38.449   8.555
 6015POPC   D2A 9016   8.219  38.447   8.255
 6015POPC   C3A 9017   8.175  38.440   7.955
 6015POPC   C4A 9018   8.235  38.462   7.655
 6015POPC   C1B 9019   8.465  38.564   8.555
 6015POPC   C2B 9020   8.383  38.538   8.255
 6015POPC   C3B 9021   8.397  38.511   7.955
 6015POPC   C4B 9022   8.469  38.499   7.655
 6016POPC   NC3 9023  42.373  26.797   9.455
 6016POPC   PO4 9024  42.311  26.836   9.155
 6016POPC   GL1 9025  42.295  26.830   8.855
 6016POPC   GL2 9026  42.340  26.730   8.855
 6016POPC   C1A 9027  42.318  26.824   8.555
 6016POPC   D2A 9028  42.288  26.837   8.255
 6016POPC   C3A 9029  42.355  26.778   7.955
 6016POPC   C4A 9030  42.362  26.847   7.655
 6016POPC   C1B 9031  42.245  26.553   8.555
 6016POPC   C2B 9032  42.313  26.548   8.255
 6016POPC   C3B 9033  42.272  26.570   7.955
 6016POPC   C4B 9034  42.272  26.552   7.655
 6017POPC   NC3 9035  16.746   9.772   9.455
 6017POPC   PO4 9036  16.705   9.710   9.155
 6017POPC   GL1 9037  16.697   9.791   8.855
 6017POPC   GL2 9038  16.635   9.710   8.855
 6017POPC   C1A 9039  16.754   9.778   8.555
 6017POPC   D2A 9040  16.736   9.703   8.255
 6017POPC   C3A 9041  16.725   9.733   7.955
 6017POPC   C4A 9042  16.776   9.707   7.655
 6017POPC   C1B 9043  16.438   9.740   8.555
 6017POPC   C2B 9044  16.493   9.723   8.255
 6017POPC   C3B 9045  16.455   9.735   7.955
 6017POPC   C4B 9046  16.498   9.789   7.655
 6018POPC   NC3 9047   0.450  21.342   9.455
 6018POPC   PO4 9048   0.482  21.386   9.155
 6018POPC   GL1 9049   0.451  21.340   8.855
 6018POPC   GL2 9050   0.511  21.459   8.855
 6018POPC   C1A 9051   0.439  21.363   8.555
 6018POPC   D2A 9052   0.414  21.433   8.255
 6018POPC   C3A 9053   0.485  21.373   7.955
 6018POPC   C4A 9054   0.436  21.342   7.655
 6018POPC   C1B 9055   0.532  21.626   8.555
 6018POPC   C2B 9056   0.543  21.581   8.255
 6018POPC   C3B 9057   0.578  21.652   7.955
 6018POPC   C4B 9058   0.583  21.609   7.655
 6019POPC   NC3 9059   1.247  19.812   9.455
 6019POPC   PO4 9060   1.213  19.793   9.155
 6019POPC   GL1 9061   1.168  19.836   8.855
 6019POPC   GL2 9062   1.368  19.852   8.855
 6019POPC   C1A 9063   1.216  19.785   8.555
 6019POPC   D2A 9064   1.223  19.806   8.255
 6019POPC   C3A 9065   1.206  19.864   7.955
 6019POPC   C4A 9066   1.259  19.801   7.655
 6019POPC   C1B 9067   1.473  19.754   8.555
 6019POPC   C2B 9068   1.466  19.748   8.255
 6019POPC   C3B 9069   1.454  19.796   7.955
 6019POPC   C4B 9070   1.506  19.753   7.655
 6020POPC   NC3 9071  27.561  18.308   9.455
 6020POPC   PO4 9072  27.563  18.236   9.155
 6020POPC   GL1 9073  27.564  18.254   8.855
 6020POPC   GL2 9074  27.672  18.353   8.855
 6020POPC   C1A 9075  27.622  18.246   8.555
 6020POPC   D2A 9076  27.599  18.306   8.255
 6020POPC   C3A 9077  27.579  18.255   7.955
 6020POPC   C4A 9078  27.565  18.286   7.655
 6020POPC   C1B 9079  27.805  18.422   8.555
 6020POPC   C2B 9080  27.797  18.344   8.255
 6020POPC   C3B 9081  27.784  18.382   7.955
 6020POPC   C4B 9082  27.807  18.377   7.655
 6021POPC   NC3 9083   9.773   5.884   9.455
 6021POPC   PO4 9084   9.701   5.885   9.155
 6021POPC   GL1 9085   9.740   5.830   8.855
 6021POPC   GL2 9086   9.712   5.970   8.855
 6021POPC   C1A 9087   9.776   5.870   8.555
 6021POPC   D2A 9088   9.767   5.876   8.255
 6021POPC   C3A 9089   9.771   5.830   7.955
 6021POPC   C4A 9090   9.703   5.854   7.655
 6021POPC   C1B 9091   9.658   6.052   8.555
 6021POPC   C2B 9092   9.693   6.074   8.255
 6021POPC   C3B 9093   9.686   6.143   7.955
 6021POPC   C4B 9094   9.628   6.142   7.655
 6022POPC   NC3 9095  25.241  26.068   9.455
 6022POPC   PO4 9096  25.294  26.035   9.155
 6022POPC   GL1 9097  25.241  26.017   8.855
 6022POPC   GL2 9098  25.393  26.129   8.855
 6022POPC   C1A 9099  25.257  26.048   8.555
 6022POPC   D2A 9100  25.270  26.089   8.255
 6022POPC   C3A 9101  25.263  26.060   7.955
 6022POPC   C4A 9102  25.292  26.035   7.655
 6022POPC   C1B 9103  25.404  26.225   8.555
 6022POPC   C2B 9104  25.398  26.259   8.255
 6022POPC   C3B 9105  25.486  26.266   7.955
 6022POPC   C4B 9106  25.464  26.227   7.655
 6023POPC   NC3 9107  13.647  19.015   9.455
 6023POPC   PO4 9108  13.675  19.065   9.155
 6023POPC   GL1 9109  13.608  19.034   8.855
 6023POPC   GL2 9110  13.467  19.019   8.855
 6023POPC   C1A 9111  13.647  19.019   8.555
 6023POPC   D2A 9112  13.655  19.048   8.255
 6023POPC   C3A 9113  13.608  19.011   7.955
 6023POPC   C4A 9114  13.623  19.044   7.655
 6023POPC   C1B 9115  13.405  19.039   8.555
 6023POPC   C2B 9116  13.415  19.035   8.255
 6023POPC   C3B 9117  13.381  19.023   7.955
 6023POPC   C4B 9118  13.378  19.053   7.655
 6024POPC   NC3 9119  15.981   2.772   9.455
 6024POPC   PO4 9120  15.946   2.797   9.155
 6024POPC   GL1 9121  15.964   2.722   8.855
 6024POPC   GL2 9122  16.050   2.780   8.855
 6024POPC   C1A 9123  15.915   2.763   8.555
 6024POPC   D2A 9124  15.938   2.758   8.255
 6024POPC   C3A 9125  15.995   2.744   7.955
 6024POPC   C4A 9126  15.999   2.799   7.655
 6024POPC   C1B 9127  16.233   2.683   8.555
 6024POPC   C2B 9128  16.186   2.670   8.255
 6024POPC   C3B 9129  16.194   2.701   7.955
 6024POPC   C4B 9130  16.232   2.661   7.655
 6025POPC   NC3 9131   0.450   7.458   9.455
 6025POPC   PO4 9132   0.466   7.442   9.155
 6025POPC   GL1 9133   0.401   7.382   8.855
 6025POPC   GL2 9134   0.597   7.369   8.855
 6025POPC   C1A 9135   0.389   7.393   8.555
 6025POPC   D2A 9136   0.408   7.426   8.255
 6025POPC   C3A 9137   0.435   7.405   7.955
 6025POPC   C4A 9138   0.480   7.394   7.655
 6025POPC   C1B 9139   0.638   7.408   8.555
 6025POPC   C2B 9140   0.717   7.338   8.255
 6025POPC   C3B 9141   0.718   7.360   7.955
 6025POPC   C4B 9142   0.707   7.392   7.655
 6026POPC   NC3 9143  44.705  23.673   9.455
 6026POPC   PO4 9144  44.703  23.668   9.155
 6026POPC   GL1 9145  44.637  23.667   8.855
 6026POPC   GL2 9146  44.584  23.606   8.855
 6026POPC   C1A 9147  44.679  23.725   8.555
 6026POPC   D2A 9148  44.696  23.736   8.255
 6026POPC   C3A 9149  44.683  23.748   7.955
 6026POPC   C4A 9150  44.703  23.745   7.655
 6026POPC   C1B 9151  44.458  23.556   8.555
 6026POPC   C2B 9152  44.459  23.544   8.255
 6026POPC   C3B 9153  44.523  23.551   7.955
 6026POPC   C4B 9154  44.464  23.554   7.655
 6027POPC   NC3 9155  31.500  15.190   9.455
 6027POPC   PO4 9156  31.461  15.208   9.155
 6027POPC   GL1 9157  31.505  15.193   8.855
 6027POPC   GL2 9158  31.405  15.109   8.855
 6027POPC   C1A 9159  31.514  15.221   8.555
 6027POPC   D2A 9160  31.508  15.184   8.255
 6027POPC   C3A 9161  31.483  15.164   7.955
 6027POPC   C4A 9162  31.512  15.178   7.655
 6027POPC   C1B 9163  31.342  14.923   8.555
 6027POPC   C2B 9164  31.358  14.920   8.255
 6027POPC   C3B 9165  31.330  14.949   7.955
 6027POPC   C4B 9166  31.408  14.998   7.655
 6028POPC   NC3 9167  11.327  32.227   9.455
 6028POPC   PO4 9168  11.296  32.256   9.155
 6028POPC   GL1 9169  11.347  32.258   8.855
 6028POPC   GL2 9170  11.207  32.148   8.855
 6028POPC   C1A 9171  11.288  32.289   8.555
 6028POPC   D2A 9172  11.281  32.203   8.255
 6028POPC   C3A 9173  11.314  32.251   7.955
 6028POPC   C4A 9174  11.324  32.264   7.655
 6028POPC   C1B 9175  11.096  32.083   8.555
 6028POPC   C2B 9176  11.071  32.061   8.255
 6028POPC   C3B 9177  11.100  32.046   7.955
 6028POPC   C4B 9178  11.170  32.106   7.655
 6029POPC   NC3 9179   1.972   5.136   9.455
 6029POPC   PO4 9180   2.037   5.115   9.155
 6029POPC   GL1 9181   1.968   5.071   8.855
 6029POPC   GL2 9182   2.116   5.041   8.855
 6029POPC   C1A 9183   1.957   5.086   8.555
 6029POPC   D2A 9184   1.977   5.108   8.255
 6029POPC   C3A 9185   2.000   5.098   7.955
 6029POPC   C4A 9186   1.974   5.064   7.655
 6029POPC   C1B 9187   2.245   5.042   8.555
 6029POPC   C2B 9188   2.225   4.967   8.255
 6029POPC   C3B 9189   2.192   5.011   7.955
 6029POPC   C4B 9190   2.198   4.957   7.655
 6030POPC   NC3 9191   9.770   9.708   9.455
 6030POPC   PO4 9192   9.737   9.776   9.155
 6030POPC   GL1 9193   9.699   9.773   8.855
 6030POPC   GL2 9194   9.838   9.714   8.855
 6030POPC   C1A 9195   9.740   9.797   8.555
 6030POPC   D2A 9196   9.764   9.779   8.255
 6030POPC   C3A 9197   9.706   9.791   7.955
 6030POPC   C4A 9198   9.755   9.715   7.655
 6030POPC   C1B 9199  10.000   9.663   8.555
 6030POPC   C2B 9200  10.012   9.672   8.255
 6030POPC   C3B 9201   9.934   9.620   7.955
 6030POPC   C4B 9202   9.991   9.624   7.655
 6031POPC   NC3 9203  39.999   5.113   9.455
 6031POPC   PO4 9204  40.046   5.091   9.155
 6031POPC   GL1 9205  40.017   5.043   8.855
 6031POPC   GL2 9206  40.093   4.990   8.855
 6031POPC   C1A 9207  39.969   5.117   8.555
 6031POPC   D2A 9208  39.997   5.051   8.255
 6031POPC   C3A 9209  39.981   5.074   7.955
 6031POPC   C4A 9210  39.972   5.087   7.655
 6031POPC   C1B 9211  40.131   4.867   8.555
 6031POPC   C2B 9212  40.121   4.815   8.255
 6031POPC   C3B 9213  40.072   4.835   7.955
 6031POPC   C4B 9214  40.076   4.814   7.655
 6032POPC   NC3 9215  13.618  22.952   9.455
 6032POPC   PO4 9216  13.644  22.959   9.155
 6032POPC   GL1 9217  13.597  22.891   8.855
 6032POPC   GL2 9218  13.746  22.987   8.855
 6032POPC   C1A 9219  13.656  22.923   8.555
 6032POPC   D2A 9220  13.616  22.892   8.255
 6032POPC   C3A 9221  13.635  22.945   7.955
 6032POPC   C4A 9222  13.583  22.973   7.655
 6032POPC   C1B 9223  13.884  23.057   8.555
 6032POPC   C2B 9224  13.871  23.094   8.255
 6032POPC   C3B 9225  13.885  23.024   7.955
 6032POPC   C4B 9226  13.805  23.051   7.655
 6033POPC   NC3 9227  23.704   1.971   9.455
 6033POPC   PO4 9228  23.716   1.977   9.155
 6033POPC   GL1 9229  23.726   1.994   8.855
 6033POPC   GL2 9230  23.747   1.846   8.855
 6033POPC   C1A 9231  23.673   2.027   8.555
 6033POPC   D2A 9232  23.710   2.016   8.255
 6033POPC   C3A 9233  23.711   2.026   7.955
 6033POPC   C4A 9234  23.699   1.978   7.655
 6033POPC   C1B 9235  23.714   1.779   8.555
 6033POPC   C2B 9236  23.685   1.700   8.255
 6033POPC   C3B 9237  23.714   1.777   7.955
 6033POPC   C4B 9238  23.716   1.696   7.655
 6034POPC   NC3 9239  27.575  23.726   9.455
 6034POPC   PO4 9240  27.556  23.711   9.155
 6034POPC   GL1 9241  27.586  23.722   8.855
 6034POPC   GL2 9242  27.463  23.851   8.855
 6034POPC   C1A 9243  27.563  23.763   8.555
 6034POPC   D2A 9244  27.642  23.728   8.255
 6034POPC   C3A 9245  27.560  23.725   7.955
 6034POPC   C4A 9246  27.565  23.739   7.655
 6034POPC   C1B 9247  27.456  23.875   8.555
 6034POPC   C2B 9248  27.451  23.934   8.255
 6034POPC   C3B 9249  27.409  23.909   7.955
 6034POPC   C4B 9250  27.383  23.916   7.655
 6035POPC   NC3 9251   2.030  11.256   9.455
 6035POPC   PO4 9252   2.004  11.343   9.155
 6035POPC   GL1 9253   1.983  11.337   8.855
 6035POPC   GL2 9254   2.110  11.338   8.855
 6035POPC   C1A 9255   1.973  11.270   8.555
 6035POPC   D2A 9256   1.948  11.278   8.255
 6035POPC   C3A 9257   1.976  11.303   7.955
 6035POPC   C4A 9258   2.013  11.285   7.655
 6035POPC   C1B 9259   2.258  11.402   8.555
 6035POPC   C2B 9260   2.264  11.353   8.255
 6035POPC   C3B 9261   2.274  11.362   7.955
 6035POPC   C4B 9262   2.232  11.360   7.655
 6036POPC   NC3 9263  40.745  42.293   9.455
 6036POPC   PO4 9264  40.774  42.299   9.155
 6036POPC   GL1 9265  40.819  42.314   8.855
 6036POPC   GL2 9266  40.789  42.404   8.855
 6036POPC   C1A 9267  40.775  42.371   8.555
 6036POPC   D2A 9268  40.802  42.295   8.255
 6036POPC   C3A 9269  40.818  42.330   7.955
 6036POPC   C4A 9270  40.831  42.368   7.655
 6036POPC   C1B 9271  40.873  42.598   8.555
 6036POPC   C2B 9272  40.939  42.605   8.255
 6036POPC   C3B 9273  40.876  42.523   7.955
 6036POPC   C4B 9274  40.871  42.544   7.655
 6037POPC   NC3 9275  32.257  43.877   9.455
 6037POPC   PO4 9276  32.247  43.848   9.155
 6037POPC   GL1 9277  32.245  43.895   8.855
 6037POPC   GL2 9278  32.195  43.760   8.855
 6037POPC   C1A 9279  32.282  43.885   8.555
 6037POPC   D2A 9280  32.269  43.923   8.255
 6037POPC   C3A 9281  32.273  43.863   7.955
 6037POPC   C4A 9282  32.224  43.877   7.655
 6037POPC   C1B 9283  32.163  43.631   8.555
 6037POPC   C2B 9284  32.212  43.635   8.255
 6037POPC   C3B 9285  32.148  43.606   7.955
 6037POPC   C4B 9286  32.216  43.662   7.655
 6038POPC   NC3 9287  36.140  14.364   9.455
 6038POPC   PO4 9288  36.094  14.357   9.155
 6038POPC   GL1 9289  36.166  14.404   8.855
 6038POPC   GL2 9290  36.167  14.507   8.855
 6038POPC   C1A 9291  36.121  14.394   8.555
 6038POPC   D2A 9292  36.164  14.356   8.255
 6038POPC   C3A 9293  36.157  14.402   7.955
 6038POPC   C4A 9294  36.133  14.407   7.655
 6038POPC   C1B 9295  36.304  14.621   8.555
 6038POPC   C2B 9296  36.291  14.596   8.255
 6038POPC   C3B 9297  36.298  14.586   7.955
 6038POPC   C4B 9298  36.253  14.640   7.655
 6039POPC   NC3 9299  40.827  13.620   9.455
 6039POPC   PO4 9300  40.797  13.628   9.155
 6039POPC   GL1 9301  40.784  13.634   8.855
 6039POPC   GL2 9302  40.680  13.537   8.855
 6039POPC   C1A 9303  40.763  13.598   8.555
 6039POPC   D2A 9304  40.793  13.582   8.255
 6039POPC   C3A 9305  40.821  13.662   7.955
 6039POPC   C4A 9306  40.751  13.677   7.655
 6039POPC   C1B 9307  40.621  13.519   8.555
 6039POPC   C2B 9308  40.595  13.480   8.255
 6039POPC   C3B 9309  40.537  13.512   7.955
 6039POPC   C4B 9310  40.611  13.442   7.655
 6040POPC   NC3 9311  22.126  29.885   9.455
 6040POPC   PO4 9312  22.180  29.892   9.155
 6040POPC   GL1 9313  22.128  29.902   8.855
 6040POPC   GL2 9314  22.080  29.809   8.855
 6040POPC   C1A 9315  22.134  29.905   8.555
 6040POPC   D2A 9316  22.147  29.960   8.255
 6040POPC   C3A 9317  22.138  29.899   7.955
 6040POPC   C4A 9318  22.117  29.882   7.655
 6040POPC   C1B 9319  22.001  29.710   8.555
 6040POPC   C2B 9320  22.087  29.685   8.255
 6040POPC   C3B 9321  22.045  29.655   7.955
 6040POPC   C4B 9322  22.037  29.713   7.655
 6041POPC   NC3 9323   8.959   3.552   9.455
 6041POPC   PO4 9324   8.956   3.562   9.155
 6041POPC   GL1 9325   9.007   3.507   8.855
 6041POPC   GL2 9326   9.037   3.485   8.855
 6041POPC   C1A 9327   9.019   3.561   8.555
 6041POPC   D2A 9328   8.991   3.579   8.255
 6041POPC   C3A 9329   9.018   3.545   7.955
 6041POPC   C4A 9330   9.012   3.561   7.655
 6041POPC   C1B 9331   9.237   3.462   8.555
 6041POPC   C2B 9332   9.242   3.481   8.255
 6041POPC   C3B 9333   9.246   3.405   7.955
 6041POPC   C4B 9334   9.238   3.478   7.655
 6042POPC   NC3 9335   3.511  44.688   9.455
 6042POPC   PO4 9336   3.554  44.667   9.155
 6042POPC   GL1 9337   3.506  44.706   8.855
 6042POPC   GL2 9338   3.449  44.649   8.855
 6042POPC   C1A 9339   3.559  44.684   8.555
 6042POPC   D2A 9340   3.498  44.704   8.255
 6042POPC   C3A 9341   3.522  44.629   7.955
 6042POPC   C4A 9342   3.507  44.640   7.655
 6042POPC   C1B 9343   3.319  44.708   8.555
 6042POPC   C2B 9344   3.332  44.713   8.255
 6042POPC   C3B 9345   3.312  44.706   7.955
 6042POPC   C4B 9346   3.272  44.762   7.655
 6043POPC   NC3 9347  18.323   7.463   9.455
 6043POPC   PO4 9348  18.277   7.392   9.155
 6043POPC   GL1 9349  18.249   7.444   8.855
 6043POPC   GL2 9350  18.310   7.267   8.855
 6043POPC   C1A 9351  18.267   7.394   8.555
 6043POPC   D2A 9352  18.332   7.383   8.255
 6043POPC   C3A 9353  18.240   7.457   7.955
 6043POPC   C4A 9354  18.307   7.388   7.655
 6043POPC   C1B 9355  18.448   7.237   8.555
 6043POPC   C2B 9356  18.412   7.184   8.255
 6043POPC   C3B 9357  18.372   7.191   7.955
 6043POPC   C4B 9358  18.409   7.242   7.655
 6044POPC   NC3 9359   8.212  34.559   9.455
 6044POPC   PO4 9360   8.204  34.535   9.155
 6044POPC   GL1 9361   8.198  34.577   8.855
 6044POPC   GL2 9362   8.266  34.597   8.855
 6044POPC   C1A 9363   8.166  34.565   8.555
 6044POPC   D2A 9364   8.234  34.581   8.255
 6044POPC   C3A 9365   8.160  34.527   7.955
 6044POPC   C4A 9366   8.178  34.585   7.655
 6044POPC   C1B 9367   8.385  34.655   8.555
 6044POPC   C2B 9368   8.382  34.691   8.255
 6044POPC   C3B 9369   8.397  34.688   7.955
 6044POPC   C4B 9370   8.416  34.731   7.655
 6045POPC   NC3 9371  19.049  22.172   9.455
 6045POPC   PO4 9372  19.056  22.173   9.155
 6045POPC   GL1 9373  19.064  22.157   8.855
 6045POPC   GL2 9374  18.914  22.202   8.855
 6045POPC   C1A 9375  19.017  22.149   8.555
 6045POPC   D2A 9376  19.044  22.159   8.255
 6045POPC   C3A 9377  19.093  22.138   7.955
 6045POPC   C4A 9378  19.096  22.114   7.655
 6045POPC   C1B 9379  18.850  22.189   8.555
 6045POPC   C2B 9380  18.812  22.225   8.255
 6045POPC   C3B 9381  18.807  22.165   7.955
 6045POPC   C4B 9382  18.854  22.173   7.655
 6046POPC   NC3 9383   8.977  29.108   9.455
 6046POPC   PO4 9384   8.947  29.162   9.155
 6046POPC   GL1 9385   9.008  29.175   8.855
 6046POPC   GL2 9386   8.986  28.997   8.855
 6046POPC   C1A 9387   8.965  29.102   8.555
 6046POPC   D2A 9388   8.987  29.106   8.255
 6046POPC   C3A 9389   9.022  29.191   7.955
 6046POPC   C4A 9390   8.997  29.151   7.655
 6046POPC   C1B 9391   8.981  28.847   8.555
 6046POPC   C2B 9392   8.999  28.922   8.255
 6046POPC   C3B 9393   9.014  28.875   7.955
 6046POPC   C4B 9394   8.958  28.914   7.655
 6047POPC   NC3 9395  39.260  26.809   9.455
 6047POPC   PO4 9396  39.195  26.848   9.155
 6047POPC   GL1 9397  39.196  26.835   8.855
 6047POPC   GL2 9398  39.172  26.895   8.855
 6047POPC   C1A 9399  39.220  26.820   8.555
 6047POPC   D2A 9400  39.216  26.811   8.255
 6047POPC   C3A 9401  39.192  26.769   7.955
 6047POPC   C4A 9402  39.276  26.856   7.655
 6047POPC   C1B 9403  39.159  27.054   8.555
 6047POPC   C2B 9404  39.168  27.093   8.255
 6047POPC   C3B 9405  39.084  27.091   7.955
 6047POPC   C4B 9406  39.129  27.046   7.655
 6048POPC   NC3 9407  35.348  15.976   9.455
 6048POPC   PO4 9408  35.351  15.930   9.155
 6048POPC   GL1 9409  35.347  15.966   8.855
 6048POPC   GL2 9410  35.423  15.894   8.855
 6048POPC   C1A 9411  35.339  15.959   8.555
 6048POPC   D2A 9412  35.351  15.952   8.255
 6048POPC   C3A 9413  35.381  15.988   7.955
 6048POPC   C4A 9414  35.356  15.931   7.655
 6048POPC   C1B 9415  35.546  15.880   8.555
 6048POPC   C2B 9416  35.533  15.809   8.255
 6048POPC   C3B 9417  35.576  15.821   7.955
 6048POPC   C4B 9418  35.578  15.871   7.655
 6049POPC   NC3 9419  33.842  20.640   9.455
 6049POPC   PO4 9420  33.763  20.633   9.155
 6049POPC   GL1 9421  33.822  20.592   8.855
 6049POPC   GL2 9422  33.775  20.459   8.855
 6049POPC   C1A 9423  33.815  20.607   8.555
 6049POPC   D2A 9424  33.805  20.659   8.255
 6049POPC   C3A 9425  33.759  20.624   7.955
 6049POPC   C4A 9426  33.784  20.644   7.655
 6049POPC   C1B 9427  33.814  20.390   8.555
 6049POPC   C2B 9428  33.757  20.371   8.255
 6049POPC   C3B 9429  33.750  20.314   7.955
 6049POPC   C4B 9430  33.823  20.406   7.655
 6050POPC   NC3 9431  14.409  15.909   9.455
 6050POPC   PO4 9432  14.408  15.943   9.155
 6050POPC   GL1 9433  14.392  15.941   8.855
 6050POPC   GL2 9434  14.483  16.123   8.855
 6050POPC   C1A 9435  14.408  15.944   8.555
 6050POPC   D2A 9436  14.371  15.984   8.255
 6050POPC   C3A 9437  14.418  15.950   7.955
 6050POPC   C4A 9438  14.447  15.981   7.655
 6050POPC   C1B 9439  14.482  16.245   8.555
 6050POPC   C2B 9440  14.451  16.239   8.255
 6050POPC   C3B 9441  14.500  16.225   7.955
 6050POPC   C4B 9442  14.434  16.148   7.655
 6051POPC   NC3 9443  29.140  44.700   9.455
 6051POPC   PO4 9444  29.155  44.623   9.155
 6051POPC   GL1 9445  29.157  44.664   8.855
 6051POPC   GL2 9446  29.029  44.723   8.855
 6051POPC   C1A 9447  29.144  44.634   8.555
 6051POPC   D2A 9448  29.177  44.658   8.255
 6051POPC   C3A 9449  29.103  44.662   7.955
 6051POPC   C4A 9450  29.192  44.621   7.655
 6051POPC   C1B 9451  28.913  44.750   8.555
 6051POPC   C2B 9452  28.938  44.793   8.255
 6051POPC   C3B 9453  28.869  44.723   7.955
 6051POPC   C4B 9454  28.923  44.781   7.655
 6052POPC   NC3 9455   7.382  12.051   9.455
 6052POPC   PO4 9456   7.396  12.029   9.155
 6052POPC   GL1 9457   7.466  12.063   8.855
 6052POPC   GL2 9458   7.342  12.027   8.855
 6052POPC   C1A 9459   7.445  12.085   8.555
 6052POPC   D2A 9460   7.379  12.046   8.255
 6052POPC   C3A 9461   7.463  12.077   7.955
 6052POPC   C4A 9462   7.397  12.073   7.655
 6052POPC   C1B 9463   7.246  11.894   8.555
 6052POPC   C2B 9464   7.248  11.869   8.255
 6052POPC   C3B 9465   7.268  11.920   7.955
 6052POPC   C4B 9466   7.220  11.877   7.655
 6053POPC   NC3 9467  11.341  38.490   9.455
 6053POPC   PO4 9468  11.259  38.425   9.155
 6053POPC   GL1 9469  11.333  38.425   8.855
 6053POPC   GL2 9470  11.412  38.458   8.855
 6053POPC   C1A 9471  11.285  38.457   8.555
 6053POPC   D2A 9472  11.327  38.455   8.255
 6053POPC   C3A 9473  11.325  38.435   7.955
 6053POPC   C4A 9474  11.316  38.473   7.655
 6053POPC   C1B 9475  11.577  38.474   8.555
 6053POPC   C2B 9476  11.536  38.481   8.255
 6053POPC   C3B 9477  11.539  38.490   7.955
 6053POPC   C4B 9478  11.561  38.468   7.655
 6054POPC   NC3 9479  15.215  14.406   9.455
 6054POPC   PO4 9480  15.212  14.380   9.155
 6054POPC   GL1 9481  15.185  14.400   8.855
 6054POPC   GL2 9482  15.173  14.484   8.855
 6054POPC   C1A 9483  15.166  14.363   8.555
 6054POPC   D2A 9484  15.198  14.358   8.255
 6054POPC   C3A 9485  15.189  14.420   7.955
 6054POPC   C4A 9486  15.131  14.374   7.655
 6054POPC   C1B 9487  15.220  14.600   8.555
 6054POPC   C2B 9488  15.218  14.653   8.255
 6054POPC   C3B 9489  15.203  14.604   7.955
 6054POPC   C4B 9490  15.187  14.614   7.655
 6055POPC   NC3 9491   7.429   4.338   9.455
 6055POPC   PO4 9492   7.379   4.300   9.155
 6055POPC   GL1 9493   7.426   4.353   8.855
 6055POPC   GL2 9494   7.314   4.199   8.855
 6055POPC   C1A 9495   7.395   4.268   8.555
 6055POPC   D2A 9496   7.417   4.343   8.255
 6055POPC   C3A 9497   7.406   4.296   7.955
 6055POPC   C4A 9498   7.382   4.300   7.655
 6055POPC   C1B 9499   7.269   4.201   8.555
 6055POPC   C2B 9500   7.238   4.114   8.255
 6055POPC   C3B 9501   7.271   4.141   7.955
 6055POPC   C4B 9502   7.184   4.188   7.655
 6056POPC   NC3 9503  37.713  44.672   9.455
 6056POPC   PO4 9504  37.632  44.670   9.155
 6056POPC   GL1 9505  37.689  44.667   8.855
 6056POPC   GL2 9506  37.660  44.809   8.855
 6056POPC   C1A 9507  37.674  44.700   8.555
 6056POPC   D2A 9508  37.721  44.625   8.255
 6056POPC   C3A 9509  37.654  44.674   7.955
 6056POPC   C4A 9510  37.706  44.627   7.655
 6056POPC   C1B 9511  37.634  44.932   8.555
 6056POPC   C2B 9512  37.558  44.950   8.255
 6056POPC   C3B 9513  37.573  44.950   7.955
 6056POPC   C4B 9514  37.644  44.951   7.655
 6057POPC   NC3 9515  28.373  19.824   9.455
 6057POPC   PO4 9516  28.404  19.844   9.155
 6057POPC   GL1 9517  28.337  19.854   8.855
 6057POPC   GL2 9518  28.411  19.930   8.855
 6057POPC   C1A 9519  28.350  19.822   8.555
 6057POPC   D2A 9520  28.335  19.794   8.255
 6057POPC   C3A 9521  28.348  19.827   7.955
 6057POPC   C4A 9522  28.406  19.795   7.655
 6057POPC   C1B 9523  28.567  20.071   8.555
 6057POPC   C2B 9524  28.513  20.012   8.255
 6057POPC   C3B 9525  28.510  19.975   7.955
 6057POPC   C4B 9526  28.522  20.023   7.655
 6058POPC   NC3 9527  40.733   6.658   9.455
 6058POPC   PO4 9528  40.771   6.630   9.155
 6058POPC   GL1 9529  40.762   6.650   8.855
 6058POPC   GL2 9530  40.864   6.505   8.855
 6058POPC   C1A 9531  40.777   6.639   8.555
 6058POPC   D2A 9532  40.794   6.607   8.255
 6058POPC   C3A 9533  40.804   6.666   7.955
 6058POPC   C4A 9534  40.781   6.639   7.655
 6058POPC   C1B 9535  40.932   6.392   8.555
 6058POPC   C2B 9536  40.919   6.432   8.255
 6058POPC   C3B 9537  40.917   6.463   7.955
 6058POPC   C4B 9538  40.886   6.421   7.655
 6059POPC   NC3 9539  22.117  40.810   9.455
 6059POPC   PO4 9540  22.177  40.738   9.155
 6059POPC   GL1 9541  22.207  40.775   8.855
 6059POPC   GL2 9542  22.216  40.860   8.855
 6059POPC   C1A 9543  22.173  40.753   8.555
 6059POPC   D2A 9544  22.178  40.822   8.255
 6059POPC   C3A 9545  22.159  40.808   7.955
 6059POPC   C4A 9546  22.124  40.740   7.655
 6059POPC   C1B 9547  22.233  41.023   8.555
 6059POPC   C2B 9548  22.223  41.055   8.255
 6059POPC   C3B 9549  22.216  40.994   7.955
 6059POPC   C4B 9550  22.226  41.025   7.655
 6060POPC   NC3 9551  27.639   3.533   9.455
 6060POPC   PO4 9552  27.561   3.545   9.155
 6060POPC   GL1 9553  27.553   3.549   8.855
 6060POPC   GL2 9554  27.746   3.483   8.855
 6060POPC   C1A 9555  27.543   3.574   8.555
 6060POPC   D2A 9556  27.601   3.548   8.255
 6060POPC   C3A 9557  27.580   3.583   7.955
 6060POPC   C4A 9558  27.634   3.507   7.655
 6060POPC   C1B 9559  27.802   3.512   8.555
 6060POPC   C2B 9560  27.816   3.501   8.255
 6060POPC   C3B 9561  27.798   3.467   7.955
 6060POPC   C4B 9562  27.806   3.485   7.655
 6061POPC   NC3 9563  31.485  12.093   9.455
 6061POPC   PO4 9564  31.474  12.035   9.155
 6061POPC   GL1 9565  31.426  12.081   8.855
 6061POPC   GL2 9566  31.403  12.070   8.855
 6061POPC   C1A 9567  31.429  12.113   8.555
 6061POPC   D2A 9568  31.427  12.117   8.255
 6061POPC   C3A 9569  31.427  12.087   7.955
 6061POPC   C4A 9570  31.498  12.052   7.655
 6061POPC   C1B 9571  31.281  12.040   8.555
 6061POPC   C2B 9572  31.226  12.031   8.255
 6061POPC   C3B 9573  31.185  11.980   7.955
 6061POPC   C4B 9574  31.205  11.982   7.655
 6062POPC   NC3 9575  36.866  33.784   9.455
 6062POPC   PO4 9576  36.931  33.820   9.155
 6062POPC   GL1 9577  36.866  33.775   8.855
 6062POPC   GL2 9578  36.784  33.872   8.855
 6062POPC   C1A 9579  36.856  33.838   8.555
 6062POPC   D2A 9580  36.862  33.805   8.255
 6062POPC   C3A 9581  36.917  33.805   7.955
 6062POPC   C4A 9582  36.934  33.789   7.655
 6062POPC   C1B 9583  36.710  33.823   8.555
 6062POPC   C2B 9584  36.706  33.868   8.255
 6062POPC   C3B 9585  36.646  33.843   7.955
 6062POPC   C4B 9586  36.664  33.860   7.655
 6063POPC   NC3 9587   9.730  27.570   9.455
 6063POPC   PO4 9588   9.798  27.629   9.155
 6063POPC   GL1 9589   9.724  27.594   8.855
 6063POPC   GL2 9590   9.898  27.545   8.855
 6063POPC   C1A 9591   9.778  27.547   8.555
 6063POPC   D2A 9592   9.723  27.546   8.255
 6063POPC   C3A 9593   9.699  27.548   7.955
 6063POPC   C4A 9594   9.711  27.593   7.655
 6063POPC   C1B 9595  10.012  27.462   8.555
 6063POPC   C2B 9596  10.010  27.473   8.255
 6063POPC   C3B 9597   9.994  27.511   7.955
 6063POPC   C4B 9598  10.007  27.470   7.655
 6064POPC   NC3 9599   9.727  22.942   9.455
 6064POPC   PO4 9600   9.725  22.943   9.155
 6064POPC   GL1 9601   9.793  22.922   8.855
 6064POPC   GL2 9602   9.875  23.010   8.855
 6064POPC   C1A 9603   9.726  22.981   8.555
 6064POPC   D2A 9604   9.758  22.907   8.255
 6064POPC   C3A 9605   9.742  22.900   7.955
 6064POPC   C4A 9606   9.719  22.954   7.655
 6064POPC   C1B 9607   9.951  23.120   8.555
 6064POPC   C2B 9608   9.957  23.073   8.255
 6064POPC   C3B 9609   9.894  23.081   7.955
 6064POPC   C4B 9610   9.979  23.105   7.655
 6065POPC   NC3 9611  12.064  12.114   9.455
 6065POPC   PO4 9612  12.095  12.056   9.155
 6065POPC   GL1 9613  12.041  12.066   8.855
 6065POPC   GL2 9614  11.974  12.131   8.855
 6065POPC   C1A 9615  12.091  12.067   8.555
 6065POPC   D2A 9616  12.096  12.064   8.255
 6065POPC   C3A 9617  12.042  12.126   7.955
 6065POPC   C4A 9618  12.056  12.111   7.655
 6065POPC   C1B 9619  11.929  12.220   8.555
 6065POPC   C2B 9620  11.941  12.209   8.255
 6065POPC   C3B 9621  11.918  12.270   7.955
 6065POPC   C4B 9622  11.939  12.227   7.655
 6066POPC   NC3 9623  36.888  16.765   9.455
 6066POPC   PO4 9624  36.896  16.758   9.155
 6066POPC   GL1 9625  36.949  16.695   8.855
 6066POPC   GL2 9626  36.849  16.798   8.855
 6066POPC   C1A 9627  36.879  16.742   8.555
 6066POPC   D2A 9628  36.900  16.749   8.255
 6066POPC   C3A 9629  36.910  16.749   7.955
 6066POPC   C4A 9630  36.932  16.717   7.655
 6066POPC   C1B 9631  36.768  16.898   8.555
 6066POPC   C2B 9632  36.697  16.938   8.255
 6066POPC   C3B 9633  36.753  16.911   7.955
 6066POPC   C4B 9634  36.783  16.952   7.655
 6067POPC   NC3 9635  16.692  33.815   9.455
 6067POPC   PO4 9636  16.779  33.830   9.155
 6067POPC   GL1 9637  16.702  33.794   8.855
 6067POPC   GL2 9638  16.714  33.872   8.855
 6067POPC   C1A 9639  16.771  33.808   8.555
 6067POPC   D2A 9640  16.720  33.847   8.255
 6067POPC   C3A 9641  16.692  33.756   7.955
 6067POPC   C4A 9642  16.713  33.836   7.655
 6067POPC   C1B 9643  16.562  34.062   8.555
 6067POPC   C2B 9644  16.611  33.990   8.255
 6067POPC   C3B 9645  16.562  34.057   7.955
 6067POPC   C4B 9646  16.577  34.040   7.655
 6068POPC   NC3 9647  41.567  19.095   9.455
 6068POPC   PO4 9648  41.559  19.066   9.155
 6068POPC   GL1 9649  41.510  19.011   8.855
 6068POPC   GL2 9650  41.652  19.056   8.855
 6068POPC   C1A 9651  41.515  19.072   8.555
 6068POPC   D2A 9652  41.583  19.050   8.255
 6068POPC   C3A 9653  41.605  19.053   7.955
 6068POPC   C4A 9654  41.585  19.075   7.655
 6068POPC   C1B 9655  41.826  18.984   8.555
 6068POPC   C2B 9656  41.824  18.968   8.255
 6068POPC   C3B 9657  41.761  18.928   7.955
 6068POPC   C4B 9658  41.831  18.953   7.655
 6069POPC   NC3 9659  28.409   6.676   9.455
 6069POPC   PO4 9660  28.389   6.607   9.155
 6069POPC   GL1 9661  28.339   6.651   8.855
 6069POPC   GL2 9662  28.529   6.597   8.855
 6069POPC   C1A 9663  28.350   6.623   8.555
 6069POPC   D2A 9664  28.322   6.596   8.255
 6069POPC   C3A 9665  28.374   6.673   7.955
 6069POPC   C4A 9666  28.375   6.609   7.655
 6069POPC   C1B 9667  28.590   6.604   8.555
 6069POPC   C2B 9668  28.667   6.587   8.255
 6069POPC   C3B 9669  28.574   6.649   7.955
 6069POPC   C4B 9670  28.660   6.580   7.655
 6070POPC   NC3 9671  29.135  43.080   9.455
 6070POPC   PO4 9672  29.105  43.091   9.155
 6070POPC   GL1 9673  29.142  43.159   8.855
 6070POPC   GL2 9674  29.139  42.990   8.855
 6070POPC   C1A 9675  29.097  43.081   8.555
 6070POPC   D2A 9676  29.192  43.151   8.255
 6070POPC   C3A 9677  29.147  43.121   7.955
 6070POPC   C4A 9678  29.141  43.075   7.655
 6070POPC   C1B 9679  29.129  42.846   8.555
 6070POPC   C2B 9680  29.211  42.877   8.255
 6070POPC   C3B 9681  29.144  42.831   7.955
 6070POPC   C4B 9682  29.189  42.890   7.655
 6071POPC   NC3 9683  16.743  27.597   9.455
 6071POPC   PO4 9684  16.752  27.613   9.155
 6071POPC   GL1 9685  16.689  27.597   8.855
 6071POPC   GL2 9686  16.833  27.674   8.855
 6071POPC   C1A 9687  16.754  27.550   8.555
 6071POPC   D2A 9688  16.695  27.595   8.255
 6071POPC   C3A 9689  16.717  27.632   7.955
 6071POPC   C4A 9690  16.717  27.572   7.655
 6071POPC   C1B 9691  16.948  27.625   8.555
 6071POPC   C2B 9692  16.965  27.628   8.255
 6071POPC   C3B 9693  16.941  27.620   7.955
 6071POPC   C4B 9694  16.956  27.630   7.655
 6072POPC   NC3 9695  22.947  33.782   9.455
 6072POPC   PO4 9696  22.933  33.844   9.155
 6072POPC   GL1 9697  22.969  33.760   8.855
 6072POPC   GL2 9698  22.789  33.907   8.855
 6072POPC   C1A 9699  22.931  33.806   8.555
 6072POPC   D2A 9700  22.969  33.789   8.255
 6072POPC   C3A 9701  22.902  33.822   7.955
 6072POPC   C4A 9702  22.985  33.808   7.655
 6072POPC   C1B 9703  22.714  33.963   8.555
 6072POPC   C2B 9704  22.746  33.946   8.255
 6072POPC   C3B 9705  22.736  33.953   7.955
 6072POPC   C4B 9706  22.739  33.930   7.655
 6073POPC   NC3 9707  36.928  36.171   9.455
 6073POPC   PO4 9708  36.897  36.162   9.155
 6073POPC   GL1 9709  36.889  36.082   8.855
 6073POPC   GL2 9710  36.885  36.268   8.855
 6073POPC   C1A 9711  36.930  36.166   8.555
 6073POPC   D2A 9712  36.948  36.129   8.255
 6073POPC   C3A 9713  36.869  36.081   7.955
 6073POPC   C4A 9714  36.908  36.101   7.655
 6073POPC   C1B 9715  36.801  36.377   8.555
 6073POPC   C2B 9716  36.813  36.384   8.255
 6073POPC   C3B 9717  36.868  36.336   7.955
 6073POPC   C4B 9718  36.849  36.335   7.655
 6074POPC   NC3 9719   8.233   3.571   9.455
 6074POPC   PO4 9720   8.212   3.530   9.155
 6074POPC   GL1 9721   8.216   3.519   8.855
 6074POPC   GL2 9722   8.267   3.530   8.855
 6074POPC   C1A 9723   8.222   3.539   8.555
 6074POPC   D2A 9724   8.148   3.558   8.255
 6074POPC   C3A 9725   8.172   3.496   7.955
 6074POPC   C4A 9726   8.153   3.540   7.655
 6074POPC   C1B 9727   8.387   3.491   8.555
 6074POPC   C2B 9728   8.399   3.444   8.255
 6074POPC   C3B 9729   8.412   3.398   7.955
 6074POPC   C4B 9730   8.466   3.449   7.655
 6075POPC   NC3 9731   5.828   3.542   9.455
 6075POPC   PO4 9732   5.841   3.534   9.155
 6075POPC   GL1 9733   5.900   3.549   8.855
 6075POPC   GL2 9734   6.004   3.502   8.855
 6075POPC   C1A 9735   5.852   3.551   8.555
 6075POPC   D2A 9736   5.827   3.549   8.255
 6075POPC   C3A 9737   5.819   3.525   7.955
 6075POPC   C4A 9738   5.842   3.519   7.655
 6075POPC   C1B 9739   6.119   3.506   8.555
 6075POPC   C2B 9740   6.166   3.481   8.255
 6075POPC   C3B 9741   6.089   3.505   7.955
 6075POPC   C4B 9742   6.107   3.562   7.655
 6076POPC   NC3 9743  15.913  33.834   9.455
 6076POPC   PO4 9744  15.974  33.785   9.155
 6076POPC   GL1 9745  15.939  33.764   8.855
 6076POPC   GL2 9746  16.053  33.828   8.855
 6076POPC   C1A 9747  15.925  33.827   8.555
 6076POPC   D2A 9748  15.921  33.842   8.255
 6076POPC   C3A 9749  15.978  33.826   7.955
 6076POPC   C4A 9750  15.931  33.827   7.655
 6076POPC   C1B 9751  16.187  33.821   8.555
 6076POPC   C2B 9752  16.250  33.781   8.255
 6076POPC   C3B 9753  16.161  33.841   7.955
 6076POPC   C4B 9754  16.186  33.803   7.655
 6077POPC   NC3 9755   6.695  15.189   9.455
 6077POPC   PO4 9756   6.598  15.176   9.155
 6077POPC   GL1 9757   6.660  15.135   8.855
 6077POPC   GL2 9758   6.715  15.092   8.855
 6077POPC   C1A 9759   6.675  15.195   8.555
 6077POPC   D2A 9760   6.691  15.205   8.255
 6077POPC   C3A 9761   6.633  15.205   7.955
 6077POPC   C4A 9762   6.601  15.163   7.655
 6077POPC   C1B 9763   6.770  14.967   8.555
 6077POPC   C2B 9764   6.768  15.028   8.255
 6077POPC   C3B 9765   6.826  14.950   7.955
 6077POPC   C4B 9766   6.793  14.961   7.655
 6078POPC   NC3 9767  25.278   0.439   9.455
 6078POPC   PO4 9768  25.275   0.393   9.155
 6078POPC   GL1 9769  25.244   0.479   8.855
 6078POPC   GL2 9770  25.270   0.269   8.855
 6078POPC   C1A 9771  25.219   0.451   8.555
 6078POPC   D2A 9772  25.276   0.461   8.255
 6078POPC   C3A 9773  25.247   0.429   7.955
 6078POPC   C4A 9774  25.240   0.466   7.655
 6078POPC   C1B 9775  25.277   0.204   8.555
 6078POPC   C2B 9776  25.302   0.150   8.255
 6078POPC   C3B 9777  25.306   0.169   7.955
 6078POPC   C4B 9778  25.265   0.205   7.655
 6079POPC   NC3 9779  13.586   7.463   9.455
 6079POPC   PO4 9780  13.659   7.443   9.155
 6079POPC   GL1 9781  13.632   7.381   8.855
 6079POPC   GL2 9782  13.547   7.298   8.855
 6079POPC   C1A 9783  13.636   7.375   8.555
 6079POPC   D2A 9784  13.634   7.433   8.255
 6079POPC   C3A 9785  13.661   7.461   7.955
 6079POPC   C4A 9786  13.618   7.403   7.655
 6079POPC   C1B 9787  13.463   7.206   8.555
 6079POPC   C2B 9788  13.471   7.239   8.255
 6079POPC   C3B 9789  13.513   7.188   7.955
 6079POPC   C4B 9790  13.506   7.195   7.655
 6080POPC   NC3 9791  15.990   1.201   9.455
 6080POPC   PO4 9792  15.938   1.210   9.155
 6080POPC   GL1 9793  15.927   1.259   8.855
 6080POPC   GL2 9794  16.065   1.273   8.855
 6080POPC   C1A 9795  15.944   1.236   8.555
 6080POPC   D2A 9796  15.943   1.202   8.255
 6080POPC   C3A 9797  15.920   1.247   7.955
 6080POPC   C4A 9798  15.996   1.180   7.655
 6080POPC   C1B 9799  16.089   1.450   8.555
 6080POPC   C2B 9800  16.064   1.443   8.255
 6080POPC   C3B 9801  16.064   1.447   7.955
 6080POPC   C4B 9802  16.138   1.464   7.655
 6081POPC   NC3 9803  19.088   0.408   9.455
 6081POPC   PO4 9804  19.088   0.430   9.155
 6081POPC   GL1 9805  19.054   0.411   8.855
 6081POPC   GL2 9806  19.161   0.522   8.855
 6081POPC   C1A 9807  19.034   0.473   8.555
 6081POPC   D2A 9808  19.020   0.461   8.255
 6081POPC   C3A 9809  19.089   0.469   7.955
 6081POPC   C4A 9810  19.067   0.435   7.655
 6081POPC   C1B 9811  19.246   0.563   8.555
 6081POPC   C2B 9812  19.274   0.572   8.255
 6081POPC   C3B 9813  19.261   0.585   7.955
 6081POPC   C4B 9814  19.225   0.616   7.655
 6082POPC   NC3 9815  25.999  31.501   9.455
 6082POPC   PO4 9816  26.039  31.499   9.155
 6082POPC   GL1 9817  25.996  31.492   8.855
 6082POPC   GL2 9818  26.016  31.328   8.855
 6082POPC   C1A 9819  26.038  31.449   8.555
 6082POPC   D2A 9820  26.026  31.425   8.255
 6082POPC   C3A 9821  26.076  31.484   7.955
 6082POPC   C4A 9822  26.022  31.442   7.655
 6082POPC   C1B 9823  25.968  31.276   8.555
 6082POPC   C2B 9824  25.944  31.260   8.255
 6082POPC   C3B 9825  25.914  31.241   7.955
 6082POPC   C4B 9826  25.924  31.281   7.655
 6083POPC   NC3 9827  39.248  22.197   9.455
 6083POPC   PO4 9828  39.260  22.126   9.155
 6083POPC   GL1 9829  39.208  22.141   8.855
 6083POPC   GL2 9830  39.132  22.141   8.855
 6083POPC   C1A 9831  39.212  22.204   8.555
 6083POPC   D2A 9832  39.198  22.137   8.255
 6083POPC   C3A 9833  39.225  22.196   7.955
 6083POPC   C4A 9834  39.200  22.115   7.655
 6083POPC   C1B 9835  39.014  22.056   8.555
 6083POPC   C2B 9836  39.030  22.122   8.255
 6083POPC   C3B 9837  38.966  22.042   7.955
 6083POPC   C4B 9838  39.002  22.042   7.655
 6084POPC   NC3 9839  24.494  31.483   9.455
 6084POPC   PO4 9840  24.498  31.463   9.155
 6084POPC   GL1 9841  24.443  31.517   8.855
 6084POPC   GL2 9842  24.481  31.365   8.855
 6084POPC   C1A 9843  24.534  31.433   8.555
 6084POPC   D2A 9844  24.441  31.513   8.255
 6084POPC   C3A 9845  24.472  31.483   7.955
 6084POPC   C4A 9846  24.497  31.450   7.655
 6084POPC   C1B 9847  24.517  31.228   8.555
 6084POPC   C2B 9848  24.505  31.271   8.255
 6084POPC   C3B 9849  24.467  31.185   7.955
 6084POPC   C4B 9850  24.460  31.221   7.655
 6085POPC   NC3 9851  10.530   2.793   9.455
 6085POPC   PO4 9852  10.520   2.741   9.155
 6085POPC   GL1 9853  10.574   2.776   8.855
 6085POPC   GL2 9854  10.677   2.837   8.855
 6085POPC   C1A 9855  10.536   2.811   8.555
 6085POPC   D2A 9856  10.515   2.726   8.255
 6085POPC   C3A 9857  10.526   2.783   7.955
 6085POPC   C4A 9858  10.503   2.745   7.655
 6085POPC   C1B 9859  10.713   2.947   8.555
 6085POPC   C2B 9860  10.764   2.861   8.255
 6085POPC   C3B 9861  10.720   2.879   7.955
 6085POPC   C4B 9862  10.703   2.888   7.655
 6086POPC   NC3 9863  31.450  35.303   9.455
 6086POPC   PO4 9864  31.461  35.317   9.155
 6086POPC   GL1 9865  31.480  35.304   8.855
 6086POPC   GL2 9866  31.474  35.429   8.855
 6086POPC   C1A 9867  31.437  35.303   8.555
 6086POPC   D2A 9868  31.505  35.352   8.255
 6086POPC   C3A 9869  31.521  35.309   7.955
 6086POPC   C4A 9870  31.468  35.347   7.655
 6086POPC   C1B 9871  31.423  35.617   8.555
 6086POPC   C2B 9872  31.427  35.609   8.255
 6086POPC   C3B 9873  31.404  35.637   7.955
 6086POPC   C4B 9874  31.464  35.569   7.655
 6087POPC   NC3 9875   8.997  10.531   9.455
 6087POPC   PO4 9876   8.959  10.476   9.155
 6087POPC   GL1 9877   9.017  10.493   8.855
 6087POPC   GL2 9878   9.118  10.491   8.855
 6087POPC   C1A 9879   8.971  10.574   8.555
 6087POPC   D2A 9880   8.972  10.574   8.255
 6087POPC   C3A 9881   9.011  10.527   7.955
 6087POPC   C4A 9882   9.021  10.526   7.655
 6087POPC   C1B 9883   9.190  10.397   8.555
 6087POPC   C2B 9884   9.205  10.365   8.255
 6087POPC   C3B 9885   9.148  10.344   7.955
 6087POPC   C4B 9886   9.171  10.335   7.655
 6088POPC   NC3 9887  19.846   7.464   9.455
 6088POPC   PO4 9888  19.820   7.467   9.155
 6088POPC   GL1 9889  19.866   7.394   8.855
 6088POPC   GL2 9890  19.871   7.569   8.855
 6088POPC   C1A 9891  19.799   7.372   8.555
 6088POPC   D2A 9892  19.848   7.433   8.255
 6088POPC   C3A 9893  19.824   7.416   7.955
 6088POPC   C4A 9894  19.832   7.459   7.655
 6088POPC   C1B 9895  19.922   7.655   8.555
 6088POPC   C2B 9896  19.946   7.624   8.255
 6088POPC   C3B 9897  19.904   7.601   7.955
 6088POPC   C4B 9898  19.900   7.660   7.655
 6089POPC   NC3 9899  12.063  30.675   9.455
 6089POPC   PO4 9900  12.061  30.652   9.155
 6089POPC   GL1 9901  12.095  30.659   8.855
 6089POPC   GL2 9902  11.941  30.691   8.855
 6089POPC   C1A 9903  12.049  30.704   8.555
 6089POPC   D2A 9904  12.045  30.655   8.255
 6089POPC   C3A 9905  12.124  30.652   7.955
 6089POPC   C4A 9906  12.065  30.653   7.655
 6089POPC   C1B 9907  11.852  30.717   8.555
 6089POPC   C2B 9908  11.782  30.736   8.255
 6089POPC   C3B 9909  11.858  30.675   7.955
 6089POPC   C4B 9910  11.860  30.754   7.655
 6090POPC   NC3 9911   8.995   0.479   9.455
 6090POPC   PO4 9912   9.018   0.440   9.155
 6090POPC   GL1 9913   8.989   0.393   8.855
 6090POPC   GL2 9914   9.115   0.387   8.855
 6090POPC   C1A 9915   9.010   0.477   8.555
 6090POPC   D2A 9916   8.953   0.481   8.255
 6090POPC   C3A 9917   9.012   0.416   7.955
 6090POPC   C4A 9918   9.022   0.389   7.655
 6090POPC   C1B 9919   9.144   0.262   8.555
 6090POPC   C2B 9920   9.183   0.258   8.255
 6090POPC   C3B 9921   9.151   0.300   7.955
 6090POPC   C4B 9922   9.201   0.342   7.655
 6091POPC   NC3 9923  42.367   2.800   9.455
 6091POPC   PO4 9924  42.331   2.716   9.155
 6091POPC   GL1 9925  42.377   2.802   8.855
 6091POPC   GL2 9926  42.187   2.804   8.855
 6091POPC   C1A 9927  42.302   2.796   8.555
 6091POPC   D2A 9928  42.314   2.725   8.255
 6091POPC   C3A 9929  42.286   2.802   7.955
 6091POPC   C4A 9930  42.360   2.753   7.655
 6091POPC   C1B 9931  42.159   2.944   8.555
 6091POPC   C2B 9932  42.089   2.879   8.255
 6091POPC   C3B 9933  42.111   2.908   7.955
 6091POPC   C4B 9934  42.156   2.880   7.655
 6092POPC   NC3 9935  43.134  12.816   9.455
 6092POPC   PO4 9936  43.122  12.810   9.155
 6092POPC   GL1 9937  43.119  12.816   8.855
 6092POPC   GL2 9938  43.167  12.974   8.855
 6092POPC   C1A 9939  43.073  12.838   8.555
 6092POPC   D2A 9940  43.127  12.836   8.255
 6092POPC   C3A 9941  43.128  12.819   7.955
 6092POPC   C4A 9942  43.137  12.832   7.655
 6092POPC   C1B 9943  43.321  13.005   8.555
 6092POPC   C2B 9944  43.284  13.022   8.255
 6092POPC   C3B 9945  43.310  13.018   7.955
 6092POPC   C4B 9946  43.352  12.998   7.655
 6093POPC   NC3 9947  13.629  18.299   9.455
 6093POPC   PO4 9948  13.668  18.287   9.155
 6093POPC   GL1 9949  13.584  18.330   8.855
 6093POPC   GL2 9950  13.645  18.159   8.855
 6093POPC   C1A 9951  13.591  18.331   8.555
 6093POPC   D2A 9952  13.657  18.271   8.255
 6093POPC   C3A 9953  13.651  18.250   7.955
 6093POPC   C4A 9954  13.612  18.281   7.655
 6093POPC   C1B 9955  13.787  18.027   8.555
 6093POPC   C2B 9956  13.728  18.045   8.255
 6093POPC   C3B 9957  13.762  18.099   7.955
 6093POPC   C4B 9958  13.801  18.082   7.655
 6094POPC   NC3 9959  12.870  22.145   9.455
 6094POPC   PO4 9960  12.849  22.176   9.155
 6094POPC   GL1 9961  12.858  22.184   8.855
 6094POPC   GL2 9962  12.801  22.055   8.855
 6094POPC   C1A 9963  12.880  22.137   8.555
 6094POPC   D2A 9964  12.898  22.122   8.255
 6094POPC   C3A 9965  12.892  22.159   7.955
 6094POPC   C4A 9966  12.831  22.208   7.655
 6094POPC   C1B 9967  12.823  21.874   8.555
 6094POPC   C2B 9968  12.779  21.907   8.255
 6094POPC   C3B 9969  12.772  21.912   7.955
 6094POPC   C4B 9970  12.862  21.952   7.655
 6095POPC   NC3 9971   2.747   2.771   9.455
 6095POPC   PO4 9972   2.753   2.811   9.155
 6095POPC   GL1 9973   2.803   2.794   8.855
 6095POPC   GL2 9974   2.787   2.592   8.855
 6095POPC   C1A 9975   2.724   2.760   8.555
 6095POPC   D2A 9976   2.766   2.720   8.255
 6095POPC   C3A 9977   2.807   2.764   7.955
 6095POPC   C4A 9978   2.789   2.813   7.655
 6095POPC   C1B 9979   2.797   2.501   8.555
 6095POPC   C2B 9980   2.732   2.476   8.255
 6095POPC   C3B 9981   2.811   2.471   7.955
 6095POPC   C4B 9982   2.799   2.556   7.655
 6096POPC   NC3 9983  10.511  30.689   9.455
 6096POPC   PO4 9984  10.552  30.704   9.155
 6096POPC   GL1 9985  10.493  30.657   8.855
 6096POPC   GL2 9986  10.611  30.777   8.855
 6096POPC   C1A 9987  10.539  30.703   8.555
 6096POPC   D2A 9988  10.544  30.738   8.255
 6096POPC   C3A 9989  10.537  30.721   7.955
 6096POPC   C4A 9990  10.481  30.688   7.655
 6096POPC   C1B 9991  10.764  30.763   8.555
 6096POPC   C2B 9992  10.772  30.772   8.255
 6096POPC   C3B 9993  10.734  30.842   7.955
 6096POPC   C4B 9994  10.761  30.801   7.655
 6097POPC   NC3 9995   8.938  34.615   9.455
 6097POPC   PO4 9996   8.962  34.531   9.155
 6097POPC   GL1 9997   9.012  34.610   8.855
 6097POPC   GL2 9998   8.924  34.538   8.855
 6097POPC   C1A 9999   8.953  34.569   8.555
 6097POPC   D2A10000   8.928  34.567   8.255
 6097POPC   C3A10001   9.005  34.553   7.955
 6097POPC   C4A10002   8.973  34.566   7.655
 6097POPC   C1B10003   8.783  34.377   8.555
 6097POPC   C2B10004   8.794  34.382   8.255
 6097POPC   C3B10005   8.761  34.382   7.955
 6097POPC   C4B10006   8.732  34.432   7.655
 6098POPC   NC310007   6.617  32.281   9.455
 6098POPC   PO410008   6.674  32.274   9.155
 6098POPC   GL110009   6.678  32.253   8.855
 6098POPC   GL210010   6.771  32.217   8.855
 6098POPC   C1A10011   6.672  32.233   8.555
 6098POPC   D2A10012   6.598  32.225   8.255
 6098POPC   C3A10013   6.637  32.207   7.955
 6098POPC   C4A10014   6.647  32.261   7.655
 6098POPC   C1B10015   6.856  32.276   8.555
 6098POPC   C2B10016   6.885  32.293   8.255
 6098POPC   C3B10017   6.931  32.247   7.955
 6098POPC   C4B10018   6.846  32.205   7.655
 6099POPC   NC310019  35.392  13.670   9.455
 6099POPC   PO410020  35.353  13.590   9.155
 6099POPC   GL110021  35.356  13.647   8.855
 6099POPC   GL210022  35.439  13.687   8.855
 6099POPC   C1A10023  35.384  13.676   8.555
 6099POPC   D2A10024  35.387  13.588   8.255
 6099POPC   C3A10025  35.313  13.623   7.955
 6099POPC   C4A10026  35.332  13.675   7.655
 6099POPC   C1B10027  35.583  13.653   8.555
 6099POPC   C2B10028  35.613  13.689   8.255
 6099POPC   C3B10029  35.571  13.668   7.955
 6099POPC   C4B10030  35.622  13.712   7.655
 6100POPC   NC310031  10.517  35.365   9.455
 6100POPC   PO410032  10.495  35.307   9.155
 6100POPC   GL110033  10.506  35.330   8.855
 6100POPC   GL210034  10.652  35.434   8.855
 6100POPC   C1A10035  10.508  35.304   8.555
 6100POPC   D2A10036  10.535  35.374   8.255
 6100POPC   C3A10037  10.523  35.348   7.955
 6100POPC   C4A10038  10.532  35.398   7.655
 6100POPC   C1B10039  10.726  35.510   8.555
 6100POPC   C2B10040  10.689  35.558   8.255
 6100POPC   C3B10041  10.633  35.517   7.955
 6100POPC   C4B10042  10.646  35.501   7.655
 6101POPC   NC310043  36.870  22.211   9.455
 6101POPC   PO410044  36.888  22.181   9.155
 6101POPC   GL110045  36.951  22.146   8.855
 6101POPC   GL210046  36.986  22.150   8.855
 6101POPC   C1A10047  36.946  22.118   8.555
 6101POPC   D2A10048  36.916  22.150   8.255
 6101POPC   C3A10049  36.908  22.180   7.955
 6101POPC   C4A10050  36.913  22.125   7.655
 6101POPC   C1B10051  37.150  22.120   8.555
 6101POPC   C2B10052  37.118  22.129   8.255
 6101POPC   C3B10053  37.170  22.085   7.955
 6101POPC   C4B10054  37.173  22.119   7.655
 6102POPC   NC310055  36.893  35.392   9.455
 6102POPC   PO410056  36.875  35.357   9.155
 6102POPC   GL110057  36.940  35.331   8.855
 6102POPC   GL210058  36.961  35.405   8.855
 6102POPC   C1A10059  36.934  35.351   8.555
 6102POPC   D2A10060  36.895  35.324   8.255
 6102POPC   C3A10061  36.870  35.304   7.955
 6102POPC   C4A10062  36.949  35.361   7.655
 6102POPC   C1B10063  37.066  35.536   8.555
 6102POPC   C2B10064  37.039  35.550   8.255
 6102POPC   C3B10065  37.053  35.521   7.955
 6102POPC   C4B10066  37.023  35.571   7.655
 6103POPC   NC310067  16.730   5.117   9.455
 6103POPC   PO410068  16.758   5.087   9.155
 6103POPC   GL110069  16.772   5.088   8.855
 6103POPC   GL210070  16.902   5.055   8.855
 6103POPC   C1A10071  16.764   5.095   8.555
 6103POPC   D2A10072  16.722   5.108   8.255
 6103POPC   C3A10073  16.743   5.091   7.955
 6103POPC   C4A10074  16.718   5.060   7.655
 6103POPC   C1B10075  16.957   5.051   8.555
 6103POPC   C2B10076  16.943   5.034   8.255
 6103POPC   C3B10077  16.987   5.042   7.955
 6103POPC   C4B10078  16.942   5.050   7.655
 6104POPC   NC310079  40.039  13.590   9.455
 6104POPC   PO410080  40.053  13.628   9.155
 6104POPC   GL110081  39.977  13.664   8.855
 6104POPC   GL210082  39.872  13.752   8.855
 6104POPC   C1A10083  39.997  13.623   8.555
 6104POPC   D2A10084  39.978  13.646   8.255
 6104POPC   C3A10085  40.015  13.590   7.955
 6104POPC   C4A10086  39.986  13.591   7.655
 6104POPC   C1B10087  39.865  13.784   8.555
 6104POPC   C2B10088  39.817  13.832   8.255
 6104POPC   C3B10089  39.791  13.808   7.955
 6104POPC   C4B10090  39.801  13.833   7.655
 6105POPC   NC310091  37.713  41.551   9.455
 6105POPC   PO410092  37.669  41.580   9.155
 6105POPC   GL110093  37.665  41.538   8.855
 6105POPC   GL210094  37.698  41.690   8.855
 6105POPC   C1A10095  37.725  41.592   8.555
 6105POPC   D2A10096  37.727  41.537   8.255
 6105POPC   C3A10097  37.721  41.523   7.955
 6105POPC   C4A10098  37.707  41.511   7.655
 6105POPC   C1B10099  37.639  41.763   8.555
 6105POPC   C2B10100  37.687  41.763   8.255
 6105POPC   C3B10101  37.642  41.781   7.955
 6105POPC   C4B10102  37.629  41.825   7.655
 6106POPC   NC310103   0.449   3.590   9.455
 6106POPC   PO410104   0.461   3.583   9.155
 6106POPC   GL110105   0.421   3.555   8.855
 6106POPC   GL210106   0.293   3.527   8.855
 6106POPC   C1A10107   0.458   3.523   8.555
 6106POPC   D2A10108   0.462   3.495   8.255
 6106POPC   C3A10109   0.412   3.583   7.955
 6106POPC   C4A10110   0.410   3.581   7.655
 6106POPC   C1B10111   0.155   3.421   8.555
 6106POPC   C2B10112   0.162   3.488   8.255
 6106POPC   C3B10113   0.200   3.440   7.955
 6106POPC   C4B10114   0.237   3.476   7.655
 6107POPC   NC310115  29.178   5.879   9.455
 6107POPC   PO410116  29.148   5.845   9.155
 6107POPC   GL110117  29.154   5.856   8.855
 6107POPC   GL210118  29.052   5.872   8.855
 6107POPC   C1A10119  29.154   5.846   8.555
 6107POPC   D2A10120  29.104   5.860   8.255
 6107POPC   C3A10121  29.121   5.894   7.955
 6107POPC   C4A10122  29.097   5.900   7.655
 6107POPC   C1B10123  28.911   5.858   8.555
 6107POPC   C2B10124  28.880   5.917   8.255
 6107POPC   C3B10125  28.851   5.928   7.955
 6107POPC   C4B10126  28.869   5.901   7.655
 6108POPC   NC310127   1.208   1.221   9.455
 6108POPC   PO410128   1.243   1.250   9.155
 6108POPC   GL110129   1.250   1.233   8.855
 6108POPC   GL210130   1.320   1.321   8.855
 6108POPC   C1A10131   1.171   1.233   8.555
 6108POPC   D2A10132   1.237   1.183   8.255
 6108POPC   C3A10133   1.204   1.204   7.955
 6108POPC   C4A10134   1.245   1.233   7.655
 6108POPC   C1B10135   1.407   1.431   8.555
 6108POPC   C2B10136   1.378   1.415   8.255
 6108POPC   C3B10137   1.410   1.360   7.955
 6108POPC   C4B10138   1.380   1.366   7.655
 6109POPC   NC310139  17.555  30.703   9.455
 6109POPC   PO410140  17.515  30.672   9.155
 6109POPC   GL110141  17.496  30.729   8.855
 6109POPC   GL210142  17.577  30.791   8.855
 6109POPC   C1A10143  17.541  30.680   8.555
 6109POPC   D2A10144  17.536  30.655   8.255
 6109POPC   C3A10145  17.458  30.703   7.955
 6109POPC   C4A10146  17.512  30.725   7.655
 6109POPC   C1B10147  17.573  30.941   8.555
 6109POPC   C2B10148  17.657  30.962   8.255
 6109POPC   C3B10149  17.627  30.874   7.955
 6109POPC   C4B10150  17.570  30.941   7.655
 6110POPC   NC310151  19.068  36.887   9.455
 6110POPC   PO410152  19.015  36.879   9.155
 6110POPC   GL110153  19.090  36.869   8.855
 6110POPC   GL210154  19.144  36.911   8.855
 6110POPC   C1A10155  19.020  36.894   8.555
 6110POPC   D2A10156  19.106  36.902   8.255
 6110POPC   C3A10157  19.049  36.952   7.955
 6110POPC   C4A10158  19.012  36.913   7.655
 6110POPC   C1B10159  19.282  36.998   8.555
 6110POPC   C2B10160  19.307  37.012   8.255
 6110POPC   C3B10161  19.264  37.012   7.955
 6110POPC   C4B10162  19.286  37.004   7.655
 6111POPC   NC310163   3.532   4.306   9.455
 6111POPC   PO410164   3.569   4.305   9.155
 6111POPC   GL110165   3.517   4.279   8.855
 6111POPC   GL210166   3.406   4.250   8.855
 6111POPC   C1A10167   3.568   4.271   8.555
 6111POPC   D2A10168   3.573   4.361   8.255
 6111POPC   C3A10169   3.510   4.305   7.955
 6111POPC   C4A10170   3.512   4.273   7.655
 6111POPC   C1B10171   3.320   4.229   8.555
 6111POPC   C2B10172   3.268   4.271   8.255
 6111POPC   C3B10173   3.280   4.223   7.955
 6111POPC   C4B10174   3.345   4.252   7.655
 6112POPC   NC310175  15.210  12.885   9.455
 6112POPC   PO410176  15.173  12.826   9.155
 6112POPC   GL110177  15.137  12.819   8.855
 6112POPC   GL210178  15.330  12.843   8.855
 6112POPC   C1A10179  15.177  12.881   8.555
 6112POPC   D2A10180  15.188  12.819   8.255
 6112POPC   C3A10181  15.166  12.837   7.955
 6112POPC   C4A10182  15.151  12.826   7.655
 6112POPC   C1B10183  15.402  12.831   8.555
 6112POPC   C2B10184  15.401  12.803   8.255
 6112POPC   C3B10185  15.457  12.826   7.955
 6112POPC   C4B10186  15.392  12.888   7.655
 6113POPC   NC310187   8.216   6.646   9.455
 6113POPC   PO410188   8.217   6.613   9.155
 6113POPC   GL110189   8.180   6.620   8.855
 6113POPC   GL210190   8.235   6.522   8.855
 6113POPC   C1A10191   8.177   6.671   8.555
 6113POPC   D2A10192   8.207   6.644   8.255
 6113POPC   C3A10193   8.188   6.652   7.955
 6113POPC   C4A10194   8.151   6.657   7.655
 6113POPC   C1B10195   8.402   6.438   8.555
 6113POPC   C2B10196   8.373   6.447   8.255
 6113POPC   C3B10197   8.377   6.482   7.955
 6113POPC   C4B10198   8.356   6.456   7.655
 6114POPC   NC310199  22.154  33.809   9.455
 6114POPC   PO410200  22.159  33.850   9.155
 6114POPC   GL110201  22.121  33.801   8.855
 6114POPC   GL210202  22.082  33.900   8.855
 6114POPC   C1A10203  22.200  33.769   8.555
 6114POPC   D2A10204  22.183  33.762   8.255
 6114POPC   C3A10205  22.135  33.826   7.955
 6114POPC   C4A10206  22.202  33.755   7.655
 6114POPC   C1B10207  22.134  34.071   8.555
 6114POPC   C2B10208  22.077  34.045   8.255
 6114POPC   C3B10209  22.057  34.082   7.955
 6114POPC   C4B10210  22.081  34.019   7.655
 6115POPC   NC310211   1.995  43.118   9.455
 6115POPC   PO410212   1.947  43.064   9.155
 6115POPC   GL110213   1.941  43.085   8.855
 6115POPC   GL210214   1.863  43.185   8.855
 6115POPC   C1A10215   2.016  43.152   8.555
 6115POPC   D2A10216   2.004  43.124   8.255
 6115POPC   C3A10217   2.005  43.065   7.955
 6115POPC   C4A10218   1.972  43.117   7.655
 6115POPC   C1B10219   1.799  43.152   8.555
 6115POPC   C2B10220   1.736  43.170   8.255
 6115POPC   C3B10221   1.780  43.147   7.955
 6115POPC   C4B10222   1.761  43.138   7.655
 6116POPC   NC310223   5.070  20.581   9.455
 6116POPC   PO410224   5.115  20.564   9.155
 6116POPC   GL110225   5.091  20.572   8.855
 6116POPC   GL210226   4.982  20.625   8.855
 6116POPC   C1A10227   5.113  20.564   8.555
 6116POPC   D2A10228   5.092  20.659   8.255
 6116POPC   C3A10229   5.056  20.616   7.955
 6116POPC   C4A10230   5.093  20.561   7.655
 6116POPC   C1B10231   4.847  20.681   8.555
 6116POPC   C2B10232   4.897  20.664   8.255
 6116POPC   C3B10233   4.809  20.643   7.955
 6116POPC   C4B10234   4.809  20.687   7.655
 6117POPC   NC310235  27.630  21.386   9.455
 6117POPC   PO410236  27.567  21.357   9.155
 6117POPC   GL110237  27.603  21.398   8.855
 6117POPC   GL210238  27.644  21.227   8.855
 6117POPC   C1A10239  27.549  21.342   8.555
 6117POPC   D2A10240  27.632  21.341   8.255
 6117POPC   C3A10241  27.589  21.377   7.955
 6117POPC   C4A10242  27.565  21.354   7.655
 6117POPC   C1B10243  27.623  21.154   8.555
 6117POPC   C2B10244  27.588  21.148   8.255
 6117POPC   C3B10245  27.575  21.109   7.955
 6117POPC   C4B10246  27.587  21.120   7.655
 6118POPC   NC310247  22.890   0.401   9.455
 6118POPC   PO410248  22.925   0.402   9.155
 6118POPC   GL110249  22.960   0.391   8.855
 6118POPC   GL210250  23.001   0.570   8.855
 6118POPC   C1A10251  22.914   0.446   8.555
 6118POPC   D2A10252  22.929   0.403   8.255
 6118POPC   C3A10253  22.958   0.394   7.955
 6118POPC   C4A10254  22.929   0.427   7.655
 6118POPC   C1B10255  23.105   0.647   8.555
 6118POPC   C2B10256  23.124   0.680   8.255
 6118POPC   C3B10257  23.063   0.673   7.955
 6118POPC   C4B10258  23.095   0.627   7.655
 6119POPC   NC310259  11.279  43.858   9.455
 6119POPC   PO410260  11.259  43.902   9.155
 6119POPC   GL110261  11.251  43.843   8.855
 6119POPC   GL210262  11.405  43.883   8.855
 6119POPC   C1A10263  11.270  43.837   8.555
 6119POPC   D2A10264  11.343  43.893   8.255
 6119POPC   C3A10265  11.261  43.897   7.955
 6119POPC   C4A10266  11.349  43.871   7.655
 6119POPC   C1B10267  11.542  43.865   8.555
 6119POPC   C2B10268  11.583  43.813   8.255
 6119POPC   C3B10269  11.545  43.878   7.955
 6119POPC   C4B10270  11.497  43.874   7.655
 6120POPC   NC310271   5.832  36.084   9.455
 6120POPC   PO410272   5.863  36.102   9.155
 6120POPC   GL110273   5.893  36.091   8.855
 6120POPC   GL210274   5.779  36.283   8.855
 6120POPC   C1A10275   5.874  36.118   8.555
 6120POPC   D2A10276   5.834  36.116   8.255
 6120POPC   C3A10277   5.862  36.170   7.955
 6120POPC   C4A10278   5.893  36.163   7.655
 6120POPC   C1B10279   5.765  36.402   8.555
 6120POPC   C2B10280   5.741  36.405   8.255
 6120POPC   C3B10281   5.772  36.338   7.955
 6120POPC   C4B10282   5.817  36.340   7.655
 6121POPC   NC310283  17.496   1.233   9.455
 6121POPC   PO410284  17.542   1.245   9.155
 6121POPC   GL110285  17.472   1.203   8.855
 6121POPC   GL210286  17.376   1.115   8.855
 6121POPC   C1A10287  17.502   1.222   8.555
 6121POPC   D2A10288  17.487   1.173   8.255
 6121POPC   C3A10289  17.499   1.204   7.955
 6121POPC   C4A10290  17.467   1.233   7.655
 6121POPC   C1B10291  17.316   1.023   8.555
 6121POPC   C2B10292  17.370   1.003   8.255
 6121POPC   C3B10293  17.278   1.061   7.955
 6121POPC   C4B10294  17.295   1.031   7.655
 6122POPC   NC310295  35.376  26.044   9.455
 6122POPC   PO410296  35.333  26.083   9.155
 6122POPC   GL110297  35.349  26.053   8.855
 6122POPC   GL210298  35.402  25.881   8.855
 6122POPC   C1A10299  35.317  25.992   8.555
 6122POPC   D2A10300  35.373  26.027   8.255
 6122POPC   C3A10301  35.335  26.022   7.955
 6122POPC   C4A10302  35.361  26.005   7.655
 6122POPC   C1B10303  35.455  25.852   8.555
 6122POPC   C2B10304  35.456  25.813   8.255
 6122POPC   C3B10305  35.504  25.819   7.955
 6122POPC   C4B10306  35.458  25.780   7.655
 6123POPC   NC310307  38.485  36.864   9.455
 6123POPC   PO410308  38.424  36.897   9.155
 6123POPC   GL110309  38.417  36.887   8.855
 6123POPC   GL210310  38.384  36.824   8.855
 6123POPC   C1A10311  38.424  36.926   8.555
 6123POPC   D2A10312  38.411  36.879   8.255
 6123POPC   C3A10313  38.457  36.877   7.955
 6123POPC   C4A10314  38.504  36.890   7.655
 6123POPC   C1B10315  38.321  36.663   8.555
 6123POPC   C2B10316  38.334  36.682   8.255
 6123POPC   C3B10317  38.335  36.693   7.955
 6123POPC   C4B10318  38.332  36.745   7.655
 6124POPC   NC310319  42.303   5.883   9.455
 6124POPC   PO410320  42.286   5.832   9.155
 6124POPC   GL110321  42.301   5.860   8.855
 6124POPC   GL210322  42.407   5.771   8.855
 6124POPC   C1A10323  42.325   5.869   8.555
 6124POPC   D2A10324  42.292   5.841   8.255
 6124POPC   C3A10325  42.307   5.855   7.955
 6124POPC   C4A10326  42.313   5.863   7.655
 6124POPC   C1B10327  42.484   5.633   8.555
 6124POPC   C2B10328  42.448   5.706   8.255
 6124POPC   C3B10329  42.514   5.630   7.955
 6124POPC   C4B10330  42.455   5.628   7.655
 6125POPC   NC310331  40.011  10.504   9.455
 6125POPC   PO410332  39.962  10.529   9.155
 6125POPC   GL110333  40.034  10.487   8.855
 6125POPC   GL210334  40.039  10.378   8.855
 6125POPC   C1A10335  40.031  10.570   8.555
 6125POPC   D2A10336  39.997  10.540   8.255
 6125POPC   C3A10337  39.972  10.494   7.955
 6125POPC   C4A10338  40.032  10.487   7.655
 6125POPC   C1B10339  40.078  10.289   8.555
 6125POPC   C2B10340  40.104  10.302   8.255
 6125POPC   C3B10341  40.060  10.296   7.955
 6125POPC   C4B10342  40.074  10.290   7.655
 6126POPC   NC310343  18.281   4.272   9.455
 6126POPC   PO410344  18.255   4.267   9.155
 6126POPC   GL110345  18.320   4.268   8.855
 6126POPC   GL210346  18.225   4.340   8.855
 6126POPC   C1A10347  18.254   4.289   8.555
 6126POPC   D2A10348  18.311   4.343   8.255
 6126POPC   C3A10349  18.236   4.311   7.955
 6126POPC   C4A10350  18.270   4.334   7.655
 6126POPC   C1B10351  18.080   4.503   8.555
 6126POPC   C2B10352  18.106   4.465   8.255
 6126POPC   C3B10353  18.068   4.418   7.955
 6126POPC   C4B10354  18.063   4.452   7.655
 6127POPC   NC310355  43.107  19.857   9.455
 6127POPC   PO410356  43.068  19.884   9.155
 6127POPC   GL110357  43.068  19.838   8.855
 6127POPC   GL210358  43.015  19.863   8.855
 6127POPC   C1A10359  43.155  19.821   8.555
 6127POPC   D2A10360  43.068  19.835   8.255
 6127POPC   C3A10361  43.114  19.839   7.955
 6127POPC   C4A10362  43.113  19.798   7.655
 6127POPC   C1B10363  42.957  19.975   8.555
 6127POPC   C2B10364  42.954  19.938   8.255
 6127POPC   C3B10365  42.871  19.936   7.955
 6127POPC   C4B10366  42.886  19.996   7.655
 6128POPC   NC310367  34.617   0.468   9.455
 6128POPC   PO410368  34.576   0.456   9.155
 6128POPC   GL110369  34.626   0.463   8.855
 6128POPC   GL210370  34.474   0.377   8.855
 6128POPC   C1A10371  34.604   0.401   8.555
 6128POPC   D2A10372  34.550   0.444   8.255
 6128POPC   C3A10373  34.579   0.484   7.955
 6128POPC   C4A10374  34.587   0.415   7.655
 6128POPC   C1B10375  34.450   0.302   8.555
 6128POPC   C2B10376  34.407   0.241   8.255
 6128POPC   C3B10377  34.431   0.281   7.955
 6128POPC   C4B10378  34.360   0.249   7.655
 6129POPC   NC310379  34.530  43.935   9.455
 6129POPC   PO410380  34.548  43.907   9.155
 6129POPC   GL110381  34.545  43.851   8.855
 6129POPC   GL210382  34.650  43.936   8.855
 6129POPC   C1A10383  34.605  43.848   8.555
 6129POPC   D2A10384  34.563  43.883   8.255
 6129POPC   C3A10385  34.531  43.890   7.955
 6129POPC   C4A10386  34.581  43.879   7.655
 6129POPC   C1B10387  34.783  43.905   8.555
 6129POPC   C2B10388  34.792  43.975   8.255
 6129POPC   C3B10389  34.865  43.960   7.955
 6129POPC   C4B10390  34.802  43.914   7.655
 6130POPC   NC310391  19.800  34.625   9.455
 6130POPC   PO410392  19.805  34.575   9.155
 6130POPC   GL110393  19.798  34.617   8.855
 6130POPC   GL210394  19.969  34.548   8.855
 6130POPC   C1A10395  19.866  34.603   8.555
 6130POPC   D2A10396  19.884  34.602   8.255
 6130POPC   C3A10397  19.812  34.597   7.955
 6130POPC   C4A10398  19.824  34.536   7.655
 6130POPC   C1B10399  20.118  34.605   8.555
 6130POPC   C2B10400  20.035  34.581   8.255
 6130POPC   C3B10401  20.102  34.598   7.955
 6130POPC   C4B10402  20.068  34.631   7.655
 6131POPC   NC310403   8.953  18.329   9.455
 6131POPC   PO410404   8.971  18.257   9.155
 6131POPC   GL110405   8.974  18.320   8.855
 6131POPC   GL210406   8.911  18.363   8.855
 6131POPC   C1A10407   8.949  18.304   8.555
 6131POPC   D2A10408   8.983  18.260   8.255
 6131POPC   C3A10409   8.941  18.313   7.955
 6131POPC   C4A10410   8.965  18.272   7.655
 6131POPC   C1B10411   8.750  18.450   8.555
 6131POPC   C2B10412   8.776  18.419   8.255
 6131POPC   C3B10413   8.771  18.368   7.955
 6131POPC   C4B10414   8.771  18.412   7.655
 6132POPC   NC310415  37.648  39.279   9.455
 6132POPC   PO410416  37.637  39.218   9.155
 6132POPC   GL110417  37.667  39.255   8.855
 6132POPC   GL210418  37.692  39.350   8.855
 6132POPC   C1A10419  37.668  39.208   8.555
 6132POPC   D2A10420  37.669  39.232   8.255
 6132POPC   C3A10421  37.691  39.196   7.955
 6132POPC   C4A10422  37.692  39.223   7.655
 6132POPC   C1B10423  37.689  39.520   8.555
 6132POPC   C2B10424  37.649  39.437   8.255
 6132POPC   C3B10425  37.704  39.510   7.955
 6132POPC   C4B10426  37.673  39.450   7.655
 6133POPC   NC310427  15.149   3.513   9.455
 6133POPC   PO410428  15.198   3.572   9.155
 6133POPC   GL110429  15.157   3.569   8.855
 6133POPC   GL210430  15.281   3.445   8.855
 6133POPC   C1A10431  15.166   3.575   8.555
 6133POPC   D2A10432  15.197   3.522   8.255
 6133POPC   C3A10433  15.225   3.591   7.955
 6133POPC   C4A10434  15.130   3.560   7.655
 6133POPC   C1B10435  15.340   3.349   8.555
 6133POPC   C2B10436  15.404   3.342   8.255
 6133POPC   C3B10437  15.393   3.383   7.955
 6133POPC   C4B10438  15.373   3.363   7.655
 6134POPC   NC310439  15.962  14.354   9.455
 6134POPC   PO410440  16.005  14.358   9.155
 6134POPC   GL110441  15.956  14.424   8.855
 6134POPC   GL210442  15.889  14.293   8.855
 6134POPC   C1A10443  15.906  14.412   8.555
 6134POPC   D2A10444  15.954  14.363   8.255
 6134POPC   C3A10445  15.996  14.404   7.955
 6134POPC   C4A10446  15.926  14.361   7.655
 6134POPC   C1B10447  15.789  14.258   8.555
 6134POPC   C2B10448  15.784  14.231   8.255
 6134POPC   C3B10449  15.781  14.274   7.955
 6134POPC   C4B10450  15.708  14.291   7.655
 6135POPC   NC310451  12.047   8.931   9.455
 6135POPC   PO410452  12.041   8.953   9.155
 6135POPC   GL110453  12.082   8.962   8.855
 6135POPC   GL210454  12.160   8.826   8.855
 6135POPC   C1A10455  12.085   8.947   8.555
 6135POPC   D2A10456  12.075   8.932   8.255
 6135POPC   C3A10457  12.038   8.928   7.955
 6135POPC   C4A10458  12.052   8.988   7.655
 6135POPC   C1B10459  12.209   8.764   8.555
 6135POPC   C2B10460  12.228   8.710   8.255
 6135POPC   C3B10461  12.219   8.711   7.955
 6135POPC   C4B10462  12.236   8.738   7.655
 6136POPC   NC310463   6.694  35.396   9.455
 6136POPC   PO410464   6.680  35.349   9.155
 6136POPC   GL110465   6.653  35.304   8.855
 6136POPC   GL210466   6.721  35.488   8.855
 6136POPC   C1A10467   6.681  35.322   8.555
 6136POPC   D2A10468   6.634  35.360   8.255
 6136POPC   C3A10469   6.664  35.313   7.955
 6136POPC   C4A10470   6.670  35.324   7.655
 6136POPC   C1B10471   6.800  35.548   8.555
 6136POPC   C2B10472   6.814  35.541   8.255
 6136POPC   C3B10473   6.826  35.577   7.955
 6136POPC   C4B10474   6.735  35.540   7.655
 6137POPC   NC310475   9.751  22.188   9.455
 6137POPC   PO410476   9.725  22.122   9.155
 6137POPC   GL110477   9.744  22.122   8.855
 6137POPC   GL210478   9.758  22.282   8.855
 6137POPC   C1A10479   9.714  22.197   8.555
 6137POPC   D2A10480   9.714  22.167   8.255
 6137POPC   C3A10481   9.744  22.114   7.955
 6137POPC   C4A10482   9.751  22.204   7.655
 6137POPC   C1B10483   9.729  22.419   8.555
 6137POPC   C2B10484   9.711  22.423   8.255
 6137POPC   C3B10485   9.714  22.432   7.955
 6137POPC   C4B10486   9.729  22.445   7.655
 6138POPC   NC310487  35.400  21.399   9.455
 6138POPC   PO410488  35.353  21.417   9.155
 6138POPC   GL110489  35.338  21.372   8.855
 6138POPC   GL210490  35.498  21.473   8.855
 6138POPC   C1A10491  35.332  21.375   8.555
 6138POPC   D2A10492  35.320  21.362   8.255
 6138POPC   C3A10493  35.333  21.338   7.955
 6138POPC   C4A10494  35.382  21.358   7.655
 6138POPC   C1B10495  35.524  21.504   8.555
 6138POPC   C2B10496  35.611  21.539   8.255
 6138POPC   C3B10497  35.607  21.516   7.955
 6138POPC   C4B10498  35.568  21.481   7.655
 6139POPC   NC310499   6.635  22.933   9.455
 6139POPC   PO410500   6.644  22.965   9.155
 6139POPC   GL110501   6.686  22.903   8.855
 6139POPC   GL210502   6.806  22.912   8.855
 6139POPC   C1A10503   6.615  22.935   8.555
 6139POPC   D2A10504   6.647  22.987   8.255
 6139POPC   C3A10505   6.643  22.960   7.955
 6139POPC   C4A10506   6.651  22.970   7.655
 6139POPC   C1B10507   6.862  22.853   8.555
 6139POPC   C2B10508   6.900  22.852   8.255
 6139POPC   C3B10509   6.908  22.929   7.955
 6139POPC   C4B10510   6.846  22.924   7.655
 6140POPC   NC310511  40.803   4.356   9.455
 6140POPC   PO410512  40.789   4.276   9.155
 6140POPC   GL110513  40.761   4.282   8.855
 6140POPC   GL210514  40.698   4.185   8.855
 6140POPC   C1A10515  40.779   4.273   8.555
 6140POPC   D2A10516  40.738   4.363   8.255
 6140POPC   C3A10517  40.752   4.305   7.955
 6140POPC   C4A10518  40.767   4.341   7.655
 6140POPC   C1B10519  40.663   4.136   8.555
 6140POPC   C2B10520  40.584   4.130   8.255
 6140POPC   C3B10521  40.618   4.141   7.955
 6140POPC   C4B10522  40.606   4.151   7.655
 6141POPC   NC310523  30.683   5.089   9.455
 6141POPC   PO410524  30.675   5.053   9.155
 6141POPC   GL110525  30.744   5.046   8.855
 6141POPC   GL210526  30.843   5.103   8.855
 6141POPC   C1A10527  30.654   5.082   8.555
 6141POPC   D2A10528  30.719   5.110   8.255
 6141POPC   C3A10529  30.710   5.068   7.955
 6141POPC   C4A10530  30.713   5.131   7.655
 6141POPC   C1B10531  30.957   5.023   8.555
 6141POPC   C2B10532  30.920   5.060   8.255
 6141POPC   C3B10533  30.943   5.019   7.955
 6141POPC   C4B10534  30.983   5.020   7.655
 6142POPC   NC310535  37.698   9.752   9.455
 6142POPC   PO410536  37.713   9.778   9.155
 6142POPC   GL110537  37.701   9.755   8.855
 6142POPC   GL210538  37.748   9.830   8.855
 6142POPC   C1A10539  37.713   9.771   8.555
 6142POPC   D2A10540  37.675   9.764   8.255
 6142POPC   C3A10541  37.714   9.786   7.955
 6142POPC   C4A10542  37.725   9.772   7.655
 6142POPC   C1B10543  37.827   9.977   8.555
 6142POPC   C2B10544  37.825   9.927   8.255
 6142POPC   C3B10545  37.810   9.967   7.955
 6142POPC   C4B10546  37.810   9.956   7.655
 6143POPC   NC310547  40.745  40.052   9.455
 6143POPC   PO410548  40.773  40.008   9.155
 6143POPC   GL110549  40.747  39.978   8.855
 6143POPC   GL210550  40.824  39.906   8.855
 6143POPC   C1A10551  40.768  40.002   8.555
 6143POPC   D2A10552  40.766  40.038   8.255
 6143POPC   C3A10553  40.786  40.027   7.955
 6143POPC   C4A10554  40.739  39.986   7.655
 6143POPC   C1B10555  40.972  39.805   8.555
 6143POPC   C2B10556  40.991  39.791   8.255
 6143POPC   C3B10557  40.980  39.829   7.955
 6143POPC   C4B10558  40.928  39.782   7.655
 6144POPC   NC310559   5.085  34.625   9.455
 6144POPC   PO410560   5.095  34.554   9.155
 6144POPC   GL110561   5.088  34.571   8.855
 6144POPC   GL210562   5.177  34.492   8.855
 6144POPC   C1A10563   5.054  34.617   8.555
 6144POPC   D2A10564   5.090  34.553   8.255
 6144POPC   C3A10565   5.131  34.616   7.955
 6144POPC   C4A10566   5.085  34.588   7.655
 6144POPC   C1B10567   5.256  34.416   8.555
 6144POPC   C2B10568   5.209  34.436   8.255
 6144POPC   C3B10569   5.293  34.366   7.955
 6144POPC   C4B10570   5.261  34.350   7.655
 6145POPC   NC310571  41.581   3.564   9.455
 6145POPC   PO410572  41.566   3.566   9.155
 6145POPC   GL110573  41.608   3.544   8.855
 6145POPC   GL210574  41.483   3.528   8.855
 6145POPC   C1A10575  41.550   3.537   8.555
 6145POPC   D2A10576  41.551   3.493   8.255
 6145POPC   C3A10577  41.605   3.500   7.955
 6145POPC   C4A10578  41.529   3.567   7.655
 6145POPC   C1B10579  41.292   3.502   8.555
 6145POPC   C2B10580  41.307   3.415   8.255
 6145POPC   C3B10581  41.281   3.493   7.955
 6145POPC   C4B10582  41.346   3.465   7.655
 6146POPC   NC310583   1.236  24.481   9.455
 6146POPC   PO410584   1.176  24.488   9.155
 6146POPC   GL110585   1.179  24.486   8.855
 6146POPC   GL210586   1.277  24.428   8.855
 6146POPC   C1A10587   1.257  24.462   8.555
 6146POPC   D2A10588   1.201  24.526   8.255
 6146POPC   C3A10589   1.165  24.478   7.955
 6146POPC   C4A10590   1.243  24.473   7.655
 6146POPC   C1B10591   1.363  24.239   8.555
 6146POPC   C2B10592   1.370  24.319   8.255
 6146POPC   C3B10593   1.343  24.292   7.955
 6146POPC   C4B10594   1.347  24.283   7.655
 6147POPC   NC310595  26.777  27.590   9.455
 6147POPC   PO410596  26.820  27.607   9.155
 6147POPC   GL110597  26.770  27.568   8.855
 6147POPC   GL210598  26.771  27.453   8.855
 6147POPC   C1A10599  26.798  27.633   8.555
 6147POPC   D2A10600  26.768  27.566   8.255
 6147POPC   C3A10601  26.815  27.608   7.955
 6147POPC   C4A10602  26.818  27.602   7.655
 6147POPC   C1B10603  26.749  27.375   8.555
 6147POPC   C2B10604  26.797  27.401   8.255
 6147POPC   C3B10605  26.795  27.331   7.955
 6147POPC   C4B10606  26.768  27.388   7.655
 6148POPC   NC310607  20.561  13.579   9.455
 6148POPC   PO410608  20.597  13.630   9.155
 6148POPC   GL110609  20.591  13.671   8.855
 6148POPC   GL210610  20.755  13.650   8.855
 6148POPC   C1A10611  20.631  13.602   8.555
 6148POPC   D2A10612  20.641  13.649   8.255
 6148POPC   C3A10613  20.605  13.596   7.955
 6148POPC   C4A10614  20.633  13.613   7.655
 6148POPC   C1B10615  20.835  13.644   8.555
 6148POPC   C2B10616  20.814  13.656   8.255
 6148POPC   C3B10617  20.890  13.594   7.955
 6148POPC   C4B10618  20.904  13.646   7.655
 6149POPC   NC310619   9.732   5.111   9.455
 6149POPC   PO410620   9.732   5.117   9.155
 6149POPC   GL110621   9.792   5.140   8.855
 6149POPC   GL210622   9.804   5.057   8.855
 6149POPC   C1A10623   9.732   5.078   8.555
 6149POPC   D2A10624   9.758   5.087   8.255
 6149POPC   C3A10625   9.798   5.119   7.955
 6149POPC   C4A10626   9.706   5.051   7.655
 6149POPC   C1B10627   9.923   4.998   8.555
 6149POPC   C2B10628   9.992   4.989   8.255
 6149POPC   C3B10629   9.935   4.935   7.955
 6149POPC   C4B10630   9.911   4.914   7.655
 6150POPC   NC310631  35.327  31.433   9.455
 6150POPC   PO410632  35.319  31.468   9.155
 6150POPC   GL110633  35.326  31.513   8.855
 6150POPC   GL210634  35.429  31.380   8.855
 6150POPC   C1A10635  35.364  31.457   8.555
 6150POPC   D2A10636  35.304  31.458   8.255
 6150POPC   C3A10637  35.316  31.451   7.955
 6150POPC   C4A10638  35.385  31.483   7.655
 6150POPC   C1B10639  35.459  31.194   8.555
 6150POPC   C2B10640  35.491  31.268   8.255
 6150POPC   C3B10641  35.451  31.271   7.955
 6150POPC   C4B10642  35.449  31.231   7.655
 6151POPC   NC310643  28.339   8.964   9.455
 6151POPC   PO410644  28.367   8.925   9.155
 6151POPC   GL110645  28.391   8.938   8.855
 6151POPC   GL210646  28.320   9.096   8.855
 6151POPC   C1A10647  28.348   9.005   8.555
 6151POPC   D2A10648  28.374   8.996   8.255
 6151POPC   C3A10649  28.415   9.019   7.955
 6151POPC   C4A10650  28.336   9.007   7.655
 6151POPC   C1B10651  28.247   9.192   8.555
 6151POPC   C2B10652  28.282   9.229   8.255
 6151POPC   C3B10653  28.294   9.203   7.955
 6151POPC   C4B10654  28.335   9.178   7.655
 6152POPC   NC310655  12.854  17.547   9.455
 6152POPC   PO410656  12.881  17.543   9.155
 6152POPC   GL110657  12.882  17.494   8.855
 6152POPC   GL210658  12.762  17.603   8.855
 6152POPC   C1A10659  12.850  17.480   8.555
 6152POPC   D2A10660  12.886  17.478   8.255
 6152POPC   C3A10661  12.827  17.524   7.955
 6152POPC   C4A10662  12.808  17.485   7.655
 6152POPC   C1B10663  12.674  17.596   8.555
 6152POPC   C2B10664  12.591  17.624   8.255
 6152POPC   C3B10665  12.678  17.603   7.955
 6152POPC   C4B10666  12.622  17.664   7.655
 6153POPC   NC310667  10.493  19.837   9.455
 6153POPC   PO410668  10.519  19.862   9.155
 6153POPC   GL110669  10.536  19.867   8.855
 6153POPC   GL210670  10.572  19.739   8.855
 6153POPC   C1A10671  10.558  19.858   8.555
 6153POPC   D2A10672  10.540  19.808   8.255
 6153POPC   C3A10673  10.494  19.824   7.955
 6153POPC   C4A10674  10.520  19.876   7.655
 6153POPC   C1B10675  10.676  19.656   8.555
 6153POPC   C2B10676  10.626  19.580   8.255
 6153POPC   C3B10677  10.586  19.629   7.955
 6153POPC   C4B10678  10.637  19.584   7.655
 6154POPC   NC310679   5.057  43.880   9.455
 6154POPC   PO410680   5.067  43.840   9.155
 6154POPC   GL110681   5.058  43.911   8.855
 6154POPC   GL210682   4.968  44.021   8.855
 6154POPC   C1A10683   5.137  43.870   8.555
 6154POPC   D2A10684   5.090  43.918   8.255
 6154POPC   C3A10685   5.057  43.898   7.955
 6154POPC   C4A10686   5.076  43.884   7.655
 6154POPC   C1B10687   4.913  44.028   8.555
 6154POPC   C2B10688   4.896  44.094   8.255
 6154POPC   C3B10689   4.892  44.028   7.955
 6154POPC   C4B10690   4.896  44.030   7.655
 6155POPC   NC310691   7.454  14.371   9.455
 6155POPC   PO410692   7.374  14.449   9.155
 6155POPC   GL110693   7.456  14.363   8.855
 6155POPC   GL210694   7.457  14.471   8.855
 6155POPC   C1A10695   7.398  14.365   8.555
 6155POPC   D2A10696   7.468  14.425   8.255
 6155POPC   C3A10697   7.396  14.354   7.955
 6155POPC   C4A10698   7.454  14.376   7.655
 6155POPC   C1B10699   7.519  14.684   8.555
 6155POPC   C2B10700   7.531  14.655   8.255
 6155POPC   C3B10701   7.515  14.628   7.955
 6155POPC   C4B10702   7.536  14.651   7.655
 6156POPC   NC310703  11.345  19.875   9.455
 6156POPC   PO410704  11.278  19.786   9.155
 6156POPC   GL110705  11.297  19.831   8.855
 6156POPC   GL210706  11.353  19.919   8.855
 6156POPC   C1A10707  11.348  19.800   8.555
 6156POPC   D2A10708  11.302  19.789   8.255
 6156POPC   C3A10709  11.255  19.809   7.955
 6156POPC   C4A10710  11.289  19.864   7.655
 6156POPC   C1B10711  11.368  20.107   8.555
 6156POPC   C2B10712  11.297  20.130   8.255
 6156POPC   C3B10713  11.312  20.077   7.955
 6156POPC   C4B10714  11.364  20.076   7.655
 6157POPC   NC310715   9.699  41.548   9.455
 6157POPC   PO410716   9.778  41.560   9.155
 6157POPC   GL110717   9.740  41.556   8.855
 6157POPC   GL210718   9.720  41.449   8.855
 6157POPC   C1A10719   9.758  41.580   8.555
 6157POPC   D2A10720   9.727  41.592   8.255
 6157POPC   C3A10721   9.728  41.572   7.955
 6157POPC   C4A10722   9.760  41.592   7.655
 6157POPC   C1B10723   9.794  41.327   8.555
 6157POPC   C2B10724   9.743  41.277   8.255
 6157POPC   C3B10725   9.765  41.333   7.955
 6157POPC   C4B10726   9.784  41.295   7.655
 6158POPC   NC310727  34.538   3.508   9.455
 6158POPC   PO410728  34.546   3.500   9.155
 6158POPC   GL110729  34.594   3.550   8.855
 6158POPC   GL210730  34.480   3.677   8.855
 6158POPC   C1A10731  34.553   3.492   8.555
 6158POPC   D2A10732  34.599   3.544   8.255
 6158POPC   C3A10733  34.556   3.574   7.955
 6158POPC   C4A10734  34.551   3.548   7.655
 6158POPC   C1B10735  34.461   3.741   8.555
 6158POPC   C2B10736  34.444   3.761   8.255
 6158POPC   C3B10737  34.489   3.799   7.955
 6158POPC   C4B10738  34.471   3.799   7.655
 6159POPC   NC310739   4.317   0.395   9.455
 6159POPC   PO410740   4.303   0.444   9.155
 6159POPC   GL110741   4.361   0.402   8.855
 6159POPC   GL210742   4.253   0.341   8.855
 6159POPC   C1A10743   4.351   0.477   8.555
 6159POPC   D2A10744   4.351   0.403   8.255
 6159POPC   C3A10745   4.323   0.393   7.955
 6159POPC   C4A10746   4.332   0.420   7.655
 6159POPC   C1B10747   4.260   0.189   8.555
 6159POPC   C2B10748   4.272   0.183   8.255
 6159POPC   C3B10749   4.265   0.219   7.955
 6159POPC   C4B10750   4.289   0.244   7.655
 6160POPC   NC310751  14.363  18.272   9.455
 6160POPC   PO410752  14.422  18.317   9.155
 6160POPC   GL110753  14.442  18.297   8.855
 6160POPC   GL210754  14.541  18.153   8.855
 6160POPC   C1A10755  14.370  18.267   8.555
 6160POPC   D2A10756  14.439  18.293   8.255
 6160POPC   C3A10757  14.376  18.284   7.955
 6160POPC   C4A10758  14.396  18.330   7.655
 6160POPC   C1B10759  14.611  18.143   8.555
 6160POPC   C2B10760  14.565  18.132   8.255
 6160POPC   C3B10761  14.603  18.102   7.955
 6160POPC   C4B10762  14.569  18.070   7.655
 6161POPC   NC310763  13.598  33.812   9.455
 6161POPC   PO410764  13.644  33.765   9.155
 6161POPC   GL110765  13.634  33.847   8.855
 6161POPC   GL210766  13.664  33.908   8.855
 6161POPC   C1A10767  13.668  33.802   8.555
 6161POPC   D2A10768  13.676  33.798   8.255
 6161POPC   C3A10769  13.641  33.813   7.955
 6161POPC   C4A10770  13.606  33.807   7.655
 6161POPC   C1B10771  13.687  34.038   8.555
 6161POPC   C2B10772  13.688  34.046   8.255
 6161POPC   C3B10773  13.747  34.054   7.955
 6161POPC   C4B10774  13.763  34.011   7.655
 6162POPC   NC310775   1.958  22.920   9.455
 6162POPC   PO410776   2.020  22.900   9.155
 6162POPC   GL110777   1.996  22.982   8.855
 6162POPC   GL210778   1.977  23.058   8.855
 6162POPC   C1A10779   1.961  22.895   8.555
 6162POPC   D2A10780   2.021  22.962   8.255
 6162POPC   C3A10781   1.956  22.986   7.955
 6162POPC   C4A10782   1.978  22.951   7.655
 6162POPC   C1B10783   1.877  23.175   8.555
 6162POPC   C2B10784   1.913  23.154   8.255
 6162POPC   C3B10785   1.852  23.190   7.955
 6162POPC   C4B10786   1.897  23.153   7.655
 6163POPC   NC310787  19.072  31.521   9.455
 6163POPC   PO410788  19.029  31.498   9.155
 6163POPC   GL110789  19.082  31.423   8.855
 6163POPC   GL210790  19.136  31.491   8.855
 6163POPC   C1A10791  19.028  31.521   8.555
 6163POPC   D2A10792  19.036  31.462   8.255
 6163POPC   C3A10793  19.085  31.445   7.955
 6163POPC   C4A10794  19.098  31.518   7.655
 6163POPC   C1B10795  19.299  31.451   8.555
 6163POPC   C2B10796  19.301  31.431   8.255
 6163POPC   C3B10797  19.290  31.436   7.955
 6163POPC   C4B10798  19.272  31.485   7.655
 6164POPC   NC310799  11.317  33.758   9.455
 6164POPC   PO410800  11.317  33.761   9.155
 6164POPC   GL110801  11.306  33.775   8.855
 6164POPC   GL210802  11.365  33.692   8.855
 6164POPC   C1A10803  11.286  33.802   8.555
 6164POPC   D2A10804  11.310  33.803   8.255
 6164POPC   C3A10805  11.316  33.787   7.955
 6164POPC   C4A10806  11.267  33.778   7.655
 6164POPC   C1B10807  11.427  33.577   8.555
 6164POPC   C2B10808  11.431  33.605   8.255
 6164POPC   C3B10809  11.421  33.629   7.955
 6164POPC   C4B10810  11.416  33.537   7.655
 6165POPC   NC310811  14.387  23.759   9.455
 6165POPC   PO410812  14.358  23.716   9.155
 6165POPC   GL110813  14.356  23.715   8.855
 6165POPC   GL210814  14.508  23.647   8.855
 6165POPC   C1A10815  14.362  23.686   8.555
 6165POPC   D2A10816  14.423  23.739   8.255
 6165POPC   C3A10817  14.431  23.722   7.955
 6165POPC   C4A10818  14.400  23.724   7.655
 6165POPC   C1B10819  14.664  23.680   8.555
 6165POPC   C2B10820  14.606  23.657   8.255
 6165POPC   C3B10821  14.601  23.669   7.955
 6165POPC   C4B10822  14.685  23.642   7.655
 6166POPC   NC310823  38.498  21.377   9.455
 6166POPC   PO410824  38.419  21.386   9.155
 6166POPC   GL110825  38.434  21.379   8.855
 6166POPC   GL210826  38.331  21.348   8.855
 6166POPC   C1A10827  38.443  21.394   8.555
 6166POPC   D2A10828  38.446  21.352   8.255
 6166POPC   C3A10829  38.430  21.364   7.955
 6166POPC   C4A10830  38.483  21.394   7.655
 6166POPC   C1B10831  38.176  21.417   8.555
 6166POPC   C2B10832  38.175  21.415   8.255
 6166POPC   C3B10833  38.170  21.372   7.955
 6166POPC   C4B10834  38.255  21.415   7.655
 6167POPC   NC310835  44.619   9.001   9.455
 6167POPC   PO410836  44.630   8.934   9.155
 6167POPC   GL110837  44.631   8.994   8.855
 6167POPC   GL210838  44.801   8.888   8.855
 6167POPC   C1A10839  44.673   8.972   8.555
 6167POPC   D2A10840  44.612   9.001   8.255
 6167POPC   C3A10841  44.632   9.004   7.955
 6167POPC   C4A10842  44.669   8.994   7.655
 6167POPC   C1B10843  44.857   8.849   8.555
 6167POPC   C2B10844  44.918   8.841   8.255
 6167POPC   C3B10845  44.918   8.867   7.955
 6167POPC   C4B10846  44.908   8.879   7.655
 6168POPC   NC310847  40.048  37.670   9.455
 6168POPC   PO410848  40.034  37.648   9.155
 6168POPC   GL110849  39.976  37.634   8.855
 6168POPC   GL210850  39.959  37.606   8.855
 6168POPC   C1A10851  40.048  37.710   8.555
 6168POPC   D2A10852  40.018  37.651   8.255
 6168POPC   C3A10853  39.973  37.725   7.955
 6168POPC   C4A10854  40.028  37.671   7.655
 6168POPC   C1B10855  39.986  37.449   8.555
 6168POPC   C2B10856  39.898  37.427   8.255
 6168POPC   C3B10857  39.900  37.390   7.955
 6168POPC   C4B10858  39.895  37.389   7.655
 6169POPC   NC310859  21.390   3.566   9.455
 6169POPC   PO410860  21.337   3.586   9.155
 6169POPC   GL110861  21.421   3.527   8.855
 6169POPC   GL210862  21.246   3.576   8.855
 6169POPC   C1A10863  21.403   3.563   8.555
 6169POPC   D2A10864  21.372   3.500   8.255
 6169POPC   C3A10865  21.360   3.497   7.955
 6169POPC   C4A10866  21.399   3.585   7.655
 6169POPC   C1B10867  21.137   3.623   8.555
 6169POPC   C2B10868  21.136   3.565   8.255
 6169POPC   C3B10869  21.186   3.639   7.955
 6169POPC   C4B10870  21.097   3.638   7.655
 6170POPC   NC310871  32.229  18.249   9.455
 6170POPC   PO410872  32.276  18.306   9.155
 6170POPC   GL110873  32.259  18.244   8.855
 6170POPC   GL210874  32.228  18.161   8.855
 6170POPC   C1A10875  32.283  18.305   8.555
 6170POPC   D2A10876  32.210  18.317   8.255
 6170POPC   C3A10877  32.238  18.254   7.955
 6170POPC   C4A10878  32.212  18.318   7.655
 6170POPC   C1B10879  32.125  18.036   8.555
 6170POPC   C2B10880  32.106  18.010   8.255
 6170POPC   C3B10881  32.107  18.100   7.955
 6170POPC   C4B10882  32.163  18.086   7.655
 6171POPC   NC310883  34.599   1.183   9.455
 6171POPC   PO410884  34.626   1.260   9.155
 6171POPC   GL110885  34.531   1.188   8.855
 6171POPC   GL210886  34.526   1.339   8.855
 6171POPC   C1A10887  34.538   1.217   8.555
 6171POPC   D2A10888  34.570   1.261   8.255
 6171POPC   C3A10889  34.592   1.166   7.955
 6171POPC   C4A10890  34.544   1.180   7.655
 6171POPC   C1B10891  34.364   1.439   8.555
 6171POPC   C2B10892  34.389   1.431   8.255
 6171POPC   C3B10893  34.377   1.437   7.955
 6171POPC   C4B10894  34.393   1.403   7.655
 6172POPC   NC310895  43.928   2.004   9.455
 6172POPC   PO410896  43.856   1.971   9.155
 6172POPC   GL110897  43.929   1.996   8.855
 6172POPC   GL210898  43.847   2.090   8.855
 6172POPC   C1A10899  43.890   2.014   8.555
 6172POPC   D2A10900  43.851   1.966   8.255
 6172POPC   C3A10901  43.880   1.991   7.955
 6172POPC   C4A10902  43.888   1.989   7.655
 6172POPC   C1B10903  43.786   2.235   8.555
 6172POPC   C2B10904  43.754   2.190   8.255
 6172POPC   C3B10905  43.828   2.191   7.955
 6172POPC   C4B10906  43.774   2.239   7.655
 6173POPC   NC310907  32.212  16.001   9.455
 6173POPC   PO410908  32.238  15.954   9.155
 6173POPC   GL110909  32.293  16.002   8.855
 6173POPC   GL210910  32.289  16.087   8.855
 6173POPC   C1A10911  32.254  16.005   8.555
 6173POPC   D2A10912  32.248  15.943   8.255
 6173POPC   C3A10913  32.256  15.951   7.955
 6173POPC   C4A10914  32.251  15.923   7.655
 6173POPC   C1B10915  32.388  16.200   8.555
 6173POPC   C2B10916  32.373  16.154   8.255
 6173POPC   C3B10917  32.313  16.176   7.955
 6173POPC   C4B10918  32.346  16.180   7.655
 6174POPC   NC310919  25.245  19.027   9.455
 6174POPC   PO410920  25.311  19.068   9.155
 6174POPC   GL110921  25.274  19.074   8.855
 6174POPC   GL210922  25.381  18.936   8.855
 6174POPC   C1A10923  25.299  19.104   8.555
 6174POPC   D2A10924  25.280  19.076   8.255
 6174POPC   C3A10925  25.253  19.039   7.955
 6174POPC   C4A10926  25.242  19.026   7.655
 6174POPC   C1B10927  25.412  18.823   8.555
 6174POPC   C2B10928  25.374  18.865   8.255
 6174POPC   C3B10929  25.392  18.810   7.955
 6174POPC   C4B10930  25.444  18.851   7.655
 6175POPC   NC310931  32.268   9.770   9.455
 6175POPC   PO410932  32.298   9.711   9.155
 6175POPC   GL110933  32.279   9.757   8.855
 6175POPC   GL210934  32.360   9.735   8.855
 6175POPC   C1A10935  32.204   9.798   8.555
 6175POPC   D2A10936  32.258   9.751   8.255
 6175POPC   C3A10937  32.210   9.756   7.955
 6175POPC   C4A10938  32.229   9.773   7.655
 6175POPC   C1B10939  32.463   9.700   8.555
 6175POPC   C2B10940  32.530   9.735   8.255
 6175POPC   C3B10941  32.464   9.730   7.955
 6175POPC   C4B10942  32.517   9.669   7.655
 6176POPC   NC310943  41.583  31.477   9.455
 6176POPC   PO410944  41.514  31.448   9.155
 6176POPC   GL110945  41.595  31.481   8.855
 6176POPC   GL210946  41.502  31.354   8.855
 6176POPC   C1A10947  41.526  31.488   8.555
 6176POPC   D2A10948  41.516  31.438   8.255
 6176POPC   C3A10949  41.607  31.466   7.955
 6176POPC   C4A10950  41.534  31.518   7.655
 6176POPC   C1B10951  41.366  31.261   8.555
 6176POPC   C2B10952  41.450  31.287   8.255
 6176POPC   C3B10953  41.449  31.245   7.955
 6176POPC   C4B10954  41.359  31.245   7.655
 6177POPC   NC310955  43.082  14.394   9.455
 6177POPC   PO410956  43.158  14.365   9.155
 6177POPC   GL110957  43.084  14.373   8.855
 6177POPC   GL210958  43.040  14.523   8.855
 6177POPC   C1A10959  43.091  14.409   8.555
 6177POPC   D2A10960  43.130  14.428   8.255
 6177POPC   C3A10961  43.154  14.412   7.955
 6177POPC   C4A10962  43.066  14.451   7.655
 6177POPC   C1B10963  43.005  14.649   8.555
 6177POPC   C2B10964  43.081  14.688   8.255
 6177POPC   C3B10965  43.017  14.626   7.955
 6177POPC   C4B10966  43.069  14.682   7.655
 6178POPC   NC310967   0.479   6.618   9.455
 6178POPC   PO410968   0.474   6.662   9.155
 6178POPC   GL110969   0.440   6.647   8.855
 6178POPC   GL210970   0.342   6.613   8.855
 6178POPC   C1A10971   0.399   6.686   8.555
 6178POPC   D2A10972   0.421   6.685   8.255
 6178POPC   C3A10973   0.431   6.688   7.955
 6178POPC   C4A10974   0.412   6.619   7.655
 6178POPC   C1B10975   0.147   6.680   8.555
 6178POPC   C2B10976   0.204   6.654   8.255
 6178POPC   C3B10977   0.158   6.649   7.955
 6178POPC   C4B10978   0.224   6.636   7.655
 6179POPC   NC310979  21.387   4.273   9.455
 6179POPC   PO410980  21.347   4.280   9.155
 6179POPC   GL110981  21.379   4.304   8.855
 6179POPC   GL210982  21.389   4.176   8.855
 6179POPC   C1A10983  21.409   4.331   8.555
 6179POPC   D2A10984  21.389   4.295   8.255
 6179POPC   C3A10985  21.420   4.315   7.955
 6179POPC   C4A10986  21.379   4.302   7.655
 6179POPC   C1B10987  21.359   4.080   8.555
 6179POPC   C2B10988  21.384   4.106   8.255
 6179POPC   C3B10989  21.365   4.107   7.955
 6179POPC   C4B10990  21.354   4.107   7.655
 6180POPC   NC310991  26.052   3.505   9.455
 6180POPC   PO410992  26.030   3.579   9.155
 6180POPC   GL110993  26.017   3.534   8.855
 6180POPC   GL210994  26.081   3.610   8.855
 6180POPC   C1A10995  26.060   3.587   8.555
 6180POPC   D2A10996  26.058   3.552   8.255
 6180POPC   C3A10997  26.027   3.507   7.955
 6180POPC   C4A10998  26.030   3.500   7.655
 6180POPC   C1B10999  26.229   3.780   8.555
 6180POPC   C2B11000  26.198   3.789   8.255
 6180POPC   C3B11001  26.164   3.777   7.955
 6180POPC   C4B11002  26.213   3.739   7.655
 6181POPC   NC311003   8.224  44.698   9.455
 6181POPC   PO411004   8.190  44.689   9.155
 6181POPC   GL111005   8.221  44.709   8.855
 6181POPC   GL211006   8.190  44.744   8.855
 6181POPC   C1A11007   8.176  44.659   8.555
 6181POPC   D2A11008   8.184  44.685   8.255
 6181POPC   C3A11009   8.223  44.636   7.955
 6181POPC   C4A11010   8.233  44.664   7.655
 6181POPC   C1B11011   8.203  44.921   8.555
 6181POPC   C2B11012   8.236  44.871   8.255
 6181POPC   C3B11013   8.198  44.952   7.955
 6181POPC   C4B11014   8.176  44.909   7.655
 6182POPC   NC311015   7.395  32.296   9.455
 6182POPC   PO411016   7.404  32.212   9.155
 6182POPC   GL111017   7.411  32.267   8.855
 6182POPC   GL211018   7.354  32.377   8.855
 6182POPC   C1A11019   7.381  32.294   8.555
 6182POPC   D2A11020   7.437  32.247   8.255
 6182POPC   C3A11021   7.378  32.227   7.955
 6182POPC   C4A11022   7.454  32.244   7.655
 6182POPC   C1B11023   7.374  32.528   8.555
 6182POPC   C2B11024   7.372  32.442   8.255
 6182POPC   C3B11025   7.342  32.468   7.955
 6182POPC   C4B11026   7.358  32.439   7.655
 6183POPC   NC311027  38.496  42.348   9.455
 6183POPC   PO411028  38.427  42.379   9.155
 6183POPC   GL111029  38.444  42.286   8.855
 6183POPC   GL211030  38.586  42.342   8.855
 6183POPC   C1A11031  38.485  42.359   8.555
 6183POPC   D2A11032  38.430  42.363   8.255
 6183POPC   C3A11033  38.497  42.374   7.955
 6183POPC   C4A11034  38.416  42.377   7.655
 6183POPC   C1B11035  38.681  42.310   8.555
 6183POPC   C2B11036  38.715  42.306   8.255
 6183POPC   C3B11037  38.649  42.298   7.955
 6183POPC   C4B11038  38.689  42.259   7.655
 6184POPC   NC311039  36.939   2.027   9.455
 6184POPC   PO411040  36.922   1.940   9.155
 6184POPC   GL111041  36.890   1.955   8.855
 6184POPC   GL211042  37.018   2.060   8.855
 6184POPC   C1A11043  36.862   1.986   8.555
 6184POPC   D2A11044  36.900   1.990   8.255
 6184POPC   C3A11045  36.872   1.964   7.955
 6184POPC   C4A11046  36.892   2.031   7.655
 6184POPC   C1B11047  37.036   2.221   8.555
 6184POPC   C2B11048  37.055   2.178   8.255
 6184POPC   C3B11049  37.089   2.145   7.955
 6184POPC   C4B11050  37.084   2.180   7.655
 6185POPC   NC311051  32.250  12.028   9.455
 6185POPC   PO411052  32.235  12.068   9.155
 6185POPC   GL111053  32.278  12.065   8.855
 6185POPC   GL211054  32.246  12.175   8.855
 6185POPC   C1A11055  32.275  12.096   8.555
 6185POPC   D2A11056  32.285  12.103   8.255
 6185POPC   C3A11057  32.253  12.123   7.955
 6185POPC   C4A11058  32.224  12.111   7.655
 6185POPC   C1B11059  32.345  12.294   8.555
 6185POPC   C2B11060  32.322  12.285   8.255
 6185POPC   C3B11061  32.343  12.328   7.955
 6185POPC   C4B11062  32.327  12.285   7.655
 6186POPC   NC311063  12.814  20.623   9.455
 6186POPC   PO411064  12.802  20.563   9.155
 6186POPC   GL111065  12.810  20.593   8.855
 6186POPC   GL211066  12.982  20.690   8.855
 6186POPC   C1A11067  12.838  20.632   8.555
 6186POPC   D2A11068  12.891  20.611   8.255
 6186POPC   C3A11069  12.849  20.619   7.955
 6186POPC   C4A11070  12.824  20.650   7.655
 6186POPC   C1B11071  13.065  20.742   8.555
 6186POPC   C2B11072  13.060  20.753   8.255
 6186POPC   C3B11073  13.019  20.800   7.955
 6186POPC   C4B11074  13.077  20.800   7.655
 6187POPC   NC311075   8.185  15.184   9.455
 6187POPC   PO411076   8.156  15.153   9.155
 6187POPC   GL111077   8.180  15.208   8.855
 6187POPC   GL211078   8.304  15.290   8.855
 6187POPC   C1A11079   8.238  15.189   8.555
 6187POPC   D2A11080   8.190  15.175   8.255
 6187POPC   C3A11081   8.155  15.146   7.955
 6187POPC   C4A11082   8.241  15.135   7.655
 6187POPC   C1B11083   8.378  15.284   8.555
 6187POPC   C2B11084   8.430  15.364   8.255
 6187POPC   C3B11085   8.445  15.355   7.955
 6187POPC   C4B11086   8.435  15.281   7.655
 6188POPC   NC311087   0.424  26.033   9.455
 6188POPC   PO411088   0.478  26.054   9.155
 6188POPC   GL111089   0.439  26.023   8.855
 6188POPC   GL211090   0.380  26.167   8.855
 6188POPC   C1A11091   0.389  26.061   8.555
 6188POPC   D2A11092   0.403  26.000   8.255
 6188POPC   C3A11093   0.476  25.995   7.955
 6188POPC   C4A11094   0.394  26.043   7.655
 6188POPC   C1B11095   0.336  26.300   8.555
 6188POPC   C2B11096   0.279  26.242   8.255
 6188POPC   C3B11097   0.312  26.233   7.955
 6188POPC   C4B11098   0.369  26.284   7.655
 6189POPC   NC311099  12.827  32.216   9.455
 6189POPC   PO411100  12.852  32.264   9.155
 6189POPC   GL111101  12.813  32.212   8.855
 6189POPC   GL211102  12.878  32.103   8.855
 6189POPC   C1A11103  12.900  32.235   8.555
 6189POPC   D2A11104  12.898  32.277   8.255
 6189POPC   C3A11105  12.870  32.258   7.955
 6189POPC   C4A11106  12.840  32.220   7.655
 6189POPC   C1B11107  12.798  31.985   8.555
 6189POPC   C2B11108  12.857  31.972   8.255
 6189POPC   C3B11109  12.805  32.039   7.955
 6189POPC   C4B11110  12.770  32.006   7.655
 6190POPC   NC311111  21.420   5.859   9.455
 6190POPC   PO411112  21.359   5.888   9.155
 6190POPC   GL111113  21.356   5.894   8.855
 6190POPC   GL211114  21.315   5.845   8.855
 6190POPC   C1A11115  21.411   5.854   8.555
 6190POPC   D2A11116  21.356   5.877   8.255
 6190POPC   C3A11117  21.367   5.891   7.955
 6190POPC   C4A11118  21.419   5.822   7.655
 6190POPC   C1B11119  21.178   5.789   8.555
 6190POPC   C2B11120  21.114   5.825   8.255
 6190POPC   C3B11121  21.194   5.834   7.955
 6190POPC   C4B11122  21.128   5.768   7.655
 6191POPC   NC311123  24.486  15.984   9.455
 6191POPC   PO411124  24.500  15.981   9.155
 6191POPC   GL111125  24.536  15.916   8.855
 6191POPC   GL211126  24.395  15.870   8.855
 6191POPC   C1A11127  24.456  16.001   8.555
 6191POPC   D2A11128  24.490  15.986   8.255
 6191POPC   C3A11129  24.450  15.936   7.955
 6191POPC   C4A11130  24.524  15.933   7.655
 6191POPC   C1B11131  24.353  15.735   8.555
 6191POPC   C2B11132  24.348  15.692   8.255
 6191POPC   C3B11133  24.431  15.730   7.955
 6191POPC   C4B11134  24.358  15.713   7.655
 6192POPC   NC311135  29.136  26.849   9.455
 6192POPC   PO411136  29.175  26.769   9.155
 6192POPC   GL111137  29.170  26.858   8.855
 6192POPC   GL211138  29.227  26.957   8.855
 6192POPC   C1A11139  29.179  26.834   8.555
 6192POPC   D2A11140  29.132  26.818   8.255
 6192POPC   C3A11141  29.140  26.773   7.955
 6192POPC   C4A11142  29.177  26.848   7.655
 6192POPC   C1B11143  29.250  27.056   8.555
 6192POPC   C2B11144  29.178  27.018   8.255
 6192POPC   C3B11145  29.195  27.018   7.955
 6192POPC   C4B11146  29.230  27.014   7.655
 6193POPC   NC311147   4.305  30.726   9.455
 6193POPC   PO411148   4.318  30.689   9.155
 6193POPC   GL111149   4.322  30.671   8.855
 6193POPC   GL211150   4.419  30.717   8.855
 6193POPC   C1A11151   4.293  30.657   8.555
 6193POPC   D2A11152   4.360  30.719   8.255
 6193POPC   C3A11153   4.337  30.734   7.955
 6193POPC   C4A11154   4.307  30.726   7.655
 6193POPC   C1B11155   4.528  30.747   8.555
 6193POPC   C2B11156   4.555  30.793   8.255
 6193POPC   C3B11157   4.573  30.766   7.955
 6193POPC   C4B11158   4.543  30.777   7.655
 6194POPC   NC311159   4.336  20.568   9.455
 6194POPC   PO411160   4.286  20.622   9.155
 6194POPC   GL111161   4.274  20.592   8.855
 6194POPC   GL211162   4.323  20.760   8.855
 6194POPC   C1A11163   4.362  20.575   8.555
 6194POPC   D2A11164   4.283  20.627   8.255
 6194POPC   C3A11165   4.292  20.606   7.955
 6194POPC   C4A11166   4.331  20.652   7.655
 6194POPC   C1B11167   4.374  20.796   8.555
 6194POPC   C2B11168   4.393  20.824   8.255
 6194POPC   C3B11169   4.357  20.894   7.955
 6194POPC   C4B11170   4.392  20.802   7.655
 6195POPC   NC311171  26.017  34.588   9.455
 6195POPC   PO411172  26.051  34.586   9.155
 6195POPC   GL111173  26.003  34.571   8.855
 6195POPC   GL211174  25.995  34.473   8.855
 6195POPC   C1A11175  26.005  34.607   8.555
 6195POPC   D2A11176  25.997  34.556   8.255
 6195POPC   C3A11177  26.062  34.572   7.955
 6195POPC   C4A11178  26.071  34.610   7.655
 6195POPC   C1B11179  25.853  34.371   8.555
 6195POPC   C2B11180  25.874  34.362   8.255
 6195POPC   C3B11181  25.899  34.418   7.955
 6195POPC   C4B11182  25.913  34.423   7.655
 6196POPC   NC311183   6.627  19.019   9.455
 6196POPC   PO411184   6.649  19.025   9.155
 6196POPC   GL111185   6.682  19.107   8.855
 6196POPC   GL211186   6.765  19.109   8.855
 6196POPC   C1A11187   6.682  19.048   8.555
 6196POPC   D2A11188   6.663  19.011   8.255
 6196POPC   C3A11189   6.692  19.090   7.955
 6196POPC   C4A11190   6.632  19.032   7.655
 6196POPC   C1B11191   6.867  19.054   8.555
 6196POPC   C2B11192   6.901  19.086   8.255
 6196POPC   C3B11193   6.919  19.094   7.955
 6196POPC   C4B11194   6.890  19.019   7.655
 6197POPC   NC311195   9.726  20.606   9.455
 6197POPC   PO411196   9.719  20.575   9.155
 6197POPC   GL111197   9.745  20.604   8.855
 6197POPC   GL211198   9.803  20.697   8.855
 6197POPC   C1A11199   9.719  20.590   8.555
 6197POPC   D2A11200   9.792  20.606   8.255
 6197POPC   C3A11201   9.791  20.655   7.955
 6197POPC   C4A11202   9.747  20.612   7.655
 6197POPC   C1B11203   9.799  20.823   8.555
 6197POPC   C2B11204   9.815  20.826   8.255
 6197POPC   C3B11205   9.768  20.895   7.955
 6197POPC   C4B11206   9.745  20.851   7.655
 6198POPC   NC311207  17.459  26.071   9.455
 6198POPC   PO411208  17.469  25.998   9.155
 6198POPC   GL111209  17.526  26.029   8.855
 6198POPC   GL211210  17.614  26.088   8.855
 6198POPC   C1A11211  17.502  26.022   8.555
 6198POPC   D2A11212  17.536  26.067   8.255
 6198POPC   C3A11213  17.545  25.997   7.955
 6198POPC   C4A11214  17.519  26.013   7.655
 6198POPC   C1B11215  17.715  26.281   8.555
 6198POPC   C2B11216  17.702  26.273   8.255
 6198POPC   C3B11217  17.642  26.222   7.955
 6198POPC   C4B11218  17.625  26.246   7.655
 6199POPC   NC311219   8.223  14.408   9.455
 6199POPC   PO411220   8.158  14.449   9.155
 6199POPC   GL111221   8.199  14.364   8.855
 6199POPC   GL211222   8.091  14.274   8.855
 6199POPC   C1A11223   8.162  14.415   8.555
 6199POPC   D2A11224   8.224  14.396   8.255
 6199POPC   C3A11225   8.165  14.445   7.955
 6199POPC   C4A11226   8.182  14.379   7.655
 6199POPC   C1B11227   8.056  14.195   8.555
 6199POPC   C2B11228   8.059  14.174   8.255
 6199POPC   C3B11229   8.037  14.202   7.955
 6199POPC   C4B11230   8.118  14.145   7.655
 6200POPC   NC311231  42.344  30.723   9.455
 6200POPC   PO411232  42.293  30.725   9.155
 6200POPC   GL111233  42.306  30.648   8.855
 6200POPC   GL211234  42.496  30.754   8.855
 6200POPC   C1A11235  42.356  30.745   8.555
 6200POPC   D2A11236  42.379  30.689   8.255
 6200POPC   C3A11237  42.378  30.697   7.955
 6200POPC   C4A11238  42.288  30.709   7.655
 6200POPC   C1B11239  42.550  30.747   8.555
 6200POPC   C2B11240  42.558  30.692   8.255
 6200POPC   C3B11241  42.575  30.711   7.955
 6200POPC   C4B11242  42.625  30.709   7.655
 6201POPC   NC311243   7.450   0.410   9.455
 6201POPC   PO411244   7.377   0.411   9.155
 6201POPC   GL111245   7.416   0.393   8.855
 6201POPC   GL211246   7.264   0.458   8.855
 6201POPC   C1A11247   7.448   0.457   8.555
 6201POPC   D2A11248   7.428   0.422   8.255
 6201POPC   C3A11249   7.452   0.430   7.955
 6201POPC   C4A11250   7.416   0.405   7.655
 6201POPC   C1B11251   7.157   0.485   8.555
 6201POPC   C2B11252   7.211   0.461   8.255
 6201POPC   C3B11253   7.169   0.420   7.955
 6201POPC   C4B11254   7.142   0.475   7.655
 6202POPC   NC311255  19.836  33.066   9.455
 6202POPC   PO411256  19.785  32.981   9.155
 6202POPC   GL111257  19.822  32.994   8.855
 6202POPC   GL211258  19.718  32.978   8.855
 6202POPC   C1A11259  19.860  33.047   8.555
 6202POPC   D2A11260  19.835  32.986   8.255
 6202POPC   C3A11261  19.878  33.051   7.955
 6202POPC   C4A11262  19.790  33.032   7.655
 6202POPC   C1B11263  19.594  32.926   8.555
 6202POPC   C2B11264  19.559  32.958   8.255
 6202POPC   C3B11265  19.553  32.909   7.955
 6202POPC   C4B11266  19.635  32.918   7.655
 6203POPC   NC311267  32.279   8.192   9.455
 6203POPC   PO411268  32.230   8.228   9.155
 6203POPC   GL111269  32.277   8.147   8.855
 6203POPC   GL211270  32.314   8.155   8.855
 6203POPC   C1A11271  32.242   8.175   8.555
 6203POPC   D2A11272  32.210   8.148   8.255
 6203POPC   C3A11273  32.288   8.165   7.955
 6203POPC   C4A11274  32.211   8.222   7.655
 6203POPC   C1B11275  32.474   8.110   8.555
 6203POPC   C2B11276  32.502   8.068   8.255
 6203POPC   C3B11277  32.447   8.081   7.955
 6203POPC   C4B11278  32.481   8.137   7.655
 6204POPC   NC311279  11.254  39.270   9.455
 6204POPC   PO411280  11.334  39.245   9.155
 6204POPC   GL111281  11.262  39.208   8.855
 6204POPC   GL211282  11.413  39.206   8.855
 6204POPC   C1A11283  11.332  39.244   8.555
 6204POPC   D2A11284  11.298  39.235   8.255
 6204POPC   C3A11285  11.261  39.231   7.955
 6204POPC   C4A11286  11.334  39.241   7.655
 6204POPC   C1B11287  11.515  39.195   8.555
 6204POPC   C2B11288  11.567  39.160   8.255
 6204POPC   C3B11289  11.542  39.208   7.955
 6204POPC   C4B11290  11.509  39.133   7.655
 6205POPC   NC311291   5.072  19.867   9.455
 6205POPC   PO411292   5.071  19.858   9.155
 6205POPC   GL111293   5.086  19.876   8.855
 6205POPC   GL211294   5.035  19.774   8.855
 6205POPC   C1A11295   5.111  19.829   8.555
 6205POPC   D2A11296   5.137  19.832   8.255
 6205POPC   C3A11297   5.045  19.819   7.955
 6205POPC   C4A11298   5.050  19.843   7.655
 6205POPC   C1B11299   4.977  19.626   8.555
 6205POPC   C2B11300   4.920  19.663   8.255
 6205POPC   C3B11301   4.909  19.686   7.955
 6205POPC   C4B11302   4.966  19.590   7.655
 6206POPC   NC311303  33.046  17.548   9.455
 6206POPC   PO411304  33.021  17.468   9.155
 6206POPC   GL111305  33.022  17.501   8.855
 6206POPC   GL211306  32.899  17.622   8.855
 6206POPC   C1A11307  33.023  17.524   8.555
 6206POPC   D2A11308  33.034  17.508   8.255
 6206POPC   C3A11309  32.994  17.551   7.955
 6206POPC   C4A11310  33.011  17.463   7.655
 6206POPC   C1B11311  32.872  17.702   8.555
 6206POPC   C2B11312  32.869  17.616   8.255
 6206POPC   C3B11313  32.802  17.673   7.955
 6206POPC   C4B11314  32.858  17.700   7.655
 6207POPC   NC311315  33.847  19.850   9.455
 6207POPC   PO411316  33.844  19.841   9.155
 6207POPC   GL111317  33.770  19.801   8.855
 6207POPC   GL211318  33.777  19.959   8.855
 6207POPC   C1A11319  33.754  19.795   8.555
 6207POPC   D2A11320  33.834  19.853   8.255
 6207POPC   C3A11321  33.842  19.803   7.955
 6207POPC   C4A11322  33.761  19.841   7.655
 6207POPC   C1B11323  33.699  20.014   8.555
 6207POPC   C2B11324  33.665  20.080   8.255
 6207POPC   C3B11325  33.639  20.017   7.955
 6207POPC   C4B11326  33.721  20.072   7.655
 6208POPC   NC311327  36.144  13.581   9.455
 6208POPC   PO411328  36.169  13.619   9.155
 6208POPC   GL111329  36.154  13.594   8.855
 6208POPC   GL211330  35.983  13.638   8.855
 6208POPC   C1A11331  36.129  13.600   8.555
 6208POPC   D2A11332  36.143  13.603   8.255
 6208POPC   C3A11333  36.157  13.658   7.955
 6208POPC   C4A11334  36.109  13.664   7.655
 6208POPC   C1B11335  35.845  13.612   8.555
 6208POPC   C2B11336  35.860  13.572   8.255
 6208POPC   C3B11337  35.889  13.578   7.955
 6208POPC   C4B11338  35.851  13.560   7.655
 6209POPC   NC311339  17.468   8.207   9.455
 6209POPC   PO411340  17.503   8.176   9.155
 6209POPC   GL111341  17.459   8.242   8.855
 6209POPC   GL211342  17.518   8.118   8.855
 6209POPC   C1A11343  17.526   8.183   8.555
 6209POPC   D2A11344  17.510   8.214   8.255
 6209POPC   C3A11345  17.541   8.153   7.955
 6209POPC   C4A11346  17.478   8.228   7.655
 6209POPC   C1B11347  17.557   7.999   8.555
 6209POPC   C2B11348  17.605   7.991   8.255
 6209POPC   C3B11349  17.564   7.977   7.955
 6209POPC   C4B11350  17.573   7.919   7.655
 6210POPC   NC311351  27.612   4.361   9.455
 6210POPC   PO411352  27.615   4.314   9.155
 6210POPC   GL111353  27.587   4.349   8.855
 6210POPC   GL211354  27.589   4.382   8.855
 6210POPC   C1A11355  27.590   4.333   8.555
 6210POPC   D2A11356  27.625   4.357   8.255
 6210POPC   C3A11357  27.568   4.355   7.955
 6210POPC   C4A11358  27.577   4.295   7.655
 6210POPC   C1B11359  27.530   4.573   8.555
 6210POPC   C2B11360  27.501   4.559   8.255
 6210POPC   C3B11361  27.527   4.556   7.955
 6210POPC   C4B11362  27.508   4.554   7.655
 6211POPC   NC311363  11.263  11.283   9.455
 6211POPC   PO411364  11.261  11.318   9.155
 6211POPC   GL111365  11.266  11.307   8.855
 6211POPC   GL211366  11.351  11.404   8.855
 6211POPC   C1A11367  11.261  11.289   8.555
 6211POPC   D2A11368  11.274  11.292   8.255
 6211POPC   C3A11369  11.337  11.327   7.955
 6211POPC   C4A11370  11.334  11.304   7.655
 6211POPC   C1B11371  11.438  11.474   8.555
 6211POPC   C2B11372  11.439  11.497   8.255
 6211POPC   C3B11373  11.435  11.548   7.955
 6211POPC   C4B11374  11.412  11.550   7.655
 6212POPC   NC311375  26.053   5.140   9.455
 6212POPC   PO411376  26.046   5.125   9.155
 6212POPC   GL111377  26.081   5.044   8.855
 6212POPC   GL211378  25.982   4.944   8.855
 6212POPC   C1A11379  26.059   5.052   8.555
 6212POPC   D2A11380  26.044   5.126   8.255
 6212POPC   C3A11381  26.013   5.141   7.955
 6212POPC   C4A11382  26.022   5.092   7.655
 6212POPC   C1B11383  26.018   4.869   8.555
 6212POPC   C2B11384  25.953   4.829   8.255
 6212POPC   C3B11385  26.009   4.871   7.955
 6212POPC   C4B11386  26.020   4.850   7.655
 6213POPC   NC311387  29.925   6.667   9.455
 6213POPC   PO411388  29.947   6.673   9.155
 6213POPC   GL111389  29.962   6.598   8.855
 6213POPC   GL211390  29.907   6.489   8.855
 6213POPC   C1A11391  29.901   6.636   8.555
 6213POPC   D2A11392  29.966   6.683   8.255
 6213POPC   C3A11393  29.966   6.693   7.955
 6213POPC   C4A11394  29.920   6.682   7.655
 6213POPC   C1B11395  29.858   6.369   8.555
 6213POPC   C2B11396  29.808   6.449   8.255
 6213POPC   C3B11397  29.822   6.396   7.955
 6213POPC   C4B11398  29.849   6.444   7.655
 6214POPC   NC311399  36.893  19.881   9.455
 6214POPC   PO411400  36.901  19.809   9.155
 6214POPC   GL111401  36.886  19.839   8.855
 6214POPC   GL211402  36.872  19.718   8.855
 6214POPC   C1A11403  36.856  19.826   8.555
 6214POPC   D2A11404  36.931  19.837   8.255
 6214POPC   C3A11405  36.913  19.880   7.955
 6214POPC   C4A11406  36.902  19.870   7.655
 6214POPC   C1B11407  36.886  19.618   8.555
 6214POPC   C2B11408  36.898  19.569   8.255
 6214POPC   C3B11409  36.895  19.586   7.955
 6214POPC   C4B11410  36.930  19.554   7.655
 6215POPC   NC311411  38.439  43.872   9.455
 6215POPC   PO411412  38.498  43.925   9.155
 6215POPC   GL111413  38.451  43.927   8.855
 6215POPC   GL211414  38.509  43.994   8.855
 6215POPC   C1A11415  38.436  43.911   8.555
 6215POPC   D2A11416  38.432  43.867   8.255
 6215POPC   C3A11417  38.410  43.855   7.955
 6215POPC   C4A11418  38.493  43.874   7.655
 6215POPC   C1B11419  38.606  44.134   8.555
 6215POPC   C2B11420  38.567  44.132   8.255
 6215POPC   C3B11421  38.631  44.129   7.955
 6215POPC   C4B11422  38.635  44.106   7.655
 6216POPC   NC311423  10.492  29.932   9.455
 6216POPC   PO411424  10.483  29.917   9.155
 6216POPC   GL111425  10.569  29.878   8.855
 6216POPC   GL211426  10.525  29.993   8.855
 6216POPC   C1A11427  10.545  29.901   8.555
 6216POPC   D2A11428  10.561  29.927   8.255
 6216POPC   C3A11429  10.490  29.945   7.955
 6216POPC   C4A11430  10.479  29.955   7.655
 6216POPC   C1B11431  10.556  30.170   8.555
 6216POPC   C2B11432  10.606  30.193   8.255
 6216POPC   C3B11433  10.576  30.178   7.955
 6216POPC   C4B11434  10.608  30.149   7.655
 6217POPC   NC311435  33.002  31.444   9.455
 6217POPC   PO411436  33.049  31.449   9.155
 6217POPC   GL111437  33.030  31.481   8.855
 6217POPC   GL211438  33.038  31.609   8.855
 6217POPC   C1A11439  33.041  31.448   8.555
 6217POPC   D2A11440  33.063  31.488   8.255
 6217POPC   C3A11441  33.055  31.481   7.955
 6217POPC   C4A11442  33.008  31.522   7.655
 6217POPC   C1B11443  33.005  31.714   8.555
 6217POPC   C2B11444  33.024  31.717   8.255
 6217POPC   C3B11445  32.995  31.762   7.955
 6217POPC   C4B11446  33.074  31.704   7.655
 6218POPC   NC311447  22.169   4.289   9.455
 6218POPC   PO411448  22.165   4.367   9.155
 6218POPC   GL111449  22.167   4.297   8.855
 6218POPC   GL211450  22.273   4.345   8.855
 6218POPC   C1A11451  22.142   4.343   8.555
 6218POPC   D2A11452  22.162   4.364   8.255
 6218POPC   C3A11453  22.173   4.351   7.955
 6218POPC   C4A11454  22.199   4.288   7.655
 6218POPC   C1B11455  22.364   4.446   8.555
 6218POPC   C2B11456  22.356   4.460   8.255
 6218POPC   C3B11457  22.412   4.401   7.955
 6218POPC   C4B11458  22.369   4.484   7.655
 6219POPC   NC311459  33.785  44.688   9.455
 6219POPC   PO411460  33.812  44.649   9.155
 6219POPC   GL111461  33.814  44.667   8.855
 6219POPC   GL211462  33.747  44.756   8.855
 6219POPC   C1A11463  33.803  44.682   8.555
 6219POPC   D2A11464  33.785  44.670   8.255
 6219POPC   C3A11465  33.800  44.647   7.955
 6219POPC   C4A11466  33.781  44.655   7.655
 6219POPC   C1B11467  33.696  44.822   8.555
 6219POPC   C2B11468  33.696  44.877   8.255
 6219POPC   C3B11469  33.697  44.872   7.955
 6219POPC   C4B11470  33.623  44.882   7.655
 6220POPC   NC311471  36.892  30.660   9.455
 6220POPC   PO411472  36.905  30.693   9.155
 6220POPC   GL111473  36.950  30.664   8.855
 6220POPC   GL211474  36.959  30.800   8.855
 6220POPC   C1A11475  36.877  30.683   8.555
 6220POPC   D2A11476  36.952  30.652   8.255
 6220POPC   C3A11477  36.863  30.663   7.955
 6220POPC   C4A11478  36.859  30.746   7.655
 6220POPC   C1B11479  37.072  30.914   8.555
 6220POPC   C2B11480  37.116  30.837   8.255
 6220POPC   C3B11481  37.085  30.867   7.955
 6220POPC   C4B11482  37.078  30.910   7.655
 6221POPC   NC311483  18.251  34.600   9.455
 6221POPC   PO411484  18.309  34.616   9.155
 6221POPC   GL111485  18.264  34.526   8.855
 6221POPC   GL211486  18.345  34.515   8.855
 6221POPC   C1A11487  18.318  34.570   8.555
 6221POPC   D2A11488  18.245  34.551   8.255
 6221POPC   C3A11489  18.305  34.595   7.955
 6221POPC   C4A11490  18.255  34.541   7.655
 6221POPC   C1B11491  18.469  34.416   8.555
 6221POPC   C2B11492  18.447  34.414   8.255
 6221POPC   C3B11493  18.504  34.393   7.955
 6221POPC   C4B11494  18.510  34.406   7.655
 6222POPC   NC311495   6.662   9.722   9.455
 6222POPC   PO411496   6.603   9.725   9.155
 6222POPC   GL111497   6.621   9.723   8.855
 6222POPC   GL211498   6.535   9.742   8.855
 6222POPC   C1A11499   6.622   9.704   8.555
 6222POPC   D2A11500   6.666   9.750   8.255
 6222POPC   C3A11501   6.667   9.707   7.955
 6222POPC   C4A11502   6.629   9.720   7.655
 6222POPC   C1B11503   6.354   9.795   8.555
 6222POPC   C2B11504   6.356   9.816   8.255
 6222POPC   C3B11505   6.353   9.774   7.955
 6222POPC   C4B11506   6.445   9.781   7.655
 6223POPC   NC311507  15.186  31.429   9.455
 6223POPC   PO411508  15.180  31.521   9.155
 6223POPC   GL111509  15.211  31.447   8.855
 6223POPC   GL211510  15.129  31.591   8.855
 6223POPC   C1A11511  15.205  31.446   8.555
 6223POPC   D2A11512  15.217  31.503   8.255
 6223POPC   C3A11513  15.130  31.447   7.955
 6223POPC   C4A11514  15.212  31.477   7.655
 6223POPC   C1B11515  15.013  31.636   8.555
 6223POPC   C2B11516  14.954  31.636   8.255
 6223POPC   C3B11517  15.002  31.668   7.955
 6223POPC   C4B11518  14.980  31.616   7.655
 6224POPC   NC311519   4.323  19.790   9.455
 6224POPC   PO411520   4.362  19.858   9.155
 6224POPC   GL111521   4.336  19.819   8.855
 6224POPC   GL211522   4.429  19.962   8.855
 6224POPC   C1A11523   4.317  19.801   8.555
 6224POPC   D2A11524   4.329  19.844   8.255
 6224POPC   C3A11525   4.345  19.867   7.955
 6224POPC   C4A11526   4.319  19.860   7.655
 6224POPC   C1B11527   4.496  19.997   8.555
 6224POPC   C2B11528   4.449  20.003   8.255
 6224POPC   C3B11529   4.495  20.003   7.955
 6224POPC   C4B11530   4.505  20.018   7.655
 6225POPC   NC311531  36.098   8.982   9.455
 6225POPC   PO411532  36.110   8.935   9.155
 6225POPC   GL111533  36.127   9.020   8.855
 6225POPC   GL211534  36.227   8.949   8.855
 6225POPC   C1A11535  36.147   8.975   8.555
 6225POPC   D2A11536  36.078   9.009   8.255
 6225POPC   C3A11537  36.169   9.006   7.955
 6225POPC   C4A11538  36.122   8.980   7.655
 6225POPC   C1B11539  36.335   8.860   8.555
 6225POPC   C2B11540  36.375   8.903   8.255
 6225POPC   C3B11541  36.382   8.857   7.955
 6225POPC   C4B11542  36.403   8.907   7.655
 6226POPC   NC311543  17.533  36.934   9.455
 6226POPC   PO411544  17.466  36.909   9.155
 6226POPC   GL111545  17.551  36.941   8.855
 6226POPC   GL211546  17.388  36.927   8.855
 6226POPC   C1A11547  17.490  36.860   8.555
 6226POPC   D2A11548  17.525  36.942   8.255
 6226POPC   C3A11549  17.514  36.893   7.955
 6226POPC   C4A11550  17.483  36.858   7.655
 6226POPC   C1B11551  17.280  37.017   8.555
 6226POPC   C2B11552  17.263  37.086   8.255
 6226POPC   C3B11553  17.319  37.078   7.955
 6226POPC   C4B11554  17.286  37.043   7.655
 6227POPC   NC311555  19.856  44.673   9.455
 6227POPC   PO411556  19.871  44.621   9.155
 6227POPC   GL111557  19.832  44.626   8.855
 6227POPC   GL211558  19.705  44.781   8.855
 6227POPC   C1A11559  19.838  44.647   8.555
 6227POPC   D2A11560  19.881  44.680   8.255
 6227POPC   C3A11561  19.817  44.698   7.955
 6227POPC   C4A11562  19.872  44.699   7.655
 6227POPC   C1B11563  19.663  44.806   8.555
 6227POPC   C2B11564  19.600  44.828   8.255
 6227POPC   C3B11565  19.600  44.791   7.955
 6227POPC   C4B11566  19.655  44.817   7.655
 6228POPC   NC311567   1.224  26.795   9.455
 6228POPC   PO411568   1.183  26.775   9.155
 6228POPC   GL111569   1.199  26.807   8.855
 6228POPC   GL211570   1.298  26.675   8.855
 6228POPC   C1A11571   1.209  26.852   8.555
 6228POPC   D2A11572   1.197  26.791   8.255
 6228POPC   C3A11573   1.237  26.768   7.955
 6228POPC   C4A11574   1.195  26.831   7.655
 6228POPC   C1B11575   1.339  26.596   8.555
 6228POPC   C2B11576   1.372  26.673   8.255
 6228POPC   C3B11577   1.398  26.600   7.955
 6228POPC   C4B11578   1.363  26.609   7.655
 6229POPC   NC311579  10.498  39.182   9.455
 6229POPC   PO411580  10.521  39.206   9.155
 6229POPC   GL111581  10.510  39.274   8.855
 6229POPC   GL211582  10.404  39.305   8.855
 6229POPC   C1A11583  10.515  39.245   8.555
 6229POPC   D2A11584  10.541  39.235   8.255
 6229POPC   C3A11585  10.558  39.219   7.955
 6229POPC   C4A11586  10.480  39.244   7.655
 6229POPC   C1B11587  10.294  39.349   8.555
 6229POPC   C2B11588  10.315  39.306   8.255
 6229POPC   C3B11589  10.350  39.304   7.955
 6229POPC   C4B11590  10.319  39.351   7.655
 6230POPC   NC311591  43.078   1.180   9.455
 6230POPC   PO411592  43.143   1.192   9.155
 6230POPC   GL111593  43.082   1.244   8.855
 6230POPC   GL211594  43.183   1.262   8.855
 6230POPC   C1A11595  43.104   1.222   8.555
 6230POPC   D2A11596  43.140   1.167   8.255
 6230POPC   C3A11597  43.138   1.166   7.955
 6230POPC   C4A11598  43.063   1.231   7.655
 6230POPC   C1B11599  43.367   1.314   8.555
 6230POPC   C2B11600  43.359   1.343   8.255
 6230POPC   C3B11601  43.368   1.321   7.955
 6230POPC   C4B11602  43.367   1.317   7.655
 6231POPC   NC311603  41.590  40.764   9.455
 6231POPC   PO411604  41.546  40.773   9.155
 6231POPC   GL111605  41.608  40.736   8.855
 6231POPC   GL211606  41.656  40.917   8.855
 6231POPC   C1A11607  41.532  40.780   8.555
 6231POPC   D2A11608  41.560  40.739   8.255
 6231POPC   C3A11609  41.596  40.757   7.955
 6231POPC   C4A11610  41.573  40.754   7.655
 6231POPC   C1B11611  41.649  41.004   8.555
 6231POPC   C2B11612  41.695  41.005   8.255
 6231POPC   C3B11613  41.715  40.968   7.955
 6231POPC   C4B11614  41.691  40.971   7.655
 6232POPC   NC311615  12.854  39.251   9.455
 6232POPC   PO411616  12.890  39.215   9.155
 6232POPC   GL111617  12.855  39.205   8.855
 6232POPC   GL211618  12.772  39.083   8.855
 6232POPC   C1A11619  12.829  39.197   8.555
 6232POPC   D2A11620  12.803  39.243   8.255
 6232POPC   C3A11621  12.805  39.273   7.955
 6232POPC   C4A11622  12.846  39.251   7.655
 6232POPC   C1B11623  12.711  39.073   8.555
 6232POPC   C2B11624  12.714  39.054   8.255
 6232POPC   C3B11625  12.695  39.002   7.955
 6232POPC   C4B11626  12.687  39.027   7.655
 6233POPC   NC311627  29.912  37.695   9.455
 6233POPC   PO411628  29.902  37.717   9.155
 6233POPC   GL111629  29.960  37.687   8.855
 6233POPC   GL211630  29.963  37.588   8.855
 6233POPC   C1A11631  29.940  37.664   8.555
 6233POPC   D2A11632  29.883  37.685   8.255
 6233POPC   C3A11633  29.955  37.691   7.955
 6233POPC   C4A11634  29.919  37.696   7.655
 6233POPC   C1B11635  30.000  37.490   8.555
 6233POPC   C2B11636  30.033  37.432   8.255
 6233POPC   C3B11637  30.031  37.432   7.955
 6233POPC   C4B11638  30.063  37.428   7.655
 6234POPC   NC311639   5.137   6.679   9.455
 6234POPC   PO411640   5.079   6.603   9.155
 6234POPC   GL111641   5.084   6.677   8.855
 6234POPC   GL211642   5.057   6.795   8.855
 6234POPC   C1A11643   5.057   6.645   8.555
 6234POPC   D2A11644   5.126   6.660   8.255
 6234POPC   C3A11645   5.044   6.601   7.955
 6234POPC   C4A11646   5.058   6.607   7.655
 6234POPC   C1B11647   5.090   6.908   8.555
 6234POPC   C2B11648   5.111   6.913   8.255
 6234POPC   C3B11649   5.078   6.860   7.955
 6234POPC   C4B11650   5.146   6.875   7.655
 6235POPC   NC311651  18.289  19.794   9.455
 6235POPC   PO411652  18.246  19.830   9.155
 6235POPC   GL111653  18.309  19.837   8.855
 6235POPC   GL211654  18.186  19.742   8.855
 6235POPC   C1A11655  18.314  19.785   8.555
 6235POPC   D2A11656  18.325  19.822   8.255
 6235POPC   C3A11657  18.254  19.877   7.955
 6235POPC   C4A11658  18.235  19.820   7.655
 6235POPC   C1B11659  18.037  19.714   8.555
 6235POPC   C2B11660  18.034  19.732   8.255
 6235POPC   C3B11661  18.121  19.648   7.955
 6235POPC   C4B11662  18.101  19.697   7.655
 6236POPC   NC311663   3.536  21.424   9.455
 6236POPC   PO411664   3.495  21.376   9.155
 6236POPC   GL111665   3.591  21.405   8.855
 6236POPC   GL211666   3.500  21.556   8.855
 6236POPC   C1A11667   3.588  21.416   8.555
 6236POPC   D2A11668   3.513  21.435   8.255
 6236POPC   C3A11669   3.552  21.383   7.955
 6236POPC   C4A11670   3.566  21.352   7.655
 6236POPC   C1B11671   3.537  21.609   8.555
 6236POPC   C2B11672   3.530  21.658   8.255
 6236POPC   C3B11673   3.484  21.600   7.955
 6236POPC   C4B11674   3.553  21.668   7.655
 6237POPC   NC311675   9.754  37.646   9.455
 6237POPC   PO411676   9.776  37.704   9.155
 6237POPC   GL111677   9.709  37.666   8.855
 6237POPC   GL211678   9.754  37.784   8.855
 6237POPC   C1A11679   9.795  37.725   8.555
 6237POPC   D2A11680   9.714  37.645   8.255
 6237POPC   C3A11681   9.746  37.685   7.955
 6237POPC   C4A11682   9.796  37.645   7.655
 6237POPC   C1B11683   9.689  37.899   8.555
 6237POPC   C2B11684   9.671  37.898   8.255
 6237POPC   C3B11685   9.663  37.905   7.955
 6237POPC   C4B11686   9.723  37.945   7.655
 6238POPC   NC311687  41.574   8.221   9.455
 6238POPC   PO411688  41.539   8.172   9.155
 6238POPC   GL111689  41.531   8.155   8.855
 6238POPC   GL211690  41.420   8.202   8.855
 6238POPC   C1A11691  41.542   8.223   8.555
 6238POPC   D2A11692  41.558   8.205   8.255
 6238POPC   C3A11693  41.531   8.230   7.955
 6238POPC   C4A11694  41.533   8.153   7.655
 6238POPC   C1B11695  41.280   8.209   8.555
 6238POPC   C2B11696  41.264   8.215   8.255
 6238POPC   C3B11697  41.334   8.220   7.955
 6238POPC   C4B11698  41.347   8.185   7.655
 6239POPC   NC311699  15.225  10.490   9.455
 6239POPC   PO411700  15.206  10.561   9.155
 6239POPC   GL111701  15.183  10.505   8.855
 6239POPC   GL211702  15.175  10.628   8.855
 6239POPC   C1A11703  15.196  10.496   8.555
 6239POPC   D2A11704  15.204  10.563   8.255
 6239POPC   C3A11705  15.146  10.560   7.955
 6239POPC   C4A11706  15.136  10.496   7.655
 6239POPC   C1B11707  15.121  10.745   8.555
 6239POPC   C2B11708  15.106  10.746   8.255
 6239POPC   C3B11709  15.092  10.746   7.955
 6239POPC   C4B11710  15.075  10.805   7.655
 6240POPC   NC311711  36.147  17.471   9.455
 6240POPC   PO411712  36.108  17.535   9.155
 6240POPC   GL111713  36.087  17.500   8.855
 6240POPC   GL211714  36.208  17.591   8.855
 6240POPC   C1A11715  36.100  17.505   8.555
 6240POPC   D2A11716  36.079  17.512   8.255
 6240POPC   C3A11717  36.153  17.551   7.955
 6240POPC   C4A11718  36.177  17.535   7.655
 6240POPC   C1B11719  36.255  17.680   8.555
 6240POPC   C2B11720  36.229  17.665   8.255
 6240POPC   C3B11721  36.232  17.716   7.955
 6240POPC   C4B11722  36.301  17.710   7.655
 6241POPC   NC311723  15.913  27.544   9.455
 6241POPC   PO411724  15.983  27.601   9.155
 6241POPC   GL111725  15.966  27.562   8.855
 6241POPC   GL211726  15.935  27.678   8.855
 6241POPC   C1A11727  15.973  27.553   8.555
 6241POPC   D2A11728  15.944  27.546   8.255
 6241POPC   C3A11729  15.913  27.643   7.955
 6241POPC   C4A11730  15.987  27.569   7.655
 6241POPC   C1B11731  15.837  27.840   8.555
 6241POPC   C2B11732  15.882  27.869   8.255
 6241POPC   C3B11733  15.817  27.790   7.955
 6241POPC   C4B11734  15.870  27.795   7.655
 6242POPC   NC311735   1.946  23.671   9.455
 6242POPC   PO411736   2.010  23.722   9.155
 6242POPC   GL111737   1.986  23.743   8.855
 6242POPC   GL211738   1.893  23.626   8.855
 6242POPC   C1A11739   1.951  23.757   8.555
 6242POPC   D2A11740   1.949  23.701   8.255
 6242POPC   C3A11741   1.990  23.666   7.955
 6242POPC   C4A11742   2.038  23.753   7.655
 6242POPC   C1B11743   1.828  23.516   8.555
 6242POPC   C2B11744   1.801  23.551   8.255
 6242POPC   C3B11745   1.753  23.549   7.955
 6242POPC   C4B11746   1.810  23.576   7.655
 6243POPC   NC311747  33.771  43.888   9.455
 6243POPC   PO411748  33.776  43.927   9.155
 6243POPC   GL111749  33.798  43.933   8.855
 6243POPC   GL211750  33.747  44.009   8.855
 6243POPC   C1A11751  33.834  43.846   8.555
 6243POPC   D2A11752  33.753  43.838   8.255
 6243POPC   C3A11753  33.847  43.853   7.955
 6243POPC   C4A11754  33.753  43.876   7.655
 6243POPC   C1B11755  33.629  44.131   8.555
 6243POPC   C2B11756  33.673  44.048   8.255
 6243POPC   C3B11757  33.662  44.078   7.955
 6243POPC   C4B11758  33.659  44.070   7.655
 6244POPC   NC311759  16.700   4.330   9.455
 6244POPC   PO411760  16.708   4.288   9.155
 6244POPC   GL111761  16.749   4.326   8.855
 6244POPC   GL211762  16.817   4.397   8.855
 6244POPC   C1A11763  16.698   4.317   8.555
 6244POPC   D2A11764  16.726   4.317   8.255
 6244POPC   C3A11765  16.698   4.303   7.955
 6244POPC   C4A11766  16.711   4.299   7.655
 6244POPC   C1B11767  16.840   4.522   8.555
 6244POPC   C2B11768  16.811   4.502   8.255
 6244POPC   C3B11769  16.830   4.567   7.955
 6244POPC   C4B11770  16.810   4.578   7.655
 6245POPC   NC311771   5.092  44.682   9.455
 6245POPC   PO411772   5.107  44.626   9.155
 6245POPC   GL111773   5.142  44.650   8.855
 6245POPC   GL211774   5.008  44.797   8.855
 6245POPC   C1A11775   5.048  44.644   8.555
 6245POPC   D2A11776   5.118  44.699   8.255
 6245POPC   C3A11777   5.135  44.617   7.955
 6245POPC   C4A11778   5.131  44.653   7.655
 6245POPC   C1B11779   4.942  44.851   8.555
 6245POPC   C2B11780   4.983  44.914   8.255
 6245POPC   C3B11781   4.983  44.837   7.955
 6245POPC   C4B11782   4.932  44.887   7.655
 6246POPC   NC311783  37.719  43.893   9.455
 6246POPC   PO411784  37.712  43.933   9.155
 6246POPC   GL111785  37.677  43.894   8.855
 6246POPC   GL211786  37.739  43.994   8.855
 6246POPC   C1A11787  37.728  43.908   8.555
 6246POPC   D2A11788  37.660  43.882   8.255
 6246POPC   C3A11789  37.638  43.912   7.955
 6246POPC   C4A11790  37.688  43.853   7.655
 6246POPC   C1B11791  37.799  44.122   8.555
 6246POPC   C2B11792  37.796  44.141   8.255
 6246POPC   C3B11793  37.866  44.106   7.955
 6246POPC   C4B11794  37.809  44.142   7.655
 6247POPC   NC311795  38.484  16.737   9.455
 6247POPC   PO411796  38.435  16.763   9.155
 6247POPC   GL111797  38.455  16.763   8.855
 6247POPC   GL211798  38.302  16.752   8.855
 6247POPC   C1A11799  38.447  16.730   8.555
 6247POPC   D2A11800  38.485  16.779   8.255
 6247POPC   C3A11801  38.411  16.739   7.955
 6247POPC   C4A11802  38.499  16.751   7.655
 6247POPC   C1B11803  38.234  16.648   8.555
 6247POPC   C2B11804  38.198  16.718   8.255
 6247POPC   C3B11805  38.220  16.680   7.955
 6247POPC   C4B11806  38.213  16.733   7.655
 6248POPC   NC311807  18.314   8.213   9.455
 6248POPC   PO411808  18.261   8.246   9.155
 6248POPC   GL111809  18.247   8.242   8.855
 6248POPC   GL211810  18.331   8.323   8.855
 6248POPC   C1A11811  18.328   8.236   8.555
 6248POPC   D2A11812  18.320   8.216   8.255
 6248POPC   C3A11813  18.280   8.240   7.955
 6248POPC   C4A11814  18.242   8.194   7.655
 6248POPC   C1B11815  18.426   8.421   8.555
 6248POPC   C2B11816  18.392   8.350   8.255
 6248POPC   C3B11817  18.463   8.429   7.955
 6248POPC   C4B11818  18.412   8.410   7.655
 6249POPC   NC311819  36.139   5.888   9.455
 6249POPC   PO411820  36.158   5.915   9.155
 6249POPC   GL111821  36.108   5.855   8.855
 6249POPC   GL211822  36.243   5.823   8.855
 6249POPC   C1A11823  36.086   5.846   8.555
 6249POPC   D2A11824  36.090   5.873   8.255
 6249POPC   C3A11825  36.153   5.820   7.955
 6249POPC   C4A11826  36.090   5.844   7.655
 6249POPC   C1B11827  36.375   5.771   8.555
 6249POPC   C2B11828  36.416   5.835   8.255
 6249POPC   C3B11829  36.335   5.777   7.955
 6249POPC   C4B11830  36.372   5.803   7.655
 6250POPC   NC311831   7.460  39.197   9.455
 6250POPC   PO411832   7.448  39.232   9.155
 6250POPC   GL111833   7.383  39.206   8.855
 6250POPC   GL211834   7.490  39.377   8.855
 6250POPC   C1A11835   7.463  39.186   8.555
 6250POPC   D2A11836   7.434  39.226   8.255
 6250POPC   C3A11837   7.400  39.247   7.955
 6250POPC   C4A11838   7.453  39.230   7.655
 6250POPC   C1B11839   7.522  39.483   8.555
 6250POPC   C2B11840   7.529  39.493   8.255
 6250POPC   C3B11841   7.579  39.451   7.955
 6250POPC   C4B11842   7.519  39.450   7.655
 6251POPC   NC311843  36.114  26.784   9.455
 6251POPC   PO411844  36.101  26.799   9.155
 6251POPC   GL111845  36.166  26.803   8.855
 6251POPC   GL211846  36.213  26.875   8.855
 6251POPC   C1A11847  36.116  26.814   8.555
 6251POPC   D2A11848  36.156  26.825   8.255
 6251POPC   C3A11849  36.170  26.781   7.955
 6251POPC   C4A11850  36.112  26.851   7.655
 6251POPC   C1B11851  36.374  26.949   8.555
 6251POPC   C2B11852  36.315  26.868   8.255
 6251POPC   C3B11853  36.308  26.951   7.955
 6251POPC   C4B11854  36.387  26.920   7.655
 6252POPC   NC311855  18.236  27.548   9.455
 6252POPC   PO411856  18.240  27.595   9.155
 6252POPC   GL111857  18.265  27.599   8.855
 6252POPC   GL211858  18.368  27.530   8.855
 6252POPC   C1A11859  18.285  27.609   8.555
 6252POPC   D2A11860  18.292  27.628   8.255
 6252POPC   C3A11861  18.276  27.567   7.955
 6252POPC   C4A11862  18.253  27.576   7.655
 6252POPC   C1B11863  18.465  27.472   8.555
 6252POPC   C2B11864  18.507  27.424   8.255
 6252POPC   C3B11865  18.454  27.418   7.955
 6252POPC   C4B11866  18.540  27.460   7.655
 6253POPC   NC311867  40.056  26.773   9.455
 6253POPC   PO411868  39.992  26.812   9.155
 6253POPC   GL111869  40.005  26.808   8.855
 6253POPC   GL211870  39.870  26.839   8.855
 6253POPC   C1A11871  40.045  26.807   8.555
 6253POPC   D2A11872  40.041  26.829   8.255
 6253POPC   C3A11873  39.965  26.856   7.955
 6253POPC   C4A11874  40.054  26.864   7.655
 6253POPC   C1B11875  39.819  26.859   8.555
 6253POPC   C2B11876  39.821  26.952   8.255
 6253POPC   C3B11877  39.746  26.872   7.955
 6253POPC   C4B11878  39.764  26.875   7.655
 6254POPC   NC311879  18.295  20.650   9.455
 6254POPC   PO411880  18.233  20.604   9.155
 6254POPC   GL111881  18.275  20.625   8.855
 6254POPC   GL211882  18.226  20.550   8.855
 6254POPC   C1A11883  18.276  20.587   8.555
 6254POPC   D2A11884  18.329  20.622   8.255
 6254POPC   C3A11885  18.248  20.577   7.955
 6254POPC   C4A11886  18.258  20.563   7.655
 6254POPC   C1B11887  18.113  20.455   8.555
 6254POPC   C2B11888  18.083  20.492   8.255
 6254POPC   C3B11889  18.070  20.438   7.955
 6254POPC   C4B11890  18.046  20.419   7.655
 6255POPC   NC311891   5.880   4.301   9.455
 6255POPC   PO411892   5.841   4.292   9.155
 6255POPC   GL111893   5.843   4.301   8.855
 6255POPC   GL211894   6.003   4.230   8.855
 6255POPC   C1A11895   5.862   4.297   8.555
 6255POPC   D2A11896   5.822   4.337   8.255
 6255POPC   C3A11897   5.827   4.332   7.955
 6255POPC   C4A11898   5.897   4.348   7.655
 6255POPC   C1B11899   6.105   4.167   8.555
 6255POPC   C2B11900   6.080   4.188   8.255
 6255POPC   C3B11901   6.100   4.160   7.955
 6255POPC   C4B11902   6.066   4.231   7.655
 6256POPC   NC311903  39.206  13.647   9.455
 6256POPC   PO411904  39.280  13.647   9.155
 6256POPC   GL111905  39.206  13.595   8.855
 6256POPC   GL211906  39.356  13.593   8.855
 6256POPC   C1A11907  39.277  13.659   8.555
 6256POPC   D2A11908  39.183  13.666   8.255
 6256POPC   C3A11909  39.266  13.640   7.955
 6256POPC   C4A11910  39.205  13.601   7.655
 6256POPC   C1B11911  39.466  13.656   8.555
 6256POPC   C2B11912  39.440  13.573   8.255
 6256POPC   C3B11913  39.529  13.568   7.955
 6256POPC   C4B11914  39.465  13.581   7.655
 6257POPC   NC311915  37.657  15.999   9.455
 6257POPC   PO411916  37.681  15.913   9.155
 6257POPC   GL111917  37.658  15.948   8.855
 6257POPC   GL211918  37.611  16.036   8.855
 6257POPC   C1A11919  37.660  15.941   8.555
 6257POPC   D2A11920  37.729  15.940   8.255
 6257POPC   C3A11921  37.700  15.960   7.955
 6257POPC   C4A11922  37.693  15.957   7.655
 6257POPC   C1B11923  37.646  16.195   8.555
 6257POPC   C2B11924  37.619  16.238   8.255
 6257POPC   C3B11925  37.622  16.202   7.955
 6257POPC   C4B11926  37.672  16.170   7.655
 6258POPC   NC311927  43.932  16.716   9.455
 6258POPC   PO411928  43.850  16.688   9.155
 6258POPC   GL111929  43.877  16.736   8.855
 6258POPC   GL211930  44.050  16.712   8.855
 6258POPC   C1A11931  43.855  16.729   8.555
 6258POPC   D2A11932  43.854  16.760   8.255
 6258POPC   C3A11933  43.901  16.732   7.955
 6258POPC   C4A11934  43.907  16.708   7.655
 6258POPC   C1B11935  44.183  16.760   8.555
 6258POPC   C2B11936  44.127  16.749   8.255
 6258POPC   C3B11937  44.116  16.711   7.955
 6258POPC   C4B11938  44.155  16.749   7.655
 6259POPC   NC311939  43.096   8.963   9.455
 6259POPC   PO411940  43.084   8.996   9.155
 6259POPC   GL111941  43.061   8.944   8.855
 6259POPC   GL211942  43.208   9.083   8.855
 6259POPC   C1A11943  43.095   8.931   8.555
 6259POPC   D2A11944  43.066   8.941   8.255
 6259POPC   C3A11945  43.154   8.969   7.955
 6259POPC   C4A11946  43.153   8.964   7.655
 6259POPC   C1B11947  43.237   9.172   8.555
 6259POPC   C2B11948  43.263   9.129   8.255
 6259POPC   C3B11949  43.288   9.161   7.955
 6259POPC   C4B11950  43.314   9.123   7.655
 6260POPC   NC311951  27.558   1.956   9.455
 6260POPC   PO411952  27.624   2.002   9.155
 6260POPC   GL111953  27.623   2.015   8.855
 6260POPC   GL211954  27.479   2.007   8.855
 6260POPC   C1A11955  27.623   1.963   8.555
 6260POPC   D2A11956  27.623   1.967   8.255
 6260POPC   C3A11957  27.634   2.014   7.955
 6260POPC   C4A11958  27.581   1.982   7.655
 6260POPC   C1B11959  27.384   2.115   8.555
 6260POPC   C2B11960  27.390   2.063   8.255
 6260POPC   C3B11961  27.390   2.058   7.955
 6260POPC   C4B11962  27.354   2.059   7.655
 6261POPC   NC311963  37.702   0.453   9.455
 6261POPC   PO411964  37.709   0.482   9.155
 6261POPC   GL111965  37.647   0.447   8.855
 6261POPC   GL211966  37.848   0.359   8.855
 6261POPC   C1A11967  37.681   0.393   8.555
 6261POPC   D2A11968  37.681   0.415   8.255
 6261POPC   C3A11969  37.724   0.413   7.955
 6261POPC   C4A11970  37.672   0.455   7.655
 6261POPC   C1B11971  37.963   0.405   8.555
 6261POPC   C2B11972  37.929   0.363   8.255
 6261POPC   C3B11973  37.941   0.410   7.955
 6261POPC   C4B11974  37.945   0.324   7.655
 6262POPC   NC311975   8.232  10.555   9.455
 6262POPC   PO411976   8.206  10.530   9.155
 6262POPC   GL111977   8.193  10.485   8.855
 6262POPC   GL211978   8.207  10.658   8.855
 6262POPC   C1A11979   8.246  10.518   8.555
 6262POPC   D2A11980   8.223  10.541   8.255
 6262POPC   C3A11981   8.191  10.547   7.955
 6262POPC   C4A11982   8.196  10.558   7.655
 6262POPC   C1B11983   8.122  10.768   8.555
 6262POPC   C2B11984   8.172  10.741   8.255
 6262POPC   C3B11985   8.125  10.731   7.955
 6262POPC   C4B11986   8.129  10.729   7.655
 6263POPC   NC311987  10.498  33.762   9.455
 6263POPC   PO411988  10.513  33.768   9.155
 6263POPC   GL111989  10.533  33.801   8.855
 6263POPC   GL211990  10.363  33.830   8.855
 6263POPC   C1A11991  10.505  33.793   8.555
 6263POPC   D2A11992  10.528  33.830   8.255
 6263POPC   C3A11993  10.490  33.815   7.955
 6263POPC   C4A11994  10.527  33.826   7.655
 6263POPC   C1B11995  10.328  33.801   8.555
 6263POPC   C2B11996  10.240  33.860   8.255
 6263POPC   C3B11997  10.322  33.877   7.955
 6263POPC   C4B11998  10.312  33.881   7.655
 6264POPC   NC311999  19.852  12.087   9.455
 6264POPC   PO412000  19.874  12.091   9.155
 6264POPC   GL112001  19.817  12.122   8.855
 6264POPC   GL212002  19.897  12.200   8.855
 6264POPC   C1A12003  19.849  12.034   8.555
 6264POPC   D2A12004  19.845  12.079   8.255
 6264POPC   C3A12005  19.793  12.029   7.955
 6264POPC   C4A12006  19.817  12.081   7.655
 6264POPC   C1B12007  20.039  12.227   8.555
 6264POPC   C2B12008  20.022  12.274   8.255
 6264POPC   C3B12009  20.045  12.274   7.955
 6264POPC   C4B12010  20.034  12.266   7.655
 6265POPC   NC312011  35.355  34.582   9.455
 6265POPC   PO412012  35.377  34.533   9.155
 6265POPC   GL112013  35.327  34.602   8.855
 6265POPC   GL212014  35.281  34.497   8.855
 6265POPC   C1A12015  35.394  34.541   8.555
 6265POPC   D2A12016  35.384  34.577   8.255
 6265POPC   C3A12017  35.342  34.539   7.955
 6265POPC   C4A12018  35.331  34.596   7.655
 6265POPC   C1B12019  35.130  34.470   8.555
 6265POPC   C2B12020  35.097  34.437   8.255
 6265POPC   C3B12021  35.104  34.456   7.955
 6265POPC   C4B12022  35.098  34.458   7.655
 6266POPC   NC312023  40.757   5.915   9.455
 6266POPC   PO412024  40.746   5.908   9.155
 6266POPC   GL112025  40.741   5.862   8.855
 6266POPC   GL212026  40.909   5.849   8.855
 6266POPC   C1A12027  40.740   5.874   8.555
 6266POPC   D2A12028  40.776   5.877   8.255
 6266POPC   C3A12029  40.784   5.872   7.955
 6266POPC   C4A12030  40.802   5.847   7.655
 6266POPC   C1B12031  41.023   5.950   8.555
 6266POPC   C2B12032  40.986   5.945   8.255
 6266POPC   C3B12033  41.010   5.900   7.955
 6266POPC   C4B12034  41.067   5.893   7.655
 6267POPC   NC312035  43.144  32.269   9.455
 6267POPC   PO412036  43.108  32.226   9.155
 6267POPC   GL112037  43.071  32.267   8.855
 6267POPC   GL212038  42.992  32.304   8.855
 6267POPC   C1A12039  43.061  32.248   8.555
 6267POPC   D2A12040  43.151  32.257   8.255
 6267POPC   C3A12041  43.078  32.199   7.955
 6267POPC   C4A12042  43.107  32.273   7.655
 6267POPC   C1B12043  42.878  32.296   8.555
 6267POPC   C2B12044  42.831  32.374   8.255
 6267POPC   C3B12045  42.865  32.291   7.955
 6267POPC   C4B12046  42.906  32.328   7.655
 6268POPC   NC312047  33.829  33.056   9.455
 6268POPC   PO412048  33.776  33.070   9.155
 6268POPC   GL112049  33.808  33.015   8.855
 6268POPC   GL212050  33.749  32.889   8.855
 6268POPC   C1A12051  33.822  33.039   8.555
 6268POPC   D2A12052  33.797  33.014   8.255
 6268POPC   C3A12053  33.774  33.013   7.955
 6268POPC   C4A12054  33.751  33.028   7.655
 6268POPC   C1B12055  33.704  32.839   8.555
 6268POPC   C2B12056  33.700  32.760   8.255
 6268POPC   C3B12057  33.664  32.792   7.955
 6268POPC   C4B12058  33.717  32.771   7.655
 6269POPC   NC312059  35.366  23.750   9.455
 6269POPC   PO412060  35.318  23.711   9.155
 6269POPC   GL112061  35.358  23.727   8.855
 6269POPC   GL212062  35.468  23.684   8.855
 6269POPC   C1A12063  35.358  23.705   8.555
 6269POPC   D2A12064  35.315  23.684   8.255
 6269POPC   C3A12065  35.324  23.727   7.955
 6269POPC   C4A12066  35.368  23.722   7.655
 6269POPC   C1B12067  35.636  23.630   8.555
 6269POPC   C2B12068  35.571  23.679   8.255
 6269POPC   C3B12069  35.582  23.707   7.955
 6269POPC   C4B12070  35.599  23.689   7.655
 6270POPC   NC312071  12.050  25.231   9.455
 6270POPC   PO412072  12.054  25.277   9.155
 6270POPC   GL112073  12.087  25.225   8.855
 6270POPC   GL212074  12.011  25.143   8.855
 6270POPC   C1A12075  12.057  25.312   8.555
 6270POPC   D2A12076  12.121  25.253   8.255
 6270POPC   C3A12077  12.120  25.292   7.955
 6270POPC   C4A12078  12.123  25.224   7.655
 6270POPC   C1B12079  11.908  25.035   8.555
 6270POPC   C2B12080  11.921  25.007   8.255
 6270POPC   C3B12081  11.892  25.020   7.955
 6270POPC   C4B12082  11.922  25.092   7.655
 6271POPC   NC312083   2.019  33.790   9.455
 6271POPC   PO412084   2.027  33.761   9.155
 6271POPC   GL112085   2.028  33.791   8.855
 6271POPC   GL212086   2.118  33.916   8.855
 6271POPC   C1A12087   2.036  33.810   8.555
 6271POPC   D2A12088   2.017  33.753   8.255
 6271POPC   C3A12089   2.039  33.808   7.955
 6271POPC   C4A12090   1.997  33.769   7.655
 6271POPC   C1B12091   2.187  33.979   8.555
 6271POPC   C2B12092   2.194  33.981   8.255
 6271POPC   C3B12093   2.214  33.935   7.955
 6271POPC   C4B12094   2.209  34.012   7.655
 6272POPC   NC312095   2.002   6.684   9.455
 6272POPC   PO412096   1.950   6.617   9.155
 6272POPC   GL112097   1.999   6.625   8.855
 6272POPC   GL212098   2.131   6.616   8.855
 6272POPC   C1A12099   2.039   6.683   8.555
 6272POPC   D2A12100   1.983   6.672   8.255
 6272POPC   C3A12101   1.959   6.662   7.955
 6272POPC   C4A12102   2.031   6.614   7.655
 6272POPC   C1B12103   2.245   6.600   8.555
 6272POPC   C2B12104   2.197   6.593   8.255
 6272POPC   C3B12105   2.205   6.601   7.955
 6272POPC   C4B12106   2.196   6.638   7.655
 6273POPC   NC312107  32.245  20.586   9.455
 6273POPC   PO412108  32.237  20.567   9.155
 6273POPC   GL112109  32.291  20.627   8.855
 6273POPC   GL212110  32.160  20.445   8.855
 6273POPC   C1A12111  32.239  20.635   8.555
 6273POPC   D2A12112  32.223  20.597   8.255
 6273POPC   C3A12113  32.294  20.593   7.955
 6273POPC   C4A12114  32.249  20.609   7.655
 6273POPC   C1B12115  32.151  20.397   8.555
 6273POPC   C2B12116  32.166  20.369   8.255
 6273POPC   C3B12117  32.115  20.335   7.955
 6273POPC   C4B12118  32.151  20.402   7.655
 6274POPC   NC312119  24.458  16.707   9.455
 6274POPC   PO412120  24.500  16.741   9.155
 6274POPC   GL112121  24.472  16.724   8.855
 6274POPC   GL212122  24.649  16.720   8.855
 6274POPC   C1A12123  24.490  16.773   8.555
 6274POPC   D2A12124  24.518  16.742   8.255
 6274POPC   C3A12125  24.470  16.708   7.955
 6274POPC   C4A12126  24.472  16.732   7.655
 6274POPC   C1B12127  24.694  16.640   8.555
 6274POPC   C2B12128  24.755  16.672   8.255
 6274POPC   C3B12129  24.675  16.694   7.955
 6274POPC   C4B12130  24.738  16.682   7.655
 6275POPC   NC312131  15.206  17.528   9.455
 6275POPC   PO412132  15.194  17.553   9.155
 6275POPC   GL112133  15.166  17.521   8.855
 6275POPC   GL212134  15.149  17.395   8.855
 6275POPC   C1A12135  15.202  17.483   8.555
 6275POPC   D2A12136  15.229  17.464   8.255
 6275POPC   C3A12137  15.185  17.458   7.955
 6275POPC   C4A12138  15.179  17.553   7.655
 6275POPC   C1B12139  15.073  17.295   8.555
 6275POPC   C2B12140  15.102  17.258   8.255
 6275POPC   C3B12141  15.063  17.232   7.955
 6275POPC   C4B12142  15.142  17.229   7.655
 6276POPC   NC312143  25.289  17.537   9.455
 6276POPC   PO412144  25.295  17.522   9.155
 6276POPC   GL112145  25.267  17.515   8.855
 6276POPC   GL212146  25.324  17.411   8.855
 6276POPC   C1A12147  25.230  17.514   8.555
 6276POPC   D2A12148  25.277  17.499   8.255
 6276POPC   C3A12149  25.267  17.498   7.955
 6276POPC   C4A12150  25.267  17.480   7.655
 6276POPC   C1B12151  25.259  17.282   8.555
 6276POPC   C2B12152  25.337  17.227   8.255
 6276POPC   C3B12153  25.348  17.294   7.955
 6276POPC   C4B12154  25.259  17.296   7.655
 6277POPC   NC312155  31.481  12.840   9.455
 6277POPC   PO412156  31.509  12.804   9.155
 6277POPC   GL112157  31.447  12.802   8.855
 6277POPC   GL212158  31.592  12.781   8.855
 6277POPC   C1A12159  31.479  12.895   8.555
 6277POPC   D2A12160  31.516  12.836   8.255
 6277POPC   C3A12161  31.490  12.878   7.955
 6277POPC   C4A12162  31.449  12.828   7.655
 6277POPC   C1B12163  31.716  12.661   8.555
 6277POPC   C2B12164  31.636  12.699   8.255
 6277POPC   C3B12165  31.719  12.719   7.955
 6277POPC   C4B12166  31.686  12.729   7.655
 6278POPC   NC312167  38.482   5.086   9.455
 6278POPC   PO412168  38.495   5.084   9.155
 6278POPC   GL112169  38.415   5.125   8.855
 6278POPC   GL212170  38.315   5.003   8.855
 6278POPC   C1A12171  38.466   5.056   8.555
 6278POPC   D2A12172  38.466   5.131   8.255
 6278POPC   C3A12173  38.424   5.122   7.955
 6278POPC   C4A12174  38.454   5.055   7.655
 6278POPC   C1B12175  38.252   4.925   8.555
 6278POPC   C2B12176  38.302   4.917   8.255
 6278POPC   C3B12177  38.257   4.919   7.955
 6278POPC   C4B12178  38.212   4.957   7.655
 6279POPC   NC312179  16.778  28.398   9.455
 6279POPC   PO412180  16.731  28.388   9.155
 6279POPC   GL112181  16.709  28.319   8.855
 6279POPC   GL212182  16.630  28.341   8.855
 6279POPC   C1A12183  16.775  28.402   8.555
 6279POPC   D2A12184  16.693  28.319   8.255
 6279POPC   C3A12185  16.742  28.413   7.955
 6279POPC   C4A12186  16.695  28.402   7.655
 6279POPC   C1B12187  16.490  28.420   8.555
 6279POPC   C2B12188  16.481  28.367   8.255
 6279POPC   C3B12189  16.498  28.433   7.955
 6279POPC   C4B12190  16.499  28.412   7.655
 6280POPC   NC312191  36.884   1.194   9.455
 6280POPC   PO412192  36.874   1.216   9.155
 6280POPC   GL112193  36.889   1.200   8.855
 6280POPC   GL212194  36.740   1.170   8.855
 6280POPC   C1A12195  36.925   1.169   8.555
 6280POPC   D2A12196  36.926   1.204   8.255
 6280POPC   C3A12197  36.935   1.173   7.955
 6280POPC   C4A12198  36.875   1.169   7.655
 6280POPC   C1B12199  36.617   1.221   8.555
 6280POPC   C2B12200  36.701   1.217   8.255
 6280POPC   C3B12201  36.634   1.178   7.955
 6280POPC   C4B12202  36.605   1.255   7.655
 6281POPC   NC312203  40.788   2.774   9.455
 6281POPC   PO412204  40.781   2.727   9.155
 6281POPC   GL112205  40.747   2.770   8.855
 6281POPC   GL212206  40.907   2.845   8.855
 6281POPC   C1A12207  40.759   2.731   8.555
 6281POPC   D2A12208  40.825   2.788   8.255
 6281POPC   C3A12209  40.761   2.756   7.955
 6281POPC   C4A12210  40.759   2.732   7.655
 6281POPC   C1B12211  40.999   2.836   8.555
 6281POPC   C2B12212  40.975   2.845   8.255
 6281POPC   C3B12213  41.045   2.864   7.955
 6281POPC   C4B12214  41.004   2.841   7.655
 6282POPC   NC312215  36.931  22.892   9.455
 6282POPC   PO412216  36.911  22.960   9.155
 6282POPC   GL112217  36.923  22.891   8.855
 6282POPC   GL212218  36.853  22.823   8.855
 6282POPC   C1A12219  36.899  22.983   8.555
 6282POPC   D2A12220  36.873  22.946   8.255
 6282POPC   C3A12221  36.888  22.898   7.955
 6282POPC   C4A12222  36.877  22.936   7.655
 6282POPC   C1B12223  36.930  22.688   8.555
 6282POPC   C2B12224  36.862  22.667   8.255
 6282POPC   C3B12225  36.863  22.697   7.955
 6282POPC   C4B12226  36.855  22.645   7.655
 6283POPC   NC312227  19.803  40.752   9.455
 6283POPC   PO412228  19.835  40.833   9.155
 6283POPC   GL112229  19.832  40.740   8.855
 6283POPC   GL212230  19.704  40.676   8.855
 6283POPC   C1A12231  19.800  40.779   8.555
 6283POPC   D2A12232  19.840  40.749   8.255
 6283POPC   C3A12233  19.828  40.788   7.955
 6283POPC   C4A12234  19.850  40.737   7.655
 6283POPC   C1B12235  19.655  40.553   8.555
 6283POPC   C2B12236  19.704  40.616   8.255
 6283POPC   C3B12237  19.703  40.616   7.955
 6283POPC   C4B12238  19.631  40.631   7.655
 6284POPC   NC312239   5.088  40.736   9.455
 6284POPC   PO412240   5.050  40.788   9.155
 6284POPC   GL112241   5.053  40.820   8.855
 6284POPC   GL212242   5.202  40.727   8.855
 6284POPC   C1A12243   5.108  40.832   8.555
 6284POPC   D2A12244   5.049  40.795   8.255
 6284POPC   C3A12245   5.090  40.754   7.955
 6284POPC   C4A12246   5.139  40.832   7.655
 6284POPC   C1B12247   5.334  40.732   8.555
 6284POPC   C2B12248   5.318  40.695   8.255
 6284POPC   C3B12249   5.353  40.735   7.955
 6284POPC   C4B12250   5.378  40.663   7.655
 6285POPC   NC312251  15.953   8.982   9.455
 6285POPC   PO412252  16.001   8.986   9.155
 6285POPC   GL112253  15.958   8.984   8.855
 6285POPC   GL212254  15.810   8.993   8.855
 6285POPC   C1A12255  15.962   8.982   8.555
 6285POPC   D2A12256  15.924   9.019   8.255
 6285POPC   C3A12257  15.949   8.969   7.955
 6285POPC   C4A12258  15.960   8.971   7.655
 6285POPC   C1B12259  15.702   9.085   8.555
 6285POPC   C2B12260  15.727   9.044   8.255
 6285POPC   C3B12261  15.771   9.093   7.955
 6285POPC   C4B12262  15.728   9.100   7.655
 6286POPC   NC312263  15.224  16.762   9.455
 6286POPC   PO412264  15.191  16.698   9.155
 6286POPC   GL112265  15.155  16.693   8.855
 6286POPC   GL212266  15.265  16.657   8.855
 6286POPC   C1A12267  15.156  16.694   8.555
 6286POPC   D2A12268  15.144  16.778   8.255
 6286POPC   C3A12269  15.129  16.755   7.955
 6286POPC   C4A12270  15.209  16.681   7.655
 6286POPC   C1B12271  15.345  16.640   8.555
 6286POPC   C2B12272  15.375  16.556   8.255
 6286POPC   C3B12273  15.338  16.579   7.955
 6286POPC   C4B12274  15.362  16.548   7.655
 6287POPC   NC312275  13.631   9.784   9.455
 6287POPC   PO412276  13.626   9.720   9.155
 6287POPC   GL112277  13.587   9.753   8.855
 6287POPC   GL212278  13.595   9.866   8.855
 6287POPC   C1A12279  13.650   9.759   8.555
 6287POPC   D2A12280  13.608   9.785   8.255
 6287POPC   C3A12281  13.651   9.767   7.955
 6287POPC   C4A12282  13.598   9.780   7.655
 6287POPC   C1B12283  13.638  10.017   8.555
 6287POPC   C2B12284  13.643   9.958   8.255
 6287POPC   C3B12285  13.686  10.028   7.955
 6287POPC   C4B12286  13.696   9.972   7.655
 6288POPC   NC312287  10.502  15.200   9.455
 6288POPC   PO412288  10.564  15.166   9.155
 6288POPC   GL112289  10.544  15.140   8.855
 6288POPC   GL212290  10.614  15.195   8.855
 6288POPC   C1A12291  10.488  15.180   8.555
 6288POPC   D2A12292  10.496  15.152   8.255
 6288POPC   C3A12293  10.542  15.212   7.955
 6288POPC   C4A12294  10.541  15.166   7.655
 6288POPC   C1B12295  10.802  15.202   8.555
 6288POPC   C2B12296  10.764  15.161   8.255
 6288POPC   C3B12297  10.745  15.212   7.955
 6288POPC   C4B12298  10.804  15.168   7.655
 6289POPC   NC312299   2.029  33.030   9.455
 6289POPC   PO412300   1.962  33.026   9.155
 6289POPC   GL112301   1.955  33.068   8.855
 6289POPC   GL212302   1.974  32.948   8.855
 6289POPC   C1A12303   2.030  32.977   8.555
 6289POPC   D2A12304   2.008  33.023   8.255
 6289POPC   C3A12305   1.999  33.020   7.955
 6289POPC   C4A12306   1.961  32.984   7.655
 6289POPC   C1B12307   1.885  32.779   8.555
 6289POPC   C2B12308   1.936  32.781   8.255
 6289POPC   C3B12309   1.904  32.817   7.955
 6289POPC   C4B12310   1.959  32.766   7.655
 6290POPC   NC312311  36.136   2.018   9.455
 6290POPC   PO412312  36.142   1.980   9.155
 6290POPC   GL112313  36.115   2.029   8.855
 6290POPC   GL212314  36.089   1.842   8.855
 6290POPC   C1A12315  36.151   2.002   8.555
 6290POPC   D2A12316  36.176   1.955   8.255
 6290POPC   C3A12317  36.135   1.973   7.955
 6290POPC   C4A12318  36.106   1.998   7.655
 6290POPC   C1B12319  36.092   1.702   8.555
 6290POPC   C2B12320  36.149   1.699   8.255
 6290POPC   C3B12321  36.107   1.699   7.955
 6290POPC   C4B12322  36.164   1.709   7.655
 6291POPC   NC312323  15.912  20.653   9.455
 6291POPC   PO412324  15.905  20.625   9.155
 6291POPC   GL112325  15.930  20.636   8.855
 6291POPC   GL212326  15.845  20.455   8.855
 6291POPC   C1A12327  15.913  20.607   8.555
 6291POPC   D2A12328  15.987  20.594   8.255
 6291POPC   C3A12329  15.998  20.572   7.955
 6291POPC   C4A12330  15.980  20.600   7.655
 6291POPC   C1B12331  15.842  20.378   8.555
 6291POPC   C2B12332  15.818  20.404   8.255
 6291POPC   C3B12333  15.826  20.387   7.955
 6291POPC   C4B12334  15.835  20.384   7.655
 6292POPC   NC312335  12.049  15.172   9.455
 6292POPC   PO412336  12.111  15.172   9.155
 6292POPC   GL112337  12.123  15.218   8.855
 6292POPC   GL212338  12.217  15.057   8.855
 6292POPC   C1A12339  12.111  15.224   8.555
 6292POPC   D2A12340  12.064  15.209   8.255
 6292POPC   C3A12341  12.064  15.143   7.955
 6292POPC   C4A12342  12.039  15.163   7.655
 6292POPC   C1B12343  12.283  14.990   8.555
 6292POPC   C2B12344  12.233  15.009   8.255
 6292POPC   C3B12345  12.236  15.009   7.955
 6292POPC   C4B12346  12.305  15.050   7.655
 6293POPC   NC312347  11.317  14.418   9.455
 6293POPC   PO412348  11.322  14.417   9.155
 6293POPC   GL112349  11.260  14.434   8.855
 6293POPC   GL212350  11.390  14.348   8.855
 6293POPC   C1A12351  11.311  14.447   8.555
 6293POPC   D2A12352  11.284  14.371   8.255
 6293POPC   C3A12353  11.271  14.404   7.955
 6293POPC   C4A12354  11.320  14.414   7.655
 6293POPC   C1B12355  11.564  14.281   8.555
 6293POPC   C2B12356  11.546  14.304   8.255
 6293POPC   C3B12357  11.545  14.309   7.955
 6293POPC   C4B12358  11.483  14.317   7.655
 6294POPC   NC312359  38.500  20.594   9.455
 6294POPC   PO412360  38.499  20.583   9.155
 6294POPC   GL112361  38.409  20.598   8.855
 6294POPC   GL212362  38.398  20.778   8.855
 6294POPC   C1A12363  38.475  20.621   8.555
 6294POPC   D2A12364  38.445  20.601   8.255
 6294POPC   C3A12365  38.416  20.605   7.955
 6294POPC   C4A12366  38.442  20.619   7.655
 6294POPC   C1B12367  38.409  20.839   8.555
 6294POPC   C2B12368  38.427  20.836   8.255
 6294POPC   C3B12369  38.473  20.874   7.955
 6294POPC   C4B12370  38.461  20.846   7.655
 6295POPC   NC312371  43.900  28.408   9.455
 6295POPC   PO412372  43.898  28.369   9.155
 6295POPC   GL112373  43.884  28.412   8.855
 6295POPC   GL212374  43.876  28.290   8.855
 6295POPC   C1A12375  43.920  28.334   8.555
 6295POPC   D2A12376  43.929  28.374   8.255
 6295POPC   C3A12377  43.858  28.344   7.955
 6295POPC   C4A12378  43.860  28.394   7.655
 6295POPC   C1B12379  43.935  28.121   8.555
 6295POPC   C2B12380  43.971  28.130   8.255
 6295POPC   C3B12381  43.951  28.178   7.955
 6295POPC   C4B12382  43.923  28.176   7.655
 6296POPC   NC312383  41.532  24.455   9.455
 6296POPC   PO412384  41.520  24.451   9.155
 6296POPC   GL112385  41.566  24.533   8.855
 6296POPC   GL212386  41.688  24.503   8.855
 6296POPC   C1A12387  41.573  24.533   8.555
 6296POPC   D2A12388  41.525  24.444   8.255
 6296POPC   C3A12389  41.550  24.531   7.955
 6296POPC   C4A12390  41.530  24.474   7.655
 6296POPC   C1B12391  41.797  24.534   8.555
 6296POPC   C2B12392  41.799  24.479   8.255
 6296POPC   C3B12393  41.788  24.513   7.955
 6296POPC   C4B12394  41.801  24.529   7.655
 6297POPC   NC312395  22.205  16.754   9.455
 6297POPC   PO412396  22.184  16.757   9.155
 6297POPC   GL112397  22.196  16.691   8.855
 6297POPC   GL212398  22.221  16.802   8.855
 6297POPC   C1A12399  22.125  16.696   8.555
 6297POPC   D2A12400  22.170  16.774   8.255
 6297POPC   C3A12401  22.198  16.724   7.955
 6297POPC   C4A12402  22.141  16.761   7.655
 6297POPC   C1B12403  22.373  16.950   8.555
 6297POPC   C2B12404  22.300  16.875   8.255
 6297POPC   C3B12405  22.293  16.944   7.955
 6297POPC   C4B12406  22.310  16.922   7.655
 6298POPC   NC312407  19.054  37.683   9.455
 6298POPC   PO412408  19.023  37.671   9.155
 6298POPC   GL112409  19.085  37.710   8.855
 6298POPC   GL212410  19.039  37.544   8.855
 6298POPC   C1A12411  19.011  37.649   8.555
 6298POPC   D2A12412  19.041  37.717   8.255
 6298POPC   C3A12413  19.064  37.704   7.955
 6298POPC   C4A12414  19.056  37.674   7.655
 6298POPC   C1B12415  19.056  37.420   8.555
 6298POPC   C2B12416  19.052  37.435   8.255
 6298POPC   C3B12417  19.082  37.441   7.955
 6298POPC   C4B12418  19.077  37.429   7.655
 6299POPC   NC312419   7.397  19.845   9.455
 6299POPC   PO412420   7.383  19.851   9.155
 6299POPC   GL112421   7.399  19.875   8.855
 6299POPC   GL212422   7.493  19.965   8.855
 6299POPC   C1A12423   7.400  19.853   8.555
 6299POPC   D2A12424   7.398  19.853   8.255
 6299POPC   C3A12425   7.372  19.811   7.955
 6299POPC   C4A12426   7.466  19.867   7.655
 6299POPC   C1B12427   7.452  20.114   8.555
 6299POPC   C2B12428   7.435  20.040   8.255
 6299POPC   C3B12429   7.507  20.103   7.955
 6299POPC   C4B12430   7.434  20.119   7.655
 6300POPC   NC312431   9.014  32.218   9.455
 6300POPC   PO412432   8.935  32.245   9.155
 6300POPC   GL112433   8.971  32.214   8.855
 6300POPC   GL212434   8.933  32.088   8.855
 6300POPC   C1A12435   8.968  32.199   8.555
 6300POPC   D2A12436   9.001  32.214   8.255
 6300POPC   C3A12437   8.928  32.289   7.955
 6300POPC   C4A12438   8.977  32.217   7.655
 6300POPC   C1B12439   8.984  31.964   8.555
 6300POPC   C2B12440   8.979  31.978   8.255
 6300POPC   C3B12441   8.942  32.031   7.955
 6300POPC   C4B12442   8.998  32.000   7.655
 6301POPC   NC312443  35.318  32.983   9.455
 6301POPC   PO412444  35.354  33.007   9.155
 6301POPC   GL112445  35.395  32.978   8.855
 6301POPC   GL212446  35.244  32.939   8.855
 6301POPC   C1A12447  35.334  33.001   8.555
 6301POPC   D2A12448  35.336  33.010   8.255
 6301POPC   C3A12449  35.372  33.062   7.955
 6301POPC   C4A12450  35.342  32.980   7.655
 6301POPC   C1B12451  35.201  32.772   8.555
 6301POPC   C2B12452  35.227  32.784   8.255
 6301POPC   C3B12453  35.204  32.794   7.955
 6301POPC   C4B12454  35.241  32.784   7.655
 6302POPC   NC312455  43.094  29.171   9.455
 6302POPC   PO412456  43.079  29.108   9.155
 6302POPC   GL112457  43.096  29.143   8.855
 6302POPC   GL212458  43.030  29.150   8.855
 6302POPC   C1A12459  43.136  29.182   8.555
 6302POPC   D2A12460  43.082  29.135   8.255
 6302POPC   C3A12461  43.067  29.140   7.955
 6302POPC   C4A12462  43.129  29.155   7.655
 6302POPC   C1B12463  42.830  29.095   8.555
 6302POPC   C2B12464  42.862  29.085   8.255
 6302POPC   C3B12465  42.845  29.039   7.955
 6302POPC   C4B12466  42.893  29.106   7.655
 6303POPC   NC312467  36.158  25.273   9.455
 6303POPC   PO412468  36.115  25.273   9.155
 6303POPC   GL112469  36.080  25.217   8.855
 6303POPC   GL212470  36.173  25.104   8.855
 6303POPC   C1A12471  36.151  25.285   8.555
 6303POPC   D2A12472  36.115  25.239   8.255
 6303POPC   C3A12473  36.144  25.249   7.955
 6303POPC   C4A12474  36.101  25.218   7.655
 6303POPC   C1B12475  36.115  25.011   8.555
 6303POPC   C2B12476  36.159  24.976   8.255
 6303POPC   C3B12477  36.172  24.982   7.955
 6303POPC   C4B12478  36.122  25.064   7.655
 6304POPC   NC312479   1.255  30.663   9.455
 6304POPC   PO412480   1.241  30.718   9.155
 6304POPC   GL112481   1.221  30.689   8.855
 6304POPC   GL212482   1.381  30.647   8.855
 6304POPC   C1A12483   1.263  30.706   8.555
 6304POPC   D2A12484   1.171  30.731   8.255
 6304POPC   C3A12485   1.190  30.724   7.955
 6304POPC   C4A12486   1.263  30.667   7.655
 6304POPC   C1B12487   1.490  30.655   8.555
 6304POPC   C2B12488   1.406  30.616   8.255
 6304POPC   C3B12489   1.403  30.582   7.955
 6304POPC   C4B12490   1.423  30.575   7.655
 6305POPC   NC312491   6.651   4.291   9.455
 6305POPC   PO412492   6.657   4.291   9.155
 6305POPC   GL112493   6.691   4.327   8.855
 6305POPC   GL212494   6.536   4.254   8.855
 6305POPC   C1A12495   6.643   4.328   8.555
 6305POPC   D2A12496   6.688   4.292   8.255
 6305POPC   C3A12497   6.602   4.365   7.955
 6305POPC   C4A12498   6.632   4.354   7.655
 6305POPC   C1B12499   6.403   4.191   8.555
 6305POPC   C2B12500   6.414   4.179   8.255
 6305POPC   C3B12501   6.446   4.179   7.955
 6305POPC   C4B12502   6.398   4.240   7.655
 6306POPC   NC312503  19.024   3.565   9.455
 6306POPC   PO412504  19.015   3.518   9.155
 6306POPC   GL112505  19.048   3.504   8.855
 6306POPC   GL212506  19.196   3.561   8.855
 6306POPC   C1A12507  19.092   3.534   8.555
 6306POPC   D2A12508  19.024   3.549   8.255
 6306POPC   C3A12509  19.025   3.498   7.955
 6306POPC   C4A12510  19.101   3.509   7.655
 6306POPC   C1B12511  19.297   3.633   8.555
 6306POPC   C2B12512  19.304   3.686   8.255
 6306POPC   C3B12513  19.309   3.651   7.955
 6306POPC   C4B12514  19.284   3.614   7.655
 6307POPC   NC312515   8.943   1.180   9.455
 6307POPC   PO412516   8.963   1.204   9.155
 6307POPC   GL112517   8.926   1.170   8.855
 6307POPC   GL212518   8.882   1.129   8.855
 6307POPC   C1A12519   8.937   1.246   8.555
 6307POPC   D2A12520   8.925   1.220   8.255
 6307POPC   C3A12521   8.952   1.258   7.955
 6307POPC   C4A12522   8.969   1.241   7.655
 6307POPC   C1B12523   8.782   1.140   8.555
 6307POPC   C2B12524   8.757   1.128   8.255
 6307POPC   C3B12525   8.773   1.108   7.955
 6307POPC   C4B12526   8.703   1.100   7.655
 6308POPC   NC312527  43.151  15.221   9.455
 6308POPC   PO412528  43.138  15.142   9.155
 6308POPC   GL112529  43.078  15.197   8.855
 6308POPC   GL212530  43.101  15.087   8.855
 6308POPC   C1A12531  43.105  15.207   8.555
 6308POPC   D2A12532  43.128  15.199   8.255
 6308POPC   C3A12533  43.064  15.192   7.955
 6308POPC   C4A12534  43.155  15.144   7.655
 6308POPC   C1B12535  43.064  14.912   8.555
 6308POPC   C2B12536  43.091  14.922   8.255
 6308POPC   C3B12537  43.068  14.945   7.955
 6308POPC   C4B12538  43.065  14.955   7.655
 6309POPC   NC312539  15.200  12.103   9.455
 6309POPC   PO412540  15.144  12.096   9.155
 6309POPC   GL112541  15.161  12.035   8.855
 6309POPC   GL212542  15.215  11.946   8.855
 6309POPC   C1A12543  15.157  12.036   8.555
 6309POPC   D2A12544  15.159  12.102   8.255
 6309POPC   C3A12545  15.145  12.051   7.955
 6309POPC   C4A12546  15.180  12.033   7.655
 6309POPC   C1B12547  15.322  11.794   8.555
 6309POPC   C2B12548  15.266  11.877   8.255
 6309POPC   C3B12549  15.295  11.822   7.955
 6309POPC   C4B12550  15.287  11.890   7.655
 6310POPC   NC312551   3.589  41.521   9.455
 6310POPC   PO412552   3.498  41.515   9.155
 6310POPC   GL112553   3.502  41.511   8.855
 6310POPC   GL212554   3.611  41.491   8.855
 6310POPC   C1A12555   3.551  41.591   8.555
 6310POPC   D2A12556   3.499  41.528   8.255
 6310POPC   C3A12557   3.507  41.558   7.955
 6310POPC   C4A12558   3.542  41.549   7.655
 6310POPC   C1B12559   3.753  41.470   8.555
 6310POPC   C2B12560   3.749  41.480   8.255
 6310POPC   C3B12561   3.762  41.465   7.955
 6310POPC   C4B12562   3.759  41.474   7.655
 6311POPC   NC312563   1.178   9.790   9.455
 6311POPC   PO412564   1.244   9.786   9.155
 6311POPC   GL112565   1.211   9.711   8.855
 6311POPC   GL212566   1.187   9.904   8.855
 6311POPC   C1A12567   1.228   9.710   8.555
 6311POPC   D2A12568   1.193   9.709   8.255
 6311POPC   C3A12569   1.168   9.767   7.955
 6311POPC   C4A12570   1.168   9.698   7.655
 6311POPC   C1B12571   1.151   9.985   8.555
 6311POPC   C2B12572   1.107   9.955   8.255
 6311POPC   C3B12573   1.146   9.990   7.955
 6311POPC   C4B12574   1.134   9.972   7.655
 6312POPC   NC312575   5.907  22.129   9.455
 6312POPC   PO412576   5.832  22.123   9.155
 6312POPC   GL112577   5.866  22.170   8.855
 6312POPC   GL212578   5.795  22.045   8.855
 6312POPC   C1A12579   5.848  22.115   8.555
 6312POPC   D2A12580   5.881  22.150   8.255
 6312POPC   C3A12581   5.879  22.165   7.955
 6312POPC   C4A12582   5.906  22.152   7.655
 6312POPC   C1B12583   5.717  21.894   8.555
 6312POPC   C2B12584   5.766  21.893   8.255
 6312POPC   C3B12585   5.735  21.962   7.955
 6312POPC   C4B12586   5.758  21.952   7.655
 6313POPC   NC312587   3.510  40.740   9.455
 6313POPC   PO412588   3.521  40.778   9.155
 6313POPC   GL112589   3.579  40.816   8.855
 6313POPC   GL212590   3.425  40.779   8.855
 6313POPC   C1A12591   3.531  40.830   8.555
 6313POPC   D2A12592   3.558  40.760   8.255
 6313POPC   C3A12593   3.521  40.790   7.955
 6313POPC   C4A12594   3.581  40.781   7.655
 6313POPC   C1B12595   3.337  40.689   8.555
 6313POPC   C2B12596   3.332  40.690   8.255
 6313POPC   C3B12597   3.337  40.665   7.955
 6313POPC   C4B12598   3.321  40.727   7.655
 6314POPC   NC312599  19.048   5.119   9.455
 6314POPC   PO412600  19.080   5.053   9.155
 6314POPC   GL112601  19.013   5.057   8.855
 6314POPC   GL212602  19.105   5.248   8.855
 6314POPC   C1A12603  19.051   5.072   8.555
 6314POPC   D2A12604  19.103   5.061   8.255
 6314POPC   C3A12605  19.059   5.131   7.955
 6314POPC   C4A12606  19.062   5.052   7.655
 6314POPC   C1B12607  19.188   5.266   8.555
 6314POPC   C2B12608  19.192   5.326   8.255
 6314POPC   C3B12609  19.220   5.341   7.955
 6314POPC   C4B12610  19.141   5.296   7.655
 6315POPC   NC312611  10.496  18.257   9.455
 6315POPC   PO412612  10.497  18.236   9.155
 6315POPC   GL112613  10.548  18.234   8.855
 6315POPC   GL212614  10.487  18.430   8.855
 6315POPC   C1A12615  10.540  18.323   8.555
 6315POPC   D2A12616  10.490  18.250   8.255
 6315POPC   C3A12617  10.572  18.304   7.955
 6315POPC   C4A12618  10.521  18.236   7.655
 6315POPC   C1B12619  10.460  18.504   8.555
 6315POPC   C2B12620  10.500  18.543   8.255
 6315POPC   C3B12621  10.550  18.545   7.955
 6315POPC   C4B12622  10.504  18.559   7.655
 6316POPC   NC312623  39.236  29.929   9.455
 6316POPC   PO412624  39.259  29.908   9.155
 6316POPC   GL112625  39.268  29.923   8.855
 6316POPC   GL212626  39.121  29.831   8.855
 6316POPC   C1A12627  39.213  29.960   8.555
 6316POPC   D2A12628  39.234  29.882   8.255
 6316POPC   C3A12629  39.265  29.943   7.955
 6316POPC   C4A12630  39.230  29.878   7.655
 6316POPC   C1B12631  38.959  29.863   8.555
 6316POPC   C2B12632  38.964  29.851   8.255
 6316POPC   C3B12633  38.973  29.813   7.955
 6316POPC   C4B12634  38.961  29.882   7.655
 6317POPC   NC312635  23.679  30.701   9.455
 6317POPC   PO412636  23.713  30.725   9.155
 6317POPC   GL112637  23.725  30.696   8.855
 6317POPC   GL212638  23.598  30.684   8.855
 6317POPC   C1A12639  23.739  30.704   8.555
 6317POPC   D2A12640  23.750  30.725   8.255
 6317POPC   C3A12641  23.693  30.730   7.955
 6317POPC   C4A12642  23.751  30.695   7.655
 6317POPC   C1B12643  23.466  30.732   8.555
 6317POPC   C2B12644  23.489  30.697   8.255
 6317POPC   C3B12645  23.455  30.747   7.955
 6317POPC   C4B12646  23.501  30.732   7.655
 6318POPC   NC312647  11.261  37.636   9.455
 6318POPC   PO412648  11.276  37.646   9.155
 6318POPC   GL112649  11.262  37.687   8.855
 6318POPC   GL212650  11.359  37.840   8.855
 6318POPC   C1A12651  11.284  37.704   8.555
 6318POPC   D2A12652  11.333  37.701   8.255
 6318POPC   C3A12653  11.285  37.665   7.955
 6318POPC   C4A12654  11.317  37.648   7.655
 6318POPC   C1B12655  11.360  37.878   8.555
 6318POPC   C2B12656  11.331  37.974   8.255
 6318POPC   C3B12657  11.296  37.887   7.955
 6318POPC   C4B12658  11.325  37.935   7.655
 6319POPC   NC312659  26.027  16.730   9.455
 6319POPC   PO412660  25.997  16.719   9.155
 6319POPC   GL112661  26.053  16.755   8.855
 6319POPC   GL212662  26.130  16.838   8.855
 6319POPC   C1A12663  26.033  16.753   8.555
 6319POPC   D2A12664  26.045  16.683   8.255
 6319POPC   C3A12665  26.024  16.706   7.955
 6319POPC   C4A12666  26.034  16.713   7.655
 6319POPC   C1B12667  26.177  16.920   8.555
 6319POPC   C2B12668  26.157  16.918   8.255
 6319POPC   C3B12669  26.098  17.007   7.955
 6319POPC   C4B12670  26.168  16.953   7.655
 6320POPC   NC312671  19.055   4.274   9.455
 6320POPC   PO412672  19.052   4.279   9.155
 6320POPC   GL112673  19.055   4.305   8.855
 6320POPC   GL212674  18.940   4.332   8.855
 6320POPC   C1A12675  19.054   4.292   8.555
 6320POPC   D2A12676  19.057   4.347   8.255
 6320POPC   C3A12677  19.032   4.311   7.955
 6320POPC   C4A12678  19.025   4.288   7.655
 6320POPC   C1B12679  18.795   4.393   8.555
 6320POPC   C2B12680  18.854   4.403   8.255
 6320POPC   C3B12681  18.832   4.389   7.955
 6320POPC   C4B12682  18.775   4.364   7.655
 6321POPC   NC312683   9.701  14.372   9.455
 6321POPC   PO412684   9.727  14.377   9.155
 6321POPC   GL112685   9.759  14.383   8.855
 6321POPC   GL212686   9.651  14.469   8.855
 6321POPC   C1A12687   9.726  14.399   8.555
 6321POPC   D2A12688   9.733  14.393   8.255
 6321POPC   C3A12689   9.783  14.393   7.955
 6321POPC   C4A12690   9.740  14.401   7.655
 6321POPC   C1B12691   9.533  14.504   8.555
 6321POPC   C2B12692   9.500  14.556   8.255
 6321POPC   C3B12693   9.527  14.505   7.955
 6321POPC   C4B12694   9.496  14.509   7.655
 6322POPC   NC312695  41.576   9.736   9.455
 6322POPC   PO412696  41.606   9.741   9.155
 6322POPC   GL112697  41.589   9.752   8.855
 6322POPC   GL212698  41.620   9.623   8.855
 6322POPC   C1A12699  41.516   9.729   8.555
 6322POPC   D2A12700  41.544   9.739   8.255
 6322POPC   C3A12701  41.584   9.762   7.955
 6322POPC   C4A12702  41.542   9.764   7.655
 6322POPC   C1B12703  41.554   9.515   8.555
 6322POPC   C2B12704  41.549   9.466   8.255
 6322POPC   C3B12705  41.620   9.517   7.955
 6322POPC   C4B12706  41.610   9.454   7.655
 6323POPC   NC312707  39.184  39.204   9.455
 6323POPC   PO412708  39.232  39.207   9.155
 6323POPC   GL112709  39.273  39.197   8.855
 6323POPC   GL212710  39.137  39.292   8.855
 6323POPC   C1A12711  39.260  39.214   8.555
 6323POPC   D2A12712  39.267  39.229   8.255
 6323POPC   C3A12713  39.183  39.221   7.955
 6323POPC   C4A12714  39.234  39.212   7.655
 6323POPC   C1B12715  39.075  39.453   8.555
 6323POPC   C2B12716  39.129  39.470   8.255
 6323POPC   C3B12717  39.063  39.485   7.955
 6323POPC   C4B12718  39.123  39.442   7.655
 6324POPC   NC312719  24.468   1.214   9.455
 6324POPC   PO412720  24.440   1.182   9.155
 6324POPC   GL112721  24.506   1.224   8.855
 6324POPC   GL212722  24.538   1.096   8.855
 6324POPC   C1A12723  24.528   1.221   8.555
 6324POPC   D2A12724  24.444   1.253   8.255
 6324POPC   C3A12725  24.473   1.210   7.955
 6324POPC   C4A12726  24.464   1.198   7.655
 6324POPC   C1B12727  24.652   1.082   8.555
 6324POPC   C2B12728  24.643   1.014   8.255
 6324POPC   C3B12729  24.686   1.090   7.955
 6324POPC   C4B12730  24.699   1.090   7.655
 6325POPC   NC312731   8.157  18.331   9.455
 6325POPC   PO412732   8.150  18.309   9.155
 6325POPC   GL112733   8.220  18.329   8.855
 6325POPC   GL212734   8.121  18.193   8.855
 6325POPC   C1A12735   8.169  18.331   8.555
 6325POPC   D2A12736   8.169  18.266   8.255
 6325POPC   C3A12737   8.184  18.278   7.955
 6325POPC   C4A12738   8.230  18.310   7.655
 6325POPC   C1B12739   7.965  18.188   8.555
 6325POPC   C2B12740   8.036  18.120   8.255
 6325POPC   C3B12741   8.029  18.131   7.955
 6325POPC   C4B12742   8.036  18.142   7.655
 6326POPC   NC312743  29.887  39.218   9.455
 6326POPC   PO412744  29.910  39.251   9.155
 6326POPC   GL112745  29.930  39.255   8.855
 6326POPC   GL212746  29.989  39.130   8.855
 6326POPC   C1A12747  29.879  39.242   8.555
 6326POPC   D2A12748  29.919  39.189   8.255
 6326POPC   C3A12749  29.911  39.264   7.955
 6326POPC   C4A12750  29.888  39.272   7.655
 6326POPC   C1B12751  30.089  39.126   8.555
 6326POPC   C2B12752  30.108  39.056   8.255
 6326POPC   C3B12753  30.143  39.114   7.955
 6326POPC   C4B12754  30.151  39.109   7.655
 6327POPC   NC312755  40.798   3.499   9.455
 6327POPC   PO412756  40.746   3.584   9.155
 6327POPC   GL112757  40.814   3.561   8.855
 6327POPC   GL212758  40.895   3.588   8.855
 6327POPC   C1A12759  40.829   3.571   8.555
 6327POPC   D2A12760  40.776   3.546   8.255
 6327POPC   C3A12761  40.814   3.505   7.955
 6327POPC   C4A12762  40.816   3.582   7.655
 6327POPC   C1B12763  41.061   3.619   8.555
 6327POPC   C2B12764  41.020   3.605   8.255
 6327POPC   C3B12765  41.002   3.530   7.955
 6327POPC   C4B12766  41.067   3.542   7.655
 6328POPC   NC312767  13.598   5.078   9.455
 6328POPC   PO412768  13.586   5.055   9.155
 6328POPC   GL112769  13.638   5.102   8.855
 6328POPC   GL212770  13.699   5.138   8.855
 6328POPC   C1A12771  13.660   5.082   8.555
 6328POPC   D2A12772  13.605   5.059   8.255
 6328POPC   C3A12773  13.634   5.104   7.955
 6328POPC   C4A12774  13.628   5.119   7.655
 6328POPC   C1B12775  13.918   5.178   8.555
 6328POPC   C2B12776  13.870   5.147   8.255
 6328POPC   C3B12777  13.895   5.142   7.955
 6328POPC   C4B12778  13.882   5.194   7.655
 6329POPC   NC312779  38.434  41.598   9.455
 6329POPC   PO412780  38.436  41.514   9.155
 6329POPC   GL112781  38.458  41.516   8.855
 6329POPC   GL212782  38.549  41.418   8.855
 6329POPC   C1A12783  38.437  41.534   8.555
 6329POPC   D2A12784  38.447  41.527   8.255
 6329POPC   C3A12785  38.503  41.543   7.955
 6329POPC   C4A12786  38.428  41.599   7.655
 6329POPC   C1B12787  38.530  41.340   8.555
 6329POPC   C2B12788  38.529  41.330   8.255
 6329POPC   C3B12789  38.591  41.372   7.955
 6329POPC   C4B12790  38.573  41.354   7.655
 6330POPC   NC312791  39.191   3.558   9.455
 6330POPC   PO412792  39.265   3.519   9.155
 6330POPC   GL112793  39.267   3.505   8.855
 6330POPC   GL212794  39.163   3.449   8.855
 6330POPC   C1A12795  39.192   3.510   8.555
 6330POPC   D2A12796  39.239   3.500   8.255
 6330POPC   C3A12797  39.223   3.537   7.955
 6330POPC   C4A12798  39.269   3.515   7.655
 6330POPC   C1B12799  39.053   3.445   8.555
 6330POPC   C2B12800  39.001   3.394   8.255
 6330POPC   C3B12801  39.060   3.366   7.955
 6330POPC   C4B12802  39.028   3.407   7.655
 6331POPC   NC312803  26.791  43.848   9.455
 6331POPC   PO412804  26.822  43.924   9.155
 6331POPC   GL112805  26.862  43.924   8.855
 6331POPC   GL212806  26.684  43.886   8.855
 6331POPC   C1A12807  26.834  43.864   8.555
 6331POPC   D2A12808  26.857  43.885   8.255
 6331POPC   C3A12809  26.858  43.878   7.955
 6331POPC   C4A12810  26.777  43.909   7.655
 6331POPC   C1B12811  26.525  43.920   8.555
 6331POPC   C2B12812  26.525  43.848   8.255
 6331POPC   C3B12813  26.607  43.910   7.955
 6331POPC   C4B12814  26.597  43.835   7.655
 6332POPC   NC312815  29.945  30.671   9.455
 6332POPC   PO412816  29.938  30.743   9.155
 6332POPC   GL112817  29.886  30.716   8.855
 6332POPC   GL212818  29.826  30.782   8.855
 6332POPC   C1A12819  29.910  30.728   8.555
 6332POPC   D2A12820  29.872  30.695   8.255
 6332POPC   C3A12821  29.937  30.688   7.955
 6332POPC   C4A12822  29.952  30.689   7.655
 6332POPC   C1B12823  29.820  30.900   8.555
 6332POPC   C2B12824  29.823  30.870   8.255
 6332POPC   C3B12825  29.765  30.929   7.955
 6332POPC   C4B12826  29.822  30.883   7.655
 6333POPC   NC312827  29.115  33.033   9.455
 6333POPC   PO412828  29.146  33.025   9.155
 6333POPC   GL112829  29.157  32.998   8.855
 6333POPC   GL212830  29.213  32.971   8.855
 6333POPC   C1A12831  29.160  33.043   8.555
 6333POPC   D2A12832  29.123  32.982   8.255
 6333POPC   C3A12833  29.193  33.002   7.955
 6333POPC   C4A12834  29.153  32.980   7.655
 6333POPC   C1B12835  29.412  32.938   8.555
 6333POPC   C2B12836  29.409  32.876   8.255
 6333POPC   C3B12837  29.360  32.932   7.955
 6333POPC   C4B12838  29.348  32.876   7.655
 6334POPC   NC312839   6.662   9.000   9.455
 6334POPC   PO412840   6.662   8.934   9.155
 6334POPC   GL112841   6.635   8.925   8.855
 6334POPC   GL212842   6.551   9.002   8.855
 6334POPC   C1A12843   6.658   9.015   8.555
 6334POPC   D2A12844   6.609   8.983   8.255
 6334POPC   C3A12845   6.641   8.997   7.955
 6334POPC   C4A12846   6.659   8.962   7.655
 6334POPC   C1B12847   6.417   9.012   8.555
 6334POPC   C2B12848   6.445   8.982   8.255
 6334POPC   C3B12849   6.371   9.033   7.955
 6334POPC   C4B12850   6.416   9.062   7.655
 6335POPC   NC312851  16.699  35.344   9.455
 6335POPC   PO412852  16.740  35.337   9.155
 6335POPC   GL112853  16.778  35.325   8.855
 6335POPC   GL212854  16.586  35.407   8.855
 6335POPC   C1A12855  16.730  35.329   8.555
 6335POPC   D2A12856  16.717  35.309   8.255
 6335POPC   C3A12857  16.744  35.368   7.955
 6335POPC   C4A12858  16.709  35.375   7.655
 6335POPC   C1B12859  16.514  35.408   8.555
 6335POPC   C2B12860  16.437  35.403   8.255
 6335POPC   C3B12861  16.501  35.340   7.955
 6335POPC   C4B12862  16.489  35.348   7.655
 6336POPC   NC312863  25.305  30.656   9.455
 6336POPC   PO412864  25.302  30.649   9.155
 6336POPC   GL112865  25.252  30.671   8.855
 6336POPC   GL212866  25.142  30.639   8.855
 6336POPC   C1A12867  25.216  30.741   8.555
 6336POPC   D2A12868  25.255  30.665   8.255
 6336POPC   C3A12869  25.267  30.658   7.955
 6336POPC   C4A12870  25.276  30.710   7.655
 6336POPC   C1B12871  25.075  30.557   8.555
 6336POPC   C2B12872  25.106  30.552   8.255
 6336POPC   C3B12873  25.106  30.533   7.955
 6336POPC   C4B12874  25.130  30.534   7.655
 6337POPC   NC312875   4.311  35.332   9.455
 6337POPC   PO412876   4.268  35.394   9.155
 6337POPC   GL112877   4.317  35.324   8.855
 6337POPC   GL212878   4.314  35.430   8.855
 6337POPC   C1A12879   4.278  35.319   8.555
 6337POPC   D2A12880   4.281  35.392   8.255
 6337POPC   C3A12881   4.354  35.396   7.955
 6337POPC   C4A12882   4.298  35.353   7.655
 6337POPC   C1B12883   4.371  35.552   8.555
 6337POPC   C2B12884   4.337  35.567   8.255
 6337POPC   C3B12885   4.393  35.574   7.955
 6337POPC   C4B12886   4.368  35.602   7.655
 6338POPC   NC312887  38.414  10.498   9.455
 6338POPC   PO412888  38.432  10.563   9.155
 6338POPC   GL112889  38.442  10.561   8.855
 6338POPC   GL212890  38.344  10.375   8.855
 6338POPC   C1A12891  38.490  10.551   8.555
 6338POPC   D2A12892  38.441  10.481   8.255
 6338POPC   C3A12893  38.499  10.541   7.955
 6338POPC   C4A12894  38.487  10.504   7.655
 6338POPC   C1B12895  38.275  10.295   8.555
 6338POPC   C2B12896  38.305  10.264   8.255
 6338POPC   C3B12897  38.294  10.270   7.955
 6338POPC   C4B12898  38.365  10.321   7.655
 6339POPC   NC312899  19.848  43.913   9.455
 6339POPC   PO412900  19.797  43.917   9.155
 6339POPC   GL112901  19.883  43.840   8.855
 6339POPC   GL212902  19.956  43.877   8.855
 6339POPC   C1A12903  19.792  43.866   8.555
 6339POPC   D2A12904  19.798  43.891   8.255
 6339POPC   C3A12905  19.790  43.869   7.955
 6339POPC   C4A12906  19.811  43.865   7.655
 6339POPC   C1B12907  20.086  43.867   8.555
 6339POPC   C2B12908  20.088  43.866   8.255
 6339POPC   C3B12909  20.036  43.887   7.955
 6339POPC   C4B12910  20.055  43.883   7.655
 6340POPC   NC312911  40.776  27.564   9.455
 6340POPC   PO412912  40.780  27.571   9.155
 6340POPC   GL112913  40.805  27.561   8.855
 6340POPC   GL212914  40.704  27.521   8.855
 6340POPC   C1A12915  40.757  27.561   8.555
 6340POPC   D2A12916  40.766  27.553   8.255
 6340POPC   C3A12917  40.755  27.545   7.955
 6340POPC   C4A12918  40.810  27.545   7.655
 6340POPC   C1B12919  40.493  27.558   8.555
 6340POPC   C2B12920  40.559  27.526   8.255
 6340POPC   C3B12921  40.498  27.577   7.955
 6340POPC   C4B12922  40.492  27.522   7.655
 6341POPC   NC312923  21.374  30.672   9.455
 6341POPC   PO412924  21.389  30.675   9.155
 6341POPC   GL112925  21.367  30.648   8.855
 6341POPC   GL212926  21.272  30.583   8.855
 6341POPC   C1A12927  21.340  30.679   8.555
 6341POPC   D2A12928  21.355  30.693   8.255
 6341POPC   C3A12929  21.386  30.674   7.955
 6341POPC   C4A12930  21.410  30.698   7.655
 6341POPC   C1B12931  21.252  30.501   8.555
 6341POPC   C2B12932  21.273  30.512   8.255
 6341POPC   C3B12933  21.287  30.493   7.955
 6341POPC   C4B12934  21.286  30.529   7.655
 6342POPC   NC312935  43.915  42.357   9.455
 6342POPC   PO412936  43.845  42.294   9.155
 6342POPC   GL112937  43.845  42.375   8.855
 6342POPC   GL212938  43.821  42.235   8.855
 6342POPC   C1A12939  43.931  42.338   8.555
 6342POPC   D2A12940  43.916  42.354   8.255
 6342POPC   C3A12941  43.890  42.356   7.955
 6342POPC   C4A12942  43.914  42.368   7.655
 6342POPC   C1B12943  43.729  42.167   8.555
 6342POPC   C2B12944  43.732  42.191   8.255
 6342POPC   C3B12945  43.681  42.204   7.955
 6342POPC   C4B12946  43.686  42.210   7.655
 6343POPC   NC312947  44.681   9.759   9.455
 6343POPC   PO412948  44.619   9.723   9.155
 6343POPC   GL112949  44.642   9.795   8.855
 6343POPC   GL212950  44.555   9.716   8.855
 6343POPC   C1A12951  44.622   9.740   8.555
 6343POPC   D2A12952  44.620   9.753   8.255
 6343POPC   C3A12953  44.652   9.748   7.955
 6343POPC   C4A12954  44.631   9.699   7.655
 6343POPC   C1B12955  44.397   9.622   8.555
 6343POPC   C2B12956  44.473   9.651   8.255
 6343POPC   C3B12957  44.419   9.597   7.955
 6343POPC   C4B12958  44.399   9.625   7.655
 6344POPC   NC312959  26.802   5.101   9.455
 6344POPC   PO412960  26.837   5.060   9.155
 6344POPC   GL112961  26.808   5.078   8.855
 6344POPC   GL212962  26.676   5.032   8.855
 6344POPC   C1A12963  26.793   5.132   8.555
 6344POPC   D2A12964  26.781   5.083   8.255
 6344POPC   C3A12965  26.800   5.106   7.955
 6344POPC   C4A12966  26.826   5.132   7.655
 6344POPC   C1B12967  26.602   5.016   8.555
 6344POPC   C2B12968  26.598   5.047   8.255
 6344POPC   C3B12969  26.569   5.056   7.955
 6344POPC   C4B12970  26.602   5.024   7.655
 6345POPC   NC312971  21.386  35.373   9.455
 6345POPC   PO412972  21.413  35.350   9.155
 6345POPC   GL112973  21.380  35.309   8.855
 6345POPC   GL212974  21.427  35.262   8.855
 6345POPC   C1A12975  21.416  35.306   8.555
 6345POPC   D2A12976  21.353  35.318   8.255
 6345POPC   C3A12977  21.404  35.337   7.955
 6345POPC   C4A12978  21.346  35.394   7.655
 6345POPC   C1B12979  21.471  35.118   8.555
 6345POPC   C2B12980  21.458  35.062   8.255
 6345POPC   C3B12981  21.441  35.070   7.955
 6345POPC   C4B12982  21.465  35.128   7.655
 6346POPC   NC312983  17.482  28.339   9.455
 6346POPC   PO412984  17.498  28.324   9.155
 6346POPC   GL112985  17.469  28.400   8.855
 6346POPC   GL212986  17.580  28.420   8.855
 6346POPC   C1A12987  17.458  28.385   8.555
 6346POPC   D2A12988  17.552  28.380   8.255
 6346POPC   C3A12989  17.476  28.348   7.955
 6346POPC   C4A12990  17.527  28.346   7.655
 6346POPC   C1B12991  17.679  28.539   8.555
 6346POPC   C2B12992  17.691  28.545   8.255
 6346POPC   C3B12993  17.762  28.514   7.955
 6346POPC   C4B12994  17.704  28.528   7.655
 6347POPC   NC312995  12.845  21.340   9.455
 6347POPC   PO412996  12.804  21.420   9.155
 6347POPC   GL112997  12.830  21.399   8.855
 6347POPC   GL212998  12.929  21.399   8.855
 6347POPC   C1A12999  12.875  21.413   8.555
 6347POPC   D2A13000  12.848  21.362   8.255
 6347POPC   C3A13001  12.855  21.379   7.955
 6347POPC   C4A13002  12.900  21.418   7.655
 6347POPC   C1B13003  13.122  21.484   8.555
 6347POPC   C2B13004  13.094  21.497   8.255
 6347POPC   C3B13005  13.097  21.439   7.955
 6347POPC   C4B13006  13.047  21.449   7.655
 6348POPC   NC313007  37.646  32.976   9.455
 6348POPC   PO413008  37.636  33.006   9.155
 6348POPC   GL113009  37.631  32.983   8.855
 6348POPC   GL213010  37.745  33.094   8.855
 6348POPC   C1A13011  37.635  33.038   8.555
 6348POPC   D2A13012  37.652  33.017   8.255
 6348POPC   C3A13013  37.690  33.020   7.955
 6348POPC   C4A13014  37.646  33.066   7.655
 6348POPC   C1B13015  37.780  33.217   8.555
 6348POPC   C2B13016  37.758  33.247   8.255
 6348POPC   C3B13017  37.815  33.292   7.955
 6348POPC   C4B13018  37.741  33.208   7.655
 6349POPC   NC313019  25.308  27.624   9.455
 6349POPC   PO413020  25.311  27.636   9.155
 6349POPC   GL113021  25.241  27.573   8.855
 6349POPC   GL213022  25.277  27.734   8.855
 6349POPC   C1A13023  25.303  27.640   8.555
 6349POPC   D2A13024  25.282  27.637   8.255
 6349POPC   C3A13025  25.279  27.557   7.955
 6349POPC   C4A13026  25.304  27.619   7.655
 6349POPC   C1B13027  25.163  27.839   8.555
 6349POPC   C2B13028  25.181  27.879   8.255
 6349POPC   C3B13029  25.221  27.850   7.955
 6349POPC   C4B13030  25.184  27.871   7.655
 6350POPC   NC313031  33.798  29.146   9.455
 6350POPC   PO413032  33.762  29.130   9.155
 6350POPC   GL113033  33.780  29.112   8.855
 6350POPC   GL213034  33.910  29.083   8.855
 6350POPC   C1A13035  33.821  29.126   8.555
 6350POPC   D2A13036  33.756  29.099   8.255
 6350POPC   C3A13037  33.836  29.132   7.955
 6350POPC   C4A13038  33.833  29.156   7.655
 6350POPC   C1B13039  34.014  29.078   8.555
 6350POPC   C2B13040  34.050  28.998   8.255
 6350POPC   C3B13041  34.074  28.999   7.955
 6350POPC   C4B13042  34.038  29.017   7.655
 6351POPC   NC313043  15.217  35.333   9.455
 6351POPC   PO413044  15.220  35.302   9.155
 6351POPC   GL113045  15.216  35.321   8.855
 6351POPC   GL213046  15.164  35.222   8.855
 6351POPC   C1A13047  15.172  35.365   8.555
 6351POPC   D2A13048  15.197  35.338   8.255
 6351POPC   C3A13049  15.195  35.361   7.955
 6351POPC   C4A13050  15.188  35.342   7.655
 6351POPC   C1B13051  15.119  35.126   8.555
 6351POPC   C2B13052  15.113  35.102   8.255
 6351POPC   C3B13053  15.089  35.141   7.955
 6351POPC   C4B13054  15.117  35.137   7.655
 6352POPC   NC313055  39.246  12.101   9.455
 6352POPC   PO413056  39.190  12.117   9.155
 6352POPC   GL113057  39.194  12.081   8.855
 6352POPC   GL213058  39.128  12.128   8.855
 6352POPC   C1A13059  39.280  12.120   8.555
 6352POPC   D2A13060  39.265  12.105   8.255
 6352POPC   C3A13061  39.182  12.070   7.955
 6352POPC   C4A13062  39.242  12.036   7.655
 6352POPC   C1B13063  39.026  12.162   8.555
 6352POPC   C2B13064  39.038  12.159   8.255
 6352POPC   C3B13065  39.041  12.232   7.955
 6352POPC   C4B13066  39.033  12.150   7.655
 6353POPC   NC313067  24.532   2.770   9.455
 6353POPC   PO413068  24.503   2.722   9.155
 6353POPC   GL113069  24.487   2.797   8.855
 6353POPC   GL213070  24.655   2.730   8.855
 6353POPC   C1A13071  24.528   2.791   8.555
 6353POPC   D2A13072  24.446   2.766   8.255
 6353POPC   C3A13073  24.476   2.798   7.955
 6353POPC   C4A13074  24.509   2.737   7.655
 6353POPC   C1B13075  24.775   2.777   8.555
 6353POPC   C2B13076  24.753   2.802   8.255
 6353POPC   C3B13077  24.773   2.779   7.955
 6353POPC   C4B13078  24.774   2.774   7.655
 6354POPC   NC313079  37.642  29.944   9.455
 6354POPC   PO413080  37.705  29.933   9.155
 6354POPC   GL113081  37.688  29.933   8.855
 6354POPC   GL213082  37.604  29.804   8.855
 6354POPC   C1A13083  37.667  29.903   8.555
 6354POPC   D2A13084  37.638  29.924   8.255
 6354POPC   C3A13085  37.682  29.882   7.955
 6354POPC   C4A13086  37.643  29.886   7.655
 6354POPC   C1B13087  37.539  29.700   8.555
 6354POPC   C2B13088  37.536  29.720   8.255
 6354POPC   C3B13089  37.611  29.689   7.955
 6354POPC   C4B13090  37.602  29.691   7.655
 6355POPC   NC313091  15.151   9.748   9.455
 6355POPC   PO413092  15.207   9.732   9.155
 6355POPC   GL113093  15.222   9.796   8.855
 6355POPC   GL213094  15.052   9.771   8.855
 6355POPC   C1A13095  15.176   9.776   8.555
 6355POPC   D2A13096  15.207   9.736   8.255
 6355POPC   C3A13097  15.194   9.764   7.955
 6355POPC   C4A13098  15.133   9.758   7.655
 6355POPC   C1B13099  14.985   9.836   8.555
 6355POPC   C2B13100  14.939   9.832   8.255
 6355POPC   C3B13101  14.960   9.837   7.955
 6355POPC   C4B13102  14.957   9.833   7.655
 6356POPC   NC313103  41.560  16.776   9.455
 6356POPC   PO413104  41.578  16.695   9.155
 6356POPC   GL113105  41.558  16.779   8.855
 6356POPC   GL213106  41.701  16.665   8.855
 6356POPC   C1A13107  41.563  16.768   8.555
 6356POPC   D2A13108  41.557  16.690   8.255
 6356POPC   C3A13109  41.518  16.744   7.955
 6356POPC   C4A13110  41.585  16.695   7.655
 6356POPC   C1B13111  41.789  16.674   8.555
 6356POPC   C2B13112  41.848  16.671   8.255
 6356POPC   C3B13113  41.832  16.636   7.955
 6356POPC   C4B13114  41.803  16.613   7.655
 6357POPC   NC313115   7.417  16.711   9.455
 6357POPC   PO413116   7.463  16.737   9.155
 6357POPC   GL113117   7.396  16.737   8.855
 6357POPC   GL213118   7.590  16.723   8.855
 6357POPC   C1A13119   7.438  16.749   8.555
 6357POPC   D2A13120   7.447  16.756   8.255
 6357POPC   C3A13121   7.425  16.685   7.955
 6357POPC   C4A13122   7.375  16.692   7.655
 6357POPC   C1B13123   7.677  16.637   8.555
 6357POPC   C2B13124   7.713  16.673   8.255
 6357POPC   C3B13125   7.660  16.646   7.955
 6357POPC   C4B13126   7.694  16.624   7.655
 6358POPC   NC313127   9.743  18.326   9.455
 6358POPC   PO413128   9.700  18.316   9.155
 6358POPC   GL113129   9.777  18.331   8.855
 6358POPC   GL213130   9.707  18.161   8.855
 6358POPC   C1A13131   9.732  18.299   8.555
 6358POPC   D2A13132   9.730  18.253   8.255
 6358POPC   C3A13133   9.790  18.263   7.955
 6358POPC   C4A13134   9.740  18.280   7.655
 6358POPC   C1B13135   9.580  18.067   8.555
 6358POPC   C2B13136   9.645  18.059   8.255
 6358POPC   C3B13137   9.648  18.107   7.955
 6358POPC   C4B13138   9.593  18.064   7.655
 6359POPC   NC313139  21.418  42.317   9.455
 6359POPC   PO413140  21.392  42.366   9.155
 6359POPC   GL113141  21.344  42.354   8.855
 6359POPC   GL213142  21.300  42.309   8.855
 6359POPC   C1A13143  21.429  42.305   8.555
 6359POPC   D2A13144  21.355  42.314   8.255
 6359POPC   C3A13145  21.412  42.360   7.955
 6359POPC   C4A13146  21.430  42.290   7.655
 6359POPC   C1B13147  21.173  42.332   8.555
 6359POPC   C2B13148  21.181  42.381   8.255
 6359POPC   C3B13149  21.164  42.307   7.955
 6359POPC   C4B13150  21.175  42.337   7.655
 6360POPC   NC313151  30.745   5.823   9.455
 6360POPC   PO413152  30.690   5.841   9.155
 6360POPC   GL113153  30.675   5.879   8.855
 6360POPC   GL213154  30.658   5.803   8.855
 6360POPC   C1A13155  30.649   5.840   8.555
 6360POPC   D2A13156  30.733   5.879   8.255
 6360POPC   C3A13157  30.693   5.909   7.955
 6360POPC   C4A13158  30.693   5.878   7.655
 6360POPC   C1B13159  30.542   5.632   8.555
 6360POPC   C2B13160  30.501   5.623   8.255
 6360POPC   C3B13161  30.581   5.634   7.955
 6360POPC   C4B13162  30.574   5.661   7.655
 6361POPC   NC313163  38.495   0.399   9.455
 6361POPC   PO413164  38.410   0.469   9.155
 6361POPC   GL113165  38.417   0.447   8.855
 6361POPC   GL213166  38.425   0.283   8.855
 6361POPC   C1A13167  38.430   0.428   8.555
 6361POPC   D2A13168  38.484   0.483   8.255
 6361POPC   C3A13169  38.449   0.445   7.955
 6361POPC   C4A13170  38.456   0.394   7.655
 6361POPC   C1B13171  38.451   0.202   8.555
 6361POPC   C2B13172  38.464   0.152   8.255
 6361POPC   C3B13173  38.477   0.147   7.955
 6361POPC   C4B13174  38.511   0.223   7.655
 6362POPC   NC313175  25.999   2.790   9.455
 6362POPC   PO413176  26.073   2.788   9.155
 6362POPC   GL113177  26.089   2.749   8.855
 6362POPC   GL213178  25.924   2.883   8.855
 6362POPC   C1A13179  26.080   2.738   8.555
 6362POPC   D2A13180  26.021   2.762   8.255
 6362POPC   C3A13181  26.025   2.776   7.955
 6362POPC   C4A13182  26.005   2.805   7.655
 6362POPC   C1B13183  25.919   2.970   8.555
 6362POPC   C2B13184  25.951   3.014   8.255
 6362POPC   C3B13185  25.890   2.929   7.955
 6362POPC   C4B13186  25.944   2.953   7.655
 6363POPC   NC313187  12.029  32.296   9.455
 6363POPC   PO413188  12.039  32.224   9.155
 6363POPC   GL113189  12.068  32.288   8.855
 6363POPC   GL213190  12.016  32.409   8.855
 6363POPC   C1A13191  12.098  32.225   8.555
 6363POPC   D2A13192  12.034  32.257   8.255
 6363POPC   C3A13193  12.035  32.283   7.955
 6363POPC   C4A13194  12.070  32.280   7.655
 6363POPC   C1B13195  11.981  32.521   8.555
 6363POPC   C2B13196  12.005  32.503   8.255
 6363POPC   C3B13197  11.924  32.443   7.955
 6363POPC   C4B13198  11.932  32.492   7.655
 6364POPC   NC313199  40.786  16.714   9.455
 6364POPC   PO413200  40.810  16.705   9.155
 6364POPC   GL113201  40.822  16.718   8.855
 6364POPC   GL213202  40.846  16.640   8.855
 6364POPC   C1A13203  40.817  16.735   8.555
 6364POPC   D2A13204  40.793  16.769   8.255
 6364POPC   C3A13205  40.768  16.730   7.955
 6364POPC   C4A13206  40.780  16.692   7.655
 6364POPC   C1B13207  40.939  16.508   8.555
 6364POPC   C2B13208  40.992  16.515   8.255
 6364POPC   C3B13209  40.952  16.554   7.955
 6364POPC   C4B13210  40.976  16.503   7.655
 6365POPC   NC313211   1.230  22.953   9.455
 6365POPC   PO413212   1.259  22.952   9.155
 6365POPC   GL113213   1.203  22.917   8.855
 6365POPC   GL213214   1.232  22.786   8.855
 6365POPC   C1A13215   1.224  22.948   8.555
 6365POPC   D2A13216   1.254  22.900   8.255
 6365POPC   C3A13217   1.194  22.974   7.955
 6365POPC   C4A13218   1.173  22.971   7.655
 6365POPC   C1B13219   1.152  22.694   8.555
 6365POPC   C2B13220   1.163  22.719   8.255
 6365POPC   C3B13221   1.155  22.705   7.955
 6365POPC   C4B13222   1.220  22.718   7.655
 6366POPC   NC313223  12.045  34.544   9.455
 6366POPC   PO413224  12.102  34.622   9.155
 6366POPC   GL113225  12.108  34.565   8.855
 6366POPC   GL213226  12.134  34.457   8.855
 6366POPC   C1A13227  12.073  34.599   8.555
 6366POPC   D2A13228  12.112  34.620   8.255
 6366POPC   C3A13229  12.111  34.541   7.955
 6366POPC   C4A13230  12.101  34.541   7.655
 6366POPC   C1B13231  12.122  34.387   8.555
 6366POPC   C2B13232  12.180  34.320   8.255
 6366POPC   C3B13233  12.173  34.381   7.955
 6366POPC   C4B13234  12.131  34.356   7.655
 6367POPC   NC313235  43.890  43.153   9.455
 6367POPC   PO413236  43.881  43.159   9.155
 6367POPC   GL113237  43.866  43.068   8.855
 6367POPC   GL213238  43.831  42.951   8.855
 6367POPC   C1A13239  43.910  43.130   8.555
 6367POPC   D2A13240  43.913  43.129   8.255
 6367POPC   C3A13241  43.922  43.079   7.955
 6367POPC   C4A13242  43.917  43.122   7.655
 6367POPC   C1B13243  43.853  42.914   8.555
 6367POPC   C2B13244  43.814  42.891   8.255
 6367POPC   C3B13245  43.777  42.873   7.955
 6367POPC   C4B13246  43.840  42.884   7.655
 6368POPC   NC313247  24.494  26.832   9.455
 6368POPC   PO413248  24.529  26.770   9.155
 6368POPC   GL113249  24.536  26.835   8.855
 6368POPC   GL213250  24.523  26.694   8.855
 6368POPC   C1A13251  24.459  26.821   8.555
 6368POPC   D2A13252  24.494  26.813   8.255
 6368POPC   C3A13253  24.535  26.803   7.955
 6368POPC   C4A13254  24.514  26.770   7.655
 6368POPC   C1B13255  24.490  26.524   8.555
 6368POPC   C2B13256  24.576  26.594   8.255
 6368POPC   C3B13257  24.571  26.595   7.955
 6368POPC   C4B13258  24.490  26.568   7.655
 6369POPC   NC313259   8.995  21.430   9.455
 6369POPC   PO413260   8.964  21.374   9.155
 6369POPC   GL113261   8.991  21.391   8.855
 6369POPC   GL213262   9.097  21.323   8.855
 6369POPC   C1A13263   8.966  21.344   8.555
 6369POPC   D2A13264   8.980  21.340   8.255
 6369POPC   C3A13265   8.954  21.412   7.955
 6369POPC   C4A13266   9.003  21.368   7.655
 6369POPC   C1B13267   9.177  21.272   8.555
 6369POPC   C2B13268   9.221  21.293   8.255
 6369POPC   C3B13269   9.219  21.325   7.955
 6369POPC   C4B13270   9.182  21.276   7.655
 6370POPC   NC313271  19.808  25.287   9.455
 6370POPC   PO413272  19.820  25.235   9.155
 6370POPC   GL113273  19.811  25.239   8.855
 6370POPC   GL213274  19.988  25.228   8.855
 6370POPC   C1A13275  19.832  25.299   8.555
 6370POPC   D2A13276  19.802  25.275   8.255
 6370POPC   C3A13277  19.840  25.283   7.955
 6370POPC   C4A13278  19.806  25.230   7.655
 6370POPC   C1B13279  20.028  25.204   8.555
 6370POPC   C2B13280  20.047  25.170   8.255
 6370POPC   C3B13281  20.056  25.160   7.955
 6370POPC   C4B13282  20.018  25.148   7.655
 6371POPC   NC313283  22.114   7.404   9.455
 6371POPC   PO413284  22.188   7.372   9.155
 6371POPC   GL113285  22.180   7.406   8.855
 6371POPC   GL213286  22.044   7.461   8.855
 6371POPC   C1A13287  22.149   7.429   8.555
 6371POPC   D2A13288  22.138   7.449   8.255
 6371POPC   C3A13289  22.177   7.424   7.955
 6371POPC   C4A13290  22.209   7.447   7.655
 6371POPC   C1B13291  22.020   7.629   8.555
 6371POPC   C2B13292  22.027   7.636   8.255
 6371POPC   C3B13293  21.989   7.599   7.955
 6371POPC   C4B13294  21.944   7.603   7.655
 6372POPC   NC313295  19.859  14.376   9.455
 6372POPC   PO413296  19.848  14.385   9.155
 6372POPC   GL113297  19.836  14.382   8.855
 6372POPC   GL213298  19.954  14.337   8.855
 6372POPC   C1A13299  19.790  14.432   8.555
 6372POPC   D2A13300  19.873  14.426   8.255
 6372POPC   C3A13301  19.844  14.369   7.955
 6372POPC   C4A13302  19.812  14.412   7.655
 6372POPC   C1B13303  19.959  14.186   8.555
 6372POPC   C2B13304  19.961  14.234   8.255
 6372POPC   C3B13305  19.973  14.195   7.955
 6372POPC   C4B13306  20.020  14.255   7.655
 6373POPC   NC313307  36.950   4.347   9.455
 6373POPC   PO413308  36.942   4.272   9.155
 6373POPC   GL113309  36.941   4.362   8.855
 6373POPC   GL213310  36.791   4.247   8.855
 6373POPC   C1A13311  36.919   4.324   8.555
 6373POPC   D2A13312  36.938   4.274   8.255
 6373POPC   C3A13313  36.946   4.296   7.955
 6373POPC   C4A13314  36.936   4.331   7.655
 6373POPC   C1B13315  36.728   4.124   8.555
 6373POPC   C2B13316  36.790   4.083   8.255
 6373POPC   C3B13317  36.765   4.075   7.955
 6373POPC   C4B13318  36.769   4.124   7.655
 6374POPC   NC313319   8.968  39.981   9.455
 6374POPC   PO413320   8.930  39.983   9.155
 6374POPC   GL113321   8.964  40.057   8.855
 6374POPC   GL213322   9.080  40.130   8.855
 6374POPC   C1A13323   8.979  40.051   8.555
 6374POPC   D2A13324   8.947  39.961   8.255
 6374POPC   C3A13325   8.925  39.965   7.955
 6374POPC   C4A13326   8.928  40.025   7.655
 6374POPC   C1B13327   9.202  40.133   8.555
 6374POPC   C2B13328   9.192  40.167   8.255
 6374POPC   C3B13329   9.162  40.176   7.955
 6374POPC   C4B13330   9.199  40.190   7.655
 6375POPC   NC313331   5.879  38.434   9.455
 6375POPC   PO413332   5.882  38.454   9.155
 6375POPC   GL113333   5.837  38.406   8.855
 6375POPC   GL213334   5.764  38.364   8.855
 6375POPC   C1A13335   5.825  38.457   8.555
 6375POPC   D2A13336   5.859  38.468   8.255
 6375POPC   C3A13337   5.916  38.443   7.955
 6375POPC   C4A13338   5.853  38.417   7.655
 6375POPC   C1B13339   5.601  38.358   8.555
 6375POPC   C2B13340   5.683  38.332   8.255
 6375POPC   C3B13341   5.628  38.417   7.955
 6375POPC   C4B13342   5.593  38.395   7.655
 6376POPC   NC313343  36.113  12.030   9.455
 6376POPC   PO413344  36.127  12.035   9.155
 6376POPC   GL113345  36.120  12.120   8.855
 6376POPC   GL213346  36.118  12.232   8.855
 6376POPC   C1A13347  36.082  12.098   8.555
 6376POPC   D2A13348  36.086  12.035   8.255
 6376POPC   C3A13349  36.148  12.077   7.955
 6376POPC   C4A13350  36.158  12.072   7.655
 6376POPC   C1B13351  36.223  12.335   8.555
 6376POPC   C2B13352  36.206  12.362   8.255
 6376POPC   C3B13353  36.206  12.332   7.955
 6376POPC   C4B13354  36.160  12.271   7.655
 6377POPC   NC313355  11.310  13.640   9.455
 6377POPC   PO413356  11.305  13.635   9.155
 6377POPC   GL113357  11.290  13.625   8.855
 6377POPC   GL213358  11.315  13.489   8.855
 6377POPC   C1A13359  11.252  13.663   8.555
 6377POPC   D2A13360  11.333  13.651   8.255
 6377POPC   C3A13361  11.261  13.604   7.955
 6377POPC   C4A13362  11.277  13.652   7.655
 6377POPC   C1B13363  11.365  13.403   8.555
 6377POPC   C2B13364  11.316  13.351   8.255
 6377POPC   C3B13365  11.298  13.350   7.955
 6377POPC   C4B13366  11.323  13.406   7.655
 6378POPC   NC313367   4.286   1.203   9.455
 6378POPC   PO413368   4.349   1.194   9.155
 6378POPC   GL113369   4.350   1.192   8.855
 6378POPC   GL213370   4.340   1.039   8.855
 6378POPC   C1A13371   4.304   1.183   8.555
 6378POPC   D2A13372   4.311   1.231   8.255
 6378POPC   C3A13373   4.275   1.228   7.955
 6378POPC   C4A13374   4.366   1.214   7.655
 6378POPC   C1B13375   4.292   0.920   8.555
 6378POPC   C2B13376   4.289   0.969   8.255
 6378POPC   C3B13377   4.347   0.945   7.955
 6378POPC   C4B13378   4.284   0.991   7.655
 6379POPC   NC313379  34.540  27.584   9.455
 6379POPC   PO413380  34.570  27.562   9.155
 6379POPC   GL113381  34.589  27.595   8.855
 6379POPC   GL213382  34.627  27.712   8.855
 6379POPC   C1A13383  34.610  27.611   8.555
 6379POPC   D2A13384  34.602  27.584   8.255
 6379POPC   C3A13385  34.618  27.572   7.955
 6379POPC   C4A13386  34.570  27.623   7.655
 6379POPC   C1B13387  34.736  27.811   8.555
 6379POPC   C2B13388  34.659  27.795   8.255
 6379POPC   C3B13389  34.698  27.770   7.955
 6379POPC   C4B13390  34.737  27.760   7.655
 6380POPC   NC313391  15.933  12.850   9.455
 6380POPC   PO413392  15.978  12.838   9.155
 6380POPC   GL113393  15.931  12.891   8.855
 6380POPC   GL213394  16.027  13.015   8.855
 6380POPC   C1A13395  15.956  12.894   8.555
 6380POPC   D2A13396  15.972  12.870   8.255
 6380POPC   C3A13397  16.003  12.806   7.955
 6380POPC   C4A13398  15.946  12.811   7.655
 6380POPC   C1B13399  16.066  13.059   8.555
 6380POPC   C2B13400  16.041  13.055   8.255
 6380POPC   C3B13401  16.084  13.035   7.955
 6380POPC   C4B13402  16.070  13.120   7.655
 6381POPC   NC313403  41.560  26.770   9.455
 6381POPC   PO413404  41.547  26.807   9.155
 6381POPC   GL113405  41.529  26.786   8.855
 6381POPC   GL213406  41.464  26.790   8.855
 6381POPC   C1A13407  41.519  26.797   8.555
 6381POPC   D2A13408  41.551  26.811   8.255
 6381POPC   C3A13409  41.542  26.810   7.955
 6381POPC   C4A13410  41.566  26.769   7.655
 6381POPC   C1B13411  41.297  26.731   8.555
 6381POPC   C2B13412  41.331  26.700   8.255
 6381POPC   C3B13413  41.377  26.747   7.955
 6381POPC   C4B13414  41.291  26.757   7.655
 6382POPC   NC313415  15.172  33.765   9.455
 6382POPC   PO413416  15.181  33.806   9.155
 6382POPC   GL113417  15.222  33.760   8.855
 6382POPC   GL213418  15.320  33.740   8.855
 6382POPC   C1A13419  15.188  33.818   8.555
 6382POPC   D2A13420  15.213  33.775   8.255
 6382POPC   C3A13421  15.135  33.823   7.955
 6382POPC   C4A13422  15.217  33.848   7.655
 6382POPC   C1B13423  15.383  33.662   8.555
 6382POPC   C2B13424  15.330  33.598   8.255
 6382POPC   C3B13425  15.353  33.644   7.955
 6382POPC   C4B13426  15.332  33.598   7.655
 6383POPC   NC313427  42.297  43.081   9.455
 6383POPC   PO413428  42.339  43.079   9.155
 6383POPC   GL113429  42.324  43.065   8.855
 6383POPC   GL213430  42.240  43.029   8.855
 6383POPC   C1A13431  42.315  43.139   8.555
 6383POPC   D2A13432  42.357  43.151   8.255
 6383POPC   C3A13433  42.308  43.064   7.955
 6383POPC   C4A13434  42.287  43.064   7.655
 6383POPC   C1B13435  42.101  43.012   8.555
 6383POPC   C2B13436  42.069  43.004   8.255
 6383POPC   C3B13437  42.149  43.054   7.955
 6383POPC   C4B13438  42.134  43.039   7.655
 6384POPC   NC313439  43.847  23.712   9.455
 6384POPC   PO413440  43.924  23.737   9.155
 6384POPC   GL113441  43.906  23.757   8.855
 6384POPC   GL213442  43.721  23.706   8.855
 6384POPC   C1A13443  43.923  23.700   8.555
 6384POPC   D2A13444  43.916  23.668   8.255
 6384POPC   C3A13445  43.912  23.691   7.955
 6384POPC   C4A13446  43.878  23.679   7.655
 6384POPC   C1B13447  43.598  23.803   8.555
 6384POPC   C2B13448  43.666  23.805   8.255
 6384POPC   C3B13449  43.639  23.745   7.955
 6384POPC   C4B13450  43.602  23.758   7.655
 6385POPC   NC313451   3.586  19.047   9.455
 6385POPC   PO413452   3.501  19.018   9.155
 6385POPC   GL113453   3.501  19.024   8.855
 6385POPC   GL213454   3.672  19.082   8.855
 6385POPC   C1A13455   3.543  19.079   8.555
 6385POPC   D2A13456   3.512  19.081   8.255
 6385POPC   C3A13457   3.548  19.108   7.955
 6385POPC   C4A13458   3.568  19.061   7.655
 6385POPC   C1B13459   3.763  19.169   8.555
 6385POPC   C2B13460   3.767  19.129   8.255
 6385POPC   C3B13461   3.739  19.202   7.955
 6385POPC   C4B13462   3.740  19.152   7.655
 6386POPC   NC313463  40.010  15.163   9.455
 6386POPC   PO413464  39.974  15.214   9.155
 6386POPC   GL113465  40.053  15.223   8.855
 6386POPC   GL213466  39.912  15.249   8.855
 6386POPC   C1A13467  40.027  15.132   8.555
 6386POPC   D2A13468  39.988  15.227   8.255
 6386POPC   C3A13469  39.984  15.159   7.955
 6386POPC   C4A13470  40.036  15.134   7.655
 6386POPC   C1B13471  39.785  15.303   8.555
 6386POPC   C2B13472  39.752  15.292   8.255
 6386POPC   C3B13473  39.799  15.263   7.955
 6386POPC   C4B13474  39.825  15.320   7.655
 6387POPC   NC313475  19.013   2.027   9.455
 6387POPC   PO413476  19.108   1.941   9.155
 6387POPC   GL113477  19.104   2.021   8.855
 6387POPC   GL213478  18.981   2.058   8.855
 6387POPC   C1A13479  19.014   2.019   8.555
 6387POPC   D2A13480  19.073   2.038   8.255
 6387POPC   C3A13481  19.064   2.031   7.955
 6387POPC   C4A13482  19.012   1.948   7.655
 6387POPC   C1B13483  18.987   2.243   8.555
 6387POPC   C2B13484  18.948   2.230   8.255
 6387POPC   C3B13485  18.944   2.253   7.955
 6387POPC   C4B13486  18.941   2.213   7.655
 6388POPC   NC313487  36.157   3.518   9.455
 6388POPC   PO413488  36.113   3.524   9.155
 6388POPC   GL113489  36.108   3.569   8.855
 6388POPC   GL213490  36.246   3.626   8.855
 6388POPC   C1A13491  36.110   3.522   8.555
 6388POPC   D2A13492  36.114   3.553   8.255
 6388POPC   C3A13493  36.147   3.501   7.955
 6388POPC   C4A13494  36.153   3.548   7.655
 6388POPC   C1B13495  36.337   3.596   8.555
 6388POPC   C2B13496  36.350   3.666   8.255
 6388POPC   C3B13497  36.393   3.607   7.955
 6388POPC   C4B13498  36.382   3.620   7.655
 6389POPC   NC313499  39.201  43.894   9.455
 6389POPC   PO413500  39.230  43.842   9.155
 6389POPC   GL113501  39.218  43.888   8.855
 6389POPC   GL213502  39.102  43.974   8.855
 6389POPC   C1A13503  39.264  43.846   8.555
 6389POPC   D2A13504  39.279  43.917   8.255
 6389POPC   C3A13505  39.217  43.913   7.955
 6389POPC   C4A13506  39.199  43.839   7.655
 6389POPC   C1B13507  39.043  44.117   8.555
 6389POPC   C2B13508  39.082  44.100   8.255
 6389POPC   C3B13509  39.049  44.058   7.955
 6389POPC   C4B13510  39.066  44.038   7.655
 6390POPC   NC313511  19.064  24.526   9.455
 6390POPC   PO413512  19.094  24.493   9.155
 6390POPC   GL113513  19.067  24.467   8.855
 6390POPC   GL213514  19.071  24.339   8.855
 6390POPC   C1A13515  19.051  24.497   8.555
 6390POPC   D2A13516  19.043  24.532   8.255
 6390POPC   C3A13517  19.039  24.465   7.955
 6390POPC   C4A13518  19.018  24.512   7.655
 6390POPC   C1B13519  19.155  24.250   8.555
 6390POPC   C2B13520  19.147  24.314   8.255
 6390POPC   C3B13521  19.152  24.301   7.955
 6390POPC   C4B13522  19.208  24.278   7.655
 6391POPC   NC313523  43.926  26.063   9.455
 6391POPC   PO413524  43.891  26.079   9.155
 6391POPC   GL113525  43.914  26.062   8.855
 6391POPC   GL213526  43.896  25.962   8.855
 6391POPC   C1A13527  43.934  26.011   8.555
 6391POPC   D2A13528  43.858  26.066   8.255
 6391POPC   C3A13529  43.894  26.010   7.955
 6391POPC   C4A13530  43.917  26.048   7.655
 6391POPC   C1B13531  43.840  25.795   8.555
 6391POPC   C2B13532  43.838  25.767   8.255
 6391POPC   C3B13533  43.850  25.828   7.955
 6391POPC   C4B13534  43.822  25.761   7.655
 6392POPC   NC313535  31.496  14.432   9.455
 6392POPC   PO413536  31.465  14.374   9.155
 6392POPC   GL113537  31.481  14.373   8.855
 6392POPC   GL213538  31.492  14.492   8.855
 6392POPC   C1A13539  31.509  14.379   8.555
 6392POPC   D2A13540  31.479  14.369   8.255
 6392POPC   C3A13541  31.471  14.368   7.955
 6392POPC   C4A13542  31.465  14.425   7.655
 6392POPC   C1B13543  31.416  14.615   8.555
 6392POPC   C2B13544  31.465  14.678   8.255
 6392POPC   C3B13545  31.386  14.678   7.955
 6392POPC   C4B13546  31.389  14.686   7.655
 6393POPC   NC313547  41.515   1.948   9.455
 6393POPC   PO413548  41.587   2.027   9.155
 6393POPC   GL113549  41.602   1.958   8.855
 6393POPC   GL213550  41.658   1.894   8.855
 6393POPC   C1A13551  41.522   2.019   8.555
 6393POPC   D2A13552  41.583   2.014   8.255
 6393POPC   C3A13553  41.591   2.026   7.955
 6393POPC   C4A13554  41.571   1.963   7.655
 6393POPC   C1B13555  41.661   1.791   8.555
 6393POPC   C2B13556  41.695   1.747   8.255
 6393POPC   C3B13557  41.681   1.780   7.955
 6393POPC   C4B13558  41.696   1.818   7.655
 6394POPC   NC313559  32.272  13.642   9.455
 6394POPC   PO413560  32.222  13.582   9.155
 6394POPC   GL113561  32.250  13.625   8.855
 6394POPC   GL213562  32.248  13.527   8.855
 6394POPC   C1A13563  32.205  13.607   8.555
 6394POPC   D2A13564  32.220  13.660   8.255
 6394POPC   C3A13565  32.228  13.604   7.955
 6394POPC   C4A13566  32.230  13.657   7.655
 6394POPC   C1B13567  32.252  13.365   8.555
 6394POPC   C2B13568  32.226  13.398   8.255
 6394POPC   C3B13569  32.228  13.372   7.955
 6394POPC   C4B13570  32.242  13.402   7.655
 6395POPC   NC313571  39.246  21.359   9.455
 6395POPC   PO413572  39.222  21.337   9.155
 6395POPC   GL113573  39.231  21.418   8.855
 6395POPC   GL213574  39.147  21.328   8.855
 6395POPC   C1A13575  39.239  21.362   8.555
 6395POPC   D2A13576  39.249  21.416   8.255
 6395POPC   C3A13577  39.263  21.389   7.955
 6395POPC   C4A13578  39.275  21.435   7.655
 6395POPC   C1B13579  39.036  21.185   8.555
 6395POPC   C2B13580  39.081  21.163   8.255
 6395POPC   C3B13581  39.012  21.203   7.955
 6395POPC   C4B13582  39.087  21.164   7.655
 6396POPC   NC313583   4.337  37.665   9.455
 6396POPC   PO413584   4.357  37.637   9.155
 6396POPC   GL113585   4.294  37.676   8.855
 6396POPC   GL213586   4.421  37.577   8.855
 6396POPC   C1A13587   4.359  37.715   8.555
 6396POPC   D2A13588   4.320  37.647   8.255
 6396POPC   C3A13589   4.271  37.663   7.955
 6396POPC   C4A13590   4.340  37.685   7.655
 6396POPC   C1B13591   4.528  37.498   8.555
 6396POPC   C2B13592   4.484  37.452   8.255
 6396POPC   C3B13593   4.526  37.476   7.955
 6396POPC   C4B13594   4.515  37.509   7.655
 6397POPC   NC313595  40.012  19.094   9.455
 6397POPC   PO413596  39.968  19.100   9.155
 6397POPC   GL113597  40.026  19.020   8.855
 6397POPC   GL213598  39.933  18.893   8.855
 6397POPC   C1A13599  40.022  19.088   8.555
 6397POPC   D2A13600  39.981  19.011   8.255
 6397POPC   C3A13601  39.991  19.013   7.955
 6397POPC   C4A13602  39.969  19.021   7.655
 6397POPC   C1B13603  39.900  18.836   8.555
 6397POPC   C2B13604  39.932  18.827   8.255
 6397POPC   C3B13605  39.883  18.810   7.955
 6397POPC   C4B13606  39.911  18.821   7.655
 6398POPC   NC313607  23.684   8.981   9.455
 6398POPC   PO413608  23.724   8.954   9.155
 6398POPC   GL113609  23.675   8.962   8.855
 6398POPC   GL213610  23.609   8.996   8.855
 6398POPC   C1A13611  23.709   9.012   8.555
 6398POPC   D2A13612  23.716   8.975   8.255
 6398POPC   C3A13613  23.689   8.980   7.955
 6398POPC   C4A13614  23.684   8.945   7.655
 6398POPC   C1B13615  23.547   9.145   8.555
 6398POPC   C2B13616  23.472   9.120   8.255
 6398POPC   C3B13617  23.476   9.146   7.955
 6398POPC   C4B13618  23.485   9.076   7.655
 6399POPC   NC313619  12.879   8.959   9.455
 6399POPC   PO413620  12.824   9.020   9.155
 6399POPC   GL113621  12.845   8.954   8.855
 6399POPC   GL213622  12.916   9.006   8.855
 6399POPC   C1A13623  12.839   8.949   8.555
 6399POPC   D2A13624  12.806   9.020   8.255
 6399POPC   C3A13625  12.874   8.938   7.955
 6399POPC   C4A13626  12.878   8.964   7.655
 6399POPC   C1B13627  13.064   9.125   8.555
 6399POPC   C2B13628  13.025   9.135   8.255
 6399POPC   C3B13629  13.069   9.043   7.955
 6399POPC   C4B13630  13.049   9.133   7.655
 6400POPC   NC313631  11.324  34.545   9.455
 6400POPC   PO413632  11.308  34.545   9.155
 6400POPC   GL113633  11.312  34.569   8.855
 6400POPC   GL213634  11.393  34.633   8.855
 6400POPC   C1A13635  11.345  34.591   8.555
 6400POPC   D2A13636  11.348  34.618   8.255
 6400POPC   C3A13637  11.257  34.569   7.955
 6400POPC   C4A13638  11.330  34.562   7.655
 6400POPC   C1B13639  11.472  34.691   8.555
 6400POPC   C2B13640  11.496  34.729   8.255
 6400POPC   C3B13641  11.471  34.704   7.955
 6400POPC   C4B13642  11.528  34.660   7.655
 6401POPC   NC313643  33.786  27.567   9.455
 6401POPC   PO413644  33.761  27.561   9.155
 6401POPC   GL113645  33.789  27.571   8.855
 6401POPC   GL213646  33.955  27.622   8.855
 6401POPC   C1A13647  33.804  27.565   8.555
 6401POPC   D2A13648  33.790  27.607   8.255
 6401POPC   C3A13649  33.805  27.554   7.955
 6401POPC   C4A13650  33.839  27.577   7.655
 6401POPC   C1B13651  34.030  27.661   8.555
 6401POPC   C2B13652  34.074  27.678   8.255
 6401POPC   C3B13653  34.071  27.630   7.955
 6401POPC   C4B13654  34.024  27.687   7.655
 6402POPC   NC313655  22.171  44.678   9.455
 6402POPC   PO413656  22.113  44.672   9.155
 6402POPC   GL113657  22.162  44.699   8.855
 6402POPC   GL213658  22.277  44.588   8.855
 6402POPC   C1A13659  22.199  44.700   8.555
 6402POPC   D2A13660  22.175  44.638   8.255
 6402POPC   C3A13661  22.181  44.659   7.955
 6402POPC   C4A13662  22.178  44.677   7.655
 6402POPC   C1B13663  22.309  44.449   8.555
 6402POPC   C2B13664  22.393  44.488   8.255
 6402POPC   C3B13665  22.301  44.531   7.955
 6402POPC   C4B13666  22.358  44.536   7.655
 6403POPC   NC313667   2.015  22.210   9.455
 6403POPC   PO413668   1.990  22.175   9.155
 6403POPC   GL113669   2.034  22.122   8.855
 6403POPC   GL213670   2.028  22.287   8.855
 6403POPC   C1A13671   2.009  22.195   8.555
 6403POPC   D2A13672   1.981  22.192   8.255
 6403POPC   C3A13673   2.031  22.147   7.955
 6403POPC   C4A13674   1.991  22.210   7.655
 6403POPC   C1B13675   2.001  22.378   8.555
 6403POPC   C2B13676   1.996  22.364   8.255
 6403POPC   C3B13677   2.000  22.420   7.955
 6403POPC   C4B13678   2.050  22.448   7.655
 6404POPC   NC313679   9.021  38.425   9.455
 6404POPC   PO413680   8.950  38.495   9.155
 6404POPC   GL113681   8.999  38.487   8.855
 6404POPC   GL213682   9.112  38.503   8.855
 6404POPC   C1A13683   8.992  38.464   8.555
 6404POPC   D2A13684   8.998  38.436   8.255
 6404POPC   C3A13685   8.983  38.501   7.955
 6404POPC   C4A13686   8.929  38.466   7.655
 6404POPC   C1B13687   9.236  38.496   8.555
 6404POPC   C2B13688   9.233  38.479   8.255
 6404POPC   C3B13689   9.218  38.548   7.955
 6404POPC   C4B13690   9.188  38.555   7.655
 6405POPC   NC313691  26.833  33.810   9.455
 6405POPC   PO413692  26.843  33.759   9.155
 6405POPC   GL113693  26.799  33.814   8.855
 6405POPC   GL213694  26.696  33.718   8.855
 6405POPC   C1A13695  26.811  33.809   8.555
 6405POPC   D2A13696  26.772  33.802   8.255
 6405POPC   C3A13697  26.804  33.830   7.955
 6405POPC   C4A13698  26.818  33.827   7.655
 6405POPC   C1B13699  26.637  33.614   8.555
 6405POPC   C2B13700  26.699  33.576   8.255
 6405POPC   C3B13701  26.675  33.617   7.955
 6405POPC   C4B13702  26.680  33.586   7.655
 6406POPC   NC313703  29.117   2.788   9.455
 6406POPC   PO413704  29.185   2.793   9.155
 6406POPC   GL113705  29.170   2.718   8.855
 6406POPC   GL213706  29.306   2.781   8.855
 6406POPC   C1A13707  29.168   2.792   8.555
 6406POPC   D2A13708  29.123   2.726   8.255
 6406POPC   C3A13709  29.098   2.744   7.955
 6406POPC   C4A13710  29.107   2.722   7.655
 6406POPC   C1B13711  29.423   2.830   8.555
 6406POPC   C2B13712  29.392   2.797   8.255
 6406POPC   C3B13713  29.378   2.834   7.955
 6406POPC   C4B13714  29.370   2.823   7.655
 6407POPC   NC313715  36.087  43.079   9.455
 6407POPC   PO413716  36.168  43.096   9.155
 6407POPC   GL113717  36.138  43.067   8.855
 6407POPC   GL213718  36.276  43.065   8.855
 6407POPC   C1A13719  36.090  43.103   8.555
 6407POPC   D2A13720  36.168  43.141   8.255
 6407POPC   C3A13721  36.172  43.074   7.955
 6407POPC   C4A13722  36.082  43.076   7.655
 6407POPC   C1B13723  36.327  42.979   8.555
 6407POPC   C2B13724  36.382  42.995   8.255
 6407POPC   C3B13725  36.393  43.023   7.955
 6407POPC   C4B13726  36.308  42.955   7.655
 6408POPC   NC313727  22.983  27.597   9.455
 6408POPC   PO413728  22.904  27.547   9.155
 6408POPC   GL113729  22.972  27.564   8.855
 6408POPC   GL213730  22.840  27.509   8.855
 6408POPC   C1A13731  22.900  27.545   8.555
 6408POPC   D2A13732  22.936  27.554   8.255
 6408POPC   C3A13733  22.929  27.555   7.955
 6408POPC   C4A13734  22.889  27.603   7.655
 6408POPC   C1B13735  22.851  27.324   8.555
 6408POPC   C2B13736  22.842  27.389   8.255
 6408POPC   C3B13737  22.804  27.327   7.955
 6408POPC   C4B13738  22.798  27.416   7.655
 6409POPC   NC313739  17.542   9.019   9.455
 6409POPC   PO413740  17.494   8.927   9.155
 6409POPC   GL113741  17.473   9.013   8.855
 6409POPC   GL213742  17.354   9.043   8.855
 6409POPC   C1A13743  17.547   9.011   8.555
 6409POPC   D2A13744  17.534   8.986   8.255
 6409POPC   C3A13745  17.460   9.004   7.955
 6409POPC   C4A13746  17.473   8.979   7.655
 6409POPC   C1B13747  17.264   9.079   8.555
 6409POPC   C2B13748  17.319   9.088   8.255
 6409POPC   C3B13749  17.283   9.105   7.955
 6409POPC   C4B13750  17.282   9.051   7.655
 6410POPC   NC313751  41.549  21.413   9.455
 6410POPC   PO413752  41.561  21.355   9.155
 6410POPC   GL113753  41.510  21.337   8.855
 6410POPC   GL213754  41.631  21.478   8.855
 6410POPC   C1A13755  41.523  21.374   8.555
 6410POPC   D2A13756  41.514  21.344   8.255
 6410POPC   C3A13757  41.557  21.387   7.955
 6410POPC   C4A13758  41.570  21.417   7.655
 6410POPC   C1B13759  41.661  21.659   8.555
 6410POPC   C2B13760  41.650  21.570   8.255
 6410POPC   C3B13761  41.683  21.650   7.955
 6410POPC   C4B13762  41.701  21.575   7.655
 6411POPC   NC313763  37.647  14.370   9.455
 6411POPC   PO413764  37.648  14.441   9.155
 6411POPC   GL113765  37.640  14.355   8.855
 6411POPC   GL213766  37.575  14.460   8.855
 6411POPC   C1A13767  37.658  14.398   8.555
 6411POPC   D2A13768  37.656  14.439   8.255
 6411POPC   C3A13769  37.669  14.441   7.955
 6411POPC   C4A13770  37.691  14.358   7.655
 6411POPC   C1B13771  37.391  14.487   8.555
 6411POPC   C2B13772  37.469  14.511   8.255
 6411POPC   C3B13773  37.438  14.483   7.955
 6411POPC   C4B13774  37.389  14.426   7.655
 6412POPC   NC313775  42.374  12.834   9.455
 6412POPC   PO413776  42.318  12.810   9.155
 6412POPC   GL113777  42.384  12.848   8.855
 6412POPC   GL213778  42.363  13.008   8.855
 6412POPC   C1A13779  42.349  12.851   8.555
 6412POPC   D2A13780  42.336  12.852   8.255
 6412POPC   C3A13781  42.325  12.894   7.955
 6412POPC   C4A13782  42.357  12.871   7.655
 6412POPC   C1B13783  42.432  13.107   8.555
 6412POPC   C2B13784  42.430  13.077   8.255
 6412POPC   C3B13785  42.402  13.092   7.955
 6412POPC   C4B13786  42.424  13.121   7.655
 6413POPC   NC313787  39.979  21.379   9.455
 6413POPC   PO413788  40.001  21.365   9.155
 6413POPC   GL113789  39.987  21.406   8.855
 6413POPC   GL213790  40.144  21.405   8.855
 6413POPC   C1A13791  39.999  21.426   8.555
 6413POPC   D2A13792  40.052  21.381   8.255
 6413POPC   C3A13793  39.992  21.351   7.955
 6413POPC   C4A13794  39.967  21.338   7.655
 6413POPC   C1B13795  40.288  21.420   8.555
 6413POPC   C2B13796  40.265  21.448   8.255
 6413POPC   C3B13797  40.228  21.424   7.955
 6413POPC   C4B13798  40.224  21.413   7.655
 6414POPC   NC313799  12.882  31.450   9.455
 6414POPC   PO413800  12.838  31.504   9.155
 6414POPC   GL113801  12.811  31.517   8.855
 6414POPC   GL213802  12.951  31.576   8.855
 6414POPC   C1A13803  12.877  31.472   8.555
 6414POPC   D2A13804  12.824  31.459   8.255
 6414POPC   C3A13805  12.879  31.509   7.955
 6414POPC   C4A13806  12.829  31.465   7.655
 6414POPC   C1B13807  12.984  31.648   8.555
 6414POPC   C2B13808  12.934  31.670   8.255
 6414POPC   C3B13809  13.010  31.726   7.955
 6414POPC   C4B13810  12.997  31.692   7.655
 6415POPC   NC313811  13.590  28.415   9.455
 6415POPC   PO413812  13.629  28.404   9.155
 6415POPC   GL113813  13.637  28.394   8.855
 6415POPC   GL213814  13.551  28.300   8.855
 6415POPC   C1A13815  13.676  28.337   8.555
 6415POPC   D2A13816  13.608  28.329   8.255
 6415POPC   C3A13817  13.656  28.356   7.955
 6415POPC   C4A13818  13.597  28.333   7.655
 6415POPC   C1B13819  13.460  28.178   8.555
 6415POPC   C2B13820  13.469  28.265   8.255
 6415POPC   C3B13821  13.471  28.243   7.955
 6415POPC   C4B13822  13.429  28.243   7.655
 6416POPC   NC313823  11.266  24.520   9.455
 6416POPC   PO413824  11.276  24.452   9.155
 6416POPC   GL113825  11.348  24.512   8.855
 6416POPC   GL213826  11.281  24.641   8.855
 6416POPC   C1A13827  11.259  24.478   8.555
 6416POPC   D2A13828  11.270  24.505   8.255
 6416POPC   C3A13829  11.261  24.448   7.955
 6416POPC   C4A13830  11.271  24.517   7.655
 6416POPC   C1B13831  11.234  24.713   8.555
 6416POPC   C2B13832  11.287  24.691   8.255
 6416POPC   C3B13833  11.292  24.784   7.955
 6416POPC   C4B13834  11.270  24.695   7.655
 6417POPC   NC313835  36.867  43.904   9.455
 6417POPC   PO413836  36.935  43.857   9.155
 6417POPC   GL113837  36.913  43.928   8.855
 6417POPC   GL213838  36.965  43.958   8.855
 6417POPC   C1A13839  36.889  43.838   8.555
 6417POPC   D2A13840  36.922  43.884   8.255
 6417POPC   C3A13841  36.869  43.923   7.955
 6417POPC   C4A13842  36.898  43.855   7.655
 6417POPC   C1B13843  37.022  44.151   8.555
 6417POPC   C2B13844  36.957  44.083   8.255
 6417POPC   C3B13845  36.977  44.116   7.955
 6417POPC   C4B13846  37.021  44.096   7.655
 6418POPC   NC313847  22.114  31.464   9.455
 6418POPC   PO413848  22.158  31.432   9.155
 6418POPC   GL113849  22.194  31.510   8.855
 6418POPC   GL213850  22.016  31.486   8.855
 6418POPC   C1A13851  22.134  31.459   8.555
 6418POPC   D2A13852  22.128  31.446   8.255
 6418POPC   C3A13853  22.211  31.487   7.955
 6418POPC   C4A13854  22.180  31.467   7.655
 6418POPC   C1B13855  21.929  31.388   8.555
 6418POPC   C2B13856  21.918  31.461   8.255
 6418POPC   C3B13857  21.910  31.401   7.955
 6418POPC   C4B13858  21.892  31.388   7.655
 6419POPC   NC313859   1.255  29.881   9.455
 6419POPC   PO413860   1.218  29.913   9.155
 6419POPC   GL113861   1.233  29.889   8.855
 6419POPC   GL213862   1.168  29.825   8.855
 6419POPC   C1A13863   1.194  29.945   8.555
 6419POPC   D2A13864   1.216  29.902   8.255
 6419POPC   C3A13865   1.194  29.873   7.955
 6419POPC   C4A13866   1.224  29.952   7.655
 6419POPC   C1B13867   1.056  29.737   8.555
 6419POPC   C2B13868   1.006  29.737   8.255
 6419POPC   C3B13869   1.074  29.737   7.955
 6419POPC   C4B13870   0.994  29.765   7.655
 6420POPC   NC313871  33.042  13.628   9.455
 6420POPC   PO413872  33.065  13.665   9.155
 6420POPC   GL113873  33.003  13.633   8.855
 6420POPC   GL213874  32.977  13.762   8.855
 6420POPC   C1A13875  33.036  13.670   8.555
 6420POPC   D2A13876  33.074  13.581   8.255
 6420POPC   C3A13877  33.069  13.626   7.955
 6420POPC   C4A13878  33.061  13.619   7.655
 6420POPC   C1B13879  32.985  13.870   8.555
 6420POPC   C2B13880  32.953  13.908   8.255
 6420POPC   C3B13881  32.972  13.904   7.955
 6420POPC   C4B13882  32.920  13.868   7.655
 6421POPC   NC313883  14.377  12.047   9.455
 6421POPC   PO413884  14.396  12.087   9.155
 6421POPC   GL113885  14.425  12.053   8.855
 6421POPC   GL213886  14.266  12.126   8.855
 6421POPC   C1A13887  14.370  12.035   8.555
 6421POPC   D2A13888  14.426  12.071   8.255
 6421POPC   C3A13889  14.377  12.120   7.955
 6421POPC   C4A13890  14.428  12.042   7.655
 6421POPC   C1B13891  14.107  12.108   8.555
 6421POPC   C2B13892  14.114  12.080   8.255
 6421POPC   C3B13893  14.122  12.112   7.955
 6421POPC   C4B13894  14.168  12.098   7.655
 6422POPC   NC313895  15.913  30.682   9.455
 6422POPC   PO413896  15.957  30.663   9.155
 6422POPC   GL113897  15.953  30.673   8.855
 6422POPC   GL213898  15.907  30.612   8.855
 6422POPC   C1A13899  15.992  30.657   8.555
 6422POPC   D2A13900  15.909  30.696   8.255
 6422POPC   C3A13901  15.946  30.685   7.955
 6422POPC   C4A13902  15.917  30.729   7.655
 6422POPC   C1B13903  15.847  30.488   8.555
 6422POPC   C2B13904  15.851  30.472   8.255
 6422POPC   C3B13905  15.856  30.497   7.955
 6422POPC   C4B13906  15.867  30.439   7.655
 6423POPC   NC313907  39.239  31.482   9.455
 6423POPC   PO413908  39.240  31.463   9.155
 6423POPC   GL113909  39.208  31.506   8.855
 6423POPC   GL213910  39.173  31.396   8.855
 6423POPC   C1A13911  39.223  31.452   8.555
 6423POPC   D2A13912  39.190  31.456   8.255
 6423POPC   C3A13913  39.262  31.433   7.955
 6423POPC   C4A13914  39.256  31.463   7.655
 6423POPC   C1B13915  39.059  31.278   8.555
 6423POPC   C2B13916  39.091  31.296   8.255
 6423POPC   C3B13917  39.122  31.315   7.955
 6423POPC   C4B13918  39.038  31.237   7.655
 6424POPC   NC313919  43.890  18.318   9.455
 6424POPC   PO413920  43.881  18.252   9.155
 6424POPC   GL113921  43.852  18.241   8.855
 6424POPC   GL213922  43.744  18.191   8.855
 6424POPC   C1A13923  43.859  18.331   8.555
 6424POPC   D2A13924  43.841  18.293   8.255
 6424POPC   C3A13925  43.856  18.310   7.955
 6424POPC   C4A13926  43.844  18.322   7.655
 6424POPC   C1B13927  43.702  18.169   8.555
 6424POPC   C2B13928  43.647  18.209   8.255
 6424POPC   C3B13929  43.703  18.132   7.955
 6424POPC   C4B13930  43.622  18.199   7.655
 6425POPC   NC313931  40.029  12.046   9.455
 6425POPC   PO413932  40.049  12.122   9.155
 6425POPC   GL113933  39.983  12.109   8.855
 6425POPC   GL213934  39.998  11.943   8.855
 6425POPC   C1A13935  40.047  12.116   8.555
 6425POPC   D2A13936  40.007  12.106   8.255
 6425POPC   C3A13937  40.043  12.097   7.955
 6425POPC   C4A13938  39.973  12.115   7.655
 6425POPC   C1B13939  40.095  11.851   8.555
 6425POPC   C2B13940  40.108  11.848   8.255
 6425POPC   C3B13941  40.048  11.810   7.955
 6425POPC   C4B13942  40.103  11.837   7.655
 6426POPC   NC313943  15.980  43.915   9.455
 6426POPC   PO413944  15.948  43.868   9.155
 6426POPC   GL113945  15.924  43.870   8.855
 6426POPC   GL213946  15.871  43.877   8.855
 6426POPC   C1A13947  15.911  43.881   8.555
 6426POPC   D2A13948  15.930  43.848   8.255
 6426POPC   C3A13949  15.959  43.916   7.955
 6426POPC   C4A13950  15.938  43.894   7.655
 6426POPC   C1B13951  15.708  44.009   8.555
 6426POPC   C2B13952  15.709  43.974   8.255
 6426POPC   C3B13953  15.742  43.994   7.955
 6426POPC   C4B13954  15.723  44.005   7.655
 6427POPC   NC313955  29.900   8.963   9.455
 6427POPC   PO413956  29.954   8.926   9.155
 6427POPC   GL113957  29.970   9.000   8.855
 6427POPC   GL213958  29.853   8.931   8.855
 6427POPC   C1A13959  29.941   8.978   8.555
 6427POPC   D2A13960  29.890   9.005   8.255
 6427POPC   C3A13961  29.912   8.938   7.955
 6427POPC   C4A13962  29.946   8.959   7.655
 6427POPC   C1B13963  29.665   8.896   8.555
 6427POPC   C2B13964  29.710   8.870   8.255
 6427POPC   C3B13965  29.660   8.848   7.955
 6427POPC   C4B13966  29.672   8.910   7.655
 6428POPC   NC313967  36.141  34.623   9.455
 6428POPC   PO413968  36.088  34.541   9.155
 6428POPC   GL113969  36.122  34.532   8.855
 6428POPC   GL213970  36.202  34.653   8.855
 6428POPC   C1A13971  36.093  34.543   8.555
 6428POPC   D2A13972  36.170  34.602   8.255
 6428POPC   C3A13973  36.099  34.559   7.955
 6428POPC   C4A13974  36.139  34.623   7.655
 6428POPC   C1B13975  36.301  34.788   8.555
 6428POPC   C2B13976  36.268  34.702   8.255
 6428POPC   C3B13977  36.274  34.716   7.955
 6428POPC   C4B13978  36.268  34.733   7.655
 6429POPC   NC313979  19.846  32.208   9.455
 6429POPC   PO413980  19.830  32.263   9.155
 6429POPC   GL113981  19.802  32.279   8.855
 6429POPC   GL213982  19.811  32.354   8.855
 6429POPC   C1A13983  19.816  32.211   8.555
 6429POPC   D2A13984  19.883  32.271   8.255
 6429POPC   C3A13985  19.843  32.214   7.955
 6429POPC   C4A13986  19.798  32.214   7.655
 6429POPC   C1B13987  19.770  32.486   8.555
 6429POPC   C2B13988  19.770  32.484   8.255
 6429POPC   C3B13989  19.727  32.488   7.955
 6429POPC   C4B13990  19.777  32.527   7.655
 6430POPC   NC313991  30.701   9.714   9.455
 6430POPC   PO413992  30.700   9.719   9.155
 6430POPC   GL113993  30.717   9.796   8.855
 6430POPC   GL213994  30.688   9.587   8.855
 6430POPC   C1A13995  30.733   9.765   8.555
 6430POPC   D2A13996  30.724   9.767   8.255
 6430POPC   C3A13997  30.695   9.783   7.955
 6430POPC   C4A13998  30.724   9.714   7.655
 6430POPC   C1B13999  30.574   9.486   8.555
 6430POPC   C2B14000  30.638   9.478   8.255
 6430POPC   C3B14001  30.652   9.469   7.955
 6430POPC   C4B14002  30.583   9.481   7.655
 6431POPC   NC314003   6.641  14.398   9.455
 6431POPC   PO414004   6.654  14.425   9.155
 6431POPC   GL114005   6.634  14.357   8.855
 6431POPC   GL214006   6.587  14.333   8.855
 6431POPC   C1A14007   6.634  14.379   8.555
 6431POPC   D2A14008   6.691  14.447   8.255
 6431POPC   C3A14009   6.599  14.364   7.955
 6431POPC   C4A14010   6.614  14.440   7.655
 6431POPC   C1B14011   6.480  14.227   8.555
 6431POPC   C2B14012   6.412  14.228   8.255
 6431POPC   C3B14013   6.455  14.220   7.955
 6431POPC   C4B14014   6.474  14.209   7.655
 6432POPC   NC314015  11.330  19.052   9.455
 6432POPC   PO414016  11.325  19.052   9.155
 6432POPC   GL114017  11.307  19.102   8.855
 6432POPC   GL214018  11.171  19.023   8.855
 6432POPC   C1A14019  11.272  19.070   8.555
 6432POPC   D2A14020  11.313  19.030   8.255
 6432POPC   C3A14021  11.333  19.058   7.955
 6432POPC   C4A14022  11.339  19.084   7.655
 6432POPC   C1B14023  11.022  19.005   8.555
 6432POPC   C2B14024  11.061  19.004   8.255
 6432POPC   C3B14025  11.046  19.010   7.955
 6432POPC   C4B14026  11.057  19.022   7.655
 6433POPC   NC314027   5.048   5.891   9.455
 6433POPC   PO414028   5.059   5.855   9.155
 6433POPC   GL114029   5.077   5.898   8.855
 6433POPC   GL214030   5.249   5.873   8.855
 6433POPC   C1A14031   5.124   5.832   8.555
 6433POPC   D2A14032   5.103   5.860   8.255
 6433POPC   C3A14033   5.132   5.905   7.955
 6433POPC   C4A14034   5.065   5.855   7.655
 6433POPC   C1B14035   5.316   5.895   8.555
 6433POPC   C2B14036   5.388   5.866   8.255
 6433POPC   C3B14037   5.347   5.898   7.955
 6433POPC   C4B14038   5.325   5.866   7.655
 6434POPC   NC314039  36.130  26.033   9.455
 6434POPC   PO414040  36.091  26.036   9.155
 6434POPC   GL114041  36.088  26.033   8.855
 6434POPC   GL214042  36.138  26.165   8.855
 6434POPC   C1A14043  36.101  26.069   8.555
 6434POPC   D2A14044  36.168  26.053   8.255
 6434POPC   C3A14045  36.092  26.057   7.955
 6434POPC   C4A14046  36.117  26.068   7.655
 6434POPC   C1B14047  36.201  26.293   8.555
 6434POPC   C2B14048  36.147  26.243   8.255
 6434POPC   C3B14049  36.163  26.315   7.955
 6434POPC   C4B14050  36.200  26.246   7.655
 6435POPC   NC314051  18.308  37.634   9.455
 6435POPC   PO414052  18.263  37.696   9.155
 6435POPC   GL114053  18.301  37.640   8.855
 6435POPC   GL214054  18.310  37.783   8.855
 6435POPC   C1A14055  18.309  37.712   8.555
 6435POPC   D2A14056  18.313  37.663   8.255
 6435POPC   C3A14057  18.250  37.684   7.955
 6435POPC   C4A14058  18.244  37.630   7.655
 6435POPC   C1B14059  18.368  37.896   8.555
 6435POPC   C2B14060  18.372  37.930   8.255
 6435POPC   C3B14061  18.357  37.895   7.955
 6435POPC   C4B14062  18.348  37.890   7.655
 6436POPC   NC314063  10.552  27.631   9.455
 6436POPC   PO414064  10.525  27.639   9.155
 6436POPC   GL114065  10.525  27.568   8.855
 6436POPC   GL214066  10.672  27.629   8.855
 6436POPC   C1A14067  10.524  27.565   8.555
 6436POPC   D2A14068  10.488  27.620   8.255
 6436POPC   C3A14069  10.510  27.620   7.955
 6436POPC   C4A14070  10.499  27.620   7.655
 6436POPC   C1B14071  10.782  27.672   8.555
 6436POPC   C2B14072  10.751  27.634   8.255
 6436POPC   C3B14073  10.751  27.646   7.955
 6436POPC   C4B14074  10.732  27.683   7.655
 6437POPC   NC314075  33.051  30.744   9.455
 6437POPC   PO414076  32.992  30.695   9.155
 6437POPC   GL114077  33.036  30.722   8.855
 6437POPC   GL214078  33.066  30.774   8.855
 6437POPC   C1A14079  33.064  30.674   8.555
 6437POPC   D2A14080  33.069  30.689   8.255
 6437POPC   C3A14081  33.023  30.663   7.955
 6437POPC   C4A14082  33.040  30.709   7.655
 6437POPC   C1B14083  33.072  30.935   8.555
 6437POPC   C2B14084  33.079  30.906   8.255
 6437POPC   C3B14085  33.038  30.975   7.955
 6437POPC   C4B14086  33.057  30.908   7.655
 6438POPC   NC314087  33.007  26.803   9.455
 6438POPC   PO414088  32.991  26.844   9.155
 6438POPC   GL114089  33.023  26.828   8.855
 6438POPC   GL214090  32.919  26.713   8.855
 6438POPC   C1A14091  33.015  26.841   8.555
 6438POPC   D2A14092  32.990  26.790   8.255
 6438POPC   C3A14093  33.040  26.828   7.955
 6438POPC   C4A14094  33.007  26.773   7.655
 6438POPC   C1B14095  32.846  26.682   8.555
 6438POPC   C2B14096  32.771  26.671   8.255
 6438POPC   C3B14097  32.771  26.699   7.955
 6438POPC   C4B14098  32.828  26.731   7.655
 6439POPC   NC314099   6.644  38.455   9.455
 6439POPC   PO414100   6.657  38.501   9.155
 6439POPC   GL114101   6.668  38.451   8.855
 6439POPC   GL214102   6.691  38.366   8.855
 6439POPC   C1A14103   6.653  38.488   8.555
 6439POPC   D2A14104   6.681  38.467   8.255
 6439POPC   C3A14105   6.600  38.426   7.955
 6439POPC   C4A14106   6.683  38.437   7.655
 6439POPC   C1B14107   6.766  38.206   8.555
 6439POPC   C2B14108   6.728  38.237   8.255
 6439POPC   C3B14109   6.788  38.205   7.955
 6439POPC   C4B14110   6.762  38.189   7.655
 6440POPC   NC314111  30.703  43.071   9.455
 6440POPC   PO414112  30.700  43.061   9.155
 6440POPC   GL114113  30.649  43.159   8.855
 6440POPC   GL214114  30.806  43.207   8.855
 6440POPC   C1A14115  30.661  43.118   8.555
 6440POPC   D2A14116  30.695  43.132   8.255
 6440POPC   C3A14117  30.709  43.106   7.955
 6440POPC   C4A14118  30.668  43.128   7.655
 6440POPC   C1B14119  30.899  43.240   8.555
 6440POPC   C2B14120  30.919  43.259   8.255
 6440POPC   C3B14121  30.894  43.248   7.955
 6440POPC   C4B14122  30.961  43.192   7.655
 6441POPC   NC314123   5.067  16.713   9.455
 6441POPC   PO414124   5.049  16.732   9.155
 6441POPC   GL114125   5.044  16.688   8.855
 6441POPC   GL214126   5.111  16.560   8.855
 6441POPC   C1A14127   5.139  16.715   8.555
 6441POPC   D2A14128   5.071  16.761   8.255
 6441POPC   C3A14129   5.120  16.722   7.955
 6441POPC   C4A14130   5.057  16.712   7.655
 6441POPC   C1B14131   5.023  16.453   8.555
 6441POPC   C2B14132   5.061  16.501   8.255
 6441POPC   C3B14133   5.034  16.468   7.955
 6441POPC   C4B14134   5.069  16.467   7.655
 6442POPC   NC314135  37.675  42.373   9.455
 6442POPC   PO414136  37.671  42.329   9.155
 6442POPC   GL114137  37.701  42.336   8.855
 6442POPC   GL214138  37.577  42.425   8.855
 6442POPC   C1A14139  37.727  42.331   8.555
 6442POPC   D2A14140  37.706  42.361   8.255
 6442POPC   C3A14141  37.656  42.379   7.955
 6442POPC   C4A14142  37.725  42.383   7.655
 6442POPC   C1B14143  37.598  42.582   8.555
 6442POPC   C2B14144  37.581  42.533   8.255
 6442POPC   C3B14145  37.573  42.514   7.955
 6442POPC   C4B14146  37.532  42.510   7.655
 6443POPC   NC314147  18.301  31.432   9.455
 6443POPC   PO414148  18.314  31.467   9.155
 6443POPC   GL114149  18.317  31.489   8.855
 6443POPC   GL214150  18.208  31.380   8.855
 6443POPC   C1A14151  18.311  31.518   8.555
 6443POPC   D2A14152  18.332  31.479   8.255
 6443POPC   C3A14153  18.300  31.518   7.955
 6443POPC   C4A14154  18.236  31.472   7.655
 6443POPC   C1B14155  18.166  31.206   8.555
 6443POPC   C2B14156  18.150  31.243   8.255
 6443POPC   C3B14157  18.182  31.209   7.955
 6443POPC   C4B14158  18.169  31.226   7.655
 6444POPC   NC314159  31.518  30.706   9.455
 6444POPC   PO414160  31.433  30.724   9.155
 6444POPC   GL114161  31.484  30.733   8.855
 6444POPC   GL214162  31.356  30.772   8.855
 6444POPC   C1A14163  31.446  30.727   8.555
 6444POPC   D2A14164  31.493  30.706   8.255
 6444POPC   C3A14165  31.490  30.736   7.955
 6444POPC   C4A14166  31.499  30.677   7.655
 6444POPC   C1B14167  31.336  30.875   8.555
 6444POPC   C2B14168  31.339  30.844   8.255
 6444POPC   C3B14169  31.276  30.855   7.955
 6444POPC   C4B14170  31.326  30.853   7.655
 6445POPC   NC314171   9.780  30.696   9.455
 6445POPC   PO414172   9.792  30.710   9.155
 6445POPC   GL114173   9.702  30.736   8.855
 6445POPC   GL214174   9.714  30.632   8.855
 6445POPC   C1A14175   9.735  30.672   8.555
 6445POPC   D2A14176   9.719  30.682   8.255
 6445POPC   C3A14177   9.787  30.734   7.955
 6445POPC   C4A14178   9.761  30.680   7.655
 6445POPC   C1B14179   9.582  30.521   8.555
 6445POPC   C2B14180   9.633  30.481   8.255
 6445POPC   C3B14181   9.560  30.538   7.955
 6445POPC   C4B14182   9.592  30.473   7.655
 6446POPC   NC314183  35.361  32.261   9.455
 6446POPC   PO414184  35.347  32.287   9.155
 6446POPC   GL114185  35.387  32.236   8.855
 6446POPC   GL214186  35.276  32.248   8.855
 6446POPC   C1A14187  35.376  32.222   8.555
 6446POPC   D2A14188  35.386  32.207   8.255
 6446POPC   C3A14189  35.358  32.253   7.955
 6446POPC   C4A14190  35.358  32.235   7.655
 6446POPC   C1B14191  35.093  32.218   8.555
 6446POPC   C2B14192  35.067  32.155   8.255
 6446POPC   C3B14193  35.065  32.205   7.955
 6446POPC   C4B14194  35.158  32.223   7.655
 6447POPC   NC314195  15.997   5.908   9.455
 6447POPC   PO414196  16.000   5.867   9.155
 6447POPC   GL114197  15.926   5.875   8.855
 6447POPC   GL214198  15.880   5.831   8.855
 6447POPC   C1A14199  15.963   5.835   8.555
 6447POPC   D2A14200  15.942   5.897   8.255
 6447POPC   C3A14201  15.975   5.856   7.955
 6447POPC   C4A14202  15.934   5.890   7.655
 6447POPC   C1B14203  15.686   5.765   8.555
 6447POPC   C2B14204  15.735   5.791   8.255
 6447POPC   C3B14205  15.722   5.772   7.955
 6447POPC   C4B14206  15.731   5.765   7.655
 6448POPC   NC314207  20.623  10.546   9.455
 6448POPC   PO414208  20.593  10.530   9.155
 6448POPC   GL114209  20.583  10.480   8.855
 6448POPC   GL214210  20.551  10.445   8.855
 6448POPC   C1A14211  20.573  10.554   8.555
 6448POPC   D2A14212  20.635  10.529   8.255
 6448POPC   C3A14213  20.643  10.574   7.955
 6448POPC   C4A14214  20.587  10.485   7.655
 6448POPC   C1B14215  20.501  10.260   8.555
 6448POPC   C2B14216  20.555  10.256   8.255
 6448POPC   C3B14217  20.511  10.311   7.955
 6448POPC   C4B14218  20.500  10.270   7.655
 6449POPC   NC314219  31.454   2.795   9.455
 6449POPC   PO414220  31.438   2.716   9.155
 6449POPC   GL114221  31.520   2.733   8.855
 6449POPC   GL214222  31.489   2.871   8.855
 6449POPC   C1A14223  31.500   2.791   8.555
 6449POPC   D2A14224  31.509   2.806   8.255
 6449POPC   C3A14225  31.511   2.759   7.955
 6449POPC   C4A14226  31.489   2.725   7.655
 6449POPC   C1B14227  31.483   3.002   8.555
 6449POPC   C2B14228  31.485   3.004   8.255
 6449POPC   C3B14229  31.477   3.007   7.955
 6449POPC   C4B14230  31.439   3.019   7.655
 6450POPC   NC314231  43.842   8.961   9.455
 6450POPC   PO414232  43.876   8.929   9.155
 6450POPC   GL114233  43.853   8.926   8.855
 6450POPC   GL214234  43.874   8.894   8.855
 6450POPC   C1A14235  43.909   9.002   8.555
 6450POPC   D2A14236  43.894   8.964   8.255
 6450POPC   C3A14237  43.840   8.932   7.955
 6450POPC   C4A14238  43.913   8.950   7.655
 6450POPC   C1B14239  43.870   8.719   8.555
 6450POPC   C2B14240  43.894   8.712   8.255
 6450POPC   C3B14241  43.860   8.712   7.955
 6450POPC   C4B14242  43.888   8.714   7.655
 6451POPC   NC314243  37.673  32.199   9.455
 6451POPC   PO414244  37.709  32.267   9.155
 6451POPC   GL114245  37.703  32.200   8.855
 6451POPC   GL214246  37.703  32.134   8.855
 6451POPC   C1A14247  37.642  32.239   8.555
 6451POPC   D2A14248  37.670  32.291   8.255
 6451POPC   C3A14249  37.680  32.242   7.955
 6451POPC   C4A14250  37.672  32.221   7.655
 6451POPC   C1B14251  37.653  31.968   8.555
 6451POPC   C2B14252  37.644  31.987   8.255
 6451POPC   C3B14253  37.697  32.013   7.955
 6451POPC   C4B14254  37.661  31.975   7.655
 6452POPC   NC314255  33.054  28.322   9.455
 6452POPC   PO414256  33.039  28.408   9.155
 6452POPC   GL114257  33.000  28.395   8.855
 6452POPC   GL214258  32.956  28.427   8.855
 6452POPC   C1A14259  33.055  28.382   8.555
 6452POPC   D2A14260  33.072  28.374   8.255
 6452POPC   C3A14261  33.015  28.328   7.955
 6452POPC   C4A14262  33.020  28.362   7.655
 6452POPC   C1B14263  32.846  28.564   8.555
 6452POPC   C2B14264  32.871  28.516   8.255
 6452POPC   C3B14265  32.830  28.570   7.955
 6452POPC   C4B14266  32.846  28.525   7.655
 6453POPC   NC314267   8.189  36.921   9.455
 6453POPC   PO414268   8.247  36.899   9.155
 6453POPC   GL114269   8.180  36.858   8.855
 6453POPC   GL214270   8.180  36.762   8.855
 6453POPC   C1A14271   8.242  36.900   8.555
 6453POPC   D2A14272   8.179  36.922   8.255
 6453POPC   C3A14273   8.235  36.931   7.955
 6453POPC   C4A14274   8.163  36.931   7.655
 6453POPC   C1B14275   8.168  36.669   8.555
 6453POPC   C2B14276   8.186  36.639   8.255
 6453POPC   C3B14277   8.243  36.663   7.955
 6453POPC   C4B14278   8.241  36.690   7.655
 6454POPC   NC314279  34.580  14.363   9.455
 6454POPC   PO414280  34.559  14.397   9.155
 6454POPC   GL114281  34.570  14.443   8.855
 6454POPC   GL214282  34.715  14.432   8.855
 6454POPC   C1A14283  34.552  14.434   8.555
 6454POPC   D2A14284  34.572  14.393   8.255
 6454POPC   C3A14285  34.579  14.446   7.955
 6454POPC   C4A14286  34.612  14.427   7.655
 6454POPC   C1B14287  34.843  14.342   8.555
 6454POPC   C2B14288  34.822  14.333   8.255
 6454POPC   C3B14289  34.808  14.363   7.955
 6454POPC   C4B14290  34.850  14.418   7.655
 6455POPC   NC314291  42.375  13.641   9.455
 6455POPC   PO414292  42.375  13.583   9.155
 6455POPC   GL114293  42.354  13.655   8.855
 6455POPC   GL214294  42.399  13.475   8.855
 6455POPC   C1A14295  42.344  13.644   8.555
 6455POPC   D2A14296  42.291  13.615   8.255
 6455POPC   C3A14297  42.302  13.630   7.955
 6455POPC   C4A14298  42.355  13.610   7.655
 6455POPC   C1B14299  42.425  13.353   8.555
 6455POPC   C2B14300  42.438  13.358   8.255
 6455POPC   C3B14301  42.420  13.362   7.955
 6455POPC   C4B14302  42.426  13.447   7.655
 6456POPC   NC314303  39.279  30.740   9.455
 6456POPC   PO414304  39.269  30.722   9.155
 6456POPC   GL114305  39.275  30.715   8.855
 6456POPC   GL214306  39.309  30.578   8.855
 6456POPC   C1A14307  39.221  30.721   8.555
 6456POPC   D2A14308  39.222  30.681   8.255
 6456POPC   C3A14309  39.248  30.693   7.955
 6456POPC   C4A14310  39.189  30.648   7.655
 6456POPC   C1B14311  39.327  30.467   8.555
 6456POPC   C2B14312  39.355  30.509   8.255
 6456POPC   C3B14313  39.352  30.512   7.955
 6456POPC   C4B14314  39.340  30.492   7.655
 6457POPC   NC314315  24.453  41.568   9.455
 6457POPC   PO414316  24.501  41.587   9.155
 6457POPC   GL114317  24.503  41.511   8.855
 6457POPC   GL214318  24.577  41.417   8.855
 6457POPC   C1A14319  24.522  41.596   8.555
 6457POPC   D2A14320  24.492  41.592   8.255
 6457POPC   C3A14321  24.487  41.604   7.955
 6457POPC   C4A14322  24.538  41.580   7.655
 6457POPC   C1B14323  24.691  41.403   8.555
 6457POPC   C2B14324  24.667  41.353   8.255
 6457POPC   C3B14325  24.648  41.406   7.955
 6457POPC   C4B14326  24.668  41.405   7.655
 6458POPC   NC314327  37.716   1.941   9.455
 6458POPC   PO414328  37.674   1.962   9.155
 6458POPC   GL114329  37.672   1.973   8.855
 6458POPC   GL214330  37.823   2.093   8.855
 6458POPC   C1A14331  37.634   2.018   8.555
 6458POPC   D2A14332  37.715   2.034   8.255
 6458POPC   C3A14333  37.647   2.025   7.955
 6458POPC   C4A14334  37.657   2.038   7.655
 6458POPC   C1B14335  37.904   2.088   8.555
 6458POPC   C2B14336  37.902   2.062   8.255
 6458POPC   C3B14337  37.915   2.144   7.955
 6458POPC   C4B14338  37.940   2.123   7.655
 6459POPC   NC314339  28.337  30.731   9.455
 6459POPC   PO414340  28.385  30.648   9.155
 6459POPC   GL114341  28.379  30.692   8.855
 6459POPC   GL214342  28.262  30.760   8.855
 6459POPC   C1A14343  28.334  30.651   8.555
 6459POPC   D2A14344  28.344  30.713   8.255
 6459POPC   C3A14345  28.382  30.715   7.955
 6459POPC   C4A14346  28.399  30.673   7.655
 6459POPC   C1B14347  28.168  30.868   8.555
 6459POPC   C2B14348  28.212  30.835   8.255
 6459POPC   C3B14349  28.190  30.896   7.955
 6459POPC   C4B14350  28.199  30.926   7.655
 6460POPC   NC314351  35.341  29.156   9.455
 6460POPC   PO414352  35.400  29.114   9.155
 6460POPC   GL114353  35.397  29.150   8.855
 6460POPC   GL214354  35.361  28.997   8.855
 6460POPC   C1A14355  35.364  29.097   8.555
 6460POPC   D2A14356  35.343  29.112   8.255
 6460POPC   C3A14357  35.321  29.174   7.955
 6460POPC   C4A14358  35.354  29.151   7.655
 6460POPC   C1B14359  35.261  28.890   8.555
 6460POPC   C2B14360  35.319  28.887   8.255
 6460POPC   C3B14361  35.337  28.884   7.955
 6460POPC   C4B14362  35.255  28.943   7.655
 6461POPC   NC314363  22.955   7.399   9.455
 6461POPC   PO414364  22.908   7.461   9.155
 6461POPC   GL114365  22.948   7.415   8.855
 6461POPC   GL214366  22.921   7.552   8.855
 6461POPC   C1A14367  22.982   7.385   8.555
 6461POPC   D2A14368  22.900   7.439   8.255
 6461POPC   C3A14369  22.894   7.446   7.955
 6461POPC   C4A14370  22.941   7.378   7.655
 6461POPC   C1B14371  22.953   7.716   8.555
 6461POPC   C2B14372  23.001   7.715   8.255
 6461POPC   C3B14373  22.971   7.700   7.955
 6461POPC   C4B14374  22.987   7.688   7.655
 6462POPC   NC314375  37.630  15.193   9.455
 6462POPC   PO414376  37.631  15.184   9.155
 6462POPC   GL114377  37.701  15.221   8.855
 6462POPC   GL214378  37.600  15.308   8.855
 6462POPC   C1A14379  37.658  15.146   8.555
 6462POPC   D2A14380  37.674  15.187   8.255
 6462POPC   C3A14381  37.664  15.159   7.955
 6462POPC   C4A14382  37.716  15.171   7.655
 6462POPC   C1B14383  37.506  15.351   8.555
 6462POPC   C2B14384  37.450  15.313   8.255
 6462POPC   C3B14385  37.480  15.390   7.955
 6462POPC   C4B14386  37.484  15.396   7.655
 6463POPC   NC314387  12.878  36.094   9.455
 6463POPC   PO414388  12.861  36.112   9.155
 6463POPC   GL114389  12.899  36.135   8.855
 6463POPC   GL214390  12.933  36.055   8.855
 6463POPC   C1A14391  12.894  36.120   8.555
 6463POPC   D2A14392  12.844  36.088   8.255
 6463POPC   C3A14393  12.873  36.169   7.955
 6463POPC   C4A14394  12.846  36.106   7.655
 6463POPC   C1B14395  13.029  35.981   8.555
 6463POPC   C2B14396  13.048  35.890   8.255
 6463POPC   C3B14397  12.974  35.941   7.955
 6463POPC   C4B14398  13.038  35.950   7.655
 6464POPC   NC314399  21.383  11.338   9.455
 6464POPC   PO414400  21.403  11.310   9.155
 6464POPC   GL114401  21.377  11.330   8.855
 6464POPC   GL214402  21.476  11.240   8.855
 6464POPC   C1A14403  21.352  11.264   8.555
 6464POPC   D2A14404  21.374  11.325   8.255
 6464POPC   C3A14405  21.353  11.319   7.955
 6464POPC   C4A14406  21.408  11.306   7.655
 6464POPC   C1B14407  21.585  11.099   8.555
 6464POPC   C2B14408  21.537  11.116   8.255
 6464POPC   C3B14409  21.540  11.137   7.955
 6464POPC   C4B14410  21.565  11.140   7.655
 6465POPC   NC314411  40.055   1.952   9.455
 6465POPC   PO414412  39.964   1.961   9.155
 6465POPC   GL114413  40.023   1.961   8.855
 6465POPC   GL214414  39.852   1.945   8.855
 6465POPC   C1A14415  40.010   1.991   8.555
 6465POPC   D2A14416  39.972   2.017   8.255
 6465POPC   C3A14417  39.980   1.955   7.955
 6465POPC   C4A14418  40.034   2.011   7.655
 6465POPC   C1B14419  39.798   1.938   8.555
 6465POPC   C2B14420  39.818   1.859   8.255
 6465POPC   C3B14421  39.800   1.878   7.955
 6465POPC   C4B14422  39.761   1.925   7.655
 6466POPC   NC314423  44.642   7.434   9.455
 6466POPC   PO414424  44.646   7.458   9.155
 6466POPC   GL114425  44.646   7.388   8.855
 6466POPC   GL214426  44.543   7.319   8.855
 6466POPC   C1A14427  44.664   7.443   8.555
 6466POPC   D2A14428  44.657   7.422   8.255
 6466POPC   C3A14429  44.614   7.374   7.955
 6466POPC   C4A14430  44.654   7.377   7.655
 6466POPC   C1B14431  44.497   7.237   8.555
 6466POPC   C2B14432  44.441   7.222   8.255
 6466POPC   C3B14433  44.527   7.265   7.955
 6466POPC   C4B14434  44.476   7.210   7.655
 6467POPC   NC314435   8.949   8.225   9.455
 6467POPC   PO414436   9.010   8.195   9.155
 6467POPC   GL114437   8.963   8.234   8.855
 6467POPC   GL214438   8.913   8.301   8.855
 6467POPC   C1A14439   8.994   8.233   8.555
 6467POPC   D2A14440   8.978   8.170   8.255
 6467POPC   C3A14441   8.926   8.194   7.955
 6467POPC   C4A14442   9.002   8.241   7.655
 6467POPC   C1B14443   8.792   8.356   8.555
 6467POPC   C2B14444   8.822   8.422   8.255
 6467POPC   C3B14445   8.787   8.375   7.955
 6467POPC   C4B14446   8.840   8.351   7.655
 6468POPC   NC314447  12.121   7.383   9.455
 6468POPC   PO414448  12.032   7.463   9.155
 6468POPC   GL114449  12.100   7.431   8.855
 6468POPC   GL214450  11.957   7.344   8.855
 6468POPC   C1A14451  12.096   7.440   8.555
 6468POPC   D2A14452  12.116   7.373   8.255
 6468POPC   C3A14453  12.073   7.393   7.955
 6468POPC   C4A14454  12.090   7.444   7.655
 6468POPC   C1B14455  11.839   7.293   8.555
 6468POPC   C2B14456  11.851   7.319   8.255
 6468POPC   C3B14457  11.890   7.307   7.955
 6468POPC   C4B14458  11.846   7.235   7.655
 6469POPC   NC314459  32.259  33.806   9.455
 6469POPC   PO414460  32.247  33.753   9.155
 6469POPC   GL114461  32.252  33.814   8.855
 6469POPC   GL214462  32.248  33.703   8.855
 6469POPC   C1A14463  32.266  33.821   8.555
 6469POPC   D2A14464  32.294  33.829   8.255
 6469POPC   C3A14465  32.258  33.827   7.955
 6469POPC   C4A14466  32.280  33.773   7.655
 6469POPC   C1B14467  32.274  33.581   8.555
 6469POPC   C2B14468  32.255  33.564   8.255
 6469POPC   C3B14469  32.196  33.593   7.955
 6469POPC   C4B14470  32.211  33.591   7.655
 6470POPC   NC314471  26.854  29.968   9.455
 6470POPC   PO414472  26.796  29.890   9.155
 6470POPC   GL114473  26.820  29.921   8.855
 6470POPC   GL214474  26.867  29.998   8.855
 6470POPC   C1A14475  26.831  29.960   8.555
 6470POPC   D2A14476  26.781  29.913   8.255
 6470POPC   C3A14477  26.833  29.914   7.955
 6470POPC   C4A14478  26.832  29.912   7.655
 6470POPC   C1B14479  26.991  30.170   8.555
 6470POPC   C2B14480  26.944  30.117   8.255
 6470POPC   C3B14481  26.959  30.158   7.955
 6470POPC   C4B14482  26.909  30.156   7.655
 6471POPC   NC314483  18.260  28.366   9.455
 6471POPC   PO414484  18.303  28.377   9.155
 6471POPC   GL114485  18.325  28.331   8.855
 6471POPC   GL214486  18.379  28.322   8.855
 6471POPC   C1A14487  18.307  28.413   8.555
 6471POPC   D2A14488  18.323  28.368   8.255
 6471POPC   C3A14489  18.243  28.417   7.955
 6471POPC   C4A14490  18.245  28.335   7.655
 6471POPC   C1B14491  18.570  28.347   8.555
 6471POPC   C2B14492  18.548  28.334   8.255
 6471POPC   C3B14493  18.533  28.333   7.955
 6471POPC   C4B14494  18.554  28.312   7.655
 6472POPC   NC314495  32.215   1.956   9.455
 6472POPC   PO414496  32.223   1.965   9.155
 6472POPC   GL114497  32.279   1.968   8.855
 6472POPC   GL214498  32.128   2.056   8.855
 6472POPC   C1A14499  32.206   2.026   8.555
 6472POPC   D2A14500  32.289   1.976   8.255
 6472POPC   C3A14501  32.230   2.031   7.955
 6472POPC   C4A14502  32.215   1.963   7.655
 6472POPC   C1B14503  31.973   2.119   8.555
 6472POPC   C2B14504  32.023   2.107   8.255
 6472POPC   C3B14505  32.011   2.082   7.955
 6472POPC   C4B14506  32.003   2.108   7.655
 6473POPC   NC314507  26.086   2.025   9.455
 6473POPC   PO414508  26.006   2.014   9.155
 6473POPC   GL114509  26.009   2.017   8.855
 6473POPC   GL214510  25.933   1.941   8.855
 6473POPC   C1A14511  26.078   1.958   8.555
 6473POPC   D2A14512  26.065   1.988   8.255
 6473POPC   C3A14513  26.064   2.039   7.955
 6473POPC   C4A14514  26.069   1.960   7.655
 6473POPC   C1B14515  25.860   1.822   8.555
 6473POPC   C2B14516  25.893   1.816   8.255
 6473POPC   C3B14517  25.905   1.790   7.955
 6473POPC   C4B14518  25.893   1.816   7.655
 6474POPC   NC314519  36.144  32.296   9.455
 6474POPC   PO414520  36.151  32.202   9.155
 6474POPC   GL114521  36.148  32.284   8.855
 6474POPC   GL214522  36.258  32.201   8.855
 6474POPC   C1A14523  36.158  32.207   8.555
 6474POPC   D2A14524  36.149  32.280   8.255
 6474POPC   C3A14525  36.117  32.247   7.955
 6474POPC   C4A14526  36.126  32.220   7.655
 6474POPC   C1B14527  36.361  32.185   8.555
 6474POPC   C2B14528  36.335  32.131   8.255
 6474POPC   C3B14529  36.403  32.191   7.955
 6474POPC   C4B14530  36.332  32.195   7.655
 6475POPC   NC314531   5.892  19.791   9.455
 6475POPC   PO414532   5.848  19.880   9.155
 6475POPC   GL114533   5.892  19.854   8.855
 6475POPC   GL214534   5.976  19.795   8.855
 6475POPC   C1A14535   5.861  19.854   8.555
 6475POPC   D2A14536   5.858  19.785   8.255
 6475POPC   C3A14537   5.842  19.852   7.955
 6475POPC   C4A14538   5.878  19.794   7.655
 6475POPC   C1B14539   6.062  19.732   8.555
 6475POPC   C2B14540   6.126  19.799   8.255
 6475POPC   C3B14541   6.126  19.733   7.955
 6475POPC   C4B14542   6.108  19.805   7.655
 6476POPC   NC314543   7.379  18.242   9.455
 6476POPC   PO414544   7.454  18.285   9.155
 6476POPC   GL114545   7.404  18.256   8.855
 6476POPC   GL214546   7.386  18.372   8.855
 6476POPC   C1A14547   7.411  18.295   8.555
 6476POPC   D2A14548   7.447  18.257   8.255
 6476POPC   C3A14549   7.393  18.300   7.955
 6476POPC   C4A14550   7.383  18.267   7.655
 6476POPC   C1B14551   7.349  18.491   8.555
 6476POPC   C2B14552   7.411  18.575   8.255
 6476POPC   C3B14553   7.350  18.558   7.955
 6476POPC   C4B14554   7.327  18.566   7.655
 6477POPC   NC314555  40.015  26.061   9.455
 6477POPC   PO414556  39.994  26.008   9.155
 6477POPC   GL114557  40.043  26.039   8.855
 6477POPC   GL214558  40.123  26.058   8.855
 6477POPC   C1A14559  39.985  26.020   8.555
 6477POPC   D2A14560  40.054  26.002   8.255
 6477POPC   C3A14561  40.053  26.079   7.955
 6477POPC   C4A14562  39.971  25.994   7.655
 6477POPC   C1B14563  40.286  26.179   8.555
 6477POPC   C2B14564  40.198  26.082   8.255
 6477POPC   C3B14565  40.279  26.119   7.955
 6477POPC   C4B14566  40.283  26.150   7.655
 6478POPC   NC314567   8.199  42.338   9.455
 6478POPC   PO414568   8.237  42.343   9.155
 6478POPC   GL114569   8.219  42.337   8.855
 6478POPC   GL214570   8.279  42.432   8.855
 6478POPC   C1A14571   8.238  42.297   8.555
 6478POPC   D2A14572   8.190  42.329   8.255
 6478POPC   C3A14573   8.192  42.336   7.955
 6478POPC   C4A14574   8.225  42.333   7.655
 6478POPC   C1B14575   8.437  42.435   8.555
 6478POPC   C2B14576   8.420  42.458   8.255
 6478POPC   C3B14577   8.401  42.465   7.955
 6478POPC   C4B14578   8.445  42.505   7.655
 6479POPC   NC314579  26.048   7.455   9.455
 6479POPC   PO414580  26.063   7.411   9.155
 6479POPC   GL114581  26.018   7.385   8.855
 6479POPC   GL214582  26.016   7.521   8.855
 6479POPC   C1A14583  26.056   7.400   8.555
 6479POPC   D2A14584  26.018   7.419   8.255
 6479POPC   C3A14585  26.009   7.394   7.955
 6479POPC   C4A14586  26.038   7.444   7.655
 6479POPC   C1B14587  25.963   7.712   8.555
 6479POPC   C2B14588  25.946   7.682   8.255
 6479POPC   C3B14589  25.959   7.668   7.955
 6479POPC   C4B14590  25.974   7.670   7.655
 6480POPC   NC314591  10.557  16.752   9.455
 6480POPC   PO414592  10.507  16.729   9.155
 6480POPC   GL114593  10.567  16.747   8.855
 6480POPC   GL214594  10.427  16.790   8.855
 6480POPC   C1A14595  10.538  16.721   8.555
 6480POPC   D2A14596  10.563  16.760   8.255
 6480POPC   C3A14597  10.491  16.697   7.955
 6480POPC   C4A14598  10.562  16.710   7.655
 6480POPC   C1B14599  10.251  16.814   8.555
 6480POPC   C2B14600  10.300  16.812   8.255
 6480POPC   C3B14601  10.236  16.817   7.955
 6480POPC   C4B14602  10.312  16.764   7.655
 6481POPC   NC314603  42.286   1.245   9.455
 6481POPC   PO414604  42.343   1.221   9.155
 6481POPC   GL114605  42.348   1.202   8.855
 6481POPC   GL214606  42.385   1.374   8.855
 6481POPC   C1A14607  42.291   1.164   8.555
 6481POPC   D2A14608  42.344   1.247   8.255
 6481POPC   C3A14609  42.374   1.259   7.955
 6481POPC   C4A14610  42.287   1.227   7.655
 6481POPC   C1B14611  42.341   1.502   8.555
 6481POPC   C2B14612  42.417   1.428   8.255
 6481POPC   C3B14613  42.405   1.482   7.955
 6481POPC   C4B14614  42.358   1.459   7.655
 6482POPC   NC314615   7.380   9.724   9.455
 6482POPC   PO414616   7.412   9.761   9.155
 6482POPC   GL114617   7.410   9.751   8.855
 6482POPC   GL214618   7.353   9.632   8.855
 6482POPC   C1A14619   7.376   9.751   8.555
 6482POPC   D2A14620   7.455   9.786   8.255
 6482POPC   C3A14621   7.471   9.716   7.955
 6482POPC   C4A14622   7.459   9.719   7.655
 6482POPC   C1B14623   7.282   9.578   8.555
 6482POPC   C2B14624   7.257   9.539   8.255
 6482POPC   C3B14625   7.258   9.578   7.955
 6482POPC   C4B14626   7.258   9.508   7.655
 6483POPC   NC314627  22.179  36.161   9.455
 6483POPC   PO414628  22.175  36.087   9.155
 6483POPC   GL114629  22.161  36.087   8.855
 6483POPC   GL214630  22.106  36.212   8.855
 6483POPC   C1A14631  22.141  36.106   8.555
 6483POPC   D2A14632  22.119  36.088   8.255
 6483POPC   C3A14633  22.141  36.117   7.955
 6483POPC   C4A14634  22.208  36.144   7.655
 6483POPC   C1B14635  22.105  36.386   8.555
 6483POPC   C2B14636  22.038  36.392   8.255
 6483POPC   C3B14637  22.068  36.398   7.955
 6483POPC   C4B14638  22.098  36.405   7.655
 6484POPC   NC314639  17.551  19.862   9.455
 6484POPC   PO414640  17.546  19.790   9.155
 6484POPC   GL114641  17.499  19.880   8.855
 6484POPC   GL214642  17.601  19.798   8.855
 6484POPC   C1A14643  17.486  19.787   8.555
 6484POPC   D2A14644  17.520  19.843   8.255
 6484POPC   C3A14645  17.515  19.869   7.955
 6484POPC   C4A14646  17.490  19.859   7.655
 6484POPC   C1B14647  17.776  19.749   8.555
 6484POPC   C2B14648  17.779  19.827   8.255
 6484POPC   C3B14649  17.726  19.840   7.955
 6484POPC   C4B14650  17.747  19.767   7.655
 6485POPC   NC314651  18.239  43.071   9.455
 6485POPC   PO414652  18.245  43.090   9.155
 6485POPC   GL114653  18.257  43.138   8.855
 6485POPC   GL214654  18.333  43.184   8.855
 6485POPC   C1A14655  18.250  43.146   8.555
 6485POPC   D2A14656  18.271  43.084   8.255
 6485POPC   C3A14657  18.253  43.155   7.955
 6485POPC   C4A14658  18.242  43.159   7.655
 6485POPC   C1B14659  18.455  43.306   8.555
 6485POPC   C2B14660  18.461  43.284   8.255
 6485POPC   C3B14661  18.469  43.232   7.955
 6485POPC   C4B14662  18.507  43.231   7.655
 6486POPC   NC314663  36.888  19.024   9.455
 6486POPC   PO414664  36.858  19.103   9.155
 6486POPC   GL114665  36.939  19.095   8.855
 6486POPC   GL214666  36.809  19.101   8.855
 6486POPC   C1A14667  36.859  19.065   8.555
 6486POPC   D2A14668  36.933  19.027   8.255
 6486POPC   C3A14669  36.872  19.025   7.955
 6486POPC   C4A14670  36.909  19.067   7.655
 6486POPC   C1B14671  36.650  19.086   8.555
 6486POPC   C2B14672  36.662  19.057   8.255
 6486POPC   C3B14673  36.616  19.086   7.955
 6486POPC   C4B14674  36.639  19.100   7.655
 6487POPC   NC314675  29.910  13.592   9.455
 6487POPC   PO414676  29.967  13.615   9.155
 6487POPC   GL114677  29.877  13.618   8.855
 6487POPC   GL214678  29.794  13.670   8.855
 6487POPC   C1A14679  29.890  13.665   8.555
 6487POPC   D2A14680  29.915  13.633   8.255
 6487POPC   C3A14681  29.906  13.631   7.955
 6487POPC   C4A14682  29.942  13.632   7.655
 6487POPC   C1B14683  29.680  13.721   8.555
 6487POPC   C2B14684  29.706  13.722   8.255
 6487POPC   C3B14685  29.703  13.749   7.955
 6487POPC   C4B14686  29.652  13.731   7.655
 6488POPC   NC314687  11.263  15.914   9.455
 6488POPC   PO414688  11.301  15.977   9.155
 6488POPC   GL114689  11.273  15.937   8.855
 6488POPC   GL214690  11.170  15.908   8.855
 6488POPC   C1A14691  11.253  15.995   8.555
 6488POPC   D2A14692  11.272  15.980   8.255
 6488POPC   C3A14693  11.275  15.989   7.955
 6488POPC   C4A14694  11.262  15.918   7.655
 6488POPC   C1B14695  11.018  15.901   8.555
 6488POPC   C2B14696  11.100  15.894   8.255
 6488POPC   C3B14697  11.060  15.939   7.955
 6488POPC   C4B14698  11.050  15.867   7.655
 6489POPC   NC314699  37.705  39.970   9.455
 6489POPC   PO414700  37.682  40.016   9.155
 6489POPC   GL114701  37.684  40.048   8.855
 6489POPC   GL214702  37.667  39.862   8.855
 6489POPC   C1A14703  37.724  39.976   8.555
 6489POPC   D2A14704  37.720  39.993   8.255
 6489POPC   C3A14705  37.718  40.013   7.955
 6489POPC   C4A14706  37.692  39.988   7.655
 6489POPC   C1B14707  37.608  39.749   8.555
 6489POPC   C2B14708  37.628  39.732   8.255
 6489POPC   C3B14709  37.601  39.726   7.955
 6489POPC   C4B14710  37.645  39.754   7.655
 6490POPC   NC314711  40.786  12.820   9.455
 6490POPC   PO414712  40.817  12.802   9.155
 6490POPC   GL114713  40.784  12.804   8.855
 6490POPC   GL214714  40.677  12.772   8.855
 6490POPC   C1A14715  40.827  12.897   8.555
 6490POPC   D2A14716  40.760  12.803   8.255
 6490POPC   C3A14717  40.754  12.838   7.955
 6490POPC   C4A14718  40.810  12.805   7.655
 6490POPC   C1B14719  40.568  12.723   8.555
 6490POPC   C2B14720  40.597  12.693   8.255
 6490POPC   C3B14721  40.545  12.737   7.955
 6490POPC   C4B14722  40.521  12.760   7.655
 6491POPC   NC314723  15.989  29.879   9.455
 6491POPC   PO414724  15.941  29.931   9.155
 6491POPC   GL114725  16.000  29.956   8.855
 6491POPC   GL214726  15.911  29.841   8.855
 6491POPC   C1A14727  15.935  29.893   8.555
 6491POPC   D2A14728  15.995  29.884   8.255
 6491POPC   C3A14729  15.939  29.950   7.955
 6491POPC   C4A14730  15.932  29.935   7.655
 6491POPC   C1B14731  15.854  29.725   8.555
 6491POPC   C2B14732  15.847  29.689   8.255
 6491POPC   C3B14733  15.812  29.752   7.955
 6491POPC   C4B14734  15.845  29.748   7.655
 6492POPC   NC314735  29.147  19.064   9.455
 6492POPC   PO414736  29.187  19.069   9.155
 6492POPC   GL114737  29.189  19.075   8.855
 6492POPC   GL214738  29.142  19.184   8.855
 6492POPC   C1A14739  29.167  19.037   8.555
 6492POPC   D2A14740  29.150  19.036   8.255
 6492POPC   C3A14741  29.191  19.098   7.955
 6492POPC   C4A14742  29.164  19.090   7.655
 6492POPC   C1B14743  29.040  19.264   8.555
 6492POPC   C2B14744  29.036  19.328   8.255
 6492POPC   C3B14745  29.028  19.276   7.955
 6492POPC   C4B14746  29.039  19.278   7.655
 6493POPC   NC314747  31.521  29.968   9.455
 6493POPC   PO414748  31.429  29.887   9.155
 6493POPC   GL114749  31.465  29.915   8.855
 6493POPC   GL214750  31.378  29.954   8.855
 6493POPC   C1A14751  31.463  29.894   8.555
 6493POPC   D2A14752  31.508  29.950   8.255
 6493POPC   C3A14753  31.501  29.895   7.955
 6493POPC   C4A14754  31.506  29.897   7.655
 6493POPC   C1B14755  31.298  30.124   8.555
 6493POPC   C2B14756  31.293  30.062   8.255
 6493POPC   C3B14757  31.265  30.127   7.955
 6493POPC   C4B14758  31.273  30.101   7.655
 6494POPC   NC314759  13.578  11.251   9.455
 6494POPC   PO414760  13.638  11.291   9.155
 6494POPC   GL114761  13.605  11.294   8.855
 6494POPC   GL214762  13.543  11.366   8.855
 6494POPC   C1A14763  13.672  11.295   8.555
 6494POPC   D2A14764  13.585  11.259   8.255
 6494POPC   C3A14765  13.599  11.322   7.955
 6494POPC   C4A14766  13.586  11.329   7.655
 6494POPC   C1B14767  13.425  11.312   8.555
 6494POPC   C2B14768  13.381  11.356   8.255
 6494POPC   C3B14769  13.416  11.384   7.955
 6494POPC   C4B14770  13.350  11.409   7.655
 6495POPC   NC314771  10.546   8.986   9.455
 6495POPC   PO414772  10.484   8.971   9.155
 6495POPC   GL114773  10.491   8.952   8.855
 6495POPC   GL214774  10.578   9.122   8.855
 6495POPC   C1A14775  10.478   9.013   8.555
 6495POPC   D2A14776  10.529   8.991   8.255
 6495POPC   C3A14777  10.519   8.980   7.955
 6495POPC   C4A14778  10.509   8.991   7.655
 6495POPC   C1B14779  10.613   9.229   8.555
 6495POPC   C2B14780  10.602   9.211   8.255
 6495POPC   C3B14781  10.608   9.161   7.955
 6495POPC   C4B14782  10.634   9.241   7.655
 6496POPC   NC314783  22.183  30.718   9.455
 6496POPC   PO414784  22.122  30.699   9.155
 6496POPC   GL114785  22.124  30.668   8.855
 6496POPC   GL214786  22.021  30.659   8.855
 6496POPC   C1A14787  22.171  30.650   8.555
 6496POPC   D2A14788  22.116  30.689   8.255
 6496POPC   C3A14789  22.184  30.689   7.955
 6496POPC   C4A14790  22.196  30.650   7.655
 6496POPC   C1B14791  22.005  30.570   8.555
 6496POPC   C2B14792  21.978  30.554   8.255
 6496POPC   C3B14793  21.968  30.517   7.955
 6496POPC   C4B14794  21.952  30.556   7.655
 6497POPC   NC314795  17.461   2.803   9.455
 6497POPC   PO414796  17.551   2.779   9.155
 6497POPC   GL114797  17.473   2.787   8.855
 6497POPC   GL214798  17.538   2.639   8.855
 6497POPC   C1A14799  17.525   2.748   8.555
 6497POPC   D2A14800  17.491   2.774   8.255
 6497POPC   C3A14801  17.483   2.787   7.955
 6497POPC   C4A14802  17.470   2.769   7.655
 6497POPC   C1B14803  17.557   2.562   8.555
 6497POPC   C2B14804  17.534   2.482   8.255
 6497POPC   C3B14805  17.596   2.543   7.955
 6497POPC   C4B14806  17.553   2.549   7.655
 6498POPC   NC314807  20.648   1.981   9.455
 6498POPC   PO414808  20.582   1.988   9.155
 6498POPC   GL114809  20.568   1.952   8.855
 6498POPC   GL214810  20.613   2.128   8.855
 6498POPC   C1A14811  20.659   2.036   8.555
 6498POPC   D2A14812  20.648   1.943   8.255
 6498POPC   C3A14813  20.571   1.967   7.955
 6498POPC   C4A14814  20.561   2.030   7.655
 6498POPC   C1B14815  20.647   2.206   8.555
 6498POPC   C2B14816  20.699   2.228   8.255
 6498POPC   C3B14817  20.684   2.189   7.955
 6498POPC   C4B14818  20.702   2.186   7.655
 6499POPC   NC314819  35.354  14.357   9.455
 6499POPC   PO414820  35.337  14.385   9.155
 6499POPC   GL114821  35.351  14.432   8.855
 6499POPC   GL214822  35.249  14.446   8.855
 6499POPC   C1A14823  35.312  14.364   8.555
 6499POPC   D2A14824  35.374  14.382   8.255
 6499POPC   C3A14825  35.371  14.362   7.955
 6499POPC   C4A14826  35.341  14.436   7.655
 6499POPC   C1B14827  35.069  14.518   8.555
 6499POPC   C2B14828  35.128  14.516   8.255
 6499POPC   C3B14829  35.127  14.502   7.955
 6499POPC   C4B14830  35.133  14.537   7.655
 6500POPC   NC314831  19.811  26.033   9.455
 6500POPC   PO414832  19.791  26.087   9.155
 6500POPC   GL114833  19.813  26.028   8.855
 6500POPC   GL214834  19.936  26.163   8.855
 6500POPC   C1A14835  19.811  25.991   8.555
 6500POPC   D2A14836  19.797  26.069   8.255
 6500POPC   C3A14837  19.803  26.015   7.955
 6500POPC   C4A14838  19.830  26.025   7.655
 6500POPC   C1B14839  19.969  26.236   8.555
 6500POPC   C2B14840  19.909  26.265   8.255
 6500POPC   C3B14841  19.959  26.304   7.955
 6500POPC   C4B14842  19.975  26.265   7.655
 6501POPC   NC314843  37.720   3.543   9.455
 6501POPC   PO414844  37.700   3.559   9.155
 6501POPC   GL114845  37.644   3.507   8.855
 6501POPC   GL214846  37.598   3.686   8.855
 6501POPC   C1A14847  37.678   3.513   8.555
 6501POPC   D2A14848  37.636   3.545   8.255
 6501POPC   C3A14849  37.658   3.545   7.955
 6501POPC   C4A14850  37.679   3.505   7.655
 6501POPC   C1B14851  37.511   3.805   8.555
 6501POPC   C2B14852  37.552   3.754   8.255
 6501POPC   C3B14853  37.518   3.711   7.955
 6501POPC   C4B14854  37.574   3.791   7.655
 6502POPC   NC314855  16.770   2.736   9.455
 6502POPC   PO414856  16.771   2.741   9.155
 6502POPC   GL114857  16.690   2.732   8.855
 6502POPC   GL214858  16.690   2.844   8.855
 6502POPC   C1A14859  16.776   2.797   8.555
 6502POPC   D2A14860  16.779   2.731   8.255
 6502POPC   C3A14861  16.732   2.719   7.955
 6502POPC   C4A14862  16.727   2.771   7.655
 6502POPC   C1B14863  16.681   2.984   8.555
 6502POPC   C2B14864  16.675   3.003   8.255
 6502POPC   C3B14865  16.628   2.995   7.955
 6502POPC   C4B14866  16.670   2.965   7.655
 6503POPC   NC314867  28.379  42.370   9.455
 6503POPC   PO414868  28.357  42.371   9.155
 6503POPC   GL114869  28.358  42.324   8.855
 6503POPC   GL214870  28.424  42.281   8.855
 6503POPC   C1A14871  28.416  42.307   8.555
 6503POPC   D2A14872  28.350  42.342   8.255
 6503POPC   C3A14873  28.319  42.288   7.955
 6503POPC   C4A14874  28.412  42.363   7.655
 6503POPC   C1B14875  28.528  42.150   8.555
 6503POPC   C2B14876  28.531  42.207   8.255
 6503POPC   C3B14877  28.553  42.210   7.955
 6503POPC   C4B14878  28.555  42.143   7.655
 6504POPC   NC314879  15.926  17.473   9.455
 6504POPC   PO414880  15.987  17.504   9.155
 6504POPC   GL114881  15.986  17.512   8.855
 6504POPC   GL214882  15.912  17.387   8.855
 6504POPC   C1A14883  15.947  17.543   8.555
 6504POPC   D2A14884  15.907  17.529   8.255
 6504POPC   C3A14885  15.973  17.471   7.955
 6504POPC   C4A14886  15.977  17.555   7.655
 6504POPC   C1B14887  15.932  17.253   8.555
 6504POPC   C2B14888  15.866  17.255   8.255
 6504POPC   C3B14889  15.863  17.287   7.955
 6504POPC   C4B14890  15.911  17.274   7.655
 6505POPC   NC314891  27.598  43.846   9.455
 6505POPC   PO414892  27.552  43.923   9.155
 6505POPC   GL114893  27.606  43.894   8.855
 6505POPC   GL214894  27.607  43.997   8.855
 6505POPC   C1A14895  27.605  43.916   8.555
 6505POPC   D2A14896  27.631  43.923   8.255
 6505POPC   C3A14897  27.551  43.882   7.955
 6505POPC   C4A14898  27.573  43.876   7.655
 6505POPC   C1B14899  27.550  44.094   8.555
 6505POPC   C2B14900  27.483  44.153   8.255
 6505POPC   C3B14901  27.497  44.127   7.955
 6505POPC   C4B14902  27.547  44.083   7.655
 6506POPC   NC314903  43.063   5.845   9.455
 6506POPC   PO414904  43.156   5.855   9.155
 6506POPC   GL114905  43.138   5.832   8.855
 6506POPC   GL214906  43.117   6.010   8.855
 6506POPC   C1A14907  43.152   5.905   8.555
 6506POPC   D2A14908  43.109   5.842   8.255
 6506POPC   C3A14909  43.135   5.821   7.955
 6506POPC   C4A14910  43.106   5.833   7.655
 6506POPC   C1B14911  43.043   6.103   8.555
 6506POPC   C2B14912  43.104   6.121   8.255
 6506POPC   C3B14913  43.121   6.097   7.955
 6506POPC   C4B14914  43.084   6.097   7.655
 6507POPC   NC314915  27.565   6.662   9.455
 6507POPC   PO414916  27.616   6.640   9.155
 6507POPC   GL114917  27.550   6.629   8.855
 6507POPC   GL214918  27.674   6.742   8.855
 6507POPC   C1A14919  27.599   6.601   8.555
 6507POPC   D2A14920  27.633   6.688   8.255
 6507POPC   C3A14921  27.622   6.678   7.955
 6507POPC   C4A14922  27.643   6.666   7.655
 6507POPC   C1B14923  27.768   6.729   8.555
 6507POPC   C2B14924  27.827   6.785   8.255
 6507POPC   C3B14925  27.802   6.788   7.955
 6507POPC   C4B14926  27.799   6.760   7.655
 6508POPC   NC314927  14.355   4.282   9.455
 6508POPC   PO414928  14.370   4.352   9.155
 6508POPC   GL114929  14.417   4.351   8.855
 6508POPC   GL214930  14.433   4.422   8.855
 6508POPC   C1A14931  14.362   4.278   8.555
 6508POPC   D2A14932  14.365   4.276   8.255
 6508POPC   C3A14933  14.385   4.303   7.955
 6508POPC   C4A14934  14.372   4.363   7.655
 6508POPC   C1B14935  14.467   4.590   8.555
 6508POPC   C2B14936  14.464   4.600   8.255
 6508POPC   C3B14937  14.449   4.536   7.955
 6508POPC   C4B14938  14.426   4.548   7.655
 6509POPC   NC314939  36.905  17.547   9.455
 6509POPC   PO414940  36.874  17.557   9.155
 6509POPC   GL114941  36.865  17.477   8.855
 6509POPC   GL214942  36.985  17.376   8.855
 6509POPC   C1A14943  36.886  17.467   8.555
 6509POPC   D2A14944  36.939  17.528   8.255
 6509POPC   C3A14945  36.869  17.535   7.955
 6509POPC   C4A14946  36.952  17.465   7.655
 6509POPC   C1B14947  37.077  17.263   8.555
 6509POPC   C2B14948  37.072  17.352   8.255
 6509POPC   C3B14949  37.102  17.285   7.955
 6509POPC   C4B14950  37.049  17.328   7.655
 6510POPC   NC314951  44.702  26.001   9.455
 6510POPC   PO414952  44.667  26.089   9.155
 6510POPC   GL114953  44.688  26.033   8.855
 6510POPC   GL214954  44.744  25.974   8.855
 6510POPC   C1A14955  44.636  26.009   8.555
 6510POPC   D2A14956  44.672  26.063   8.255
 6510POPC   C3A14957  44.698  26.033   7.955
 6510POPC   C4A14958  44.679  26.068   7.655
 6510POPC   C1B14959  44.840  25.873   8.555
 6510POPC   C2B14960  44.840  25.837   8.255
 6510POPC   C3B14961  44.800  25.847   7.955
 6510POPC   C4B14962  44.857  25.893   7.655
 6511POPC   NC314963  11.271  26.063   9.455
 6511POPC   PO414964  11.266  25.998   9.155
 6511POPC   GL114965  11.292  26.055   8.855
 6511POPC   GL214966  11.171  26.143   8.855
 6511POPC   C1A14967  11.341  26.023   8.555
 6511POPC   D2A14968  11.335  26.068   8.255
 6511POPC   C3A14969  11.252  26.076   7.955
 6511POPC   C4A14970  11.323  26.036   7.655
 6511POPC   C1B14971  11.128  26.258   8.555
 6511POPC   C2B14972  11.121  26.231   8.255
 6511POPC   C3B14973  11.165  26.237   7.955
 6511POPC   C4B14974  11.152  26.243   7.655
 6512POPC   NC314975  26.028  29.948   9.455
 6512POPC   PO414976  26.077  29.902   9.155
 6512POPC   GL114977  26.085  29.919   8.855
 6512POPC   GL214978  25.925  29.918   8.855
 6512POPC   C1A14979  25.994  29.916   8.555
 6512POPC   D2A14980  26.041  29.903   8.255
 6512POPC   C3A14981  26.017  29.918   7.955
 6512POPC   C4A14982  26.069  29.893   7.655
 6512POPC   C1B14983  25.805  29.870   8.555
 6512POPC   C2B14984  25.779  29.934   8.255
 6512POPC   C3B14985  25.770  29.957   7.955
 6512POPC   C4B14986  25.828  29.933   7.655
 6513POPC   NC314987  29.156  19.800   9.455
 6513POPC   PO414988  29.193  19.880   9.155
 6513POPC   GL114989  29.151  19.877   8.855
 6513POPC   GL214990  29.058  19.757   8.855
 6513POPC   C1A14991  29.102  19.827   8.555
 6513POPC   D2A14992  29.125  19.841   8.255
 6513POPC   C3A14993  29.194  19.846   7.955
 6513POPC   C4A14994  29.125  19.792   7.655
 6513POPC   C1B14995  28.912  19.658   8.555
 6513POPC   C2B14996  28.941  19.673   8.255
 6513POPC   C3B14997  28.949  19.678   7.955
 6513POPC   C4B14998  28.929  19.653   7.655
 6514POPC   NC314999   2.743  32.231   9.455
 6514POPC   PO415000   2.788  32.231   9.155
 6514POPC   GL115001   2.782  32.247   8.855
 6514POPC   GL215002   2.735  32.162   8.855
 6514POPC   C1A15003   2.787  32.253   8.555
 6514POPC   D2A15004   2.750  32.204   8.255
 6514POPC   C3A15005   2.803  32.294   7.955
 6514POPC   C4A15006   2.731  32.229   7.655
 6514POPC   C1B15007   2.731  32.001   8.555
 6514POPC   C2B15008   2.792  32.028   8.255
 6514POPC   C3B15009   2.738  32.009   7.955
 6514POPC   C4B15010   2.812  32.017   7.655
 6515POPC   NC315011  17.486   6.633   9.455
 6515POPC   PO415012  17.469   6.650   9.155
 6515POPC   GL115013  17.526   6.652   8.855
 6515POPC   GL215014  17.505   6.491   8.855
 6515POPC   C1A15015  17.464   6.637   8.555
 6515POPC   D2A15016  17.513   6.596   8.255
 6515POPC   C3A15017  17.461   6.603   7.955
 6515POPC   C4A15018  17.483   6.670   7.655
 6515POPC   C1B15019  17.595   6.430   8.555
 6515POPC   C2B15020  17.612   6.378   8.255
 6515POPC   C3B15021  17.635   6.407   7.955
 6515POPC   C4B15022  17.566   6.436   7.655
 6516POPC   NC315023  15.225  23.761   9.455
 6516POPC   PO415024  15.210  23.683   9.155
 6516POPC   GL115025  15.207  23.730   8.855
 6516POPC   GL215026  15.097  23.657   8.855
 6516POPC   C1A15027  15.184  23.679   8.555
 6516POPC   D2A15028  15.188  23.676   8.255
 6516POPC   C3A15029  15.131  23.675   7.955
 6516POPC   C4A15030  15.203  23.715   7.655
 6516POPC   C1B15031  14.978  23.644   8.555
 6516POPC   C2B15032  14.952  23.658   8.255
 6516POPC   C3B15033  14.979  23.692   7.955
 6516POPC   C4B15034  14.941  23.650   7.655
 6517POPC   NC315035   1.232  21.366   9.455
 6517POPC   PO415036   1.231  21.415   9.155
 6517POPC   GL115037   1.210  21.402   8.855
 6517POPC   GL215038   1.331  21.500   8.855
 6517POPC   C1A15039   1.209  21.379   8.555
 6517POPC   D2A15040   1.237  21.354   8.255
 6517POPC   C3A15041   1.234  21.387   7.955
 6517POPC   C4A15042   1.201  21.421   7.655
 6517POPC   C1B15043   1.355  21.600   8.555
 6517POPC   C2B15044   1.333  21.558   8.255
 6517POPC   C3B15045   1.385  21.608   7.955
 6517POPC   C4B15046   1.318  21.592   7.655
 6518POPC   NC315047  36.117  27.623   9.455
 6518POPC   PO415048  36.134  27.575   9.155
 6518POPC   GL115049  36.099  27.603   8.855
 6518POPC   GL215050  36.021  27.461   8.855
 6518POPC   C1A15051  36.162  27.584   8.555
 6518POPC   D2A15052  36.116  27.551   8.255
 6518POPC   C3A15053  36.132  27.640   7.955
 6518POPC   C4A15054  36.101  27.598   7.655
 6518POPC   C1B15055  36.017  27.335   8.555
 6518POPC   C2B15056  35.996  27.331   8.255
 6518POPC   C3B15057  35.968  27.354   7.955
 6518POPC   C4B15058  36.053  27.376   7.655
 6519POPC   NC315059   1.950   3.516   9.455
 6519POPC   PO415060   1.986   3.589   9.155
 6519POPC   GL115061   1.973   3.540   8.855
 6519POPC   GL215062   2.069   3.672   8.855
 6519POPC   C1A15063   1.991   3.561   8.555
 6519POPC   D2A15064   1.956   3.534   8.255
 6519POPC   C3A15065   1.996   3.575   7.955
 6519POPC   C4A15066   1.992   3.498   7.655
 6519POPC   C1B15067   2.093   3.744   8.555
 6519POPC   C2B15068   2.174   3.708   8.255
 6519POPC   C3B15069   2.163   3.782   7.955
 6519POPC   C4B15070   2.098   3.794   7.655
 6520POPC   NC315071  37.721  13.581   9.455
 6520POPC   PO415072  37.683  13.595   9.155
 6520POPC   GL115073  37.660  13.621   8.855
 6520POPC   GL215074  37.754  13.532   8.855
 6520POPC   C1A15075  37.663  13.629   8.555
 6520POPC   D2A15076  37.680  13.605   8.255
 6520POPC   C3A15077  37.703  13.591   7.955
 6520POPC   C4A15078  37.722  13.664   7.655
 6520POPC   C1B15079  37.758  13.408   8.555
 6520POPC   C2B15080  37.842  13.432   8.255
 6520POPC   C3B15081  37.835  13.382   7.955
 6520POPC   C4B15082  37.762  13.381   7.655
 6521POPC   NC315083  12.106   5.863   9.455
 6521POPC   PO415084  12.122   5.888   9.155
 6521POPC   GL115085  12.028   5.885   8.855
 6521POPC   GL215086  12.006   5.934   8.855
 6521POPC   C1A15087  12.063   5.876   8.555
 6521POPC   D2A15088  12.059   5.902   8.255
 6521POPC   C3A15089  12.066   5.919   7.955
 6521POPC   C4A15090  12.106   5.868   7.655
 6521POPC   C1B15091  11.979   6.118   8.555
 6521POPC   C2B15092  11.978   6.032   8.255
 6521POPC   C3B15093  11.992   6.041   7.955
 6521POPC   C4B15094  11.968   6.114   7.655
 6522POPC   NC315095  36.891   0.447   9.455
 6522POPC   PO415096  36.897   0.427   9.155
 6522POPC   GL115097  36.927   0.455   8.855
 6522POPC   GL215098  36.799   0.450   8.855
 6522POPC   C1A15099  36.886   0.440   8.555
 6522POPC   D2A15100  36.874   0.413   8.255
 6522POPC   C3A15101  36.922   0.467   7.955
 6522POPC   C4A15102  36.865   0.415   7.655
 6522POPC   C1B15103  36.694   0.526   8.555
 6522POPC   C2B15104  36.694   0.510   8.255
 6522POPC   C3B15105  36.658   0.492   7.955
 6522POPC   C4B15106  36.716   0.564   7.655
 6523POPC   NC315107   1.987  42.354   9.455
 6523POPC   PO415108   2.035  42.291   9.155
 6523POPC   GL115109   1.956  42.313   8.855
 6523POPC   GL215110   2.135  42.316   8.855
 6523POPC   C1A15111   2.026  42.337   8.555
 6523POPC   D2A15112   2.036  42.373   8.255
 6523POPC   C3A15113   2.024  42.376   7.955
 6523POPC   C4A15114   1.997  42.309   7.655
 6523POPC   C1B15115   2.201  42.356   8.555
 6523POPC   C2B15116   2.199  42.378   8.255
 6523POPC   C3B15117   2.237  42.393   7.955
 6523POPC   C4B15118   2.256  42.330   7.655
 6524POPC   NC315119   6.664   0.428   9.455
 6524POPC   PO415120   6.640   0.475   9.155
 6524POPC   GL115121   6.598   0.400   8.855
 6524POPC   GL215122   6.716   0.424   8.855
 6524POPC   C1A15123   6.630   0.410   8.555
 6524POPC   D2A15124   6.675   0.399   8.255
 6524POPC   C3A15125   6.657   0.481   7.955
 6524POPC   C4A15126   6.606   0.404   7.655
 6524POPC   C1B15127   6.914   0.381   8.555
 6524POPC   C2B15128   6.907   0.292   8.255
 6524POPC   C3B15129   6.872   0.289   7.955
 6524POPC   C4B15130   6.854   0.341   7.655
 6525POPC   NC315131  32.994   0.485   9.455
 6525POPC   PO415132  32.979   0.412   9.155
 6525POPC   GL115133  33.019   0.420   8.855
 6525POPC   GL215134  33.111   0.372   8.855
 6525POPC   C1A15135  32.993   0.472   8.555
 6525POPC   D2A15136  33.049   0.418   8.255
 6525POPC   C3A15137  33.059   0.475   7.955
 6525POPC   C4A15138  33.003   0.415   7.655
 6525POPC   C1B15139  33.201   0.227   8.555
 6525POPC   C2B15140  33.164   0.252   8.255
 6525POPC   C3B15141  33.169   0.267   7.955
 6525POPC   C4B15142  33.145   0.232   7.655
 6526POPC   NC315143  12.063   6.648   9.455
 6526POPC   PO415144  12.052   6.676   9.155
 6526POPC   GL115145  12.088   6.669   8.855
 6526POPC   GL215146  12.227   6.570   8.855
 6526POPC   C1A15147  12.098   6.597   8.555
 6526POPC   D2A15148  12.029   6.672   8.255
 6526POPC   C3A15149  12.055   6.637   7.955
 6526POPC   C4A15150  12.073   6.690   7.655
 6526POPC   C1B15151  12.337   6.549   8.555
 6526POPC   C2B15152  12.322   6.571   8.255
 6526POPC   C3B15153  12.300   6.524   7.955
 6526POPC   C4B15154  12.261   6.546   7.655
 6527POPC   NC315155  38.448  26.076   9.455
 6527POPC   PO415156  38.460  26.008   9.155
 6527POPC   GL115157  38.458  26.050   8.855
 6527POPC   GL215158  38.488  26.132   8.855
 6527POPC   C1A15159  38.472  26.040   8.555
 6527POPC   D2A15160  38.476  26.070   8.255
 6527POPC   C3A15161  38.430  25.997   7.955
 6527POPC   C4A15162  38.432  26.040   7.655
 6527POPC   C1B15163  38.433  26.340   8.555
 6527POPC   C2B15164  38.503  26.321   8.255
 6527POPC   C3B15165  38.524  26.276   7.955
 6527POPC   C4B15166  38.527  26.272   7.655
 6528POPC   NC315167  29.191  14.412   9.455
 6528POPC   PO415168  29.193  14.452   9.155
 6528POPC   GL115169  29.183  14.392   8.855
 6528POPC   GL215170  29.087  14.303   8.855
 6528POPC   C1A15171  29.179  14.356   8.555
 6528POPC   D2A15172  29.101  14.421   8.255
 6528POPC   C3A15173  29.138  14.366   7.955
 6528POPC   C4A15174  29.106  14.407   7.655
 6528POPC   C1B15175  29.022  14.211   8.555
 6528POPC   C2B15176  29.073  14.148   8.255
 6528POPC   C3B15177  29.052  14.176   7.955
 6528POPC   C4B15178  29.050  14.207   7.655
 6529POPC   NC315179  38.500   9.012   9.455
 6529POPC   PO415180  38.475   8.997   9.155
 6529POPC   GL115181  38.466   8.984   8.855
 6529POPC   GL215182  38.392   9.069   8.855
 6529POPC   C1A15183  38.428   8.923   8.555
 6529POPC   D2A15184  38.485   8.986   8.255
 6529POPC   C3A15185  38.489   9.002   7.955
 6529POPC   C4A15186  38.427   8.976   7.655
 6529POPC   C1B15187  38.345   9.158   8.555
 6529POPC   C2B15188  38.297   9.212   8.255
 6529POPC   C3B15189  38.315   9.149   7.955
 6529POPC   C4B15190  38.308   9.182   7.655
 6530POPC   NC315191  39.232  15.200   9.455
 6530POPC   PO415192  39.205  15.203   9.155
 6530POPC   GL115193  39.199  15.205   8.855
 6530POPC   GL215194  39.323  15.095   8.855
 6530POPC   C1A15195  39.239  15.177   8.555
 6530POPC   D2A15196  39.266  15.134   8.255
 6530POPC   C3A15197  39.242  15.167   7.955
 6530POPC   C4A15198  39.273  15.138   7.655
 6530POPC   C1B15199  39.411  15.030   8.555
 6530POPC   C2B15200  39.405  15.029   8.255
 6530POPC   C3B15201  39.497  15.047   7.955
 6530POPC   C4B15202  39.477  15.083   7.655
 6531POPC   NC315203  12.845   7.462   9.455
 6531POPC   PO415204  12.839   7.372   9.155
 6531POPC   GL115205  12.849   7.454   8.855
 6531POPC   GL215206  12.967   7.559   8.855
 6531POPC   C1A15207  12.874   7.406   8.555
 6531POPC   D2A15208  12.863   7.432   8.255
 6531POPC   C3A15209  12.814   7.441   7.955
 6531POPC   C4A15210  12.807   7.414   7.655
 6531POPC   C1B15211  13.019   7.579   8.555
 6531POPC   C2B15212  13.002   7.591   8.255
 6531POPC   C3B15213  13.000   7.638   7.955
 6531POPC   C4B15214  13.030   7.625   7.655
 6532POPC   NC315215  16.777   3.550   9.455
 6532POPC   PO415216  16.773   3.525   9.155
 6532POPC   GL115217  16.752   3.496   8.855
 6532POPC   GL215218  16.675   3.662   8.855
 6532POPC   C1A15219  16.733   3.528   8.555
 6532POPC   D2A15220  16.751   3.510   8.255
 6532POPC   C3A15221  16.746   3.553   7.955
 6532POPC   C4A15222  16.705   3.507   7.655
 6532POPC   C1B15223  16.654   3.808   8.555
 6532POPC   C2B15224  16.686   3.830   8.255
 6532POPC   C3B15225  16.710   3.813   7.955
 6532POPC   C4B15226  16.640   3.759   7.655
 6533POPC   NC315227   5.088  19.025   9.455
 6533POPC   PO415228   5.076  19.025   9.155
 6533POPC   GL115229   5.112  19.020   8.855
 6533POPC   GL215230   5.181  19.186   8.855
 6533POPC   C1A15231   5.062  19.011   8.555
 6533POPC   D2A15232   5.104  19.073   8.255
 6533POPC   C3A15233   5.128  19.016   7.955
 6533POPC   C4A15234   5.108  19.099   7.655
 6533POPC   C1B15235   5.283  19.237   8.555
 6533POPC   C2B15236   5.267  19.276   8.255
 6533POPC   C3B15237   5.207  19.263   7.955
 6533POPC   C4B15238   5.208  19.303   7.655
 6534POPC   NC315239  36.106   6.649   9.455
 6534POPC   PO415240  36.098   6.659   9.155
 6534POPC   GL115241  36.133   6.603   8.855
 6534POPC   GL215242  36.171   6.484   8.855
 6534POPC   C1A15243  36.096   6.610   8.555
 6534POPC   D2A15244  36.119   6.662   8.255
 6534POPC   C3A15245  36.081   6.615   7.955
 6534POPC   C4A15246  36.163   6.670   7.655
 6534POPC   C1B15247  36.206   6.379   8.555
 6534POPC   C2B15248  36.256   6.388   8.255
 6534POPC   C3B15249  36.272   6.406   7.955
 6534POPC   C4B15250  36.203   6.450   7.655
 6535POPC   NC315251  12.078  17.460   9.455
 6535POPC   PO415252  12.067  17.463   9.155
 6535POPC   GL115253  12.081  17.477   8.855
 6535POPC   GL215254  12.144  17.629   8.855
 6535POPC   C1A15255  12.069  17.528   8.555
 6535POPC   D2A15256  12.046  17.550   8.255
 6535POPC   C3A15257  12.044  17.529   7.955
 6535POPC   C4A15258  12.096  17.477   7.655
 6535POPC   C1B15259  12.188  17.756   8.555
 6535POPC   C2B15260  12.238  17.756   8.255
 6535POPC   C3B15261  12.165  17.737   7.955
 6535POPC   C4B15262  12.191  17.776   7.655
 6536POPC   NC315263  30.717   4.326   9.455
 6536POPC   PO415264  30.651   4.317   9.155
 6536POPC   GL115265  30.682   4.309   8.855
 6536POPC   GL215266  30.753   4.232   8.855
 6536POPC   C1A15267  30.648   4.318   8.555
 6536POPC   D2A15268  30.722   4.294   8.255
 6536POPC   C3A15269  30.654   4.268   7.955
 6536POPC   C4A15270  30.684   4.307   7.655
 6536POPC   C1B15271  30.752   4.110   8.555
 6536POPC   C2B15272  30.737   4.059   8.255
 6536POPC   C3B15273  30.761   4.114   7.955
 6536POPC   C4B15274  30.794   4.124   7.655
 6537POPC   NC315275  34.609  25.299   9.455
 6537POPC   PO415276  34.608  25.302   9.155
 6537POPC   GL115277  34.606  25.219   8.855
 6537POPC   GL215278  34.680  25.285   8.855
 6537POPC   C1A15279  34.583  25.286   8.555
 6537POPC   D2A15280  34.582  25.247   8.255
 6537POPC   C3A15281  34.565  25.298   7.955
 6537POPC   C4A15282  34.596  25.217   7.655
 6537POPC   C1B15283  34.773  25.403   8.555
 6537POPC   C2B15284  34.844  25.421   8.255
 6537POPC   C3B15285  34.841  25.336   7.955
 6537POPC   C4B15286  34.799  25.357   7.655
 6538POPC   NC315287  40.823   1.223   9.455
 6538POPC   PO415288  40.750   1.169   9.155
 6538POPC   GL115289  40.799   1.231   8.855
 6538POPC   GL215290  40.788   1.316   8.855
 6538POPC   C1A15291  40.740   1.194   8.555
 6538POPC   D2A15292  40.756   1.249   8.255
 6538POPC   C3A15293  40.823   1.221   7.955
 6538POPC   C4A15294  40.764   1.221   7.655
 6538POPC   C1B15295  40.699   1.453   8.555
 6538POPC   C2B15296  40.741   1.488   8.255
 6538POPC   C3B15297  40.737   1.472   7.955
 6538POPC   C4B15298  40.690   1.436   7.655
 6539POPC   NC315299  22.948  42.359   9.455
 6539POPC   PO415300  22.960  42.376   9.155
 6539POPC   GL115301  22.931  42.335   8.855
 6539POPC   GL215302  22.923  42.460   8.855
 6539POPC   C1A15303  22.913  42.367   8.555
 6539POPC   D2A15304  22.962  42.383   8.255
 6539POPC   C3A15305  22.916  42.372   7.955
 6539POPC   C4A15306  22.940  42.368   7.655
 6539POPC   C1B15307  22.903  42.568   8.555
 6539POPC   C2B15308  22.918  42.548   8.255
 6539POPC   C3B15309  22.893  42.603   7.955
 6539POPC   C4B15310  22.922  42.587   7.655
 6540POPC   NC315311   4.331  39.248   9.455
 6540POPC   PO415312   4.347  39.244   9.155
 6540POPC   GL115313   4.284  39.276   8.855
 6540POPC   GL215314   4.220  39.287   8.855
 6540POPC   C1A15315   4.297  39.194   8.555
 6540POPC   D2A15316   4.296  39.217   8.255
 6540POPC   C3A15317   4.277  39.272   7.955
 6540POPC   C4A15318   4.326  39.255   7.655
 6540POPC   C1B15319   4.040  39.323   8.555
 6540POPC   C2B15320   4.073  39.343   8.255
 6540POPC   C3B15321   4.087  39.348   7.955
 6540POPC   C4B15322   4.102  39.323   7.655
 6541POPC   NC315323   6.656  31.427   9.455
 6541POPC   PO415324   6.687  31.429   9.155
 6541POPC   GL115325   6.640  31.435   8.855
 6541POPC   GL215326   6.693  31.596   8.855
 6541POPC   C1A15327   6.615  31.456   8.555
 6541POPC   D2A15328   6.623  31.430   8.255
 6541POPC   C3A15329   6.694  31.484   7.955
 6541POPC   C4A15330   6.679  31.483   7.655
 6541POPC   C1B15331   6.727  31.672   8.555
 6541POPC   C2B15332   6.660  31.679   8.255
 6541POPC   C3B15333   6.735  31.763   7.955
 6541POPC   C4B15334   6.699  31.758   7.655
 6542POPC   NC315335  29.159   6.680   9.455
 6542POPC   PO415336  29.167   6.649   9.155
 6542POPC   GL115337  29.121   6.642   8.855
 6542POPC   GL215338  29.056   6.672   8.855
 6542POPC   C1A15339  29.160   6.642   8.555
 6542POPC   D2A15340  29.149   6.606   8.255
 6542POPC   C3A15341  29.173   6.649   7.955
 6542POPC   C4A15342  29.181   6.689   7.655
 6542POPC   C1B15343  28.880   6.670   8.555
 6542POPC   C2B15344  28.914   6.719   8.255
 6542POPC   C3B15345  28.942   6.669   7.955
 6542POPC   C4B15346  28.939   6.672   7.655
 6543POPC   NC315347  21.388   7.419   9.455
 6543POPC   PO415348  21.353   7.427   9.155
 6543POPC   GL115349  21.350   7.457   8.855
 6543POPC   GL215350  21.255   7.345   8.855
 6543POPC   C1A15351  21.360   7.446   8.555
 6543POPC   D2A15352  21.337   7.416   8.255
 6543POPC   C3A15353  21.436   7.453   7.955
 6543POPC   C4A15354  21.435   7.465   7.655
 6543POPC   C1B15355  21.226   7.260   8.555
 6543POPC   C2B15356  21.175   7.294   8.255
 6543POPC   C3B15357  21.212   7.281   7.955
 6543POPC   C4B15358  21.237   7.299   7.655
 6544POPC   NC315359  22.929   5.072   9.455
 6544POPC   PO415360  22.932   5.070   9.155
 6544POPC   GL115361  22.951   5.128   8.855
 6544POPC   GL215362  23.033   5.214   8.855
 6544POPC   C1A15363  22.933   5.095   8.555
 6544POPC   D2A15364  22.956   5.087   8.255
 6544POPC   C3A15365  22.968   5.122   7.955
 6544POPC   C4A15366  22.980   5.114   7.655
 6544POPC   C1B15367  23.117   5.254   8.555
 6544POPC   C2B15368  23.116   5.265   8.255
 6544POPC   C3B15369  23.179   5.244   7.955
 6544POPC   C4B15370  23.173   5.298   7.655
 6545POPC   NC315371  14.411   2.031   9.455
 6545POPC   PO415372  14.427   2.029   9.155
 6545POPC   GL115373  14.406   2.024   8.855
 6545POPC   GL215374  14.303   1.848   8.855
 6545POPC   C1A15375  14.438   1.965   8.555
 6545POPC   D2A15376  14.445   2.017   8.255
 6545POPC   C3A15377  14.438   2.008   7.955
 6545POPC   C4A15378  14.355   1.998   7.655
 6545POPC   C1B15379  14.194   1.798   8.555
 6545POPC   C2B15380  14.202   1.811   8.255
 6545POPC   C3B15381  14.202   1.833   7.955
 6545POPC   C4B15382  14.211   1.855   7.655
 6546POPC   NC315383  39.190  16.764   9.455
 6546POPC   PO415384  39.192  16.738   9.155
 6546POPC   GL115385  39.213  16.740   8.855
 6546POPC   GL215386  39.403  16.752   8.855
 6546POPC   C1A15387  39.240  16.706   8.555
 6546POPC   D2A15388  39.210  16.682   8.255
 6546POPC   C3A15389  39.237  16.780   7.955
 6546POPC   C4A15390  39.225  16.768   7.655
 6546POPC   C1B15391  39.462  16.671   8.555
 6546POPC   C2B15392  39.519  16.647   8.255
 6546POPC   C3B15393  39.477  16.722   7.955
 6546POPC   C4B15394  39.519  16.672   7.655
 6547POPC   NC315395  39.225   4.272   9.455
 6547POPC   PO415396  39.272   4.329   9.155
 6547POPC   GL115397  39.192   4.287   8.855
 6547POPC   GL215398  39.298   4.173   8.855
 6547POPC   C1A15399  39.244   4.330   8.555
 6547POPC   D2A15400  39.268   4.329   8.255
 6547POPC   C3A15401  39.273   4.286   7.955
 6547POPC   C4A15402  39.272   4.349   7.655
 6547POPC   C1B15403  39.374   4.050   8.555
 6547POPC   C2B15404  39.296   4.124   8.255
 6547POPC   C3B15405  39.366   4.080   7.955
 6547POPC   C4B15406  39.294   4.044   7.655
 6548POPC   NC315407  38.483  18.261   9.455
 6548POPC   PO415408  38.481  18.258   9.155
 6548POPC   GL115409  38.482  18.262   8.855
 6548POPC   GL215410  38.474  18.118   8.855
 6548POPC   C1A15411  38.492  18.326   8.555
 6548POPC   D2A15412  38.423  18.330   8.255
 6548POPC   C3A15413  38.440  18.266   7.955
 6548POPC   C4A15414  38.437  18.288   7.655
 6548POPC   C1B15415  38.471  18.053   8.555
 6548POPC   C2B15416  38.425  18.076   8.255
 6548POPC   C3B15417  38.468  18.012   7.955
 6548POPC   C4B15418  38.503  17.990   7.655
 6549POPC   NC315419   0.487   8.935   9.455
 6549POPC   PO415420   0.420   8.929   9.155
 6549POPC   GL115421   0.450   8.946   8.855
 6549POPC   GL215422   0.535   9.098   8.855
 6549POPC   C1A15423   0.450   9.017   8.555
 6549POPC   D2A15424   0.484   8.989   8.255
 6549POPC   C3A15425   0.390   8.977   7.955
 6549POPC   C4A15426   0.428   9.008   7.655
 6549POPC   C1B15427   0.571   9.125   8.555
 6549POPC   C2B15428   0.585   9.189   8.255
 6549POPC   C3B15429   0.554   9.150   7.955
 6549POPC   C4B15430   0.586   9.150   7.655
 6550POPC   NC315431   5.127   3.542   9.455
 6550POPC   PO415432   5.079   3.538   9.155
 6550POPC   GL115433   5.062   3.522   8.855
 6550POPC   GL215434   5.150   3.427   8.855
 6550POPC   C1A15435   5.049   3.538   8.555
 6550POPC   D2A15436   5.141   3.523   8.255
 6550POPC   C3A15437   5.102   3.538   7.955
 6550POPC   C4A15438   5.049   3.570   7.655
 6550POPC   C1B15439   5.253   3.352   8.555
 6550POPC   C2B15440   5.192   3.326   8.255
 6550POPC   C3B15441   5.230   3.339   7.955
 6550POPC   C4B15442   5.224   3.293   7.655
 6551POPC   NC315443  29.117  39.263   9.455
 6551POPC   PO415444  29.118  39.189   9.155
 6551POPC   GL115445  29.143  39.187   8.855
 6551POPC   GL215446  29.005  39.303   8.855
 6551POPC   C1A15447  29.182  39.256   8.555
 6551POPC   D2A15448  29.153  39.222   8.255
 6551POPC   C3A15449  29.112  39.251   7.955
 6551POPC   C4A15450  29.189  39.248   7.655
 6551POPC   C1B15451  28.953  39.366   8.555
 6551POPC   C2B15452  28.972  39.391   8.255
 6551POPC   C3B15453  28.935  39.415   7.955
 6551POPC   C4B15454  28.991  39.401   7.655
 6552POPC   NC315455  41.539  32.286   9.455
 6552POPC   PO415456  41.583  32.291   9.155
 6552POPC   GL115457  41.558  32.222   8.855
 6552POPC   GL215458  41.498  32.175   8.855
 6552POPC   C1A15459  41.572  32.260   8.555
 6552POPC   D2A15460  41.525  32.282   8.255
 6552POPC   C3A15461  41.551  32.242   7.955
 6552POPC   C4A15462  41.555  32.199   7.655
 6552POPC   C1B15463  41.521  31.971   8.555
 6552POPC   C2B15464  41.471  32.048   8.255
 6552POPC   C3B15465  41.438  32.009   7.955
 6552POPC   C4B15466  41.486  31.962   7.655
 6553POPC   NC315467   6.686  17.523   9.455
 6553POPC   PO415468   6.680  17.531   9.155
 6553POPC   GL115469   6.654  17.540   8.855
 6553POPC   GL215470   6.764  17.495   8.855
 6553POPC   C1A15471   6.614  17.498   8.555
 6553POPC   D2A15472   6.694  17.530   8.255
 6553POPC   C3A15473   6.597  17.519   7.955
 6553POPC   C4A15474   6.629  17.513   7.655
 6553POPC   C1B15475   6.885  17.401   8.555
 6553POPC   C2B15476   6.909  17.367   8.255
 6553POPC   C3B15477   6.860  17.409   7.955
 6553POPC   C4B15478   6.882  17.391   7.655
 6554POPC   NC315479  29.191  43.922   9.455
 6554POPC   PO415480  29.142  43.904   9.155
 6554POPC   GL115481  29.110  43.841   8.855
 6554POPC   GL215482  29.206  43.756   8.855
 6554POPC   C1A15483  29.162  43.916   8.555
 6554POPC   D2A15484  29.122  43.865   8.255
 6554POPC   C3A15485  29.095  43.860   7.955
 6554POPC   C4A15486  29.118  43.884   7.655
 6554POPC   C1B15487  29.158  43.647   8.555
 6554POPC   C2B15488  29.139  43.603   8.255
 6554POPC   C3B15489  29.143  43.619   7.955
 6554POPC   C4B15490  29.131  43.623   7.655
 6555POPC   NC315491  24.481  15.146   9.455
 6555POPC   PO415492  24.475  15.172   9.155
 6555POPC   GL115493  24.534  15.190   8.855
 6555POPC   GL215494  24.496  15.277   8.855
 6555POPC   C1A15495  24.532  15.134   8.555
 6555POPC   D2A15496  24.533  15.213   8.255
 6555POPC   C3A15497  24.458  15.195   7.955
 6555POPC   C4A15498  24.448  15.207   7.655
 6555POPC   C1B15499  24.480  15.383   8.555
 6555POPC   C2B15500  24.461  15.470   8.255
 6555POPC   C3B15501  24.479  15.458   7.955
 6555POPC   C4B15502  24.477  15.441   7.655
 6556POPC   NC315503  18.299  21.361   9.455
 6556POPC   PO415504  18.294  21.382   9.155
 6556POPC   GL115505  18.247  21.411   8.855
 6556POPC   GL215506  18.334  21.263   8.855
 6556POPC   C1A15507  18.333  21.380   8.555
 6556POPC   D2A15508  18.305  21.340   8.255
 6556POPC   C3A15509  18.237  21.363   7.955
 6556POPC   C4A15510  18.233  21.435   7.655
 6556POPC   C1B15511  18.290  21.169   8.555
 6556POPC   C2B15512  18.321  21.122   8.255
 6556POPC   C3B15513  18.317  21.133   7.955
 6556POPC   C4B15514  18.279  21.154   7.655
 6557POPC   NC315515  15.972  36.155   9.455
 6557POPC   PO415516  15.918  36.155   9.155
 6557POPC   GL115517  15.921  36.137   8.855
 6557POPC   GL215518  16.127  36.094   8.855
 6557POPC   C1A15519  15.983  36.136   8.555
 6557POPC   D2A15520  15.926  36.116   8.255
 6557POPC   C3A15521  15.921  36.119   7.955
 6557POPC   C4A15522  15.910  36.137   7.655
 6557POPC   C1B15523  16.241  36.119   8.555
 6557POPC   C2B15524  16.200  36.156   8.255
 6557POPC   C3B15525  16.171  36.114   7.955
 6557POPC   C4B15526  16.219  36.133   7.655
 6558POPC   NC315527  41.545  11.280   9.455
 6558POPC   PO415528  41.539  11.313   9.155
 6558POPC   GL115529  41.550  11.301   8.855
 6558POPC   GL215530  41.593  11.173   8.855
 6558POPC   C1A15531  41.606  11.282   8.555
 6558POPC   D2A15532  41.601  11.286   8.255
 6558POPC   C3A15533  41.531  11.333   7.955
 6558POPC   C4A15534  41.582  11.255   7.655
 6558POPC   C1B15535  41.539  11.091   8.555
 6558POPC   C2B15536  41.526  11.095   8.255
 6558POPC   C3B15537  41.564  11.043   7.955
 6558POPC   C4B15538  41.577  11.082   7.655
 6559POPC   NC315539  11.330   3.506   9.455
 6559POPC   PO415540  11.306   3.551   9.155
 6559POPC   GL115541  11.308   3.584   8.855
 6559POPC   GL215542  11.319   3.636   8.855
 6559POPC   C1A15543  11.283   3.533   8.555
 6559POPC   D2A15544  11.291   3.553   8.255
 6559POPC   C3A15545  11.255   3.583   7.955
 6559POPC   C4A15546  11.274   3.564   7.655
 6559POPC   C1B15547  11.257   3.809   8.555
 6559POPC   C2B15548  11.283   3.822   8.255
 6559POPC   C3B15549  11.263   3.756   7.955
 6559POPC   C4B15550  11.327   3.765   7.655
 6560POPC   NC315551   0.487  28.351   9.455
 6560POPC   PO415552   0.480  28.361   9.155
 6560POPC   GL115553   0.427  28.378   8.855
 6560POPC   GL215554   0.381  28.286   8.855
 6560POPC   C1A15555   0.475  28.408   8.555
 6560POPC   D2A15556   0.444  28.407   8.255
 6560POPC   C3A15557   0.401  28.418   7.955
 6560POPC   C4A15558   0.396  28.389   7.655
 6560POPC   C1B15559   0.394  28.095   8.555
 6560POPC   C2B15560   0.457  28.075   8.255
 6560POPC   C3B15561   0.446  28.144   7.955
 6560POPC   C4B15562   0.396  28.117   7.655
 6561POPC   NC315563  33.764  31.477   9.455
 6561POPC   PO415564  33.822  31.521   9.155
 6561POPC   GL115565  33.781  31.462   8.855
 6561POPC   GL215566  33.770  31.387   8.855
 6561POPC   C1A15567  33.756  31.469   8.555
 6561POPC   D2A15568  33.767  31.492   8.255
 6561POPC   C3A15569  33.806  31.433   7.955
 6561POPC   C4A15570  33.784  31.462   7.655
 6561POPC   C1B15571  33.722  31.262   8.555
 6561POPC   C2B15572  33.653  31.303   8.255
 6561POPC   C3B15573  33.721  31.260   7.955
 6561POPC   C4B15574  33.693  31.251   7.655
 6562POPC   NC315575  37.682  43.097   9.455
 6562POPC   PO415576  37.632  43.070   9.155
 6562POPC   GL115577  37.723  43.064   8.855
 6562POPC   GL215578  37.795  43.097   8.855
 6562POPC   C1A15579  37.718  43.149   8.555
 6562POPC   D2A15580  37.692  43.106   8.255
 6562POPC   C3A15581  37.654  43.152   7.955
 6562POPC   C4A15582  37.686  43.069   7.655
 6562POPC   C1B15583  37.879  43.077   8.555
 6562POPC   C2B15584  37.896  43.057   8.255
 6562POPC   C3B15585  37.901  43.021   7.955
 6562POPC   C4B15586  37.912  43.100   7.655
 6563POPC   NC315587  33.849   3.583   9.455
 6563POPC   PO415588  33.820   3.548   9.155
 6563POPC   GL115589  33.781   3.585   8.855
 6563POPC   GL215590  33.805   3.704   8.855
 6563POPC   C1A15591  33.768   3.567   8.555
 6563POPC   D2A15592  33.752   3.510   8.255
 6563POPC   C3A15593  33.810   3.565   7.955
 6563POPC   C4A15594  33.837   3.502   7.655
 6563POPC   C1B15595  33.743   3.769   8.555
 6563POPC   C2B15596  33.749   3.829   8.255
 6563POPC   C3B15597  33.755   3.821   7.955
 6563POPC   C4B15598  33.757   3.831   7.655
 6564POPC   NC315599  32.209   5.918   9.455
 6564POPC   PO415600  32.270   5.877   9.155
 6564POPC   GL115601  32.269   5.842   8.855
 6564POPC   GL215602  32.296   6.013   8.855
 6564POPC   C1A15603  32.260   5.888   8.555
 6564POPC   D2A15604  32.274   5.876   8.255
 6564POPC   C3A15605  32.269   5.888   7.955
 6564POPC   C4A15606  32.280   5.886   7.655
 6564POPC   C1B15607  32.387   6.051   8.555
 6564POPC   C2B15608  32.368   6.075   8.255
 6564POPC   C3B15609  32.429   6.081   7.955
 6564POPC   C4B15610  32.400   6.112   7.655
 6565POPC   NC315611  22.974   8.189   9.455
 6565POPC   PO415612  22.954   8.158   9.155
 6565POPC   GL115613  22.920   8.225   8.855
 6565POPC   GL215614  23.018   8.321   8.855
 6565POPC   C1A15615  22.929   8.173   8.555
 6565POPC   D2A15616  22.901   8.184   8.255
 6565POPC   C3A15617  22.961   8.167   7.955
 6565POPC   C4A15618  22.954   8.246   7.655
 6565POPC   C1B15619  23.022   8.461   8.555
 6565POPC   C2B15620  23.073   8.426   8.255
 6565POPC   C3B15621  23.056   8.414   7.955
 6565POPC   C4B15622  23.017   8.403   7.655
 6566POPC   NC315623  27.544  17.507   9.455
 6566POPC   PO415624  27.605  17.501   9.155
 6566POPC   GL115625  27.612  17.473   8.855
 6566POPC   GL215626  27.460  17.563   8.855
 6566POPC   C1A15627  27.611  17.497   8.555
 6566POPC   D2A15628  27.625  17.500   8.255
 6566POPC   C3A15629  27.575  17.474   7.955
 6566POPC   C4A15630  27.638  17.537   7.655
 6566POPC   C1B15631  27.361  17.617   8.555
 6566POPC   C2B15632  27.395  17.691   8.255
 6566POPC   C3B15633  27.356  17.704   7.955
 6566POPC   C4B15634  27.413  17.656   7.655
 6567POPC   NC315635  38.442   3.519   9.455
 6567POPC   PO415636  38.429   3.539   9.155
 6567POPC   GL115637  38.482   3.546   8.855
 6567POPC   GL215638  38.367   3.596   8.855
 6567POPC   C1A15639  38.414   3.562   8.555
 6567POPC   D2A15640  38.490   3.551   8.255
 6567POPC   C3A15641  38.478   3.546   7.955
 6567POPC   C4A15642  38.430   3.575   7.655
 6567POPC   C1B15643  38.272   3.694   8.555
 6567POPC   C2B15644  38.341   3.769   8.255
 6567POPC   C3B15645  38.253   3.762   7.955
 6567POPC   C4B15646  38.282   3.705   7.655
 6568POPC   NC315647   0.393  22.201   9.455
 6568POPC   PO415648   0.468  22.154   9.155
 6568POPC   GL115649   0.460  22.140   8.855
 6568POPC   GL215650   0.528  22.093   8.855
 6568POPC   C1A15651   0.471  22.143   8.555
 6568POPC   D2A15652   0.451  22.128   8.255
 6568POPC   C3A15653   0.470  22.146   7.955
 6568POPC   C4A15654   0.473  22.178   7.655
 6568POPC   C1B15655   0.622  21.984   8.555
 6568POPC   C2B15656   0.540  21.981   8.255
 6568POPC   C3B15657   0.537  21.914   7.955
 6568POPC   C4B15658   0.572  21.981   7.655
 6569POPC   NC315659  33.804  30.668   9.455
 6569POPC   PO415660  33.837  30.713   9.155
 6569POPC   GL115661  33.840  30.721   8.855
 6569POPC   GL215662  33.633  30.663   8.855
 6569POPC   C1A15663  33.763  30.724   8.555
 6569POPC   D2A15664  33.753  30.717   8.255
 6569POPC   C3A15665  33.833  30.690   7.955
 6569POPC   C4A15666  33.835  30.683   7.655
 6569POPC   C1B15667  33.536  30.737   8.555
 6569POPC   C2B15668  33.511  30.747   8.255
 6569POPC   C3B15669  33.532  30.681   7.955
 6569POPC   C4B15670  33.584  30.740   7.655
 6570POPC   NC315671  24.475  32.213   9.455
 6570POPC   PO415672  24.456  32.207   9.155
 6570POPC   GL115673  24.506  32.204   8.855
 6570POPC   GL215674  24.360  32.374   8.855
 6570POPC   C1A15675  24.496  32.296   8.555
 6570POPC   D2A15676  24.501  32.223   8.255
 6570POPC   C3A15677  24.525  32.225   7.955
 6570POPC   C4A15678  24.472  32.234   7.655
 6570POPC   C1B15679  24.277  32.421   8.555
 6570POPC   C2B15680  24.306  32.470   8.255
 6570POPC   C3B15681  24.325  32.448   7.955
 6570POPC   C4B15682  24.335  32.438   7.655
 6571POPC   NC315683  18.292   6.657   9.455
 6571POPC   PO415684  18.311   6.633   9.155
 6571POPC   GL115685  18.267   6.599   8.855
 6571POPC   GL215686  18.355   6.744   8.855
 6571POPC   C1A15687  18.268   6.639   8.555
 6571POPC   D2A15688  18.319   6.691   8.255
 6571POPC   C3A15689  18.290   6.633   7.955
 6571POPC   C4A15690  18.242   6.660   7.655
 6571POPC   C1B15691  18.476   6.719   8.555
 6571POPC   C2B15692  18.516   6.763   8.255
 6571POPC   C3B15693  18.554   6.707   7.955
 6571POPC   C4B15694  18.500   6.735   7.655
 6572POPC   NC315695   3.526  31.496   9.455
 6572POPC   PO415696   3.548  31.489   9.155
 6572POPC   GL115697   3.590  31.426   8.855
 6572POPC   GL215698   3.428  31.463   8.855
 6572POPC   C1A15699   3.583  31.462   8.555
 6572POPC   D2A15700   3.511  31.491   8.255
 6572POPC   C3A15701   3.531  31.428   7.955
 6572POPC   C4A15702   3.548  31.445   7.655
 6572POPC   C1B15703   3.322  31.561   8.555
 6572POPC   C2B15704   3.287  31.529   8.255
 6572POPC   C3B15705   3.277  31.493   7.955
 6572POPC   C4B15706   3.340  31.528   7.655
 6573POPC   NC315707   2.788  26.847   9.455
 6573POPC   PO415708   2.759  26.865   9.155
 6573POPC   GL115709   2.787  26.855   8.855
 6573POPC   GL215710   2.748  26.896   8.855
 6573POPC   C1A15711   2.787  26.855   8.555
 6573POPC   D2A15712   2.717  26.822   8.255
 6573POPC   C3A15713   2.795  26.813   7.955
 6573POPC   C4A15714   2.752  26.779   7.655
 6573POPC   C1B15715   2.685  27.093   8.555
 6573POPC   C2B15716   2.720  27.097   8.255
 6573POPC   C3B15717   2.739  27.106   7.955
 6573POPC   C4B15718   2.681  27.112   7.655
 6574POPC   NC315719   8.990  39.227   9.455
 6574POPC   PO415720   8.976  39.232   9.155
 6574POPC   GL115721   8.928  39.241   8.855
 6574POPC   GL215722   9.010  39.097   8.855
 6574POPC   C1A15723   8.962  39.224   8.555
 6574POPC   D2A15724   9.021  39.184   8.255
 6574POPC   C3A15725   8.966  39.200   7.955
 6574POPC   C4A15726   8.978  39.192   7.655
 6574POPC   C1B15727   9.059  38.989   8.555
 6574POPC   C2B15728   9.124  38.976   8.255
 6574POPC   C3B15729   9.076  39.031   7.955
 6574POPC   C4B15730   9.089  39.055   7.655
 6575POPC   NC315731   3.540  30.697   9.455
 6575POPC   PO415732   3.530  30.649   9.155
 6575POPC   GL115733   3.582  30.694   8.855
 6575POPC   GL215734   3.539  30.555   8.855
 6575POPC   C1A15735   3.519  30.708   8.555
 6575POPC   D2A15736   3.579  30.738   8.255
 6575POPC   C3A15737   3.547  30.709   7.955
 6575POPC   C4A15738   3.499  30.670   7.655
 6575POPC   C1B15739   3.529  30.489   8.555
 6575POPC   C2B15740   3.504  30.436   8.255
 6575POPC   C3B15741   3.570  30.400   7.955
 6575POPC   C4B15742   3.561  30.443   7.655
 6576POPC   NC315743   1.221  43.143   9.455
 6576POPC   PO415744   1.242  43.152   9.155
 6576POPC   GL115745   1.205  43.085   8.855
 6576POPC   GL215746   1.333  43.114   8.855
 6576POPC   C1A15747   1.171  43.072   8.555
 6576POPC   D2A15748   1.243  43.066   8.255
 6576POPC   C3A15749   1.203  43.064   7.955
 6576POPC   C4A15750   1.245  43.115   7.655
 6576POPC   C1B15751   1.487  43.050   8.555
 6576POPC   C2B15752   1.508  43.028   8.255
 6576POPC   C3B15753   1.461  43.037   7.955
 6576POPC   C4B15754   1.475  43.090   7.655
 6577POPC   NC315755  38.408   8.208   9.455
 6577POPC   PO415756  38.469   8.151   9.155
 6577POPC   GL115757  38.415   8.244   8.855
 6577POPC   GL215758  38.358   8.146   8.855
 6577POPC   C1A15759  38.475   8.184   8.555
 6577POPC   D2A15760  38.421   8.175   8.255
 6577POPC   C3A15761  38.486   8.210   7.955
 6577POPC   C4A15762  38.407   8.239   7.655
 6577POPC   C1B15763  38.218   8.195   8.555
 6577POPC   C2B15764  38.187   8.199   8.255
 6577POPC   C3B15765  38.176   8.203   7.955
 6577POPC   C4B15766  38.219   8.231   7.655
 6578POPC   NC315767   8.959  41.534   9.455
 6578POPC   PO415768   9.001  41.597   9.155
 6578POPC   GL115769   8.933  41.592   8.855
 6578POPC   GL215770   8.888  41.614   8.855
 6578POPC   C1A15771   8.928  41.536   8.555
 6578POPC   D2A15772   8.934  41.559   8.255
 6578POPC   C3A15773   8.993  41.592   7.955
 6578POPC   C4A15774   8.999  41.513   7.655
 6578POPC   C1B15775   8.729  41.666   8.555
 6578POPC   C2B15776   8.778  41.730   8.255
 6578POPC   C3B15777   8.812  41.757   7.955
 6578POPC   C4B15778   8.737  41.719   7.655
 6579POPC   NC315779  42.320  22.920   9.455
 6579POPC   PO415780  42.302  22.916   9.155
 6579POPC   GL115781  42.354  22.924   8.855
 6579POPC   GL215782  42.253  22.847   8.855
 6579POPC   C1A15783  42.365  22.964   8.555
 6579POPC   D2A15784  42.297  22.932   8.255
 6579POPC   C3A15785  42.332  22.933   7.955
 6579POPC   C4A15786  42.332  22.957   7.655
 6579POPC   C1B15787  42.208  22.756   8.555
 6579POPC   C2B15788  42.235  22.770   8.255
 6579POPC   C3B15789  42.170  22.728   7.955
 6579POPC   C4B15790  42.225  22.694   7.655
 6580POPC   NC315791  35.375  12.074   9.455
 6580POPC   PO415792  35.356  12.039   9.155
 6580POPC   GL115793  35.305  12.083   8.855
 6580POPC   GL215794  35.491  12.133   8.855
 6580POPC   C1A15795  35.348  12.096   8.555
 6580POPC   D2A15796  35.305  12.058   8.255
 6580POPC   C3A15797  35.391  12.093   7.955
 6580POPC   C4A15798  35.360  12.116   7.655
 6580POPC   C1B15799  35.585  12.177   8.555
 6580POPC   C2B15800  35.533  12.179   8.255
 6580POPC   C3B15801  35.579  12.193   7.955
 6580POPC   C4B15802  35.581  12.147   7.655
 6581POPC   NC315803  35.316  44.634   9.455
 6581POPC   PO415804  35.332  44.620   9.155
 6581POPC   GL115805  35.364  44.663   8.855
 6581POPC   GL215806  35.469  44.659   8.855
 6581POPC   C1A15807  35.321  44.641   8.555
 6581POPC   D2A15808  35.345  44.686   8.255
 6581POPC   C3A15809  35.326  44.644   7.955
 6581POPC   C4A15810  35.386  44.648   7.655
 6581POPC   C1B15811  35.562  44.597   8.555
 6581POPC   C2B15812  35.583  44.678   8.255
 6581POPC   C3B15813  35.583  44.630   7.955
 6581POPC   C4B15814  35.640  44.600   7.655
 6582POPC   NC315815  36.133  33.052   9.455
 6582POPC   PO415816  36.080  33.074   9.155
 6582POPC   GL115817  36.166  32.974   8.855
 6582POPC   GL215818  36.051  32.939   8.855
 6582POPC   C1A15819  36.121  32.995   8.555
 6582POPC   D2A15820  36.103  33.060   8.255
 6582POPC   C3A15821  36.163  33.056   7.955
 6582POPC   C4A15822  36.145  33.059   7.655
 6582POPC   C1B15823  36.020  32.856   8.555
 6582POPC   C2B15824  36.026  32.771   8.255
 6582POPC   C3B15825  35.954  32.807   7.955
 6582POPC   C4B15826  36.015  32.763   7.655
 6583POPC   NC315827  29.119  11.295   9.455
 6583POPC   PO415828  29.110  11.330   9.155
 6583POPC   GL115829  29.127  11.265   8.855
 6583POPC   GL215830  29.266  11.372   8.855
 6583POPC   C1A15831  29.114  11.255   8.555
 6583POPC   D2A15832  29.185  11.309   8.255
 6583POPC   C3A15833  29.191  11.316   7.955
 6583POPC   C4A15834  29.117  11.311   7.655
 6583POPC   C1B15835  29.357  11.429   8.555
 6583POPC   C2B15836  29.315  11.490   8.255
 6583POPC   C3B15837  29.382  11.427   7.955
 6583POPC   C4B15838  29.305  11.492   7.655
 6584POPC   NC315839  23.733  42.356   9.455
 6584POPC   PO415840  23.719  42.365   9.155
 6584POPC   GL115841  23.759  42.345   8.855
 6584POPC   GL215842  23.820  42.407   8.855
 6584POPC   C1A15843  23.717  42.362   8.555
 6584POPC   D2A15844  23.759  42.367   8.255
 6584POPC   C3A15845  23.677  42.349   7.955
 6584POPC   C4A15846  23.683  42.351   7.655
 6584POPC   C1B15847  23.925  42.458   8.555
 6584POPC   C2B15848  23.950  42.441   8.255
 6584POPC   C3B15849  23.961  42.486   7.955
 6584POPC   C4B15850  23.946  42.397   7.655
 6585POPC   NC315851  30.676  40.002   9.455
 6585POPC   PO415852  30.738  40.021   9.155
 6585POPC   GL115853  30.651  40.024   8.855
 6585POPC   GL215854  30.708  40.123   8.855
 6585POPC   C1A15855  30.725  40.051   8.555
 6585POPC   D2A15856  30.719  40.047   8.255
 6585POPC   C3A15857  30.652  39.990   7.955
 6585POPC   C4A15858  30.681  40.035   7.655
 6585POPC   C1B15859  30.610  40.279   8.555
 6585POPC   C2B15860  30.671  40.230   8.255
 6585POPC   C3B15861  30.686  40.230   7.955
 6585POPC   C4B15862  30.667  40.298   7.655
 6586POPC   NC315863   8.234  43.072   9.455
 6586POPC   PO415864   8.222  43.081   9.155
 6586POPC   GL115865   8.162  43.109   8.855
 6586POPC   GL215866   8.370  43.129   8.855
 6586POPC   C1A15867   8.148  43.076   8.555
 6586POPC   D2A15868   8.153  43.071   8.255
 6586POPC   C3A15869   8.190  43.111   7.955
 6586POPC   C4A15870   8.151  43.130   7.655
 6586POPC   C1B15871   8.429  43.042   8.555
 6586POPC   C2B15872   8.483  43.037   8.255
 6586POPC   C3B15873   8.428  43.084   7.955
 6586POPC   C4B15874   8.415  43.059   7.655
 6587POPC   NC315875   4.344  29.144   9.455
 6587POPC   PO415876   4.301  29.116   9.155
 6587POPC   GL115877   4.285  29.163   8.855
 6587POPC   GL215878   4.377  29.017   8.855
 6587POPC   C1A15879   4.268  29.137   8.555
 6587POPC   D2A15880   4.318  29.193   8.255
 6587POPC   C3A15881   4.273  29.121   7.955
 6587POPC   C4A15882   4.322  29.155   7.655
 6587POPC   C1B15883   4.319  28.911   8.555
 6587POPC   C2B15884   4.370  28.916   8.255
 6587POPC   C3B15885   4.377  28.880   7.955
 6587POPC   C4B15886   4.306  28.861   7.655
 6588POPC   NC315887   6.679   3.512   9.455
 6588POPC   PO415888   6.648   3.492   9.155
 6588POPC   GL115889   6.667   3.506   8.855
 6588POPC   GL215890   6.616   3.465   8.855
 6588POPC   C1A15891   6.641   3.541   8.555
 6588POPC   D2A15892   6.661   3.520   8.255
 6588POPC   C3A15893   6.667   3.552   7.955
 6588POPC   C4A15894   6.681   3.546   7.655
 6588POPC   C1B15895   6.643   3.329   8.555
 6588POPC   C2B15896   6.621   3.269   8.255
 6588POPC   C3B15897   6.634   3.260   7.955
 6588POPC   C4B15898   6.642   3.319   7.655
 6589POPC   NC315899  22.199  43.923   9.455
 6589POPC   PO415900  22.204  43.924   9.155
 6589POPC   GL115901  22.175  43.874   8.855
 6589POPC   GL215902  22.022  43.841   8.855
 6589POPC   C1A15903  22.114  43.901   8.555
 6589POPC   D2A15904  22.168  43.847   8.255
 6589POPC   C3A15905  22.126  43.866   7.955
 6589POPC   C4A15906  22.148  43.851   7.655
 6589POPC   C1B15907  21.958  43.705   8.555
 6589POPC   C2B15908  21.914  43.716   8.255
 6589POPC   C3B15909  21.913  43.753   7.955
 6589POPC   C4B15910  21.909  43.762   7.655
 6590POPC   NC315911  44.614   2.023   9.455
 6590POPC   PO415912  44.674   1.962   9.155
 6590POPC   GL115913  44.696   2.025   8.855
 6590POPC   GL215914  44.733   1.922   8.855
 6590POPC   C1A15915  44.709   1.960   8.555
 6590POPC   D2A15916  44.693   2.015   8.255
 6590POPC   C3A15917  44.692   1.974   7.955
 6590POPC   C4A15918  44.681   2.021   7.655
 6590POPC   C1B15919  44.837   1.752   8.555
 6590POPC   C2B15920  44.787   1.822   8.255
 6590POPC   C3B15921  44.842   1.751   7.955
 6590POPC   C4B15922  44.797   1.842   7.655
 6591POPC   NC315923   5.857  40.765   9.455
 6591POPC   PO415924   5.826  40.806   9.155
 6591POPC   GL115925   5.834  40.760   8.855
 6591POPC   GL215926   5.862  40.855   8.855
 6591POPC   C1A15927   5.842  40.830   8.555
 6591POPC   D2A15928   5.888  40.831   8.255
 6591POPC   C3A15929   5.911  40.767   7.955
 6591POPC   C4A15930   5.819  40.777   7.655
 6591POPC   C1B15931   5.789  41.058   8.555
 6591POPC   C2B15932   5.767  41.052   8.255
 6591POPC   C3B15933   5.744  40.970   7.955
 6591POPC   C4B15934   5.801  41.025   7.655
 6592POPC   NC315935   5.133  42.352   9.455
 6592POPC   PO415936   5.081  42.293   9.155
 6592POPC   GL115937   5.112  42.364   8.855
 6592POPC   GL215938   5.218  42.417   8.855
 6592POPC   C1A15939   5.120  42.317   8.555
 6592POPC   D2A15940   5.123  42.365   8.255
 6592POPC   C3A15941   5.134  42.319   7.955
 6592POPC   C4A15942   5.123  42.347   7.655
 6592POPC   C1B15943   5.347  42.524   8.555
 6592POPC   C2B15944   5.317  42.446   8.255
 6592POPC   C3B15945   5.324  42.495   7.955
 6592POPC   C4B15946   5.284  42.443   7.655
 6593POPC   NC315947   0.445   4.356   9.455
 6593POPC   PO415948   0.472   4.363   9.155
 6593POPC   GL115949   0.485   4.325   8.855
 6593POPC   GL215950   0.521   4.417   8.855
 6593POPC   C1A15951   0.394   4.322   8.555
 6593POPC   D2A15952   0.403   4.292   8.255
 6593POPC   C3A15953   0.479   4.304   7.955
 6593POPC   C4A15954   0.401   4.319   7.655
 6593POPC   C1B15955   0.656   4.406   8.555
 6593POPC   C2B15956   0.677   4.445   8.255
 6593POPC   C3B15957   0.622   4.478   7.955
 6593POPC   C4B15958   0.634   4.459   7.655
 6594POPC   NC315959  22.175   2.800   9.455
 6594POPC   PO415960  22.193   2.756   9.155
 6594POPC   GL115961  22.165   2.812   8.855
 6594POPC   GL215962  22.129   2.683   8.855
 6594POPC   C1A15963  22.170   2.736   8.555
 6594POPC   D2A15964  22.172   2.812   8.255
 6594POPC   C3A15965  22.138   2.765   7.955
 6594POPC   C4A15966  22.208   2.801   7.655
 6594POPC   C1B15967  22.025   2.594   8.555
 6594POPC   C2B15968  22.045   2.501   8.255
 6594POPC   C3B15969  22.073   2.589   7.955
 6594POPC   C4B15970  22.045   2.503   7.655
 6595POPC   NC315971   2.808   1.941   9.455
 6595POPC   PO415972   2.760   2.036   9.155
 6595POPC   GL115973   2.741   2.000   8.855
 6595POPC   GL215974   2.833   1.893   8.855
 6595POPC   C1A15975   2.783   1.959   8.555
 6595POPC   D2A15976   2.790   1.982   8.255
 6595POPC   C3A15977   2.732   1.962   7.955
 6595POPC   C4A15978   2.752   1.941   7.655
 6595POPC   C1B15979   2.979   1.852   8.555
 6595POPC   C2B15980   2.968   1.839   8.255
 6595POPC   C3B15981   2.914   1.831   7.955
 6595POPC   C4B15982   2.930   1.829   7.655
 6596POPC   NC315983  29.882  29.878   9.455
 6596POPC   PO415984  29.956  29.901   9.155
 6596POPC   GL115985  29.967  29.964   8.855
 6596POPC   GL215986  29.856  30.059   8.855
 6596POPC   C1A15987  29.875  29.967   8.555
 6596POPC   D2A15988  29.905  29.907   8.255
 6596POPC   C3A15989  29.946  29.957   7.955
 6596POPC   C4A15990  29.969  29.885   7.655
 6596POPC   C1B15991  29.799  30.156   8.555
 6596POPC   C2B15992  29.869  30.140   8.255
 6596POPC   C3B15993  29.849  30.183   7.955
 6596POPC   C4B15994  29.841  30.154   7.655
 6597POPC   NC315995  12.887   2.765   9.455
 6597POPC   PO415996  12.843   2.727   9.155
 6597POPC   GL115997  12.827   2.771   8.855
 6597POPC   GL215998  12.779   2.706   8.855
 6597POPC   C1A15999  12.848   2.813   8.555
 6597POPC   D2A16000  12.889   2.717   8.255
 6597POPC   C3A16001  12.806   2.734   7.955
 6597POPC   C4A16002  12.847   2.806   7.655
 6597POPC   C1B16003  12.644   2.567   8.555
 6597POPC   C2B16004  12.705   2.554   8.255
 6597POPC   C3B16005  12.663   2.563   7.955
 6597POPC   C4B16006  12.699   2.624   7.655
 6598POPC   NC316007  43.927  22.145   9.455
 6598POPC   PO416008  43.896  22.154   9.155
 6598POPC   GL116009  43.929  22.126   8.855
 6598POPC   GL216010  43.810  22.022   8.855
 6598POPC   C1A16011  43.931  22.185   8.555
 6598POPC   D2A16012  43.840  22.200   8.255
 6598POPC   C3A16013  43.872  22.170   7.955
 6598POPC   C4A16014  43.886  22.201   7.655
 6598POPC   C1B16015  43.768  21.942   8.555
 6598POPC   C2B16016  43.804  21.905   8.255
 6598POPC   C3B16017  43.796  21.921   7.955
 6598POPC   C4B16018  43.777  21.912   7.655
 6599POPC   NC316019  21.388  29.124   9.455
 6599POPC   PO416020  21.363  29.169   9.155
 6599POPC   GL116021  21.356  29.170   8.855
 6599POPC   GL216022  21.472  29.073   8.855
 6599POPC   C1A16023  21.352  29.150   8.555
 6599POPC   D2A16024  21.422  29.114   8.255
 6599POPC   C3A16025  21.393  29.137   7.955
 6599POPC   C4A16026  21.374  29.186   7.655
 6599POPC   C1B16027  21.555  28.959   8.555
 6599POPC   C2B16028  21.515  28.926   8.255
 6599POPC   C3B16029  21.508  28.919   7.955
 6599POPC   C4B16030  21.559  28.935   7.655
 6600POPC   NC316031  16.738  23.717   9.455
 6600POPC   PO416032  16.732  23.741   9.155
 6600POPC   GL116033  16.751  23.725   8.855
 6600POPC   GL216034  16.628  23.793   8.855
 6600POPC   C1A16035  16.753  23.692   8.555
 6600POPC   D2A16036  16.771  23.730   8.255
 6600POPC   C3A16037  16.777  23.741   7.955
 6600POPC   C4A16038  16.701  23.696   7.655
 6600POPC   C1B16039  16.458  23.747   8.555
 6600POPC   C2B16040  16.514  23.782   8.255
 6600POPC   C3B16041  16.461  23.734   7.955
 6600POPC   C4B16042  16.465  23.809   7.655
 6601POPC   NC316043  22.966  16.726   9.455
 6601POPC   PO416044  22.942  16.689   9.155
 6601POPC   GL116045  22.903  16.759   8.855
 6601POPC   GL216046  23.008  16.785   8.855
 6601POPC   C1A16047  22.956  16.739   8.555
 6601POPC   D2A16048  22.900  16.728   8.255
 6601POPC   C3A16049  22.970  16.726   7.955
 6601POPC   C4A16050  22.925  16.740   7.655
 6601POPC   C1B16051  23.182  16.855   8.555
 6601POPC   C2B16052  23.218  16.818   8.255
 6601POPC   C3B16053  23.190  16.861   7.955
 6601POPC   C4B16054  23.182  16.797   7.655
 6602POPC   NC316055   9.755  24.525   9.455
 6602POPC   PO416056   9.704  24.444   9.155
 6602POPC   GL116057   9.758  24.530   8.855
 6602POPC   GL216058   9.671  24.550   8.855
 6602POPC   C1A16059   9.767  24.457   8.555
 6602POPC   D2A16060   9.768  24.520   8.255
 6602POPC   C3A16061   9.708  24.498   7.955
 6602POPC   C4A16062   9.748  24.536   7.655
 6602POPC   C1B16063   9.588  24.694   8.555
 6602POPC   C2B16064   9.623  24.706   8.255
 6602POPC   C3B16065   9.604  24.657   7.955
 6602POPC   C4B16066   9.600  24.640   7.655
 6603POPC   NC316067  12.822  36.894   9.455
 6603POPC   PO416068  12.824  36.856   9.155
 6603POPC   GL116069  12.863  36.885   8.855
 6603POPC   GL216070  12.933  36.968   8.855
 6603POPC   C1A16071  12.876  36.895   8.555
 6603POPC   D2A16072  12.898  36.890   8.255
 6603POPC   C3A16073  12.856  36.922   7.955
 6603POPC   C4A16074  12.853  36.913   7.655
 6603POPC   C1B16075  12.953  37.104   8.555
 6603POPC   C2B16076  12.987  37.103   8.255
 6603POPC   C3B16077  12.925  37.139   7.955
 6603POPC   C4B16078  12.950  37.158   7.655
 6604POPC   NC316079  29.908  15.999   9.455
 6604POPC   PO416080  29.968  15.934   9.155
 6604POPC   GL116081  29.888  15.954   8.855
 6604POPC   GL216082  29.816  16.014   8.855
 6604POPC   C1A16083  29.914  15.935   8.555
 6604POPC   D2A16084  29.883  15.922   8.255
 6604POPC   C3A16085  29.924  15.977   7.955
 6604POPC   C4A16086  29.962  15.936   7.655
 6604POPC   C1B16087  29.763  16.136   8.555
 6604POPC   C2B16088  29.761  16.110   8.255
 6604POPC   C3B16089  29.756  16.114   7.955
 6604POPC   C4B16090  29.682  16.104   7.655
 6605POPC   NC316091  40.775  18.256   9.455
 6605POPC   PO416092  40.824  18.324   9.155
 6605POPC   GL116093  40.745  18.282   8.855
 6605POPC   GL216094  40.903  18.291   8.855
 6605POPC   C1A16095  40.738  18.242   8.555
 6605POPC   D2A16096  40.815  18.276   8.255
 6605POPC   C3A16097  40.765  18.272   7.955
 6605POPC   C4A16098  40.814  18.249   7.655
 6605POPC   C1B16099  40.982  18.242   8.555
 6605POPC   C2B16100  41.022  18.200   8.255
 6605POPC   C3B16101  41.019  18.212   7.955
 6605POPC   C4B16102  41.054  18.237   7.655
 6606POPC   NC316103  15.974  29.185   9.455
 6606POPC   PO416104  15.964  29.147   9.155
 6606POPC   GL116105  15.915  29.134   8.855
 6606POPC   GL216106  15.863  29.176   8.855
 6606POPC   C1A16107  15.906  29.154   8.555
 6606POPC   D2A16108  15.923  29.138   8.255
 6606POPC   C3A16109  15.980  29.194   7.955
 6606POPC   C4A16110  15.951  29.122   7.655
 6606POPC   C1B16111  15.710  29.243   8.555
 6606POPC   C2B16112  15.713  29.251   8.255
 6606POPC   C3B16113  15.724  29.213   7.955
 6606POPC   C4B16114  15.721  29.201   7.655
 6607POPC   NC316115  15.925  35.382   9.455
 6607POPC   PO416116  15.918  35.384   9.155
 6607POPC   GL116117  15.925  35.355   8.855
 6607POPC   GL216118  16.022  35.449   8.855
 6607POPC   C1A16119  15.933  35.373   8.555
 6607POPC   D2A16120  15.973  35.334   8.255
 6607POPC   C3A16121  15.960  35.312   7.955
 6607POPC   C4A16122  15.975  35.321   7.655
 6607POPC   C1B16123  16.202  35.528   8.555
 6607POPC   C2B16124  16.158  35.472   8.255
 6607POPC   C3B16125  16.140  35.497   7.955
 6607POPC   C4B16126  16.126  35.499   7.655
 6608POPC   NC316127   4.298   2.742   9.455
 6608POPC   PO416128   4.274   2.755   9.155
 6608POPC   GL116129   4.317   2.747   8.855
 6608POPC   GL216130   4.252   2.861   8.855
 6608POPC   C1A16131   4.321   2.752   8.555
 6608POPC   D2A16132   4.282   2.759   8.255
 6608POPC   C3A16133   4.348   2.769   7.955
 6608POPC   C4A16134   4.343   2.811   7.655
 6608POPC   C1B16135   4.289   3.030   8.555
 6608POPC   C2B16136   4.256   3.029   8.255
 6608POPC   C3B16137   4.277   3.047   7.955
 6608POPC   C4B16138   4.309   3.011   7.655
 6609POPC   NC316139  40.002   1.249   9.455
 6609POPC   PO416140  39.988   1.219   9.155
 6609POPC   GL116141  40.035   1.198   8.855
 6609POPC   GL216142  39.929   1.308   8.855
 6609POPC   C1A16143  40.057   1.199   8.555
 6609POPC   D2A16144  40.027   1.204   8.255
 6609POPC   C3A16145  39.978   1.252   7.955
 6609POPC   C4A16146  39.983   1.209   7.655
 6609POPC   C1B16147  39.833   1.361   8.555
 6609POPC   C2B16148  39.820   1.343   8.255
 6609POPC   C3B16149  39.780   1.321   7.955
 6609POPC   C4B16150  39.778   1.337   7.655
 6610POPC   NC316151  30.726  36.890   9.455
 6610POPC   PO416152  30.663  36.880   9.155
 6610POPC   GL116153  30.710  36.870   8.855
 6610POPC   GL216154  30.767  36.817   8.855
 6610POPC   C1A16155  30.714  36.905   8.555
 6610POPC   D2A16156  30.739  36.910   8.255
 6610POPC   C3A16157  30.716  36.876   7.955
 6610POPC   C4A16158  30.745  36.885   7.655
 6610POPC   C1B16159  30.842  36.650   8.555
 6610POPC   C2B16160  30.843  36.730   8.255
 6610POPC   C3B16161  30.842  36.727   7.955
 6610POPC   C4B16162  30.860  36.703   7.655
 6611POPC   NC316163   1.187  40.747   9.455
 6611POPC   PO416164   1.240  40.735   9.155
 6611POPC   GL116165   1.253  40.807   8.855
 6611POPC   GL216166   1.321  40.791   8.855
 6611POPC   C1A16167   1.179  40.791   8.555
 6611POPC   D2A16168   1.234  40.738   8.255
 6611POPC   C3A16169   1.254  40.779   7.955
 6611POPC   C4A16170   1.196  40.814   7.655
 6611POPC   C1B16171   1.492  40.795   8.555
 6611POPC   C2B16172   1.483  40.812   8.255
 6611POPC   C3B16173   1.469  40.763   7.955
 6611POPC   C4B16174   1.490  40.738   7.655
 6612POPC   NC316175  33.761  10.550   9.455
 6612POPC   PO416176  33.773  10.489   9.155
 6612POPC   GL116177  33.824  10.554   8.855
 6612POPC   GL216178  33.738  10.628   8.855
 6612POPC   C1A16179  33.786  10.511   8.555
 6612POPC   D2A16180  33.806  10.502   8.255
 6612POPC   C3A16181  33.849  10.528   7.955
 6612POPC   C4A16182  33.848  10.522   7.655
 6612POPC   C1B16183  33.633  10.754   8.555
 6612POPC   C2B16184  33.632  10.660   8.255
 6612POPC   C3B16185  33.596  10.728   7.955
 6612POPC   C4B16186  33.637  10.657   7.655
 6613POPC   NC316187  44.704  13.627   9.455
 6613POPC   PO416188  44.654  13.663   9.155
 6613POPC   GL116189  44.690  13.624   8.855
 6613POPC   GL216190  44.550  13.640   8.855
 6613POPC   C1A16191  44.708  13.590   8.555
 6613POPC   D2A16192  44.633  13.631   8.255
 6613POPC   C3A16193  44.669  13.635   7.955
 6613POPC   C4A16194  44.677  13.601   7.655
 6613POPC   C1B16195  44.366  13.642   8.555
 6613POPC   C2B16196  44.458  13.607   8.255
 6613POPC   C3B16197  44.409  13.586   7.955
 6613POPC   C4B16198  44.452  13.590   7.655
 6614POPC   NC316199  34.580   2.007   9.455
 6614POPC   PO416200  34.568   1.942   9.155
 6614POPC   GL116201  34.596   2.025   8.855
 6614POPC   GL216202  34.640   2.100   8.855
 6614POPC   C1A16203  34.533   1.951   8.555
 6614POPC   D2A16204  34.555   2.009   8.255
 6614POPC   C3A16205  34.583   1.942   7.955
 6614POPC   C4A16206  34.588   1.979   7.655
 6614POPC   C1B16207  34.657   2.244   8.555
 6614POPC   C2B16208  34.618   2.178   8.255
 6614POPC   C3B16209  34.686   2.193   7.955
 6614POPC   C4B16210  34.663   2.245   7.655
 6615POPC   NC316211  19.027   5.916   9.455
 6615POPC   PO416212  19.062   5.849   9.155
 6615POPC   GL116213  19.098   5.901   8.855
 6615POPC   GL216214  18.973   5.923   8.855
 6615POPC   C1A16215  19.020   5.835   8.555
 6615POPC   D2A16216  19.050   5.889   8.255
 6615POPC   C3A16217  19.050   5.912   7.955
 6615POPC   C4A16218  19.102   5.827   7.655
 6615POPC   C1B16219  18.895   6.082   8.555
 6615POPC   C2B16220  18.850   6.072   8.255
 6615POPC   C3B16221  18.871   6.080   7.955
 6615POPC   C4B16222  18.850   6.097   7.655
 6616POPC   NC316223  18.241   9.008   9.455
 6616POPC   PO416224  18.279   8.965   9.155
 6616POPC   GL116225  18.297   9.006   8.855
 6616POPC   GL216226  18.342   9.026   8.855
 6616POPC   C1A16227  18.317   8.939   8.555
 6616POPC   D2A16228  18.233   8.946   8.255
 6616POPC   C3A16229  18.291   8.972   7.955
 6616POPC   C4A16230  18.300   9.018   7.655
 6616POPC   C1B16231  18.498   9.187   8.555
 6616POPC   C2B16232  18.490   9.169   8.255
 6616POPC   C3B16233  18.478   9.137   7.955
 6616POPC   C4B16234  18.504   9.138   7.655
 6617POPC   NC316235  35.368   5.076   9.455
 6617POPC   PO416236  35.395   5.088   9.155
 6617POPC   GL116237  35.384   5.053   8.855
 6617POPC   GL216238  35.293   4.982   8.855
 6617POPC   C1A16239  35.397   5.103   8.555
 6617POPC   D2A16240  35.398   5.110   8.255
 6617POPC   C3A16241  35.392   5.106   7.955
 6617POPC   C4A16242  35.320   5.111   7.655
 6617POPC   C1B16243  35.196   4.931   8.555
 6617POPC   C2B16244  35.163   4.941   8.255
 6617POPC   C3B16245  35.192   4.943   7.955
 6617POPC   C4B16246  35.193   4.905   7.655
 6618POPC   NC316247  15.129   2.810   9.455
 6618POPC   PO416248  15.188   2.777   9.155
 6618POPC   GL116249  15.150   2.758   8.855
 6618POPC   GL216250  15.169   2.934   8.855
 6618POPC   C1A16251  15.191   2.787   8.555
 6618POPC   D2A16252  15.194   2.793   8.255
 6618POPC   C3A16253  15.203   2.806   7.955
 6618POPC   C4A16254  15.164   2.721   7.655
 6618POPC   C1B16255  15.225   2.984   8.555
 6618POPC   C2B16256  15.155   3.029   8.255
 6618POPC   C3B16257  15.178   2.990   7.955
 6618POPC   C4B16258  15.228   2.981   7.655
 6619POPC   NC316259  43.838  19.859   9.455
 6619POPC   PO416260  43.879  19.819   9.155
 6619POPC   GL116261  43.882  19.874   8.855
 6619POPC   GL216262  43.927  19.725   8.855
 6619POPC   C1A16263  43.914  19.865   8.555
 6619POPC   D2A16264  43.902  19.804   8.255
 6619POPC   C3A16265  43.907  19.871   7.955
 6619POPC   C4A16266  43.912  19.837   7.655
 6619POPC   C1B16267  43.907  19.539   8.555
 6619POPC   C2B16268  43.970  19.561   8.255
 6619POPC   C3B16269  43.950  19.595   7.955
 6619POPC   C4B16270  43.970  19.562   7.655
 6620POPC   NC316271  10.545  44.704   9.455
 6620POPC   PO416272  10.477  44.706   9.155
 6620POPC   GL116273  10.546  44.623   8.855
 6620POPC   GL216274  10.566  44.546   8.855
 6620POPC   C1A16275  10.538  44.645   8.555
 6620POPC   D2A16276  10.509  44.681   8.255
 6620POPC   C3A16277  10.553  44.619   7.955
 6620POPC   C4A16278  10.489  44.628   7.655
 6620POPC   C1B16279  10.661  44.474   8.555
 6620POPC   C2B16280  10.633  44.394   8.255
 6620POPC   C3B16281  10.624  44.454   7.955
 6620POPC   C4B16282  10.661  44.385   7.655
 6621POPC   NC316283   5.899   8.221   9.455
 6621POPC   PO416284   5.875   8.239   9.155
 6621POPC   GL116285   5.888   8.180   8.855
 6621POPC   GL216286   5.765   8.038   8.855
 6621POPC   C1A16287   5.894   8.179   8.555
 6621POPC   D2A16288   5.918   8.166   8.255
 6621POPC   C3A16289   5.882   8.216   7.955
 6621POPC   C4A16290   5.895   8.191   7.655
 6621POPC   C1B16291   5.740   7.949   8.555
 6621POPC   C2B16292   5.802   7.999   8.255
 6621POPC   C3B16293   5.790   7.945   7.955
 6621POPC   C4B16294   5.779   7.948   7.655
 6622POPC   NC316295  26.055  26.859   9.455
 6622POPC   PO416296  26.042  26.785   9.155
 6622POPC   GL116297  25.993  26.847   8.855
 6622POPC   GL216298  26.068  26.662   8.855
 6622POPC   C1A16299  26.077  26.774   8.555
 6622POPC   D2A16300  26.089  26.806   8.255
 6622POPC   C3A16301  26.072  26.812   7.955
 6622POPC   C4A16302  26.089  26.855   7.655
 6622POPC   C1B16303  26.196  26.547   8.555
 6622POPC   C2B16304  26.190  26.636   8.255
 6622POPC   C3B16305  26.127  26.564   7.955
 6622POPC   C4B16306  26.161  26.601   7.655
 6623POPC   NC316307  22.195  25.302   9.455
 6623POPC   PO416308  22.144  25.288   9.155
 6623POPC   GL116309  22.144  25.300   8.855
 6623POPC   GL216310  22.277  25.169   8.855
 6623POPC   C1A16311  22.195  25.271   8.555
 6623POPC   D2A16312  22.119  25.263   8.255
 6623POPC   C3A16313  22.206  25.263   7.955
 6623POPC   C4A16314  22.121  25.248   7.655
 6623POPC   C1B16315  22.401  25.099   8.555
 6623POPC   C2B16316  22.408  25.095   8.255
 6623POPC   C3B16317  22.337  25.125   7.955
 6623POPC   C4B16318  22.386  25.136   7.655
 6624POPC   NC316319  36.136  18.287   9.455
 6624POPC   PO416320  36.094  18.266   9.155
 6624POPC   GL116321  36.094  18.331   8.855
 6624POPC   GL216322  36.298  18.330   8.855
 6624POPC   C1A16323  36.092  18.244   8.555
 6624POPC   D2A16324  36.167  18.257   8.255
 6624POPC   C3A16325  36.122  18.281   7.955
 6624POPC   C4A16326  36.137  18.301   7.655
 6624POPC   C1B16327  36.427  18.308   8.555
 6624POPC   C2B16328  36.342  18.282   8.255
 6624POPC   C3B16329  36.357  18.329   7.955
 6624POPC   C4B16330  36.400  18.252   7.655
 6625POPC   NC316331   2.794  43.843   9.455
 6625POPC   PO416332   2.781  43.904   9.155
 6625POPC   GL116333   2.737  43.854   8.855
 6625POPC   GL216334   2.777  43.991   8.855
 6625POPC   C1A16335   2.735  43.872   8.555
 6625POPC   D2A16336   2.756  43.915   8.255
 6625POPC   C3A16337   2.756  43.895   7.955
 6625POPC   C4A16338   2.814  43.903   7.655
 6625POPC   C1B16339   2.655  44.124   8.555
 6625POPC   C2B16340   2.667  44.111   8.255
 6625POPC   C3B16341   2.682  44.085   7.955
 6625POPC   C4B16342   2.709  44.170   7.655
 6626POPC   NC316343  20.626  32.269   9.455
 6626POPC   PO416344  20.658  32.212   9.155
 6626POPC   GL116345  20.615  32.210   8.855
 6626POPC   GL216346  20.633  32.336   8.855
 6626POPC   C1A16347  20.655  32.285   8.555
 6626POPC   D2A16348  20.593  32.246   8.255
 6626POPC   C3A16349  20.609  32.283   7.955
 6626POPC   C4A16350  20.646  32.208   7.655
 6626POPC   C1B16351  20.667  32.534   8.555
 6626POPC   C2B16352  20.637  32.456   8.255
 6626POPC   C3B16353  20.650  32.466   7.955
 6626POPC   C4B16354  20.658  32.522   7.655
 6627POPC   NC316355  22.968   1.193   9.455
 6627POPC   PO416356  22.936   1.248   9.155
 6627POPC   GL116357  22.919   1.222   8.855
 6627POPC   GL216358  23.013   1.292   8.855
 6627POPC   C1A16359  22.914   1.248   8.555
 6627POPC   D2A16360  22.926   1.166   8.255
 6627POPC   C3A16361  22.892   1.190   7.955
 6627POPC   C4A16362  22.937   1.200   7.655
 6627POPC   C1B16363  23.153   1.413   8.555
 6627POPC   C2B16364  23.104   1.358   8.255
 6627POPC   C3B16365  23.117   1.364   7.955
 6627POPC   C4B16366  23.136   1.368   7.655
 6628POPC   NC316367  40.793   9.747   9.455
 6628POPC   PO416368  40.811   9.713   9.155
 6628POPC   GL116369  40.778   9.724   8.855
 6628POPC   GL216370  40.840   9.676   8.855
 6628POPC   C1A16371  40.779   9.787   8.555
 6628POPC   D2A16372  40.821   9.729   8.255
 6628POPC   C3A16373  40.805   9.755   7.955
 6628POPC   C4A16374  40.827   9.702   7.655
 6628POPC   C1B16375  40.986   9.515   8.555
 6628POPC   C2B16376  40.959   9.578   8.255
 6628POPC   C3B16377  40.930   9.555   7.955
 6628POPC   C4B16378  40.996   9.527   7.655
 6629POPC   NC316379  22.978   2.800   9.455
 6629POPC   PO416380  22.916   2.795   9.155
 6629POPC   GL116381  22.952   2.733   8.855
 6629POPC   GL216382  23.071   2.850   8.855
 6629POPC   C1A16383  22.965   2.789   8.555
 6629POPC   D2A16384  22.912   2.811   8.255
 6629POPC   C3A16385  22.895   2.725   7.955
 6629POPC   C4A16386  22.894   2.809   7.655
 6629POPC   C1B16387  23.135   2.943   8.555
 6629POPC   C2B16388  23.086   2.957   8.255
 6629POPC   C3B16389  23.115   2.916   7.955
 6629POPC   C4B16390  23.122   2.993   7.655
 6630POPC   NC316391  23.746  44.621   9.455
 6630POPC   PO416392  23.735  44.693   9.155
 6630POPC   GL116393  23.690  44.636   8.855
 6630POPC   GL216394  23.553  44.678   8.855
 6630POPC   C1A16395  23.764  44.661   8.555
 6630POPC   D2A16396  23.700  44.682   8.255
 6630POPC   C3A16397  23.742  44.619   7.955
 6630POPC   C4A16398  23.695  44.645   7.655
 6630POPC   C1B16399  23.527  44.736   8.555
 6630POPC   C2B16400  23.507  44.801   8.255
 6630POPC   C3B16401  23.524  44.791   7.955
 6630POPC   C4B16402  23.474  44.746   7.655
 6631POPC   NC316403  11.345  44.673   9.455
 6631POPC   PO416404  11.322  44.613   9.155
 6631POPC   GL116405  11.280  44.626   8.855
 6631POPC   GL216406  11.332  44.756   8.855
 6631POPC   C1A16407  11.251  44.615   8.555
 6631POPC   D2A16408  11.291  44.699   8.255
 6631POPC   C3A16409  11.319  44.644   7.955
 6631POPC   C4A16410  11.311  44.683   7.655
 6631POPC   C1B16411  11.261  44.921   8.555
 6631POPC   C2B16412  11.277  44.959   8.255
 6631POPC   C3B16413  11.253  44.861   7.955
 6631POPC   C4B16414  11.277  44.931   7.655
 6632POPC   NC316415  21.353  43.116   9.455
 6632POPC   PO416416  21.395  43.067   9.155
 6632POPC   GL116417  21.378  43.126   8.855
 6632POPC   GL216418  21.233  43.039   8.855
 6632POPC   C1A16419  21.374  43.117   8.555
 6632POPC   D2A16420  21.421  43.154   8.255
 6632POPC   C3A16421  21.384  43.112   7.955
 6632POPC   C4A16422  21.399  43.141   7.655
 6632POPC   C1B16423  21.184  42.975   8.555
 6632POPC   C2B16424  21.160  42.974   8.255
 6632POPC   C3B16425  21.131  42.982   7.955
 6632POPC   C4B16426  21.137  42.964   7.655
 6633POPC   NC316427  39.233  22.976   9.455
 6633POPC   PO416428  39.232  22.896   9.155
 6633POPC   GL116429  39.245  22.906   8.855
 6633POPC   GL216430  39.225  22.819   8.855
 6633POPC   C1A16431  39.183  22.985   8.555
 6633POPC   D2A16432  39.206  22.933   8.255
 6633POPC   C3A16433  39.240  22.965   7.955
 6633POPC   C4A16434  39.220  22.925   7.655
 6633POPC   C1B16435  39.147  22.738   8.555
 6633POPC   C2B16436  39.135  22.667   8.255
 6633POPC   C3B16437  39.158  22.722   7.955
 6633POPC   C4B16438  39.102  22.674   7.655
 6634POPC   NC316439  20.638  12.881   9.455
 6634POPC   PO416440  20.587  12.857   9.155
 6634POPC   GL116441  20.601  12.839   8.855
 6634POPC   GL216442  20.698  12.736   8.855
 6634POPC   C1A16443  20.653  12.887   8.555
 6634POPC   D2A16444  20.657  12.869   8.255
 6634POPC   C3A16445  20.617  12.810   7.955
 6634POPC   C4A16446  20.570  12.811   7.655
 6634POPC   C1B16447  20.717  12.635   8.555
 6634POPC   C2B16448  20.725  12.610   8.255
 6634POPC   C3B16449  20.753  12.680   7.955
 6634POPC   C4B16450  20.701  12.649   7.655
 6635POPC   NC316451  40.805  10.534   9.455
 6635POPC   PO416452  40.829  10.483   9.155
 6635POPC   GL116453  40.744  10.510   8.855
 6635POPC   GL216454  40.741  10.440   8.855
 6635POPC   C1A16455  40.748  10.560   8.555
 6635POPC   D2A16456  40.830  10.493   8.255
 6635POPC   C3A16457  40.756  10.493   7.955
 6635POPC   C4A16458  40.770  10.476   7.655
 6635POPC   C1B16459  40.672  10.283   8.555
 6635POPC   C2B16460  40.620  10.314   8.255
 6635POPC   C3B16461  40.596  10.305   7.955
 6635POPC   C4B16462  40.652  10.331   7.655
 6636POPC   NC316463   7.447  15.973   9.455
 6636POPC   PO416464   7.407  15.964   9.155
 6636POPC   GL116465   7.408  15.912   8.855
 6636POPC   GL216466   7.300  16.006   8.855
 6636POPC   C1A16467   7.468  15.948   8.555
 6636POPC   D2A16468   7.434  15.976   8.255
 6636POPC   C3A16469   7.462  15.954   7.955
 6636POPC   C4A16470   7.467  15.972   7.655
 6636POPC   C1B16471   7.233  16.047   8.555
 6636POPC   C2B16472   7.197  16.085   8.255
 6636POPC   C3B16473   7.156  16.020   7.955
 6636POPC   C4B16474   7.177  16.095   7.655
 6637POPC   NC316475   2.727   5.869   9.455
 6637POPC   PO416476   2.782   5.854   9.155
 6637POPC   GL116477   2.787   5.856   8.855
 6637POPC   GL216478   2.850   5.806   8.855
 6637POPC   C1A16479   2.762   5.890   8.555
 6637POPC   D2A16480   2.801   5.905   8.255
 6637POPC   C3A16481   2.804   5.852   7.955
 6637POPC   C4A16482   2.744   5.828   7.655
 6637POPC   C1B16483   2.881   5.633   8.555
 6637POPC   C2B16484   2.883   5.625   8.255
 6637POPC   C3B16485   2.926   5.696   7.955
 6637POPC   C4B16486   2.939   5.691   7.655
 6638POPC   NC316487  29.167   0.389   9.455
 6638POPC   PO416488  29.182   0.475   9.155
 6638POPC   GL116489  29.104   0.450   8.855
 6638POPC   GL216490  29.060   0.378   8.855
 6638POPC   C1A16491  29.127   0.484   8.555
 6638POPC   D2A16492  29.180   0.474   8.255
 6638POPC   C3A16493  29.134   0.420   7.955
 6638POPC   C4A16494  29.169   0.417   7.655
 6638POPC   C1B16495  28.941   0.314   8.555
 6638POPC   C2B16496  28.955   0.322   8.255
 6638POPC   C3B16497  28.882   0.375   7.955
 6638POPC   C4B16498  28.912   0.348   7.655
 6639POPC   NC316499  29.131   2.008   9.455
 6639POPC   PO416500  29.104   1.987   9.155
 6639POPC   GL116501  29.146   2.019   8.855
 6639POPC   GL216502  29.211   2.059   8.855
 6639POPC   C1A16503  29.177   1.997   8.555
 6639POPC   D2A16504  29.116   1.940   8.255
 6639POPC   C3A16505  29.124   1.952   7.955
 6639POPC   C4A16506  29.111   2.024   7.655
 6639POPC   C1B16507  29.329   2.190   8.555
 6639POPC   C2B16508  29.289   2.229   8.255
 6639POPC   C3B16509  29.310   2.199   7.955
 6639POPC   C4B16510  29.237   2.244   7.655
 6640POPC   NC316511  32.285  29.901   9.455
 6640POPC   PO416512  32.274  29.953   9.155
 6640POPC   GL116513  32.249  29.950   8.855
 6640POPC   GL216514  32.099  29.926   8.855
 6640POPC   C1A16515  32.224  29.935   8.555
 6640POPC   D2A16516  32.245  29.902   8.255
 6640POPC   C3A16517  32.204  29.953   7.955
 6640POPC   C4A16518  32.215  29.911   7.655
 6640POPC   C1B16519  32.031  29.956   8.555
 6640POPC   C2B16520  32.018  29.935   8.255
 6640POPC   C3B16521  32.044  29.893   7.955
 6640POPC   C4B16522  32.045  29.878   7.655
 6641POPC   NC316523   4.347   9.710   9.455
 6641POPC   PO416524   4.305   9.737   9.155
 6641POPC   GL116525   4.323   9.795   8.855
 6641POPC   GL216526   4.203   9.751   8.855
 6641POPC   C1A16527   4.331   9.783   8.555
 6641POPC   D2A16528   4.311   9.761   8.255
 6641POPC   C3A16529   4.326   9.718   7.955
 6641POPC   C4A16530   4.344   9.730   7.655
 6641POPC   C1B16531   4.054   9.801   8.555
 6641POPC   C2B16532   4.027   9.771   8.255
 6641POPC   C3B16533   4.084   9.751   7.955
 6641POPC   C4B16534   4.070   9.808   7.655
 6642POPC   NC316535  27.581  42.309   9.455
 6642POPC   PO416536  27.549  42.286   9.155
 6642POPC   GL116537  27.596  42.374   8.855
 6642POPC   GL216538  27.538  42.226   8.855
 6642POPC   C1A16539  27.579  42.346   8.555
 6642POPC   D2A16540  27.586  42.334   8.255
 6642POPC   C3A16541  27.624  42.375   7.955
 6642POPC   C4A16542  27.633  42.357   7.655
 6642POPC   C1B16543  27.425  42.174   8.555
 6642POPC   C2B16544  27.447  42.147   8.255
 6642POPC   C3B16545  27.469  42.127   7.955
 6642POPC   C4B16546  27.490  42.102   7.655
 6643POPC   NC316547   1.966   1.202   9.455
 6643POPC   PO416548   1.977   1.187   9.155
 6643POPC   GL116549   2.004   1.190   8.855
 6643POPC   GL216550   2.066   1.196   8.855
 6643POPC   C1A16551   1.985   1.253   8.555
 6643POPC   D2A16552   1.965   1.210   8.255
 6643POPC   C3A16553   2.009   1.261   7.955
 6643POPC   C4A16554   2.024   1.203   7.655
 6643POPC   C1B16555   2.226   1.304   8.555
 6643POPC   C2B16556   2.254   1.223   8.255
 6643POPC   C3B16557   2.253   1.261   7.955
 6643POPC   C4B16558   2.271   1.233   7.655
 6644POPC   NC316559  43.917  39.235   9.455
 6644POPC   PO416560  43.878  39.230   9.155
 6644POPC   GL116561  43.871  39.202   8.855
 6644POPC   GL216562  43.803  39.181   8.855
 6644POPC   C1A16563  43.910  39.243   8.555
 6644POPC   D2A16564  43.885  39.250   8.255
 6644POPC   C3A16565  43.893  39.236   7.955
 6644POPC   C4A16566  43.916  39.245   7.655
 6644POPC   C1B16567  43.620  39.112   8.555
 6644POPC   C2B16568  43.638  39.181   8.255
 6644POPC   C3B16569  43.646  39.108   7.955
 6644POPC   C4B16570  43.612  39.110   7.655
 6645POPC   NC316571  35.354  26.804   9.455
 6645POPC   PO416572  35.309  26.778   9.155
 6645POPC   GL116573  35.368  26.832   8.855
 6645POPC   GL216574  35.468  26.851   8.855
 6645POPC   C1A16575  35.383  26.854   8.555
 6645POPC   D2A16576  35.356  26.771   8.255
 6645POPC   C3A16577  35.325  26.802   7.955
 6645POPC   C4A16578  35.316  26.856   7.655
 6645POPC   C1B16579  35.572  26.893   8.555
 6645POPC   C2B16580  35.584  26.880   8.255
 6645POPC   C3B16581  35.641  26.873   7.955
 6645POPC   C4B16582  35.644  26.826   7.655
 6646POPC   NC316583  12.888   6.642   9.455
 6646POPC   PO416584  12.886   6.597   9.155
 6646POPC   GL116585  12.888   6.683   8.855
 6646POPC   GL216586  12.752   6.537   8.855
 6646POPC   C1A16587  12.863   6.619   8.555
 6646POPC   D2A16588  12.813   6.638   8.255
 6646POPC   C3A16589  12.840   6.625   7.955
 6646POPC   C4A16590  12.870   6.622   7.655
 6646POPC   C1B16591  12.671   6.529   8.555
 6646POPC   C2B16592  12.671   6.516   8.255
 6646POPC   C3B16593  12.675   6.504   7.955
 6646POPC   C4B16594  12.598   6.539   7.655
 6647POPC   NC316595  19.853  29.936   9.455
 6647POPC   PO416596  19.836  29.946   9.155
 6647POPC   GL116597  19.872  29.955   8.855
 6647POPC   GL216598  19.926  29.844   8.855
 6647POPC   C1A16599  19.843  29.904   8.555
 6647POPC   D2A16600  19.847  29.929   8.255
 6647POPC   C3A16601  19.798  29.889   7.955
 6647POPC   C4A16602  19.884  29.927   7.655
 6647POPC   C1B16603  20.071  29.790   8.555
 6647POPC   C2B16604  20.084  29.774   8.255
 6647POPC   C3B16605  20.053  29.776   7.955
 6647POPC   C4B16606  20.074  29.777   7.655
 6648POPC   NC316607  38.485  19.787   9.455
 6648POPC   PO416608  38.450  19.847   9.155
 6648POPC   GL116609  38.461  19.830   8.855
 6648POPC   GL216610  38.551  19.864   8.855
 6648POPC   C1A16611  38.479  19.883   8.555
 6648POPC   D2A16612  38.414  19.824   8.255
 6648POPC   C3A16613  38.435  19.804   7.955
 6648POPC   C4A16614  38.481  19.811   7.655
 6648POPC   C1B16615  38.646  19.909   8.555
 6648POPC   C2B16616  38.667  19.955   8.255
 6648POPC   C3B16617  38.666  19.990   7.955
 6648POPC   C4B16618  38.634  19.962   7.655
 6649POPC   NC316619   9.729  34.617   9.455
 6649POPC   PO416620   9.766  34.572   9.155
 6649POPC   GL116621   9.744  34.600   8.855
 6649POPC   GL216622   9.611  34.492   8.855
 6649POPC   C1A16623   9.729  34.532   8.555
 6649POPC   D2A16624   9.796  34.586   8.255
 6649POPC   C3A16625   9.740  34.545   7.955
 6649POPC   C4A16626   9.790  34.574   7.655
 6649POPC   C1B16627   9.494  34.492   8.555
 6649POPC   C2B16628   9.547  34.451   8.255
 6649POPC   C3B16629   9.494  34.472   7.955
 6649POPC   C4B16630   9.549  34.491   7.655
 6650POPC   NC316631  29.876  43.137   9.455
 6650POPC   PO416632  29.929  43.063   9.155
 6650POPC   GL116633  29.931  43.079   8.855
 6650POPC   GL216634  30.034  43.083   8.855
 6650POPC   C1A16635  29.884  43.109   8.555
 6650POPC   D2A16636  29.887  43.108   8.255
 6650POPC   C3A16637  29.960  43.069   7.955
 6650POPC   C4A16638  29.951  43.092   7.655
 6650POPC   C1B16639  30.198  43.118   8.555
 6650POPC   C2B16640  30.204  43.102   8.255
 6650POPC   C3B16641  30.192  43.152   7.955
 6650POPC   C4B16642  30.166  43.088   7.655
 6651POPC   NC316643  40.794  32.215   9.455
 6651POPC   PO416644  40.829  32.207   9.155
 6651POPC   GL116645  40.740  32.277   8.855
 6651POPC   GL216646  40.718  32.167   8.855
 6651POPC   C1A16647  40.804  32.247   8.555
 6651POPC   D2A16648  40.809  32.238   8.255
 6651POPC   C3A16649  40.783  32.261   7.955
 6651POPC   C4A16650  40.740  32.273   7.655
 6651POPC   C1B16651  40.618  32.100   8.555
 6651POPC   C2B16652  40.630  32.050   8.255
 6651POPC   C3B16653  40.544  32.061   7.955
 6651POPC   C4B16654  40.580  32.037   7.655
 6652POPC   NC316655   4.286  36.882   9.455
 6652POPC   PO416656   4.332  36.949   9.155
 6652POPC   GL116657   4.294  36.945   8.855
 6652POPC   GL216658   4.290  36.971   8.855
 6652POPC   C1A16659   4.346  36.896   8.555
 6652POPC   D2A16660   4.268  36.873   8.255
 6652POPC   C3A16661   4.339  36.911   7.955
 6652POPC   C4A16662   4.276  36.917   7.655
 6652POPC   C1B16663   4.159  37.101   8.555
 6652POPC   C2B16664   4.123  37.116   8.255
 6652POPC   C3B16665   4.206  37.098   7.955
 6652POPC   C4B16666   4.179  37.100   7.655
 6653POPC   NC316667  26.799   0.415   9.455
 6653POPC   PO416668  26.780   0.388   9.155
 6653POPC   GL116669  26.810   0.432   8.855
 6653POPC   GL216670  26.843   0.285   8.855
 6653POPC   C1A16671  26.798   0.445   8.555
 6653POPC   D2A16672  26.800   0.444   8.255
 6653POPC   C3A16673  26.795   0.408   7.955
 6653POPC   C4A16674  26.812   0.462   7.655
 6653POPC   C1B16675  26.820   0.159   8.555
 6653POPC   C2B16676  26.767   0.154   8.255
 6653POPC   C3B16677  26.755   0.169   7.955
 6653POPC   C4B16678  26.817   0.143   7.655
 6654POPC   NC316679   3.586   8.181   9.455
 6654POPC   PO416680   3.579   8.195   9.155
 6654POPC   GL116681   3.508   8.171   8.855
 6654POPC   GL216682   3.380   8.151   8.855
 6654POPC   C1A16683   3.496   8.245   8.555
 6654POPC   D2A16684   3.519   8.215   8.255
 6654POPC   C3A16685   3.529   8.221   7.955
 6654POPC   C4A16686   3.587   8.219   7.655
 6654POPC   C1B16687   3.366   8.087   8.555
 6654POPC   C2B16688   3.287   8.118   8.255
 6654POPC   C3B16689   3.359   8.080   7.955
 6654POPC   C4B16690   3.324   8.082   7.655
 6655POPC   NC316691  16.736  11.315   9.455
 6655POPC   PO416692  16.775  11.313   9.155
 6655POPC   GL116693  16.722  11.299   8.855
 6655POPC   GL216694  16.876  11.385   8.855
 6655POPC   C1A16695  16.696  11.267   8.555
 6655POPC   D2A16696  16.691  11.294   8.255
 6655POPC   C3A16697  16.772  11.306   7.955
 6655POPC   C4A16698  16.721  11.287   7.655
 6655POPC   C1B16699  16.961  11.400   8.555
 6655POPC   C2B16700  16.942  11.369   8.255
 6655POPC   C3B16701  16.992  11.415   7.955
 6655POPC   C4B16702  16.981  11.383   7.655
 6656POPC   NC316703  38.446  43.152   9.455
 6656POPC   PO416704  38.478  43.063   9.155
 6656POPC   GL116705  38.489  43.133   8.855
 6656POPC   GL216706  38.547  43.113   8.855
 6656POPC   C1A16707  38.463  43.141   8.555
 6656POPC   D2A16708  38.416  43.153   8.255
 6656POPC   C3A16709  38.459  43.159   7.955
 6656POPC   C4A16710  38.451  43.091   7.655
 6656POPC   C1B16711  38.716  43.232   8.555
 6656POPC   C2B16712  38.642  43.220   8.255
 6656POPC   C3B16713  38.690  43.165   7.955
 6656POPC   C4B16714  38.663  43.155   7.655
 6657POPC   NC316715  12.809  43.060   9.455
 6657POPC   PO416716  12.886  43.105   9.155
 6657POPC   GL116717  12.878  43.076   8.855
 6657POPC   GL216718  12.952  43.064   8.855
 6657POPC   C1A16719  12.845  43.108   8.555
 6657POPC   D2A16720  12.825  43.127   8.255
 6657POPC   C3A16721  12.881  43.143   7.955
 6657POPC   C4A16722  12.861  43.103   7.655
 6657POPC   C1B16723  13.113  43.019   8.555
 6657POPC   C2B16724  13.095  43.037   8.255
 6657POPC   C3B16725  13.074  42.962   7.955
 6657POPC   C4B16726  13.113  42.950   7.655
 6658POPC   NC316727  37.664  12.121   9.455
 6658POPC   PO416728  37.647  12.121   9.155
 6658POPC   GL116729  37.715  12.109   8.855
 6658POPC   GL216730  37.546  12.063   8.855
 6658POPC   C1A16731  37.634  12.035   8.555
 6658POPC   D2A16732  37.639  12.060   8.255
 6658POPC   C3A16733  37.655  12.096   7.955
 6658POPC   C4A16734  37.723  12.028   7.655
 6658POPC   C1B16735  37.396  11.961   8.555
 6658POPC   C2B16736  37.470  12.059   8.255
 6658POPC   C3B16737  37.406  11.999   7.955
 6658POPC   C4B16738  37.395  12.012   7.655
 6659POPC   NC316739   2.771  19.012   9.455
 6659POPC   PO416740   2.798  19.070   9.155
 6659POPC   GL116741   2.718  19.063   8.855
 6659POPC   GL216742   2.843  19.146   8.855
 6659POPC   C1A16743   2.740  19.035   8.555
 6659POPC   D2A16744   2.809  19.064   8.255
 6659POPC   C3A16745   2.721  19.059   7.955
 6659POPC   C4A16746   2.749  19.047   7.655
 6659POPC   C1B16747   2.964  19.150   8.555
 6659POPC   C2B16748   2.949  19.144   8.255
 6659POPC   C3B16749   3.017  19.169   7.955
 6659POPC   C4B16750   2.997  19.161   7.655
 6660POPC   NC316751  12.121   0.450   9.455
 6660POPC   PO416752  12.086   0.438   9.155
 6660POPC   GL116753  12.040   0.454   8.855
 6660POPC   GL216754  12.155   0.319   8.855
 6660POPC   C1A16755  12.098   0.419   8.555
 6660POPC   D2A16756  12.077   0.429   8.255
 6660POPC   C3A16757  12.109   0.472   7.955
 6660POPC   C4A16758  12.047   0.442   7.655
 6660POPC   C1B16759  12.198   0.189   8.555
 6660POPC   C2B16760  12.232   0.206   8.255
 6660POPC   C3B16761  12.223   0.189   7.955
 6660POPC   C4B16762  12.172   0.269   7.655
 6661POPC   NC316763   8.204  23.687   9.455
 6661POPC   PO416764   8.219  23.665   9.155
 6661POPC   GL116765   8.183  23.708   8.855
 6661POPC   GL216766   8.302  23.783   8.855
 6661POPC   C1A16767   8.165  23.761   8.555
 6661POPC   D2A16768   8.243  23.702   8.255
 6661POPC   C3A16769   8.179  23.676   7.955
 6661POPC   C4A16770   8.147  23.713   7.655
 6661POPC   C1B16771   8.405  23.897   8.555
 6661POPC   C2B16772   8.385  23.836   8.255
 6661POPC   C3B16773   8.388  23.816   7.955
 6661POPC   C4B16774   8.384  23.816   7.655
 6662POPC   NC316775   1.946  21.385   9.455
 6662POPC   PO416776   1.978  21.423   9.155
 6662POPC   GL116777   2.003  21.432   8.855
 6662POPC   GL216778   1.903  21.453   8.855
 6662POPC   C1A16779   2.035  21.348   8.555
 6662POPC   D2A16780   2.012  21.345   8.255
 6662POPC   C3A16781   1.984  21.378   7.955
 6662POPC   C4A16782   2.012  21.362   7.655
 6662POPC   C1B16783   1.753  21.502   8.555
 6662POPC   C2B16784   1.791  21.523   8.255
 6662POPC   C3B16785   1.761  21.531   7.955
 6662POPC   C4B16786   1.777  21.484   7.655
 6663POPC   NC316787  43.119   2.004   9.455
 6663POPC   PO416788  43.147   2.018   9.155
 6663POPC   GL116789  43.063   1.975   8.855
 6663POPC   GL216790  42.987   2.027   8.855
 6663POPC   C1A16791  43.066   1.953   8.555
 6663POPC   D2A16792  43.080   1.976   8.255
 6663POPC   C3A16793  43.097   1.975   7.955
 6663POPC   C4A16794  43.074   2.026   7.655
 6663POPC   C1B16795  42.889   1.978   8.555
 6663POPC   C2B16796  42.880   1.991   8.255
 6663POPC   C3B16797  42.848   2.019   7.955
 6663POPC   C4B16798  42.848   2.059   7.655
 6664POPC   NC316799   9.717  43.913   9.455
 6664POPC   PO416800   9.715  43.886   9.155
 6664POPC   GL116801   9.761  43.912   8.855
 6664POPC   GL216802   9.729  44.054   8.855
 6664POPC   C1A16803   9.725  43.931   8.555
 6664POPC   D2A16804   9.748  43.934   8.255
 6664POPC   C3A16805   9.786  43.853   7.955
 6664POPC   C4A16806   9.725  43.900   7.655
 6664POPC   C1B16807   9.730  44.157   8.555
 6664POPC   C2B16808   9.800  44.089   8.255
 6664POPC   C3B16809   9.789  44.142   7.955
 6664POPC   C4B16810   9.764  44.138   7.655
 6665POPC   NC316811  11.329  17.505   9.455
 6665POPC   PO416812  11.297  17.553   9.155
 6665POPC   GL116813  11.321  17.500   8.855
 6665POPC   GL216814  11.347  17.608   8.855
 6665POPC   C1A16815  11.319  17.512   8.555
 6665POPC   D2A16816  11.285  17.488   8.255
 6665POPC   C3A16817  11.260  17.537   7.955
 6665POPC   C4A16818  11.306  17.477   7.655
 6665POPC   C1B16819  11.308  17.745   8.555
 6665POPC   C2B16820  11.377  17.711   8.255
 6665POPC   C3B16821  11.324  17.786   7.955
 6665POPC   C4B16822  11.316  17.786   7.655
 6666POPC   NC316823  30.661  19.042   9.455
 6666POPC   PO416824  30.689  19.095   9.155
 6666POPC   GL116825  30.676  19.080   8.855
 6666POPC   GL216826  30.640  19.139   8.855
 6666POPC   C1A16827  30.684  19.024   8.555
 6666POPC   D2A16828  30.663  19.069   8.255
 6666POPC   C3A16829  30.656  19.100   7.955
 6666POPC   C4A16830  30.734  19.109   7.655
 6666POPC   C1B16831  30.521  19.238   8.555
 6666POPC   C2B16832  30.564  19.306   8.255
 6666POPC   C3B16833  30.540  19.237   7.955
 6666POPC   C4B16834  30.518  19.224   7.655
 6667POPC   NC316835  23.693   2.740   9.455
 6667POPC   PO416836  23.706   2.729   9.155
 6667POPC   GL116837  23.734   2.749   8.855
 6667POPC   GL216838  23.760   2.913   8.855
 6667POPC   C1A16839  23.754   2.753   8.555
 6667POPC   D2A16840  23.736   2.728   8.255
 6667POPC   C3A16841  23.741   2.776   7.955
 6667POPC   C4A16842  23.687   2.726   7.655
 6667POPC   C1B16843  23.714   2.979   8.555
 6667POPC   C2B16844  23.707   2.975   8.255
 6667POPC   C3B16845  23.778   3.056   7.955
 6667POPC   C4B16846  23.686   2.995   7.655
 6668POPC   NC316847  34.617  26.050   9.455
 6668POPC   PO416848  34.560  26.061   9.155
 6668POPC   GL116849  34.598  26.031   8.855
 6668POPC   GL216850  34.633  25.917   8.855
 6668POPC   C1A16851  34.574  26.047   8.555
 6668POPC   D2A16852  34.580  26.025   8.255
 6668POPC   C3A16853  34.599  26.061   7.955
 6668POPC   C4A16854  34.564  26.002   7.655
 6668POPC   C1B16855  34.634  25.786   8.555
 6668POPC   C2B16856  34.633  25.763   8.255
 6668POPC   C3B16857  34.617  25.806   7.955
 6668POPC   C4B16858  34.659  25.799   7.655
 6669POPC   NC316859  39.960  29.129   9.455
 6669POPC   PO416860  40.008  29.159   9.155
 6669POPC   GL116861  39.961  29.185   8.855
 6669POPC   GL216862  40.000  29.009   8.855
 6669POPC   C1A16863  40.042  29.096   8.555
 6669POPC   D2A16864  39.999  29.165   8.255
 6669POPC   C3A16865  40.018  29.168   7.955
 6669POPC   C4A16866  39.970  29.136   7.655
 6669POPC   C1B16867  40.036  28.941   8.555
 6669POPC   C2B16868  40.054  28.936   8.255
 6669POPC   C3B16869  40.054  28.870   7.955
 6669POPC   C4B16870  40.076  28.884   7.655
 6670POPC   NC316871  12.086  36.863   9.455
 6670POPC   PO416872  12.038  36.883   9.155
 6670POPC   GL116873  12.098  36.901   8.855
 6670POPC   GL216874  12.159  37.038   8.855
 6670POPC   C1A16875  12.060  36.859   8.555
 6670POPC   D2A16876  12.066  36.928   8.255
 6670POPC   C3A16877  12.088  36.932   7.955
 6670POPC   C4A16878  12.109  36.854   7.655
 6670POPC   C1B16879  12.270  37.083   8.555
 6670POPC   C2B16880  12.206  37.125   8.255
 6670POPC   C3B16881  12.246  37.105   7.955
 6670POPC   C4B16882  12.287  37.117   7.655
 6671POPC   NC316883  28.372  44.645   9.455
 6671POPC   PO416884  28.386  44.661   9.155
 6671POPC   GL116885  28.400  44.656   8.855
 6671POPC   GL216886  28.446  44.745   8.855
 6671POPC   C1A16887  28.357  44.635   8.555
 6671POPC   D2A16888  28.347  44.670   8.255
 6671POPC   C3A16889  28.365  44.695   7.955
 6671POPC   C4A16890  28.380  44.702   7.655
 6671POPC   C1B16891  28.437  44.862   8.555
 6671POPC   C2B16892  28.457  44.915   8.255
 6671POPC   C3B16893  28.528  44.849   7.955
 6671POPC   C4B16894  28.459  44.877   7.655
 6672POPC   NC316895  19.849  31.492   9.455
 6672POPC   PO416896  19.788  31.493   9.155
 6672POPC   GL116897  19.849  31.458   8.855
 6672POPC   GL216898  19.708  31.348   8.855
 6672POPC   C1A16899  19.830  31.423   8.555
 6672POPC   D2A16900  19.842  31.465   8.255
 6672POPC   C3A16901  19.847  31.506   7.955
 6672POPC   C4A16902  19.850  31.466   7.655
 6672POPC   C1B16903  19.667  31.292   8.555
 6672POPC   C2B16904  19.657  31.334   8.255
 6672POPC   C3B16905  19.606  31.275   7.955
 6672POPC   C4B16906  19.677  31.284   7.655
 6673POPC   NC316907  43.108  27.566   9.455
 6673POPC   PO416908  43.104  27.596   9.155
 6673POPC   GL116909  43.064  27.640   8.855
 6673POPC   GL216910  42.977  27.660   8.855
 6673POPC   C1A16911  43.140  27.622   8.555
 6673POPC   D2A16912  43.101  27.585   8.255
 6673POPC   C3A16913  43.068  27.587   7.955
 6673POPC   C4A16914  43.087  27.556   7.655
 6673POPC   C1B16915  42.890  27.648   8.555
 6673POPC   C2B16916  42.917  27.647   8.255
 6673POPC   C3B16917  42.847  27.677   7.955
 6673POPC   C4B16918  42.844  27.693   7.655
 6674POPC   NC316919  10.494  34.591   9.455
 6674POPC   PO416920  10.506  34.545   9.155
 6674POPC   GL116921  10.520  34.624   8.855
 6674POPC   GL216922  10.393  34.519   8.855
 6674POPC   C1A16923  10.516  34.549   8.555
 6674POPC   D2A16924  10.573  34.570   8.255
 6674POPC   C3A16925  10.539  34.570   7.955
 6674POPC   C4A16926  10.533  34.611   7.655
 6674POPC   C1B16927  10.323  34.345   8.555
 6674POPC   C2B16928  10.401  34.357   8.255
 6674POPC   C3B16929  10.341  34.409   7.955
 6674POPC   C4B16930  10.348  34.379   7.655
 6675POPC   NC316931  42.367  19.034   9.455
 6675POPC   PO416932  42.335  19.067   9.155
 6675POPC   GL116933  42.299  19.053   8.855
 6675POPC   GL216934  42.349  18.925   8.855
 6675POPC   C1A16935  42.331  19.089   8.555
 6675POPC   D2A16936  42.360  19.039   8.255
 6675POPC   C3A16937  42.376  19.060   7.955
 6675POPC   C4A16938  42.287  19.044   7.655
 6675POPC   C1B16939  42.410  18.883   8.555
 6675POPC   C2B16940  42.437  18.805   8.255
 6675POPC   C3B16941  42.468  18.859   7.955
 6675POPC   C4B16942  42.438  18.836   7.655
 6676POPC   NC316943  19.879  28.404   9.455
 6676POPC   PO416944  19.830  28.350   9.155
 6676POPC   GL116945  19.845  28.357   8.855
 6676POPC   GL216946  19.762  28.287   8.855
 6676POPC   C1A16947  19.852  28.397   8.555
 6676POPC   D2A16948  19.851  28.363   8.255
 6676POPC   C3A16949  19.868  28.332   7.955
 6676POPC   C4A16950  19.832  28.359   7.655
 6676POPC   C1B16951  19.645  28.201   8.555
 6676POPC   C2B16952  19.697  28.141   8.255
 6676POPC   C3B16953  19.710  28.137   7.955
 6676POPC   C4B16954  19.634  28.139   7.655
 6677POPC   NC316955  43.930  33.060   9.455
 6677POPC   PO416956  43.856  33.000   9.155
 6677POPC   GL116957  43.909  33.014   8.855
 6677POPC   GL216958  43.947  33.091   8.855
 6677POPC   C1A16959  43.930  32.992   8.555
 6677POPC   D2A16960  43.895  33.052   8.255
 6677POPC   C3A16961  43.902  33.044   7.955
 6677POPC   C4A16962  43.934  33.049   7.655
 6677POPC   C1B16963  44.087  33.170   8.555
 6677POPC   C2B16964  44.095  33.147   8.255
 6677POPC   C3B16965  44.150  33.189   7.955
 6677POPC   C4B16966  44.065  33.102   7.655
 6678POPC   NC316967  43.900  32.297   9.455
 6678POPC   PO416968  43.849  32.228   9.155
 6678POPC   GL116969  43.924  32.257   8.855
 6678POPC   GL216970  44.021  32.164   8.855
 6678POPC   C1A16971  43.864  32.270   8.555
 6678POPC   D2A16972  43.926  32.206   8.255
 6678POPC   C3A16973  43.905  32.281   7.955
 6678POPC   C4A16974  43.853  32.274   7.655
 6678POPC   C1B16975  44.158  32.142   8.555
 6678POPC   C2B16976  44.131  32.146   8.255
 6678POPC   C3B16977  44.151  32.200   7.955
 6678POPC   C4B16978  44.168  32.191   7.655
 6679POPC   NC316979  25.248  33.805   9.455
 6679POPC   PO416980  25.246  33.849   9.155
 6679POPC   GL116981  25.288  33.794   8.855
 6679POPC   GL216982  25.323  33.661   8.855
 6679POPC   C1A16983  25.308  33.815   8.555
 6679POPC   D2A16984  25.289  33.816   8.255
 6679POPC   C3A16985  25.285  33.845   7.955
 6679POPC   C4A16986  25.264  33.776   7.655
 6679POPC   C1B16987  25.346  33.550   8.555
 6679POPC   C2B16988  25.317  33.550   8.255
 6679POPC   C3B16989  25.339  33.576   7.955
 6679POPC   C4B16990  25.314  33.533   7.655
 6680POPC   NC316991  28.404  34.618   9.455
 6680POPC   PO416992  28.322  34.585   9.155
 6680POPC   GL116993  28.348  34.554   8.855
 6680POPC   GL216994  28.465  34.655   8.855
 6680POPC   C1A16995  28.406  34.602   8.555
 6680POPC   D2A16996  28.361  34.613   8.255
 6680POPC   C3A16997  28.370  34.550   7.955
 6680POPC   C4A16998  28.362  34.540   7.655
 6680POPC   C1B16999  28.574  34.601   8.555
 6680POPC   C2B17000  28.569  34.652   8.255
 6680POPC   C3B17001  28.650  34.676   7.955
 6680POPC   C4B17002  28.597  34.633   7.655
 6681POPC   NC317003  11.323  29.110   9.455
 6681POPC   PO417004  11.258  29.106   9.155
 6681POPC   GL117005  11.251  29.178   8.855
 6681POPC   GL217006  11.161  29.126   8.855
 6681POPC   C1A17007  11.306  29.148   8.555
 6681POPC   D2A17008  11.327  29.124   8.255
 6681POPC   C3A17009  11.341  29.175   7.955
 6681POPC   C4A17010  11.303  29.143   7.655
 6681POPC   C1B17011  11.068  29.151   8.555
 6681POPC   C2B17012  11.033  29.107   8.255
 6681POPC   C3B17013  11.044  29.140   7.955
 6681POPC   C4B17014  11.004  29.118   7.655
 6682POPC   NC317015   2.035  19.867   9.455
 6682POPC   PO417016   2.038  19.830   9.155
 6682POPC   GL117017   1.990  19.878   8.855
 6682POPC   GL217018   2.079  19.743   8.855
 6682POPC   C1A17019   1.982  19.852   8.555
 6682POPC   D2A17020   2.038  19.844   8.255
 6682POPC   C3A17021   2.008  19.881   7.955
 6682POPC   C4A17022   1.988  19.872   7.655
 6682POPC   C1B17023   2.182  19.629   8.555
 6682POPC   C2B17024   2.127  19.619   8.255
 6682POPC   C3B17025   2.151  19.670   7.955
 6682POPC   C4B17026   2.121  19.682   7.655
 6683POPC   NC317027  14.439  27.571   9.455
 6683POPC   PO417028  14.409  27.630   9.155
 6683POPC   GL117029  14.428  27.571   8.855
 6683POPC   GL217030  14.352  27.469   8.855
 6683POPC   C1A17031  14.430  27.581   8.555
 6683POPC   D2A17032  14.354  27.598   8.255
 6683POPC   C3A17033  14.423  27.642   7.955
 6683POPC   C4A17034  14.432  27.642   7.655
 6683POPC   C1B17035  14.351  27.364   8.555
 6683POPC   C2B17036  14.331  27.340   8.255
 6683POPC   C3B17037  14.286  27.310   7.955
 6683POPC   C4B17038  14.378  27.374   7.655
 6684POPC   NC317039  41.554   6.634   9.455
 6684POPC   PO417040  41.526   6.610   9.155
 6684POPC   GL117041  41.585   6.663   8.855
 6684POPC   GL217042  41.520   6.508   8.855
 6684POPC   C1A17043  41.581   6.602   8.555
 6684POPC   D2A17044  41.555   6.678   8.255
 6684POPC   C3A17045  41.565   6.664   7.955
 6684POPC   C4A17046  41.561   6.660   7.655
 6684POPC   C1B17047  41.569   6.387   8.555
 6684POPC   C2B17048  41.568   6.385   8.255
 6684POPC   C3B17049  41.538   6.368   7.955
 6684POPC   C4B17050  41.584   6.363   7.655
 6685POPC   NC317051  40.735  11.278   9.455
 6685POPC   PO417052  40.822  11.273   9.155
 6685POPC   GL117053  40.812  11.312   8.855
 6685POPC   GL217054  40.869  11.343   8.855
 6685POPC   C1A17055  40.783  11.285   8.555
 6685POPC   D2A17056  40.774  11.268   8.255
 6685POPC   C3A17057  40.806  11.307   7.955
 6685POPC   C4A17058  40.754  11.267   7.655
 6685POPC   C1B17059  40.991  11.344   8.555
 6685POPC   C2B17060  41.026  11.352   8.255
 6685POPC   C3B17061  41.039  11.359   7.955
 6685POPC   C4B17062  40.987  11.422   7.655
 6686POPC   NC317063   5.067  43.154   9.455
 6686POPC   PO417064   5.063  43.111   9.155
 6686POPC   GL117065   5.119  43.138   8.855
 6686POPC   GL217066   4.993  43.214   8.855
 6686POPC   C1A17067   5.046  43.069   8.555
 6686POPC   D2A17068   5.135  43.117   8.255
 6686POPC   C3A17069   5.070  43.078   7.955
 6686POPC   C4A17070   5.080  43.154   7.655
 6686POPC   C1B17071   4.972  43.367   8.555
 6686POPC   C2B17072   4.938  43.309   8.255
 6686POPC   C3B17073   4.986  43.309   7.955
 6686POPC   C4B17074   4.962  43.333   7.655
 6687POPC   NC317075  21.431  12.067   9.455
 6687POPC   PO417076  21.406  12.110   9.155
 6687POPC   GL117077  21.371  12.031   8.855
 6687POPC   GL217078  21.437  12.174   8.855
 6687POPC   C1A17079  21.371  12.058   8.555
 6687POPC   D2A17080  21.378  12.066   8.255
 6687POPC   C3A17081  21.353  12.033   7.955
 6687POPC   C4A17082  21.399  12.062   7.655
 6687POPC   C1B17083  21.501  12.273   8.555
 6687POPC   C2B17084  21.491  12.257   8.255
 6687POPC   C3B17085  21.499  12.260   7.955
 6687POPC   C4B17086  21.549  12.308   7.655
 6688POPC   NC317087  29.970  42.341   9.455
 6688POPC   PO417088  29.966  42.339   9.155
 6688POPC   GL117089  29.920  42.294   8.855
 6688POPC   GL217090  30.012  42.232   8.855
 6688POPC   C1A17091  29.963  42.332   8.555
 6688POPC   D2A17092  29.912  42.319   8.255
 6688POPC   C3A17093  29.921  42.362   7.955
 6688POPC   C4A17094  29.889  42.311   7.655
 6688POPC   C1B17095  30.006  42.085   8.555
 6688POPC   C2B17096  30.043  42.078   8.255
 6688POPC   C3B17097  30.016  42.056   7.955
 6688POPC   C4B17098  30.025  42.103   7.655
 6689POPC   NC317099   8.241   0.458   9.455
 6689POPC   PO417100   8.246   0.406   9.155
 6689POPC   GL117101   8.207   0.437   8.855
 6689POPC   GL217102   8.237   0.566   8.855
 6689POPC   C1A17103   8.169   0.404   8.555
 6689POPC   D2A17104   8.220   0.470   8.255
 6689POPC   C3A17105   8.231   0.428   7.955
 6689POPC   C4A17106   8.226   0.445   7.655
 6689POPC   C1B17107   8.166   0.693   8.555
 6689POPC   C2B17108   8.222   0.651   8.255
 6689POPC   C3B17109   8.256   0.694   7.955
 6689POPC   C4B17110   8.189   0.721   7.655
 6690POPC   NC317111  17.535  11.332   9.455
 6690POPC   PO417112  17.490  11.250   9.155
 6690POPC   GL117113  17.475  11.289   8.855
 6690POPC   GL217114  17.417  11.395   8.855
 6690POPC   C1A17115  17.514  11.284   8.555
 6690POPC   D2A17116  17.524  11.280   8.255
 6690POPC   C3A17117  17.462  11.258   7.955
 6690POPC   C4A17118  17.533  11.307   7.655
 6690POPC   C1B17119  17.325  11.494   8.555
 6690POPC   C2B17120  17.366  11.478   8.255
 6690POPC   C3B17121  17.364  11.531   7.955
 6690POPC   C4B17122  17.353  11.445   7.655
 6691POPC   NC317123  11.268  15.192   9.455
 6691POPC   PO417124  11.316  15.167   9.155
 6691POPC   GL117125  11.312  15.145   8.855
 6691POPC   GL217126  11.180  15.150   8.855
 6691POPC   C1A17127  11.258  15.206   8.555
 6691POPC   D2A17128  11.335  15.223   8.255
 6691POPC   C3A17129  11.341  15.210   7.955
 6691POPC   C4A17130  11.343  15.175   7.655
 6691POPC   C1B17131  11.064  15.215   8.555
 6691POPC   C2B17132  11.052  15.170   8.255
 6691POPC   C3B17133  11.065  15.166   7.955
 6691POPC   C4B17134  11.091  15.152   7.655
 6692POPC   NC317135  10.546   0.420   9.455
 6692POPC   PO417136  10.505   0.409   9.155
 6692POPC   GL117137  10.478   0.414   8.855
 6692POPC   GL217138  10.460   0.327   8.855
 6692POPC   C1A17139  10.518   0.476   8.555
 6692POPC   D2A17140  10.563   0.425   8.255
 6692POPC   C3A17141  10.517   0.473   7.955
 6692POPC   C4A17142  10.524   0.483   7.655
 6692POPC   C1B17143  10.433   0.263   8.555
 6692POPC   C2B17144  10.449   0.261   8.255
 6692POPC   C3B17145  10.431   0.222   7.955
 6692POPC   C4B17146  10.395   0.185   7.655
 6693POPC   NC317147   1.255  33.031   9.455
 6693POPC   PO417148   1.234  33.065   9.155
 6693POPC   GL117149   1.257  32.995   8.855
 6693POPC   GL217150   1.323  33.124   8.855
 6693POPC   C1A17151   1.215  33.013   8.555
 6693POPC   D2A17152   1.247  33.029   8.255
 6693POPC   C3A17153   1.259  32.997   7.955
 6693POPC   C4A17154   1.191  33.046   7.655
 6693POPC   C1B17155   1.355  33.214   8.555
 6693POPC   C2B17156   1.347  33.226   8.255
 6693POPC   C3B17157   1.362  33.210   7.955
 6693POPC   C4B17158   1.322  33.273   7.655
 6694POPC   NC317159  14.413   3.539   9.455
 6694POPC   PO417160  14.405   3.584   9.155
 6694POPC   GL117161  14.437   3.565   8.855
 6694POPC   GL217162  14.427   3.667   8.855
 6694POPC   C1A17163  14.355   3.591   8.555
 6694POPC   D2A17164  14.354   3.539   8.255
 6694POPC   C3A17165  14.433   3.583   7.955
 6694POPC   C4A17166  14.429   3.538   7.655
 6694POPC   C1B17167  14.567   3.787   8.555
 6694POPC   C2B17168  14.535   3.774   8.255
 6694POPC   C3B17169  14.547   3.784   7.955
 6694POPC   C4B17170  14.481   3.773   7.655
 6695POPC   NC317171   8.993  40.772   9.455
 6695POPC   PO417172   8.930  40.831   9.155
 6695POPC   GL117173   8.943  40.745   8.855
 6695POPC   GL217174   9.066  40.844   8.855
 6695POPC   C1A17175   8.999  40.763   8.555
 6695POPC   D2A17176   9.004  40.823   8.255
 6695POPC   C3A17177   8.993  40.823   7.955
 6695POPC   C4A17178   8.982  40.756   7.655
 6695POPC   C1B17179   9.153  40.863   8.555
 6695POPC   C2B17180   9.139  40.864   8.255
 6695POPC   C3B17181   9.200  40.941   7.955
 6695POPC   C4B17182   9.165  40.890   7.655
 6696POPC   NC317183  22.961  32.241   9.455
 6696POPC   PO417184  22.932  32.266   9.155
 6696POPC   GL117185  22.944  32.291   8.855
 6696POPC   GL217186  22.797  32.161   8.855
 6696POPC   C1A17187  22.978  32.203   8.555
 6696POPC   D2A17188  22.944  32.217   8.255
 6696POPC   C3A17189  22.983  32.279   7.955
 6696POPC   C4A17190  22.918  32.284   7.655
 6696POPC   C1B17191  22.684  32.155   8.555
 6696POPC   C2B17192  22.721  32.113   8.255
 6696POPC   C3B17193  22.746  32.109   7.955
 6696POPC   C4B17194  22.733  32.187   7.655
 6697POPC   NC317195  18.255   5.869   9.455
 6697POPC   PO417196  18.234   5.828   9.155
 6697POPC   GL117197  18.320   5.826   8.855
 6697POPC   GL217198  18.409   5.882   8.855
 6697POPC   C1A17199  18.327   5.899   8.555
 6697POPC   D2A17200  18.288   5.834   8.255
 6697POPC   C3A17201  18.299   5.885   7.955
 6697POPC   C4A17202  18.244   5.914   7.655
 6697POPC   C1B17203  18.542   5.920   8.555
 6697POPC   C2B17204  18.556   5.914   8.255
 6697POPC   C3B17205  18.524   5.966   7.955
 6697POPC   C4B17206  18.551   5.955   7.655
 6698POPC   NC317207  30.733   0.436   9.455
 6698POPC   PO417208  30.727   0.480   9.155
 6698POPC   GL117209  30.742   0.467   8.855
 6698POPC   GL217210  30.752   0.400   8.855
 6698POPC   C1A17211  30.651   0.473   8.555
 6698POPC   D2A17212  30.742   0.401   8.255
 6698POPC   C3A17213  30.707   0.427   7.955
 6698POPC   C4A17214  30.669   0.438   7.655
 6698POPC   C1B17215  30.923   0.327   8.555
 6698POPC   C2B17216  30.879   0.317   8.255
 6698POPC   C3B17217  30.900   0.299   7.955
 6698POPC   C4B17218  30.910   0.293   7.655
 6699POPC   NC317219  21.425  40.749   9.455
 6699POPC   PO417220  21.401  40.741   9.155
 6699POPC   GL117221  21.416  40.791   8.855
 6699POPC   GL217222  21.377  40.861   8.855
 6699POPC   C1A17223  21.411  40.750   8.555
 6699POPC   D2A17224  21.428  40.813   8.255
 6699POPC   C3A17225  21.425  40.800   7.955
 6699POPC   C4A17226  21.434  40.746   7.655
 6699POPC   C1B17227  21.399  41.062   8.555
 6699POPC   C2B17228  21.438  40.996   8.255
 6699POPC   C3B17229  21.444  40.983   7.955
 6699POPC   C4B17230  21.414  40.990   7.655
 6700POPC   NC317231   2.734  32.996   9.455
 6700POPC   PO417232   2.751  33.030   9.155
 6700POPC   GL117233   2.804  33.068   8.855
 6700POPC   GL217234   2.646  33.036   8.855
 6700POPC   C1A17235   2.804  33.049   8.555
 6700POPC   D2A17236   2.747  32.999   8.255
 6700POPC   C3A17237   2.746  33.066   7.955
 6700POPC   C4A17238   2.716  32.985   7.655
 6700POPC   C1B17239   2.535  33.167   8.555
 6700POPC   C2B17240   2.555  33.109   8.255
 6700POPC   C3B17241   2.591  33.104   7.955
 6700POPC   C4B17242   2.494  33.091   7.655
 6701POPC   NC317243  32.259   2.726   9.455
 6701POPC   PO417244  32.232   2.815   9.155
 6701POPC   GL117245  32.234   2.746   8.855
 6701POPC   GL217246  32.361   2.883   8.855
 6701POPC   C1A17247  32.212   2.761   8.555
 6701POPC   D2A17248  32.267   2.720   8.255
 6701POPC   C3A17249  32.284   2.727   7.955
 6701POPC   C4A17250  32.272   2.720   7.655
 6701POPC   C1B17251  32.455   2.901   8.555
 6701POPC   C2B17252  32.461   2.879   8.255
 6701POPC   C3B17253  32.485   2.899   7.955
 6701POPC   C4B17254  32.436   2.935   7.655
 6702POPC   NC317255   2.728  18.259   9.455
 6702POPC   PO417256   2.725  18.268   9.155
 6702POPC   GL117257   2.743  18.286   8.855
 6702POPC   GL217258   2.896  18.308   8.855
 6702POPC   C1A17259   2.777  18.266   8.555
 6702POPC   D2A17260   2.810  18.262   8.255
 6702POPC   C3A17261   2.806  18.249   7.955
 6702POPC   C4A17262   2.762  18.269   7.655
 6702POPC   C1B17263   2.938  18.460   8.555
 6702POPC   C2B17264   2.992  18.415   8.255
 6702POPC   C3B17265   2.951  18.412   7.955
 6702POPC   C4B17266   2.971  18.459   7.655
 6703POPC   NC317267   8.953  37.706   9.455
 6703POPC   PO417268   8.955  37.646   9.155
 6703POPC   GL117269   9.020  37.690   8.855
 6703POPC   GL217270   9.025  37.603   8.855
 6703POPC   C1A17271   8.986  37.710   8.555
 6703POPC   D2A17272   8.927  37.696   8.255
 6703POPC   C3A17273   8.930  37.673   7.955
 6703POPC   C4A17274   9.000  37.713   7.655
 6703POPC   C1B17275   9.103  37.449   8.555
 6703POPC   C2B17276   9.048  37.410   8.255
 6703POPC   C3B17277   9.010  37.443   7.955
 6703POPC   C4B17278   9.105  37.415   7.655
 6704POPC   NC317279  31.494  17.543   9.455
 6704POPC   PO417280  31.457  17.482   9.155
 6704POPC   GL117281  31.484  17.515   8.855
 6704POPC   GL217282  31.493  17.654   8.855
 6704POPC   C1A17283  31.469  17.534   8.555
 6704POPC   D2A17284  31.438  17.496   8.255
 6704POPC   C3A17285  31.522  17.470   7.955
 6704POPC   C4A17286  31.425  17.517   7.655
 6704POPC   C1B17287  31.524  17.745   8.555
 6704POPC   C2B17288  31.569  17.783   8.255
 6704POPC   C3B17289  31.484  17.713   7.955
 6704POPC   C4B17290  31.483  17.711   7.655
 6705POPC   NC317291  15.952  12.028   9.455
 6705POPC   PO417292  15.928  12.116   9.155
 6705POPC   GL117293  15.947  12.049   8.855
 6705POPC   GL217294  15.922  12.186   8.855
 6705POPC   C1A17295  15.981  12.062   8.555
 6705POPC   D2A17296  15.946  12.094   8.255
 6705POPC   C3A17297  15.987  12.032   7.955
 6705POPC   C4A17298  15.940  12.040   7.655
 6705POPC   C1B17299  16.013  12.301   8.555
 6705POPC   C2B17300  15.941  12.365   8.255
 6705POPC   C3B17301  15.984  12.286   7.955
 6705POPC   C4B17302  15.936  12.303   7.655
 6706POPC   NC317303  21.404  12.849   9.455
 6706POPC   PO417304  21.433  12.862   9.155
 6706POPC   GL117305  21.361  12.832   8.855
 6706POPC   GL217306  21.473  12.821   8.855
 6706POPC   C1A17307  21.425  12.812   8.555
 6706POPC   D2A17308  21.338  12.827   8.255
 6706POPC   C3A17309  21.374  12.849   7.955
 6706POPC   C4A17310  21.357  12.856   7.655
 6706POPC   C1B17311  21.586  12.716   8.555
 6706POPC   C2B17312  21.569  12.741   8.255
 6706POPC   C3B17313  21.579  12.702   7.955
 6706POPC   C4B17314  21.586  12.715   7.655
 6707POPC   NC317315  23.668   0.402   9.455
 6707POPC   PO417316  23.758   0.469   9.155
 6707POPC   GL117317  23.726   0.412   8.855
 6707POPC   GL217318  23.852   0.375   8.855
 6707POPC   C1A17319  23.674   0.478   8.555
 6707POPC   D2A17320  23.727   0.466   8.255
 6707POPC   C3A17321  23.673   0.473   7.955
 6707POPC   C4A17322  23.755   0.487   7.655
 6707POPC   C1B17323  23.972   0.385   8.555
 6707POPC   C2B17324  23.942   0.397   8.255
 6707POPC   C3B17325  23.960   0.349   7.955
 6707POPC   C4B17326  23.969   0.331   7.655
 6708POPC   NC317327  11.314  29.891   9.455
 6708POPC   PO417328  11.294  29.896   9.155
 6708POPC   GL117329  11.333  29.954   8.855
 6708POPC   GL217330  11.422  29.820   8.855
 6708POPC   C1A17331  11.309  29.959   8.555
 6708POPC   D2A17332  11.347  29.897   8.255
 6708POPC   C3A17333  11.288  29.904   7.955
 6708POPC   C4A17334  11.251  29.910   7.655
 6708POPC   C1B17335  11.500  29.832   8.555
 6708POPC   C2B17336  11.503  29.788   8.255
 6708POPC   C3B17337  11.525  29.773   7.955
 6708POPC   C4B17338  11.564  29.797   7.655
 6709POPC   NC317339  29.915  14.436   9.455
 6709POPC   PO417340  29.917  14.447   9.155
 6709POPC   GL117341  29.873  14.362   8.855
 6709POPC   GL217342  29.770  14.359   8.855
 6709POPC   C1A17343  29.925  14.386   8.555
 6709POPC   D2A17344  29.901  14.416   8.255
 6709POPC   C3A17345  29.942  14.441   7.955
 6709POPC   C4A17346  29.880  14.369   7.655
 6709POPC   C1B17347  29.662  14.405   8.555
 6709POPC   C2B17348  29.702  14.350   8.255
 6709POPC   C3B17349  29.692  14.371   7.955
 6709POPC   C4B17350  29.702  14.386   7.655
 6710POPC   NC317351  38.498  15.919   9.455
 6710POPC   PO417352  38.430  15.923   9.155
 6710POPC   GL117353  38.424  16.001   8.855
 6710POPC   GL217354  38.535  15.992   8.855
 6710POPC   C1A17355  38.440  15.973   8.555
 6710POPC   D2A17356  38.411  15.982   8.255
 6710POPC   C3A17357  38.484  15.937   7.955
 6710POPC   C4A17358  38.417  15.990   7.655
 6710POPC   C1B17359  38.735  15.958   8.555
 6710POPC   C2B17360  38.673  16.037   8.255
 6710POPC   C3B17361  38.724  16.005   7.955
 6710POPC   C4B17362  38.690  15.948   7.655
 6711POPC   NC317363  10.557  13.641   9.455
 6711POPC   PO417364  10.560  13.644   9.155
 6711POPC   GL117365  10.554  13.664   8.855
 6711POPC   GL217366  10.519  13.526   8.855
 6711POPC   C1A17367  10.480  13.604   8.555
 6711POPC   D2A17368  10.540  13.601   8.255
 6711POPC   C3A17369  10.525  13.648   7.955
 6711POPC   C4A17370  10.571  13.611   7.655
 6711POPC   C1B17371  10.518  13.405   8.555
 6711POPC   C2B17372  10.468  13.344   8.255
 6711POPC   C3B17373  10.524  13.377   7.955
 6711POPC   C4B17374  10.533  13.424   7.655
 6712POPC   NC317375   5.846  44.705   9.455
 6712POPC   PO417376   5.893  44.625   9.155
 6712POPC   GL117377   5.881  44.702   8.855
 6712POPC   GL217378   5.944  44.594   8.855
 6712POPC   C1A17379   5.876  44.615   8.555
 6712POPC   D2A17380   5.912  44.681   8.255
 6712POPC   C3A17381   5.844  44.673   7.955
 6712POPC   C4A17382   5.866  44.615   7.655
 6712POPC   C1B17383   6.064  44.536   8.555
 6712POPC   C2B17384   6.112  44.517   8.255
 6712POPC   C3B17385   6.101  44.550   7.955
 6712POPC   C4B17386   6.097  44.566   7.655
 6713POPC   NC317387  44.668   6.608   9.455
 6713POPC   PO417388  44.665   6.636   9.155
 6713POPC   GL117389  44.694   6.673   8.855
 6713POPC   GL217390  44.740   6.574   8.855
 6713POPC   C1A17391  44.699   6.629   8.555
 6713POPC   D2A17392  44.644   6.673   8.255
 6713POPC   C3A17393  44.652   6.602   7.955
 6713POPC   C4A17394  44.682   6.695   7.655
 6713POPC   C1B17395  44.886   6.584   8.555
 6713POPC   C2B17396  44.884   6.575   8.255
 6713POPC   C3B17397  44.870   6.564   7.955
 6713POPC   C4B17398  44.905   6.587   7.655
 6714POPC   NC317399  22.155  39.209   9.455
 6714POPC   PO417400  22.159  39.213   9.155
 6714POPC   GL117401  22.128  39.209   8.855
 6714POPC   GL217402  22.241  39.285   8.855
 6714POPC   C1A17403  22.184  39.186   8.555
 6714POPC   D2A17404  22.136  39.226   8.255
 6714POPC   C3A17405  22.121  39.209   7.955
 6714POPC   C4A17406  22.145  39.218   7.655
 6714POPC   C1B17407  22.411  39.236   8.555
 6714POPC   C2B17408  22.438  39.262   8.255
 6714POPC   C3B17409  22.369  39.291   7.955
 6714POPC   C4B17410  22.448  39.230   7.655
 6715POPC   NC317411  44.617  29.883   9.455
 6715POPC   PO417412  44.631  29.874   9.155
 6715POPC   GL117413  44.691  29.897   8.855
 6715POPC   GL217414  44.713  29.797   8.855
 6715POPC   C1A17415  44.690  29.939   8.555
 6715POPC   D2A17416  44.614  29.963   8.255
 6715POPC   C3A17417  44.706  29.896   7.955
 6715POPC   C4A17418  44.625  29.901   7.655
 6715POPC   C1B17419  44.836  29.744   8.555
 6715POPC   C2B17420  44.841  29.729   8.255
 6715POPC   C3B17421  44.873  29.722   7.955
 6715POPC   C4B17422  44.801  29.709   7.655
 6716POPC   NC317423  27.596  20.626   9.455
 6716POPC   PO417424  27.625  20.636   9.155
 6716POPC   GL117425  27.560  20.583   8.855
 6716POPC   GL217426  27.511  20.687   8.855
 6716POPC   C1A17427  27.571  20.595   8.555
 6716POPC   D2A17428  27.543  20.568   8.255
 6716POPC   C3A17429  27.584  20.593   7.955
 6716POPC   C4A17430  27.605  20.642   7.655
 6716POPC   C1B17431  27.418  20.741   8.555
 6716POPC   C2B17432  27.344  20.742   8.255
 6716POPC   C3B17433  27.368  20.755   7.955
 6716POPC   C4B17434  27.400  20.729   7.655
 6717POPC   NC317435   2.811  22.174   9.455
 6717POPC   PO417436   2.810  22.206   9.155
 6717POPC   GL117437   2.789  22.124   8.855
 6717POPC   GL217438   2.851  22.149   8.855
 6717POPC   C1A17439   2.808  22.116   8.555
 6717POPC   D2A17440   2.761  22.160   8.255
 6717POPC   C3A17441   2.747  22.194   7.955
 6717POPC   C4A17442   2.801  22.180   7.655
 6717POPC   C1B17443   3.008  22.216   8.555
 6717POPC   C2B17444   3.002  22.154   8.255
 6717POPC   C3B17445   3.010  22.215   7.955
 6717POPC   C4B17446   2.977  22.218   7.655
 6718POPC   NC317447  11.330  28.412   9.455
 6718POPC   PO417448  11.292  28.357   9.155
 6718POPC   GL117449  11.258  28.327   8.855
 6718POPC   GL217450  11.236  28.495   8.855
 6718POPC   C1A17451  11.293  28.398   8.555
 6718POPC   D2A17452  11.307  28.386   8.255
 6718POPC   C3A17453  11.344  28.386   7.955
 6718POPC   C4A17454  11.305  28.370   7.655
 6718POPC   C1B17455  11.204  28.580   8.555
 6718POPC   C2B17456  11.203  28.621   8.255
 6718POPC   C3B17457  11.251  28.653   7.955
 6718POPC   C4B17458  11.178  28.586   7.655
 6719POPC   NC317459   6.671  36.939   9.455
 6719POPC   PO417460   6.630  36.865   9.155
 6719POPC   GL117461   6.606  36.870   8.855
 6719POPC   GL217462   6.561  37.007   8.855
 6719POPC   C1A17463   6.605  36.882   8.555
 6719POPC   D2A17464   6.668  36.913   8.255
 6719POPC   C3A17465   6.606  36.868   7.955
 6719POPC   C4A17466   6.649  36.884   7.655
 6719POPC   C1B17467   6.460  37.068   8.555
 6719POPC   C2B17468   6.470  37.026   8.255
 6719POPC   C3B17469   6.416  37.080   7.955
 6719POPC   C4B17470   6.433  37.021   7.655
 6720POPC   NC317471  15.225  44.624   9.455
 6720POPC   PO417472  15.145  44.619   9.155
 6720POPC   GL117473  15.164  44.690   8.855
 6720POPC   GL217474  15.072  44.759   8.855
 6720POPC   C1A17475  15.172  44.688   8.555
 6720POPC   D2A17476  15.130  44.613   8.255
 6720POPC   C3A17477  15.180  44.659   7.955
 6720POPC   C4A17478  15.144  44.683   7.655
 6720POPC   C1B17479  14.999  44.852   8.555
 6720POPC   C2B17480  14.992  44.855   8.255
 6720POPC   C3B17481  15.007  44.868   7.955
 6720POPC   C4B17482  14.964  44.877   7.655
 6721POPC   NC317483  34.568  28.404   9.455
 6721POPC   PO417484  34.608  28.327   9.155
 6721POPC   GL117485  34.558  28.386   8.855
 6721POPC   GL217486  34.635  28.520   8.855
 6721POPC   C1A17487  34.591  28.345   8.555
 6721POPC   D2A17488  34.602  28.413   8.255
 6721POPC   C3A17489  34.600  28.406   7.955
 6721POPC   C4A17490  34.532  28.402   7.655
 6721POPC   C1B17491  34.677  28.628   8.555
 6721POPC   C2B17492  34.715  28.553   8.255
 6721POPC   C3B17493  34.681  28.581   7.955
 6721POPC   C4B17494  34.735  28.543   7.655
 6722POPC   NC317495  40.825  15.927   9.455
 6722POPC   PO417496  40.755  15.951   9.155
 6722POPC   GL117497  40.776  15.998   8.855
 6722POPC   GL217498  40.855  16.087   8.855
 6722POPC   C1A17499  40.739  15.998   8.555
 6722POPC   D2A17500  40.820  15.957   8.255
 6722POPC   C3A17501  40.818  15.946   7.955
 6722POPC   C4A17502  40.749  16.003   7.655
 6722POPC   C1B17503  40.916  16.107   8.555
 6722POPC   C2B17504  40.907  16.147   8.255
 6722POPC   C3B17505  40.957  16.104   7.955
 6722POPC   C4B17506  40.941  16.133   7.655
 6723POPC   NC317507  20.646  26.081   9.455
 6723POPC   PO417508  20.562  26.058   9.155
 6723POPC   GL117509  20.652  26.050   8.855
 6723POPC   GL217510  20.473  26.001   8.855
 6723POPC   C1A17511  20.593  26.005   8.555
 6723POPC   D2A17512  20.658  26.050   8.255
 6723POPC   C3A17513  20.610  26.069   7.955
 6723POPC   C4A17514  20.619  25.994   7.655
 6723POPC   C1B17515  20.390  25.972   8.555
 6723POPC   C2B17516  20.407  25.979   8.255
 6723POPC   C3B17517  20.392  25.971   7.955
 6723POPC   C4B17518  20.343  25.915   7.655
 6724POPC   NC317519  38.449  15.174   9.455
 6724POPC   PO417520  38.505  15.184   9.155
 6724POPC   GL117521  38.429  15.197   8.855
 6724POPC   GL217522  38.576  15.183   8.855
 6724POPC   C1A17523  38.495  15.203   8.555
 6724POPC   D2A17524  38.476  15.208   8.255
 6724POPC   C3A17525  38.480  15.222   7.955
 6724POPC   C4A17526  38.408  15.211   7.655
 6724POPC   C1B17527  38.685  15.211   8.555
 6724POPC   C2B17528  38.682  15.240   8.255
 6724POPC   C3B17529  38.653  15.254   7.955
 6724POPC   C4B17530  38.734  15.194   7.655
 6725POPC   NC317531   2.747  42.366   9.455
 6725POPC   PO417532   2.729  42.332   9.155
 6725POPC   GL117533   2.798  42.352   8.855
 6725POPC   GL217534   2.756  42.165   8.855
 6725POPC   C1A17535   2.761  42.288   8.555
 6725POPC   D2A17536   2.731  42.383   8.255
 6725POPC   C3A17537   2.799  42.354   7.955
 6725POPC   C4A17538   2.761  42.380   7.655
 6725POPC   C1B17539   2.822  42.111   8.555
 6725POPC   C2B17540   2.770  42.101   8.255
 6725POPC   C3B17541   2.832  42.108   7.955
 6725POPC   C4B17542   2.808  42.123   7.655
 6726POPC   NC317543  37.684   6.634   9.455
 6726POPC   PO417544  37.667   6.678   9.155
 6726POPC   GL117545  37.726   6.686   8.855
 6726POPC   GL217546  37.696   6.492   8.855
 6726POPC   C1A17547  37.717   6.681   8.555
 6726POPC   D2A17548  37.722   6.608   8.255
 6726POPC   C3A17549  37.638   6.691   7.955
 6726POPC   C4A17550  37.653   6.629   7.655
 6726POPC   C1B17551  37.718   6.455   8.555
 6726POPC   C2B17552  37.708   6.374   8.255
 6726POPC   C3B17553  37.782   6.391   7.955
 6726POPC   C4B17554  37.746   6.359   7.655
 6727POPC   NC317555  12.070  12.851   9.455
 6727POPC   PO417556  12.121  12.889   9.155
 6727POPC   GL117557  12.026  12.886   8.855
 6727POPC   GL217558  12.056  12.682   8.855
 6727POPC   C1A17559  12.125  12.834   8.555
 6727POPC   D2A17560  12.045  12.841   8.255
 6727POPC   C3A17561  12.069  12.885   7.955
 6727POPC   C4A17562  12.052  12.809   7.655
 6727POPC   C1B17563  12.116  12.612   8.555
 6727POPC   C2B17564  12.115  12.616   8.255
 6727POPC   C3B17565  12.155  12.582   7.955
 6727POPC   C4B17566  12.151  12.566   7.655
 6728POPC   NC317567  30.704  28.376   9.455
 6728POPC   PO417568  30.730  28.373   9.155
 6728POPC   GL117569  30.663  28.351   8.855
 6728POPC   GL217570  30.624  28.472   8.855
 6728POPC   C1A17571  30.703  28.376   8.555
 6728POPC   D2A17572  30.688  28.394   8.255
 6728POPC   C3A17573  30.734  28.327   7.955
 6728POPC   C4A17574  30.680  28.408   7.655
 6728POPC   C1B17575  30.490  28.596   8.555
 6728POPC   C2B17576  30.572  28.595   8.255
 6728POPC   C3B17577  30.574  28.535   7.955
 6728POPC   C4B17578  30.509  28.603   7.655
 6729POPC   NC317579  35.310  27.565   9.455
 6729POPC   PO417580  35.327  27.638   9.155
 6729POPC   GL117581  35.360  27.569   8.855
 6729POPC   GL217582  35.448  27.591   8.855
 6729POPC   C1A17583  35.342  27.558   8.555
 6729POPC   D2A17584  35.378  27.562   8.255
 6729POPC   C3A17585  35.365  27.561   7.955
 6729POPC   C4A17586  35.388  27.619   7.655
 6729POPC   C1B17587  35.563  27.530   8.555
 6729POPC   C2B17588  35.555  27.552   8.255
 6729POPC   C3B17589  35.628  27.542   7.955
 6729POPC   C4B17590  35.630  27.499   7.655
 6730POPC   NC317591  10.514  19.090   9.455
 6730POPC   PO417592  10.569  19.107   9.155
 6730POPC   GL117593  10.520  19.018   8.855
 6730POPC   GL217594  10.556  18.961   8.855
 6730POPC   C1A17595  10.562  19.103   8.555
 6730POPC   D2A17596  10.509  19.026   8.255
 6730POPC   C3A17597  10.483  19.024   7.955
 6730POPC   C4A17598  10.574  19.095   7.655
 6730POPC   C1B17599  10.685  18.896   8.555
 6730POPC   C2B17600  10.723  18.853   8.255
 6730POPC   C3B17601  10.684  18.869   7.955
 6730POPC   C4B17602  10.696  18.871   7.655
 6731POPC   NC317603  12.803  29.167   9.455
 6731POPC   PO417604  12.867  29.156   9.155
 6731POPC   GL117605  12.887  29.184   8.855
 6731POPC   GL217606  12.729  29.182   8.855
 6731POPC   C1A17607  12.852  29.099   8.555
 6731POPC   D2A17608  12.898  29.161   8.255
 6731POPC   C3A17609  12.828  29.134   7.955
 6731POPC   C4A17610  12.837  29.156   7.655
 6731POPC   C1B17611  12.597  29.288   8.555
 6731POPC   C2B17612  12.601  29.248   8.255
 6731POPC   C3B17613  12.635  29.274   7.955
 6731POPC   C4B17614  12.687  29.324   7.655
 6732POPC   NC317615  12.812  43.876   9.455
 6732POPC   PO417616  12.889  43.839   9.155
 6732POPC   GL117617  12.895  43.876   8.855
 6732POPC   GL217618  12.748  43.730   8.855
 6732POPC   C1A17619  12.883  43.842   8.555
 6732POPC   D2A17620  12.853  43.848   8.255
 6732POPC   C3A17621  12.872  43.915   7.955
 6732POPC   C4A17622  12.826  43.896   7.655
 6732POPC   C1B17623  12.705  43.626   8.555
 6732POPC   C2B17624  12.689  43.644   8.255
 6732POPC   C3B17625  12.683  43.715   7.955
 6732POPC   C4B17626  12.714  43.669   7.655
 6733POPC   NC317627   2.774   5.082   9.455
 6733POPC   PO417628   2.802   5.102   9.155
 6733POPC   GL117629   2.788   5.063   8.855
 6733POPC   GL217630   2.715   5.153   8.855
 6733POPC   C1A17631   2.725   5.105   8.555
 6733POPC   D2A17632   2.731   5.139   8.255
 6733POPC   C3A17633   2.774   5.131   7.955
 6733POPC   C4A17634   2.767   5.072   7.655
 6733POPC   C1B17635   2.573   5.323   8.555
 6733POPC   C2B17636   2.543   5.271   8.255
 6733POPC   C3B17637   2.638   5.235   7.955
 6733POPC   C4B17638   2.635   5.284   7.655
 6734POPC   NC317639  23.763  17.557   9.455
 6734POPC   PO417640  23.742  17.498   9.155
 6734POPC   GL117641  23.764  17.547   8.855
 6734POPC   GL217642  23.820  17.434   8.855
 6734POPC   C1A17643  23.672  17.537   8.555
 6734POPC   D2A17644  23.731  17.550   8.255
 6734POPC   C3A17645  23.718  17.541   7.955
 6734POPC   C4A17646  23.668  17.480   7.655
 6734POPC   C1B17647  23.894  17.387   8.555
 6734POPC   C2B17648  23.917  17.352   8.255
 6734POPC   C3B17649  23.933  17.407   7.955
 6734POPC   C4B17650  23.934  17.336   7.655
 6735POPC   NC317651  26.768   2.720   9.455
 6735POPC   PO417652  26.783   2.753   9.155
 6735POPC   GL117653  26.816   2.774   8.855
 6735POPC   GL217654  26.830   2.899   8.855
 6735POPC   C1A17655  26.860   2.812   8.555
 6735POPC   D2A17656  26.775   2.791   8.255
 6735POPC   C3A17657  26.778   2.804   7.955
 6735POPC   C4A17658  26.825   2.790   7.655
 6735POPC   C1B17659  26.857   3.017   8.555
 6735POPC   C2B17660  26.791   3.065   8.255
 6735POPC   C3B17661  26.799   2.981   7.955
 6735POPC   C4B17662  26.846   3.059   7.655
 6736POPC   NC317663   9.753   2.717   9.455
 6736POPC   PO417664   9.722   2.722   9.155
 6736POPC   GL117665   9.796   2.794   8.855
 6736POPC   GL217666   9.826   2.871   8.855
 6736POPC   C1A17667   9.776   2.751   8.555
 6736POPC   D2A17668   9.780   2.754   8.255
 6736POPC   C3A17669   9.718   2.777   7.955
 6736POPC   C4A17670   9.700   2.766   7.655
 6736POPC   C1B17671   9.806   3.008   8.555
 6736POPC   C2B17672   9.797   3.005   8.255
 6736POPC   C3B17673   9.796   2.980   7.955
 6736POPC   C4B17674   9.832   2.987   7.655
 6737POPC   NC317675   4.336  43.928   9.455
 6737POPC   PO417676   4.314  43.935   9.155
 6737POPC   GL117677   4.300  43.901   8.855
 6737POPC   GL217678   4.305  44.059   8.855
 6737POPC   C1A17679   4.337  43.915   8.555
 6737POPC   D2A17680   4.366  43.904   8.255
 6737POPC   C3A17681   4.326  43.905   7.955
 6737POPC   C4A17682   4.353  43.872   7.655
 6737POPC   C1B17683   4.352  44.178   8.555
 6737POPC   C2B17684   4.338  44.135   8.255
 6737POPC   C3B17685   4.356  44.175   7.955
 6737POPC   C4B17686   4.295  44.178   7.655
 6738POPC   NC317687  37.633  27.552   9.455
 6738POPC   PO417688  37.655  27.610   9.155
 6738POPC   GL117689  37.686  27.623   8.855
 6738POPC   GL217690  37.626  27.457   8.855
 6738POPC   C1A17691  37.675  27.565   8.555
 6738POPC   D2A17692  37.682  27.619   8.255
 6738POPC   C3A17693  37.727  27.624   7.955
 6738POPC   C4A17694  37.636  27.640   7.655
 6738POPC   C1B17695  37.648  27.340   8.555
 6738POPC   C2B17696  37.651  27.304   8.255
 6738POPC   C3B17697  37.618  27.380   7.955
 6738POPC   C4B17698  37.595  27.305   7.655
 6739POPC   NC317699  14.400  41.537   9.455
 6739POPC   PO417700  14.430  41.511   9.155
 6739POPC   GL117701  14.445  41.553   8.855
 6739POPC   GL217702  14.466  41.510   8.855
 6739POPC   C1A17703  14.368  41.550   8.555
 6739POPC   D2A17704  14.443  41.593   8.255
 6739POPC   C3A17705  14.360  41.555   7.955
 6739POPC   C4A17706  14.437  41.562   7.655
 6739POPC   C1B17707  14.646  41.413   8.555
 6739POPC   C2B17708  14.590  41.399   8.255
 6739POPC   C3B17709  14.643  41.370   7.955
 6739POPC   C4B17710  14.639  41.466   7.655
 6740POPC   NC317711  13.656  16.768   9.455
 6740POPC   PO417712  13.640  16.728   9.155
 6740POPC   GL117713  13.593  16.723   8.855
 6740POPC   GL217714  13.652  16.857   8.855
 6740POPC   C1A17715  13.649  16.710   8.555
 6740POPC   D2A17716  13.665  16.712   8.255
 6740POPC   C3A17717  13.627  16.737   7.955
 6740POPC   C4A17718  13.586  16.708   7.655
 6740POPC   C1B17719  13.725  16.937   8.555
 6740POPC   C2B17720  13.725  16.961   8.255
 6740POPC   C3B17721  13.781  16.889   7.955
 6740POPC   C4B17722  13.770  16.966   7.655
 6741POPC   NC317723   9.006  43.156   9.455
 6741POPC   PO417724   8.924  43.148   9.155
 6741POPC   GL117725   8.964  43.100   8.855
 6741POPC   GL217726   8.865  43.042   8.855
 6741POPC   C1A17727   8.930  43.085   8.555
 6741POPC   D2A17728   9.013  43.098   8.255
 6741POPC   C3A17729   8.986  43.100   7.955
 6741POPC   C4A17730   9.020  43.106   7.655
 6741POPC   C1B17731   8.754  43.042   8.555
 6741POPC   C2B17732   8.732  43.034   8.255
 6741POPC   C3B17733   8.773  42.993   7.955
 6741POPC   C4B17734   8.720  43.011   7.655
 6742POPC   NC317735  19.854   8.226   9.455
 6742POPC   PO417736  19.819   8.162   9.155
 6742POPC   GL117737  19.867   8.214   8.855
 6742POPC   GL217738  19.941   8.307   8.855
 6742POPC   C1A17739  19.815   8.207   8.555
 6742POPC   D2A17740  19.825   8.219   8.255
 6742POPC   C3A17741  19.854   8.191   7.955
 6742POPC   C4A17742  19.820   8.148   7.655
 6742POPC   C1B17743  20.026   8.423   8.555
 6742POPC   C2B17744  19.983   8.390   8.255
 6742POPC   C3B17745  20.038   8.389   7.955
 6742POPC   C4B17746  20.028   8.350   7.655
 6743POPC   NC317747  32.975  16.699   9.455
 6743POPC   PO417748  33.036  16.750   9.155
 6743POPC   GL117749  33.033  16.681   8.855
 6743POPC   GL217750  33.095  16.812   8.855
 6743POPC   C1A17751  33.031  16.757   8.555
 6743POPC   D2A17752  32.999  16.728   8.255
 6743POPC   C3A17753  32.982  16.779   7.955
 6743POPC   C4A17754  33.058  16.718   7.655
 6743POPC   C1B17755  33.055  17.000   8.555
 6743POPC   C2B17756  33.142  16.980   8.255
 6743POPC   C3B17757  33.120  16.941   7.955
 6743POPC   C4B17758  33.119  17.007   7.655
 6744POPC   NC317759   4.366  38.496   9.455
 6744POPC   PO417760   4.335  38.428   9.155
 6744POPC   GL117761   4.306  38.408   8.855
 6744POPC   GL217762   4.294  38.570   8.855
 6744POPC   C1A17763   4.336  38.468   8.555
 6744POPC   D2A17764   4.338  38.467   8.255
 6744POPC   C3A17765   4.296  38.459   7.955
 6744POPC   C4A17766   4.367  38.482   7.655
 6744POPC   C1B17767   4.250  38.733   8.555
 6744POPC   C2B17768   4.336  38.725   8.255
 6744POPC   C3B17769   4.297  38.706   7.955
 6744POPC   C4B17770   4.299  38.688   7.655
 6745POPC   NC317771  43.075   3.572   9.455
 6745POPC   PO417772  43.081   3.561   9.155
 6745POPC   GL117773  43.143   3.542   8.855
 6745POPC   GL217774  43.200   3.504   8.855
 6745POPC   C1A17775  43.094   3.536   8.555
 6745POPC   D2A17776  43.154   3.555   8.255
 6745POPC   C3A17777  43.061   3.552   7.955
 6745POPC   C4A17778  43.062   3.559   7.655
 6745POPC   C1B17779  43.278   3.385   8.555
 6745POPC   C2B17780  43.325   3.335   8.255
 6745POPC   C3B17781  43.266   3.412   7.955
 6745POPC   C4B17782  43.322   3.373   7.655
 6746POPC   NC317783  13.579  37.684   9.455
 6746POPC   PO417784  13.642  37.635   9.155
 6746POPC   GL117785  13.657  37.642   8.855
 6746POPC   GL217786  13.741  37.793   8.855
 6746POPC   C1A17787  13.671  37.706   8.555
 6746POPC   D2A17788  13.582  37.653   8.255
 6746POPC   C3A17789  13.655  37.640   7.955
 6746POPC   C4A17790  13.612  37.631   7.655
 6746POPC   C1B17791  13.853  37.885   8.555
 6746POPC   C2B17792  13.798  37.829   8.255
 6746POPC   C3B17793  13.806  37.851   7.955
 6746POPC   C4B17794  13.805  37.893   7.655
 6747POPC   NC317795   8.187  26.068   9.455
 6747POPC   PO417796   8.241  26.052   9.155
 6747POPC   GL117797   8.169  26.047   8.855
 6747POPC   GL217798   8.031  25.980   8.855
 6747POPC   C1A17799   8.185  26.013   8.555
 6747POPC   D2A17800   8.177  26.057   8.255
 6747POPC   C3A17801   8.188  26.060   7.955
 6747POPC   C4A17802   8.242  25.993   7.655
 6747POPC   C1B17803   7.981  25.968   8.555
 6747POPC   C2B17804   7.919  26.038   8.255
 6747POPC   C3B17805   7.987  25.990   7.955
 6747POPC   C4B17806   7.930  26.031   7.655
 6748POPC   NC317807  26.019  27.576   9.455
 6748POPC   PO417808  26.024  27.619   9.155
 6748POPC   GL117809  26.025  27.563   8.855
 6748POPC   GL217810  26.050  27.667   8.855
 6748POPC   C1A17811  26.024  27.626   8.555
 6748POPC   D2A17812  26.065  27.611   8.255
 6748POPC   C3A17813  25.999  27.639   7.955
 6748POPC   C4A17814  26.029  27.585   7.655
 6748POPC   C1B17815  25.953  27.883   8.555
 6748POPC   C2B17816  26.001  27.822   8.255
 6748POPC   C3B17817  26.006  27.811   7.955
 6748POPC   C4B17818  25.961  27.884   7.655
 6749POPC   NC317819   5.827  19.015   9.455
 6749POPC   PO417820   5.911  19.100   9.155
 6749POPC   GL117821   5.820  19.047   8.855
 6749POPC   GL217822   5.893  18.926   8.855
 6749POPC   C1A17823   5.850  19.065   8.555
 6749POPC   D2A17824   5.874  19.030   8.255
 6749POPC   C3A17825   5.859  19.087   7.955
 6749POPC   C4A17826   5.894  19.104   7.655
 6749POPC   C1B17827   5.948  18.787   8.555
 6749POPC   C2B17828   5.939  18.836   8.255
 6749POPC   C3B17829   5.959  18.829   7.955
 6749POPC   C4B17830   5.926  18.793   7.655
 6750POPC   NC317831   8.927   2.813   9.455
 6750POPC   PO417832   8.934   2.726   9.155
 6750POPC   GL117833   8.996   2.779   8.855
 6750POPC   GL217834   8.903   2.765   8.855
 6750POPC   C1A17835   9.001   2.744   8.555
 6750POPC   D2A17836   9.009   2.757   8.255
 6750POPC   C3A17837   8.969   2.743   7.955
 6750POPC   C4A17838   8.977   2.777   7.655
 6750POPC   C1B17839   8.746   2.670   8.555
 6750POPC   C2B17840   8.764   2.693   8.255
 6750POPC   C3B17841   8.724   2.648   7.955
 6750POPC   C4B17842   8.763   2.631   7.655
 6751POPC   NC317843   0.464  32.213   9.455
 6751POPC   PO417844   0.484  32.269   9.155
 6751POPC   GL117845   0.466  32.230   8.855
 6751POPC   GL217846   0.529  32.245   8.855
 6751POPC   C1A17847   0.390  32.277   8.555
 6751POPC   D2A17848   0.398  32.205   8.255
 6751POPC   C3A17849   0.455  32.250   7.955
 6751POPC   C4A17850   0.426  32.254   7.655
 6751POPC   C1B17851   0.632  32.219   8.555
 6751POPC   C2B17852   0.663  32.197   8.255
 6751POPC   C3B17853   0.678  32.230   7.955
 6751POPC   C4B17854   0.728  32.193   7.655
 6752POPC   NC317855  28.336   8.154   9.455
 6752POPC   PO417856  28.418   8.178   9.155
 6752POPC   GL117857  28.412   8.190   8.855
 6752POPC   GL217858  28.321   8.089   8.855
 6752POPC   C1A17859  28.343   8.243   8.555
 6752POPC   D2A17860  28.323   8.180   8.255
 6752POPC   C3A17861  28.364   8.164   7.955
 6752POPC   C4A17862  28.381   8.156   7.655
 6752POPC   C1B17863  28.175   8.085   8.555
 6752POPC   C2B17864  28.177   8.025   8.255
 6752POPC   C3B17865  28.132   8.045   7.955
 6752POPC   C4B17866  28.194   7.994   7.655
 6753POPC   NC317867  36.932  18.312   9.455
 6753POPC   PO417868  36.897  18.250   9.155
 6753POPC   GL117869  36.880  18.283   8.855
 6753POPC   GL217870  36.801  18.375   8.855
 6753POPC   C1A17871  36.863  18.321   8.555
 6753POPC   D2A17872  36.911  18.235   8.255
 6753POPC   C3A17873  36.922  18.325   7.955
 6753POPC   C4A17874  36.887  18.279   7.655
 6753POPC   C1B17875  36.632  18.434   8.555
 6753POPC   C2B17876  36.679  18.349   8.255
 6753POPC   C3B17877  36.715  18.354   7.955
 6753POPC   C4B17878  36.681  18.370   7.655
 6754POPC   NC317879  26.827   3.582   9.455
 6754POPC   PO417880  26.771   3.555   9.155
 6754POPC   GL117881  26.808   3.584   8.855
 6754POPC   GL217882  26.917   3.604   8.855
 6754POPC   C1A17883  26.832   3.590   8.555
 6754POPC   D2A17884  26.780   3.521   8.255
 6754POPC   C3A17885  26.824   3.512   7.955
 6754POPC   C4A17886  26.774   3.539   7.655
 6754POPC   C1B17887  27.079   3.660   8.555
 6754POPC   C2B17888  27.057   3.666   8.255
 6754POPC   C3B17889  27.033   3.677   7.955
 6754POPC   C4B17890  27.001   3.640   7.655
 6755POPC   NC317891  12.125  43.916   9.455
 6755POPC   PO417892  12.059  43.920   9.155
 6755POPC   GL117893  12.119  43.871   8.855
 6755POPC   GL217894  11.946  43.810   8.855
 6755POPC   C1A17895  12.110  43.853   8.555
 6755POPC   D2A17896  12.105  43.874   8.255
 6755POPC   C3A17897  12.094  43.913   7.955
 6755POPC   C4A17898  12.121  43.853   7.655
 6755POPC   C1B17899  11.865  43.675   8.555
 6755POPC   C2B17900  11.872  43.727   8.255
 6755POPC   C3B17901  11.937  43.680   7.955
 6755POPC   C4B17902  11.936  43.718   7.655
 6756POPC   NC317903  21.368  32.286   9.455
 6756POPC   PO417904  21.357  32.227   9.155
 6756POPC   GL117905  21.427  32.201   8.855
 6756POPC   GL217906  21.519  32.243   8.855
 6756POPC   C1A17907  21.348  32.241   8.555
 6756POPC   D2A17908  21.404  32.200   8.255
 6756POPC   C3A17909  21.435  32.239   7.955
 6756POPC   C4A17910  21.396  32.267   7.655
 6756POPC   C1B17911  21.653  32.219   8.555
 6756POPC   C2B17912  21.662  32.314   8.255
 6756POPC   C3B17913  21.630  32.310   7.955
 6756POPC   C4B17914  21.615  32.262   7.655
 6757POPC   NC317915  33.020  19.045   9.455
 6757POPC   PO417916  33.002  19.036   9.155
 6757POPC   GL117917  33.004  19.063   8.855
 6757POPC   GL217918  32.911  19.004   8.855
 6757POPC   C1A17919  33.053  19.024   8.555
 6757POPC   D2A17920  33.032  19.077   8.255
 6757POPC   C3A17921  33.056  19.030   7.955
 6757POPC   C4A17922  33.048  19.064   7.655
 6757POPC   C1B17923  32.794  18.861   8.555
 6757POPC   C2B17924  32.868  18.896   8.255
 6757POPC   C3B17925  32.850  18.906   7.955
 6757POPC   C4B17926  32.794  18.877   7.655
 6758POPC   NC317927  44.691  25.290   9.455
 6758POPC   PO417928  44.678  25.290   9.155
 6758POPC   GL117929  44.645  25.246   8.855
 6758POPC   GL217930  44.747  25.431   8.855
 6758POPC   C1A17931  44.702  25.287   8.555
 6758POPC   D2A17932  44.704  25.304   8.255
 6758POPC   C3A17933  44.669  25.216   7.955
 6758POPC   C4A17934  44.659  25.266   7.655
 6758POPC   C1B17935  44.800  25.488   8.555
 6758POPC   C2B17936  44.711  25.537   8.255
 6758POPC   C3B17937  44.753  25.488   7.955
 6758POPC   C4B17938  44.736  25.518   7.655
 6759POPC   NC317939  43.066  25.303   9.455
 6759POPC   PO417940  43.140  25.249   9.155
 6759POPC   GL117941  43.114  25.218   8.855
 6759POPC   GL217942  43.229  25.273   8.855
 6759POPC   C1A17943  43.092  25.229   8.555
 6759POPC   D2A17944  43.099  25.267   8.255
 6759POPC   C3A17945  43.066  25.252   7.955
 6759POPC   C4A17946  43.082  25.310   7.655
 6759POPC   C1B17947  43.306  25.374   8.555
 6759POPC   C2B17948  43.359  25.334   8.255
 6759POPC   C3B17949  43.309  25.303   7.955
 6759POPC   C4B17950  43.330  25.307   7.655
 6760POPC   NC317951  14.400   2.780   9.455
 6760POPC   PO417952  14.405   2.779   9.155
 6760POPC   GL117953  14.371   2.746   8.855
 6760POPC   GL217954  14.443   2.838   8.855
 6760POPC   C1A17955  14.437   2.753   8.555
 6760POPC   D2A17956  14.434   2.747   8.255
 6760POPC   C3A17957  14.362   2.809   7.955
 6760POPC   C4A17958  14.383   2.768   7.655
 6760POPC   C1B17959  14.522   2.940   8.555
 6760POPC   C2B17960  14.581   2.934   8.255
 6760POPC   C3B17961  14.492   2.984   7.955
 6760POPC   C4B17962  14.557   2.979   7.655
 6761POPC   NC317963  18.290  12.891   9.455
 6761POPC   PO417964  18.252  12.847   9.155
 6761POPC   GL117965  18.235  12.807   8.855
 6761POPC   GL217966  18.358  12.693   8.855
 6761POPC   C1A17967  18.320  12.887   8.555
 6761POPC   D2A17968  18.239  12.864   8.255
 6761POPC   C3A17969  18.315  12.884   7.955
 6761POPC   C4A17970  18.286  12.868   7.655
 6761POPC   C1B17971  18.371  12.594   8.555
 6761POPC   C2B17972  18.377  12.639   8.255
 6761POPC   C3B17973  18.327  12.636   7.955
 6761POPC   C4B17974  18.377  12.573   7.655
 6762POPC   NC317975  34.538   6.612   9.455
 6762POPC   PO417976  34.561   6.651   9.155
 6762POPC   GL117977  34.590   6.679   8.855
 6762POPC   GL217978  34.455   6.635   8.855
 6762POPC   C1A17979  34.587   6.656   8.555
 6762POPC   D2A17980  34.610   6.616   8.255
 6762POPC   C3A17981  34.592   6.633   7.955
 6762POPC   C4A17982  34.625   6.596   7.655
 6762POPC   C1B17983  34.355   6.665   8.555
 6762POPC   C2B17984  34.299   6.724   8.255
 6762POPC   C3B17985  34.297   6.747   7.955
 6762POPC   C4B17986  34.289   6.738   7.655
 6763POPC   NC317987  22.160   6.685   9.455
 6763POPC   PO417988  22.193   6.623   9.155
 6763POPC   GL117989  22.209   6.680   8.855
 6763POPC   GL217990  22.096   6.751   8.855
 6763POPC   C1A17991  22.191   6.663   8.555
 6763POPC   D2A17992  22.160   6.683   8.255
 6763POPC   C3A17993  22.185   6.683   7.955
 6763POPC   C4A17994  22.135   6.632   7.655
 6763POPC   C1B17995  22.032   6.860   8.555
 6763POPC   C2B17996  21.948   6.800   8.255
 6763POPC   C3B17997  21.960   6.861   7.955
 6763POPC   C4B17998  22.029   6.873   7.655
 6764POPC   NC317999  12.831  37.683   9.455
 6764POPC   PO418000  12.877  37.691   9.155
 6764POPC   GL118001  12.872  37.670   8.855
 6764POPC   GL218002  12.762  37.524   8.855
 6764POPC   C1A18003  12.902  37.656   8.555
 6764POPC   D2A18004  12.809  37.700   8.255
 6764POPC   C3A18005  12.869  37.670   7.955
 6764POPC   C4A18006  12.847  37.659   7.655
 6764POPC   C1B18007  12.729  37.458   8.555
 6764POPC   C2B18008  12.817  37.402   8.255
 6764POPC   C3B18009  12.753  37.412   7.955
 6764POPC   C4B18010  12.734  37.448   7.655
 6765POPC   NC318011   6.654  11.345   9.455
 6765POPC   PO418012   6.630  11.316   9.155
 6765POPC   GL118013   6.610  11.288   8.855
 6765POPC   GL218014   6.582  11.455   8.855
 6765POPC   C1A18015   6.630  11.330   8.555
 6765POPC   D2A18016   6.644  11.320   8.255
 6765POPC   C3A18017   6.666  11.335   7.955
 6765POPC   C4A18018   6.627  11.260   7.655
 6765POPC   C1B18019   6.630  11.532   8.555
 6765POPC   C2B18020   6.555  11.533   8.255
 6765POPC   C3B18021   6.618  11.576   7.955
 6765POPC   C4B18022   6.640  11.513   7.655
 6766POPC   NC318023  36.948  15.991   9.455
 6766POPC   PO418024  36.946  15.929   9.155
 6766POPC   GL118025  36.926  15.958   8.855
 6766POPC   GL218026  36.905  16.045   8.855
 6766POPC   C1A18027  36.905  15.960   8.555
 6766POPC   D2A18028  36.913  15.994   8.255
 6766POPC   C3A18029  36.947  15.930   7.955
 6766POPC   C4A18030  36.941  15.964   7.655
 6766POPC   C1B18031  36.897  16.248   8.555
 6766POPC   C2B18032  36.963  16.183   8.255
 6766POPC   C3B18033  36.969  16.221   7.955
 6766POPC   C4B18034  36.918  16.192   7.655
 6767POPC   NC318035  34.582   2.787   9.455
 6767POPC   PO418036  34.567   2.745   9.155
 6767POPC   GL118037  34.574   2.787   8.855
 6767POPC   GL218038  34.749   2.782   8.855
 6767POPC   C1A18039  34.570   2.790   8.555
 6767POPC   D2A18040  34.538   2.798   8.255
 6767POPC   C3A18041  34.530   2.774   7.955
 6767POPC   C4A18042  34.622   2.779   7.655
 6767POPC   C1B18043  34.869   2.721   8.555
 6767POPC   C2B18044  34.833   2.735   8.255
 6767POPC   C3B18045  34.779   2.764   7.955
 6767POPC   C4B18046  34.844   2.752   7.655
 6768POPC   NC318047  40.034  19.840   9.455
 6768POPC   PO418048  40.004  19.857   9.155
 6768POPC   GL118049  39.982  19.806   8.855
 6768POPC   GL218050  39.954  19.958   8.855
 6768POPC   C1A18051  39.972  19.851   8.555
 6768POPC   D2A18052  40.052  19.827   8.255
 6768POPC   C3A18053  39.973  19.809   7.955
 6768POPC   C4A18054  39.981  19.785   7.655
 6768POPC   C1B18055  39.786  20.021   8.555
 6768POPC   C2B18056  39.786  19.994   8.255
 6768POPC   C3B18057  39.792  20.002   7.955
 6768POPC   C4B18058  39.802  20.045   7.655
 6769POPC   NC318059  12.850   9.788   9.455
 6769POPC   PO418060  12.852   9.720   9.155
 6769POPC   GL118061  12.861   9.725   8.855
 6769POPC   GL218062  12.928   9.653   8.855
 6769POPC   C1A18063  12.854   9.753   8.555
 6769POPC   D2A18064  12.895   9.740   8.255
 6769POPC   C3A18065  12.879   9.780   7.955
 6769POPC   C4A18066  12.871   9.783   7.655
 6769POPC   C1B18067  13.042   9.601   8.555
 6769POPC   C2B18068  13.051   9.578   8.255
 6769POPC   C3B18069  12.963   9.570   7.955
 6769POPC   C4B18070  13.013   9.567   7.655
 6770POPC   NC318071  43.087  15.910   9.455
 6770POPC   PO418072  43.090  15.942   9.155
 6770POPC   GL118073  43.075  15.927   8.855
 6770POPC   GL218074  42.975  15.958   8.855
 6770POPC   C1A18075  43.127  15.966   8.555
 6770POPC   D2A18076  43.097  15.967   8.255
 6770POPC   C3A18077  43.148  16.001   7.955
 6770POPC   C4A18078  43.111  15.924   7.655
 6770POPC   C1B18079  42.842  15.877   8.555
 6770POPC   C2B18080  42.848  15.901   8.255
 6770POPC   C3B18081  42.829  15.859   7.955
 6770POPC   C4B18082  42.868  15.880   7.655
 6771POPC   NC318083  29.886  28.351   9.455
 6771POPC   PO418084  29.958  28.345   9.155
 6771POPC   GL118085  29.884  28.351   8.855
 6771POPC   GL218086  29.769  28.320   8.855
 6771POPC   C1A18087  29.902  28.368   8.555
 6771POPC   D2A18088  29.963  28.338   8.255
 6771POPC   C3A18089  29.879  28.336   7.955
 6771POPC   C4A18090  29.902  28.373   7.655
 6771POPC   C1B18091  29.702  28.351   8.555
 6771POPC   C2B18092  29.631  28.312   8.255
 6771POPC   C3B18093  29.659  28.401   7.955
 6771POPC   C4B18094  29.666  28.366   7.655
 6772POPC   NC318095  18.256  35.354   9.455
 6772POPC   PO418096  18.260  35.363   9.155
 6772POPC   GL118097  18.260  35.349   8.855
 6772POPC   GL218098  18.150  35.326   8.855
 6772POPC   C1A18099  18.253  35.368   8.555
 6772POPC   D2A18100  18.311  35.386   8.255
 6772POPC   C3A18101  18.272  35.374   7.955
 6772POPC   C4A18102  18.274  35.340   7.655
 6772POPC   C1B18103  18.035  35.259   8.555
 6772POPC   C2B18104  18.062  35.231   8.255
 6772POPC   C3B18105  18.055  35.263   7.955
 6772POPC   C4B18106  18.065  35.286   7.655
 6773POPC   NC318107  36.870  21.352   9.455
 6773POPC   PO418108  36.906  21.361   9.155
 6773POPC   GL118109  36.873  21.376   8.855
 6773POPC   GL218110  36.783  21.401   8.855
 6773POPC   C1A18111  36.894  21.416   8.555
 6773POPC   D2A18112  36.864  21.365   8.255
 6773POPC   C3A18113  36.874  21.339   7.955
 6773POPC   C4A18114  36.899  21.362   7.655
 6773POPC   C1B18115  36.661  21.382   8.555
 6773POPC   C2B18116  36.673  21.363   8.255
 6773POPC   C3B18117  36.611  21.353   7.955
 6773POPC   C4B18118  36.637  21.359   7.655
 6774POPC   NC318119  32.978   9.783   9.455
 6774POPC   PO418120  33.018   9.747   9.155
 6774POPC   GL118121  33.010   9.717   8.855
 6774POPC   GL218122  32.976   9.689   8.855
 6774POPC   C1A18123  32.978   9.743   8.555
 6774POPC   D2A18124  33.049   9.726   8.255
 6774POPC   C3A18125  33.073   9.713   7.955
 6774POPC   C4A18126  33.015   9.699   7.655
 6774POPC   C1B18127  32.860   9.523   8.555
 6774POPC   C2B18128  32.913   9.553   8.255
 6774POPC   C3B18129  32.865   9.562   7.955
 6774POPC   C4B18130  32.861   9.511   7.655
 6775POPC   NC318131  29.933  34.568   9.455
 6775POPC   PO418132  29.966  34.557   9.155
 6775POPC   GL118133  29.924  34.549   8.855
 6775POPC   GL218134  30.008  34.574   8.855
 6775POPC   C1A18135  29.884  34.625   8.555
 6775POPC   D2A18136  29.921  34.594   8.255
 6775POPC   C3A18137  29.928  34.548   7.955
 6775POPC   C4A18138  29.889  34.581   7.655
 6775POPC   C1B18139  30.202  34.552   8.555
 6775POPC   C2B18140  30.119  34.489   8.255
 6775POPC   C3B18141  30.118  34.530   7.955
 6775POPC   C4B18142  30.129  34.555   7.655
 6776POPC   NC318143  26.860  17.516   9.455
 6776POPC   PO418144  26.805  17.542   9.155
 6776POPC   GL118145  26.772  17.471   8.855
 6776POPC   GL218146  26.645  17.492   8.855
 6776POPC   C1A18147  26.833  17.476   8.555
 6776POPC   D2A18148  26.815  17.537   8.255
 6776POPC   C3A18149  26.838  17.512   7.955
 6776POPC   C4A18150  26.848  17.477   7.655
 6776POPC   C1B18151  26.618  17.491   8.555
 6776POPC   C2B18152  26.604  17.476   8.255
 6776POPC   C3B18153  26.597  17.451   7.955
 6776POPC   C4B18154  26.535  17.463   7.655
 6777POPC   NC318155  29.121   1.223   9.455
 6777POPC   PO418156  29.172   1.220   9.155
 6777POPC   GL118157  29.126   1.175   8.855
 6777POPC   GL218158  29.133   1.052   8.855
 6777POPC   C1A18159  29.110   1.231   8.555
 6777POPC   D2A18160  29.177   1.184   8.255
 6777POPC   C3A18161  29.177   1.184   7.955
 6777POPC   C4A18162  29.102   1.179   7.655
 6777POPC   C1B18163  29.160   0.981   8.555
 6777POPC   C2B18164  29.074   0.927   8.255
 6777POPC   C3B18165  29.132   0.922   7.955
 6777POPC   C4B18166  29.076   0.945   7.655
 6778POPC   NC318167  42.332  16.714   9.455
 6778POPC   PO418168  42.373  16.694   9.155
 6778POPC   GL118169  42.365  16.715   8.855
 6778POPC   GL218170  42.351  16.873   8.855
 6778POPC   C1A18171  42.321  16.698   8.555
 6778POPC   D2A18172  42.295  16.724   8.255
 6778POPC   C3A18173  42.342  16.762   7.955
 6778POPC   C4A18174  42.351  16.746   7.655
 6778POPC   C1B18175  42.256  16.930   8.555
 6778POPC   C2B18176  42.248  17.025   8.255
 6778POPC   C3B18177  42.287  16.976   7.955
 6778POPC   C4B18178  42.280  16.968   7.655
 6779POPC   NC318179  14.420  16.765   9.455
 6779POPC   PO418180  14.403  16.780   9.155
 6779POPC   GL118181  14.414  16.738   8.855
 6779POPC   GL218182  14.265  16.768   8.855
 6779POPC   C1A18183  14.363  16.688   8.555
 6779POPC   D2A18184  14.366  16.742   8.255
 6779POPC   C3A18185  14.407  16.720   7.955
 6779POPC   C4A18186  14.386  16.771   7.655
 6779POPC   C1B18187  14.195  16.822   8.555
 6779POPC   C2B18188  14.121  16.763   8.255
 6779POPC   C3B18189  14.120  16.818   7.955
 6779POPC   C4B18190  14.175  16.764   7.655
 6780POPC   NC318191   3.569   5.869   9.455
 6780POPC   PO418192   3.534   5.907   9.155
 6780POPC   GL118193   3.588   5.889   8.855
 6780POPC   GL218194   3.543   5.767   8.855
 6780POPC   C1A18195   3.514   5.837   8.555
 6780POPC   D2A18196   3.544   5.844   8.255
 6780POPC   C3A18197   3.495   5.889   7.955
 6780POPC   C4A18198   3.571   5.911   7.655
 6780POPC   C1B18199   3.595   5.584   8.555
 6780POPC   C2B18200   3.533   5.614   8.255
 6780POPC   C3B18201   3.551   5.600   7.955
 6780POPC   C4B18202   3.608   5.602   7.655
 6781POPC   NC318203  15.151  13.671   9.455
 6781POPC   PO418204  15.171  13.598   9.155
 6781POPC   GL118205  15.160  13.583   8.855
 6781POPC   GL218206  15.140  13.731   8.855
 6781POPC   C1A18207  15.214  13.635   8.555
 6781POPC   D2A18208  15.175  13.592   8.255
 6781POPC   C3A18209  15.142  13.617   7.955
 6781POPC   C4A18210  15.154  13.640   7.655
 6781POPC   C1B18211  15.135  13.911   8.555
 6781POPC   C2B18212  15.177  13.913   8.255
 6781POPC   C3B18213  15.169  13.907   7.955
 6781POPC   C4B18214  15.134  13.924   7.655
 6782POPC   NC318215  17.510   3.512   9.455
 6782POPC   PO418216  17.470   3.497   9.155
 6782POPC   GL118217  17.507   3.591   8.855
 6782POPC   GL218218  17.599   3.652   8.855
 6782POPC   C1A18219  17.514   3.518   8.555
 6782POPC   D2A18220  17.555   3.536   8.255
 6782POPC   C3A18221  17.457   3.537   7.955
 6782POPC   C4A18222  17.534   3.541   7.655
 6782POPC   C1B18223  17.695   3.701   8.555
 6782POPC   C2B18224  17.625   3.719   8.255
 6782POPC   C3B18225  17.615   3.716   7.955
 6782POPC   C4B18226  17.606   3.787   7.655
 6783POPC   NC318227   8.942   8.945   9.455
 6783POPC   PO418228   9.018   8.959   9.155
 6783POPC   GL118229   8.972   8.944   8.855
 6783POPC   GL218230   8.943   8.838   8.855
 6783POPC   C1A18231   8.984   8.999   8.555
 6783POPC   D2A18232   8.946   9.017   8.255
 6783POPC   C3A18233   8.972   8.960   7.955
 6783POPC   C4A18234   8.969   8.956   7.655
 6783POPC   C1B18235   8.997   8.769   8.555
 6783POPC   C2B18236   8.930   8.726   8.255
 6783POPC   C3B18237   8.980   8.690   7.955
 6783POPC   C4B18238   9.008   8.702   7.655
 6784POPC   NC318239   5.839  36.887   9.455
 6784POPC   PO418240   5.901  36.930   9.155
 6784POPC   GL118241   5.882  36.860   8.855
 6784POPC   GL218242   5.811  36.811   8.855
 6784POPC   C1A18243   5.847  36.874   8.555
 6784POPC   D2A18244   5.868  36.925   8.255
 6784POPC   C3A18245   5.870  36.878   7.955
 6784POPC   C4A18246   5.844  36.905   7.655
 6784POPC   C1B18247   5.854  36.688   8.555
 6784POPC   C2B18248   5.764  36.616   8.255
 6784POPC   C3B18249   5.778  36.640   7.955
 6784POPC   C4B18250   5.795  36.660   7.655
 6785POPC   NC318251  22.933  18.280   9.455
 6785POPC   PO418252  22.961  18.250   9.155
 6785POPC   GL118253  22.972  18.330   8.855
 6785POPC   GL218254  22.975  18.196   8.855
 6785POPC   C1A18255  22.933  18.323   8.555
 6785POPC   D2A18256  22.895  18.313   8.255
 6785POPC   C3A18257  22.894  18.268   7.955
 6785POPC   C4A18258  22.892  18.292   7.655
 6785POPC   C1B18259  22.954  18.045   8.555
 6785POPC   C2B18260  22.883  18.016   8.255
 6785POPC   C3B18261  22.943  18.012   7.955
 6785POPC   C4B18262  22.895  18.014   7.655
 6786POPC   NC318263  12.899   4.336   9.455
 6786POPC   PO418264  12.853   4.306   9.155
 6786POPC   GL118265  12.846   4.274   8.855
 6786POPC   GL218266  12.765   4.334   8.855
 6786POPC   C1A18267  12.882   4.358   8.555
 6786POPC   D2A18268  12.809   4.277   8.255
 6786POPC   C3A18269  12.802   4.365   7.955
 6786POPC   C4A18270  12.861   4.359   7.655
 6786POPC   C1B18271  12.654   4.441   8.555
 6786POPC   C2B18272  12.592   4.460   8.255
 6786POPC   C3B18273  12.573   4.430   7.955
 6786POPC   C4B18274  12.582   4.412   7.655
 6787POPC   NC318275   1.950  36.106   9.455
 6787POPC   PO418276   1.949  36.136   9.155
 6787POPC   GL118277   2.020  36.145   8.855
 6787POPC   GL218278   2.073  36.163   8.855
 6787POPC   C1A18279   1.967  36.161   8.555
 6787POPC   D2A18280   1.982  36.132   8.255
 6787POPC   C3A18281   1.960  36.081   7.955
 6787POPC   C4A18282   2.040  36.121   7.655
 6787POPC   C1B18283   2.233  36.208   8.555
 6787POPC   C2B18284   2.166  36.287   8.255
 6787POPC   C3B18285   2.258  36.260   7.955
 6787POPC   C4B18286   2.230  36.272   7.655
 6788POPC   NC318287  36.856  24.532   9.455
 6788POPC   PO418288  36.907  24.499   9.155
 6788POPC   GL118289  36.883  24.532   8.855
 6788POPC   GL218290  36.785  24.507   8.855
 6788POPC   C1A18291  36.882  24.507   8.555
 6788POPC   D2A18292  36.942  24.453   8.255
 6788POPC   C3A18293  36.880  24.522   7.955
 6788POPC   C4A18294  36.933  24.535   7.655
 6788POPC   C1B18295  36.653  24.480   8.555
 6788POPC   C2B18296  36.638  24.509   8.255
 6788POPC   C3B18297  36.642  24.537   7.955
 6788POPC   C4B18298  36.696  24.478   7.655
 6789POPC   NC318299  24.442  17.501   9.455
 6789POPC   PO418300  24.496  17.498   9.155
 6789POPC   GL118301  24.484  17.486   8.855
 6789POPC   GL218302  24.545  17.424   8.855
 6789POPC   C1A18303  24.473  17.538   8.555
 6789POPC   D2A18304  24.472  17.519   8.255
 6789POPC   C3A18305  24.478  17.531   7.955
 6789POPC   C4A18306  24.499  17.523   7.655
 6789POPC   C1B18307  24.512  17.250   8.555
 6789POPC   C2B18308  24.532  17.251   8.255
 6789POPC   C3B18309  24.503  17.250   7.955
 6789POPC   C4B18310  24.494  17.274   7.655
 6790POPC   NC318311  40.760  17.517   9.455
 6790POPC   PO418312  40.771  17.521   9.155
 6790POPC   GL118313  40.760  17.506   8.855
 6790POPC   GL218314  40.775  17.604   8.855
 6790POPC   C1A18315  40.772  17.503   8.555
 6790POPC   D2A18316  40.770  17.490   8.255
 6790POPC   C3A18317  40.828  17.508   7.955
 6790POPC   C4A18318  40.742  17.510   7.655
 6790POPC   C1B18319  40.778  17.802   8.555
 6790POPC   C2B18320  40.762  17.777   8.255
 6790POPC   C3B18321  40.719  17.765   7.955
 6790POPC   C4B18322  40.744  17.754   7.655
 6791POPC   NC318323  39.982  31.503   9.455
 6791POPC   PO418324  40.044  31.434   9.155
 6791POPC   GL118325  40.010  31.456   8.855
 6791POPC   GL218326  39.947  31.575   8.855
 6791POPC   C1A18327  40.050  31.484   8.555
 6791POPC   D2A18328  40.037  31.423   8.255
 6791POPC   C3A18329  39.990  31.478   7.955
 6791POPC   C4A18330  39.974  31.440   7.655
 6791POPC   C1B18331  39.784  31.612   8.555
 6791POPC   C2B18332  39.836  31.639   8.255
 6791POPC   C3B18333  39.862  31.603   7.955
 6791POPC   C4B18334  39.797  31.659   7.655
 6792POPC   NC318335  29.919  15.152   9.455
 6792POPC   PO418336  29.876  15.208   9.155
 6792POPC   GL118337  29.968  15.197   8.855
 6792POPC   GL218338  30.044  15.115   8.855
 6792POPC   C1A18339  29.882  15.205   8.555
 6792POPC   D2A18340  29.963  15.193   8.255
 6792POPC   C3A18341  29.966  15.168   7.955
 6792POPC   C4A18342  29.939  15.141   7.655
 6792POPC   C1B18343  30.070  14.963   8.555
 6792POPC   C2B18344  30.036  15.019   8.255
 6792POPC   C3B18345  30.126  14.936   7.955
 6792POPC   C4B18346  30.082  14.939   7.655
 6793POPC   NC318347  11.307  36.891   9.455
 6793POPC   PO418348  11.281  36.879   9.155
 6793POPC   GL118349  11.271  36.888   8.855
 6793POPC   GL218350  11.148  36.869   8.855
 6793POPC   C1A18351  11.256  36.872   8.555
 6793POPC   D2A18352  11.292  36.870   8.255
 6793POPC   C3A18353  11.271  36.903   7.955
 6793POPC   C4A18354  11.318  36.868   7.655
 6793POPC   C1B18355  11.023  36.904   8.555
 6793POPC   C2B18356  11.030  36.891   8.255
 6793POPC   C3B18357  11.099  36.900   7.955
 6793POPC   C4B18358  11.087  36.913   7.655
 6794POPC   NC318359  43.141   5.134   9.455
 6794POPC   PO418360  43.157   5.118   9.155
 6794POPC   GL118361  43.068   5.116   8.855
 6794POPC   GL218362  43.072   4.957   8.855
 6794POPC   C1A18363  43.103   5.046   8.555
 6794POPC   D2A18364  43.119   5.075   8.255
 6794POPC   C3A18365  43.139   5.052   7.955
 6794POPC   C4A18366  43.141   5.093   7.655
 6794POPC   C1B18367  42.999   4.905   8.555
 6794POPC   C2B18368  43.040   4.889   8.255
 6794POPC   C3B18369  43.062   4.892   7.955
 6794POPC   C4B18370  43.046   4.835   7.655
 6795POPC   NC318371  31.456  32.225   9.455
 6795POPC   PO418372  31.515  32.273   9.155
 6795POPC   GL118373  31.438  32.205   8.855
 6795POPC   GL218374  31.551  32.330   8.855
 6795POPC   C1A18375  31.517  32.245   8.555
 6795POPC   D2A18376  31.496  32.200   8.255
 6795POPC   C3A18377  31.494  32.253   7.955
 6795POPC   C4A18378  31.478  32.226   7.655
 6795POPC   C1B18379  31.548  32.533   8.555
 6795POPC   C2B18380  31.587  32.444   8.255
 6795POPC   C3B18381  31.562  32.441   7.955
 6795POPC   C4B18382  31.573  32.489   7.655
 6796POPC   NC318383   4.268  41.547   9.455
 6796POPC   PO418384   4.349  41.582   9.155
 6796POPC   GL118385   4.280  41.560   8.855
 6796POPC   GL218386   4.339  41.478   8.855
 6796POPC   C1A18387   4.303  41.582   8.555
 6796POPC   D2A18388   4.300  41.592   8.255
 6796POPC   C3A18389   4.270  41.545   7.955
 6796POPC   C4A18390   4.338  41.605   7.655
 6796POPC   C1B18391   4.415  41.346   8.555
 6796POPC   C2B18392   4.427  41.374   8.255
 6796POPC   C3B18393   4.423  41.337   7.955
 6796POPC   C4B18394   4.400  41.306   7.655
 6797POPC   NC318395   0.481   2.789   9.455
 6797POPC   PO418396   0.435   2.793   9.155
 6797POPC   GL118397   0.416   2.809   8.855
 6797POPC   GL218398   0.456   2.649   8.855
 6797POPC   C1A18399   0.429   2.733   8.555
 6797POPC   D2A18400   0.413   2.760   8.255
 6797POPC   C3A18401   0.419   2.718   7.955
 6797POPC   C4A18402   0.476   2.795   7.655
 6797POPC   C1B18403   0.555   2.494   8.555
 6797POPC   C2B18404   0.530   2.531   8.255
 6797POPC   C3B18405   0.490   2.515   7.955
 6797POPC   C4B18406   0.544   2.522   7.655
 6798POPC   NC318407  33.778  22.948   9.455
 6798POPC   PO418408  33.849  22.904   9.155
 6798POPC   GL118409  33.787  22.949   8.855
 6798POPC   GL218410  33.788  23.043   8.855
 6798POPC   C1A18411  33.838  22.893   8.555
 6798POPC   D2A18412  33.819  22.906   8.255
 6798POPC   C3A18413  33.765  22.910   7.955
 6798POPC   C4A18414  33.767  22.957   7.655
 6798POPC   C1B18415  33.831  23.185   8.555
 6798POPC   C2B18416  33.812  23.227   8.255
 6798POPC   C3B18417  33.844  23.182   7.955
 6798POPC   C4B18418  33.827  23.172   7.655
 6799POPC   NC318419  12.892  28.400   9.455
 6799POPC   PO418420  12.863  28.332   9.155
 6799POPC   GL118421  12.896  28.399   8.855
 6799POPC   GL218422  12.792  28.313   8.855
 6799POPC   C1A18423  12.872  28.418   8.555
 6799POPC   D2A18424  12.804  28.386   8.255
 6799POPC   C3A18425  12.811  28.418   7.955
 6799POPC   C4A18426  12.835  28.341   7.655
 6799POPC   C1B18427  12.681  28.136   8.555
 6799POPC   C2B18428  12.720  28.129   8.255
 6799POPC   C3B18429  12.695  28.160   7.955
 6799POPC   C4B18430  12.689  28.115   7.655
 6800POPC   NC318431  27.570  15.933   9.455
 6800POPC   PO418432  27.604  15.935   9.155
 6800POPC   GL118433  27.594  15.960   8.855
 6800POPC   GL218434  27.673  15.878   8.855
 6800POPC   C1A18435  27.570  15.976   8.555
 6800POPC   D2A18436  27.546  15.912   8.255
 6800POPC   C3A18437  27.578  15.993   7.955
 6800POPC   C4A18438  27.635  15.951   7.655
 6800POPC   C1B18439  27.687  15.692   8.555
 6800POPC   C2B18440  27.687  15.687   8.255
 6800POPC   C3B18441  27.716  15.684   7.955
 6800POPC   C4B18442  27.661  15.712   7.655
 6801POPC   NC318443  12.839   5.855   9.455
 6801POPC   PO418444  12.851   5.856   9.155
 6801POPC   GL118445  12.890   5.839   8.855
 6801POPC   GL218446  12.952   5.850   8.855
 6801POPC   C1A18447  12.842   5.903   8.555
 6801POPC   D2A18448  12.841   5.836   8.255
 6801POPC   C3A18449  12.821   5.909   7.955
 6801POPC   C4A18450  12.816   5.879   7.655
 6801POPC   C1B18451  13.126   5.854   8.555
 6801POPC   C2B18452  13.142   5.861   8.255
 6801POPC   C3B18453  13.078   5.865   7.955
 6801POPC   C4B18454  13.128   5.834   7.655
 6802POPC   NC318455   2.030  40.046   9.455
 6802POPC   PO418456   1.959  39.977   9.155
 6802POPC   GL118457   2.007  39.967   8.855
 6802POPC   GL218458   1.896  39.991   8.855
 6802POPC   C1A18459   2.016  39.964   8.555
 6802POPC   D2A18460   1.999  39.997   8.255
 6802POPC   C3A18461   1.950  40.025   7.955
 6802POPC   C4A18462   2.007  39.973   7.655
 6802POPC   C1B18463   1.799  39.883   8.555
 6802POPC   C2B18464   1.776  39.958   8.255
 6802POPC   C3B18465   1.725  39.883   7.955
 6802POPC   C4B18466   1.730  39.884   7.655
 6803POPC   NC318467  36.155   4.365   9.455
 6803POPC   PO418468  36.089   4.328   9.155
 6803POPC   GL118469  36.111   4.304   8.855
 6803POPC   GL218470  36.013   4.330   8.855
 6803POPC   C1A18471  36.097   4.344   8.555
 6803POPC   D2A18472  36.081   4.317   8.255
 6803POPC   C3A18473  36.138   4.302   7.955
 6803POPC   C4A18474  36.117   4.269   7.655
 6803POPC   C1B18475  35.886   4.295   8.555
 6803POPC   C2B18476  35.872   4.301   8.255
 6803POPC   C3B18477  35.874   4.216   7.955
 6803POPC   C4B18478  35.848   4.240   7.655
 6804POPC   NC318479  34.596  19.067   9.455
 6804POPC   PO418480  34.593  19.073   9.155
 6804POPC   GL118481  34.538  19.073   8.855
 6804POPC   GL218482  34.711  19.092   8.855
 6804POPC   C1A18483  34.560  19.049   8.555
 6804POPC   D2A18484  34.533  19.084   8.255
 6804POPC   C3A18485  34.594  19.062   7.955
 6804POPC   C4A18486  34.591  19.066   7.655
 6804POPC   C1B18487  34.778  19.099   8.555
 6804POPC   C2B18488  34.775  19.097   8.255
 6804POPC   C3B18489  34.787  19.125   7.955
 6804POPC   C4B18490  34.830  19.086   7.655
 6805POPC   NC318491  19.832   8.958   9.455
 6805POPC   PO418492  19.854   8.953   9.155
 6805POPC   GL118493  19.822   8.933   8.855
 6805POPC   GL218494  19.842   8.804   8.855
 6805POPC   C1A18495  19.864   9.010   8.555
 6805POPC   D2A18496  19.865   8.929   8.255
 6805POPC   C3A18497  19.804   8.956   7.955
 6805POPC   C4A18498  19.816   8.983   7.655
 6805POPC   C1B18499  19.831   8.675   8.555
 6805POPC   C2B18500  19.757   8.745   8.255
 6805POPC   C3B18501  19.841   8.727   7.955
 6805POPC   C4B18502  19.810   8.690   7.655
 6806POPC   NC318503  10.530  12.817   9.455
 6806POPC   PO418504  10.475  12.863   9.155
 6806POPC   GL118505  10.556  12.872   8.855
 6806POPC   GL218506  10.469  12.763   8.855
 6806POPC   C1A18507  10.529  12.854   8.555
 6806POPC   D2A18508  10.514  12.809   8.255
 6806POPC   C3A18509  10.485  12.856   7.955
 6806POPC   C4A18510  10.480  12.816   7.655
 6806POPC   C1B18511  10.486  12.568   8.555
 6806POPC   C2B18512  10.482  12.570   8.255
 6806POPC   C3B18513  10.449  12.615   7.955
 6806POPC   C4B18514  10.468  12.634   7.655
 6807POPC   NC318515  42.341  33.774   9.455
 6807POPC   PO418516  42.288  33.829   9.155
 6807POPC   GL118517  42.290  33.823   8.855
 6807POPC   GL218518  42.253  33.822   8.855
 6807POPC   C1A18519  42.314  33.787   8.555
 6807POPC   D2A18520  42.356  33.799   8.255
 6807POPC   C3A18521  42.323  33.847   7.955
 6807POPC   C4A18522  42.372  33.829   7.655
 6807POPC   C1B18523  42.174  33.892   8.555
 6807POPC   C2B18524  42.131  33.946   8.255
 6807POPC   C3B18525  42.093  33.896   7.955
 6807POPC   C4B18526  42.138  33.916   7.655
 6808POPC   NC318527  39.193  18.239   9.455
 6808POPC   PO418528  39.215  18.312   9.155
 6808POPC   GL118529  39.268  18.274   8.855
 6808POPC   GL218530  39.240  18.362   8.855
 6808POPC   C1A18531  39.280  18.257   8.555
 6808POPC   D2A18532  39.252  18.312   8.255
 6808POPC   C3A18533  39.251  18.278   7.955
 6808POPC   C4A18534  39.253  18.282   7.655
 6808POPC   C1B18535  39.276  18.562   8.555
 6808POPC   C2B18536  39.296  18.507   8.255
 6808POPC   C3B18537  39.263  18.560   7.955
 6808POPC   C4B18538  39.288  18.555   7.655
 6809POPC   NC318539  42.286  28.327   9.455
 6809POPC   PO418540  42.315  28.331   9.155
 6809POPC   GL118541  42.367  28.331   8.855
 6809POPC   GL218542  42.226  28.430   8.855
 6809POPC   C1A18543  42.292  28.380   8.555
 6809POPC   D2A18544  42.288  28.414   8.255
 6809POPC   C3A18545  42.346  28.379   7.955
 6809POPC   C4A18546  42.354  28.368   7.655
 6809POPC   C1B18547  42.108  28.571   8.555
 6809POPC   C2B18548  42.137  28.548   8.255
 6809POPC   C3B18549  42.129  28.548   7.955
 6809POPC   C4B18550  42.122  28.570   7.655
 6810POPC   NC318551  14.377  20.584   9.455
 6810POPC   PO418552  14.404  20.649   9.155
 6810POPC   GL118553  14.447  20.660   8.855
 6810POPC   GL218554  14.356  20.515   8.855
 6810POPC   C1A18555  14.372  20.637   8.555
 6810POPC   D2A18556  14.421  20.654   8.255
 6810POPC   C3A18557  14.421  20.660   7.955
 6810POPC   C4A18558  14.448  20.583   7.655
 6810POPC   C1B18559  14.189  20.476   8.555
 6810POPC   C2B18560  14.252  20.423   8.255
 6810POPC   C3B18561  14.231  20.427   7.955
 6810POPC   C4B18562  14.266  20.417   7.655
 6811POPC   NC318563  13.579   6.605   9.455
 6811POPC   PO418564  13.588   6.630   9.155
 6811POPC   GL118565  13.668   6.599   8.855
 6811POPC   GL218566  13.587   6.533   8.855
 6811POPC   C1A18567  13.637   6.608   8.555
 6811POPC   D2A18568  13.588   6.623   8.255
 6811POPC   C3A18569  13.646   6.638   7.955
 6811POPC   C4A18570  13.584   6.685   7.655
 6811POPC   C1B18571  13.586   6.391   8.555
 6811POPC   C2B18572  13.546   6.390   8.255
 6811POPC   C3B18573  13.595   6.434   7.955
 6811POPC   C4B18574  13.560   6.420   7.655
 6812POPC   NC318575  44.654  22.900   9.455
 6812POPC   PO418576  44.706  22.928   9.155
 6812POPC   GL118577  44.682  22.984   8.855
 6812POPC   GL218578  44.603  22.786   8.855
 6812POPC   C1A18579  44.658  22.921   8.555
 6812POPC   D2A18580  44.665  22.937   8.255
 6812POPC   C3A18581  44.635  22.943   7.955
 6812POPC   C4A18582  44.651  22.969   7.655
 6812POPC   C1B18583  44.519  22.738   8.555
 6812POPC   C2B18584  44.490  22.774   8.255
 6812POPC   C3B18585  44.539  22.700   7.955
 6812POPC   C4B18586  44.505  22.717   7.655
 6813POPC   NC318587  19.838  11.251   9.455
 6813POPC   PO418588  19.787  11.344   9.155
 6813POPC   GL118589  19.881  11.318   8.855
 6813POPC   GL218590  19.738  11.366   8.855
 6813POPC   C1A18591  19.787  11.317   8.555
 6813POPC   D2A18592  19.793  11.263   8.255
 6813POPC   C3A18593  19.802  11.276   7.955
 6813POPC   C4A18594  19.812  11.335   7.655
 6813POPC   C1B18595  19.624  11.472   8.555
 6813POPC   C2B18596  19.639  11.480   8.255
 6813POPC   C3B18597  19.673  11.435   7.955
 6813POPC   C4B18598  19.628  11.485   7.655
 6814POPC   NC318599  42.319  29.178   9.455
 6814POPC   PO418600  42.365  29.175   9.155
 6814POPC   GL118601  42.305  29.110   8.855
 6814POPC   GL218602  42.306  29.051   8.855
 6814POPC   C1A18603  42.322  29.147   8.555
 6814POPC   D2A18604  42.331  29.190   8.255
 6814POPC   C3A18605  42.344  29.193   7.955
 6814POPC   C4A18606  42.285  29.103   7.655
 6814POPC   C1B18607  42.378  28.879   8.555
 6814POPC   C2B18608  42.385  28.892   8.255
 6814POPC   C3B18609  42.328  28.875   7.955
 6814POPC   C4B18610  42.345  28.916   7.655
 6815POPC   NC318611  44.657  11.311   9.455
 6815POPC   PO418612  44.710  11.336   9.155
 6815POPC   GL118613  44.619  11.261   8.855
 6815POPC   GL218614  44.828  11.230   8.855
 6815POPC   C1A18615  44.625  11.253   8.555
 6815POPC   D2A18616  44.688  11.277   8.255
 6815POPC   C3A18617  44.709  11.300   7.955
 6815POPC   C4A18618  44.688  11.294   7.655
 6815POPC   C1B18619  44.930  11.255   8.555
 6815POPC   C2B18620  44.945  11.218   8.255
 6815POPC   C3B18621  44.931  11.174   7.955
 6815POPC   C4B18622  44.912  11.201   7.655
 6816POPC   NC318623   7.434  42.343   9.455
 6816POPC   PO418624   7.416  42.296   9.155
 6816POPC   GL118625   7.451  42.348   8.855
 6816POPC   GL218626   7.430  42.258   8.855
 6816POPC   C1A18627   7.372  42.343   8.555
 6816POPC   D2A18628   7.390  42.319   8.255
 6816POPC   C3A18629   7.380  42.297   7.955
 6816POPC   C4A18630   7.444  42.300   7.655
 6816POPC   C1B18631   7.428  42.083   8.555
 6816POPC   C2B18632   7.460  42.080   8.255
 6816POPC   C3B18633   7.451  42.111   7.955
 6816POPC   C4B18634   7.463  42.060   7.655
 6817POPC   NC318635  20.654  44.665   9.455
 6817POPC   PO418636  20.606  44.707   9.155
 6817POPC   GL118637  20.598  44.632   8.855
 6817POPC   GL218638  20.535  44.728   8.855
 6817POPC   C1A18639  20.656  44.613   8.555
 6817POPC   D2A18640  20.628  44.699   8.255
 6817POPC   C3A18641  20.649  44.707   7.955
 6817POPC   C4A18642  20.599  44.649   7.655
 6817POPC   C1B18643  20.447  44.828   8.555
 6817POPC   C2B18644  20.448  44.794   8.255
 6817POPC   C3B18645  20.398  44.798   7.955
 6817POPC   C4B18646  20.391  44.845   7.655
 6818POPC   NC318647  30.659   1.257   9.455
 6818POPC   PO418648  30.688   1.254   9.155
 6818POPC   GL118649  30.729   1.202   8.855
 6818POPC   GL218650  30.831   1.223   8.855
 6818POPC   C1A18651  30.663   1.250   8.555
 6818POPC   D2A18652  30.677   1.171   8.255
 6818POPC   C3A18653  30.713   1.199   7.955
 6818POPC   C4A18654  30.666   1.178   7.655
 6818POPC   C1B18655  30.950   1.183   8.555
 6818POPC   C2B18656  30.968   1.144   8.255
 6818POPC   C3B18657  30.970   1.183   7.955
 6818POPC   C4B18658  30.897   1.208   7.655
 6819POPC   NC318659  36.122  15.130   9.455
 6819POPC   PO418660  36.103  15.154   9.155
 6819POPC   GL118661  36.113  15.161   8.855
 6819POPC   GL218662  35.976  15.095   8.855
 6819POPC   C1A18663  36.173  15.158   8.555
 6819POPC   D2A18664  36.113  15.171   8.255
 6819POPC   C3A18665  36.095  15.137   7.955
 6819POPC   C4A18666  36.172  15.171   7.655
 6819POPC   C1B18667  35.927  15.075   8.555
 6819POPC   C2B18668  35.944  15.010   8.255
 6819POPC   C3B18669  35.882  15.023   7.955
 6819POPC   C4B18670  35.948  15.087   7.655
 6820POPC   NC318671   5.081  39.958   9.455
 6820POPC   PO418672   5.087  40.021   9.155
 6820POPC   GL118673   5.054  39.973   8.855
 6820POPC   GL218674   5.246  39.950   8.855
 6820POPC   C1A18675   5.129  40.011   8.555
 6820POPC   D2A18676   5.139  40.008   8.255
 6820POPC   C3A18677   5.133  40.042   7.955
 6820POPC   C4A18678   5.103  39.960   7.655
 6820POPC   C1B18679   5.329  39.974   8.555
 6820POPC   C2B18680   5.331  39.907   8.255
 6820POPC   C3B18681   5.320  39.888   7.955
 6820POPC   C4B18682   5.379  39.927   7.655
 6821POPC   NC318683  38.447  22.917   9.455
 6821POPC   PO418684  38.485  22.926   9.155
 6821POPC   GL118685  38.488  22.934   8.855
 6821POPC   GL218686  38.541  22.971   8.855
 6821POPC   C1A18687  38.410  22.981   8.555
 6821POPC   D2A18688  38.457  22.909   8.255
 6821POPC   C3A18689  38.414  22.899   7.955
 6821POPC   C4A18690  38.461  22.944   7.655
 6821POPC   C1B18691  38.669  22.967   8.555
 6821POPC   C2B18692  38.684  22.931   8.255
 6821POPC   C3B18693  38.672  22.899   7.955
 6821POPC   C4B18694  38.658  22.930   7.655
 6822POPC   NC318695   6.664  36.132   9.455
 6822POPC   PO418696   6.629  36.100   9.155
 6822POPC   GL118697   6.637  36.157   8.855
 6822POPC   GL218698   6.544  36.082   8.855
 6822POPC   C1A18699   6.637  36.158   8.555
 6822POPC   D2A18700   6.655  36.132   8.255
 6822POPC   C3A18701   6.686  36.102   7.955
 6822POPC   C4A18702   6.671  36.155   7.655
 6822POPC   C1B18703   6.422  36.103   8.555
 6822POPC   C2B18704   6.363  36.110   8.255
 6822POPC   C3B18705   6.444  36.094   7.955
 6822POPC   C4B18706   6.408  36.044   7.655
 6823POPC   NC318707  32.225  19.818   9.455
 6823POPC   PO418708  32.262  19.810   9.155
 6823POPC   GL118709  32.235  19.839   8.855
 6823POPC   GL218710  32.401  19.902   8.855
 6823POPC   C1A18711  32.202  19.799   8.555
 6823POPC   D2A18712  32.263  19.812   8.255
 6823POPC   C3A18713  32.272  19.836   7.955
 6823POPC   C4A18714  32.212  19.823   7.655
 6823POPC   C1B18715  32.501  19.965   8.555
 6823POPC   C2B18716  32.429  19.954   8.255
 6823POPC   C3B18717  32.455  19.964   7.955
 6823POPC   C4B18718  32.467  19.984   7.655
 6824POPC   NC318719  19.850   5.099   9.455
 6824POPC   PO418720  19.822   5.123   9.155
 6824POPC   GL118721  19.884   5.134   8.855
 6824POPC   GL218722  19.793   4.935   8.855
 6824POPC   C1A18723  19.801   5.097   8.555
 6824POPC   D2A18724  19.881   5.064   8.255
 6824POPC   C3A18725  19.795   5.143   7.955
 6824POPC   C4A18726  19.845   5.046   7.655
 6824POPC   C1B18727  19.794   4.904   8.555
 6824POPC   C2B18728  19.713   4.894   8.255
 6824POPC   C3B18729  19.771   4.898   7.955
 6824POPC   C4B18730  19.756   4.886   7.655
 6825POPC   NC318731  44.665  15.160   9.455
 6825POPC   PO418732  44.649  15.177   9.155
 6825POPC   GL118733  44.636  15.210   8.855
 6825POPC   GL218734  44.711  15.287   8.855
 6825POPC   C1A18735  44.622  15.226   8.555
 6825POPC   D2A18736  44.615  15.176   8.255
 6825POPC   C3A18737  44.662  15.209   7.955
 6825POPC   C4A18738  44.621  15.135   7.655
 6825POPC   C1B18739  44.827  15.349   8.555
 6825POPC   C2B18740  44.823  15.342   8.255
 6825POPC   C3B18741  44.836  15.302   7.955
 6825POPC   C4B18742  44.830  15.310   7.655
 6826POPC   NC318743  11.276   2.776   9.455
 6826POPC   PO418744  11.333   2.747   9.155
 6826POPC   GL118745  11.298   2.743   8.855
 6826POPC   GL218746  11.214   2.862   8.855
 6826POPC   C1A18747  11.270   2.720   8.555
 6826POPC   D2A18748  11.294   2.806   8.255
 6826POPC   C3A18749  11.313   2.752   7.955
 6826POPC   C4A18750  11.285   2.754   7.655
 6826POPC   C1B18751  11.058   2.878   8.555
 6826POPC   C2B18752  11.078   2.884   8.255
 6826POPC   C3B18753  11.132   2.886   7.955
 6826POPC   C4B18754  11.068   2.868   7.655
 6827POPC   NC318755  36.929  36.872   9.455
 6827POPC   PO418756  36.867  36.862   9.155
 6827POPC   GL118757  36.945  36.916   8.855
 6827POPC   GL218758  36.996  36.858   8.855
 6827POPC   C1A18759  36.892  36.944   8.555
 6827POPC   D2A18760  36.934  36.900   8.255
 6827POPC   C3A18761  36.931  36.862   7.955
 6827POPC   C4A18762  36.854  36.896   7.655
 6827POPC   C1B18763  37.139  36.813   8.555
 6827POPC   C2B18764  37.136  36.821   8.255
 6827POPC   C3B18765  37.095  36.829   7.955
 6827POPC   C4B18766  37.167  36.870   7.655
 6828POPC   NC318767  29.107  36.886   9.455
 6828POPC   PO418768  29.173  36.881   9.155
 6828POPC   GL118769  29.124  36.868   8.855
 6828POPC   GL218770  29.298  36.946   8.855
 6828POPC   C1A18771  29.121  36.939   8.555
 6828POPC   D2A18772  29.159  36.860   8.255
 6828POPC   C3A18773  29.182  36.908   7.955
 6828POPC   C4A18774  29.116  36.862   7.655
 6828POPC   C1B18775  29.403  36.938   8.555
 6828POPC   C2B18776  29.413  36.901   8.255
 6828POPC   C3B18777  29.427  36.907   7.955
 6828POPC   C4B18778  29.415  36.920   7.655
 6829POPC   NC318779  13.671  36.936   9.455
 6829POPC   PO418780  13.639  36.861   9.155
 6829POPC   GL118781  13.616  36.945   8.855
 6829POPC   GL218782  13.596  36.814   8.855
 6829POPC   C1A18783  13.659  36.920   8.555
 6829POPC   D2A18784  13.667  36.880   8.255
 6829POPC   C3A18785  13.651  36.884   7.955
 6829POPC   C4A18786  13.666  36.861   7.655
 6829POPC   C1B18787  13.624  36.606   8.555
 6829POPC   C2B18788  13.699  36.648   8.255
 6829POPC   C3B18789  13.673  36.671   7.955
 6829POPC   C4B18790  13.645  36.617   7.655
 6830POPC   NC318791  17.532  33.040   9.455
 6830POPC   PO418792  17.465  32.977   9.155
 6830POPC   GL118793  17.514  32.992   8.855
 6830POPC   GL218794  17.477  33.105   8.855
 6830POPC   C1A18795  17.458  33.053   8.555
 6830POPC   D2A18796  17.470  33.040   8.255
 6830POPC   C3A18797  17.461  33.009   7.955
 6830POPC   C4A18798  17.472  33.048   7.655
 6830POPC   C1B18799  17.509  33.227   8.555
 6830POPC   C2B18800  17.529  33.244   8.255
 6830POPC   C3B18801  17.451  33.247   7.955
 6830POPC   C4B18802  17.506  33.285   7.655
 6831POPC   NC318803  39.264   9.757   9.455
 6831POPC   PO418804  39.230   9.731   9.155
 6831POPC   GL118805  39.244   9.780   8.855
 6831POPC   GL218806  39.288   9.780   8.855
 6831POPC   C1A18807  39.257   9.776   8.555
 6831POPC   D2A18808  39.214   9.703   8.255
 6831POPC   C3A18809  39.224   9.712   7.955
 6831POPC   C4A18810  39.187   9.725   7.655
 6831POPC   C1B18811  39.376   9.888   8.555
 6831POPC   C2B18812  39.444   9.859   8.255
 6831POPC   C3B18813  39.471   9.953   7.955
 6831POPC   C4B18814  39.408   9.859   7.655
 6832POPC   NC318815  11.302  21.398   9.455
 6832POPC   PO418816  11.326  21.396   9.155
 6832POPC   GL118817  11.308  21.379   8.855
 6832POPC   GL218818  11.325  21.228   8.855
 6832POPC   C1A18819  11.326  21.364   8.555
 6832POPC   D2A18820  11.277  21.345   8.255
 6832POPC   C3A18821  11.316  21.430   7.955
 6832POPC   C4A18822  11.343  21.357   7.655
 6832POPC   C1B18823  11.321  21.099   8.555
 6832POPC   C2B18824  11.282  21.094   8.255
 6832POPC   C3B18825  11.302  21.091   7.955
 6832POPC   C4B18826  11.256  21.121   7.655
 6833POPC   NC318827  17.478   4.271   9.455
 6833POPC   PO418828  17.555   4.315   9.155
 6833POPC   GL118829  17.543   4.269   8.855
 6833POPC   GL218830  17.598   4.409   8.855
 6833POPC   C1A18831  17.491   4.320   8.555
 6833POPC   D2A18832  17.515   4.365   8.255
 6833POPC   C3A18833  17.517   4.302   7.955
 6833POPC   C4A18834  17.533   4.338   7.655
 6833POPC   C1B18835  17.695   4.408   8.555
 6833POPC   C2B18836  17.745   4.401   8.255
 6833POPC   C3B18837  17.702   4.426   7.955
 6833POPC   C4B18838  17.701   4.447   7.655
 6834POPC   NC318839  15.157   0.417   9.455
 6834POPC   PO418840  15.159   0.467   9.155
 6834POPC   GL118841  15.189   0.388   8.855
 6834POPC   GL218842  15.061   0.555   8.855
 6834POPC   C1A18843  15.197   0.409   8.555
 6834POPC   D2A18844  15.143   0.473   8.255
 6834POPC   C3A18845  15.154   0.480   7.955
 6834POPC   C4A18846  15.174   0.476   7.655
 6834POPC   C1B18847  14.992   0.645   8.555
 6834POPC   C2B18848  15.025   0.643   8.255
 6834POPC   C3B18849  15.025   0.612   7.955
 6834POPC   C4B18850  15.013   0.581   7.655
 6835POPC   NC318851  26.077  19.874   9.455
 6835POPC   PO418852  26.084  19.844   9.155
 6835POPC   GL118853  26.029  19.820   8.855
 6835POPC   GL218854  25.914  19.903   8.855
 6835POPC   C1A18855  25.999  19.849   8.555
 6835POPC   D2A18856  26.005  19.844   8.255
 6835POPC   C3A18857  26.014  19.822   7.955
 6835POPC   C4A18858  26.073  19.854   7.655
 6835POPC   C1B18859  25.793  19.961   8.555
 6835POPC   C2B18860  25.833  19.945   8.255
 6835POPC   C3B18861  25.853  19.971   7.955
 6835POPC   C4B18862  25.821  19.955   7.655
 6836POPC   NC318863  26.799  42.302   9.455
 6836POPC   PO418864  26.798  42.321   9.155
 6836POPC   GL118865  26.840  42.312   8.855
 6836POPC   GL218866  26.783  42.485   8.855
 6836POPC   C1A18867  26.774  42.346   8.555
 6836POPC   D2A18868  26.778  42.321   8.255
 6836POPC   C3A18869  26.789  42.321   7.955
 6836POPC   C4A18870  26.866  42.289   7.655
 6836POPC   C1B18871  26.655  42.584   8.555
 6836POPC   C2B18872  26.642  42.520   8.255
 6836POPC   C3B18873  26.676  42.522   7.955
 6836POPC   C4B18874  26.652  42.498   7.655
 6837POPC   NC318875  38.455  37.678   9.455
 6837POPC   PO418876  38.488  37.713   9.155
 6837POPC   GL118877  38.407  37.667   8.855
 6837POPC   GL218878  38.489  37.839   8.855
 6837POPC   C1A18879  38.473  37.671   8.555
 6837POPC   D2A18880  38.494  37.654   8.255
 6837POPC   C3A18881  38.441  37.672   7.955
 6837POPC   C4A18882  38.429  37.728   7.655
 6837POPC   C1B18883  38.573  37.960   8.555
 6837POPC   C2B18884  38.518  37.961   8.255
 6837POPC   C3B18885  38.548  37.885   7.955
 6837POPC   C4B18886  38.576  37.916   7.655
 6838POPC   NC318887  24.530  43.903   9.455
 6838POPC   PO418888  24.478  43.872   9.155
 6838POPC   GL118889  24.464  43.898   8.855
 6838POPC   GL218890  24.400  43.849   8.855
 6838POPC   C1A18891  24.535  43.936   8.555
 6838POPC   D2A18892  24.449  43.889   8.255
 6838POPC   C3A18893  24.464  43.849   7.955
 6838POPC   C4A18894  24.494  43.896   7.655
 6838POPC   C1B18895  24.245  43.769   8.555
 6838POPC   C2B18896  24.293  43.750   8.255
 6838POPC   C3B18897  24.298  43.741   7.955
 6838POPC   C4B18898  24.256  43.724   7.655
 6839POPC   NC318899  35.387   8.185   9.455
 6839POPC   PO418900  35.338   8.176   9.155
 6839POPC   GL118901  35.325   8.169   8.855
 6839POPC   GL218902  35.330   8.282   8.855
 6839POPC   C1A18903  35.364   8.150   8.555
 6839POPC   D2A18904  35.385   8.181   8.255
 6839POPC   C3A18905  35.367   8.152   7.955
 6839POPC   C4A18906  35.372   8.154   7.655
 6839POPC   C1B18907  35.336   8.431   8.555
 6839POPC   C2B18908  35.363   8.439   8.255
 6839POPC   C3B18909  35.376   8.468   7.955
 6839POPC   C4B18910  35.398   8.472   7.655
 6840POPC   NC318911  39.261  36.936   9.455
 6840POPC   PO418912  39.271  36.865   9.155
 6840POPC   GL118913  39.232  36.925   8.855
 6840POPC   GL218914  39.192  36.823   8.855
 6840POPC   C1A18915  39.234  36.864   8.555
 6840POPC   D2A18916  39.264  36.893   8.255
 6840POPC   C3A18917  39.269  36.864   7.955
 6840POPC   C4A18918  39.258  36.889   7.655
 6840POPC   C1B18919  39.092  36.659   8.555
 6840POPC   C2B18920  39.119  36.729   8.255
 6840POPC   C3B18921  39.098  36.704   7.955
 6840POPC   C4B18922  39.077  36.723   7.655
 6841POPC   NC318923   2.005  19.037   9.455
 6841POPC   PO418924   1.993  19.090   9.155
 6841POPC   GL118925   2.038  19.042   8.855
 6841POPC   GL218926   1.954  18.984   8.855
 6841POPC   C1A18927   1.978  19.084   8.555
 6841POPC   D2A18928   2.022  19.039   8.255
 6841POPC   C3A18929   2.019  19.049   7.955
 6841POPC   C4A18930   2.001  19.060   7.655
 6841POPC   C1B18931   1.947  18.777   8.555
 6841POPC   C2B18932   2.007  18.833   8.255
 6841POPC   C3B18933   1.956  18.796   7.955
 6841POPC   C4B18934   1.909  18.764   7.655
 6842POPC   NC318935  12.118  11.311   9.455
 6842POPC   PO418936  12.031  11.297   9.155
 6842POPC   GL118937  12.094  11.281   8.855
 6842POPC   GL218938  12.199  11.303   8.855
 6842POPC   C1A18939  12.121  11.284   8.555
 6842POPC   D2A18940  12.125  11.290   8.255
 6842POPC   C3A18941  12.102  11.258   7.955
 6842POPC   C4A18942  12.049  11.320   7.655
 6842POPC   C1B18943  12.293  11.342   8.555
 6842POPC   C2B18944  12.317  11.272   8.255
 6842POPC   C3B18945  12.331  11.337   7.955
 6842POPC   C4B18946  12.297  11.361   7.655
 6843POPC   NC318947   7.433  41.538   9.455
 6843POPC   PO418948   7.377  41.606   9.155
 6843POPC   GL118949   7.415  41.510   8.855
 6843POPC   GL218950   7.396  41.642   8.855
 6843POPC   C1A18951   7.434  41.573   8.555
 6843POPC   D2A18952   7.424  41.518   8.255
 6843POPC   C3A18953   7.429  41.511   7.955
 6843POPC   C4A18954   7.372  41.541   7.655
 6843POPC   C1B18955   7.473  41.802   8.555
 6843POPC   C2B18956   7.409  41.808   8.255
 6843POPC   C3B18957   7.386  41.767   7.955
 6843POPC   C4B18958   7.389  41.800   7.655
 6844POPC   NC318959  12.893  35.389   9.455
 6844POPC   PO418960  12.869  35.389   9.155
 6844POPC   GL118961  12.863  35.334   8.855
 6844POPC   GL218962  12.927  35.428   8.855
 6844POPC   C1A18963  12.831  35.356   8.555
 6844POPC   D2A18964  12.836  35.350   8.255
 6844POPC   C3A18965  12.843  35.400   7.955
 6844POPC   C4A18966  12.867  35.352   7.655
 6844POPC   C1B18967  13.003  35.576   8.555
 6844POPC   C2B18968  13.059  35.517   8.255
 6844POPC   C3B18969  13.061  35.584   7.955
 6844POPC   C4B18970  12.994  35.584   7.655
 6845POPC   NC318971  11.339   6.611   9.455
 6845POPC   PO418972  11.294   6.647   9.155
 6845POPC   GL118973  11.325   6.616   8.855
 6845POPC   GL218974  11.207   6.525   8.855
 6845POPC   C1A18975  11.317   6.679   8.555
 6845POPC   D2A18976  11.310   6.637   8.255
 6845POPC   C3A18977  11.290   6.623   7.955
 6845POPC   C4A18978  11.342   6.683   7.655
 6845POPC   C1B18979  11.179   6.456   8.555
 6845POPC   C2B18980  11.130   6.474   8.255
 6845POPC   C3B18981  11.173   6.454   7.955
 6845POPC   C4B18982  11.201   6.456   7.655
 6846POPC   NC318983   3.564  26.801   9.455
 6846POPC   PO418984   3.526  26.841   9.155
 6846POPC   GL118985   3.536  26.846   8.855
 6846POPC   GL218986   3.428  26.727   8.855
 6846POPC   C1A18987   3.548  26.806   8.555
 6846POPC   D2A18988   3.570  26.828   8.255
 6846POPC   C3A18989   3.512  26.779   7.955
 6846POPC   C4A18990   3.575  26.835   7.655
 6846POPC   C1B18991   3.268  26.763   8.555
 6846POPC   C2B18992   3.261  26.730   8.255
 6846POPC   C3B18993   3.272  26.737   7.955
 6846POPC   C4B18994   3.324  26.685   7.655
 6847POPC   NC318995  29.189  41.575   9.455
 6847POPC   PO418996  29.192  41.538   9.155
 6847POPC   GL118997  29.166  41.597   8.855
 6847POPC   GL218998  29.101  41.683   8.855
 6847POPC   C1A18999  29.136  41.575   8.555
 6847POPC   D2A19000  29.141  41.515   8.255
 6847POPC   C3A19001  29.128  41.563   7.955
 6847POPC   C4A19002  29.102  41.553   7.655
 6847POPC   C1B19003  29.154  41.831   8.555
 6847POPC   C2B19004  29.121  41.843   8.255
 6847POPC   C3B19005  29.137  41.852   7.955
 6847POPC   C4B19006  29.129  41.799   7.655
 6848POPC   NC319007  12.859  33.812   9.455
 6848POPC   PO419008  12.808  33.793   9.155
 6848POPC   GL119009  12.841  33.781   8.855
 6848POPC   GL219010  12.973  33.778   8.855
 6848POPC   C1A19011  12.822  33.807   8.555
 6848POPC   D2A19012  12.813  33.815   8.255
 6848POPC   C3A19013  12.863  33.820   7.955
 6848POPC   C4A19014  12.855  33.791   7.655
 6848POPC   C1B19015  13.052  33.794   8.555
 6848POPC   C2B19016  13.143  33.698   8.255
 6848POPC   C3B19017  13.100  33.785   7.955
 6848POPC   C4B19018  13.121  33.776   7.655
 6849POPC   NC319019  13.670  19.854   9.455
 6849POPC   PO419020  13.596  19.884   9.155
 6849POPC   GL119021  13.603  19.870   8.855
 6849POPC   GL219022  13.623  19.924   8.855
 6849POPC   C1A19023  13.579  19.816   8.555
 6849POPC   D2A19024  13.586  19.881   8.255
 6849POPC   C3A19025  13.606  19.860   7.955
 6849POPC   C4A19026  13.666  19.798   7.655
 6849POPC   C1B19027  13.715  20.048   8.555
 6849POPC   C2B19028  13.636  20.064   8.255
 6849POPC   C3B19029  13.702  20.124   7.955
 6849POPC   C4B19030  13.628  20.043   7.655
 6850POPC   NC319031  11.330   9.005   9.455
 6850POPC   PO419032  11.293   9.009   9.155
 6850POPC   GL119033  11.307   9.005   8.855
 6850POPC   GL219034  11.223   8.913   8.855
 6850POPC   C1A19035  11.335   9.013   8.555
 6850POPC   D2A19036  11.261   8.940   8.255
 6850POPC   C3A19037  11.255   9.007   7.955
 6850POPC   C4A19038  11.281   8.928   7.655
 6850POPC   C1B19039  11.090   8.812   8.555
 6850POPC   C2B19040  11.051   8.850   8.255
 6850POPC   C3B19041  11.120   8.824   7.955
 6850POPC   C4B19042  11.096   8.832   7.655
 6851POPC   NC319043  25.304  26.847   9.455
 6851POPC   PO419044  25.260  26.768   9.155
 6851POPC   GL119045  25.225  26.847   8.855
 6851POPC   GL219046  25.202  26.701   8.855
 6851POPC   C1A19047  25.245  26.809   8.555
 6851POPC   D2A19048  25.269  26.827   8.255
 6851POPC   C3A19049  25.283  26.795   7.955
 6851POPC   C4A19050  25.252  26.833   7.655
 6851POPC   C1B19051  25.263  26.601   8.555
 6851POPC   C2B19052  25.175  26.547   8.255
 6851POPC   C3B19053  25.168  26.561   7.955
 6851POPC   C4B19054  25.239  26.602   7.655
 6852POPC   NC319055   2.798  43.079   9.455
 6852POPC   PO419056   2.720  43.159   9.155
 6852POPC   GL119057   2.764  43.092   8.855
 6852POPC   GL219058   2.743  43.263   8.855
 6852POPC   C1A19059   2.768  43.076   8.555
 6852POPC   D2A19060   2.738  43.141   8.255
 6852POPC   C3A19061   2.769  43.074   7.955
 6852POPC   C4A19062   2.722  43.093   7.655
 6852POPC   C1B19063   2.741  43.311   8.555
 6852POPC   C2B19064   2.697  43.330   8.255
 6852POPC   C3B19065   2.739  43.359   7.955
 6852POPC   C4B19066   2.746  43.338   7.655
 6853POPC   NC319067  39.226  15.981   9.455
 6853POPC   PO419068  39.221  15.987   9.155
 6853POPC   GL119069  39.263  15.927   8.855
 6853POPC   GL219070  39.287  15.899   8.855
 6853POPC   C1A19071  39.241  15.957   8.555
 6853POPC   D2A19072  39.206  15.972   8.255
 6853POPC   C3A19073  39.228  15.908   7.955
 6853POPC   C4A19074  39.209  15.979   7.655
 6853POPC   C1B19075  39.353  15.724   8.555
 6853POPC   C2B19076  39.344  15.721   8.255
 6853POPC   C3B19077  39.351  15.779   7.955
 6853POPC   C4B19078  39.399  15.749   7.655
 6854POPC   NC319079   5.130  22.188   9.455
 6854POPC   PO419080   5.097  22.196   9.155
 6854POPC   GL119081   5.050  22.139   8.855
 6854POPC   GL219082   5.245  22.212   8.855
 6854POPC   C1A19083   5.044  22.158   8.555
 6854POPC   D2A19084   5.060  22.189   8.255
 6854POPC   C3A19085   5.132  22.157   7.955
 6854POPC   C4A19086   5.076  22.187   7.655
 6854POPC   C1B19087   5.254  22.312   8.555
 6854POPC   C2B19088   5.326  22.292   8.255
 6854POPC   C3B19089   5.348  22.264   7.955
 6854POPC   C4B19090   5.291  22.331   7.655
 6855POPC   NC319091  28.390  17.496   9.455
 6855POPC   PO419092  28.353  17.464   9.155
 6855POPC   GL119093  28.340  17.514   8.855
 6855POPC   GL219094  28.437  17.403   8.855
 6855POPC   C1A19095  28.368  17.465   8.555
 6855POPC   D2A19096  28.345  17.467   8.255
 6855POPC   C3A19097  28.340  17.465   7.955
 6855POPC   C4A19098  28.415  17.493   7.655
 6855POPC   C1B19099  28.569  17.318   8.555
 6855POPC   C2B19100  28.575  17.390   8.255
 6855POPC   C3B19101  28.578  17.378   7.955
 6855POPC   C4B19102  28.554  17.313   7.655
 6856POPC   NC319103  36.890  40.791   9.455
 6856POPC   PO419104  36.946  40.746   9.155
 6856POPC   GL119105  36.861  40.793   8.855
 6856POPC   GL219106  36.971  40.860   8.855
 6856POPC   C1A19107  36.948  40.761   8.555
 6856POPC   D2A19108  36.869  40.810   8.255
 6856POPC   C3A19109  36.913  40.793   7.955
 6856POPC   C4A19110  36.941  40.756   7.655
 6856POPC   C1B19111  37.077  41.023   8.555
 6856POPC   C2B19112  37.000  40.981   8.255
 6856POPC   C3B19113  37.004  41.009   7.955
 6856POPC   C4B19114  36.990  40.963   7.655
 6857POPC   NC319115  33.811  12.856   9.455
 6857POPC   PO419116  33.767  12.899   9.155
 6857POPC   GL119117  33.761  12.871   8.855
 6857POPC   GL219118  33.687  12.917   8.855
 6857POPC   C1A19119  33.806  12.840   8.555
 6857POPC   D2A19120  33.751  12.829   8.255
 6857POPC   C3A19121  33.801  12.884   7.955
 6857POPC   C4A19122  33.754  12.812   7.655
 6857POPC   C1B19123  33.597  12.926   8.555
 6857POPC   C2B19124  33.593  12.901   8.255
 6857POPC   C3B19125  33.600  12.905   7.955
 6857POPC   C4B19126  33.557  12.913   7.655
 6858POPC   NC319127  43.105  18.271   9.455
 6858POPC   PO419128  43.092  18.323   9.155
 6858POPC   GL119129  43.095  18.238   8.855
 6858POPC   GL219130  43.141  18.454   8.855
 6858POPC   C1A19131  43.063  18.285   8.555
 6858POPC   D2A19132  43.084  18.309   8.255
 6858POPC   C3A19133  43.119  18.257   7.955
 6858POPC   C4A19134  43.101  18.247   7.655
 6858POPC   C1B19135  43.072  18.516   8.555
 6858POPC   C2B19136  43.147  18.504   8.255
 6858POPC   C3B19137  43.088  18.543   7.955
 6858POPC   C4B19138  43.127  18.492   7.655
 6859POPC   NC319139  10.486  40.769   9.455
 6859POPC   PO419140  10.479  40.749   9.155
 6859POPC   GL119141  10.490  40.735   8.855
 6859POPC   GL219142  10.447  40.737   8.855
 6859POPC   C1A19143  10.485  40.825   8.555
 6859POPC   D2A19144  10.564  40.816   8.255
 6859POPC   C3A19145  10.569  40.768   7.955
 6859POPC   C4A19146  10.510  40.751   7.655
 6859POPC   C1B19147  10.302  40.749   8.555
 6859POPC   C2B19148  10.283  40.758   8.255
 6859POPC   C3B19149  10.292  40.706   7.955
 6859POPC   C4B19150  10.234  40.770   7.655
 6860POPC   NC319151  36.860  20.566   9.455
 6860POPC   PO419152  36.864  20.618   9.155
 6860POPC   GL119153  36.872  20.604   8.855
 6860POPC   GL219154  36.929  20.745   8.855
 6860POPC   C1A19155  36.890  20.604   8.555
 6860POPC   D2A19156  36.876  20.659   8.255
 6860POPC   C3A19157  36.859  20.567   7.955
 6860POPC   C4A19158  36.928  20.641   7.655
 6860POPC   C1B19159  36.988  20.815   8.555
 6860POPC   C2B19160  36.985  20.826   8.255
 6860POPC   C3B19161  36.951  20.850   7.955
 6860POPC   C4B19162  37.002  20.834   7.655
 6861POPC   NC319163  40.054  40.772   9.455
 6861POPC   PO419164  40.016  40.794   9.155
 6861POPC   GL119165  39.999  40.801   8.855
 6861POPC   GL219166  40.106  40.825   8.855
 6861POPC   C1A19167  39.982  40.816   8.555
 6861POPC   D2A19168  40.025  40.811   8.255
 6861POPC   C3A19169  40.031  40.827   7.955
 6861POPC   C4A19170  40.009  40.739   7.655
 6861POPC   C1B19171  40.217  40.841   8.555
 6861POPC   C2B19172  40.223  40.869   8.255
 6861POPC   C3B19173  40.284  40.864   7.955
 6861POPC   C4B19174  40.206  40.876   7.655
 6862POPC   NC319175  33.824   5.873   9.455
 6862POPC   PO419176  33.756   5.837   9.155
 6862POPC   GL119177  33.805   5.879   8.855
 6862POPC   GL219178  33.942   5.895   8.855
 6862POPC   C1A19179  33.794   5.845   8.555
 6862POPC   D2A19180  33.752   5.907   8.255
 6862POPC   C3A19181  33.777   5.859   7.955
 6862POPC   C4A19182  33.812   5.886   7.655
 6862POPC   C1B19183  34.000   5.964   8.555
 6862POPC   C2B19184  34.054   5.944   8.255
 6862POPC   C3B19185  34.011   5.913   7.955
 6862POPC   C4B19186  34.072   5.974   7.655
 6863POPC   NC319187  37.635  26.866   9.455
 6863POPC   PO419188  37.633  26.846   9.155
 6863POPC   GL119189  37.704  26.784   8.855
 6863POPC   GL219190  37.512  26.809   8.855
 6863POPC   C1A19191  37.680  26.848   8.555
 6863POPC   D2A19192  37.720  26.839   8.255
 6863POPC   C3A19193  37.722  26.803   7.955
 6863POPC   C4A19194  37.642  26.789   7.655
 6863POPC   C1B19195  37.422  26.934   8.555
 6863POPC   C2B19196  37.483  26.918   8.255
 6863POPC   C3B19197  37.443  26.935   7.955
 6863POPC   C4B19198  37.477  26.914   7.655
 6864POPC   NC319199  22.948  12.076   9.455
 6864POPC   PO419200  22.970  12.087   9.155
 6864POPC   GL119201  22.902  12.066   8.855
 6864POPC   GL219202  22.880  12.199   8.855
 6864POPC   C1A19203  22.970  12.118   8.555
 6864POPC   D2A19204  22.908  12.098   8.255
 6864POPC   C3A19205  22.908  12.108   7.955
 6864POPC   C4A19206  22.903  12.105   7.655
 6864POPC   C1B19207  22.824  12.333   8.555
 6864POPC   C2B19208  22.836  12.320   8.255
 6864POPC   C3B19209  22.795  12.277   7.955
 6864POPC   C4B19210  22.832  12.289   7.655
 6865POPC   NC319211  21.413   0.426   9.455
 6865POPC   PO419212  21.402   0.478   9.155
 6865POPC   GL119213  21.381   0.423   8.855
 6865POPC   GL219214  21.236   0.390   8.855
 6865POPC   C1A19215  21.344   0.422   8.555
 6865POPC   D2A19216  21.339   0.467   8.255
 6865POPC   C3A19217  21.396   0.460   7.955
 6865POPC   C4A19218  21.382   0.458   7.655
 6865POPC   C1B19219  21.176   0.349   8.555
 6865POPC   C2B19220  21.186   0.281   8.255
 6865POPC   C3B19221  21.200   0.305   7.955
 6865POPC   C4B19222  21.186   0.285   7.655
 6866POPC   NC319223   8.238  40.787   9.455
 6866POPC   PO419224   8.223  40.788   9.155
 6866POPC   GL119225   8.194  40.797   8.855
 6866POPC   GL219226   8.356  40.830   8.855
 6866POPC   C1A19227   8.183  40.788   8.555
 6866POPC   D2A19228   8.147  40.749   8.255
 6866POPC   C3A19229   8.163  40.810   7.955
 6866POPC   C4A19230   8.168  40.798   7.655
 6866POPC   C1B19231   8.492  40.820   8.555
 6866POPC   C2B19232   8.422  40.765   8.255
 6866POPC   C3B19233   8.413  40.813   7.955
 6866POPC   C4B19234   8.471  40.768   7.655
 6867POPC   NC319235   1.228   3.514   9.455
 6867POPC   PO419236   1.176   3.573   9.155
 6867POPC   GL119237   1.181   3.585   8.855
 6867POPC   GL219238   1.341   3.576   8.855
 6867POPC   C1A19239   1.222   3.560   8.555
 6867POPC   D2A19240   1.230   3.499   8.255
 6867POPC   C3A19241   1.172   3.575   7.955
 6867POPC   C4A19242   1.241   3.575   7.655
 6867POPC   C1B19243   1.462   3.578   8.555
 6867POPC   C2B19244   1.423   3.573   8.255
 6867POPC   C3B19245   1.417   3.596   7.955
 6867POPC   C4B19246   1.508   3.587   7.655
 6868POPC   NC319247  42.318  19.860   9.455
 6868POPC   PO419248  42.316  19.834   9.155
 6868POPC   GL119249  42.297  19.856   8.855
 6868POPC   GL219250  42.228  19.771   8.855
 6868POPC   C1A19251  42.320  19.868   8.555
 6868POPC   D2A19252  42.343  19.880   8.255
 6868POPC   C3A19253  42.378  19.791   7.955
 6868POPC   C4A19254  42.333  19.815   7.655
 6868POPC   C1B19255  42.106  19.728   8.555
 6868POPC   C2B19256  42.156  19.684   8.255
 6868POPC   C3B19257  42.092  19.710   7.955
 6868POPC   C4B19258  42.130  19.756   7.655
 6869POPC   NC319259  34.608  17.484   9.455
 6869POPC   PO419260  34.526  17.517   9.155
 6869POPC   GL119261  34.544  17.457   8.855
 6869POPC   GL219262  34.678  17.459   8.855
 6869POPC   C1A19263  34.541  17.504   8.555
 6869POPC   D2A19264  34.550  17.490   8.255
 6869POPC   C3A19265  34.563  17.528   7.955
 6869POPC   C4A19266  34.593  17.481   7.655
 6869POPC   C1B19267  34.822  17.496   8.555
 6869POPC   C2B19268  34.843  17.496   8.255
 6869POPC   C3B19269  34.803  17.510   7.955
 6869POPC   C4B19270  34.875  17.469   7.655
 6870POPC   NC319271  37.683  20.576   9.455
 6870POPC   PO419272  37.649  20.629   9.155
 6870POPC   GL119273  37.660  20.569   8.855
 6870POPC   GL219274  37.520  20.561   8.855
 6870POPC   C1A19275  37.723  20.628   8.555
 6870POPC   D2A19276  37.636  20.639   8.255
 6870POPC   C3A19277  37.728  20.571   7.955
 6870POPC   C4A19278  37.686  20.596   7.655
 6870POPC   C1B19279  37.442  20.455   8.555
 6870POPC   C2B19280  37.469  20.449   8.255
 6870POPC   C3B19281  37.420  20.454   7.955
 6870POPC   C4B19282  37.484  20.495   7.655
 6871POPC   NC319283   5.872  11.276   9.455
 6871POPC   PO419284   5.882  11.292   9.155
 6871POPC   GL119285   5.840  11.324   8.855
 6871POPC   GL219286   5.795  11.402   8.855
 6871POPC   C1A19287   5.876  11.287   8.555
 6871POPC   D2A19288   5.872  11.349   8.255
 6871POPC   C3A19289   5.846  11.296   7.955
 6871POPC   C4A19290   5.840  11.320   7.655
 6871POPC   C1B19291   5.786  11.514   8.555
 6871POPC   C2B19292   5.769  11.574   8.255
 6871POPC   C3B19293   5.768  11.512   7.955
 6871POPC   C4B19294   5.794  11.491   7.655
 6872POPC   NC319295  40.775  32.987   9.455
 6872POPC   PO419296  40.782  33.059   9.155
 6872POPC   GL119297  40.764  33.058   8.855
 6872POPC   GL219298  40.928  33.083   8.855
 6872POPC   C1A19299  40.747  33.039   8.555
 6872POPC   D2A19300  40.784  32.987   8.255
 6872POPC   C3A19301  40.783  33.028   7.955
 6872POPC   C4A19302  40.734  33.007   7.655
 6872POPC   C1B19303  40.977  33.115   8.555
 6872POPC   C2B19304  40.976  33.111   8.255
 6872POPC   C3B19305  40.981  33.124   7.955
 6872POPC   C4B19306  41.003  33.148   7.655
 6873POPC   NC319307  31.465  28.391   9.455
 6873POPC   PO419308  31.445  28.340   9.155
 6873POPC   GL119309  31.502  28.373   8.855
 6873POPC   GL219310  31.439  28.247   8.855
 6873POPC   C1A19311  31.436  28.398   8.555
 6873POPC   D2A19312  31.500  28.376   8.255
 6873POPC   C3A19313  31.440  28.388   7.955
 6873POPC   C4A19314  31.517  28.336   7.655
 6873POPC   C1B19315  31.511  28.076   8.555
 6873POPC   C2B19316  31.498  28.103   8.255
 6873POPC   C3B19317  31.489  28.133   7.955
 6873POPC   C4B19318  31.431  28.096   7.655
 6874POPC   NC319319  16.757   7.449   9.455
 6874POPC   PO419320  16.720   7.446   9.155
 6874POPC   GL119321  16.748   7.467   8.855
 6874POPC   GL219322  16.717   7.518   8.855
 6874POPC   C1A19323  16.731   7.401   8.555
 6874POPC   D2A19324  16.702   7.376   8.255
 6874POPC   C3A19325  16.773   7.372   7.955
 6874POPC   C4A19326  16.735   7.470   7.655
 6874POPC   C1B19327  16.726   7.713   8.555
 6874POPC   C2B19328  16.792   7.643   8.255
 6874POPC   C3B19329  16.755   7.667   7.955
 6874POPC   C4B19330  16.724   7.678   7.655
 6875POPC   NC319331  38.407   1.999   9.455
 6875POPC   PO419332  38.469   1.986   9.155
 6875POPC   GL119333  38.410   1.950   8.855
 6875POPC   GL219334  38.389   2.040   8.855
 6875POPC   C1A19335  38.420   2.017   8.555
 6875POPC   D2A19336  38.429   2.015   8.255
 6875POPC   C3A19337  38.420   2.012   7.955
 6875POPC   C4A19338  38.481   1.964   7.655
 6875POPC   C1B19339  38.251   2.133   8.555
 6875POPC   C2B19340  38.303   2.160   8.255
 6875POPC   C3B19341  38.309   2.111   7.955
 6875POPC   C4B19342  38.228   2.125   7.655
 6876POPC   NC319343  40.809  43.886   9.455
 6876POPC   PO419344  40.809  43.882   9.155
 6876POPC   GL119345  40.757  43.925   8.855
 6876POPC   GL219346  40.719  43.844   8.855
 6876POPC   C1A19347  40.772  43.928   8.555
 6876POPC   D2A19348  40.745  43.857   8.255
 6876POPC   C3A19349  40.784  43.870   7.955
 6876POPC   C4A19350  40.743  43.839   7.655
 6876POPC   C1B19351  40.530  43.787   8.555
 6876POPC   C2B19352  40.544  43.735   8.255
 6876POPC   C3B19353  40.527  43.783   7.955
 6876POPC   C4B19354  40.556  43.797   7.655
 6877POPC   NC319355  21.431   1.940   9.455
 6877POPC   PO419356  21.418   1.984   9.155
 6877POPC   GL119357  21.434   2.027   8.855
 6877POPC   GL219358  21.506   1.902   8.855
 6877POPC   C1A19359  21.378   1.968   8.555
 6877POPC   D2A19360  21.386   1.965   8.255
 6877POPC   C3A19361  21.401   1.970   7.955
 6877POPC   C4A19362  21.361   2.017   7.655
 6877POPC   C1B19363  21.593   1.885   8.555
 6877POPC   C2B19364  21.620   1.854   8.255
 6877POPC   C3B19365  21.555   1.836   7.955
 6877POPC   C4B19366  21.641   1.868   7.655
 6878POPC   NC319367  44.615   5.075   9.455
 6878POPC   PO419368  44.678   5.102   9.155
 6878POPC   GL119369  44.681   5.070   8.855
 6878POPC   GL219370  44.582   5.048   8.855
 6878POPC   C1A19371  44.671   5.098   8.555
 6878POPC   D2A19372  44.657   5.131   8.255
 6878POPC   C3A19373  44.655   5.140   7.955
 6878POPC   C4A19374  44.665   5.109   7.655
 6878POPC   C1B19375  44.406   5.051   8.555
 6878POPC   C2B19376  44.374   5.013   8.255
 6878POPC   C3B19377  44.463   5.068   7.955
 6878POPC   C4B19378  44.421   5.083   7.655
 6879POPC   NC319379  15.920  13.655   9.455
 6879POPC   PO419380  15.986  13.606   9.155
 6879POPC   GL119381  15.957  13.651   8.855
 6879POPC   GL219382  16.056  13.714   8.855
 6879POPC   C1A19383  15.956  13.627   8.555
 6879POPC   D2A19384  15.965  13.598   8.255
 6879POPC   C3A19385  15.960  13.581   7.955
 6879POPC   C4A19386  15.920  13.619   7.655
 6879POPC   C1B19387  16.171  13.801   8.555
 6879POPC   C2B19388  16.212  13.725   8.255
 6879POPC   C3B19389  16.181  13.787   7.955
 6879POPC   C4B19390  16.134  13.722   7.655
 6880POPC   NC319391  36.166   2.810   9.455
 6880POPC   PO419392  36.166   2.790   9.155
 6880POPC   GL119393  36.161   2.794   8.855
 6880POPC   GL219394  36.246   2.774   8.855
 6880POPC   C1A19395  36.144   2.716   8.555
 6880POPC   D2A19396  36.126   2.763   8.255
 6880POPC   C3A19397  36.116   2.748   7.955
 6880POPC   C4A19398  36.116   2.725   7.655
 6880POPC   C1B19399  36.349   2.831   8.555
 6880POPC   C2B19400  36.398   2.855   8.255
 6880POPC   C3B19401  36.399   2.852   7.955
 6880POPC   C4B19402  36.323   2.807   7.655
 6881POPC   NC319403  43.851  27.625   9.455
 6881POPC   PO419404  43.925  27.621   9.155
 6881POPC   GL119405  43.933  27.620   8.855
 6881POPC   GL219406  43.975  27.622   8.855
 6881POPC   C1A19407  43.870  27.610   8.555
 6881POPC   D2A19408  43.913  27.546   8.255
 6881POPC   C3A19409  43.901  27.552   7.955
 6881POPC   C4A19410  43.837  27.561   7.655
 6881POPC   C1B19411  44.085  27.685   8.555
 6881POPC   C2B19412  44.117  27.716   8.255
 6881POPC   C3B19413  44.083  27.720   7.955
 6881POPC   C4B19414  44.095  27.723   7.655
 6882POPC   NC319415  22.189  13.579   9.455
 6882POPC   PO419416  22.133  13.676   9.155
 6882POPC   GL119417  22.125  13.607   8.855
 6882POPC   GL219418  22.169  13.777   8.855
 6882POPC   C1A19419  22.193  13.658   8.555
 6882POPC   D2A19420  22.166  13.629   8.255
 6882POPC   C3A19421  22.119  13.615   7.955
 6882POPC   C4A19422  22.209  13.648   7.655
 6882POPC   C1B19423  22.135  13.873   8.555
 6882POPC   C2B19424  22.131  13.909   8.255
 6882POPC   C3B19425  22.100  13.916   7.955
 6882POPC   C4B19426  22.152  13.872   7.655
 6883POPC   NC319427  17.491  24.486   9.455
 6883POPC   PO419428  17.556  24.495   9.155
 6883POPC   GL119429  17.498  24.529   8.855
 6883POPC   GL219430  17.590  24.518   8.855
 6883POPC   C1A19431  17.547  24.444   8.555
 6883POPC   D2A19432  17.477  24.496   8.255
 6883POPC   C3A19433  17.529  24.465   7.955
 6883POPC   C4A19434  17.471  24.511   7.655
 6883POPC   C1B19435  17.710  24.515   8.555
 6883POPC   C2B19436  17.722  24.496   8.255
 6883POPC   C3B19437  17.798  24.485   7.955
 6883POPC   C4B19438  17.769  24.461   7.655
 6884POPC   NC319439   8.208  19.049   9.455
 6884POPC   PO419440   8.236  19.013   9.155
 6884POPC   GL119441   8.177  19.101   8.855
 6884POPC   GL219442   8.127  18.976   8.855
 6884POPC   C1A19443   8.190  19.102   8.555
 6884POPC   D2A19444   8.218  19.088   8.255
 6884POPC   C3A19445   8.204  19.015   7.955
 6884POPC   C4A19446   8.188  19.023   7.655
 6884POPC   C1B19447   8.148  18.767   8.555
 6884POPC   C2B19448   8.126  18.791   8.255
 6884POPC   C3B19449   8.096  18.842   7.955
 6884POPC   C4B19450   8.161  18.768   7.655
 6885POPC   NC319451  38.479   6.690   9.455
 6885POPC   PO419452  38.447   6.636   9.155
 6885POPC   GL119453  38.429   6.610   8.855
 6885POPC   GL219454  38.445   6.722   8.855
 6885POPC   C1A19455  38.438   6.595   8.555
 6885POPC   D2A19456  38.462   6.623   8.255
 6885POPC   C3A19457  38.471   6.606   7.955
 6885POPC   C4A19458  38.492   6.640   7.655
 6885POPC   C1B19459  38.381   6.883   8.555
 6885POPC   C2B19460  38.354   6.905   8.255
 6885POPC   C3B19461  38.365   6.875   7.955
 6885POPC   C4B19462  38.336   6.906   7.655
 6886POPC   NC319463  44.638   5.828   9.455
 6886POPC   PO419464  44.614   5.831   9.155
 6886POPC   GL119465  44.708   5.887   8.855
 6886POPC   GL219466  44.789   5.943   8.855
 6886POPC   C1A19467  44.663   5.846   8.555
 6886POPC   D2A19468  44.656   5.822   8.255
 6886POPC   C3A19469  44.648   5.858   7.955
 6886POPC   C4A19470  44.622   5.900   7.655
 6886POPC   C1B19471  44.804   6.040   8.555
 6886POPC   C2B19472  44.803   6.059   8.255
 6886POPC   C3B19473  44.836   6.061   7.955
 6886POPC   C4B19474  44.831   6.035   7.655
 6887POPC   NC319475  22.205  34.607   9.455
 6887POPC   PO419476  22.169  34.611   9.155
 6887POPC   GL119477  22.178  34.600   8.855
 6887POPC   GL219478  22.314  34.496   8.855
 6887POPC   C1A19479  22.121  34.569   8.555
 6887POPC   D2A19480  22.205  34.579   8.255
 6887POPC   C3A19481  22.190  34.561   7.955
 6887POPC   C4A19482  22.206  34.547   7.655
 6887POPC   C1B19483  22.394  34.407   8.555
 6887POPC   C2B19484  22.386  34.405   8.255
 6887POPC   C3B19485  22.331  34.428   7.955
 6887POPC   C4B19486  22.320  34.442   7.655
 6888POPC   NC319487  26.790   5.867   9.455
 6888POPC   PO419488  26.858   5.897   9.155
 6888POPC   GL119489  26.831   5.822   8.855
 6888POPC   GL219490  26.916   5.856   8.855
 6888POPC   C1A19491  26.828   5.847   8.555
 6888POPC   D2A19492  26.783   5.829   8.255
 6888POPC   C3A19493  26.770   5.892   7.955
 6888POPC   C4A19494  26.786   5.846   7.655
 6888POPC   C1B19495  27.102   5.890   8.555
 6888POPC   C2B19496  27.083   5.965   8.255
 6888POPC   C3B19497  27.056   5.968   7.955
 6888POPC   C4B19498  27.012   5.920   7.655
 6889POPC   NC319499   2.782  30.684   9.455
 6889POPC   PO419500   2.720  30.736   9.155
 6889POPC   GL119501   2.731  30.741   8.855
 6889POPC   GL219502   2.721  30.776   8.855
 6889POPC   C1A19503   2.813  30.659   8.555
 6889POPC   D2A19504   2.786  30.720   8.255
 6889POPC   C3A19505   2.780  30.735   7.955
 6889POPC   C4A19506   2.809  30.716   7.655
 6889POPC   C1B19507   2.733  30.913   8.555
 6889POPC   C2B19508   2.736  30.921   8.255
 6889POPC   C3B19509   2.743  30.994   7.955
 6889POPC   C4B19510   2.733  30.940   7.655
 6890POPC   NC319511  12.855  15.959   9.455
 6890POPC   PO419512  12.898  15.983   9.155
 6890POPC   GL119513  12.899  15.936   8.855
 6890POPC   GL219514  12.822  15.814   8.855
 6890POPC   C1A19515  12.814  15.905   8.555
 6890POPC   D2A19516  12.802  15.961   8.255
 6890POPC   C3A19517  12.844  15.974   7.955
 6890POPC   C4A19518  12.820  15.944   7.655
 6890POPC   C1B19519  12.834  15.662   8.555
 6890POPC   C2B19520  12.758  15.747   8.255
 6890POPC   C3B19521  12.825  15.686   7.955
 6890POPC   C4B19522  12.845  15.684   7.655
 6891POPC   NC319523  29.923  44.643   9.455
 6891POPC   PO419524  29.935  44.688   9.155
 6891POPC   GL119525  29.921  44.674   8.855
 6891POPC   GL219526  29.755  44.623   8.855
 6891POPC   C1A19527  29.925  44.658   8.555
 6891POPC   D2A19528  29.893  44.647   8.255
 6891POPC   C3A19529  29.878  44.711   7.955
 6891POPC   C4A19530  29.922  44.673   7.655
 6891POPC   C1B19531  29.656  44.641   8.555
 6891POPC   C2B19532  29.636  44.609   8.255
 6891POPC   C3B19533  29.658  44.666   7.955
 6891POPC   C4B19534  29.711  44.640   7.655
 6892POPC   NC319535  29.909  29.187   9.455
 6892POPC   PO419536  29.892  29.137   9.155
 6892POPC   GL119537  29.957  29.126   8.855
 6892POPC   GL219538  29.796  29.099   8.855
 6892POPC   C1A19539  29.883  29.140   8.555
 6892POPC   D2A19540  29.910  29.138   8.255
 6892POPC   C3A19541  29.960  29.128   7.955
 6892POPC   C4A19542  29.902  29.153   7.655
 6892POPC   C1B19543  29.708  29.028   8.555
 6892POPC   C2B19544  29.653  29.041   8.255
 6892POPC   C3B19545  29.658  29.095   7.955
 6892POPC   C4B19546  29.648  29.065   7.655
 6893POPC   NC319547   8.951  11.314   9.455
 6893POPC   PO419548   8.924  11.331   9.155
 6893POPC   GL119549   8.927  11.250   8.855
 6893POPC   GL219550   8.941  11.155   8.855
 6893POPC   C1A19551   8.998  11.273   8.555
 6893POPC   D2A19552   9.003  11.251   8.255
 6893POPC   C3A19553   8.978  11.270   7.955
 6893POPC   C4A19554   9.007  11.349   7.655
 6893POPC   C1B19555   8.909  11.056   8.555
 6893POPC   C2B19556   8.958  11.010   8.255
 6893POPC   C3B19557   8.894  11.053   7.955
 6893POPC   C4B19558   8.942  11.067   7.655
 6894POPC   NC319559  35.325  36.123   9.455
 6894POPC   PO419560  35.318  36.093   9.155
 6894POPC   GL119561  35.319  36.144   8.855
 6894POPC   GL219562  35.187  36.123   8.855
 6894POPC   C1A19563  35.330  36.126   8.555
 6894POPC   D2A19564  35.367  36.158   8.255
 6894POPC   C3A19565  35.361  36.101   7.955
 6894POPC   C4A19566  35.340  36.139   7.655
 6894POPC   C1B19567  35.061  36.197   8.555
 6894POPC   C2B19568  35.098  36.154   8.255
 6894POPC   C3B19569  35.063  36.124   7.955
 6894POPC   C4B19570  35.145  36.146   7.655
 6895POPC   NC319571   9.752   9.021   9.455
 6895POPC   PO419572   9.786   9.011   9.155
 6895POPC   GL119573   9.749   9.009   8.855
 6895POPC   GL219574   9.771   9.083   8.855
 6895POPC   C1A19575   9.775   8.941   8.555
 6895POPC   D2A19576   9.761   8.952   8.255
 6895POPC   C3A19577   9.713   8.964   7.955
 6895POPC   C4A19578   9.705   9.000   7.655
 6895POPC   C1B19579   9.835   9.165   8.555
 6895POPC   C2B19580   9.878   9.189   8.255
 6895POPC   C3B19581   9.842   9.202   7.955
 6895POPC   C4B19582   9.830   9.139   7.655
 6896POPC   NC319583  32.198   4.353   9.455
 6896POPC   PO419584  32.291   4.335   9.155
 6896POPC   GL119585  32.244   4.287   8.855
 6896POPC   GL219586  32.226   4.195   8.855
 6896POPC   C1A19587  32.271   4.353   8.555
 6896POPC   D2A19588  32.273   4.346   8.255
 6896POPC   C3A19589  32.251   4.346   7.955
 6896POPC   C4A19590  32.236   4.306   7.655
 6896POPC   C1B19591  32.259   4.085   8.555
 6896POPC   C2B19592  32.226   4.030   8.255
 6896POPC   C3B19593  32.215   4.082   7.955
 6896POPC   C4B19594  32.231   4.043   7.655
 6897POPC   NC319595  12.845  27.599   9.455
 6897POPC   PO419596  12.871  27.593   9.155
 6897POPC   GL119597  12.860  27.629   8.855
 6897POPC   GL219598  12.862  27.455   8.855
 6897POPC   C1A19599  12.880  27.599   8.555
 6897POPC   D2A19600  12.816  27.596   8.255
 6897POPC   C3A19601  12.881  27.565   7.955
 6897POPC   C4A19602  12.833  27.583   7.655
 6897POPC   C1B19603  12.851  27.325   8.555
 6897POPC   C2B19604  12.905  27.384   8.255
 6897POPC   C3B19605  12.877  27.378   7.955
 6897POPC   C4B19606  12.867  27.304   7.655
 6898POPC   NC319607  12.900  12.880   9.455
 6898POPC   PO419608  12.821  12.897   9.155
 6898POPC   GL119609  12.847  12.886   8.855
 6898POPC   GL219610  12.806  12.691   8.855
 6898POPC   C1A19611  12.888  12.869   8.555
 6898POPC   D2A19612  12.881  12.808   8.255
 6898POPC   C3A19613  12.873  12.811   7.955
 6898POPC   C4A19614  12.812  12.870   7.655
 6898POPC   C1B19615  12.822  12.619   8.555
 6898POPC   C2B19616  12.862  12.584   8.255
 6898POPC   C3B19617  12.856  12.571   7.955
 6898POPC   C4B19618  12.821  12.649   7.655
 6899POPC   NC319619  11.301   8.149   9.455
 6899POPC   PO419620  11.326   8.161   9.155
 6899POPC   GL119621  11.316   8.223   8.855
 6899POPC   GL219622  11.165   8.124   8.855
 6899POPC   C1A19623  11.272   8.241   8.555
 6899POPC   D2A19624  11.338   8.150   8.255
 6899POPC   C3A19625  11.303   8.152   7.955
 6899POPC   C4A19626  11.275   8.156   7.655
 6899POPC   C1B19627  11.053   8.093   8.555
 6899POPC   C2B19628  11.017   8.125   8.255
 6899POPC   C3B19629  11.058   8.141   7.955
 6899POPC   C4B19630  11.023   8.095   7.655
 6900POPC   NC319631  18.305   9.768   9.455
 6900POPC   PO419632  18.268   9.783   9.155
 6900POPC   GL119633  18.246   9.730   8.855
 6900POPC   GL219634  18.210   9.685   8.855
 6900POPC   C1A19635  18.300   9.791   8.555
 6900POPC   D2A19636  18.239   9.714   8.255
 6900POPC   C3A19637  18.278   9.733   7.955
 6900POPC   C4A19638  18.313   9.768   7.655
 6900POPC   C1B19639  18.059   9.582   8.555
 6900POPC   C2B19640  18.049   9.595   8.255
 6900POPC   C3B19641  18.073   9.581   7.955
 6900POPC   C4B19642  18.074   9.614   7.655
 6901POPC   NC319643  26.837  18.281   9.455
 6901POPC   PO419644  26.828  18.264   9.155
 6901POPC   GL119645  26.865  18.247   8.855
 6901POPC   GL219646  26.651  18.200   8.855
 6901POPC   C1A19647  26.782  18.273   8.555
 6901POPC   D2A19648  26.832  18.272   8.255
 6901POPC   C3A19649  26.799  18.287   7.955
 6901POPC   C4A19650  26.826  18.233   7.655
 6901POPC   C1B19651  26.558  18.209   8.555
 6901POPC   C2B19652  26.558  18.227   8.255
 6901POPC   C3B19653  26.573  18.251   7.955
 6901POPC   C4B19654  26.628  18.174   7.655
 6902POPC   NC319655  14.433  32.297   9.455
 6902POPC   PO419656  14.357  32.238   9.155
 6902POPC   GL119657  14.427  32.291   8.855
 6902POPC   GL219658  14.447  32.407   8.855
 6902POPC   C1A19659  14.439  32.283   8.555
 6902POPC   D2A19660  14.369  32.223   8.255
 6902POPC   C3A19661  14.374  32.238   7.955
 6902POPC   C4A19662  14.384  32.257   7.655
 6902POPC   C1B19663  14.452  32.536   8.555
 6902POPC   C2B19664  14.464  32.544   8.255
 6902POPC   C3B19665  14.472  32.466   7.955
 6902POPC   C4B19666  14.456  32.468   7.655
 6903POPC   NC319667  38.466  26.819   9.455
 6903POPC   PO419668  38.460  26.836   9.155
 6903POPC   GL119669  38.418  26.817   8.855
 6903POPC   GL219670  38.471  26.941   8.855
 6903POPC   C1A19671  38.474  26.834   8.555
 6903POPC   D2A19672  38.438  26.820   8.255
 6903POPC   C3A19673  38.496  26.864   7.955
 6903POPC   C4A19674  38.463  26.808   7.655
 6903POPC   C1B19675  38.584  27.083   8.555
 6903POPC   C2B19676  38.588  27.014   8.255
 6903POPC   C3B19677  38.587  27.058   7.955
 6903POPC   C4B19678  38.585  27.096   7.655
 6904POPC   NC319679  11.298  41.599   9.455
 6904POPC   PO419680  11.319  41.531   9.155
 6904POPC   GL119681  11.333  41.587   8.855
 6904POPC   GL219682  11.165  41.496   8.855
 6904POPC   C1A19683  11.340  41.558   8.555
 6904POPC   D2A19684  11.297  41.546   8.255
 6904POPC   C3A19685  11.335  41.566   7.955
 6904POPC   C4A19686  11.258  41.542   7.655
 6904POPC   C1B19687  11.032  41.499   8.555
 6904POPC   C2B19688  11.053  41.448   8.255
 6904POPC   C3B19689  11.047  41.532   7.955
 6904POPC   C4B19690  11.094  41.496   7.655
 6905POPC   NC319691  13.614  20.608   9.455
 6905POPC   PO419692  13.671  20.614   9.155
 6905POPC   GL119693  13.622  20.642   8.855
 6905POPC   GL219694  13.572  20.671   8.855
 6905POPC   C1A19695  13.667  20.598   8.555
 6905POPC   D2A19696  13.619  20.646   8.255
 6905POPC   C3A19697  13.665  20.573   7.955
 6905POPC   C4A19698  13.672  20.627   7.655
 6905POPC   C1B19699  13.432  20.803   8.555
 6905POPC   C2B19700  13.424  20.804   8.255
 6905POPC   C3B19701  13.434  20.830   7.955
 6905POPC   C4B19702  13.423  20.763   7.655
 6906POPC   NC319703  42.376  20.653   9.455
 6906POPC   PO419704  42.375  20.606   9.155
 6906POPC   GL119705  42.302  20.603   8.855
 6906POPC   GL219706  42.251  20.661   8.855
 6906POPC   C1A19707  42.310  20.649   8.555
 6906POPC   D2A19708  42.305  20.607   8.255
 6906POPC   C3A19709  42.366  20.637   7.955
 6906POPC   C4A19710  42.335  20.623   7.655
 6906POPC   C1B19711  42.103  20.749   8.555
 6906POPC   C2B19712  42.125  20.687   8.255
 6906POPC   C3B19713  42.125  20.665   7.955
 6906POPC   C4B19714  42.122  20.664   7.655
 6907POPC   NC319715  10.475   4.320   9.455
 6907POPC   PO419716  10.512   4.292   9.155
 6907POPC   GL119717  10.485   4.335   8.855
 6907POPC   GL219718  10.407   4.251   8.855
 6907POPC   C1A19719  10.546   4.360   8.555
 6907POPC   D2A19720  10.535   4.335   8.255
 6907POPC   C3A19721  10.512   4.332   7.955
 6907POPC   C4A19722  10.552   4.323   7.655
 6907POPC   C1B19723  10.336   4.150   8.555
 6907POPC   C2B19724  10.297   4.169   8.255
 6907POPC   C3B19725  10.377   4.119   7.955
 6907POPC   C4B19726  10.313   4.114   7.655
 6908POPC   NC319727  41.535  23.668   9.455
 6908POPC   PO419728  41.559  23.666   9.155
 6908POPC   GL119729  41.546  23.751   8.855
 6908POPC   GL219730  41.656  23.742   8.855
 6908POPC   C1A19731  41.580  23.686   8.555
 6908POPC   D2A19732  41.590  23.670   8.255
 6908POPC   C3A19733  41.553  23.743   7.955
 6908POPC   C4A19734  41.595  23.703   7.655
 6908POPC   C1B19735  41.797  23.783   8.555
 6908POPC   C2B19736  41.814  23.766   8.255
 6908POPC   C3B19737  41.771  23.782   7.955
 6908POPC   C4B19738  41.762  23.722   7.655
 6909POPC   NC319739  41.598  13.610   9.455
 6909POPC   PO419740  41.535  13.639   9.155
 6909POPC   GL119741  41.605  13.672   8.855
 6909POPC   GL219742  41.644  13.538   8.855
 6909POPC   C1A19743  41.605  13.606   8.555
 6909POPC   D2A19744  41.589  13.647   8.255
 6909POPC   C3A19745  41.574  13.657   7.955
 6909POPC   C4A19746  41.594  13.648   7.655
 6909POPC   C1B19747  41.745  13.421   8.555
 6909POPC   C2B19748  41.741  13.417   8.255
 6909POPC   C3B19749  41.744  13.401   7.955
 6909POPC   C4B19750  41.722  13.405   7.655
 6910POPC   NC319751  16.727  12.110   9.455
 6910POPC   PO419752  16.685  12.031   9.155
 6910POPC   GL119753  16.682  12.126   8.855
 6910POPC   GL219754  16.683  11.975   8.855
 6910POPC   C1A19755  16.691  12.123   8.555
 6910POPC   D2A19756  16.700  12.034   8.255
 6910POPC   C3A19757  16.692  12.122   7.955
 6910POPC   C4A19758  16.720  12.046   7.655
 6910POPC   C1B19759  16.644  11.844   8.555
 6910POPC   C2B19760  16.643  11.845   8.255
 6910POPC   C3B19761  16.684  11.810   7.955
 6910POPC   C4B19762  16.624  11.789   7.655
 6911POPC   NC319763  43.098  20.650   9.455
 6911POPC   PO419764  43.095  20.583   9.155
 6911POPC   GL119765  43.143  20.640   8.855
 6911POPC   GL219766  43.011  20.636   8.855
 6911POPC   C1A19767  43.107  20.646   8.555
 6911POPC   D2A19768  43.065  20.628   8.255
 6911POPC   C3A19769  43.132  20.574   7.955
 6911POPC   C4A19770  43.118  20.587   7.655
 6911POPC   C1B19771  42.839  20.587   8.555
 6911POPC   C2B19772  42.820  20.532   8.255
 6911POPC   C3B19773  42.887  20.597   7.955
 6911POPC   C4B19774  42.905  20.526   7.655
 6912POPC   NC319775  21.408   6.668   9.455
 6912POPC   PO419776  21.385   6.640   9.155
 6912POPC   GL119777  21.408   6.658   8.855
 6912POPC   GL219778  21.463   6.605   8.855
 6912POPC   C1A19779  21.404   6.669   8.555
 6912POPC   D2A19780  21.365   6.617   8.255
 6912POPC   C3A19781  21.343   6.658   7.955
 6912POPC   C4A19782  21.373   6.602   7.655
 6912POPC   C1B19783  21.638   6.537   8.555
 6912POPC   C2B19784  21.656   6.599   8.255
 6912POPC   C3B19785  21.619   6.572   7.955
 6912POPC   C4B19786  21.664   6.599   7.655
 6913POPC   NC319787  37.720  25.229   9.455
 6913POPC   PO419788  37.711  25.311   9.155
 6913POPC   GL119789  37.699  25.223   8.855
 6913POPC   GL219790  37.754  25.312   8.855
 6913POPC   C1A19791  37.692  25.275   8.555
 6913POPC   D2A19792  37.635  25.314   8.255
 6913POPC   C3A19793  37.671  25.313   7.955
 6913POPC   C4A19794  37.717  25.312   7.655
 6913POPC   C1B19795  37.939  25.238   8.555
 6913POPC   C2B19796  37.928  25.328   8.255
 6913POPC   C3B19797  37.916  25.306   7.955
 6913POPC   C4B19798  37.960  25.318   7.655
 6914POPC   NC319799  19.022  30.699   9.455
 6914POPC   PO419800  19.028  30.667   9.155
 6914POPC   GL119801  19.089  30.720   8.855
 6914POPC   GL219802  19.163  30.633   8.855
 6914POPC   C1A19803  19.033  30.656   8.555
 6914POPC   D2A19804  19.070  30.654   8.255
 6914POPC   C3A19805  19.086  30.723   7.955
 6914POPC   C4A19806  19.089  30.683   7.655
 6914POPC   C1B19807  19.230  30.545   8.555
 6914POPC   C2B19808  19.229  30.581   8.255
 6914POPC   C3B19809  19.259  30.548   7.955
 6914POPC   C4B19810  19.223  30.568   7.655
 6915POPC   NC319811  12.848   1.962   9.455
 6915POPC   PO419812  12.856   1.979   9.155
 6915POPC   GL119813  12.837   1.944   8.855
 6915POPC   GL219814  12.896   2.046   8.855
 6915POPC   C1A19815  12.813   2.037   8.555
 6915POPC   D2A19816  12.818   1.988   8.255
 6915POPC   C3A19817  12.838   1.963   7.955
 6915POPC   C4A19818  12.889   1.948   7.655
 6915POPC   C1B19819  13.047   2.187   8.555
 6915POPC   C2B19820  13.069   2.187   8.255
 6915POPC   C3B19821  13.072   2.155   7.955
 6915POPC   C4B19822  13.046   2.116   7.655
 6916POPC   NC319823  12.118  15.909   9.455
 6916POPC   PO419824  12.050  15.913   9.155
 6916POPC   GL119825  12.124  15.935   8.855
 6916POPC   GL219826  11.974  15.956   8.855
 6916POPC   C1A19827  12.114  15.986   8.555
 6916POPC   D2A19828  12.035  15.972   8.255
 6916POPC   C3A19829  12.059  15.934   7.955
 6916POPC   C4A19830  12.074  15.963   7.655
 6916POPC   C1B19831  11.807  15.969   8.555
 6916POPC   C2B19832  11.816  16.020   8.255
 6916POPC   C3B19833  11.822  15.948   7.955
 6916POPC   C4B19834  11.800  16.004   7.655
 6917POPC   NC319835  26.772  31.503   9.455
 6917POPC   PO419836  26.795  31.521   9.155
 6917POPC   GL119837  26.839  31.471   8.855
 6917POPC   GL219838  26.714  31.342   8.855
 6917POPC   C1A19839  26.830  31.489   8.555
 6917POPC   D2A19840  26.794  31.455   8.255
 6917POPC   C3A19841  26.815  31.442   7.955
 6917POPC   C4A19842  26.861  31.457   7.655
 6917POPC   C1B19843  26.645  31.303   8.555
 6917POPC   C2B19844  26.618  31.306   8.255
 6917POPC   C3B19845  26.674  31.256   7.955
 6917POPC   C4B19846  26.677  31.263   7.655
 6918POPC   NC319847  39.999   5.913   9.455
 6918POPC   PO419848  40.020   5.824   9.155
 6918POPC   GL119849  40.022   5.839   8.855
 6918POPC   GL219850  39.927   6.014   8.855
 6918POPC   C1A19851  39.962   5.878   8.555
 6918POPC   D2A19852  40.023   5.833   8.255
 6918POPC   C3A19853  39.962   5.878   7.955
 6918POPC   C4A19854  39.979   5.820   7.655
 6918POPC   C1B19855  39.862   6.108   8.555
 6918POPC   C2B19856  39.865   6.068   8.255
 6918POPC   C3B19857  39.848   6.120   7.955
 6918POPC   C4B19858  39.901   6.074   7.655
 6919POPC   NC319859  40.796  26.029   9.455
 6919POPC   PO419860  40.816  26.030   9.155
 6919POPC   GL119861  40.773  26.016   8.855
 6919POPC   GL219862  40.793  26.194   8.855
 6919POPC   C1A19863  40.824  26.067   8.555
 6919POPC   D2A19864  40.785  26.008   8.255
 6919POPC   C3A19865  40.752  26.054   7.955
 6919POPC   C4A19866  40.801  26.090   7.655
 6919POPC   C1B19867  40.908  26.244   8.555
 6919POPC   C2B19868  40.866  26.226   8.255
 6919POPC   C3B19869  40.921  26.273   7.955
 6919POPC   C4B19870  40.900  26.316   7.655
 6920POPC   NC319871  28.375   4.353   9.455
 6920POPC   PO419872  28.368   4.324   9.155
 6920POPC   GL119873  28.329   4.320   8.855
 6920POPC   GL219874  28.401   4.196   8.855
 6920POPC   C1A19875  28.370   4.362   8.555
 6920POPC   D2A19876  28.411   4.363   8.255
 6920POPC   C3A19877  28.400   4.286   7.955
 6920POPC   C4A19878  28.338   4.359   7.655
 6920POPC   C1B19879  28.489   4.135   8.555
 6920POPC   C2B19880  28.493   4.067   8.255
 6920POPC   C3B19881  28.537   4.140   7.955
 6920POPC   C4B19882  28.561   4.100   7.655
 6921POPC   NC319883  22.926   6.667   9.455
 6921POPC   PO419884  22.922   6.681   9.155
 6921POPC   GL119885  22.910   6.694   8.855
 6921POPC   GL219886  22.891   6.588   8.855
 6921POPC   C1A19887  22.974   6.669   8.555
 6921POPC   D2A19888  22.905   6.611   8.255
 6921POPC   C3A19889  22.905   6.641   7.955
 6921POPC   C4A19890  22.894   6.627   7.655
 6921POPC   C1B19891  22.773   6.424   8.555
 6921POPC   C2B19892  22.826   6.436   8.255
 6921POPC   C3B19893  22.834   6.424   7.955
 6921POPC   C4B19894  22.822   6.475   7.655
 6922POPC   NC319895  39.194   7.434   9.455
 6922POPC   PO419896  39.184   7.397   9.155
 6922POPC   GL119897  39.249   7.458   8.855
 6922POPC   GL219898  39.130   7.346   8.855
 6922POPC   C1A19899  39.272   7.421   8.555
 6922POPC   D2A19900  39.216   7.378   8.255
 6922POPC   C3A19901  39.231   7.416   7.955
 6922POPC   C4A19902  39.196   7.392   7.655
 6922POPC   C1B19903  39.024   7.255   8.555
 6922POPC   C2B19904  38.981   7.272   8.255
 6922POPC   C3B19905  39.036   7.307   7.955
 6922POPC   C4B19906  39.069   7.279   7.655
 6923POPC   NC319907  34.548  22.970   9.455
 6923POPC   PO419908  34.588  22.984   9.155
 6923POPC   GL119909  34.534  22.920   8.855
 6923POPC   GL219910  34.495  23.011   8.855
 6923POPC   C1A19911  34.584  22.941   8.555
 6923POPC   D2A19912  34.581  22.909   8.255
 6923POPC   C3A19913  34.575  22.956   7.955
 6923POPC   C4A19914  34.572  22.948   7.655
 6923POPC   C1B19915  34.327  22.986   8.555
 6923POPC   C2B19916  34.299  23.022   8.255
 6923POPC   C3B19917  34.374  23.045   7.955
 6923POPC   C4B19918  34.344  23.037   7.655
 6924POPC   NC319919  35.382   1.256   9.455
 6924POPC   PO419920  35.322   1.175   9.155
 6924POPC   GL119921  35.370   1.181   8.855
 6924POPC   GL219922  35.276   1.180   8.855
 6924POPC   C1A19923  35.373   1.221   8.555
 6924POPC   D2A19924  35.395   1.168   8.255
 6924POPC   C3A19925  35.370   1.189   7.955
 6924POPC   C4A19926  35.332   1.185   7.655
 6924POPC   C1B19927  35.154   1.176   8.555
 6924POPC   C2B19928  35.062   1.148   8.255
 6924POPC   C3B19929  35.126   1.210   7.955
 6924POPC   C4B19930  35.079   1.205   7.655
 6925POPC   NC319931  29.959  36.106   9.455
 6925POPC   PO419932  29.905  36.155   9.155
 6925POPC   GL119933  29.885  36.107   8.855
 6925POPC   GL219934  30.027  36.060   8.855
 6925POPC   C1A19935  29.909  36.100   8.555
 6925POPC   D2A19936  29.896  36.083   8.255
 6925POPC   C3A19937  29.883  36.166   7.955
 6925POPC   C4A19938  29.923  36.132   7.655
 6925POPC   C1B19939  30.133  35.961   8.555
 6925POPC   C2B19940  30.070  35.925   8.255
 6925POPC   C3B19941  30.133  35.925   7.955
 6925POPC   C4B19942  30.073  35.954   7.655
 6926POPC   NC319943  36.103   1.232   9.455
 6926POPC   PO419944  36.092   1.197   9.155
 6926POPC   GL119945  36.166   1.218   8.855
 6926POPC   GL219946  36.018   1.274   8.855
 6926POPC   C1A19947  36.146   1.168   8.555
 6926POPC   D2A19948  36.124   1.204   8.255
 6926POPC   C3A19949  36.144   1.211   7.955
 6926POPC   C4A19950  36.113   1.166   7.655
 6926POPC   C1B19951  35.997   1.426   8.555
 6926POPC   C2B19952  35.979   1.355   8.255
 6926POPC   C3B19953  35.957   1.426   7.955
 6926POPC   C4B19954  35.984   1.408   7.655
 6927POPC   NC319955  34.584  16.732   9.455
 6927POPC   PO419956  34.566  16.726   9.155
 6927POPC   GL119957  34.528  16.738   8.855
 6927POPC   GL219958  34.530  16.591   8.855
 6927POPC   C1A19959  34.540  16.729   8.555
 6927POPC   D2A19960  34.539  16.712   8.255
 6927POPC   C3A19961  34.579  16.750   7.955
 6927POPC   C4A19962  34.560  16.690   7.655
 6927POPC   C1B19963  34.608  16.482   8.555
 6927POPC   C2B19964  34.595  16.512   8.255
 6927POPC   C3B19965  34.533  16.462   7.955
 6927POPC   C4B19966  34.589  16.492   7.655
 6928POPC   NC319967   5.064  39.232   9.455
 6928POPC   PO419968   5.112  39.239   9.155
 6928POPC   GL119969   5.114  39.218   8.855
 6928POPC   GL219970   5.202  39.241   8.855
 6928POPC   C1A19971   5.048  39.182   8.555
 6928POPC   D2A19972   5.048  39.278   8.255
 6928POPC   C3A19973   5.124  39.190   7.955
 6928POPC   C4A19974   5.072  39.206   7.655
 6928POPC   C1B19975   5.327  39.314   8.555
 6928POPC   C2B19976   5.309  39.271   8.255
 6928POPC   C3B19977   5.322  39.293   7.955
 6928POPC   C4B19978   5.384  39.230   7.655
 6929POPC   NC319979   9.729  31.512   9.455
 6929POPC   PO419980   9.719  31.456   9.155
 6929POPC   GL119981   9.761  31.473   8.855
 6929POPC   GL219982   9.854  31.386   8.855
 6929POPC   C1A19983   9.708  31.458   8.555
 6929POPC   D2A19984   9.789  31.518   8.255
 6929POPC   C3A19985   9.762  31.515   7.955
 6929POPC   C4A19986   9.774  31.499   7.655
 6929POPC   C1B19987   9.934  31.282   8.555
 6929POPC   C2B19988   9.931  31.268   8.255
 6929POPC   C3B19989   9.890  31.313   7.955
 6929POPC   C4B19990   9.937  31.328   7.655
 6930POPC   NC319991  39.223   1.950   9.455
 6930POPC   PO419992  39.210   2.001   9.155
 6930POPC   GL119993  39.194   2.016   8.855
 6930POPC   GL219994  39.210   1.889   8.855
 6930POPC   C1A19995  39.246   1.972   8.555
 6930POPC   D2A19996  39.236   1.980   8.255
 6930POPC   C3A19997  39.183   2.001   7.955
 6930POPC   C4A19998  39.181   1.946   7.655
 6930POPC   C1B19999  39.117   1.804   8.555
 6930POPC   C2B20000  39.075   1.796   8.255
 6930POPC   C3B20001  39.122   1.739   7.955
 6930POPC   C4B20002  39.114   1.760   7.655
 6931POPC   NC320003  25.248  28.362   9.455
 6931POPC   PO420004  25.261  28.391   9.155
 6931POPC   GL120005  25.243  28.404   8.855
 6931POPC   GL220006  25.312  28.498   8.855
 6931POPC   C1A20007  25.281  28.405   8.555
 6931POPC   D2A20008  25.261  28.400   8.255
 6931POPC   C3A20009  25.260  28.321   7.955
 6931POPC   C4A20010  25.301  28.408   7.655
 6931POPC   C1B20011  25.337  28.596   8.555
 6931POPC   C2B20012  25.265  28.586   8.255
 6931POPC   C3B20013  25.292  28.590   7.955
 6931POPC   C4B20014  25.279  28.625   7.655
 6932POPC   NC320015   6.653  39.980   9.455
 6932POPC   PO420016   6.632  39.978   9.155
 6932POPC   GL120017   6.688  39.988   8.855
 6932POPC   GL220018   6.622  40.139   8.855
 6932POPC   C1A20019   6.636  40.055   8.555
 6932POPC   D2A20020   6.603  39.986   8.255
 6932POPC   C3A20021   6.601  40.022   7.955
 6932POPC   C4A20022   6.637  40.005   7.655
 6932POPC   C1B20023   6.635  40.282   8.555
 6932POPC   C2B20024   6.646  40.244   8.255
 6932POPC   C3B20025   6.687  40.280   7.955
 6932POPC   C4B20026   6.682  40.266   7.655
 6933POPC   NC320027   0.483  17.512   9.455
 6933POPC   PO420028   0.471  17.552   9.155
 6933POPC   GL120029   0.435  17.485   8.855
 6933POPC   GL220030   0.548  17.587   8.855
 6933POPC   C1A20031   0.398  17.490   8.555
 6933POPC   D2A20032   0.476  17.496   8.255
 6933POPC   C3A20033   0.476  17.458   7.955
 6933POPC   C4A20034   0.440  17.545   7.655
 6933POPC   C1B20035   0.601  17.694   8.555
 6933POPC   C2B20036   0.669  17.693   8.255
 6933POPC   C3B20037   0.611  17.683   7.955
 6933POPC   C4B20038   0.588  17.614   7.655
 6934POPC   NC320039  33.778  26.077   9.455
 6934POPC   PO420040  33.781  26.022   9.155
 6934POPC   GL120041  33.819  26.032   8.855
 6934POPC   GL220042  33.718  26.015   8.855
 6934POPC   C1A20043  33.841  26.019   8.555
 6934POPC   D2A20044  33.804  26.026   8.255
 6934POPC   C3A20045  33.751  26.050   7.955
 6934POPC   C4A20046  33.837  26.081   7.655
 6934POPC   C1B20047  33.533  25.985   8.555
 6934POPC   C2B20048  33.584  25.961   8.255
 6934POPC   C3B20049  33.533  26.029   7.955
 6934POPC   C4B20050  33.570  25.979   7.655
 6935POPC   NC320051  19.099  33.803   9.455
 6935POPC   PO420052  19.066  33.777   9.155
 6935POPC   GL120053  19.080  33.768   8.855
 6935POPC   GL220054  19.028  33.658   8.855
 6935POPC   C1A20055  19.098  33.800   8.555
 6935POPC   D2A20056  19.035  33.834   8.255
 6935POPC   C3A20057  19.018  33.751   7.955
 6935POPC   C4A20058  19.021  33.829   7.655
 6935POPC   C1B20059  19.024  33.571   8.555
 6935POPC   C2B20060  19.046  33.512   8.255
 6935POPC   C3B20061  19.075  33.555   7.955
 6935POPC   C4B20062  19.024  33.571   7.655
 6936POPC   NC320063  29.966  18.256   9.455
 6936POPC   PO420064  29.967  18.289   9.155
 6936POPC   GL120065  29.964  18.301   8.855
 6936POPC   GL220066  29.835  18.311   8.855
 6936POPC   C1A20067  29.911  18.302   8.555
 6936POPC   D2A20068  29.920  18.265   8.255
 6936POPC   C3A20069  29.955  18.308   7.955
 6936POPC   C4A20070  29.952  18.315   7.655
 6936POPC   C1B20071  29.668  18.452   8.555
 6936POPC   C2B20072  29.699  18.361   8.255
 6936POPC   C3B20073  29.717  18.382   7.955
 6936POPC   C4B20074  29.685  18.404   7.655
 6937POPC   NC320075  29.921  12.824   9.455
 6937POPC   PO420076  29.929  12.811   9.155
 6937POPC   GL120077  29.908  12.814   8.855
 6937POPC   GL220078  29.852  13.000   8.855
 6937POPC   C1A20079  29.896  12.880   8.555
 6937POPC   D2A20080  29.924  12.874   8.255
 6937POPC   C3A20081  29.893  12.846   7.955
 6937POPC   C4A20082  29.874  12.869   7.655
 6937POPC   C1B20083  29.868  13.096   8.555
 6937POPC   C2B20084  29.849  13.086   8.255
 6937POPC   C3B20085  29.826  13.046   7.955
 6937POPC   C4B20086  29.857  13.092   7.655
 6938POPC   NC320087  21.373  33.782   9.455
 6938POPC   PO420088  21.370  33.818   9.155
 6938POPC   GL120089  21.426  33.827   8.855
 6938POPC   GL220090  21.256  33.793   8.855
 6938POPC   C1A20091  21.379  33.781   8.555
 6938POPC   D2A20092  21.420  33.811   8.255
 6938POPC   C3A20093  21.373  33.846   7.955
 6938POPC   C4A20094  21.368  33.831   7.655
 6938POPC   C1B20095  21.130  33.691   8.555
 6938POPC   C2B20096  21.151  33.699   8.255
 6938POPC   C3B20097  21.136  33.667   7.955
 6938POPC   C4B20098  21.117  33.729   7.655
 6939POPC   NC320099  26.001  18.332   9.455
 6939POPC   PO420100  26.084  18.329   9.155
 6939POPC   GL120101  25.999  18.314   8.855
 6939POPC   GL220102  26.035  18.388   8.855
 6939POPC   C1A20103  25.998  18.325   8.555
 6939POPC   D2A20104  26.069  18.283   8.255
 6939POPC   C3A20105  26.019  18.238   7.955
 6939POPC   C4A20106  26.081  18.293   7.655
 6939POPC   C1B20107  26.073  18.506   8.555
 6939POPC   C2B20108  26.108  18.528   8.255
 6939POPC   C3B20109  26.053  18.521   7.955
 6939POPC   C4B20110  26.054  18.576   7.655
 6940POPC   NC320111  25.216  18.241   9.455
 6940POPC   PO420112  25.293  18.292   9.155
 6940POPC   GL120113  25.256  18.260   8.855
 6940POPC   GL220114  25.347  18.371   8.855
 6940POPC   C1A20115  25.274  18.290   8.555
 6940POPC   D2A20116  25.225  18.328   8.255
 6940POPC   C3A20117  25.307  18.275   7.955
 6940POPC   C4A20118  25.308  18.277   7.655
 6940POPC   C1B20119  25.432  18.436   8.555
 6940POPC   C2B20120  25.448  18.513   8.255
 6940POPC   C3B20121  25.458  18.433   7.955
 6940POPC   C4B20122  25.437  18.467   7.655
 6941POPC   NC320123  34.604  20.609   9.455
 6941POPC   PO420124  34.605  20.588   9.155
 6941POPC   GL120125  34.532  20.608   8.855
 6941POPC   GL220126  34.686  20.591   8.855
 6941POPC   C1A20127  34.565  20.623   8.555
 6941POPC   D2A20128  34.566  20.592   8.255
 6941POPC   C3A20129  34.535  20.582   7.955
 6941POPC   C4A20130  34.614  20.597   7.655
 6941POPC   C1B20131  34.830  20.549   8.555
 6941POPC   C2B20132  34.785  20.516   8.255
 6941POPC   C3B20133  34.819  20.579   7.955
 6941POPC   C4B20134  34.772  20.524   7.655
 6942POPC   NC320135  26.789  44.633   9.455
 6942POPC   PO420136  26.832  44.676   9.155
 6942POPC   GL120137  26.782  44.634   8.855
 6942POPC   GL220138  26.802  44.754   8.855
 6942POPC   C1A20139  26.767  44.638   8.555
 6942POPC   D2A20140  26.824  44.694   8.255
 6942POPC   C3A20141  26.781  44.682   7.955
 6942POPC   C4A20142  26.778  44.689   7.655
 6942POPC   C1B20143  26.838  44.865   8.555
 6942POPC   C2B20144  26.843  44.883   8.255
 6942POPC   C3B20145  26.756  44.904   7.955
 6942POPC   C4B20146  26.823  44.954   7.655
 6943POPC   NC320147  12.055  39.213   9.455
 6943POPC   PO420148  12.098  39.271   9.155
 6943POPC   GL120149  12.065  39.262   8.855
 6943POPC   GL220150  11.994  39.319   8.855
 6943POPC   C1A20151  12.087  39.210   8.555
 6943POPC   D2A20152  12.111  39.210   8.255
 6943POPC   C3A20153  12.069  39.190   7.955
 6943POPC   C4A20154  12.122  39.229   7.655
 6943POPC   C1B20155  11.954  39.458   8.555
 6943POPC   C2B20156  11.919  39.491   8.255
 6943POPC   C3B20157  11.949  39.419   7.955
 6943POPC   C4B20158  12.013  39.480   7.655
 6944POPC   NC320159  44.666   1.207   9.455
 6944POPC   PO420160  44.623   1.166   9.155
 6944POPC   GL120161  44.659   1.230   8.855
 6944POPC   GL220162  44.602   1.059   8.855
 6944POPC   C1A20163  44.629   1.226   8.555
 6944POPC   D2A20164  44.649   1.261   8.255
 6944POPC   C3A20165  44.627   1.261   7.955
 6944POPC   C4A20166  44.675   1.226   7.655
 6944POPC   C1B20167  44.592   1.011   8.555
 6944POPC   C2B20168  44.674   0.922   8.255
 6944POPC   C3B20169  44.627   0.930   7.955
 6944POPC   C4B20170  44.632   0.992   7.655
 6945POPC   NC320171  44.626   8.148   9.455
 6945POPC   PO420172  44.668   8.171   9.155
 6945POPC   GL120173  44.690   8.175   8.855
 6945POPC   GL220174  44.613   8.299   8.855
 6945POPC   C1A20175  44.624   8.186   8.555
 6945POPC   D2A20176  44.631   8.173   8.255
 6945POPC   C3A20177  44.669   8.174   7.955
 6945POPC   C4A20178  44.619   8.155   7.655
 6945POPC   C1B20179  44.572   8.420   8.555
 6945POPC   C2B20180  44.606   8.417   8.255
 6945POPC   C3B20181  44.612   8.442   7.955
 6945POPC   C4B20182  44.550   8.481   7.655
 6946POPC   NC320183  24.451  19.077   9.455
 6946POPC   PO420184  24.470  19.070   9.155
 6946POPC   GL120185  24.497  19.068   8.855
 6946POPC   GL220186  24.462  19.158   8.855
 6946POPC   C1A20187  24.531  19.059   8.555
 6946POPC   D2A20188  24.501  19.056   8.255
 6946POPC   C3A20189  24.448  19.101   7.955
 6946POPC   C4A20190  24.524  19.047   7.655
 6946POPC   C1B20191  24.538  19.351   8.555
 6946POPC   C2B20192  24.524  19.351   8.255
 6946POPC   C3B20193  24.527  19.312   7.955
 6946POPC   C4B20194  24.543  19.338   7.655
 6947POPC   NC320195  39.959  41.607   9.455
 6947POPC   PO420196  39.960  41.538   9.155
 6947POPC   GL120197  40.013  41.570   8.855
 6947POPC   GL220198  39.908  41.683   8.855
 6947POPC   C1A20199  40.010  41.545   8.555
 6947POPC   D2A20200  39.978  41.554   8.255
 6947POPC   C3A20201  39.991  41.602   7.955
 6947POPC   C4A20202  40.013  41.589   7.655
 6947POPC   C1B20203  39.821  41.754   8.555
 6947POPC   C2B20204  39.825  41.782   8.255
 6947POPC   C3B20205  39.871  41.772   7.955
 6947POPC   C4B20206  39.906  41.724   7.655
 6948POPC   NC320207  12.067   2.035   9.455
 6948POPC   PO420208  12.047   1.995   9.155
 6948POPC   GL120209  12.057   2.012   8.855
 6948POPC   GL220210  11.949   1.961   8.855
 6948POPC   C1A20211  12.069   1.950   8.555
 6948POPC   D2A20212  12.118   1.943   8.255
 6948POPC   C3A20213  12.035   1.943   7.955
 6948POPC   C4A20214  12.123   2.018   7.655
 6948POPC   C1B20215  11.828   1.882   8.555
 6948POPC   C2B20216  11.901   1.906   8.255
 6948POPC   C3B20217  11.880   1.859   7.955
 6948POPC   C4B20218  11.893   1.898   7.655
 6949POPC   NC320219  39.236  44.635   9.455
 6949POPC   PO420220  39.191  44.637   9.155
 6949POPC   GL120221  39.276  44.684   8.855
 6949POPC   GL220222  39.245  44.523   8.855
 6949POPC   C1A20223  39.226  44.638   8.555
 6949POPC   D2A20224  39.229  44.673   8.255
 6949POPC   C3A20225  39.275  44.681   7.955
 6949POPC   C4A20226  39.261  44.625   7.655
 6949POPC   C1B20227  39.273  44.398   8.555
 6949POPC   C2B20228  39.304  44.468   8.255
 6949POPC   C3B20229  39.285  44.402   7.955
 6949POPC   C4B20230  39.290  44.422   7.655
 6950POPC   NC320231  32.997   1.193   9.455
 6950POPC   PO420232  32.976   1.170   9.155
 6950POPC   GL120233  33.006   1.260   8.855
 6950POPC   GL220234  33.119   1.223   8.855
 6950POPC   C1A20235  32.986   1.231   8.555
 6950POPC   D2A20236  33.066   1.211   8.255
 6950POPC   C3A20237  33.008   1.195   7.955
 6950POPC   C4A20238  32.978   1.221   7.655
 6950POPC   C1B20239  33.228   1.172   8.555
 6950POPC   C2B20240  33.257   1.243   8.255
 6950POPC   C3B20241  33.317   1.217   7.955
 6950POPC   C4B20242  33.237   1.163   7.655
 6951POPC   NC320243  42.302   6.650   9.455
 6951POPC   PO420244  42.361   6.663   9.155
 6951POPC   GL120245  42.371   6.662   8.855
 6951POPC   GL220246  42.427   6.720   8.855
 6951POPC   C1A20247  42.364   6.651   8.555
 6951POPC   D2A20248  42.308   6.612   8.255
 6951POPC   C3A20249  42.360   6.604   7.955
 6951POPC   C4A20250  42.383   6.649   7.655
 6951POPC   C1B20251  42.557   6.771   8.555
 6951POPC   C2B20252  42.551   6.787   8.255
 6951POPC   C3B20253  42.506   6.794   7.955
 6951POPC   C4B20254  42.591   6.812   7.655
 6952POPC   NC320255   3.516   1.253   9.455
 6952POPC   PO420256   3.505   1.190   9.155
 6952POPC   GL120257   3.563   1.213   8.855
 6952POPC   GL220258   3.497   1.134   8.855
 6952POPC   C1A20259   3.508   1.235   8.555
 6952POPC   D2A20260   3.573   1.205   8.255
 6952POPC   C3A20261   3.493   1.215   7.955
 6952POPC   C4A20262   3.589   1.178   7.655
 6952POPC   C1B20263   3.469   0.932   8.555
 6952POPC   C2B20264   3.563   0.974   8.255
 6952POPC   C3B20265   3.548   0.961   7.955
 6952POPC   C4B20266   3.481   0.944   7.655
 6953POPC   NC320267  29.179   4.317   9.455
 6953POPC   PO420268  29.107   4.361   9.155
 6953POPC   GL120269  29.183   4.303   8.855
 6953POPC   GL220270  29.258   4.203   8.855
 6953POPC   C1A20271  29.101   4.321   8.555
 6953POPC   D2A20272  29.155   4.308   8.255
 6953POPC   C3A20273  29.162   4.341   7.955
 6953POPC   C4A20274  29.101   4.300   7.655
 6953POPC   C1B20275  29.292   4.163   8.555
 6953POPC   C2B20276  29.387   4.140   8.255
 6953POPC   C3B20277  29.355   4.132   7.955
 6953POPC   C4B20278  29.386   4.163   7.655
 6954POPC   NC320279  36.917  10.518   9.455
 6954POPC   PO420280  36.892  10.476   9.155
 6954POPC   GL120281  36.867  10.568   8.855
 6954POPC   GL220282  36.868  10.374   8.855
 6954POPC   C1A20283  36.880  10.530   8.555
 6954POPC   D2A20284  36.859  10.476   8.255
 6954POPC   C3A20285  36.878  10.528   7.955
 6954POPC   C4A20286  36.912  10.519   7.655
 6954POPC   C1B20287  36.809  10.247   8.555
 6954POPC   C2B20288  36.833  10.285   8.255
 6954POPC   C3B20289  36.826  10.319   7.955
 6954POPC   C4B20290  36.854  10.252   7.655
 6955POPC   NC320291  10.481  26.806   9.455
 6955POPC   PO420292  10.555  26.834   9.155
 6955POPC   GL120293  10.500  26.826   8.855
 6955POPC   GL220294  10.524  26.700   8.855
 6955POPC   C1A20295  10.511  26.812   8.555
 6955POPC   D2A20296  10.526  26.864   8.255
 6955POPC   C3A20297  10.504  26.847   7.955
 6955POPC   C4A20298  10.505  26.816   7.655
 6955POPC   C1B20299  10.561  26.620   8.555
 6955POPC   C2B20300  10.569  26.601   8.255
 6955POPC   C3B20301  10.548  26.529   7.955
 6955POPC   C4B20302  10.553  26.611   7.655
 6956POPC   NC320303  24.454   3.505   9.455
 6956POPC   PO420304  24.461   3.537   9.155
 6956POPC   GL120305  24.529   3.560   8.855
 6956POPC   GL220306  24.551   3.655   8.855
 6956POPC   C1A20307  24.471   3.519   8.555
 6956POPC   D2A20308  24.519   3.508   8.255
 6956POPC   C3A20309  24.460   3.512   7.955
 6956POPC   C4A20310  24.459   3.567   7.655
 6956POPC   C1B20311  24.655   3.756   8.555
 6956POPC   C2B20312  24.590   3.759   8.255
 6956POPC   C3B20313  24.651   3.748   7.955
 6956POPC   C4B20314  24.575   3.748   7.655
 6957POPC   NC320315   9.008   4.351   9.455
 6957POPC   PO420316   8.963   4.326   9.155
 6957POPC   GL120317   8.967   4.294   8.855
 6957POPC   GL220318   8.888   4.300   8.855
 6957POPC   C1A20319   8.987   4.318   8.555
 6957POPC   D2A20320   8.987   4.288   8.255
 6957POPC   C3A20321   8.937   4.310   7.955
 6957POPC   C4A20322   9.015   4.310   7.655
 6957POPC   C1B20323   8.727   4.258   8.555
 6957POPC   C2B20324   8.710   4.322   8.255
 6957POPC   C3B20325   8.720   4.334   7.955
 6957POPC   C4B20326   8.723   4.264   7.655
 6958POPC   NC320327   8.203  39.206   9.455
 6958POPC   PO420328   8.245  39.241   9.155
 6958POPC   GL120329   8.156  39.205   8.855
 6958POPC   GL220330   8.225  39.169   8.855
 6958POPC   C1A20331   8.160  39.217   8.555
 6958POPC   D2A20332   8.173  39.197   8.255
 6958POPC   C3A20333   8.213  39.257   7.955
 6958POPC   C4A20334   8.228  39.186   7.655
 6958POPC   C1B20335   8.260  39.057   8.555
 6958POPC   C2B20336   8.278  39.005   8.255
 6958POPC   C3B20337   8.344  38.977   7.955
 6958POPC   C4B20338   8.267  39.000   7.655
 6959POPC   NC320339  33.819   9.736   9.455
 6959POPC   PO420340  33.750   9.749   9.155
 6959POPC   GL120341  33.843   9.717   8.855
 6959POPC   GL220342  33.692   9.794   8.855
 6959POPC   C1A20343  33.803   9.757   8.555
 6959POPC   D2A20344  33.840   9.759   8.255
 6959POPC   C3A20345  33.797   9.767   7.955
 6959POPC   C4A20346  33.829   9.709   7.655
 6959POPC   C1B20347  33.603   9.959   8.555
 6959POPC   C2B20348  33.681   9.899   8.255
 6959POPC   C3B20349  33.669   9.941   7.955
 6959POPC   C4B20350  33.619   9.971   7.655
 6960POPC   NC320351  33.817  26.781   9.455
 6960POPC   PO420352  33.792  26.787   9.155
 6960POPC   GL120353  33.790  26.790   8.855
 6960POPC   GL220354  33.902  26.821   8.855
 6960POPC   C1A20355  33.831  26.818   8.555
 6960POPC   D2A20356  33.847  26.796   8.255
 6960POPC   C3A20357  33.795  26.858   7.955
 6960POPC   C4A20358  33.783  26.846   7.655
 6960POPC   C1B20359  34.021  26.803   8.555
 6960POPC   C2B20360  34.017  26.874   8.255
 6960POPC   C3B20361  34.054  26.826   7.955
 6960POPC   C4B20362  34.067  26.860   7.655
 6961POPC   NC320363  30.651  29.955   9.455
 6961POPC   PO420364  30.661  29.934   9.155
 6961POPC   GL120365  30.725  29.923   8.855
 6961POPC   GL220366  30.721  29.853   8.855
 6961POPC   C1A20367  30.652  29.950   8.555
 6961POPC   D2A20368  30.716  29.945   8.255
 6961POPC   C3A20369  30.746  29.876   7.955
 6961POPC   C4A20370  30.723  29.872   7.655
 6961POPC   C1B20371  30.755  29.677   8.555
 6961POPC   C2B20372  30.759  29.711   8.255
 6961POPC   C3B20373  30.799  29.648   7.955
 6961POPC   C4B20374  30.841  29.711   7.655
 6962POPC   NC320375  17.537  31.490   9.455
 6962POPC   PO420376  17.519  31.425   9.155
 6962POPC   GL120377  17.523  31.431   8.855
 6962POPC   GL220378  17.433  31.410   8.855
 6962POPC   C1A20379  17.485  31.498   8.555
 6962POPC   D2A20380  17.546  31.503   8.255
 6962POPC   C3A20381  17.551  31.469   7.955
 6962POPC   C4A20382  17.460  31.506   7.655
 6962POPC   C1B20383  17.358  31.284   8.555
 6962POPC   C2B20384  17.374  31.277   8.255
 6962POPC   C3B20385  17.368  31.253   7.955
 6962POPC   C4B20386  17.338  31.243   7.655
 6963POPC   NC320387  26.866  19.039   9.455
 6963POPC   PO420388  26.829  19.102   9.155
 6963POPC   GL120389  26.862  19.047   8.855
 6963POPC   GL220390  26.748  18.915   8.855
 6963POPC   C1A20391  26.803  19.077   8.555
 6963POPC   D2A20392  26.784  19.088   8.255
 6963POPC   C3A20393  26.779  19.071   7.955
 6963POPC   C4A20394  26.780  19.036   7.655
 6963POPC   C1B20395  26.722  18.858   8.555
 6963POPC   C2B20396  26.749  18.847   8.255
 6963POPC   C3B20397  26.665  18.876   7.955
 6963POPC   C4B20398  26.705  18.829   7.655
 6964POPC   NC320399  11.324   1.957   9.455
 6964POPC   PO420400  11.268   1.992   9.155
 6964POPC   GL120401  11.314   1.966   8.855
 6964POPC   GL220402  11.132   1.986   8.855
 6964POPC   C1A20403  11.306   2.017   8.555
 6964POPC   D2A20404  11.346   1.941   8.255
 6964POPC   C3A20405  11.268   2.007   7.955
 6964POPC   C4A20406  11.289   1.953   7.655
 6964POPC   C1B20407  11.085   2.013   8.555
 6964POPC   C2B20408  11.067   2.085   8.255
 6964POPC   C3B20409  11.020   2.104   7.955
 6964POPC   C4B20410  11.029   2.108   7.655
 6965POPC   NC320411   6.616  28.324   9.455
 6965POPC   PO420412   6.678  28.365   9.155
 6965POPC   GL120413   6.619  28.343   8.855
 6965POPC   GL220414   6.648  28.521   8.855
 6965POPC   C1A20415   6.693  28.382   8.555
 6965POPC   D2A20416   6.657  28.382   8.255
 6965POPC   C3A20417   6.675  28.416   7.955
 6965POPC   C4A20418   6.624  28.327   7.655
 6965POPC   C1B20419   6.676  28.612   8.555
 6965POPC   C2B20420   6.707  28.579   8.255
 6965POPC   C3B20421   6.621  28.645   7.955
 6965POPC   C4B20422   6.634  28.648   7.655
 6966POPC   NC320423  21.338  13.660   9.455
 6966POPC   PO420424  21.413  13.642   9.155
 6966POPC   GL120425  21.401  13.606   8.855
 6966POPC   GL220426  21.396  13.525   8.855
 6966POPC   C1A20427  21.386  13.614   8.555
 6966POPC   D2A20428  21.404  13.647   8.255
 6966POPC   C3A20429  21.345  13.585   7.955
 6966POPC   C4A20430  21.340  13.622   7.655
 6966POPC   C1B20431  21.371  13.343   8.555
 6966POPC   C2B20432  21.318  13.415   8.255
 6966POPC   C3B20433  21.337  13.394   7.955
 6966POPC   C4B20434  21.359  13.374   7.655
 6967POPC   NC320435  41.581   0.473   9.455
 6967POPC   PO420436  41.549   0.457   9.155
 6967POPC   GL120437  41.551   0.481   8.855
 6967POPC   GL220438  41.532   0.595   8.855
 6967POPC   C1A20439  41.605   0.442   8.555
 6967POPC   D2A20440  41.577   0.473   8.255
 6967POPC   C3A20441  41.585   0.463   7.955
 6967POPC   C4A20442  41.512   0.400   7.655
 6967POPC   C1B20443  41.451   0.682   8.555
 6967POPC   C2B20444  41.441   0.709   8.255
 6967POPC   C3B20445  41.451   0.668   7.955
 6967POPC   C4B20446  41.522   0.721   7.655
 6968POPC   NC320447  28.401  29.933   9.455
 6968POPC   PO420448  28.374  29.887   9.155
 6968POPC   GL120449  28.377  29.946   8.855
 6968POPC   GL220450  28.355  29.824   8.855
 6968POPC   C1A20451  28.360  29.955   8.555
 6968POPC   D2A20452  28.325  29.944   8.255
 6968POPC   C3A20453  28.366  29.939   7.955
 6968POPC   C4A20454  28.338  29.936   7.655
 6968POPC   C1B20455  28.322  29.626   8.555
 6968POPC   C2B20456  28.357  29.666   8.255
 6968POPC   C3B20457  28.370  29.652   7.955
 6968POPC   C4B20458  28.393  29.649   7.655
 6969POPC   NC320459   7.381  12.857   9.455
 6969POPC   PO420460   7.403  12.821   9.155
 6969POPC   GL120461   7.437  12.876   8.855
 6969POPC   GL220462   7.255  12.911   8.855
 6969POPC   C1A20463   7.452  12.809   8.555
 6969POPC   D2A20464   7.405  12.830   8.255
 6969POPC   C3A20465   7.403  12.888   7.955
 6969POPC   C4A20466   7.413  12.807   7.655
 6969POPC   C1B20467   7.197  12.903   8.555
 6969POPC   C2B20468   7.167  12.952   8.255
 6969POPC   C3B20469   7.198  12.871   7.955
 6969POPC   C4B20470   7.134  12.928   7.655
 6970POPC   NC320471  37.687  36.148   9.455
 6970POPC   PO420472  37.699  36.112   9.155
 6970POPC   GL120473  37.676  36.133   8.855
 6970POPC   GL220474  37.782  36.075   8.855
 6970POPC   C1A20475  37.632  36.092   8.555
 6970POPC   D2A20476  37.719  36.132   8.255
 6970POPC   C3A20477  37.630  36.163   7.955
 6970POPC   C4A20478  37.682  36.166   7.655
 6970POPC   C1B20479  37.911  36.124   8.555
 6970POPC   C2B20480  37.919  36.108   8.255
 6970POPC   C3B20481  37.898  36.124   7.955
 6970POPC   C4B20482  37.944  36.051   7.655
 6971POPC   NC320483  42.343   7.390   9.455
 6971POPC   PO420484  42.289   7.427   9.155
 6971POPC   GL120485  42.357   7.429   8.855
 6971POPC   GL220486  42.382   7.327   8.855
 6971POPC   C1A20487  42.337   7.392   8.555
 6971POPC   D2A20488  42.316   7.443   8.255
 6971POPC   C3A20489  42.356   7.385   7.955
 6971POPC   C4A20490  42.300   7.445   7.655
 6971POPC   C1B20491  42.409   7.164   8.555
 6971POPC   C2B20492  42.461   7.223   8.255
 6971POPC   C3B20493  42.424   7.168   7.955
 6971POPC   C4B20494  42.415   7.176   7.655
 6972POPC   NC320495  42.368   0.447   9.455
 6972POPC   PO420496  42.322   0.475   9.155
 6972POPC   GL120497  42.304   0.414   8.855
 6972POPC   GL220498  42.352   0.517   8.855
 6972POPC   C1A20499  42.321   0.435   8.555
 6972POPC   D2A20500  42.351   0.413   8.255
 6972POPC   C3A20501  42.373   0.457   7.955
 6972POPC   C4A20502  42.364   0.460   7.655
 6972POPC   C1B20503  42.264   0.695   8.555
 6972POPC   C2B20504  42.252   0.722   8.255
 6972POPC   C3B20505  42.324   0.675   7.955
 6972POPC   C4B20506  42.246   0.713   7.655
 6973POPC   NC320507  12.849   5.128   9.455
 6973POPC   PO420508  12.822   5.107   9.155
 6973POPC   GL120509  12.845   5.075   8.855
 6973POPC   GL220510  12.907   5.169   8.855
 6973POPC   C1A20511  12.884   5.121   8.555
 6973POPC   D2A20512  12.844   5.054   8.255
 6973POPC   C3A20513  12.856   5.081   7.955
 6973POPC   C4A20514  12.887   5.109   7.655
 6973POPC   C1B20515  12.952   5.322   8.555
 6973POPC   C2B20516  12.941   5.342   8.255
 6973POPC   C3B20517  12.945   5.322   7.955
 6973POPC   C4B20518  12.910   5.286   7.655
 6974POPC   NC320519  33.042   7.416   9.455
 6974POPC   PO420520  32.984   7.469   9.155
 6974POPC   GL120521  33.002   7.415   8.855
 6974POPC   GL220522  32.859   7.456   8.855
 6974POPC   C1A20523  33.049   7.463   8.555
 6974POPC   D2A20524  33.052   7.401   8.255
 6974POPC   C3A20525  32.998   7.460   7.955
 6974POPC   C4A20526  33.071   7.450   7.655
 6974POPC   C1B20527  32.782   7.504   8.555
 6974POPC   C2B20528  32.820   7.508   8.255
 6974POPC   C3B20529  32.830   7.536   7.955
 6974POPC   C4B20530  32.787   7.555   7.655
 6975POPC   NC320531  36.123  44.698   9.455
 6975POPC   PO420532  36.117  44.685   9.155
 6975POPC   GL120533  36.146  44.665   8.855
 6975POPC   GL220534  36.084  44.597   8.855
 6975POPC   C1A20535  36.111  44.695   8.555
 6975POPC   D2A20536  36.086  44.658   8.255
 6975POPC   C3A20537  36.110  44.651   7.955
 6975POPC   C4A20538  36.164  44.616   7.655
 6975POPC   C1B20539  35.999  44.461   8.555
 6975POPC   C2B20540  35.973  44.517   8.255
 6975POPC   C3B20541  35.949  44.445   7.955
 6975POPC   C4B20542  35.906  44.446   7.655
 6976POPC   NC320543   0.419  43.933   9.455
 6976POPC   PO420544   0.390  43.884   9.155
 6976POPC   GL120545   0.461  43.899   8.855
 6976POPC   GL220546   0.461  43.743   8.855
 6976POPC   C1A20547   0.398  43.925   8.555
 6976POPC   D2A20548   0.447  43.853   8.255
 6976POPC   C3A20549   0.429  43.919   7.955
 6976POPC   C4A20550   0.397  43.891   7.655
 6976POPC   C1B20551   0.607  43.678   8.555
 6976POPC   C2B20552   0.596  43.659   8.255
 6976POPC   C3B20553   0.559  43.693   7.955
 6976POPC   C4B20554   0.572  43.686   7.655
 6977POPC   NC320555  29.178  20.617   9.455
 6977POPC   PO420556  29.143  20.613   9.155
 6977POPC   GL120557  29.106  20.591   8.855
 6977POPC   GL220558  29.025  20.653   8.855
 6977POPC   C1A20559  29.185  20.592   8.555
 6977POPC   D2A20560  29.177  20.634   8.255
 6977POPC   C3A20561  29.154  20.659   7.955
 6977POPC   C4A20562  29.117  20.603   7.655
 6977POPC   C1B20563  28.899  20.704   8.555
 6977POPC   C2B20564  28.872  20.680   8.255
 6977POPC   C3B20565  28.917  20.726   7.955
 6977POPC   C4B20566  28.945  20.718   7.655
 6978POPC   NC320567  33.796  32.263   9.455
 6978POPC   PO420568  33.798  32.268   9.155
 6978POPC   GL120569  33.811  32.212   8.855
 6978POPC   GL220570  33.656  32.278   8.855
 6978POPC   C1A20571  33.751  32.266   8.555
 6978POPC   D2A20572  33.822  32.198   8.255
 6978POPC   C3A20573  33.805  32.270   7.955
 6978POPC   C4A20574  33.798  32.274   7.655
 6978POPC   C1B20575  33.562  32.253   8.555
 6978POPC   C2B20576  33.581  32.248   8.255
 6978POPC   C3B20577  33.573  32.279   7.955
 6978POPC   C4B20578  33.513  32.301   7.655
 6979POPC   NC320579  30.661  30.710   9.455
 6979POPC   PO420580  30.702  30.662   9.155
 6979POPC   GL120581  30.741  30.737   8.855
 6979POPC   GL220582  30.847  30.722   8.855
 6979POPC   C1A20583  30.677  30.678   8.555
 6979POPC   D2A20584  30.700  30.712   8.255
 6979POPC   C3A20585  30.694  30.677   7.955
 6979POPC   C4A20586  30.688  30.662   7.655
 6979POPC   C1B20587  30.911  30.710   8.555
 6979POPC   C2B20588  30.982  30.699   8.255
 6979POPC   C3B20589  30.971  30.727   7.955
 6979POPC   C4B20590  30.922  30.677   7.655
 6980POPC   NC320591  12.119  36.082   9.455
 6980POPC   PO420592  12.095  36.120   9.155
 6980POPC   GL120593  12.067  36.169   8.855
 6980POPC   GL220594  12.207  36.269   8.855
 6980POPC   C1A20595  12.107  36.142   8.555
 6980POPC   D2A20596  12.042  36.082   8.255
 6980POPC   C3A20597  12.095  36.139   7.955
 6980POPC   C4A20598  12.028  36.114   7.655
 6980POPC   C1B20599  12.236  36.268   8.555
 6980POPC   C2B20600  12.281  36.323   8.255
 6980POPC   C3B20601  12.253  36.361   7.955
 6980POPC   C4B20602  12.215  36.319   7.655
 6981POPC   NC320603  12.029  22.890   9.455
 6981POPC   PO420604  12.043  22.979   9.155
 6981POPC   GL120605  12.108  22.966   8.855
 6981POPC   GL220606  12.081  23.064   8.855
 6981POPC   C1A20607  12.070  22.960   8.555
 6981POPC   D2A20608  12.122  22.982   8.255
 6981POPC   C3A20609  12.044  22.938   7.955
 6981POPC   C4A20610  12.096  22.926   7.655
 6981POPC   C1B20611  12.009  23.196   8.555
 6981POPC   C2B20612  12.018  23.190   8.255
 6981POPC   C3B20613  11.995  23.214   7.955
 6981POPC   C4B20614  12.002  23.163   7.655
 6982POPC   NC320615  32.257  10.542   9.455
 6982POPC   PO420616  32.251  10.559   9.155
 6982POPC   GL120617  32.284  10.568   8.855
 6982POPC   GL220618  32.317  10.620   8.855
 6982POPC   C1A20619  32.284  10.554   8.555
 6982POPC   D2A20620  32.281  10.528   8.255
 6982POPC   C3A20621  32.240  10.507   7.955
 6982POPC   C4A20622  32.286  10.535   7.655
 6982POPC   C1B20623  32.307  10.715   8.555
 6982POPC   C2B20624  32.337  10.803   8.255
 6982POPC   C3B20625  32.343  10.774   7.955
 6982POPC   C4B20626  32.316  10.758   7.655
 6983POPC   NC320627  12.078  33.819   9.455
 6983POPC   PO420628  12.029  33.753   9.155
 6983POPC   GL120629  12.117  33.754   8.855
 6983POPC   GL220630  11.988  33.858   8.855
 6983POPC   C1A20631  12.082  33.762   8.555
 6983POPC   D2A20632  12.028  33.849   8.255
 6983POPC   C3A20633  12.063  33.760   7.955
 6983POPC   C4A20634  12.084  33.827   7.655
 6983POPC   C1B20635  11.950  34.033   8.555
 6983POPC   C2B20636  11.901  34.053   8.255
 6983POPC   C3B20637  11.984  33.994   7.955
 6983POPC   C4B20638  11.937  34.006   7.655
 6984POPC   NC320639  17.499  21.347   9.455
 6984POPC   PO420640  17.518  21.367   9.155
 6984POPC   GL120641  17.462  21.432   8.855
 6984POPC   GL220642  17.375  21.297   8.855
 6984POPC   C1A20643  17.521  21.350   8.555
 6984POPC   D2A20644  17.500  21.382   8.255
 6984POPC   C3A20645  17.541  21.399   7.955
 6984POPC   C4A20646  17.488  21.431   7.655
 6984POPC   C1B20647  17.282  21.242   8.555
 6984POPC   C2B20648  17.268  21.281   8.255
 6984POPC   C3B20649  17.289  21.236   7.955
 6984POPC   C4B20650  17.256  21.308   7.655
 6985POPC   NC320651  38.505  35.305   9.455
 6985POPC   PO420652  38.481  35.396   9.155
 6985POPC   GL120653  38.417  35.381   8.855
 6985POPC   GL220654  38.344  35.353   8.855
 6985POPC   C1A20655  38.431  35.330   8.555
 6985POPC   D2A20656  38.428  35.353   8.255
 6985POPC   C3A20657  38.484  35.354   7.955
 6985POPC   C4A20658  38.477  35.320   7.655
 6985POPC   C1B20659  38.191  35.433   8.555
 6985POPC   C2B20660  38.229  35.450   8.255
 6985POPC   C3B20661  38.244  35.446   7.955
 6985POPC   C4B20662  38.178  35.456   7.655
 6986POPC   NC320663   5.853  33.768   9.455
 6986POPC   PO420664   5.893  33.785   9.155
 6986POPC   GL120665   5.838  33.822   8.855
 6986POPC   GL220666   5.806  33.750   8.855
 6986POPC   C1A20667   5.871  33.846   8.555
 6986POPC   D2A20668   5.838  33.797   8.255
 6986POPC   C3A20669   5.909  33.820   7.955
 6986POPC   C4A20670   5.866  33.812   7.655
 6986POPC   C1B20671   5.680  33.618   8.555
 6986POPC   C2B20672   5.691  33.649   8.255
 6986POPC   C3B20673   5.619  33.650   7.955
 6986POPC   C4B20674   5.624  33.624   7.655
 6987POPC   NC320675   8.182  13.588   9.455
 6987POPC   PO420676   8.155  13.630   9.155
 6987POPC   GL120677   8.182  13.661   8.855
 6987POPC   GL220678   8.196  13.490   8.855
 6987POPC   C1A20679   8.206  13.662   8.555
 6987POPC   D2A20680   8.214  13.638   8.255
 6987POPC   C3A20681   8.208  13.652   7.955
 6987POPC   C4A20682   8.219  13.639   7.655
 6987POPC   C1B20683   8.242  13.428   8.555
 6987POPC   C2B20684   8.254  13.404   8.255
 6987POPC   C3B20685   8.265  13.367   7.955
 6987POPC   C4B20686   8.301  13.389   7.655
 6988POPC   NC320687  40.009  39.982   9.455
 6988POPC   PO420688  40.001  39.973   9.155
 6988POPC   GL120689  39.974  40.011   8.855
 6988POPC   GL220690  39.922  39.979   8.855
 6988POPC   C1A20691  39.968  40.002   8.555
 6988POPC   D2A20692  39.982  40.047   8.255
 6988POPC   C3A20693  39.980  40.051   7.955
 6988POPC   C4A20694  40.037  40.022   7.655
 6988POPC   C1B20695  39.742  40.004   8.555
 6988POPC   C2B20696  39.729  40.003   8.255
 6988POPC   C3B20697  39.747  40.017   7.955
 6988POPC   C4B20698  39.805  40.026   7.655
 6989POPC   NC320699   0.479  31.439   9.455
 6989POPC   PO420700   0.400  31.480   9.155
 6989POPC   GL120701   0.476  31.469   8.855
 6989POPC   GL220702   0.402  31.321   8.855
 6989POPC   C1A20703   0.413  31.455   8.555
 6989POPC   D2A20704   0.445  31.458   8.255
 6989POPC   C3A20705   0.488  31.468   7.955
 6989POPC   C4A20706   0.430  31.519   7.655
 6989POPC   C1B20707   0.380  31.188   8.555
 6989POPC   C2B20708   0.396  31.220   8.255
 6989POPC   C3B20709   0.385  31.220   7.955
 6989POPC   C4B20710   0.433  31.221   7.655
 6990POPC   NC320711  17.555  34.544   9.455
 6990POPC   PO420712  17.512  34.609   9.155
 6990POPC   GL120713  17.514  34.626   8.855
 6990POPC   GL220714  17.535  34.693   8.855
 6990POPC   C1A20715  17.504  34.550   8.555
 6990POPC   D2A20716  17.470  34.617   8.255
 6990POPC   C3A20717  17.461  34.588   7.955
 6990POPC   C4A20718  17.517  34.569   7.655
 6990POPC   C1B20719  17.491  34.829   8.555
 6990POPC   C2B20720  17.491  34.821   8.255
 6990POPC   C3B20721  17.421  34.801   7.955
 6990POPC   C4B20722  17.484  34.866   7.655
 6991POPC   NC320723  22.961  43.863   9.455
 6991POPC   PO420724  22.893  43.856   9.155
 6991POPC   GL120725  22.947  43.859   8.855
 6991POPC   GL220726  23.016  43.960   8.855
 6991POPC   C1A20727  22.965  43.889   8.555
 6991POPC   D2A20728  22.896  43.845   8.255
 6991POPC   C3A20729  22.888  43.918   7.955
 6991POPC   C4A20730  22.984  43.843   7.655
 6991POPC   C1B20731  23.199  43.999   8.555
 6991POPC   C2B20732  23.182  44.000   8.255
 6991POPC   C3B20733  23.169  44.009   7.955
 6991POPC   C4B20734  23.217  43.961   7.655
 6992POPC   NC320735  19.089  25.315   9.455
 6992POPC   PO420736  19.071  25.311   9.155
 6992POPC   GL120737  19.107  25.222   8.855
 6992POPC   GL220738  19.222  25.242   8.855
 6992POPC   C1A20739  19.080  25.243   8.555
 6992POPC   D2A20740  19.071  25.291   8.255
 6992POPC   C3A20741  19.009  25.301   7.955
 6992POPC   C4A20742  19.076  25.304   7.655
 6992POPC   C1B20743  19.354  25.274   8.555
 6992POPC   C2B20744  19.257  25.211   8.255
 6992POPC   C3B20745  19.329  25.209   7.955
 6992POPC   C4B20746  19.291  25.215   7.655
 6993POPC   NC320747  34.569  29.172   9.455
 6993POPC   PO420748  34.604  29.117   9.155
 6993POPC   GL120749  34.570  29.138   8.855
 6993POPC   GL220750  34.448  29.116   8.855
 6993POPC   C1A20751  34.538  29.106   8.555
 6993POPC   D2A20752  34.605  29.153   8.255
 6993POPC   C3A20753  34.575  29.188   7.955
 6993POPC   C4A20754  34.587  29.143   7.655
 6993POPC   C1B20755  34.341  29.107   8.555
 6993POPC   C2B20756  34.308  29.095   8.255
 6993POPC   C3B20757  34.316  29.163   7.955
 6993POPC   C4B20758  34.369  29.149   7.655
 6994POPC   NC320759  40.007  28.362   9.455
 6994POPC   PO420760  39.982  28.394   9.155
 6994POPC   GL120761  39.976  28.416   8.855
 6994POPC   GL220762  39.869  28.273   8.855
 6994POPC   C1A20763  39.967  28.349   8.555
 6994POPC   D2A20764  39.961  28.355   8.255
 6994POPC   C3A20765  40.002  28.373   7.955
 6994POPC   C4A20766  40.028  28.372   7.655
 6994POPC   C1B20767  39.757  28.236   8.555
 6994POPC   C2B20768  39.765  28.270   8.255
 6994POPC   C3B20769  39.801  28.295   7.955
 6994POPC   C4B20770  39.810  28.307   7.655
 6995POPC   NC320771  19.880  36.884   9.455
 6995POPC   PO420772  19.803  36.935   9.155
 6995POPC   GL120773  19.839  36.922   8.855
 6995POPC   GL220774  19.860  36.780   8.855
 6995POPC   C1A20775  19.866  36.935   8.555
 6995POPC   D2A20776  19.834  36.920   8.255
 6995POPC   C3A20777  19.879  36.941   7.955
 6995POPC   C4A20778  19.882  36.898   7.655
 6995POPC   C1B20779  19.946  36.629   8.555
 6995POPC   C2B20780  19.931  36.714   8.255
 6995POPC   C3B20781  19.990  36.727   7.955
 6995POPC   C4B20782  19.899  36.719   7.655
 6996POPC   NC320783  40.787   5.118   9.455
 6996POPC   PO420784  40.796   5.133   9.155
 6996POPC   GL120785  40.796   5.098   8.855
 6996POPC   GL220786  40.674   5.184   8.855
 6996POPC   C1A20787  40.787   5.120   8.555
 6996POPC   D2A20788  40.809   5.057   8.255
 6996POPC   C3A20789  40.737   5.097   7.955
 6996POPC   C4A20790  40.738   5.074   7.655
 6996POPC   C1B20791  40.566   5.219   8.555
 6996POPC   C2B20792  40.611   5.300   8.255
 6996POPC   C3B20793  40.549   5.206   7.955
 6996POPC   C4B20794  40.622   5.245   7.655
 6997POPC   NC320795  36.917  29.960   9.455
 6997POPC   PO420796  36.929  29.896   9.155
 6997POPC   GL120797  36.859  29.876   8.855
 6997POPC   GL220798  37.017  29.866   8.855
 6997POPC   C1A20799  36.921  29.883   8.555
 6997POPC   D2A20800  36.919  29.932   8.255
 6997POPC   C3A20801  36.900  29.900   7.955
 6997POPC   C4A20802  36.902  29.918   7.655
 6997POPC   C1B20803  37.145  29.745   8.555
 6997POPC   C2B20804  37.150  29.741   8.255
 6997POPC   C3B20805  37.131  29.792   7.955
 6997POPC   C4B20806  37.142  29.812   7.655
 6998POPC   NC320807   2.805   0.473   9.455
 6998POPC   PO420808   2.802   0.423   9.155
 6998POPC   GL120809   2.720   0.461   8.855
 6998POPC   GL220810   2.716   0.570   8.855
 6998POPC   C1A20811   2.732   0.454   8.555
 6998POPC   D2A20812   2.798   0.461   8.255
 6998POPC   C3A20813   2.765   0.406   7.955
 6998POPC   C4A20814   2.774   0.475   7.655
 6998POPC   C1B20815   2.587   0.587   8.555
 6998POPC   C2B20816   2.656   0.594   8.255
 6998POPC   C3B20817   2.649   0.675   7.955
 6998POPC   C4B20818   2.641   0.651   7.655
 6999POPC   NC320819   3.572  38.448   9.455
 6999POPC   PO420820   3.581  38.481   9.155
 6999POPC   GL120821   3.504  38.425   8.855
 6999POPC   GL220822   3.419  38.453   8.855
 6999POPC   C1A20823   3.582  38.475   8.555
 6999POPC   D2A20824   3.588  38.425   8.255
 6999POPC   C3A20825   3.571  38.419   7.955
 6999POPC   C4A20826   3.495  38.452   7.655
 6999POPC   C1B20827   3.266  38.389   8.555
 6999POPC   C2B20828   3.259  38.444   8.255
 6999POPC   C3B20829   3.287  38.446   7.955
 6999POPC   C4B20830   3.250  38.455   7.655
 7000POPC   NC320831  44.682  22.124   9.455
 7000POPC   PO420832  44.620  22.206   9.155
 7000POPC   GL120833  44.668  22.124   8.855
 7000POPC   GL220834  44.824  22.133   8.855
 7000POPC   C1A20835  44.652  22.195   8.555
 7000POPC   D2A20836  44.709  22.195   8.255
 7000POPC   C3A20837  44.635  22.116   7.955
 7000POPC   C4A20838  44.622  22.144   7.655
 7000POPC   C1B20839  44.932  22.080   8.555
 7000POPC   C2B20840  44.894  22.089   8.255
 7000POPC   C3B20841  44.924  22.111   7.955
 7000POPC   C4B20842  44.884  22.127   7.655
 7001POPC   NC320843  16.712  29.874   9.455
 7001POPC   PO420844  16.770  29.891   9.155
 7001POPC   GL120845  16.714  29.938   8.855
 7001POPC   GL220846  16.750  29.825   8.855
 7001POPC   C1A20847  16.772  29.929   8.555
 7001POPC   D2A20848  16.684  29.944   8.255
 7001POPC   C3A20849  16.773  29.938   7.955
 7001POPC   C4A20850  16.714  29.930   7.655
 7001POPC   C1B20851  16.759  29.705   8.555
 7001POPC   C2B20852  16.813  29.682   8.255
 7001POPC   C3B20853  16.803  29.653   7.955
 7001POPC   C4B20854  16.788  29.676   7.655
 7002POPC   NC320855  44.711  42.299   9.455
 7002POPC   PO420856  44.640  42.294   9.155
 7002POPC   GL120857  44.703  42.293   8.855
 7002POPC   GL220858  44.802  42.305   8.855
 7002POPC   C1A20859  44.617  42.317   8.555
 7002POPC   D2A20860  44.706  42.367   8.255
 7002POPC   C3A20861  44.693  42.306   7.955
 7002POPC   C4A20862  44.653  42.305   7.655
 7002POPC   C1B20863  44.877  42.263   8.555
 7002POPC   C2B20864  44.909  42.255   8.255
 7002POPC   C3B20865  44.874  42.294   7.955
 7002POPC   C4B20866  44.860  42.269   7.655
 7003POPC   NC320867   9.711  16.723   9.455
 7003POPC   PO420868   9.718  16.760   9.155
 7003POPC   GL120869   9.723  16.696   8.855
 7003POPC   GL220870   9.762  16.646   8.855
 7003POPC   C1A20871   9.781  16.755   8.555
 7003POPC   D2A20872   9.755  16.740   8.255
 7003POPC   C3A20873   9.706  16.697   7.955
 7003POPC   C4A20874   9.745  16.696   7.655
 7003POPC   C1B20875   9.724  16.492   8.555
 7003POPC   C2B20876   9.718  16.454   8.255
 7003POPC   C3B20877   9.760  16.491   7.955
 7003POPC   C4B20878   9.757  16.456   7.655
 7004POPC   NC320879  27.577   7.468   9.455
 7004POPC   PO420880  27.605   7.374   9.155
 7004POPC   GL120881  27.586   7.415   8.855
 7004POPC   GL220882  27.542   7.528   8.855
 7004POPC   C1A20883  27.608   7.447   8.555
 7004POPC   D2A20884  27.551   7.459   8.255
 7004POPC   C3A20885  27.608   7.374   7.955
 7004POPC   C4A20886  27.590   7.377   7.655
 7004POPC   C1B20887  27.390   7.561   8.555
 7004POPC   C2B20888  27.443   7.576   8.255
 7004POPC   C3B20889  27.367   7.591   7.955
 7004POPC   C4B20890  27.390   7.580   7.655
 7005POPC   NC320891  43.067  13.651   9.455
 7005POPC   PO420892  43.082  13.643   9.155
 7005POPC   GL120893  43.133  13.663   8.855
 7005POPC   GL220894  43.188  13.778   8.855
 7005POPC   C1A20895  43.143  13.653   8.555
 7005POPC   D2A20896  43.084  13.614   8.255
 7005POPC   C3A20897  43.130  13.632   7.955
 7005POPC   C4A20898  43.116  13.585   7.655
 7005POPC   C1B20899  43.207  13.862   8.555
 7005POPC   C2B20900  43.240  13.882   8.255
 7005POPC   C3B20901  43.179  13.841   7.955
 7005POPC   C4B20902  43.165  13.831   7.655
 7006POPC   NC320903   9.704  32.977   9.455
 7006POPC   PO420904   9.751  33.024   9.155
 7006POPC   GL120905   9.763  32.995   8.855
 7006POPC   GL220906   9.896  33.091   8.855
 7006POPC   C1A20907   9.733  32.999   8.555
 7006POPC   D2A20908   9.755  33.041   8.255
 7006POPC   C3A20909   9.755  32.983   7.955
 7006POPC   C4A20910   9.717  33.050   7.655
 7006POPC   C1B20911  10.002  33.120   8.555
 7006POPC   C2B20912   9.965  33.088   8.255
 7006POPC   C3B20913   9.998  33.101   7.955
 7006POPC   C4B20914  10.003  33.077   7.655
 7007POPC   NC320915   4.270   8.205   9.455
 7007POPC   PO420916   4.298   8.206   9.155
 7007POPC   GL120917   4.348   8.195   8.855
 7007POPC   GL220918   4.208   8.170   8.855
 7007POPC   C1A20919   4.291   8.230   8.555
 7007POPC   D2A20920   4.314   8.162   8.255
 7007POPC   C3A20921   4.283   8.169   7.955
 7007POPC   C4A20922   4.276   8.225   7.655
 7007POPC   C1B20923   4.073   8.098   8.555
 7007POPC   C2B20924   4.059   8.088   8.255
 7007POPC   C3B20925   4.085   8.092   7.955
 7007POPC   C4B20926   4.033   8.157   7.655
 7008POPC   NC320927  22.143  10.480   9.455
 7008POPC   PO420928  22.148  10.556   9.155
 7008POPC   GL120929  22.187  10.505   8.855
 7008POPC   GL220930  22.251  10.552   8.855
 7008POPC   C1A20931  22.142  10.534   8.555
 7008POPC   D2A20932  22.126  10.489   8.255
 7008POPC   C3A20933  22.159  10.496   7.955
 7008POPC   C4A20934  22.152  10.533   7.655
 7008POPC   C1B20935  22.397  10.605   8.555
 7008POPC   C2B20936  22.368  10.662   8.255
 7008POPC   C3B20937  22.434  10.573   7.955
 7008POPC   C4B20938  22.378  10.666   7.655
 7009POPC   NC320939  42.288  25.247   9.455
 7009POPC   PO420940  42.339  25.274   9.155
 7009POPC   GL120941  42.344  25.231   8.855
 7009POPC   GL220942  42.417  25.314   8.855
 7009POPC   C1A20943  42.363  25.282   8.555
 7009POPC   D2A20944  42.331  25.216   8.255
 7009POPC   C3A20945  42.376  25.220   7.955
 7009POPC   C4A20946  42.301  25.238   7.655
 7009POPC   C1B20947  42.547  25.423   8.555
 7009POPC   C2B20948  42.601  25.339   8.255
 7009POPC   C3B20949  42.556  25.347   7.955
 7009POPC   C4B20950  42.602  25.404   7.655
 7010POPC   NC320951  18.258  26.776   9.455
 7010POPC   PO420952  18.259  26.775   9.155
 7010POPC   GL120953  18.247  26.793   8.855
 7010POPC   GL220954  18.343  26.947   8.855
 7010POPC   C1A20955  18.250  26.860   8.555
 7010POPC   D2A20956  18.235  26.798   8.255
 7010POPC   C3A20957  18.328  26.853   7.955
 7010POPC   C4A20958  18.318  26.847   7.655
 7010POPC   C1B20959  18.344  27.020   8.555
 7010POPC   C2B20960  18.306  27.076   8.255
 7010POPC   C3B20961  18.343  27.027   7.955
 7010POPC   C4B20962  18.362  27.047   7.655
 7011POPC   NC320963   5.049  12.847   9.455
 7011POPC   PO420964   5.108  12.901   9.155
 7011POPC   GL120965   5.072  12.866   8.855
 7011POPC   GL220966   5.060  12.773   8.855
 7011POPC   C1A20967   5.081  12.841   8.555
 7011POPC   D2A20968   5.097  12.842   8.255
 7011POPC   C3A20969   5.046  12.890   7.955
 7011POPC   C4A20970   5.114  12.874   7.655
 7011POPC   C1B20971   5.087  12.604   8.555
 7011POPC   C2B20972   5.128  12.590   8.255
 7011POPC   C3B20973   5.106  12.559   7.955
 7011POPC   C4B20974   5.103  12.618   7.655
 7012POPC   NC320975  26.034  44.667   9.455
 7012POPC   PO420976  26.022  44.703   9.155
 7012POPC   GL120977  26.042  44.653   8.855
 7012POPC   GL220978  25.901  44.677   8.855
 7012POPC   C1A20979  26.078  44.698   8.555
 7012POPC   D2A20980  26.053  44.711   8.255
 7012POPC   C3A20981  25.996  44.705   7.955
 7012POPC   C4A20982  26.055  44.628   7.655
 7012POPC   C1B20983  25.774  44.695   8.555
 7012POPC   C2B20984  25.848  44.712   8.255
 7012POPC   C3B20985  25.774  44.720   7.955
 7012POPC   C4B20986  25.749  44.688   7.655
 7013POPC   NC320987  38.455  23.746   9.455
 7013POPC   PO420988  38.499  23.725   9.155
 7013POPC   GL120989  38.408  23.715   8.855
 7013POPC   GL220990  38.393  23.627   8.855
 7013POPC   C1A20991  38.467  23.742   8.555
 7013POPC   D2A20992  38.466  23.675   8.255
 7013POPC   C3A20993  38.433  23.757   7.955
 7013POPC   C4A20994  38.447  23.752   7.655
 7013POPC   C1B20995  38.391  23.452   8.555
 7013POPC   C2B20996  38.336  23.466   8.255
 7013POPC   C3B20997  38.420  23.474   7.955
 7013POPC   C4B20998  38.331  23.491   7.655
 7014POPC   NC320999   7.455  40.807   9.455
 7014POPC   PO421000   7.463  40.817   9.155
 7014POPC   GL121001   7.435  40.795   8.855
 7014POPC   GL221002   7.501  40.786   8.855
 7014POPC   C1A21003   7.454  40.744   8.555
 7014POPC   D2A21004   7.378  40.770   8.255
 7014POPC   C3A21005   7.385  40.780   7.955
 7014POPC   C4A21006   7.441  40.734   7.655
 7014POPC   C1B21007   7.669  40.785   8.555
 7014POPC   C2B21008   7.712  40.815   8.255
 7014POPC   C3B21009   7.707  40.745   7.955
 7014POPC   C4B21010   7.646  40.755   7.655
 7015POPC   NC321011  12.063  40.818   9.455
 7015POPC   PO421012  12.032  40.818   9.155
 7015POPC   GL121013  12.047  40.784   8.855
 7015POPC   GL221014  11.995  40.865   8.855
 7015POPC   C1A21015  12.072  40.790   8.555
 7015POPC   D2A21016  12.048  40.736   8.255
 7015POPC   C3A21017  12.066  40.752   7.955
 7015POPC   C4A21018  12.089  40.789   7.655
 7015POPC   C1B21019  11.979  40.988   8.555
 7015POPC   C2B21020  12.006  40.988   8.255
 7015POPC   C3B21021  11.998  41.032   7.955
 7015POPC   C4B21022  11.996  40.999   7.655
 7016POPC   NC321023  40.761  23.728   9.455
 7016POPC   PO421024  40.787  23.693   9.155
 7016POPC   GL121025  40.776  23.690   8.855
 7016POPC   GL221026  40.773  23.561   8.855
 7016POPC   C1A21027  40.743  23.714   8.555
 7016POPC   D2A21028  40.771  23.724   8.255
 7016POPC   C3A21029  40.809  23.727   7.955
 7016POPC   C4A21030  40.752  23.685   7.655
 7016POPC   C1B21031  40.714  23.467   8.555
 7016POPC   C2B21032  40.737  23.458   8.255
 7016POPC   C3B21033  40.697  23.505   7.955
 7016POPC   C4B21034  40.703  23.527   7.655
 7017POPC   NC321035  16.694  24.523   9.455
 7017POPC   PO421036  16.710  24.495   9.155
 7017POPC   GL121037  16.738  24.532   8.855
 7017POPC   GL221038  16.771  24.577   8.855
 7017POPC   C1A21039  16.761  24.529   8.555
 7017POPC   D2A21040  16.724  24.460   8.255
 7017POPC   C3A21041  16.699  24.456   7.955
 7017POPC   C4A21042  16.709  24.532   7.655
 7017POPC   C1B21043  16.816  24.721   8.555
 7017POPC   C2B21044  16.819  24.686   8.255
 7017POPC   C3B21045  16.890  24.742   7.955
 7017POPC   C4B21046  16.831  24.720   7.655
 7018POPC   NC321047  14.387  22.889   9.455
 7018POPC   PO421048  14.424  22.947   9.155
 7018POPC   GL121049  14.422  22.924   8.855
 7018POPC   GL221050  14.278  22.987   8.855
 7018POPC   C1A21051  14.387  22.940   8.555
 7018POPC   D2A21052  14.391  22.986   8.255
 7018POPC   C3A21053  14.429  22.984   7.955
 7018POPC   C4A21054  14.355  22.894   7.655
 7018POPC   C1B21055  14.152  23.020   8.555
 7018POPC   C2B21056  14.137  23.050   8.255
 7018POPC   C3B21057  14.132  22.975   7.955
 7018POPC   C4B21058  14.190  22.972   7.655
 7019POPC   NC321059  19.067   1.248   9.455
 7019POPC   PO421060  19.017   1.173   9.155
 7019POPC   GL121061  19.014   1.174   8.855
 7019POPC   GL221062  19.109   1.154   8.855
 7019POPC   C1A21063  19.011   1.181   8.555
 7019POPC   D2A21064  19.035   1.220   8.255
 7019POPC   C3A21065  19.010   1.187   7.955
 7019POPC   C4A21066  19.103   1.191   7.655
 7019POPC   C1B21067  19.290   1.018   8.555
 7019POPC   C2B21068  19.274   1.025   8.255
 7019POPC   C3B21069  19.289   1.013   7.955
 7019POPC   C4B21070  19.261   1.066   7.655
 7020POPC   NC321071   9.752  17.535   9.455
 7020POPC   PO421072   9.792  17.467   9.155
 7020POPC   GL121073   9.756  17.556   8.855
 7020POPC   GL221074   9.817  17.569   8.855
 7020POPC   C1A21075   9.726  17.518   8.555
 7020POPC   D2A21076   9.716  17.487   8.255
 7020POPC   C3A21077   9.771  17.482   7.955
 7020POPC   C4A21078   9.710  17.501   7.655
 7020POPC   C1B21079   9.976  17.655   8.555
 7020POPC   C2B21080   9.890  17.628   8.255
 7020POPC   C3B21081   9.912  17.686   7.955
 7020POPC   C4B21082   9.955  17.690   7.655
 7021POPC   NC321083  27.544  38.422   9.455
 7021POPC   PO421084  27.560  38.463   9.155
 7021POPC   GL121085  27.571  38.442   8.855
 7021POPC   GL221086  27.477  38.457   8.855
 7021POPC   C1A21087  27.579  38.502   8.555
 7021POPC   D2A21088  27.613  38.414   8.255
 7021POPC   C3A21089  27.617  38.447   7.955
 7021POPC   C4A21090  27.593  38.445   7.655
 7021POPC   C1B21091  27.330  38.564   8.555
 7021POPC   C2B21092  27.310  38.530   8.255
 7021POPC   C3B21093  27.373  38.582   7.955
 7021POPC   C4B21094  27.324  38.552   7.655
 7022POPC   NC321095  40.766  30.658   9.455
 7022POPC   PO421096  40.770  30.691   9.155
 7022POPC   GL121097  40.792  30.741   8.855
 7022POPC   GL221098  40.730  30.764   8.855
 7022POPC   C1A21099  40.737  30.710   8.555
 7022POPC   D2A21100  40.814  30.722   8.255
 7022POPC   C3A21101  40.771  30.657   7.955
 7022POPC   C4A21102  40.751  30.708   7.655
 7022POPC   C1B21103  40.585  30.890   8.555
 7022POPC   C2B21104  40.606  30.886   8.255
 7022POPC   C3B21105  40.635  30.850   7.955
 7022POPC   C4B21106  40.657  30.919   7.655
 7023POPC   NC321107  20.591  29.887   9.455
 7023POPC   PO421108  20.612  29.886   9.155
 7023POPC   GL121109  20.580  29.964   8.855
 7023POPC   GL221110  20.738  29.793   8.855
 7023POPC   C1A21111  20.591  29.912   8.555
 7023POPC   D2A21112  20.567  29.954   8.255
 7023POPC   C3A21113  20.623  29.933   7.955
 7023POPC   C4A21114  20.660  29.916   7.655
 7023POPC   C1B21115  20.849  29.726   8.555
 7023POPC   C2B21116  20.824  29.760   8.255
 7023POPC   C3B21117  20.808  29.806   7.955
 7023POPC   C4B21118  20.794  29.769   7.655
 7024POPC   NC321119  22.932   4.357   9.455
 7024POPC   PO421120  22.890   4.282   9.155
 7024POPC   GL121121  22.952   4.349   8.855
 7024POPC   GL221122  23.087   4.353   8.855
 7024POPC   C1A21123  22.962   4.306   8.555
 7024POPC   D2A21124  22.962   4.354   8.255
 7024POPC   C3A21125  22.911   4.311   7.955
 7024POPC   C4A21126  22.912   4.341   7.655
 7024POPC   C1B21127  23.201   4.314   8.555
 7024POPC   C2B21128  23.235   4.338   8.255
 7024POPC   C3B21129  23.166   4.310   7.955
 7024POPC   C4B21130  23.237   4.266   7.655
 7025POPC   NC321131  33.022  44.633   9.455
 7025POPC   PO421132  33.039  44.671   9.155
 7025POPC   GL121133  33.063  44.667   8.855
 7025POPC   GL221134  32.965  44.569   8.855
 7025POPC   C1A21135  33.058  44.659   8.555
 7025POPC   D2A21136  33.056  44.695   8.255
 7025POPC   C3A21137  32.976  44.695   7.955
 7025POPC   C4A21138  33.046  44.631   7.655
 7025POPC   C1B21139  32.927  44.478   8.555
 7025POPC   C2B21140  32.907  44.443   8.255
 7025POPC   C3B21141  32.897  44.451   7.955
 7025POPC   C4B21142  32.874  44.392   7.655
 7026POPC   NC321143  42.322  21.404   9.455
 7026POPC   PO421144  42.348  21.388   9.155
 7026POPC   GL121145  42.349  21.410   8.855
 7026POPC   GL221146  42.487  21.351   8.855
 7026POPC   C1A21147  42.293  21.417   8.555
 7026POPC   D2A21148  42.365  21.431   8.255
 7026POPC   C3A21149  42.373  21.398   7.955
 7026POPC   C4A21150  42.344  21.389   7.655
 7026POPC   C1B21151  42.541  21.218   8.555
 7026POPC   C2B21152  42.578  21.273   8.255
 7026POPC   C3B21153  42.574  21.264   7.955
 7026POPC   C4B21154  42.508  21.283   7.655
 7027POPC   NC321155  20.626   5.827   9.455
 7027POPC   PO421156  20.628   5.901   9.155
 7027POPC   GL121157  20.599   5.859   8.855
 7027POPC   GL221158  20.492   5.922   8.855
 7027POPC   C1A21159  20.585   5.905   8.555
 7027POPC   D2A21160  20.563   5.825   8.255
 7027POPC   C3A21161  20.567   5.838   7.955
 7027POPC   C4A21162  20.574   5.884   7.655
 7027POPC   C1B21163  20.394   6.063   8.555
 7027POPC   C2B21164  20.414   6.061   8.255
 7027POPC   C3B21165  20.462   5.986   7.955
 7027POPC   C4B21166  20.403   6.005   7.655
 7028POPC   NC321167   9.017  36.883   9.455
 7028POPC   PO421168   9.001  36.893   9.155
 7028POPC   GL121169   8.948  36.914   8.855
 7028POPC   GL221170   9.102  36.922   8.855
 7028POPC   C1A21171   8.930  36.863   8.555
 7028POPC   D2A21172   9.002  36.875   8.255
 7028POPC   C3A21173   9.009  36.938   7.955
 7028POPC   C4A21174   8.934  36.906   7.655
 7028POPC   C1B21175   9.140  36.997   8.555
 7028POPC   C2B21176   9.149  37.076   8.255
 7028POPC   C3B21177   9.139  37.002   7.955
 7028POPC   C4B21178   9.192  37.083   7.655
 7029POPC   NC321179   6.610  19.865   9.455
 7029POPC   PO421180   6.653  19.787   9.155
 7029POPC   GL121181   6.664  19.849   8.855
 7029POPC   GL221182   6.540  19.830   8.855
 7029POPC   C1A21183   6.631  19.853   8.555
 7029POPC   D2A21184   6.623  19.827   8.255
 7029POPC   C3A21185   6.645  19.796   7.955
 7029POPC   C4A21186   6.637  19.844   7.655
 7029POPC   C1B21187   6.372  19.819   8.555
 7029POPC   C2B21188   6.362  19.815   8.255
 7029POPC   C3B21189   6.416  19.837   7.955
 7029POPC   C4B21190   6.400  19.819   7.655
 7030POPC   NC321191   5.838  15.999   9.455
 7030POPC   PO421192   5.886  15.950   9.155
 7030POPC   GL121193   5.871  15.935   8.855
 7030POPC   GL221194   5.907  16.028   8.855
 7030POPC   C1A21195   5.898  15.981   8.555
 7030POPC   D2A21196   5.850  15.980   8.255
 7030POPC   C3A21197   5.886  15.933   7.955
 7030POPC   C4A21198   5.882  15.961   7.655
 7030POPC   C1B21199   6.057  16.149   8.555
 7030POPC   C2B21200   5.977  16.184   8.255
 7030POPC   C3B21201   6.015  16.124   7.955
 7030POPC   C4B21202   6.037  16.158   7.655
 7031POPC   NC321203  40.777  36.946   9.455
 7031POPC   PO421204  40.745  36.908   9.155
 7031POPC   GL121205  40.812  36.910   8.855
 7031POPC   GL221206  40.865  36.829   8.855
 7031POPC   C1A21207  40.795  36.894   8.555
 7031POPC   D2A21208  40.809  36.913   8.255
 7031POPC   C3A21209  40.791  36.904   7.955
 7031POPC   C4A21210  40.769  36.861   7.655
 7031POPC   C1B21211  40.950  36.709   8.555
 7031POPC   C2B21212  40.982  36.734   8.255
 7031POPC   C3B21213  40.966  36.736   7.955
 7031POPC   C4B21214  40.921  36.750   7.655
 7032POPC   NC321215  37.680  11.331   9.455
 7032POPC   PO421216  37.708  11.276   9.155
 7032POPC   GL121217  37.718  11.314   8.855
 7032POPC   GL221218  37.617  11.231   8.855
 7032POPC   C1A21219  37.667  11.322   8.555
 7032POPC   D2A21220  37.692  11.273   8.255
 7032POPC   C3A21221  37.661  11.251   7.955
 7032POPC   C4A21222  37.686  11.340   7.655
 7032POPC   C1B21223  37.457  11.175   8.555
 7032POPC   C2B21224  37.480  11.168   8.255
 7032POPC   C3B21225  37.451  11.118   7.955
 7032POPC   C4B21226  37.490  11.161   7.655
 7033POPC   NC321227   4.322  22.212   9.455
 7033POPC   PO421228   4.288  22.184   9.155
 7033POPC   GL121229   4.312  22.129   8.855
 7033POPC   GL221230   4.203  22.107   8.855
 7033POPC   C1A21231   4.335  22.152   8.555
 7033POPC   D2A21232   4.269  22.174   8.255
 7033POPC   C3A21233   4.273  22.132   7.955
 7033POPC   C4A21234   4.342  22.198   7.655
 7033POPC   C1B21235   4.172  21.996   8.555
 7033POPC   C2B21236   4.172  21.999   8.255
 7033POPC   C3B21237   4.145  22.034   7.955
 7033POPC   C4B21238   4.165  22.003   7.655
 7034POPC   NC321239  25.312  43.849   9.455
 7034POPC   PO421240  25.246  43.872   9.155
 7034POPC   GL121241  25.226  43.919   8.855
 7034POPC   GL221242  25.182  43.800   8.855
 7034POPC   C1A21243  25.264  43.931   8.555
 7034POPC   D2A21244  25.242  43.928   8.255
 7034POPC   C3A21245  25.231  43.914   7.955
 7034POPC   C4A21246  25.285  43.856   7.655
 7034POPC   C1B21247  25.143  43.712   8.555
 7034POPC   C2B21248  25.157  43.718   8.255
 7034POPC   C3B21249  25.087  43.635   7.955
 7034POPC   C4B21250  25.118  43.647   7.655
 7035POPC   NC321251  23.701   1.212   9.455
 7035POPC   PO421252  23.699   1.240   9.155
 7035POPC   GL121253  23.735   1.227   8.855
 7035POPC   GL221254  23.624   1.133   8.855
 7035POPC   C1A21255  23.757   1.175   8.555
 7035POPC   D2A21256  23.762   1.247   8.255
 7035POPC   C3A21257  23.703   1.199   7.955
 7035POPC   C4A21258  23.687   1.239   7.655
 7035POPC   C1B21259  23.651   1.011   8.555
 7035POPC   C2B21260  23.622   1.023   8.255
 7035POPC   C3B21261  23.663   0.948   7.955
 7035POPC   C4B21262  23.661   0.999   7.655
 7036POPC   NC321263  19.030  29.966   9.455
 7036POPC   PO421264  19.079  29.967   9.155
 7036POPC   GL121265  19.107  29.886   8.855
 7036POPC   GL221266  19.083  29.823   8.855
 7036POPC   C1A21267  19.047  29.956   8.555
 7036POPC   D2A21268  19.014  29.871   8.255
 7036POPC   C3A21269  19.039  29.960   7.955
 7036POPC   C4A21270  19.103  29.959   7.655
 7036POPC   C1B21271  19.193  29.707   8.555
 7036POPC   C2B21272  19.156  29.704   8.255
 7036POPC   C3B21273  19.138  29.678   7.955
 7036POPC   C4B21274  19.143  29.655   7.655
 7037POPC   NC321275  39.971   9.776   9.455
 7037POPC   PO421276  40.041   9.788   9.155
 7037POPC   GL121277  40.008   9.709   8.855
 7037POPC   GL221278  40.130   9.817   8.855
 7037POPC   C1A21279  39.964   9.713   8.555
 7037POPC   D2A21280  40.054   9.700   8.255
 7037POPC   C3A21281  40.017   9.746   7.955
 7037POPC   C4A21282  40.023   9.788   7.655
 7037POPC   C1B21283  40.200   9.972   8.555
 7037POPC   C2B21284  40.131   9.890   8.255
 7037POPC   C3B21285  40.144   9.940   7.955
 7037POPC   C4B21286  40.186   9.913   7.655
 7038POPC   NC321287  39.236   5.898   9.455
 7038POPC   PO421288  39.281   5.908   9.155
 7038POPC   GL121289  39.271   5.909   8.855
 7038POPC   GL221290  39.272   5.831   8.855
 7038POPC   C1A21291  39.209   5.884   8.555
 7038POPC   D2A21292  39.215   5.855   8.255
 7038POPC   C3A21293  39.222   5.827   7.955
 7038POPC   C4A21294  39.203   5.908   7.655
 7038POPC   C1B21295  39.427   5.735   8.555
 7038POPC   C2B21296  39.403   5.700   8.255
 7038POPC   C3B21297  39.409   5.707   7.955
 7038POPC   C4B21298  39.441   5.674   7.655
 7039POPC   NC321299   2.730  19.875   9.455
 7039POPC   PO421300   2.750  19.813   9.155
 7039POPC   GL121301   2.771  19.852   8.855
 7039POPC   GL221302   2.870  19.812   8.855
 7039POPC   C1A21303   2.765  19.827   8.555
 7039POPC   D2A21304   2.797  19.785   8.255
 7039POPC   C3A21305   2.737  19.825   7.955
 7039POPC   C4A21306   2.729  19.865   7.655
 7039POPC   C1B21307   2.960  19.820   8.555
 7039POPC   C2B21308   2.989  19.754   8.255
 7039POPC   C3B21309   2.964  19.780   7.955
 7039POPC   C4B21310   3.043  19.787   7.655
 7040POPC   NC321311  35.376   5.826   9.455
 7040POPC   PO421312  35.319   5.897   9.155
 7040POPC   GL121313  35.310   5.824   8.855
 7040POPC   GL221314  35.262   5.951   8.855
 7040POPC   C1A21315  35.387   5.821   8.555
 7040POPC   D2A21316  35.377   5.872   8.255
 7040POPC   C3A21317  35.364   5.820   7.955
 7040POPC   C4A21318  35.390   5.896   7.655
 7040POPC   C1B21319  35.120   5.960   8.555
 7040POPC   C2B21320  35.139   6.030   8.255
 7040POPC   C3B21321  35.119   6.041   7.955
 7040POPC   C4B21322  35.163   6.021   7.655
 7041POPC   NC321323  42.382  27.624   9.455
 7041POPC   PO421324  42.298  27.616   9.155
 7041POPC   GL121325  42.376  27.639   8.855
 7041POPC   GL221326  42.264  27.680   8.855
 7041POPC   C1A21327  42.339  27.621   8.555
 7041POPC   D2A21328  42.338  27.558   8.255
 7041POPC   C3A21329  42.337  27.566   7.955
 7041POPC   C4A21330  42.288  27.566   7.655
 7041POPC   C1B21331  42.267  27.849   8.555
 7041POPC   C2B21332  42.238  27.832   8.255
 7041POPC   C3B21333  42.227  27.818   7.955
 7041POPC   C4B21334  42.262  27.804   7.655
 7042POPC   NC321335  22.113  27.625   9.455
 7042POPC   PO421336  22.174  27.551   9.155
 7042POPC   GL121337  22.123  27.543   8.855
 7042POPC   GL221338  22.209  27.733   8.855
 7042POPC   C1A21339  22.122  27.639   8.555
 7042POPC   D2A21340  22.144  27.636   8.255
 7042POPC   C3A21341  22.118  27.633   7.955
 7042POPC   C4A21342  22.189  27.626   7.655
 7042POPC   C1B21343  22.218  27.798   8.555
 7042POPC   C2B21344  22.199  27.815   8.255
 7042POPC   C3B21345  22.260  27.846   7.955
 7042POPC   C4B21346  22.215  27.796   7.655
 7043POPC   NC321347  28.370  43.918   9.455
 7043POPC   PO421348  28.350  43.868   9.155
 7043POPC   GL121349  28.400  43.888   8.855
 7043POPC   GL221350  28.517  43.852   8.855
 7043POPC   C1A21351  28.379  43.935   8.555
 7043POPC   D2A21352  28.380  43.871   8.255
 7043POPC   C3A21353  28.365  43.895   7.955
 7043POPC   C4A21354  28.407  43.892   7.655
 7043POPC   C1B21355  28.600  43.743   8.555
 7043POPC   C2B21356  28.635  43.752   8.255
 7043POPC   C3B21357  28.626  43.718   7.955
 7043POPC   C4B21358  28.631  43.738   7.655
 7044POPC   NC321359  10.495   8.173   9.455
 7044POPC   PO421360  10.522   8.196   9.155
 7044POPC   GL121361  10.481   8.191   8.855
 7044POPC   GL221362  10.394   8.141   8.855
 7044POPC   C1A21363  10.548   8.193   8.555
 7044POPC   D2A21364  10.511   8.216   8.255
 7044POPC   C3A21365  10.497   8.238   7.955
 7044POPC   C4A21366  10.511   8.153   7.655
 7044POPC   C1B21367  10.277   8.083   8.555
 7044POPC   C2B21368  10.354   8.098   8.255
 7044POPC   C3B21369  10.284   8.102   7.955
 7044POPC   C4B21370  10.274   8.093   7.655
 7045POPC   NC321371   2.780  31.456   9.455
 7045POPC   PO421372   2.773  31.437   9.155
 7045POPC   GL121373   2.754  31.456   8.855
 7045POPC   GL221374   2.843  31.593   8.855
 7045POPC   C1A21375   2.753  31.447   8.555
 7045POPC   D2A21376   2.790  31.452   8.255
 7045POPC   C3A21377   2.792  31.485   7.955
 7045POPC   C4A21378   2.770  31.458   7.655
 7045POPC   C1B21379   2.943  31.684   8.555
 7045POPC   C2B21380   2.892  31.692   8.255
 7045POPC   C3B21381   2.862  31.726   7.955
 7045POPC   C4B21382   2.940  31.662   7.655
 7046POPC   NC321383   6.652  42.317   9.455
 7046POPC   PO421384   6.639  42.309   9.155
 7046POPC   GL121385   6.691  42.311   8.855
 7046POPC   GL221386   6.502  42.324   8.855
 7046POPC   C1A21387   6.605  42.367   8.555
 7046POPC   D2A21388   6.679  42.313   8.255
 7046POPC   C3A21389   6.642  42.358   7.955
 7046POPC   C4A21390   6.626  42.379   7.655
 7046POPC   C1B21391   6.442  42.271   8.555
 7046POPC   C2B21392   6.395  42.274   8.255
 7046POPC   C3B21393   6.364  42.278   7.955
 7046POPC   C4B21394   6.413  42.291   7.655
 7047POPC   NC321395   3.585   1.963   9.455
 7047POPC   PO421396   3.576   1.954   9.155
 7047POPC   GL121397   3.509   1.955   8.855
 7047POPC   GL221398   3.418   2.013   8.855
 7047POPC   C1A21399   3.571   1.956   8.555
 7047POPC   D2A21400   3.509   2.028   8.255
 7047POPC   C3A21401   3.507   1.948   7.955
 7047POPC   C4A21402   3.578   2.031   7.655
 7047POPC   C1B21403   3.254   1.973   8.555
 7047POPC   C2B21404   3.301   1.918   8.255
 7047POPC   C3B21405   3.248   1.946   7.955
 7047POPC   C4B21406   3.289   1.902   7.655
 7048POPC   NC321407  14.386  30.691   9.455
 7048POPC   PO421408  14.423  30.682   9.155
 7048POPC   GL121409  14.403  30.679   8.855
 7048POPC   GL221410  14.336  30.779   8.855
 7048POPC   C1A21411  14.376  30.656   8.555
 7048POPC   D2A21412  14.439  30.682   8.255
 7048POPC   C3A21413  14.453  30.725   7.955
 7048POPC   C4A21414  14.420  30.680   7.655
 7048POPC   C1B21415  14.174  30.816   8.555
 7048POPC   C2B21416  14.174  30.846   8.255
 7048POPC   C3B21417  14.232  30.900   7.955
 7048POPC   C4B21418  14.186  30.818   7.655
 7049POPC   NC321419   6.626  34.579   9.455
 7049POPC   PO421420   6.641  34.586   9.155
 7049POPC   GL121421   6.648  34.559   8.855
 7049POPC   GL221422   6.662  34.435   8.855
 7049POPC   C1A21423   6.662  34.604   8.555
 7049POPC   D2A21424   6.687  34.626   8.255
 7049POPC   C3A21425   6.604  34.540   7.955
 7049POPC   C4A21426   6.686  34.608   7.655
 7049POPC   C1B21427   6.711  34.376   8.555
 7049POPC   C2B21428   6.713  34.286   8.255
 7049POPC   C3B21429   6.682  34.310   7.955
 7049POPC   C4B21430   6.733  34.342   7.655
 7050POPC   NC321431  38.414  27.564   9.455
 7050POPC   PO421432  38.450  27.561   9.155
 7050POPC   GL121433  38.489  27.587   8.855
 7050POPC   GL221434  38.572  27.660   8.855
 7050POPC   C1A21435  38.500  27.607   8.555
 7050POPC   D2A21436  38.494  27.617   8.255
 7050POPC   C3A21437  38.408  27.633   7.955
 7050POPC   C4A21438  38.482  27.640   7.655
 7050POPC   C1B21439  38.617  27.759   8.555
 7050POPC   C2B21440  38.559  27.754   8.255
 7050POPC   C3B21441  38.622  27.836   7.955
 7050POPC   C4B21442  38.611  27.848   7.655
 7051POPC   NC321443  27.545  30.651   9.455
 7051POPC   PO421444  27.616  30.684   9.155
 7051POPC   GL121445  27.608  30.745   8.855
 7051POPC   GL221446  27.632  30.841   8.855
 7051POPC   C1A21447  27.547  30.678   8.555
 7051POPC   D2A21448  27.595  30.657   8.255
 7051POPC   C3A21449  27.611  30.667   7.955
 7051POPC   C4A21450  27.605  30.699   7.655
 7051POPC   C1B21451  27.685  30.894   8.555
 7051POPC   C2B21452  27.726  30.931   8.255
 7051POPC   C3B21453  27.762  30.889   7.955
 7051POPC   C4B21454  27.752  30.902   7.655
 7052POPC   NC321455   9.761  19.047   9.455
 7052POPC   PO421456   9.750  19.062   9.155
 7052POPC   GL121457   9.764  19.049   8.855
 7052POPC   GL221458   9.842  19.173   8.855
 7052POPC   C1A21459   9.736  19.031   8.555
 7052POPC   D2A21460   9.739  19.084   8.255
 7052POPC   C3A21461   9.794  19.104   7.955
 7052POPC   C4A21462   9.780  19.018   7.655
 7052POPC   C1B21463   9.954  19.215   8.555
 7052POPC   C2B21464   9.933  19.278   8.255
 7052POPC   C3B21465   9.900  19.199   7.955
 7052POPC   C4B21466   9.915  19.224   7.655
 7053POPC   NC321467  35.373   7.455   9.455
 7053POPC   PO421468  35.372   7.410   9.155
 7053POPC   GL121469  35.372   7.385   8.855
 7053POPC   GL221470  35.217   7.453   8.855
 7053POPC   C1A21471  35.369   7.394   8.555
 7053POPC   D2A21472  35.320   7.419   8.255
 7053POPC   C3A21473  35.313   7.405   7.955
 7053POPC   C4A21474  35.391   7.396   7.655
 7053POPC   C1B21475  35.151   7.452   8.555
 7053POPC   C2B21476  35.122   7.434   8.255
 7053POPC   C3B21477  35.063   7.462   7.955
 7053POPC   C4B21478  35.059   7.443   7.655
 7054POPC   NC321479  42.307  26.019   9.455
 7054POPC   PO421480  42.304  26.082   9.155
 7054POPC   GL121481  42.323  26.086   8.855
 7054POPC   GL221482  42.459  26.154   8.855
 7054POPC   C1A21483  42.294  26.051   8.555
 7054POPC   D2A21484  42.354  26.061   8.255
 7054POPC   C3A21485  42.358  26.024   7.955
 7054POPC   C4A21486  42.368  26.068   7.655
 7054POPC   C1B21487  42.569  26.223   8.555
 7054POPC   C2B21488  42.501  26.180   8.255
 7054POPC   C3B21489  42.550  26.170   7.955
 7054POPC   C4B21490  42.511  26.243   7.655
 7055POPC   NC321491  40.761  29.881   9.455
 7055POPC   PO421492  40.753  29.945   9.155
 7055POPC   GL121493  40.773  29.921   8.855
 7055POPC   GL221494  40.693  29.857   8.855
 7055POPC   C1A21495  40.791  29.907   8.555
 7055POPC   D2A21496  40.785  29.931   8.255
 7055POPC   C3A21497  40.745  29.930   7.955
 7055POPC   C4A21498  40.736  29.971   7.655
 7055POPC   C1B21499  40.596  29.751   8.555
 7055POPC   C2B21500  40.654  29.758   8.255
 7055POPC   C3B21501  40.652  29.711   7.955
 7055POPC   C4B21502  40.607  29.676   7.655
 7056POPC   NC321503  18.286  11.254   9.455
 7056POPC   PO421504  18.309  11.309   9.155
 7056POPC   GL121505  18.329  11.336   8.855
 7056POPC   GL221506  18.141  11.334   8.855
 7056POPC   C1A21507  18.254  11.333   8.555
 7056POPC   D2A21508  18.327  11.293   8.255
 7056POPC   C3A21509  18.314  11.329   7.955
 7056POPC   C4A21510  18.249  11.299   7.655
 7056POPC   C1B21511  18.109  11.459   8.555
 7056POPC   C2B21512  18.083  11.473   8.255
 7056POPC   C3B21513  18.048  11.450   7.955
 7056POPC   C4B21514  18.084  11.422   7.655
 7057POPC   NC321515  22.188  12.062   9.455
 7057POPC   PO421516  22.138  12.076   9.155
 7057POPC   GL121517  22.117  12.070   8.855
 7057POPC   GL221518  22.235  12.115   8.855
 7057POPC   C1A21519  22.143  12.031   8.555
 7057POPC   D2A21520  22.132  12.112   8.255
 7057POPC   C3A21521  22.161  12.032   7.955
 7057POPC   C4A21522  22.199  12.067   7.655
 7057POPC   C1B21523  22.343  12.187   8.555
 7057POPC   C2B21524  22.336  12.261   8.255
 7057POPC   C3B21525  22.403  12.200   7.955
 7057POPC   C4B21526  22.391  12.251   7.655
 7058POPC   NC321527   5.888   7.400   9.455
 7058POPC   PO421528   5.862   7.460   9.155
 7058POPC   GL121529   5.905   7.439   8.855
 7058POPC   GL221530   5.738   7.416   8.855
 7058POPC   C1A21531   5.844   7.392   8.555
 7058POPC   D2A21532   5.891   7.388   8.255
 7058POPC   C3A21533   5.847   7.441   7.955
 7058POPC   C4A21534   5.897   7.391   7.655
 7058POPC   C1B21535   5.655   7.416   8.555
 7058POPC   C2B21536   5.652   7.372   8.255
 7058POPC   C3B21537   5.616   7.398   7.955
 7058POPC   C4B21538   5.605   7.423   7.655
 7059POPC   NC321539  43.867  10.560   9.455
 7059POPC   PO421540  43.894  10.569   9.155
 7059POPC   GL121541  43.936  10.498   8.855
 7059POPC   GL221542  44.005  10.508   8.855
 7059POPC   C1A21543  43.912  10.558   8.555
 7059POPC   D2A21544  43.904  10.523   8.255
 7059POPC   C3A21545  43.854  10.548   7.955
 7059POPC   C4A21546  43.926  10.481   7.655
 7059POPC   C1B21547  44.171  10.516   8.555
 7059POPC   C2B21548  44.148  10.477   8.255
 7059POPC   C3B21549  44.150  10.483   7.955
 7059POPC   C4B21550  44.180  10.429   7.655
 7060POPC   NC321551   5.132   2.768   9.455
 7060POPC   PO421552   5.139   2.761   9.155
 7060POPC   GL121553   5.101   2.768   8.855
 7060POPC   GL221554   4.937   2.807   8.855
 7060POPC   C1A21555   5.122   2.787   8.555
 7060POPC   D2A21556   5.048   2.747   8.255
 7060POPC   C3A21557   5.065   2.777   7.955
 7060POPC   C4A21558   5.082   2.772   7.655
 7060POPC   C1B21559   4.854   2.762   8.555
 7060POPC   C2B21560   4.816   2.833   8.255
 7060POPC   C3B21561   4.865   2.843   7.955
 7060POPC   C4B21562   4.811   2.841   7.655
 7061POPC   NC321563  36.078  19.095   9.455
 7061POPC   PO421564  36.088  19.093   9.155
 7061POPC   GL121565  36.110  19.042   8.855
 7061POPC   GL221566  36.015  19.076   8.855
 7061POPC   C1A21567  36.109  19.088   8.555
 7061POPC   D2A21568  36.084  19.077   8.255
 7061POPC   C3A21569  36.084  19.043   7.955
 7061POPC   C4A21570  36.114  19.105   7.655
 7061POPC   C1B21571  35.884  19.133   8.555
 7061POPC   C2B21572  35.859  19.185   8.255
 7061POPC   C3B21573  35.893  19.188   7.955
 7061POPC   C4B21574  35.880  19.120   7.655
 7062POPC   NC321575   2.734   9.731   9.455
 7062POPC   PO421576   2.764   9.736   9.155
 7062POPC   GL121577   2.782   9.769   8.855
 7062POPC   GL221578   2.845   9.867   8.855
 7062POPC   C1A21579   2.734   9.787   8.555
 7062POPC   D2A21580   2.760   9.745   8.255
 7062POPC   C3A21581   2.807   9.763   7.955
 7062POPC   C4A21582   2.794   9.699   7.655
 7062POPC   C1B21583   2.914   9.923   8.555
 7062POPC   C2B21584   2.980   9.928   8.255
 7062POPC   C3B21585   2.908   9.946   7.955
 7062POPC   C4B21586   2.929   9.876   7.655
 7063POPC   NC321587  36.149   7.466   9.455
 7063POPC   PO421588  36.121   7.375   9.155
 7063POPC   GL121589  36.112   7.391   8.855
 7063POPC   GL221590  36.250   7.429   8.855
 7063POPC   C1A21591  36.126   7.389   8.555
 7063POPC   D2A21592  36.160   7.431   8.255
 7063POPC   C3A21593  36.088   7.375   7.955
 7063POPC   C4A21594  36.156   7.395   7.655
 7063POPC   C1B21595  36.352   7.438   8.555
 7063POPC   C2B21596  36.344   7.478   8.255
 7063POPC   C3B21597  36.379   7.479   7.955
 7063POPC   C4B21598  36.392   7.464   7.655
 7064POPC   NC321599  18.238  33.074   9.455
 7064POPC   PO421600  18.255  33.061   9.155
 7064POPC   GL121601  18.263  33.039   8.855
 7064POPC   GL221602  18.201  32.946   8.855
 7064POPC   C1A21603  18.249  33.049   8.555
 7064POPC   D2A21604  18.309  33.028   8.255
 7064POPC   C3A21605  18.257  33.002   7.955
 7064POPC   C4A21606  18.235  33.027   7.655
 7064POPC   C1B21607  18.215  32.785   8.555
 7064POPC   C2B21608  18.222  32.822   8.255
 7064POPC   C3B21609  18.166  32.785   7.955
 7064POPC   C4B21610  18.167  32.832   7.655
 7065POPC   NC321611  41.515  29.128   9.455
 7065POPC   PO421612  41.604  29.134   9.155
 7065POPC   GL121613  41.570  29.116   8.855
 7065POPC   GL221614  41.637  29.172   8.855
 7065POPC   C1A21615  41.514  29.125   8.555
 7065POPC   D2A21616  41.596  29.172   8.255
 7065POPC   C3A21617  41.603  29.155   7.955
 7065POPC   C4A21618  41.602  29.098   7.655
 7065POPC   C1B21619  41.817  29.201   8.555
 7065POPC   C2B21620  41.767  29.260   8.255
 7065POPC   C3B21621  41.799  29.256   7.955
 7065POPC   C4B21622  41.787  29.221   7.655
 7066POPC   NC321623  12.832  26.006   9.455
 7066POPC   PO421624  12.862  26.000   9.155
 7066POPC   GL121625  12.883  26.046   8.855
 7066POPC   GL221626  12.859  26.193   8.855
 7066POPC   C1A21627  12.829  26.044   8.555
 7066POPC   D2A21628  12.814  26.024   8.255
 7066POPC   C3A21629  12.877  26.079   7.955
 7066POPC   C4A21630  12.848  26.049   7.655
 7066POPC   C1B21631  12.921  26.318   8.555
 7066POPC   C2B21632  12.951  26.302   8.255
 7066POPC   C3B21633  12.963  26.308   7.955
 7066POPC   C4B21634  12.889  26.246   7.655
 7067POPC   NC321635  26.055   9.729   9.455
 7067POPC   PO421636  25.999   9.719   9.155
 7067POPC   GL121637  26.007   9.751   8.855
 7067POPC   GL221638  26.172   9.705   8.855
 7067POPC   C1A21639  26.033   9.782   8.555
 7067POPC   D2A21640  26.070   9.707   8.255
 7067POPC   C3A21641  26.058   9.753   7.955
 7067POPC   C4A21642  26.020   9.749   7.655
 7067POPC   C1B21643  26.180   9.624   8.555
 7067POPC   C2B21644  26.217   9.565   8.255
 7067POPC   C3B21645  26.223   9.621   7.955
 7067POPC   C4B21646  26.250   9.538   7.655
 7068POPC   NC321647   2.782  20.634   9.455
 7068POPC   PO421648   2.812  20.660   9.155
 7068POPC   GL121649   2.742  20.629   8.855
 7068POPC   GL221650   2.828  20.766   8.855
 7068POPC   C1A21651   2.756  20.620   8.555
 7068POPC   D2A21652   2.740  20.638   8.255
 7068POPC   C3A21653   2.745  20.635   7.955
 7068POPC   C4A21654   2.776  20.601   7.655
 7068POPC   C1B21655   2.854  20.822   8.555
 7068POPC   C2B21656   2.828  20.889   8.255
 7068POPC   C3B21657   2.778  20.882   7.955
 7068POPC   C4B21658   2.783  20.891   7.655
 7069POPC   NC321659  36.082   8.225   9.455
 7069POPC   PO421660  36.176   8.219   9.155
 7069POPC   GL121661  36.114   8.229   8.855
 7069POPC   GL221662  36.104   8.028   8.855
 7069POPC   C1A21663  36.155   8.237   8.555
 7069POPC   D2A21664  36.150   8.147   8.255
 7069POPC   C3A21665  36.080   8.181   7.955
 7069POPC   C4A21666  36.167   8.247   7.655
 7069POPC   C1B21667  36.155   7.930   8.555
 7069POPC   C2B21668  36.137   7.944   8.255
 7069POPC   C3B21669  36.129   7.978   7.955
 7069POPC   C4B21670  36.175   7.940   7.655
 7070POPC   NC321671  33.808   6.638   9.455
 7070POPC   PO421672  33.812   6.616   9.155
 7070POPC   GL121673  33.784   6.624   8.855
 7070POPC   GL221674  33.888   6.609   8.855
 7070POPC   C1A21675  33.791   6.607   8.555
 7070POPC   D2A21676  33.751   6.682   8.255
 7070POPC   C3A21677  33.829   6.610   7.955
 7070POPC   C4A21678  33.784   6.685   7.655
 7070POPC   C1B21679  34.044   6.555   8.555
 7070POPC   C2B21680  34.041   6.554   8.255
 7070POPC   C3B21681  34.003   6.496   7.955
 7070POPC   C4B21682  34.047   6.514   7.655
 7071POPC   NC321683  18.276   5.086   9.455
 7071POPC   PO421684  18.322   5.046   9.155
 7071POPC   GL121685  18.237   5.114   8.855
 7071POPC   GL221686  18.303   5.174   8.855
 7071POPC   C1A21687  18.248   5.143   8.555
 7071POPC   D2A21688  18.314   5.046   8.255
 7071POPC   C3A21689  18.303   5.072   7.955
 7071POPC   C4A21690  18.295   5.114   7.655
 7071POPC   C1B21691  18.362   5.360   8.555
 7071POPC   C2B21692  18.352   5.334   8.255
 7071POPC   C3B21693  18.348   5.360   7.955
 7071POPC   C4B21694  18.360   5.323   7.655
 7072POPC   NC321695  16.715  36.877   9.455
 7072POPC   PO421696  16.766  36.858   9.155
 7072POPC   GL121697  16.753  36.919   8.855
 7072POPC   GL221698  16.890  36.978   8.855
 7072POPC   C1A21699  16.729  36.932   8.555
 7072POPC   D2A21700  16.687  36.928   8.255
 7072POPC   C3A21701  16.693  36.859   7.955
 7072POPC   C4A21702  16.760  36.938   7.655
 7072POPC   C1B21703  16.965  37.038   8.555
 7072POPC   C2B21704  16.908  37.056   8.255
 7072POPC   C3B21705  16.983  37.006   7.955
 7072POPC   C4B21706  16.965  37.034   7.655
 7073POPC   NC321707  44.624  19.851   9.455
 7073POPC   PO421708  44.711  19.856   9.155
 7073POPC   GL121709  44.650  19.860   8.855
 7073POPC   GL221710  44.643  19.993   8.855
 7073POPC   C1A21711  44.679  19.842   8.555
 7073POPC   D2A21712  44.641  19.789   8.255
 7073POPC   C3A21713  44.709  19.874   7.955
 7073POPC   C4A21714  44.703  19.884   7.655
 7073POPC   C1B21715  44.704  20.100   8.555
 7073POPC   C2B21716  44.706  20.084   8.255
 7073POPC   C3B21717  44.695  20.104   7.955
 7073POPC   C4B21718  44.665  20.110   7.655
 7074POPC   NC321719  12.054  22.179   9.455
 7074POPC   PO421720  12.052  22.113   9.155
 7074POPC   GL121721  12.081  22.149   8.855
 7074POPC   GL221722  12.001  22.052   8.855
 7074POPC   C1A21723  12.095  22.183   8.555
 7074POPC   D2A21724  12.034  22.199   8.255
 7074POPC   C3A21725  12.062  22.113   7.955
 7074POPC   C4A21726  12.126  22.198   7.655
 7074POPC   C1B21727  12.006  21.923   8.555
 7074POPC   C2B21728  12.069  21.920   8.255
 7074POPC   C3B21729  12.032  21.943   7.955
 7074POPC   C4B21730  12.006  21.958   7.655
 7075POPC   NC321731  44.624   0.475   9.455
 7075POPC   PO421732  44.672   0.416   9.155
 7075POPC   GL121733  44.681   0.442   8.855
 7075POPC   GL221734  44.813   0.407   8.855
 7075POPC   C1A21735  44.671   0.446   8.555
 7075POPC   D2A21736  44.697   0.449   8.255
 7075POPC   C3A21737  44.670   0.424   7.955
 7075POPC   C4A21738  44.646   0.443   7.655
 7075POPC   C1B21739  44.897   0.484   8.555
 7075POPC   C2B21740  44.911   0.490   8.255
 7075POPC   C3B21741  44.957   0.465   7.955
 7075POPC   C4B21742  44.897   0.482   7.655
 7076POPC   NC321743  19.040  11.272   9.455
 7076POPC   PO421744  19.043  11.264   9.155
 7076POPC   GL121745  19.052  11.315   8.855
 7076POPC   GL221746  19.185  11.405   8.855
 7076POPC   C1A21747  19.022  11.264   8.555
 7076POPC   D2A21748  19.047  11.283   8.255
 7076POPC   C3A21749  19.053  11.261   7.955
 7076POPC   C4A21750  19.075  11.268   7.655
 7076POPC   C1B21751  19.210  11.488   8.555
 7076POPC   C2B21752  19.266  11.435   8.255
 7076POPC   C3B21753  19.191  11.503   7.955
 7076POPC   C4B21754  19.189  11.445   7.655
 7077POPC   NC321755   6.643  40.784   9.455
 7077POPC   PO421756   6.693  40.796   9.155
 7077POPC   GL121757   6.632  40.785   8.855
 7077POPC   GL221758   6.671  40.860   8.855
 7077POPC   C1A21759   6.634  40.803   8.555
 7077POPC   D2A21760   6.639  40.829   8.255
 7077POPC   C3A21761   6.691  40.824   7.955
 7077POPC   C4A21762   6.629  40.823   7.655
 7077POPC   C1B21763   6.792  41.060   8.555
 7077POPC   C2B21764   6.726  40.999   8.255
 7077POPC   C3B21765   6.777  40.981   7.955
 7077POPC   C4B21766   6.758  40.986   7.655
 7078POPC   NC321767  19.033   2.767   9.455
 7078POPC   PO421768  19.084   2.745   9.155
 7078POPC   GL121769  19.031   2.793   8.855
 7078POPC   GL221770  19.160   2.879   8.855
 7078POPC   C1A21771  19.015   2.780   8.555
 7078POPC   D2A21772  19.083   2.728   8.255
 7078POPC   C3A21773  19.040   2.740   7.955
 7078POPC   C4A21774  19.101   2.795   7.655
 7078POPC   C1B21775  19.146   3.014   8.555
 7078POPC   C2B21776  19.220   2.952   8.255
 7078POPC   C3B21777  19.143   2.993   7.955
 7078POPC   C4B21778  19.205   3.029   7.655
 7079POPC   NC321779  11.340  23.763   9.455
 7079POPC   PO421780  11.255  23.707   9.155
 7079POPC   GL121781  11.329  23.687   8.855
 7079POPC   GL221782  11.189  23.653   8.855
 7079POPC   C1A21783  11.301  23.694   8.555
 7079POPC   D2A21784  11.273  23.751   8.255
 7079POPC   C3A21785  11.275  23.714   7.955
 7079POPC   C4A21786  11.344  23.700   7.655
 7079POPC   C1B21787  11.042  23.630   8.555
 7079POPC   C2B21788  11.093  23.639   8.255
 7079POPC   C3B21789  11.035  23.624   7.955
 7079POPC   C4B21790  11.030  23.685   7.655
 7080POPC   NC321791  12.883  26.769   9.455
 7080POPC   PO421792  12.809  26.779   9.155
 7080POPC   GL121793  12.880  26.768   8.855
 7080POPC   GL221794  12.895  26.722   8.855
 7080POPC   C1A21795  12.838  26.856   8.555
 7080POPC   D2A21796  12.885  26.772   8.255
 7080POPC   C3A21797  12.877  26.851   7.955
 7080POPC   C4A21798  12.837  26.773   7.655
 7080POPC   C1B21799  13.047  26.646   8.555
 7080POPC   C2B21800  13.030  26.603   8.255
 7080POPC   C3B21801  12.989  26.640   7.955
 7080POPC   C4B21802  13.023  26.657   7.655
 7081POPC   NC321803   0.477  29.882   9.455
 7081POPC   PO421804   0.447  29.935   9.155
 7081POPC   GL121805   0.396  29.966   8.855
 7081POPC   GL221806   0.575  29.903   8.855
 7081POPC   C1A21807   0.442  29.874   8.555
 7081POPC   D2A21808   0.434  29.928   8.255
 7081POPC   C3A21809   0.391  29.894   7.955
 7081POPC   C4A21810   0.443  29.931   7.655
 7081POPC   C1B21811   0.640  29.959   8.555
 7081POPC   C2B21812   0.675  29.970   8.255
 7081POPC   C3B21813   0.737  29.929   7.955
 7081POPC   C4B21814   0.639  29.917   7.655
 7082POPC   NC321815  33.000  14.401   9.455
 7082POPC   PO421816  32.979  14.414   9.155
 7082POPC   GL121817  33.066  14.410   8.855
 7082POPC   GL221818  33.003  14.338   8.855
 7082POPC   C1A21819  33.073  14.417   8.555
 7082POPC   D2A21820  32.978  14.441   8.255
 7082POPC   C3A21821  33.014  14.387   7.955
 7082POPC   C4A21822  33.030  14.448   7.655
 7082POPC   C1B21823  32.911  14.210   8.555
 7082POPC   C2B21824  32.928  14.212   8.255
 7082POPC   C3B21825  32.872  14.209   7.955
 7082POPC   C4B21826  32.859  14.238   7.655
 7083POPC   NC321827  43.157  40.047   9.455
 7083POPC   PO421828  43.082  40.049   9.155
 7083POPC   GL121829  43.130  40.044   8.855
 7083POPC   GL221830  43.076  40.103   8.855
 7083POPC   C1A21831  43.086  39.984   8.555
 7083POPC   D2A21832  43.110  40.041   8.255
 7083POPC   C3A21833  43.142  39.972   7.955
 7083POPC   C4A21834  43.141  39.993   7.655
 7083POPC   C1B21835  43.018  40.268   8.555
 7083POPC   C2B21836  43.024  40.232   8.255
 7083POPC   C3B21837  42.962  40.184   7.955
 7083POPC   C4B21838  42.930  40.245   7.655
 7084POPC   NC321839  14.452  11.285   9.455
 7084POPC   PO421840  14.445  11.261   9.155
 7084POPC   GL121841  14.425  11.277   8.855
 7084POPC   GL221842  14.309  11.328   8.855
 7084POPC   C1A21843  14.401  11.294   8.555
 7084POPC   D2A21844  14.440  11.279   8.255
 7084POPC   C3A21845  14.438  11.338   7.955
 7084POPC   C4A21846  14.408  11.260   7.655
 7084POPC   C1B21847  14.157  11.365   8.555
 7084POPC   C2B21848  14.107  11.357   8.255
 7084POPC   C3B21849  14.191  11.282   7.955
 7084POPC   C4B21850  14.147  11.349   7.655
 7085POPC   NC321851  43.898  41.550   9.455
 7085POPC   PO421852  43.889  41.567   9.155
 7085POPC   GL121853  43.906  41.532   8.855
 7085POPC   GL221854  43.940  41.683   8.855
 7085POPC   C1A21855  43.920  41.525   8.555
 7085POPC   D2A21856  43.857  41.533   8.255
 7085POPC   C3A21857  43.843  41.604   7.955
 7085POPC   C4A21858  43.927  41.533   7.655
 7085POPC   C1B21859  43.984  41.769   8.555
 7085POPC   C2B21860  44.016  41.777   8.255
 7085POPC   C3B21861  44.021  41.776   7.955
 7085POPC   C4B21862  44.075  41.725   7.655
 7086POPC   NC321863  17.530   2.019   9.455
 7086POPC   PO421864  17.542   2.011   9.155
 7086POPC   GL121865  17.502   1.954   8.855
 7086POPC   GL221866  17.372   2.008   8.855
 7086POPC   C1A21867  17.552   1.946   8.555
 7086POPC   D2A21868  17.461   1.999   8.255
 7086POPC   C3A21869  17.542   2.039   7.955
 7086POPC   C4A21870  17.541   1.961   7.655
 7086POPC   C1B21871  17.248   1.953   8.555
 7086POPC   C2B21872  17.295   1.969   8.255
 7086POPC   C3B21873  17.259   2.024   7.955
 7086POPC   C4B21874  17.300   1.935   7.655
 7087POPC   NC321875  34.559  36.880   9.455
 7087POPC   PO421876  34.565  36.916   9.155
 7087POPC   GL121877  34.527  36.951   8.855
 7087POPC   GL221878  34.711  36.841   8.855
 7087POPC   C1A21879  34.539  36.855   8.555
 7087POPC   D2A21880  34.589  36.941   8.255
 7087POPC   C3A21881  34.592  36.908   7.955
 7087POPC   C4A21882  34.589  36.888   7.655
 7087POPC   C1B21883  34.725  36.779   8.555
 7087POPC   C2B21884  34.727  36.758   8.255
 7087POPC   C3B21885  34.788  36.741   7.955
 7087POPC   C4B21886  34.797  36.710   7.655
 7088POPC   NC321887  39.249  43.133   9.455
 7088POPC   PO421888  39.236  43.146   9.155
 7088POPC   GL121889  39.227  43.071   8.855
 7088POPC   GL221890  39.160  43.046   8.855
 7088POPC   C1A21891  39.204  43.119   8.555
 7088POPC   D2A21892  39.278  43.073   8.255
 7088POPC   C3A21893  39.205  43.101   7.955
 7088POPC   C4A21894  39.193  43.091   7.655
 7088POPC   C1B21895  38.981  42.955   8.555
 7088POPC   C2B21896  39.045  42.981   8.255
 7088POPC   C3B21897  39.057  42.945   7.955
 7088POPC   C4B21898  38.993  43.019   7.655
 7089POPC   NC321899  14.407  21.412   9.455
 7089POPC   PO421900  14.408  21.361   9.155
 7089POPC   GL121901  14.380  21.403   8.855
 7089POPC   GL221902  14.382  21.237   8.855
 7089POPC   C1A21903  14.371  21.400   8.555
 7089POPC   D2A21904  14.407  21.426   8.255
 7089POPC   C3A21905  14.359  21.411   7.955
 7089POPC   C4A21906  14.452  21.418   7.655
 7089POPC   C1B21907  14.322  21.156   8.555
 7089POPC   C2B21908  14.303  21.165   8.255
 7089POPC   C3B21909  14.330  21.161   7.955
 7089POPC   C4B21910  14.317  21.159   7.655
 7090POPC   NC321911  27.584  27.564   9.455
 7090POPC   PO421912  27.587  27.617   9.155
 7090POPC   GL121913  27.552  27.584   8.855
 7090POPC   GL221914  27.603  27.491   8.855
 7090POPC   C1A21915  27.548  27.608   8.555
 7090POPC   D2A21916  27.587  27.608   8.255
 7090POPC   C3A21917  27.564  27.550   7.955
 7090POPC   C4A21918  27.639  27.630   7.655
 7090POPC   C1B21919  27.663  27.364   8.555
 7090POPC   C2B21920  27.673  27.363   8.255
 7090POPC   C3B21921  27.723  27.404   7.955
 7090POPC   C4B21922  27.731  27.382   7.655
 7091POPC   NC321923  21.407  29.911   9.455
 7091POPC   PO421924  21.409  29.941   9.155
 7091POPC   GL121925  21.374  29.950   8.855
 7091POPC   GL221926  21.267  29.968   8.855
 7091POPC   C1A21927  21.412  29.926   8.555
 7091POPC   D2A21928  21.360  29.879   8.255
 7091POPC   C3A21929  21.343  29.917   7.955
 7091POPC   C4A21930  21.349  29.906   7.655
 7091POPC   C1B21931  21.123  29.979   8.555
 7091POPC   C2B21932  21.170  29.983   8.255
 7091POPC   C3B21933  21.168  29.900   7.955
 7091POPC   C4B21934  21.152  29.943   7.655
 7092POPC   NC321935  29.948  12.058   9.455
 7092POPC   PO421936  29.873  12.091   9.155
 7092POPC   GL121937  29.886  12.034   8.855
 7092POPC   GL221938  29.865  12.002   8.855
 7092POPC   C1A21939  29.896  12.083   8.555
 7092POPC   D2A21940  29.933  12.121   8.255
 7092POPC   C3A21941  29.881  12.055   7.955
 7092POPC   C4A21942  29.958  12.037   7.655
 7092POPC   C1B21943  29.801  11.834   8.555
 7092POPC   C2B21944  29.811  11.880   8.255
 7092POPC   C3B21945  29.819  11.880   7.955
 7092POPC   C4B21946  29.842  11.830   7.655
 7093POPC   NC321947   7.401  22.938   9.455
 7093POPC   PO421948   7.448  22.950   9.155
 7093POPC   GL121949   7.383  22.890   8.855
 7093POPC   GL221950   7.524  22.816   8.855
 7093POPC   C1A21951   7.388  22.946   8.555
 7093POPC   D2A21952   7.373  22.962   8.255
 7093POPC   C3A21953   7.431  22.963   7.955
 7093POPC   C4A21954   7.374  22.927   7.655
 7093POPC   C1B21955   7.576  22.781   8.555
 7093POPC   C2B21956   7.579  22.817   8.255
 7093POPC   C3B21957   7.631  22.813   7.955
 7093POPC   C4B21958   7.642  22.815   7.655
 7094POPC   NC321959   8.977  44.679   9.455
 7094POPC   PO421960   8.958  44.636   9.155
 7094POPC   GL121961   8.955  44.624   8.855
 7094POPC   GL221962   9.064  44.508   8.855
 7094POPC   C1A21963   8.971  44.677   8.555
 7094POPC   D2A21964   9.005  44.627   8.255
 7094POPC   C3A21965   8.962  44.658   7.955
 7094POPC   C4A21966   8.997  44.683   7.655
 7094POPC   C1B21967   9.039  44.423   8.555
 7094POPC   C2B21968   9.108  44.389   8.255
 7094POPC   C3B21969   9.064  44.471   7.955
 7094POPC   C4B21970   9.121  44.408   7.655
 7095POPC   NC321971  29.111  18.259   9.455
 7095POPC   PO421972  29.195  18.275   9.155
 7095POPC   GL121973  29.186  18.279   8.855
 7095POPC   GL221974  29.234  18.264   8.855
 7095POPC   C1A21975  29.190  18.267   8.555
 7095POPC   D2A21976  29.164  18.313   8.255
 7095POPC   C3A21977  29.139  18.304   7.955
 7095POPC   C4A21978  29.148  18.238   7.655
 7095POPC   C1B21979  29.388  18.224   8.555
 7095POPC   C2B21980  29.387  18.194   8.255
 7095POPC   C3B21981  29.369  18.191   7.955
 7095POPC   C4B21982  29.357  18.258   7.655
 7096POPC   NC321983  21.387   9.022   9.455
 7096POPC   PO421984  21.406   8.985   9.155
 7096POPC   GL121985  21.394   8.985   8.855
 7096POPC   GL221986  21.324   8.874   8.855
 7096POPC   C1A21987  21.382   8.928   8.555
 7096POPC   D2A21988  21.384   8.931   8.255
 7096POPC   C3A21989  21.336   8.938   7.955
 7096POPC   C4A21990  21.375   8.981   7.655
 7096POPC   C1B21991  21.190   8.818   8.555
 7096POPC   C2B21992  21.240   8.833   8.255
 7096POPC   C3B21993  21.169   8.772   7.955
 7096POPC   C4B21994  21.248   8.847   7.655
 7097POPC   NC321995  41.566  28.374   9.455
 7097POPC   PO421996  41.539  28.394   9.155
 7097POPC   GL121997  41.520  28.409   8.855
 7097POPC   GL221998  41.428  28.479   8.855
 7097POPC   C1A21999  41.605  28.352   8.555
 7097POPC   D2A22000  41.547  28.400   8.255
 7097POPC   C3A22001  41.541  28.382   7.955
 7097POPC   C4A22002  41.543  28.331   7.655
 7097POPC   C1B22003  41.402  28.567   8.555
 7097POPC   C2B22004  41.372  28.583   8.255
 7097POPC   C3B22005  41.419  28.561   7.955
 7097POPC   C4B22006  41.375  28.512   7.655
 7098POPC   NC322007  11.280  31.446   9.455
 7098POPC   PO422008  11.259  31.490   9.155
 7098POPC   GL122009  11.343  31.495   8.855
 7098POPC   GL222010  11.234  31.345   8.855
 7098POPC   C1A22011  11.312  31.484   8.555
 7098POPC   D2A22012  11.291  31.447   8.255
 7098POPC   C3A22013  11.329  31.441   7.955
 7098POPC   C4A22014  11.333  31.447   7.655
 7098POPC   C1B22015  11.234  31.198   8.555
 7098POPC   C2B22016  11.288  31.264   8.255
 7098POPC   C3B22017  11.225  31.224   7.955
 7098POPC   C4B22018  11.213  31.234   7.655
 7099POPC   NC322019  16.755   6.652   9.455
 7099POPC   PO422020  16.688   6.662   9.155
 7099POPC   GL122021  16.708   6.624   8.855
 7099POPC   GL222022  16.817   6.727   8.855
 7099POPC   C1A22023  16.775   6.670   8.555
 7099POPC   D2A22024  16.730   6.669   8.255
 7099POPC   C3A22025  16.697   6.613   7.955
 7099POPC   C4A22026  16.772   6.648   7.655
 7099POPC   C1B22027  16.858   6.902   8.555
 7099POPC   C2B22028  16.837   6.905   8.255
 7099POPC   C3B22029  16.808   6.899   7.955
 7099POPC   C4B22030  16.852   6.844   7.655
 7100POPC   NC322031  29.157  28.355   9.455
 7100POPC   PO422032  29.098  28.376   9.155
 7100POPC   GL122033  29.128  28.351   8.855
 7100POPC   GL222034  29.008  28.301   8.855
 7100POPC   C1A22035  29.168  28.358   8.555
 7100POPC   D2A22036  29.104  28.401   8.255
 7100POPC   C3A22037  29.107  28.382   7.955
 7100POPC   C4A22038  29.155  28.409   7.655
 7100POPC   C1B22039  28.927  28.274   8.555
 7100POPC   C2B22040  28.959  28.295   8.255
 7100POPC   C3B22041  28.933  28.304   7.955
 7100POPC   C4B22042  28.969  28.305   7.655
 7101POPC   NC322043  26.023   6.626   9.455
 7101POPC   PO422044  26.045   6.617   9.155
 7101POPC   GL122045  26.067   6.675   8.855
 7101POPC   GL222046  25.934   6.733   8.855
 7101POPC   C1A22047  26.002   6.602   8.555
 7101POPC   D2A22048  26.083   6.686   8.255
 7101POPC   C3A22049  26.088   6.691   7.955
 7101POPC   C4A22050  26.078   6.660   7.655
 7101POPC   C1B22051  25.848   6.768   8.555
 7101POPC   C2B22052  25.778   6.721   8.255
 7101POPC   C3B22053  25.801   6.797   7.955
 7101POPC   C4B22054  25.788   6.791   7.655
 7102POPC   NC322055  26.827  28.369   9.455
 7102POPC   PO422056  26.818  28.385   9.155
 7102POPC   GL122057  26.772  28.387   8.855
 7102POPC   GL222058  26.731  28.381   8.855
 7102POPC   C1A22059  26.798  28.392   8.555
 7102POPC   D2A22060  26.817  28.410   8.255
 7102POPC   C3A22061  26.833  28.383   7.955
 7102POPC   C4A22062  26.791  28.399   7.655
 7102POPC   C1B22063  26.575  28.280   8.555
 7102POPC   C2B22064  26.615  28.264   8.255
 7102POPC   C3B22065  26.557  28.329   7.955
 7102POPC   C4B22066  26.625  28.345   7.655
 7103POPC   NC322067  42.350  32.988   9.455
 7103POPC   PO422068  42.361  33.058   9.155
 7103POPC   GL122069  42.380  32.999   8.855
 7103POPC   GL222070  42.403  32.998   8.855
 7103POPC   C1A22071  42.350  33.030   8.555
 7103POPC   D2A22072  42.379  33.035   8.255
 7103POPC   C3A22073  42.366  33.021   7.955
 7103POPC   C4A22074  42.369  32.993   7.655
 7103POPC   C1B22075  42.526  32.854   8.555
 7103POPC   C2B22076  42.548  32.901   8.255
 7103POPC   C3B22077  42.541  32.942   7.955
 7103POPC   C4B22078  42.507  32.913   7.655
 7104POPC   NC322079  12.124  43.160   9.455
 7104POPC   PO422080  12.058  43.103   9.155
 7104POPC   GL122081  12.072  43.115   8.855
 7104POPC   GL222082  11.948  43.024   8.855
 7104POPC   C1A22083  12.110  43.086   8.555
 7104POPC   D2A22084  12.062  43.098   8.255
 7104POPC   C3A22085  12.027  43.068   7.955
 7104POPC   C4A22086  12.062  43.129   7.655
 7104POPC   C1B22087  11.922  42.957   8.555
 7104POPC   C2B22088  11.880  42.905   8.255
 7104POPC   C3B22089  11.868  42.933   7.955
 7104POPC   C4B22090  11.855  42.978   7.655
 7105POPC   NC322091  33.796   1.999   9.455
 7105POPC   PO422092  33.773   2.011   9.155
 7105POPC   GL122093  33.805   1.994   8.855
 7105POPC   GL222094  33.852   2.134   8.855
 7105POPC   C1A22095  33.801   2.025   8.555
 7105POPC   D2A22096  33.808   1.962   8.255
 7105POPC   C3A22097  33.766   2.002   7.955
 7105POPC   C4A22098  33.827   1.949   7.655
 7105POPC   C1B22099  33.906   2.210   8.555
 7105POPC   C2B22100  34.004   2.229   8.255
 7105POPC   C3B22101  33.988   2.165   7.955
 7105POPC   C4B22102  33.963   2.163   7.655
 7106POPC   NC322103  15.133   7.454   9.455
 7106POPC   PO422104  15.154   7.461   9.155
 7106POPC   GL122105  15.170   7.399   8.855
 7106POPC   GL222106  15.034   7.383   8.855
 7106POPC   C1A22107  15.214   7.441   8.555
 7106POPC   D2A22108  15.228   7.412   8.255
 7106POPC   C3A22109  15.143   7.399   7.955
 7106POPC   C4A22110  15.196   7.453   7.655
 7106POPC   C1B22111  14.882   7.428   8.555
 7106POPC   C2B22112  14.889   7.461   8.255
 7106POPC   C3B22113  14.883   7.384   7.955
 7106POPC   C4B22114  14.927   7.460   7.655
 7107POPC   NC322115  15.143  19.062   9.455
 7107POPC   PO422116  15.147  19.023   9.155
 7107POPC   GL122117  15.197  19.101   8.855
 7107POPC   GL222118  15.298  19.100   8.855
 7107POPC   C1A22119  15.181  19.059   8.555
 7107POPC   D2A22120  15.155  19.039   8.255
 7107POPC   C3A22121  15.152  19.032   7.955
 7107POPC   C4A22122  15.144  19.066   7.655
 7107POPC   C1B22123  15.390  19.029   8.555
 7107POPC   C2B22124  15.405  19.068   8.255
 7107POPC   C3B22125  15.412  19.084   7.955
 7107POPC   C4B22126  15.451  19.053   7.655
 7108POPC   NC322127  26.079  28.321   9.455
 7108POPC   PO422128  26.029  28.359   9.155
 7108POPC   GL122129  26.035  28.334   8.855
 7108POPC   GL222130  25.927  28.436   8.855
 7108POPC   C1A22131  26.039  28.367   8.555
 7108POPC   D2A22132  26.035  28.338   8.255
 7108POPC   C3A22133  26.009  28.341   7.955
 7108POPC   C4A22134  26.027  28.337   7.655
 7108POPC   C1B22135  25.882  28.584   8.555
 7108POPC   C2B22136  25.838  28.529   8.255
 7108POPC   C3B22137  25.914  28.582   7.955
 7108POPC   C4B22138  25.843  28.512   7.655
 7109POPC   NC322139  19.862  22.987   9.455
 7109POPC   PO422140  19.807  22.938   9.155
 7109POPC   GL122141  19.856  22.926   8.855
 7109POPC   GL222142  20.007  22.886   8.855
 7109POPC   C1A22143  19.857  22.913   8.555
 7109POPC   D2A22144  19.803  22.900   8.255
 7109POPC   C3A22145  19.812  22.952   7.955
 7109POPC   C4A22146  19.806  22.959   7.655
 7109POPC   C1B22147  20.079  22.900   8.555
 7109POPC   C2B22148  20.039  22.918   8.255
 7109POPC   C3B22149  20.130  22.953   7.955
 7109POPC   C4B22150  20.046  22.948   7.655
 7110POPC   NC322151  18.325   0.392   9.455
 7110POPC   PO422152  18.235   0.473   9.155
 7110POPC   GL122153  18.267   0.440   8.855
 7110POPC   GL222154  18.139   0.539   8.855
 7110POPC   C1A22155  18.280   0.389   8.555
 7110POPC   D2A22156  18.237   0.486   8.255
 7110POPC   C3A22157  18.245   0.453   7.955
 7110POPC   C4A22158  18.267   0.454   7.655
 7110POPC   C1B22159  18.043   0.539   8.555
 7110POPC   C2B22160  18.040   0.596   8.255
 7110POPC   C3B22161  18.121   0.632   7.955
 7110POPC   C4B22162  18.088   0.566   7.655
 7111POPC   NC322163   3.515  36.085   9.455
 7111POPC   PO422164   3.563  36.146   9.155
 7111POPC   GL122165   3.565  36.081   8.855
 7111POPC   GL222166   3.596  36.277   8.855
 7111POPC   C1A22167   3.569  36.158   8.555
 7111POPC   D2A22168   3.566  36.151   8.255
 7111POPC   C3A22169   3.530  36.149   7.955
 7111POPC   C4A22170   3.581  36.172   7.655
 7111POPC   C1B22171   3.558  36.349   8.555
 7111POPC   C2B22172   3.549  36.364   8.255
 7111POPC   C3B22173   3.555  36.346   7.955
 7111POPC   C4B22174   3.543  36.383   7.655
 7112POPC   NC322175  12.107  41.571   9.455
 7112POPC   PO422176  12.098  41.548   9.155
 7112POPC   GL122177  12.100  41.538   8.855
 7112POPC   GL222178  12.064  41.438   8.855
 7112POPC   C1A22179  12.042  41.550   8.555
 7112POPC   D2A22180  12.077  41.513   8.255
 7112POPC   C3A22181  12.067  41.552   7.955
 7112POPC   C4A22182  12.123  41.571   7.655
 7112POPC   C1B22183  11.922  41.365   8.555
 7112POPC   C2B22184  11.999  41.373   8.255
 7112POPC   C3B22185  11.969  41.300   7.955
 7112POPC   C4B22186  12.006  41.383   7.655
 7113POPC   NC322187   8.186  11.339   9.455
 7113POPC   PO422188   8.166  11.252   9.155
 7113POPC   GL122189   8.203  11.294   8.855
 7113POPC   GL222190   8.274  11.213   8.855
 7113POPC   C1A22191   8.149  11.305   8.555
 7113POPC   D2A22192   8.203  11.270   8.255
 7113POPC   C3A22193   8.238  11.290   7.955
 7113POPC   C4A22194   8.162  11.344   7.655
 7113POPC   C1B22195   8.421  11.206   8.555
 7113POPC   C2B22196   8.468  11.172   8.255
 7113POPC   C3B22197   8.402  11.183   7.955
 7113POPC   C4B22198   8.400  11.240   7.655
 7114POPC   NC322199  31.442  33.801   9.455
 7114POPC   PO422200  31.423  33.823   9.155
 7114POPC   GL122201  31.499  33.751   8.855
 7114POPC   GL222202  31.562  33.682   8.855
 7114POPC   C1A22203  31.445  33.818   8.555
 7114POPC   D2A22204  31.513  33.839   8.255
 7114POPC   C3A22205  31.507  33.831   7.955
 7114POPC   C4A22206  31.466  33.791   7.655
 7114POPC   C1B22207  31.520  33.591   8.555
 7114POPC   C2B22208  31.546  33.560   8.255
 7114POPC   C3B22209  31.517  33.589   7.955
 7114POPC   C4B22210  31.617  33.583   7.655
 7115POPC   NC322211  31.512  15.977   9.455
 7115POPC   PO422212  31.474  15.906   9.155
 7115POPC   GL122213  31.488  15.955   8.855
 7115POPC   GL222214  31.454  15.798   8.855
 7115POPC   C1A22215  31.473  15.938   8.555
 7115POPC   D2A22216  31.464  15.942   8.255
 7115POPC   C3A22217  31.428  15.941   7.955
 7115POPC   C4A22218  31.457  15.949   7.655
 7115POPC   C1B22219  31.499  15.660   8.555
 7115POPC   C2B22220  31.503  15.738   8.255
 7115POPC   C3B22221  31.510  15.692   7.955
 7115POPC   C4B22222  31.533  15.686   7.655
 7116POPC   NC322223  43.156  16.749   9.455
 7116POPC   PO422224  43.073  16.689   9.155
 7116POPC   GL122225  43.106  16.751   8.855
 7116POPC   GL222226  43.153  16.852   8.855
 7116POPC   C1A22227  43.157  16.715   8.555
 7116POPC   D2A22228  43.076  16.708   8.255
 7116POPC   C3A22229  43.062  16.733   7.955
 7116POPC   C4A22230  43.098  16.768   7.655
 7116POPC   C1B22231  43.288  16.898   8.555
 7116POPC   C2B22232  43.321  16.957   8.255
 7116POPC   C3B22233  43.282  16.872   7.955
 7116POPC   C4B22234  43.262  16.917   7.655
 7117POPC   NC322235  43.082  44.683   9.455
 7117POPC   PO422236  43.084  44.686   9.155
 7117POPC   GL122237  43.134  44.693   8.855
 7117POPC   GL222238  43.024  44.741   8.855
 7117POPC   C1A22239  43.094  44.679   8.555
 7117POPC   D2A22240  43.133  44.672   8.255
 7117POPC   C3A22241  43.152  44.646   7.955
 7117POPC   C4A22242  43.112  44.672   7.655
 7117POPC   C1B22243  42.830  44.753   8.555
 7117POPC   C2B22244  42.925  44.746   8.255
 7117POPC   C3B22245  42.885  44.756   7.955
 7117POPC   C4B22246  42.854  44.781   7.655
 7118POPC   NC322247  11.320   4.273   9.455
 7118POPC   PO422248  11.282   4.335   9.155
 7118POPC   GL122249  11.284   4.347   8.855
 7118POPC   GL222250  11.288   4.439   8.855
 7118POPC   C1A22251  11.278   4.358   8.555
 7118POPC   D2A22252  11.300   4.286   8.255
 7118POPC   C3A22253  11.269   4.326   7.955
 7118POPC   C4A22254  11.330   4.328   7.655
 7118POPC   C1B22255  11.212   4.546   8.555
 7118POPC   C2B22256  11.176   4.545   8.255
 7118POPC   C3B22257  11.205   4.550   7.955
 7118POPC   C4B22258  11.157   4.558   7.655
 7119POPC   NC322259  13.605  29.935   9.455
 7119POPC   PO422260  13.636  29.961   9.155
 7119POPC   GL122261  13.650  29.876   8.855
 7119POPC   GL222262  13.537  29.990   8.855
 7119POPC   C1A22263  13.660  29.906   8.555
 7119POPC   D2A22264  13.640  29.967   8.255
 7119POPC   C3A22265  13.651  29.919   7.955
 7119POPC   C4A22266  13.597  29.970   7.655
 7119POPC   C1B22267  13.472  30.127   8.555
 7119POPC   C2B22268  13.497  30.145   8.255
 7119POPC   C3B22269  13.476  30.102   7.955
 7119POPC   C4B22270  13.537  30.124   7.655
 7120POPC   NC322271  19.072  40.795   9.455
 7120POPC   PO422272  19.043  40.756   9.155
 7120POPC   GL122273  19.098  40.752   8.855
 7120POPC   GL222274  18.982  40.936   8.855
 7120POPC   C1A22275  19.074  40.803   8.555
 7120POPC   D2A22276  19.057  40.760   8.255
 7120POPC   C3A22277  19.051  40.751   7.955
 7120POPC   C4A22278  19.080  40.781   7.655
 7120POPC   C1B22279  18.949  40.953   8.555
 7120POPC   C2B22280  18.939  41.020   8.255
 7120POPC   C3B22281  18.982  40.984   7.955
 7120POPC   C4B22282  18.906  40.968   7.655
 7121POPC   NC322283   5.885   0.479   9.455
 7121POPC   PO422284   5.828   0.470   9.155
 7121POPC   GL122285   5.908   0.412   8.855
 7121POPC   GL222286   5.842   0.588   8.855
 7121POPC   C1A22287   5.831   0.466   8.555
 7121POPC   D2A22288   5.837   0.461   8.255
 7121POPC   C3A22289   5.894   0.411   7.955
 7121POPC   C4A22290   5.845   0.448   7.655
 7121POPC   C1B22291   5.823   0.645   8.555
 7121POPC   C2B22292   5.820   0.687   8.255
 7121POPC   C3B22293   5.798   0.725   7.955
 7121POPC   C4B22294   5.862   0.657   7.655
 7122POPC   NC322295  36.144  15.941   9.455
 7122POPC   PO422296  36.130  15.973   9.155
 7122POPC   GL122297  36.102  15.906   8.855
 7122POPC   GL222298  36.022  16.079   8.855
 7122POPC   C1A22299  36.105  15.970   8.555
 7122POPC   D2A22300  36.149  15.932   8.255
 7122POPC   C3A22301  36.091  15.985   7.955
 7122POPC   C4A22302  36.093  15.994   7.655
 7122POPC   C1B22303  35.932  16.142   8.555
 7122POPC   C2B22304  35.913  16.076   8.255
 7122POPC   C3B22305  35.889  16.118   7.955
 7122POPC   C4B22306  35.957  16.077   7.655
 7123POPC   NC322307   6.611  20.568   9.455
 7123POPC   PO422308   6.606  20.622   9.155
 7123POPC   GL122309   6.615  20.645   8.855
 7123POPC   GL222310   6.540  20.618   8.855
 7123POPC   C1A22311   6.607  20.578   8.555
 7123POPC   D2A22312   6.671  20.589   8.255
 7123POPC   C3A22313   6.616  20.570   7.955
 7123POPC   C4A22314   6.606  20.572   7.655
 7123POPC   C1B22315   6.424  20.625   8.555
 7123POPC   C2B22316   6.367  20.640   8.255
 7123POPC   C3B22317   6.444  20.609   7.955
 7123POPC   C4B22318   6.360  20.586   7.655
 7124POPC   NC322319  15.172  22.933   9.455
 7124POPC   PO422320  15.161  22.912   9.155
 7124POPC   GL122321  15.172  22.961   8.855
 7124POPC   GL222322  15.246  22.871   8.855
 7124POPC   C1A22323  15.136  22.898   8.555
 7124POPC   D2A22324  15.211  22.972   8.255
 7124POPC   C3A22325  15.183  22.977   7.955
 7124POPC   C4A22326  15.165  22.978   7.655
 7124POPC   C1B22327  15.340  22.669   8.555
 7124POPC   C2B22328  15.262  22.711   8.255
 7124POPC   C3B22329  15.310  22.751   7.955
 7124POPC   C4B22330  15.278  22.691   7.655
 7125POPC   NC322331  43.896  44.698   9.455
 7125POPC   PO422332  43.893  44.673   9.155
 7125POPC   GL122333  43.889  44.669   8.855
 7125POPC   GL222334  43.806  44.746   8.855
 7125POPC   C1A22335  43.877  44.677   8.555
 7125POPC   D2A22336  43.929  44.688   8.255
 7125POPC   C3A22337  43.841  44.667   7.955
 7125POPC   C4A22338  43.932  44.615   7.655
 7125POPC   C1B22339  43.661  44.818   8.555
 7125POPC   C2B22340  43.695  44.769   8.255
 7125POPC   C3B22341  43.660  44.839   7.955
 7125POPC   C4B22342  43.677  44.781   7.655
 7126POPC   NC322343   6.650   1.206   9.455
 7126POPC   PO422344   6.618   1.203   9.155
 7126POPC   GL122345   6.655   1.243   8.855
 7126POPC   GL222346   6.506   1.176   8.855
 7126POPC   C1A22347   6.681   1.200   8.555
 7126POPC   D2A22348   6.639   1.246   8.255
 7126POPC   C3A22349   6.670   1.262   7.955
 7126POPC   C4A22350   6.670   1.233   7.655
 7126POPC   C1B22351   6.376   1.094   8.555
 7126POPC   C2B22352   6.399   1.134   8.255
 7126POPC   C3B22353   6.420   1.154   7.955
 7126POPC   C4B22354   6.366   1.100   7.655
 7127POPC   NC322355  22.119   5.089   9.455
 7127POPC   PO422356  22.198   5.102   9.155
 7127POPC   GL122357  22.190   5.088   8.855
 7127POPC   GL222358  22.093   4.960   8.855
 7127POPC   C1A22359  22.147   5.054   8.555
 7127POPC   D2A22360  22.165   5.124   8.255
 7127POPC   C3A22361  22.135   5.092   7.955
 7127POPC   C4A22362  22.154   5.094   7.655
 7127POPC   C1B22363  22.052   4.898   8.555
 7127POPC   C2B22364  22.104   4.815   8.255
 7127POPC   C3B22365  22.067   4.836   7.955
 7127POPC   C4B22366  22.062   4.852   7.655
 7128POPC   NC322367  13.587  26.010   9.455
 7128POPC   PO422368  13.672  25.999   9.155
 7128POPC   GL122369  13.668  26.048   8.855
 7128POPC   GL222370  13.759  26.055   8.855
 7128POPC   C1A22371  13.646  25.996   8.555
 7128POPC   D2A22372  13.602  26.020   8.255
 7128POPC   C3A22373  13.602  26.071   7.955
 7128POPC   C4A22374  13.607  26.064   7.655
 7128POPC   C1B22375  13.868  26.172   8.555
 7128POPC   C2B22376  13.855  26.135   8.255
 7128POPC   C3B22377  13.872  26.107   7.955
 7128POPC   C4B22378  13.828  26.197   7.655
 7129POPC   NC322379   6.671  43.132   9.455
 7129POPC   PO422380   6.625  43.146   9.155
 7129POPC   GL122381   6.626  43.160   8.855
 7129POPC   GL222382   6.709  43.005   8.855
 7129POPC   C1A22383   6.673  43.063   8.555
 7129POPC   D2A22384   6.641  43.137   8.255
 7129POPC   C3A22385   6.654  43.136   7.955
 7129POPC   C4A22386   6.677  43.150   7.655
 7129POPC   C1B22387   6.853  42.915   8.555
 7129POPC   C2B22388   6.883  42.987   8.255
 7129POPC   C3B22389   6.813  42.974   7.955
 7129POPC   C4B22390   6.832  42.964   7.655
 7130POPC   NC322391   4.285  34.538   9.455
 7130POPC   PO422392   4.279  34.583   9.155
 7130POPC   GL122393   4.282  34.527   8.855
 7130POPC   GL222394   4.353  34.411   8.855
 7130POPC   C1A22395   4.296  34.566   8.555
 7130POPC   D2A22396   4.317  34.590   8.255
 7130POPC   C3A22397   4.277  34.595   7.955
 7130POPC   C4A22398   4.330  34.602   7.655
 7130POPC   C1B22399   4.353  34.373   8.555
 7130POPC   C2B22400   4.370  34.287   8.255
 7130POPC   C3B22401   4.341  34.308   7.955
 7130POPC   C4B22402   4.299  34.279   7.655
 7131POPC   NC322403  15.193  34.539   9.455
 7131POPC   PO422404  15.215  34.603   9.155
 7131POPC   GL122405  15.184  34.538   8.855
 7131POPC   GL222406  15.235  34.652   8.855
 7131POPC   C1A22407  15.206  34.580   8.555
 7131POPC   D2A22408  15.144  34.580   8.255
 7131POPC   C3A22409  15.208  34.596   7.955
 7131POPC   C4A22410  15.206  34.608   7.655
 7131POPC   C1B22411  15.382  34.763   8.555
 7131POPC   C2B22412  15.318  34.771   8.255
 7131POPC   C3B22413  15.387  34.703   7.955
 7131POPC   C4B22414  15.403  34.776   7.655
 7132POPC   NC322415  37.661  36.905   9.455
 7132POPC   PO422416  37.716  36.927   9.155
 7132POPC   GL122417  37.650  36.868   8.855
 7132POPC   GL222418  37.627  36.777   8.855
 7132POPC   C1A22419  37.647  36.922   8.555
 7132POPC   D2A22420  37.685  36.912   8.255
 7132POPC   C3A22421  37.682  36.876   7.955
 7132POPC   C4A22422  37.714  36.922   7.655
 7132POPC   C1B22423  37.530  36.667   8.555
 7132POPC   C2B22424  37.595  36.662   8.255
 7132POPC   C3B22425  37.587  36.719   7.955
 7132POPC   C4B22426  37.570  36.685   7.655
 7133POPC   NC322427   0.449  20.606   9.455
 7133POPC   PO422428   0.450  20.619   9.155
 7133POPC   GL122429   0.408  20.604   8.855
 7133POPC   GL222430   0.448  20.535   8.855
 7133POPC   C1A22431   0.416  20.620   8.555
 7133POPC   D2A22432   0.483  20.628   8.255
 7133POPC   C3A22433   0.424  20.646   7.955
 7133POPC   C4A22434   0.466  20.651   7.655
 7133POPC   C1B22435   0.485  20.387   8.555
 7133POPC   C2B22436   0.506  20.324   8.255
 7133POPC   C3B22437   0.471  20.390   7.955
 7133POPC   C4B22438   0.540  20.376   7.655
 7134POPC   NC322439  40.047  29.903   9.455
 7134POPC   PO422440  39.976  29.905   9.155
 7134POPC   GL122441  39.974  29.907   8.855
 7134POPC   GL222442  39.870  29.859   8.855
 7134POPC   C1A22443  40.051  29.926   8.555
 7134POPC   D2A22444  39.961  29.951   8.255
 7134POPC   C3A22445  39.986  29.962   7.955
 7134POPC   C4A22446  40.022  29.962   7.655
 7134POPC   C1B22447  39.797  29.787   8.555
 7134POPC   C2B22448  39.841  29.806   8.255
 7134POPC   C3B22449  39.797  29.732   7.955
 7134POPC   C4B22450  39.828  29.801   7.655
 7135POPC   NC322451   1.216   7.372   9.455
 7135POPC   PO422452   1.187   7.454   9.155
 7135POPC   GL122453   1.182   7.399   8.855
 7135POPC   GL222454   1.142   7.345   8.855
 7135POPC   C1A22455   1.259   7.464   8.555
 7135POPC   D2A22456   1.237   7.399   8.255
 7135POPC   C3A22457   1.254   7.407   7.955
 7135POPC   C4A22458   1.209   7.382   7.655
 7135POPC   C1B22459   1.178   7.159   8.555
 7135POPC   C2B22460   1.158   7.210   8.255
 7135POPC   C3B22461   1.151   7.208   7.955
 7135POPC   C4B22462   1.121   7.186   7.655
 7136POPC   NC322463   9.708   7.389   9.455
 7136POPC   PO422464   9.766   7.422   9.155
 7136POPC   GL122465   9.716   7.420   8.855
 7136POPC   GL222466   9.825   7.471   8.855
 7136POPC   C1A22467   9.705   7.398   8.555
 7136POPC   D2A22468   9.758   7.451   8.255
 7136POPC   C3A22469   9.791   7.411   7.955
 7136POPC   C4A22470   9.745   7.460   7.655
 7136POPC   C1B22471   9.901   7.586   8.555
 7136POPC   C2B22472   9.896   7.608   8.255
 7136POPC   C3B22473   9.924   7.576   7.955
 7136POPC   C4B22474   9.914   7.588   7.655
 7137POPC   NC322475  39.243  40.740   9.455
 7137POPC   PO422476  39.250  40.740   9.155
 7137POPC   GL122477  39.266  40.798   8.855
 7137POPC   GL222478  39.311  40.710   8.855
 7137POPC   C1A22479  39.219  40.802   8.555
 7137POPC   D2A22480  39.279  40.825   8.255
 7137POPC   C3A22481  39.237  40.815   7.955
 7137POPC   C4A22482  39.182  40.820   7.655
 7137POPC   C1B22483  39.426  40.561   8.555
 7137POPC   C2B22484  39.445  40.562   8.255
 7137POPC   C3B22485  39.417  40.653   7.955
 7137POPC   C4B22486  39.393  40.591   7.655
 7138POPC   NC322487   9.775  38.479   9.455
 7138POPC   PO422488   9.783  38.469   9.155
 7138POPC   GL122489   9.767  38.460   8.855
 7138POPC   GL222490   9.880  38.472   8.855
 7138POPC   C1A22491   9.797  38.425   8.555
 7138POPC   D2A22492   9.725  38.464   8.255
 7138POPC   C3A22493   9.715  38.484   7.955
 7138POPC   C4A22494   9.701  38.436   7.655
 7138POPC   C1B22495   9.996  38.442   8.555
 7138POPC   C2B22496  10.007  38.373   8.255
 7138POPC   C3B22497  10.012  38.427   7.955
 7138POPC   C4B22498  10.030  38.439   7.655
 7139POPC   NC322499  34.579  35.341   9.455
 7139POPC   PO422500  34.556  35.345   9.155
 7139POPC   GL122501  34.615  35.374   8.855
 7139POPC   GL222502  34.642  35.492   8.855
 7139POPC   C1A22503  34.560  35.361   8.555
 7139POPC   D2A22504  34.530  35.303   8.255
 7139POPC   C3A22505  34.532  35.390   7.955
 7139POPC   C4A22506  34.553  35.384   7.655
 7139POPC   C1B22507  34.743  35.502   8.555
 7139POPC   C2B22508  34.758  35.556   8.255
 7139POPC   C3B22509  34.733  35.490   7.955
 7139POPC   C4B22510  34.784  35.565   7.655
 7140POPC   NC322511  30.734   1.997   9.455
 7140POPC   PO422512  30.688   1.967   9.155
 7140POPC   GL122513  30.732   2.006   8.855
 7140POPC   GL222514  30.541   2.045   8.855
 7140POPC   C1A22515  30.693   1.941   8.555
 7140POPC   D2A22516  30.648   1.998   8.255
 7140POPC   C3A22517  30.710   1.975   7.955
 7140POPC   C4A22518  30.702   1.969   7.655
 7140POPC   C1B22519  30.530   2.089   8.555
 7140POPC   C2B22520  30.503   2.152   8.255
 7140POPC   C3B22521  30.527   2.079   7.955
 7140POPC   C4B22522  30.468   2.134   7.655
 7141POPC   NC322523  43.072   9.744   9.455
 7141POPC   PO422524  43.136   9.787   9.155
 7141POPC   GL122525  43.083   9.748   8.855
 7141POPC   GL222526  43.008   9.834   8.855
 7141POPC   C1A22527  43.084   9.792   8.555
 7141POPC   D2A22528  43.159   9.751   8.255
 7141POPC   C3A22529  43.118   9.750   7.955
 7141POPC   C4A22530  43.071   9.763   7.655
 7141POPC   C1B22531  42.929   9.898   8.555
 7141POPC   C2B22532  42.885   9.925   8.255
 7141POPC   C3B22533  42.969   9.877   7.955
 7141POPC   C4B22534  42.917   9.944   7.655
 7142POPC   NC322535  12.888  38.447   9.455
 7142POPC   PO422536  12.896  38.472   9.155
 7142POPC   GL122537  12.886  38.433   8.855
 7142POPC   GL222538  12.916  38.445   8.855
 7142POPC   C1A22539  12.894  38.429   8.555
 7142POPC   D2A22540  12.822  38.466   8.255
 7142POPC   C3A22541  12.808  38.466   7.955
 7142POPC   C4A22542  12.900  38.464   7.655
 7142POPC   C1B22543  13.088  38.303   8.555
 7142POPC   C2B22544  13.058  38.349   8.255
 7142POPC   C3B22545  13.081  38.333   7.955
 7142POPC   C4B22546  13.029  38.359   7.655
 7143POPC   NC322547   8.175  19.814   9.455
 7143POPC   PO422548   8.169  19.835   9.155
 7143POPC   GL122549   8.238  19.861   8.855
 7143POPC   GL222550   8.124  19.764   8.855
 7143POPC   C1A22551   8.154  19.869   8.555
 7143POPC   D2A22552   8.233  19.843   8.255
 7143POPC   C3A22553   8.233  19.785   7.955
 7143POPC   C4A22554   8.236  19.864   7.655
 7143POPC   C1B22555   8.049  19.645   8.555
 7143POPC   C2B22556   8.098  19.666   8.255
 7143POPC   C3B22557   8.052  19.636   7.955
 7143POPC   C4B22558   8.120  19.603   7.655
 7144POPC   NC322559  10.524  21.343   9.455
 7144POPC   PO422560  10.571  21.358   9.155
 7144POPC   GL122561  10.478  21.346   8.855
 7144POPC   GL222562  10.458  21.307   8.855
 7144POPC   C1A22563  10.548  21.410   8.555
 7144POPC   D2A22564  10.492  21.378   8.255
 7144POPC   C3A22565  10.497  21.394   7.955
 7144POPC   C4A22566  10.565  21.409   7.655
 7144POPC   C1B22567  10.316  21.289   8.555
 7144POPC   C2B22568  10.254  21.245   8.255
 7144POPC   C3B22569  10.305  21.258   7.955
 7144POPC   C4B22570  10.307  21.245   7.655
 7145POPC   NC322571  29.106   7.462   9.455
 7145POPC   PO422572  29.169   7.381   9.155
 7145POPC   GL122573  29.097   7.438   8.855
 7145POPC   GL222574  29.007   7.448   8.855
 7145POPC   C1A22575  29.145   7.390   8.555
 7145POPC   D2A22576  29.101   7.448   8.255
 7145POPC   C3A22577  29.127   7.372   7.955
 7145POPC   C4A22578  29.168   7.437   7.655
 7145POPC   C1B22579  28.935   7.461   8.555
 7145POPC   C2B22580  28.942   7.552   8.255
 7145POPC   C3B22581  28.946   7.528   7.955
 7145POPC   C4B22582  28.953   7.526   7.655
 7146POPC   NC322583  37.660  29.132   9.455
 7146POPC   PO422584  37.714  29.165   9.155
 7146POPC   GL122585  37.727  29.172   8.855
 7146POPC   GL222586  37.773  29.204   8.855
 7146POPC   C1A22587  37.671  29.095   8.555
 7146POPC   D2A22588  37.686  29.168   8.255
 7146POPC   C3A22589  37.729  29.113   7.955
 7146POPC   C4A22590  37.635  29.185   7.655
 7146POPC   C1B22591  37.895  29.188   8.555
 7146POPC   C2B22592  37.947  29.198   8.255
 7146POPC   C3B22593  37.956  29.231   7.955
 7146POPC   C4B22594  37.867  29.275   7.655
 7147POPC   NC322595  20.642  39.195   9.455
 7147POPC   PO422596  20.598  39.199   9.155
 7147POPC   GL122597  20.575  39.211   8.855
 7147POPC   GL222598  20.661  39.338   8.855
 7147POPC   C1A22599  20.646  39.182   8.555
 7147POPC   D2A22600  20.638  39.263   8.255
 7147POPC   C3A22601  20.606  39.249   7.955
 7147POPC   C4A22602  20.614  39.186   7.655
 7147POPC   C1B22603  20.641  39.508   8.555
 7147POPC   C2B22604  20.692  39.444   8.255
 7147POPC   C3B22605  20.633  39.508   7.955
 7147POPC   C4B22606  20.623  39.469   7.655
 7148POPC   NC322607  39.241  14.415   9.455
 7148POPC   PO422608  39.225  14.356   9.155
 7148POPC   GL122609  39.187  14.447   8.855
 7148POPC   GL222610  39.120  14.477   8.855
 7148POPC   C1A22611  39.211  14.369   8.555
 7148POPC   D2A22612  39.204  14.437   8.255
 7148POPC   C3A22613  39.206  14.424   7.955
 7148POPC   C4A22614  39.252  14.369   7.655
 7148POPC   C1B22615  39.041  14.509   8.555
 7148POPC   C2B22616  39.045  14.558   8.255
 7148POPC   C3B22617  39.081  14.597   7.955
 7148POPC   C4B22618  38.999  14.571   7.655
 7149POPC   NC322619  33.809  33.752   9.455
 7149POPC   PO422620  33.827  33.767   9.155
 7149POPC   GL122621  33.812  33.809   8.855
 7149POPC   GL222622  33.887  33.793   8.855
 7149POPC   C1A22623  33.835  33.751   8.555
 7149POPC   D2A22624  33.801  33.837   8.255
 7149POPC   C3A22625  33.830  33.766   7.955
 7149POPC   C4A22626  33.767  33.828   7.655
 7149POPC   C1B22627  34.085  33.816   8.555
 7149POPC   C2B22628  34.005  33.815   8.255
 7149POPC   C3B22629  34.098  33.749   7.955
 7149POPC   C4B22630  34.094  33.753   7.655
 7150POPC   NC322631  30.706  14.409   9.455
 7150POPC   PO422632  30.732  14.424   9.155
 7150POPC   GL122633  30.672  14.357   8.855
 7150POPC   GL222634  30.563  14.477   8.855
 7150POPC   C1A22635  30.739  14.366   8.555
 7150POPC   D2A22636  30.743  14.417   8.255
 7150POPC   C3A22637  30.662  14.409   7.955
 7150POPC   C4A22638  30.702  14.447   7.655
 7150POPC   C1B22639  30.495  14.543   8.555
 7150POPC   C2B22640  30.529  14.488   8.255
 7150POPC   C3B22641  30.437  14.550   7.955
 7150POPC   C4B22642  30.459  14.548   7.655
 7151POPC   NC322643  39.226  29.174   9.455
 7151POPC   PO422644  39.213  29.120   9.155
 7151POPC   GL122645  39.201  29.164   8.855
 7151POPC   GL222646  39.203  29.045   8.855
 7151POPC   C1A22647  39.232  29.146   8.555
 7151POPC   D2A22648  39.258  29.193   8.255
 7151POPC   C3A22649  39.258  29.125   7.955
 7151POPC   C4A22650  39.193  29.107   7.655
 7151POPC   C1B22651  39.179  28.939   8.555
 7151POPC   C2B22652  39.193  28.953   8.255
 7151POPC   C3B22653  39.167  28.864   7.955
 7151POPC   C4B22654  39.131  28.926   7.655
 7152POPC   NC322655  27.614  31.506   9.455
 7152POPC   PO422656  27.642  31.500   9.155
 7152POPC   GL122657  27.561  31.458   8.855
 7152POPC   GL222658  27.668  31.503   8.855
 7152POPC   C1A22659  27.621  31.510   8.555
 7152POPC   D2A22660  27.631  31.441   8.255
 7152POPC   C3A22661  27.565  31.504   7.955
 7152POPC   C4A22662  27.633  31.437   7.655
 7152POPC   C1B22663  27.826  31.529   8.555
 7152POPC   C2B22664  27.799  31.516   8.255
 7152POPC   C3B22665  27.807  31.528   7.955
 7152POPC   C4B22666  27.869  31.509   7.655
 7153POPC   NC322667  14.388  26.013   9.455
 7153POPC   PO422668  14.383  26.013   9.155
 7153POPC   GL122669  14.421  26.053   8.855
 7153POPC   GL222670  14.407  26.159   8.855
 7153POPC   C1A22671  14.376  26.013   8.555
 7153POPC   D2A22672  14.369  26.026   8.255
 7153POPC   C3A22673  14.421  26.087   7.955
 7153POPC   C4A22674  14.420  26.061   7.655
 7153POPC   C1B22675  14.389  26.332   8.555
 7153POPC   C2B22676  14.351  26.296   8.255
 7153POPC   C3B22677  14.351  26.278   7.955
 7153POPC   C4B22678  14.358  26.264   7.655
 7154POPC   NC322679  26.090   1.169   9.455
 7154POPC   PO422680  26.041   1.182   9.155
 7154POPC   GL122681  26.005   1.252   8.855
 7154POPC   GL222682  26.149   1.117   8.855
 7154POPC   C1A22683  26.033   1.209   8.555
 7154POPC   D2A22684  25.992   1.236   8.255
 7154POPC   C3A22685  26.073   1.189   7.955
 7154POPC   C4A22686  26.019   1.195   7.655
 7154POPC   C1B22687  26.275   1.150   8.555
 7154POPC   C2B22688  26.299   1.142   8.255
 7154POPC   C3B22689  26.280   1.071   7.955
 7154POPC   C4B22690  26.282   1.108   7.655
 7155POPC   NC322691  41.528  15.949   9.455
 7155POPC   PO422692  41.525  15.919   9.155
 7155POPC   GL122693  41.600  15.946   8.855
 7155POPC   GL222694  41.651  15.920   8.855
 7155POPC   C1A22695  41.533  15.986   8.555
 7155POPC   D2A22696  41.577  15.938   8.255
 7155POPC   C3A22697  41.569  15.959   7.955
 7155POPC   C4A22698  41.573  15.952   7.655
 7155POPC   C1B22699  41.771  15.836   8.555
 7155POPC   C2B22700  41.762  15.777   8.255
 7155POPC   C3B22701  41.800  15.856   7.955
 7155POPC   C4B22702  41.755  15.816   7.655
 7156POPC   NC322703  38.459  31.515   9.455
 7156POPC   PO422704  38.484  31.511   9.155
 7156POPC   GL122705  38.477  31.509   8.855
 7156POPC   GL222706  38.607  31.494   8.855
 7156POPC   C1A22707  38.441  31.515   8.555
 7156POPC   D2A22708  38.437  31.456   8.255
 7156POPC   C3A22709  38.486  31.509   7.955
 7156POPC   C4A22710  38.407  31.464   7.655
 7156POPC   C1B22711  38.703  31.457   8.555
 7156POPC   C2B22712  38.703  31.413   8.255
 7156POPC   C3B22713  38.719  31.432   7.955
 7156POPC   C4B22714  38.671  31.391   7.655
 7157POPC   NC322715  19.091  35.358   9.455
 7157POPC   PO422716  19.049  35.386   9.155
 7157POPC   GL122717  19.076  35.371   8.855
 7157POPC   GL222718  19.119  35.425   8.855
 7157POPC   C1A22719  19.012  35.360   8.555
 7157POPC   D2A22720  19.015  35.312   8.255
 7157POPC   C3A22721  19.106  35.371   7.955
 7157POPC   C4A22722  19.089  35.353   7.655
 7157POPC   C1B22723  19.122  35.581   8.555
 7157POPC   C2B22724  19.198  35.536   8.255
 7157POPC   C3B22725  19.155  35.601   7.955
 7157POPC   C4B22726  19.184  35.553   7.655
 7158POPC   NC322727  17.541  13.593   9.455
 7158POPC   PO422728  17.480  13.675   9.155
 7158POPC   GL122729  17.506  13.592   8.855
 7158POPC   GL222730  17.480  13.731   8.855
 7158POPC   C1A22731  17.508  13.659   8.555
 7158POPC   D2A22732  17.494  13.655   8.255
 7158POPC   C3A22733  17.525  13.666   7.955
 7158POPC   C4A22734  17.550  13.674   7.655
 7158POPC   C1B22735  17.522  13.920   8.555
 7158POPC   C2B22736  17.536  13.922   8.255
 7158POPC   C3B22737  17.559  13.922   7.955
 7158POPC   C4B22738  17.537  13.888   7.655
 7159POPC   NC322739  23.761   8.200   9.455
 7159POPC   PO422740  23.736   8.148   9.155
 7159POPC   GL122741  23.723   8.208   8.855
 7159POPC   GL222742  23.818   8.118   8.855
 7159POPC   C1A22743  23.679   8.181   8.555
 7159POPC   D2A22744  23.763   8.182   8.255
 7159POPC   C3A22745  23.693   8.149   7.955
 7159POPC   C4A22746  23.722   8.168   7.655
 7159POPC   C1B22747  23.896   8.067   8.555
 7159POPC   C2B22748  23.950   8.049   8.255
 7159POPC   C3B22749  23.921   8.040   7.955
 7159POPC   C4B22750  23.885   8.051   7.655
 7160POPC   NC322751  43.075  21.411   9.455
 7160POPC   PO422752  43.076  21.387   9.155
 7160POPC   GL122753  43.122  21.414   8.855
 7160POPC   GL222754  43.089  21.292   8.855
 7160POPC   C1A22755  43.084  21.345   8.555
 7160POPC   D2A22756  43.131  21.401   8.255
 7160POPC   C3A22757  43.150  21.372   7.955
 7160POPC   C4A22758  43.154  21.341   7.655
 7160POPC   C1B22759  43.006  21.134   8.555
 7160POPC   C2B22760  42.983  21.201   8.255
 7160POPC   C3B22761  42.962  21.199   7.955
 7160POPC   C4B22762  42.990  21.163   7.655
 7161POPC   NC322763  35.329  43.135   9.455
 7161POPC   PO422764  35.359  43.066   9.155
 7161POPC   GL122765  35.340  43.079   8.855
 7161POPC   GL222766  35.385  43.032   8.855
 7161POPC   C1A22767  35.307  43.076   8.555
 7161POPC   D2A22768  35.327  43.065   8.255
 7161POPC   C3A22769  35.345  43.075   7.955
 7161POPC   C4A22770  35.384  43.155   7.655
 7161POPC   C1B22771  35.386  42.831   8.555
 7161POPC   C2B22772  35.349  42.906   8.255
 7161POPC   C3B22773  35.332  42.842   7.955
 7161POPC   C4B22774  35.297  42.908   7.655
 7162POPC   NC322775  35.303  25.227   9.455
 7162POPC   PO422776  35.330  25.288   9.155
 7162POPC   GL122777  35.323  25.240   8.855
 7162POPC   GL222778  35.252  25.347   8.855
 7162POPC   C1A22779  35.365  25.305   8.555
 7162POPC   D2A22780  35.389  25.303   8.255
 7162POPC   C3A22781  35.361  25.250   7.955
 7162POPC   C4A22782  35.305  25.249   7.655
 7162POPC   C1B22783  35.132  25.356   8.555
 7162POPC   C2B22784  35.166  25.411   8.255
 7162POPC   C3B22785  35.170  25.352   7.955
 7162POPC   C4B22786  35.137  25.399   7.655
 7163POPC   NC322787  33.017  33.776   9.455
 7163POPC   PO422788  33.037  33.815   9.155
 7163POPC   GL122789  33.024  33.808   8.855
 7163POPC   GL222790  33.150  33.720   8.855
 7163POPC   C1A22791  33.013  33.777   8.555
 7163POPC   D2A22792  33.031  33.780   8.255
 7163POPC   C3A22793  33.046  33.821   7.955
 7163POPC   C4A22794  32.984  33.833   7.655
 7163POPC   C1B22795  33.176  33.629   8.555
 7163POPC   C2B22796  33.202  33.593   8.255
 7163POPC   C3B22797  33.195  33.610   7.955
 7163POPC   C4B22798  33.165  33.616   7.655
 7164POPC   NC322799  37.722  22.928   9.455
 7164POPC   PO422800  37.669  22.959   9.155
 7164POPC   GL122801  37.718  22.972   8.855
 7164POPC   GL222802  37.609  22.997   8.855
 7164POPC   C1A22803  37.701  22.952   8.555
 7164POPC   D2A22804  37.680  22.939   8.255
 7164POPC   C3A22805  37.631  22.944   7.955
 7164POPC   C4A22806  37.681  22.980   7.655
 7164POPC   C1B22807  37.416  23.026   8.555
 7164POPC   C2B22808  37.445  22.998   8.255
 7164POPC   C3B22809  37.457  23.036   7.955
 7164POPC   C4B22810  37.418  22.968   7.655
 7165POPC   NC322811  27.575  28.395   9.455
 7165POPC   PO422812  27.552  28.386   9.155
 7165POPC   GL122813  27.590  28.364   8.855
 7165POPC   GL222814  27.607  28.249   8.855
 7165POPC   C1A22815  27.638  28.388   8.555
 7165POPC   D2A22816  27.561  28.340   8.255
 7165POPC   C3A22817  27.594  28.373   7.955
 7165POPC   C4A22818  27.623  28.322   7.655
 7165POPC   C1B22819  27.702  28.178   8.555
 7165POPC   C2B22820  27.717  28.097   8.255
 7165POPC   C3B22821  27.672  28.157   7.955
 7165POPC   C4B22822  27.702  28.178   7.655
 7166POPC   NC322823   3.501  35.356   9.455
 7166POPC   PO422824   3.581  35.348   9.155
 7166POPC   GL122825   3.589  35.371   8.855
 7166POPC   GL222826   3.399  35.434   8.855
 7166POPC   C1A22827   3.548  35.329   8.555
 7166POPC   D2A22828   3.565  35.381   8.255
 7166POPC   C3A22829   3.560  35.340   7.955
 7166POPC   C4A22830   3.495  35.395   7.655
 7166POPC   C1B22831   3.334  35.424   8.555
 7166POPC   C2B22832   3.327  35.445   8.255
 7166POPC   C3B22833   3.283  35.485   7.955
 7166POPC   C4B22834   3.355  35.420   7.655
 7167POPC   NC322835   1.950  30.690   9.455
 7167POPC   PO422836   2.024  30.732   9.155
 7167POPC   GL122837   2.026  30.686   8.855
 7167POPC   GL222838   1.984  30.583   8.855
 7167POPC   C1A22839   2.016  30.682   8.555
 7167POPC   D2A22840   1.942  30.709   8.255
 7167POPC   C3A22841   1.942  30.744   7.955
 7167POPC   C4A22842   1.967  30.664   7.655
 7167POPC   C1B22843   1.867  30.487   8.555
 7167POPC   C2B22844   1.927  30.504   8.255
 7167POPC   C3B22845   1.925  30.430   7.955
 7167POPC   C4B22846   1.877  30.512   7.655
 7168POPC   NC322847   1.245  31.457   9.455
 7168POPC   PO422848   1.206  31.481   9.155
 7168POPC   GL122849   1.241  31.465   8.855
 7168POPC   GL222850   1.102  31.612   8.855
 7168POPC   C1A22851   1.230  31.444   8.555
 7168POPC   D2A22852   1.221  31.426   8.255
 7168POPC   C3A22853   1.172  31.460   7.955
 7168POPC   C4A22854   1.222  31.448   7.655
 7168POPC   C1B22855   0.998  31.656   8.555
 7168POPC   C2B22856   1.089  31.665   8.255
 7168POPC   C3B22857   1.075  31.636   7.955
 7168POPC   C4B22858   1.008  31.633   7.655
 7169POPC   NC322859  19.071  33.024   9.455
 7169POPC   PO422860  19.035  33.070   9.155
 7169POPC   GL122861  19.040  32.991   8.855
 7169POPC   GL222862  19.176  33.042   8.855
 7169POPC   C1A22863  19.056  32.983   8.555
 7169POPC   D2A22864  19.031  33.016   8.255
 7169POPC   C3A22865  19.095  33.028   7.955
 7169POPC   C4A22866  19.082  33.028   7.655
 7169POPC   C1B22867  19.286  33.056   8.555
 7169POPC   C2B22868  19.263  33.090   8.255
 7169POPC   C3B22869  19.315  33.056   7.955
 7169POPC   C4B22870  19.343  33.083   7.655
 7170POPC   NC322871   1.247  19.064   9.455
 7170POPC   PO422872   1.183  19.028   9.155
 7170POPC   GL122873   1.261  19.012   8.855
 7170POPC   GL222874   1.170  18.925   8.855
 7170POPC   C1A22875   1.179  19.070   8.555
 7170POPC   D2A22876   1.193  19.102   8.255
 7170POPC   C3A22877   1.228  19.095   7.955
 7170POPC   C4A22878   1.182  19.032   7.655
 7170POPC   C1B22879   1.155  18.821   8.555
 7170POPC   C2B22880   1.097  18.809   8.255
 7170POPC   C3B22881   1.117  18.849   7.955
 7170POPC   C4B22882   1.140  18.813   7.655
 7171POPC   NC322883  42.298  11.295   9.455
 7171POPC   PO422884  42.285  11.315   9.155
 7171POPC   GL122885  42.342  11.280   8.855
 7171POPC   GL222886  42.330  11.388   8.855
 7171POPC   C1A22887  42.361  11.332   8.555
 7171POPC   D2A22888  42.322  11.339   8.255
 7171POPC   C3A22889  42.333  11.269   7.955
 7171POPC   C4A22890  42.304  11.340   7.655
 7171POPC   C1B22891  42.241  11.543   8.555
 7171POPC   C2B22892  42.230  11.484   8.255
 7171POPC   C3B22893  42.204  11.579   7.955
 7171POPC   C4B22894  42.191  11.491   7.655
 7172POPC   NC322895  23.675   4.281   9.455
 7172POPC   PO422896  23.706   4.362   9.155
 7172POPC   GL122897  23.674   4.286   8.855
 7172POPC   GL222898  23.802   4.214   8.855
 7172POPC   C1A22899  23.710   4.304   8.555
 7172POPC   D2A22900  23.752   4.296   8.255
 7172POPC   C3A22901  23.730   4.292   7.955
 7172POPC   C4A22902  23.686   4.326   7.655
 7172POPC   C1B22903  23.886   4.127   8.555
 7172POPC   C2B22904  23.826   4.146   8.255
 7172POPC   C3B22905  23.851   4.093   7.955
 7172POPC   C4B22906  23.891   4.071   7.655
 7173POPC   NC322907  25.297   2.019   9.455
 7173POPC   PO422908  25.277   1.952   9.155
 7173POPC   GL122909  25.273   1.949   8.855
 7173POPC   GL222910  25.109   1.984   8.855
 7173POPC   C1A22911  25.249   1.966   8.555
 7173POPC   D2A22912  25.216   1.968   8.255
 7173POPC   C3A22913  25.252   1.975   7.955
 7173POPC   C4A22914  25.236   1.941   7.655
 7173POPC   C1B22915  25.070   2.086   8.555
 7173POPC   C2B22916  25.027   2.070   8.255
 7173POPC   C3B22917  25.011   2.049   7.955
 7173POPC   C4B22918  25.009   2.069   7.655
 7174POPC   NC322919  33.805   5.141   9.455
 7174POPC   PO422920  33.846   5.092   9.155
 7174POPC   GL122921  33.761   5.140   8.855
 7174POPC   GL222922  33.797   5.014   8.855
 7174POPC   C1A22923  33.754   5.047   8.555
 7174POPC   D2A22924  33.761   5.120   8.255
 7174POPC   C3A22925  33.779   5.137   7.955
 7174POPC   C4A22926  33.789   5.109   7.655
 7174POPC   C1B22927  33.794   4.814   8.555
 7174POPC   C2B22928  33.748   4.830   8.255
 7174POPC   C3B22929  33.791   4.892   7.955
 7174POPC   C4B22930  33.803   4.884   7.655
 7175POPC   NC322931   9.010   6.663   9.455
 7175POPC   PO422932   8.978   6.626   9.155
 7175POPC   GL122933   8.938   6.665   8.855
 7175POPC   GL222934   9.072   6.625   8.855
 7175POPC   C1A22935   8.964   6.628   8.555
 7175POPC   D2A22936   8.989   6.634   8.255
 7175POPC   C3A22937   8.956   6.605   7.955
 7175POPC   C4A22938   8.995   6.624   7.655
 7175POPC   C1B22939   9.219   6.704   8.555
 7175POPC   C2B22940   9.227   6.704   8.255
 7175POPC   C3B22941   9.244   6.661   7.955
 7175POPC   C4B22942   9.233   6.680   7.655
 7176POPC   NC322943  12.895  22.913   9.455
 7176POPC   PO422944  12.842  22.954   9.155
 7176POPC   GL122945  12.845  22.976   8.855
 7176POPC   GL222946  12.712  22.966   8.855
 7176POPC   C1A22947  12.886  22.918   8.555
 7176POPC   D2A22948  12.881  22.957   8.255
 7176POPC   C3A22949  12.816  22.954   7.955
 7176POPC   C4A22950  12.845  22.914   7.655
 7176POPC   C1B22951  12.615  22.955   8.555
 7176POPC   C2B22952  12.616  23.030   8.255
 7176POPC   C3B22953  12.587  23.037   7.955
 7176POPC   C4B22954  12.626  22.944   7.655
 7177POPC   NC322955   9.014   9.715   9.455
 7177POPC   PO422956   8.930   9.750   9.155
 7177POPC   GL122957   8.931   9.762   8.855
 7177POPC   GL222958   8.984   9.614   8.855
 7177POPC   C1A22959   8.984   9.740   8.555
 7177POPC   D2A22960   8.963   9.745   8.255
 7177POPC   C3A22961   8.979   9.730   7.955
 7177POPC   C4A22962   9.016   9.734   7.655
 7177POPC   C1B22963   9.063   9.517   8.555
 7177POPC   C2B22964   9.034   9.509   8.255
 7177POPC   C3B22965   9.089   9.546   7.955
 7177POPC   C4B22966   9.047   9.481   7.655
 7178POPC   NC322967  31.467   7.451   9.455
 7178POPC   PO422968  31.500   7.449   9.155
 7178POPC   GL122969  31.430   7.445   8.855
 7178POPC   GL222970  31.504   7.512   8.855
 7178POPC   C1A22971  31.514   7.454   8.555
 7178POPC   D2A22972  31.500   7.415   8.255
 7178POPC   C3A22973  31.473   7.396   7.955
 7178POPC   C4A22974  31.483   7.449   7.655
 7178POPC   C1B22975  31.557   7.664   8.555
 7178POPC   C2B22976  31.537   7.703   8.255
 7178POPC   C3B22977  31.596   7.676   7.955
 7178POPC   C4B22978  31.508   7.639   7.655
 7179POPC   NC322979   0.481  44.668   9.455
 7179POPC   PO422980   0.463  44.677   9.155
 7179POPC   GL122981   0.487  44.688   8.855
 7179POPC   GL222982   0.359  44.716   8.855
 7179POPC   C1A22983   0.455  44.668   8.555
 7179POPC   D2A22984   0.395  44.705   8.255
 7179POPC   C3A22985   0.450  44.666   7.955
 7179POPC   C4A22986   0.399  44.669   7.655
 7179POPC   C1B22987   0.154  44.678   8.555
 7179POPC   C2B22988   0.210  44.663   8.255
 7179POPC   C3B22989   0.143  44.678   7.955
 7179POPC   C4B22990   0.166  44.685   7.655
 7180POPC   NC322991   6.606  37.680   9.455
 7180POPC   PO422992   6.683  37.728   9.155
 7180POPC   GL122993   6.623  37.702   8.855
 7180POPC   GL222994   6.619  37.529   8.855
 7180POPC   C1A22995   6.687  37.675   8.555
 7180POPC   D2A22996   6.687  37.724   8.255
 7180POPC   C3A22997   6.609  37.683   7.955
 7180POPC   C4A22998   6.610  37.698   7.655
 7180POPC   C1B22999   6.674  37.387   8.555
 7180POPC   C2B23000   6.665  37.427   8.255
 7180POPC   C3B23001   6.600  37.459   7.955
 7180POPC   C4B23002   6.650  37.465   7.655
 7181POPC   NC323003  43.145  22.970   9.455
 7181POPC   PO423004  43.159  22.890   9.155
 7181POPC   GL123005  43.128  22.929   8.855
 7181POPC   GL223006  43.141  22.809   8.855
 7181POPC   C1A23007  43.109  22.922   8.555
 7181POPC   D2A23008  43.140  22.985   8.255
 7181POPC   C3A23009  43.065  22.928   7.955
 7181POPC   C4A23010  43.101  22.986   7.655
 7181POPC   C1B23011  43.175  22.731   8.555
 7181POPC   C2B23012  43.193  22.669   8.255
 7181POPC   C3B23013  43.188  22.653   7.955
 7181POPC   C4B23014  43.173  22.680   7.655
 7182POPC   NC323015  14.361  31.436   9.455
 7182POPC   PO423016  14.369  31.439   9.155
 7182POPC   GL123017  14.378  31.516   8.855
 7182POPC   GL223018  14.305  31.518   8.855
 7182POPC   C1A23019  14.414  31.496   8.555
 7182POPC   D2A23020  14.362  31.517   8.255
 7182POPC   C3A23021  14.368  31.518   7.955
 7182POPC   C4A23022  14.422  31.454   7.655
 7182POPC   C1B23023  14.157  31.579   8.555
 7182POPC   C2B23024  14.156  31.623   8.255
 7182POPC   C3B23025  14.196  31.622   7.955
 7182POPC   C4B23026  14.160  31.544   7.655
 7183POPC   NC323027  38.443  28.364   9.455
 7183POPC   PO423028  38.443  28.412   9.155
 7183POPC   GL123029  38.482  28.374   8.855
 7183POPC   GL223030  38.598  28.353   8.855
 7183POPC   C1A23031  38.428  28.325   8.555
 7183POPC   D2A23032  38.419  28.362   8.255
 7183POPC   C3A23033  38.436  28.370   7.955
 7183POPC   C4A23034  38.492  28.378   7.655
 7183POPC   C1B23035  38.736  28.315   8.555
 7183POPC   C2B23036  38.671  28.406   8.255
 7183POPC   C3B23037  38.677  28.362   7.955
 7183POPC   C4B23038  38.681  28.384   7.655
 7184POPC   NC323039  29.138  17.508   9.455
 7184POPC   PO423040  29.189  17.549   9.155
 7184POPC   GL123041  29.190  17.527   8.855
 7184POPC   GL223042  28.982  17.414   8.855
 7184POPC   C1A23043  29.158  17.474   8.555
 7184POPC   D2A23044  29.173  17.514   8.255
 7184POPC   C3A23045  29.164  17.463   7.955
 7184POPC   C4A23046  29.132  17.545   7.655
 7184POPC   C1B23047  28.931  17.454   8.555
 7184POPC   C2B23048  28.911  17.443   8.255
 7184POPC   C3B23049  28.909  17.421   7.955
 7184POPC   C4B23050  28.923  17.362   7.655
 7185POPC   NC323051  10.555  42.298   9.455
 7185POPC   PO423052  10.505  42.345   9.155
 7185POPC   GL123053  10.553  42.329   8.855
 7185POPC   GL223054  10.431  42.402   8.855
 7185POPC   C1A23055  10.545  42.337   8.555
 7185POPC   D2A23056  10.491  42.372   8.255
 7185POPC   C3A23057  10.543  42.353   7.955
 7185POPC   C4A23058  10.544  42.383   7.655
 7185POPC   C1B23059  10.373  42.535   8.555
 7185POPC   C2B23060  10.287  42.525   8.255
 7185POPC   C3B23061  10.280  42.528   7.955
 7185POPC   C4B23062  10.319  42.525   7.655
 7186POPC   NC323063   8.173  20.589   9.455
 7186POPC   PO423064   8.178  20.613   9.155
 7186POPC   GL123065   8.208  20.571   8.855
 7186POPC   GL223066   8.070  20.639   8.855
 7186POPC   C1A23067   8.184  20.574   8.555
 7186POPC   D2A23068   8.213  20.619   8.255
 7186POPC   C3A23069   8.184  20.635   7.955
 7186POPC   C4A23070   8.151  20.642   7.655
 7186POPC   C1B23071   7.980  20.696   8.555
 7186POPC   C2B23072   7.970  20.648   8.255
 7186POPC   C3B23073   7.925  20.657   7.955
 7186POPC   C4B23074   7.958  20.669   7.655
 7187POPC   NC323075  28.334  15.984   9.455
 7187POPC   PO423076  28.342  16.002   9.155
 7187POPC   GL123077  28.408  15.916   8.855
 7187POPC   GL223078  28.298  16.111   8.855
 7187POPC   C1A23079  28.352  15.939   8.555
 7187POPC   D2A23080  28.336  15.980   8.255
 7187POPC   C3A23081  28.391  15.937   7.955
 7187POPC   C4A23082  28.408  15.945   7.655
 7187POPC   C1B23083  28.340  16.173   8.555
 7187POPC   C2B23084  28.286  16.174   8.255
 7187POPC   C3B23085  28.293  16.167   7.955
 7187POPC   C4B23086  28.261  16.148   7.655
 7188POPC   NC323087  23.683  31.517   9.455
 7188POPC   PO423088  23.685  31.490   9.155
 7188POPC   GL123089  23.728  31.455   8.855
 7188POPC   GL223090  23.763  31.577   8.855
 7188POPC   C1A23091  23.754  31.502   8.555
 7188POPC   D2A23092  23.731  31.433   8.255
 7188POPC   C3A23093  23.734  31.489   7.955
 7188POPC   C4A23094  23.709  31.444   7.655
 7188POPC   C1B23095  23.765  31.720   8.555
 7188POPC   C2B23096  23.720  31.718   8.255
 7188POPC   C3B23097  23.711  31.717   7.955
 7188POPC   C4B23098  23.705  31.738   7.655
 7189POPC   NC323099  22.931  29.182   9.455
 7189POPC   PO423100  22.984  29.101   9.155
 7189POPC   GL123101  22.907  29.132   8.855
 7189POPC   GL223102  23.002  29.235   8.855
 7189POPC   C1A23103  22.902  29.134   8.555
 7189POPC   D2A23104  22.927  29.188   8.255
 7189POPC   C3A23105  22.916  29.161   7.955
 7189POPC   C4A23106  22.900  29.136   7.655
 7189POPC   C1B23107  23.157  29.299   8.555
 7189POPC   C2B23108  23.099  29.283   8.255
 7189POPC   C3B23109  23.092  29.355   7.955
 7189POPC   C4B23110  23.140  29.372   7.655
 7190POPC   NC323111  21.351  26.039   9.455
 7190POPC   PO423112  21.344  26.033   9.155
 7190POPC   GL123113  21.422  26.073   8.855
 7190POPC   GL223114  21.267  26.072   8.855
 7190POPC   C1A23115  21.372  26.025   8.555
 7190POPC   D2A23116  21.341  26.063   8.255
 7190POPC   C3A23117  21.343  26.036   7.955
 7190POPC   C4A23118  21.393  26.007   7.655
 7190POPC   C1B23119  21.173  26.243   8.555
 7190POPC   C2B23120  21.185  26.194   8.255
 7190POPC   C3B23121  21.190  26.199   7.955
 7190POPC   C4B23122  21.165  26.179   7.655
 7191POPC   NC323123  33.798   7.407   9.455
 7191POPC   PO423124  33.759   7.470   9.155
 7191POPC   GL123125  33.790   7.444   8.855
 7191POPC   GL223126  33.750   7.309   8.855
 7191POPC   C1A23127  33.790   7.415   8.555
 7191POPC   D2A23128  33.787   7.373   8.255
 7191POPC   C3A23129  33.771   7.413   7.955
 7191POPC   C4A23130  33.802   7.446   7.655
 7191POPC   C1B23131  33.744   7.223   8.555
 7191POPC   C2B23132  33.756   7.202   8.255
 7191POPC   C3B23133  33.731   7.213   7.955
 7191POPC   C4B23134  33.721   7.159   7.655
 7192POPC   NC323135   7.408   5.140   9.455
 7192POPC   PO423136   7.433   5.083   9.155
 7192POPC   GL123137   7.382   5.107   8.855
 7192POPC   GL223138   7.467   4.975   8.855
 7192POPC   C1A23139   7.399   5.060   8.555
 7192POPC   D2A23140   7.378   5.140   8.255
 7192POPC   C3A23141   7.381   5.095   7.955
 7192POPC   C4A23142   7.448   5.074   7.655
 7192POPC   C1B23143   7.517   4.878   8.555
 7192POPC   C2B23144   7.483   4.844   8.255
 7192POPC   C3B23145   7.514   4.867   7.955
 7192POPC   C4B23146   7.498   4.859   7.655
 7193POPC   NC323147  41.510  42.295   9.455
 7193POPC   PO423148  41.525  42.348   9.155
 7193POPC   GL123149  41.570  42.326   8.855
 7193POPC   GL223150  41.536  42.223   8.855
 7193POPC   C1A23151  41.598  42.358   8.555
 7193POPC   D2A23152  41.606  42.360   8.255
 7193POPC   C3A23153  41.544  42.359   7.955
 7193POPC   C4A23154  41.580  42.377   7.655
 7193POPC   C1B23155  41.508  42.135   8.555
 7193POPC   C2B23156  41.567  42.066   8.255
 7193POPC   C3B23157  41.544  42.128   7.955
 7193POPC   C4B23158  41.511  42.120   7.655
 7194POPC   NC323159  34.546  19.855   9.455
 7194POPC   PO423160  34.560  19.851   9.155
 7194POPC   GL123161  34.582  19.810   8.855
 7194POPC   GL223162  34.553  19.715   8.855
 7194POPC   C1A23163  34.542  19.792   8.555
 7194POPC   D2A23164  34.604  19.859   8.255
 7194POPC   C3A23165  34.602  19.850   7.955
 7194POPC   C4A23166  34.574  19.806   7.655
 7194POPC   C1B23167  34.457  19.580   8.555
 7194POPC   C2B23168  34.487  19.608   8.255
 7194POPC   C3B23169  34.528  19.576   7.955
 7194POPC   C4B23170  34.491  19.577   7.655
 7195POPC   NC323171   4.362  19.024   9.455
 7195POPC   PO423172   4.300  19.070   9.155
 7195POPC   GL123173   4.350  19.052   8.855
 7195POPC   GL223174   4.281  19.189   8.855
 7195POPC   C1A23175   4.364  19.052   8.555
 7195POPC   D2A23176   4.349  19.053   8.255
 7195POPC   C3A23177   4.297  19.108   7.955
 7195POPC   C4A23178   4.274  19.029   7.655
 7195POPC   C1B23179   4.185  19.276   8.555
 7195POPC   C2B23180   4.160  19.279   8.255
 7195POPC   C3B23181   4.159  19.287   7.955
 7195POPC   C4B23182   4.125  19.275   7.655
 7196POPC   NC323183  35.345  29.872   9.455
 7196POPC   PO423184  35.319  29.913   9.155
 7196POPC   GL123185  35.393  29.891   8.855
 7196POPC   GL223186  35.327  29.827   8.855
 7196POPC   C1A23187  35.340  29.959   8.555
 7196POPC   D2A23188  35.394  29.961   8.255
 7196POPC   C3A23189  35.360  29.884   7.955
 7196POPC   C4A23190  35.349  29.871   7.655
 7196POPC   C1B23191  35.391  29.647   8.555
 7196POPC   C2B23192  35.355  29.683   8.255
 7196POPC   C3B23193  35.372  29.707   7.955
 7196POPC   C4B23194  35.378  29.711   7.655
 7197POPC   NC323195  36.149  22.979   9.455
 7197POPC   PO423196  36.107  22.941   9.155
 7197POPC   GL123197  36.136  22.944   8.855
 7197POPC   GL223198  36.243  22.859   8.855
 7197POPC   C1A23199  36.153  22.898   8.555
 7197POPC   D2A23200  36.122  22.902   8.255
 7197POPC   C3A23201  36.158  22.986   7.955
 7197POPC   C4A23202  36.099  22.970   7.655
 7197POPC   C1B23203  36.328  22.808   8.555
 7197POPC   C2B23204  36.339  22.766   8.255
 7197POPC   C3B23205  36.277  22.777   7.955
 7197POPC   C4B23206  36.284  22.794   7.655
 7198POPC   NC323207   8.939  29.923   9.455
 7198POPC   PO423208   9.003  29.885   9.155
 7198POPC   GL123209   9.002  29.878   8.855
 7198POPC   GL223210   8.816  29.908   8.855
 7198POPC   C1A23211   9.020  29.959   8.555
 7198POPC   D2A23212   8.978  29.913   8.255
 7198POPC   C3A23213   8.960  29.935   7.955
 7198POPC   C4A23214   8.944  29.924   7.655
 7198POPC   C1B23215   8.736  29.944   8.555
 7198POPC   C2B23216   8.682  29.991   8.255
 7198POPC   C3B23217   8.701  29.930   7.955
 7198POPC   C4B23218   8.752  29.966   7.655
 7199POPC   NC323219  36.142  28.362   9.455
 7199POPC   PO423220  36.083  28.393   9.155
 7199POPC   GL123221  36.103  28.413   8.855
 7199POPC   GL223222  35.989  28.429   8.855
 7199POPC   C1A23223  36.173  28.370   8.555
 7199POPC   D2A23224  36.098  28.331   8.255
 7199POPC   C3A23225  36.108  28.322   7.955
 7199POPC   C4A23226  36.117  28.334   7.655
 7199POPC   C1B23227  35.900  28.401   8.555
 7199POPC   C2B23228  35.832  28.377   8.255
 7199POPC   C3B23229  35.838  28.402   7.955
 7199POPC   C4B23230  35.865  28.364   7.655
 7200POPC   NC323231  37.672  10.564   9.455
 7200POPC   PO423232  37.636  10.476   9.155
 7200POPC   GL123233  37.706  10.529   8.855
 7200POPC   GL223234  37.680  10.609   8.855
 7200POPC   C1A23235  37.661  10.525   8.555
 7200POPC   D2A23236  37.712  10.487   8.255
 7200POPC   C3A23237  37.662  10.561   7.955
 7200POPC   C4A23238  37.671  10.512   7.655
 7200POPC   C1B23239  37.703  10.799   8.555
 7200POPC   C2B23240  37.692  10.754   8.255
 7200POPC   C3B23241  37.757  10.792   7.955
 7200POPC   C4B23242  37.726  10.743   7.655
 7201POPC   NC323243  16.747  36.094   9.455
 7201POPC   PO423244  16.778  36.083   9.155
 7201POPC   GL123245  16.725  36.152   8.855
 7201POPC   GL223246  16.853  35.995   8.855
 7201POPC   C1A23247  16.759  36.125   8.555
 7201POPC   D2A23248  16.741  36.124   8.255
 7201POPC   C3A23249  16.690  36.109   7.955
 7201POPC   C4A23250  16.704  36.122   7.655
 7201POPC   C1B23251  16.934  35.913   8.555
 7201POPC   C2B23252  16.861  35.974   8.255
 7201POPC   C3B23253  16.902  35.927   7.955
 7201POPC   C4B23254  16.860  35.954   7.655
 7202POPC   NC323255  28.347  32.261   9.455
 7202POPC   PO423256  28.394  32.282   9.155
 7202POPC   GL123257  28.345  32.205   8.855
 7202POPC   GL223258  28.275  32.210   8.855
 7202POPC   C1A23259  28.380  32.274   8.555
 7202POPC   D2A23260  28.361  32.261   8.255
 7202POPC   C3A23261  28.387  32.293   7.955
 7202POPC   C4A23262  28.344  32.229   7.655
 7202POPC   C1B23263  28.120  32.176   8.555
 7202POPC   C2B23264  28.108  32.212   8.255
 7202POPC   C3B23265  28.156  32.208   7.955
 7202POPC   C4B23266  28.153  32.214   7.655
 7203POPC   NC323267  23.678  26.790   9.455
 7203POPC   PO423268  23.745  26.825   9.155
 7203POPC   GL123269  23.713  26.831   8.855
 7203POPC   GL223270  23.744  26.948   8.855
 7203POPC   C1A23271  23.726  26.774   8.555
 7203POPC   D2A23272  23.706  26.781   8.255
 7203POPC   C3A23273  23.675  26.809   7.955
 7203POPC   C4A23274  23.681  26.783   7.655
 7203POPC   C1B23275  23.820  27.099   8.555
 7203POPC   C2B23276  23.810  27.061   8.255
 7203POPC   C3B23277  23.811  27.035   7.955
 7203POPC   C4B23278  23.756  27.059   7.655
 7204POPC   NC323279  33.020  15.958   9.455
 7204POPC   PO423280  33.040  15.981   9.155
 7204POPC   GL123281  33.014  15.913   8.855
 7204POPC   GL223282  33.096  15.871   8.855
 7204POPC   C1A23283  33.065  15.914   8.555
 7204POPC   D2A23284  33.056  16.005   8.255
 7204POPC   C3A23285  32.991  16.001   7.955
 7204POPC   C4A23286  33.033  15.954   7.655
 7204POPC   C1B23287  33.250  15.835   8.555
 7204POPC   C2B23288  33.243  15.841   8.255
 7204POPC   C3B23289  33.257  15.793   7.955
 7204POPC   C4B23290  33.255  15.846   7.655
 7205POPC   NC323291  25.251  22.129   9.455
 7205POPC   PO423292  25.240  22.168   9.155
 7205POPC   GL123293  25.300  22.184   8.855
 7205POPC   GL223294  25.217  22.045   8.855
 7205POPC   C1A23295  25.263  22.138   8.555
 7205POPC   D2A23296  25.260  22.181   8.255
 7205POPC   C3A23297  25.269  22.158   7.955
 7205POPC   C4A23298  25.250  22.195   7.655
 7205POPC   C1B23299  25.084  22.027   8.555
 7205POPC   C2B23300  25.047  22.002   8.255
 7205POPC   C3B23301  25.075  21.949   7.955
 7205POPC   C4B23302  25.098  21.943   7.655
 7206POPC   NC323303  26.850   4.313   9.455
 7206POPC   PO423304  26.826   4.286   9.155
 7206POPC   GL123305  26.813   4.295   8.855
 7206POPC   GL223306  26.932   4.241   8.855
 7206POPC   C1A23307  26.829   4.315   8.555
 7206POPC   D2A23308  26.808   4.365   8.255
 7206POPC   C3A23309  26.804   4.313   7.955
 7206POPC   C4A23310  26.860   4.318   7.655
 7206POPC   C1B23311  26.980   4.140   8.555
 7206POPC   C2B23312  26.973   4.164   8.255
 7206POPC   C3B23313  26.974   4.109   7.955
 7206POPC   C4B23314  26.965   4.105   7.655
 7207POPC   NC323315  15.152  25.282   9.455
 7207POPC   PO423316  15.170  25.227   9.155
 7207POPC   GL123317  15.158  25.270   8.855
 7207POPC   GL223318  15.120  25.181   8.855
 7207POPC   C1A23319  15.145  25.257   8.555
 7207POPC   D2A23320  15.141  25.274   8.255
 7207POPC   C3A23321  15.149  25.275   7.955
 7207POPC   C4A23322  15.186  25.232   7.655
 7207POPC   C1B23323  15.155  25.057   8.555
 7207POPC   C2B23324  15.122  25.021   8.255
 7207POPC   C3B23325  15.120  25.046   7.955
 7207POPC   C4B23326  15.173  25.014   7.655
 7208POPC   NC323327  26.032  22.137   9.455
 7208POPC   PO423328  26.049  22.196   9.155
 7208POPC   GL123329  26.041  22.134   8.855
 7208POPC   GL223330  26.092  22.029   8.855
 7208POPC   C1A23331  26.055  22.173   8.555
 7208POPC   D2A23332  26.044  22.152   8.255
 7208POPC   C3A23333  26.039  22.149   7.955
 7208POPC   C4A23334  26.025  22.202   7.655
 7208POPC   C1B23335  26.161  21.908   8.555
 7208POPC   C2B23336  26.144  21.928   8.255
 7208POPC   C3B23337  26.148  21.886   7.955
 7208POPC   C4B23338  26.115  21.946   7.655
 7209POPC   NC323339   9.783  19.848   9.455
 7209POPC   PO423340   9.791  19.834   9.155
 7209POPC   GL123341   9.714  19.842   8.855
 7209POPC   GL223342   9.869  19.888   8.855
 7209POPC   C1A23343   9.761  19.860   8.555
 7209POPC   D2A23344   9.767  19.801   8.255
 7209POPC   C3A23345   9.741  19.843   7.955
 7209POPC   C4A23346   9.760  19.788   7.655
 7209POPC   C1B23347   9.962  19.965   8.555
 7209POPC   C2B23348   9.992  19.971   8.255
 7209POPC   C3B23349   9.992  19.967   7.955
 7209POPC   C4B23350   9.912  20.013   7.655
 7210POPC   NC323351   6.687  33.022   9.455
 7210POPC   PO423352   6.616  33.032   9.155
 7210POPC   GL123353   6.685  33.017   8.855
 7210POPC   GL223354   6.537  33.071   8.855
 7210POPC   C1A23355   6.684  33.050   8.555
 7210POPC   D2A23356   6.668  33.035   8.255
 7210POPC   C3A23357   6.688  33.026   7.955
 7210POPC   C4A23358   6.618  33.052   7.655
 7210POPC   C1B23359   6.466  33.117   8.555
 7210POPC   C2B23360   6.444  33.202   8.255
 7210POPC   C3B23361   6.407  33.165   7.955
 7210POPC   C4B23362   6.476  33.122   7.655
 7211POPC   NC323363   3.554  22.960   9.455
 7211POPC   PO423364   3.496  22.933   9.155
 7211POPC   GL123365   3.504  22.928   8.855
 7211POPC   GL223366   3.450  22.955   8.855
 7211POPC   C1A23367   3.511  22.954   8.555
 7211POPC   D2A23368   3.561  22.939   8.255
 7211POPC   C3A23369   3.549  22.941   7.955
 7211POPC   C4A23370   3.567  22.898   7.655
 7211POPC   C1B23371   3.280  22.907   8.555
 7211POPC   C2B23372   3.336  22.875   8.255
 7211POPC   C3B23373   3.275  22.905   7.955
 7211POPC   C4B23374   3.335  22.909   7.655
 7212POPC   NC323375  13.590   0.482   9.455
 7212POPC   PO423376  13.607   0.396   9.155
 7212POPC   GL123377  13.646   0.448   8.855
 7212POPC   GL223378  13.697   0.352   8.855
 7212POPC   C1A23379  13.612   0.396   8.555
 7212POPC   D2A23380  13.586   0.487   8.255
 7212POPC   C3A23381  13.595   0.391   7.955
 7212POPC   C4A23382  13.640   0.404   7.655
 7212POPC   C1B23383  13.853   0.285   8.555
 7212POPC   C2B23384  13.847   0.279   8.255
 7212POPC   C3B23385  13.862   0.344   7.955
 7212POPC   C4B23386  13.864   0.291   7.655
 7213POPC   NC323387  29.149  36.171   9.455
 7213POPC   PO423388  29.111  36.170   9.155
 7213POPC   GL123389  29.166  36.106   8.855
 7213POPC   GL223390  29.219  36.147   8.855
 7213POPC   C1A23391  29.175  36.079   8.555
 7213POPC   D2A23392  29.105  36.128   8.255
 7213POPC   C3A23393  29.189  36.105   7.955
 7213POPC   C4A23394  29.097  36.176   7.655
 7213POPC   C1B23395  29.341  36.240   8.555
 7213POPC   C2B23396  29.409  36.179   8.255
 7213POPC   C3B23397  29.366  36.226   7.955
 7213POPC   C4B23398  29.422  36.195   7.655
 7214POPC   NC323399  28.362  28.358   9.455
 7214POPC   PO423400  28.378  28.334   9.155
 7214POPC   GL123401  28.379  28.324   8.855
 7214POPC   GL223402  28.356  28.497   8.855
 7214POPC   C1A23403  28.360  28.408   8.555
 7214POPC   D2A23404  28.396  28.391   8.255
 7214POPC   C3A23405  28.371  28.404   7.955
 7214POPC   C4A23406  28.342  28.376   7.655
 7214POPC   C1B23407  28.329  28.586   8.555
 7214POPC   C2B23408  28.321  28.570   8.255
 7214POPC   C3B23409  28.321  28.589   7.955
 7214POPC   C4B23410  28.294  28.646   7.655
 7215POPC   NC323411  36.167  10.544   9.455
 7215POPC   PO423412  36.124  10.573   9.155
 7215POPC   GL123413  36.145  10.547   8.855
 7215POPC   GL223414  36.025  10.617   8.855
 7215POPC   C1A23415  36.085  10.560   8.555
 7215POPC   D2A23416  36.082  10.561   8.255
 7215POPC   C3A23417  36.115  10.514   7.955
 7215POPC   C4A23418  36.124  10.480   7.655
 7215POPC   C1B23419  36.025  10.765   8.555
 7215POPC   C2B23420  36.034  10.732   8.255
 7215POPC   C3B23421  35.959  10.713   7.955
 7215POPC   C4B23422  35.979  10.757   7.655
 7216POPC   NC323423  38.418   1.253   9.455
 7216POPC   PO423424  38.478   1.177   9.155
 7216POPC   GL123425  38.430   1.246   8.855
 7216POPC   GL223426  38.495   1.088   8.855
 7216POPC   C1A23427  38.449   1.175   8.555
 7216POPC   D2A23428  38.494   1.173   8.255
 7216POPC   C3A23429  38.462   1.224   7.955
 7216POPC   C4A23430  38.455   1.238   7.655
 7216POPC   C1B23431  38.615   0.981   8.555
 7216POPC   C2B23432  38.599   1.077   8.255
 7216POPC   C3B23433  38.669   1.042   7.955
 7216POPC   C4B23434  38.574   1.000   7.655
 7217POPC   NC323435  39.276   6.682   9.455
 7217POPC   PO423436  39.187   6.644   9.155
 7217POPC   GL123437  39.265   6.667   8.855
 7217POPC   GL223438  39.341   6.725   8.855
 7217POPC   C1A23439  39.207   6.679   8.555
 7217POPC   D2A23440  39.229   6.652   8.255
 7217POPC   C3A23441  39.248   6.622   7.955
 7217POPC   C4A23442  39.238   6.637   7.655
 7217POPC   C1B23443  39.459   6.735   8.555
 7217POPC   C2B23444  39.453   6.751   8.255
 7217POPC   C3B23445  39.485   6.717   7.955
 7217POPC   C4B23446  39.436   6.802   7.655
 7218POPC   NC323447  36.912   8.996   9.455
 7218POPC   PO423448  36.918   8.984   9.155
 7218POPC   GL123449  36.866   8.963   8.855
 7218POPC   GL223450  36.764   8.986   8.855
 7218POPC   C1A23451  36.856   9.014   8.555
 7218POPC   D2A23452  36.864   8.961   8.255
 7218POPC   C3A23453  36.896   8.993   7.955
 7218POPC   C4A23454  36.940   8.971   7.655
 7218POPC   C1B23455  36.638   9.015   8.555
 7218POPC   C2B23456  36.645   8.990   8.255
 7218POPC   C3B23457  36.663   8.955   7.955
 7218POPC   C4B23458  36.637   8.984   7.655
 7219POPC   NC323459  18.262   1.186   9.455
 7219POPC   PO423460  18.246   1.187   9.155
 7219POPC   GL123461  18.243   1.258   8.855
 7219POPC   GL223462  18.357   1.204   8.855
 7219POPC   C1A23463  18.299   1.195   8.555
 7219POPC   D2A23464  18.324   1.196   8.255
 7219POPC   C3A23465  18.284   1.225   7.955
 7219POPC   C4A23466  18.329   1.190   7.655
 7219POPC   C1B23467  18.511   1.256   8.555
 7219POPC   C2B23468  18.568   1.307   8.255
 7219POPC   C3B23469  18.573   1.223   7.955
 7219POPC   C4B23470  18.536   1.234   7.655
 7220POPC   NC323471   5.858   9.748   9.455
 7220POPC   PO423472   5.913   9.740   9.155
 7220POPC   GL123473   5.883   9.756   8.855
 7220POPC   GL223474   5.922   9.827   8.855
 7220POPC   C1A23475   5.894   9.777   8.555
 7220POPC   D2A23476   5.915   9.716   8.255
 7220POPC   C3A23477   5.903   9.767   7.955
 7220POPC   C4A23478   5.886   9.765   7.655
 7220POPC   C1B23479   6.052   9.924   8.555
 7220POPC   C2B23480   5.992   9.918   8.255
 7220POPC   C3B23481   5.992   9.974   7.955
 7220POPC   C4B23482   5.972   9.925   7.655
 7221POPC   NC323483  42.346  14.417   9.455
 7221POPC   PO423484  42.346  14.367   9.155
 7221POPC   GL123485  42.362  14.399   8.855
 7221POPC   GL223486  42.253  14.321   8.855
 7221POPC   C1A23487  42.337  14.403   8.555
 7221POPC   D2A23488  42.312  14.441   8.255
 7221POPC   C3A23489  42.373  14.368   7.955
 7221POPC   C4A23490  42.366  14.442   7.655
 7221POPC   C1B23491  42.121  14.326   8.555
 7221POPC   C2B23492  42.069  14.302   8.255
 7221POPC   C3B23493  42.131  14.296   7.955
 7221POPC   C4B23494  42.100  14.330   7.655
 7222POPC   NC323495  15.177  28.380   9.455
 7222POPC   PO423496  15.213  28.346   9.155
 7222POPC   GL123497  15.217  28.399   8.855
 7222POPC   GL223498  15.163  28.201   8.855
 7222POPC   C1A23499  15.188  28.360   8.555
 7222POPC   D2A23500  15.170  28.352   8.255
 7222POPC   C3A23501  15.198  28.360   7.955
 7222POPC   C4A23502  15.195  28.406   7.655
 7222POPC   C1B23503  15.151  28.092   8.555
 7222POPC   C2B23504  15.165  28.164   8.255
 7222POPC   C3B23505  15.179  28.089   7.955
 7222POPC   C4B23506  15.173  28.076   7.655
 7223POPC   NC323507  12.097  29.142   9.455
 7223POPC   PO423508  12.120  29.139   9.155
 7223POPC   GL123509  12.107  29.141   8.855
 7223POPC   GL223510  11.904  29.103   8.855
 7223POPC   C1A23511  12.084  29.139   8.555
 7223POPC   D2A23512  12.077  29.136   8.255
 7223POPC   C3A23513  12.109  29.193   7.955
 7223POPC   C4A23514  12.070  29.164   7.655
 7223POPC   C1B23515  11.865  29.139   8.555
 7223POPC   C2B23516  11.862  29.185   8.255
 7223POPC   C3B23517  11.871  29.095   7.955
 7223POPC   C4B23518  11.794  29.175   7.655
 7224POPC   NC323519  21.394  43.869   9.455
 7224POPC   PO423520  21.428  43.866   9.155
 7224POPC   GL123521  21.378  43.903   8.855
 7224POPC   GL223522  21.272  43.895   8.855
 7224POPC   C1A23523  21.337  43.925   8.555
 7224POPC   D2A23524  21.380  43.892   8.255
 7224POPC   C3A23525  21.421  43.874   7.955
 7224POPC   C4A23526  21.411  43.869   7.655
 7224POPC   C1B23527  21.163  43.866   8.555
 7224POPC   C2B23528  21.118  43.775   8.255
 7224POPC   C3B23529  21.131  43.790   7.955
 7224POPC   C4B23530  21.103  43.860   7.655
 7225POPC   NC323531  11.259  25.242   9.455
 7225POPC   PO423532  11.332  25.313   9.155
 7225POPC   GL123533  11.315  25.297   8.855
 7225POPC   GL223534  11.391  25.274   8.855
 7225POPC   C1A23535  11.290  25.239   8.555
 7225POPC   D2A23536  11.301  25.291   8.255
 7225POPC   C3A23537  11.342  25.235   7.955
 7225POPC   C4A23538  11.343  25.290   7.655
 7225POPC   C1B23539  11.518  25.397   8.555
 7225POPC   C2B23540  11.527  25.344   8.255
 7225POPC   C3B23541  11.478  25.400   7.955
 7225POPC   C4B23542  11.515  25.381   7.655
 7226POPC   NC323543  10.544  36.908   9.455
 7226POPC   PO423544  10.505  36.934   9.155
 7226POPC   GL123545  10.545  36.890   8.855
 7226POPC   GL223546  10.593  36.839   8.855
 7226POPC   C1A23547  10.544  36.917   8.555
 7226POPC   D2A23548  10.558  36.869   8.255
 7226POPC   C3A23549  10.552  36.889   7.955
 7226POPC   C4A23550  10.524  36.884   7.655
 7226POPC   C1B23551  10.783  36.775   8.555
 7226POPC   C2B23552  10.753  36.777   8.255
 7226POPC   C3B23553  10.732  36.810   7.955
 7226POPC   C4B23554  10.716  36.732   7.655
 7227POPC   NC323555   6.627   7.452   9.455
 7227POPC   PO423556   6.603   7.390   9.155
 7227POPC   GL123557   6.606   7.431   8.855
 7227POPC   GL223558   6.636   7.296   8.855
 7227POPC   C1A23559   6.653   7.447   8.555
 7227POPC   D2A23560   6.607   7.447   8.255
 7227POPC   C3A23561   6.612   7.409   7.955
 7227POPC   C4A23562   6.596   7.398   7.655
 7227POPC   C1B23563   6.548   7.146   8.555
 7227POPC   C2B23564   6.541   7.205   8.255
 7227POPC   C3B23565   6.541   7.164   7.955
 7227POPC   C4B23566   6.559   7.224   7.655
 7228POPC   NC323567  31.513   1.182   9.455
 7228POPC   PO423568  31.457   1.168   9.155
 7228POPC   GL123569  31.490   1.181   8.855
 7228POPC   GL223570  31.535   1.070   8.855
 7228POPC   C1A23571  31.456   1.213   8.555
 7228POPC   D2A23572  31.448   1.255   8.255
 7228POPC   C3A23573  31.468   1.208   7.955
 7228POPC   C4A23574  31.459   1.191   7.655
 7228POPC   C1B23575  31.537   1.025   8.555
 7228POPC   C2B23576  31.520   0.972   8.255
 7228POPC   C3B23577  31.586   0.961   7.955
 7228POPC   C4B23578  31.515   0.969   7.655
 7229POPC   NC323579  43.923  20.600   9.455
 7229POPC   PO423580  43.873  20.593   9.155
 7229POPC   GL123581  43.936  20.591   8.855
 7229POPC   GL223582  43.901  20.752   8.855
 7229POPC   C1A23583  43.933  20.595   8.555
 7229POPC   D2A23584  43.857  20.593   8.255
 7229POPC   C3A23585  43.874  20.659   7.955
 7229POPC   C4A23586  43.901  20.642   7.655
 7229POPC   C1B23587  43.928  20.869   8.555
 7229POPC   C2B23588  43.968  20.868   8.255
 7229POPC   C3B23589  43.911  20.893   7.955
 7229POPC   C4B23590  43.911  20.873   7.655
 7230POPC   NC323591  40.039  14.392   9.455
 7230POPC   PO423592  39.990  14.364   9.155
 7230POPC   GL123593  40.009  14.445   8.855
 7230POPC   GL223594  40.138  14.451   8.855
 7230POPC   C1A23595  39.974  14.420   8.555
 7230POPC   D2A23596  39.970  14.451   8.255
 7230POPC   C3A23597  39.960  14.427   7.955
 7230POPC   C4A23598  40.056  14.381   7.655
 7230POPC   C1B23599  40.192  14.515   8.555
 7230POPC   C2B23600  40.257  14.475   8.255
 7230POPC   C3B23601  40.287  14.450   7.955
 7230POPC   C4B23602  40.223  14.505   7.655
 7231POPC   NC323603  11.271  10.543   9.455
 7231POPC   PO423604  11.252  10.493   9.155
 7231POPC   GL123605  11.263  10.514   8.855
 7231POPC   GL223606  11.266  10.677   8.855
 7231POPC   C1A23607  11.265  10.560   8.555
 7231POPC   D2A23608  11.280  10.495   8.255
 7231POPC   C3A23609  11.271  10.488   7.955
 7231POPC   C4A23610  11.339  10.527   7.655
 7231POPC   C1B23611  11.155  10.748   8.555
 7231POPC   C2B23612  11.197  10.721   8.255
 7231POPC   C3B23613  11.130  10.767   7.955
 7231POPC   C4B23614  11.216  10.760   7.655
 7232POPC   NC323615  13.667  27.599   9.455
 7232POPC   PO423616  13.665  27.614   9.155
 7232POPC   GL123617  13.586  27.562   8.855
 7232POPC   GL223618  13.579  27.667   8.855
 7232POPC   C1A23619  13.655  27.631   8.555
 7232POPC   D2A23620  13.667  27.596   8.255
 7232POPC   C3A23621  13.668  27.596   7.955
 7232POPC   C4A23622  13.605  27.549   7.655
 7232POPC   C1B23623  13.470  27.803   8.555
 7232POPC   C2B23624  13.506  27.767   8.255
 7232POPC   C3B23625  13.511  27.801   7.955
 7232POPC   C4B23626  13.492  27.776   7.655
 7233POPC   NC323627  27.601  44.671   9.455
 7233POPC   PO423628  27.606  44.631   9.155
 7233POPC   GL123629  27.558  44.709   8.855
 7233POPC   GL223630  27.621  44.555   8.855
 7233POPC   C1A23631  27.564  44.702   8.555
 7233POPC   D2A23632  27.615  44.689   8.255
 7233POPC   C3A23633  27.569  44.653   7.955
 7233POPC   C4A23634  27.617  44.668   7.655
 7233POPC   C1B23635  27.730  44.388   8.555
 7233POPC   C2B23636  27.688  44.407   8.255
 7233POPC   C3B23637  27.699  44.471   7.955
 7233POPC   C4B23638  27.720  44.446   7.655
 7234POPC   NC323639  10.491  39.968   9.455
 7234POPC   PO423640  10.557  40.048   9.155
 7234POPC   GL123641  10.502  40.038   8.855
 7234POPC   GL223642  10.543  40.071   8.855
 7234POPC   C1A23643  10.558  39.983   8.555
 7234POPC   D2A23644  10.513  39.984   8.255
 7234POPC   C3A23645  10.536  40.039   7.955
 7234POPC   C4A23646  10.517  40.017   7.655
 7234POPC   C1B23647  10.607  40.229   8.555
 7234POPC   C2B23648  10.602  40.192   8.255
 7234POPC   C3B23649  10.664  40.244   7.955
 7234POPC   C4B23650  10.635  40.221   7.655
 7235POPC   NC323651   8.214   5.856   9.455
 7235POPC   PO423652   8.194   5.837   9.155
 7235POPC   GL123653   8.163   5.872   8.855
 7235POPC   GL223654   8.183   5.774   8.855
 7235POPC   C1A23655   8.203   5.913   8.555
 7235POPC   D2A23656   8.187   5.838   8.255
 7235POPC   C3A23657   8.215   5.853   7.955
 7235POPC   C4A23658   8.185   5.842   7.655
 7235POPC   C1B23659   8.115   5.601   8.555
 7235POPC   C2B23660   8.053   5.658   8.255
 7235POPC   C3B23661   8.113   5.624   7.955
 7235POPC   C4B23662   8.097   5.690   7.655
 7236POPC   NC323663  26.053  29.137   9.455
 7236POPC   PO423664  26.075  29.145   9.155
 7236POPC   GL123665  26.040  29.128   8.855
 7236POPC   GL223666  25.947  29.262   8.855
 7236POPC   C1A23667  26.007  29.181   8.555
 7236POPC   D2A23668  26.060  29.181   8.255
 7236POPC   C3A23669  26.005  29.105   7.955
 7236POPC   C4A23670  26.059  29.171   7.655
 7236POPC   C1B23671  25.883  29.357   8.555
 7236POPC   C2B23672  25.909  29.355   8.255
 7236POPC   C3B23673  25.886  29.327   7.955
 7236POPC   C4B23674  25.853  29.373   7.655
 7237POPC   NC323675   8.201  33.054   9.455
 7237POPC   PO423676   8.188  33.027   9.155
 7237POPC   GL123677   8.174  33.008   8.855
 7237POPC   GL223678   8.105  33.108   8.855
 7237POPC   C1A23679   8.187  33.024   8.555
 7237POPC   D2A23680   8.211  33.008   8.255
 7237POPC   C3A23681   8.241  33.017   7.955
 7237POPC   C4A23682   8.168  33.021   7.655
 7237POPC   C1B23683   7.983  33.129   8.555
 7237POPC   C2B23684   7.941  33.098   8.255
 7237POPC   C3B23685   7.958  33.151   7.955
 7237POPC   C4B23686   7.928  33.134   7.655
 7238POPC   NC323687  16.682  10.530   9.455
 7238POPC   PO423688  16.755  10.572   9.155
 7238POPC   GL123689  16.698  10.503   8.855
 7238POPC   GL223690  16.839  10.500   8.855
 7238POPC   C1A23691  16.721  10.499   8.555
 7238POPC   D2A23692  16.733  10.497   8.255
 7238POPC   C3A23693  16.772  10.533   7.955
 7238POPC   C4A23694  16.751  10.522   7.655
 7238POPC   C1B23695  16.970  10.429   8.555
 7238POPC   C2B23696  17.020  10.484   8.255
 7238POPC   C3B23697  16.923  10.460   7.955
 7238POPC   C4B23698  17.013  10.499   7.655
 7239POPC   NC323699   7.468   8.219   9.455
 7239POPC   PO423700   7.397   8.221   9.155
 7239POPC   GL123701   7.409   8.235   8.855
 7239POPC   GL223702   7.526   8.155   8.855
 7239POPC   C1A23703   7.394   8.150   8.555
 7239POPC   D2A23704   7.469   8.164   8.255
 7239POPC   C3A23705   7.450   8.199   7.955
 7239POPC   C4A23706   7.457   8.188   7.655
 7239POPC   C1B23707   7.627   8.047   8.555
 7239POPC   C2B23708   7.552   8.010   8.255
 7239POPC   C3B23709   7.574   8.060   7.955
 7239POPC   C4B23710   7.550   8.011   7.655
 7240POPC   NC323711   6.630   6.617   9.455
 7240POPC   PO423712   6.683   6.616   9.155
 7240POPC   GL123713   6.658   6.645   8.855
 7240POPC   GL223714   6.708   6.546   8.855
 7240POPC   C1A23715   6.690   6.689   8.555
 7240POPC   D2A23716   6.633   6.691   8.255
 7240POPC   C3A23717   6.656   6.683   7.955
 7240POPC   C4A23718   6.611   6.616   7.655
 7240POPC   C1B23719   6.821   6.472   8.555
 7240POPC   C2B23720   6.776   6.485   8.255
 7240POPC   C3B23721   6.762   6.419   7.955
 7240POPC   C4B23722   6.836   6.492   7.655
 7241POPC   NC323723  21.370   5.084   9.455
 7241POPC   PO423724  21.344   5.113   9.155
 7241POPC   GL123725  21.407   5.126   8.855
 7241POPC   GL223726  21.392   4.983   8.855
 7241POPC   C1A23727  21.341   5.126   8.555
 7241POPC   D2A23728  21.377   5.057   8.255
 7241POPC   C3A23729  21.400   5.051   7.955
 7241POPC   C4A23730  21.376   5.077   7.655
 7241POPC   C1B23731  21.413   4.808   8.555
 7241POPC   C2B23732  21.432   4.901   8.255
 7241POPC   C3B23733  21.461   4.843   7.955
 7241POPC   C4B23734  21.426   4.849   7.655
 7242POPC   NC323735  31.502  19.012   9.455
 7242POPC   PO423736  31.471  19.048   9.155
 7242POPC   GL123737  31.491  19.074   8.855
 7242POPC   GL223738  31.636  19.054   8.855
 7242POPC   C1A23739  31.492  19.009   8.555
 7242POPC   D2A23740  31.497  19.022   8.255
 7242POPC   C3A23741  31.505  19.104   7.955
 7242POPC   C4A23742  31.497  19.061   7.655
 7242POPC   C1B23743  31.729  19.049   8.555
 7242POPC   C2B23744  31.699  18.981   8.255
 7242POPC   C3B23745  31.742  19.009   7.955
 7242POPC   C4B23746  31.708  19.000   7.655
 7243POPC   NC323747  26.799  26.777   9.455
 7243POPC   PO423748  26.782  26.827   9.155
 7243POPC   GL123749  26.860  26.828   8.855
 7243POPC   GL223750  26.826  26.897   8.855
 7243POPC   C1A23751  26.858  26.817   8.555
 7243POPC   D2A23752  26.782  26.842   8.255
 7243POPC   C3A23753  26.804  26.770   7.955
 7243POPC   C4A23754  26.807  26.788   7.655
 7243POPC   C1B23755  26.879  27.060   8.555
 7243POPC   C2B23756  26.927  27.048   8.255
 7243POPC   C3B23757  26.864  27.057   7.955
 7243POPC   C4B23758  26.868  27.065   7.655
 7244POPC   NC323759  30.695  32.222   9.455
 7244POPC   PO423760  30.696  32.242   9.155
 7244POPC   GL123761  30.724  32.241   8.855
 7244POPC   GL223762  30.583  32.181   8.855
 7244POPC   C1A23763  30.681  32.280   8.555
 7244POPC   D2A23764  30.680  32.287   8.255
 7244POPC   C3A23765  30.686  32.281   7.955
 7244POPC   C4A23766  30.684  32.229   7.655
 7244POPC   C1B23767  30.438  32.161   8.555
 7244POPC   C2B23768  30.479  32.191   8.255
 7244POPC   C3B23769  30.446  32.141   7.955
 7244POPC   C4B23770  30.451  32.197   7.655
 7245POPC   NC323771  40.751  21.343   9.455
 7245POPC   PO423772  40.760  21.361   9.155
 7245POPC   GL123773  40.821  21.355   8.855
 7245POPC   GL223774  40.665  21.309   8.855
 7245POPC   C1A23775  40.797  21.371   8.555
 7245POPC   D2A23776  40.777  21.383   8.255
 7245POPC   C3A23777  40.772  21.432   7.955
 7245POPC   C4A23778  40.786  21.360   7.655
 7245POPC   C1B23779  40.575  21.350   8.555
 7245POPC   C2B23780  40.582  21.321   8.255
 7245POPC   C3B23781  40.529  21.339   7.955
 7245POPC   C4B23782  40.551  21.263   7.655
 7246POPC   NC323783  23.705  43.932   9.455
 7246POPC   PO423784  23.696  43.855   9.155
 7246POPC   GL123785  23.679  43.863   8.855
 7246POPC   GL223786  23.662  43.963   8.855
 7246POPC   C1A23787  23.668  43.932   8.555
 7246POPC   D2A23788  23.760  43.875   8.255
 7246POPC   C3A23789  23.748  43.918   7.955
 7246POPC   C4A23790  23.747  43.925   7.655
 7246POPC   C1B23791  23.635  44.111   8.555
 7246POPC   C2B23792  23.611  44.109   8.255
 7246POPC   C3B23793  23.596  44.098   7.955
 7246POPC   C4B23794  23.645  44.132   7.655
 7247POPC   NC323795  23.716  35.356   9.455
 7247POPC   PO423796  23.676  35.304   9.155
 7247POPC   GL123797  23.755  35.354   8.855
 7247POPC   GL223798  23.666  35.249   8.855
 7247POPC   C1A23799  23.709  35.323   8.555
 7247POPC   D2A23800  23.752  35.377   8.255
 7247POPC   C3A23801  23.665  35.396   7.955
 7247POPC   C4A23802  23.679  35.341   7.655
 7247POPC   C1B23803  23.660  35.132   8.555
 7247POPC   C2B23804  23.646  35.130   8.255
 7247POPC   C3B23805  23.668  35.093   7.955
 7247POPC   C4B23806  23.688  35.148   7.655
 7248POPC   NC323807   0.465  23.729   9.455
 7248POPC   PO423808   0.388  23.674   9.155
 7248POPC   GL123809   0.405  23.693   8.855
 7248POPC   GL223810   0.479  23.810   8.855
 7248POPC   C1A23811   0.470  23.760   8.555
 7248POPC   D2A23812   0.472  23.748   8.255
 7248POPC   C3A23813   0.452  23.698   7.955
 7248POPC   C4A23814   0.414  23.734   7.655
 7248POPC   C1B23815   0.579  23.911   8.555
 7248POPC   C2B23816   0.558  23.927   8.255
 7248POPC   C3B23817   0.546  23.910   7.955
 7248POPC   C4B23818   0.559  23.892   7.655
 7249POPC   NC323819  24.491  24.450   9.455
 7249POPC   PO423820  24.526  24.450   9.155
 7249POPC   GL123821  24.530  24.510   8.855
 7249POPC   GL223822  24.546  24.609   8.855
 7249POPC   C1A23823  24.475  24.499   8.555
 7249POPC   D2A23824  24.466  24.521   8.255
 7249POPC   C3A23825  24.492  24.514   7.955
 7249POPC   C4A23826  24.528  24.527   7.655
 7249POPC   C1B23827  24.495  24.741   8.555
 7249POPC   C2B23828  24.505  24.688   8.255
 7249POPC   C3B23829  24.505  24.685   7.955
 7249POPC   C4B23830  24.567  24.721   7.655
 7250POPC   NC323831  25.229   1.215   9.455
 7250POPC   PO423832  25.270   1.176   9.155
 7250POPC   GL123833  25.240   1.210   8.855
 7250POPC   GL223834  25.373   1.218   8.855
 7250POPC   C1A23835  25.298   1.255   8.555
 7250POPC   D2A23836  25.311   1.242   8.255
 7250POPC   C3A23837  25.230   1.198   7.955
 7250POPC   C4A23838  25.274   1.204   7.655
 7250POPC   C1B23839  25.541   1.198   8.555
 7250POPC   C2B23840  25.471   1.151   8.255
 7250POPC   C3B23841  25.531   1.160   7.955
 7250POPC   C4B23842  25.464   1.182   7.655
 7251POPC   NC323843   5.142  17.510   9.455
 7251POPC   PO423844   5.076  17.504   9.155
 7251POPC   GL123845   5.094  17.471   8.855
 7251POPC   GL223846   5.191  17.574   8.855
 7251POPC   C1A23847   5.135  17.484   8.555
 7251POPC   D2A23848   5.114  17.526   8.255
 7251POPC   C3A23849   5.095  17.547   7.955
 7251POPC   C4A23850   5.070  17.490   7.655
 7251POPC   C1B23851   5.238  17.707   8.555
 7251POPC   C2B23852   5.240  17.700   8.255
 7251POPC   C3B23853   5.232  17.688   7.955
 7251POPC   C4B23854   5.255  17.713   7.655
 7252POPC   NC323855   0.465  18.282   9.455
 7252POPC   PO423856   0.410  18.295   9.155
 7252POPC   GL123857   0.447  18.296   8.855
 7252POPC   GL223858   0.565  18.285   8.855
 7252POPC   C1A23859   0.444  18.237   8.555
 7252POPC   D2A23860   0.453  18.233   8.255
 7252POPC   C3A23861   0.458  18.264   7.955
 7252POPC   C4A23862   0.435  18.304   7.655
 7252POPC   C1B23863   0.658  18.279   8.555
 7252POPC   C2B23864   0.660  18.248   8.255
 7252POPC   C3B23865   0.693  18.326   7.955
 7252POPC   C4B23866   0.646  18.274   7.655
 7253POPC   NC323867  20.607   6.641   9.455
 7253POPC   PO423868  20.583   6.611   9.155
 7253POPC   GL123869  20.570   6.690   8.855
 7253POPC   GL223870  20.722   6.717   8.855
 7253POPC   C1A23871  20.588   6.652   8.555
 7253POPC   D2A23872  20.579   6.607   8.255
 7253POPC   C3A23873  20.621   6.636   7.955
 7253POPC   C4A23874  20.573   6.668   7.655
 7253POPC   C1B23875  20.778   6.795   8.555
 7253POPC   C2B23876  20.814   6.886   8.255
 7253POPC   C3B23877  20.731   6.887   7.955
 7253POPC   C4B23878  20.751   6.831   7.655
 7254POPC   NC323879  40.047  11.274   9.455
 7254POPC   PO423880  39.960  11.339   9.155
 7254POPC   GL123881  39.967  11.320   8.855
 7254POPC   GL223882  40.008  11.182   8.855
 7254POPC   C1A23883  39.963  11.280   8.555
 7254POPC   D2A23884  40.003  11.303   8.255
 7254POPC   C3A23885  40.045  11.286   7.955
 7254POPC   C4A23886  39.979  11.301   7.655
 7254POPC   C1B23887  40.055  11.084   8.555
 7254POPC   C2B23888  40.066  11.036   8.255
 7254POPC   C3B23889  40.139  11.045   7.955
 7254POPC   C4B23890  40.082  11.040   7.655
 7255POPC   NC323891  38.420  36.109   9.455
 7255POPC   PO423892  38.435  36.147   9.155
 7255POPC   GL123893  38.481  36.137   8.855
 7255POPC   GL223894  38.543  36.161   8.855
 7255POPC   C1A23895  38.409  36.126   8.555
 7255POPC   D2A23896  38.493  36.147   8.255
 7255POPC   C3A23897  38.441  36.124   7.955
 7255POPC   C4A23898  38.481  36.104   7.655
 7255POPC   C1B23899  38.675  36.288   8.555
 7255POPC   C2B23900  38.696  36.329   8.255
 7255POPC   C3B23901  38.619  36.320   7.955
 7255POPC   C4B23902  38.676  36.325   7.655
 7256POPC   NC323903  39.216  17.477   9.455
 7256POPC   PO423904  39.256  17.511   9.155
 7256POPC   GL123905  39.280  17.527   8.855
 7256POPC   GL223906  39.133  17.410   8.855
 7256POPC   C1A23907  39.215  17.498   8.555
 7256POPC   D2A23908  39.208  17.534   8.255
 7256POPC   C3A23909  39.205  17.503   7.955
 7256POPC   C4A23910  39.214  17.543   7.655
 7256POPC   C1B23911  39.089  17.310   8.555
 7256POPC   C2B23912  39.061  17.290   8.255
 7256POPC   C3B23913  39.065  17.285   7.955
 7256POPC   C4B23914  39.155  17.259   7.655
 7257POPC   NC323915  22.118  28.395   9.455
 7257POPC   PO423916  22.205  28.320   9.155
 7257POPC   GL123917  22.121  28.416   8.855
 7257POPC   GL223918  22.047  28.376   8.855
 7257POPC   C1A23919  22.136  28.378   8.555
 7257POPC   D2A23920  22.203  28.401   8.255
 7257POPC   C3A23921  22.182  28.351   7.955
 7257POPC   C4A23922  22.204  28.321   7.655
 7257POPC   C1B23923  21.870  28.350   8.555
 7257POPC   C2B23924  21.891  28.348   8.255
 7257POPC   C3B23925  21.936  28.303   7.955
 7257POPC   C4B23926  21.870  28.341   7.655
 7258POPC   NC323927   1.249  27.622   9.455
 7258POPC   PO423928   1.183  27.633   9.155
 7258POPC   GL123929   1.231  27.630   8.855
 7258POPC   GL223930   1.318  27.606   8.855
 7258POPC   C1A23931   1.255  27.625   8.555
 7258POPC   D2A23932   1.219  27.578   8.255
 7258POPC   C3A23933   1.232  27.616   7.955
 7258POPC   C4A23934   1.238  27.579   7.655
 7258POPC   C1B23935   1.440  27.514   8.555
 7258POPC   C2B23936   1.501  27.555   8.255
 7258POPC   C3B23937   1.458  27.516   7.955
 7258POPC   C4B23938   1.424  27.547   7.655
 7259POPC   NC323939  40.050  24.517   9.455
 7259POPC   PO423940  40.013  24.476   9.155
 7259POPC   GL123941  40.028  24.470   8.855
 7259POPC   GL223942  39.920  24.591   8.855
 7259POPC   C1A23943  40.006  24.518   8.555
 7259POPC   D2A23944  40.052  24.492   8.255
 7259POPC   C3A23945  40.052  24.442   7.955
 7259POPC   C4A23946  40.013  24.478   7.655
 7259POPC   C1B23947  39.837  24.694   8.555
 7259POPC   C2B23948  39.863  24.706   8.255
 7259POPC   C3B23949  39.829  24.631   7.955
 7259POPC   C4B23950  39.846  24.635   7.655
 7260POPC   NC323951  19.068  29.164   9.455
 7260POPC   PO423952  19.079  29.163   9.155
 7260POPC   GL123953  19.036  29.146   8.855
 7260POPC   GL223954  18.950  29.111   8.855
 7260POPC   C1A23955  19.035  29.137   8.555
 7260POPC   D2A23956  19.059  29.150   8.255
 7260POPC   C3A23957  19.106  29.111   7.955
 7260POPC   C4A23958  19.028  29.109   7.655
 7260POPC   C1B23959  18.838  29.146   8.555
 7260POPC   C2B23960  18.801  29.151   8.255
 7260POPC   C3B23961  18.854  29.139   7.955
 7260POPC   C4B23962  18.798  29.194   7.655
 7261POPC   NC323963  43.101  12.031   9.455
 7261POPC   PO423964  43.078  12.087   9.155
 7261POPC   GL123965  43.110  12.118   8.855
 7261POPC   GL223966  43.273  12.123   8.855
 7261POPC   C1A23967  43.158  12.103   8.555
 7261POPC   D2A23968  43.150  12.096   8.255
 7261POPC   C3A23969  43.155  12.106   7.955
 7261POPC   C4A23970  43.129  12.116   7.655
 7261POPC   C1B23971  43.394  12.089   8.555
 7261POPC   C2B23972  43.357  12.112   8.255
 7261POPC   C3B23973  43.354  12.178   7.955
 7261POPC   C4B23974  43.344  12.162   7.655
 7262POPC   NC323975  43.863   6.620   9.455
 7262POPC   PO423976  43.903   6.616   9.155
 7262POPC   GL123977  43.881   6.623   8.855
 7262POPC   GL223978  44.034   6.670   8.855
 7262POPC   C1A23979  43.851   6.667   8.555
 7262POPC   D2A23980  43.916   6.670   8.255
 7262POPC   C3A23981  43.857   6.684   7.955
 7262POPC   C4A23982  43.856   6.642   7.655
 7262POPC   C1B23983  44.136   6.611   8.555
 7262POPC   C2B23984  44.117   6.665   8.255
 7262POPC   C3B23985  44.125   6.669   7.955
 7262POPC   C4B23986  44.135   6.655   7.655
 7263POPC   NC323987  31.495  10.528   9.455
 7263POPC   PO423988  31.492  10.555   9.155
 7263POPC   GL123989  31.444  10.489   8.855
 7263POPC   GL223990  31.567  10.552   8.855
 7263POPC   C1A23991  31.490  10.509   8.555
 7263POPC   D2A23992  31.444  10.534   8.255
 7263POPC   C3A23993  31.496  10.570   7.955
 7263POPC   C4A23994  31.429  10.481   7.655
 7263POPC   C1B23995  31.693  10.563   8.555
 7263POPC   C2B23996  31.720  10.552   8.255
 7263POPC   C3B23997  31.741  10.482   7.955
 7263POPC   C4B23998  31.741  10.500   7.655
 7264POPC   NC323999  12.052  24.489   9.455
 7264POPC   PO424000  12.080  24.511   9.155
 7264POPC   GL124001  12.082  24.522   8.855
 7264POPC   GL224002  11.962  24.521   8.855
 7264POPC   C1A24003  12.114  24.473   8.555
 7264POPC   D2A24004  12.059  24.526   8.255
 7264POPC   C3A24005  12.054  24.453   7.955
 7264POPC   C4A24006  12.078  24.534   7.655
 7264POPC   C1B24007  11.854  24.464   8.555
 7264POPC   C2B24008  11.859  24.446   8.255
 7264POPC   C3B24009  11.829  24.440   7.955
 7264POPC   C4B24010  11.849  24.458   7.655
 7265POPC   NC324011  16.696  22.199   9.455
 7265POPC   PO424012  16.728  22.179   9.155
 7265POPC   GL124013  16.725  22.132   8.855
 7265POPC   GL224014  16.797  22.032   8.855
 7265POPC   C1A24015  16.769  22.210   8.555
 7265POPC   D2A24016  16.738  22.158   8.255
 7265POPC   C3A24017  16.736  22.114   7.955
 7265POPC   C4A24018  16.769  22.129   7.655
 7265POPC   C1B24019  16.953  22.009   8.555
 7265POPC   C2B24020  16.884  21.991   8.255
 7265POPC   C3B24021  16.946  21.990   7.955
 7265POPC   C4B24022  16.930  22.000   7.655
 7266POPC   NC324023   1.246  23.721   9.455
 7266POPC   PO424024   1.190  23.699   9.155
 7266POPC   GL124025   1.166  23.709   8.855
 7266POPC   GL224026   1.297  23.676   8.855
 7266POPC   C1A24027   1.230  23.725   8.555
 7266POPC   D2A24028   1.249  23.761   8.255
 7266POPC   C3A24029   1.179  23.738   7.955
 7266POPC   C4A24030   1.166  23.694   7.655
 7266POPC   C1B24031   1.454  23.559   8.555
 7266POPC   C2B24032   1.449  23.562   8.255
 7266POPC   C3B24033   1.436  23.571   7.955
 7266POPC   C4B24034   1.392  23.589   7.655
 7267POPC   NC324035  35.307  24.469   9.455
 7267POPC   PO424036  35.311  24.533   9.155
 7267POPC   GL124037  35.396  24.489   8.855
 7267POPC   GL224038  35.210  24.548   8.855
 7267POPC   C1A24039  35.382  24.446   8.555
 7267POPC   D2A24040  35.325  24.469   8.255
 7267POPC   C3A24041  35.347  24.534   7.955
 7267POPC   C4A24042  35.386  24.458   7.655
 7267POPC   C1B24043  35.137  24.528   8.555
 7267POPC   C2B24044  35.125  24.544   8.255
 7267POPC   C3B24045  35.091  24.610   7.955
 7267POPC   C4B24046  35.139  24.607   7.655
 7268POPC   NC324047  10.481  17.542   9.455
 7268POPC   PO424048  10.494  17.477   9.155
 7268POPC   GL124049  10.535  17.464   8.855
 7268POPC   GL224050  10.421  17.449   8.855
 7268POPC   C1A24051  10.561  17.508   8.555
 7268POPC   D2A24052  10.535  17.509   8.255
 7268POPC   C3A24053  10.555  17.474   7.955
 7268POPC   C4A24054  10.530  17.469   7.655
 7268POPC   C1B24055  10.382  17.331   8.555
 7268POPC   C2B24056  10.347  17.303   8.255
 7268POPC   C3B24057  10.386  17.304   7.955
 7268POPC   C4B24058  10.404  17.307   7.655
 7269POPC   NC324059  41.593  33.799   9.455
 7269POPC   PO424060  41.608  33.825   9.155
 7269POPC   GL124061  41.535  33.839   8.855
 7269POPC   GL224062  41.523  33.674   8.855
 7269POPC   C1A24063  41.543  33.809   8.555
 7269POPC   D2A24064  41.568  33.777   8.255
 7269POPC   C3A24065  41.578  33.810   7.955
 7269POPC   C4A24066  41.587  33.836   7.655
 7269POPC   C1B24067  41.496  33.556   8.555
 7269POPC   C2B24068  41.510  33.519   8.255
 7269POPC   C3B24069  41.492  33.525   7.955
 7269POPC   C4B24070  41.510  33.514   7.655
 7270POPC   NC324071  44.702   3.578   9.455
 7270POPC   PO424072  44.709   3.498   9.155
 7270POPC   GL124073  44.672   3.590   8.855
 7270POPC   GL224074  44.768   3.655   8.855
 7270POPC   C1A24075  44.672   3.495   8.555
 7270POPC   D2A24076  44.655   3.514   8.255
 7270POPC   C3A24077  44.626   3.559   7.955
 7270POPC   C4A24078  44.638   3.588   7.655
 7270POPC   C1B24079  44.885   3.695   8.555
 7270POPC   C2B24080  44.890   3.705   8.255
 7270POPC   C3B24081  44.826   3.670   7.955
 7270POPC   C4B24082  44.837   3.660   7.655
 7271POPC   NC324083   2.742  36.136   9.455
 7271POPC   PO424084   2.809  36.130   9.155
 7271POPC   GL124085   2.745  36.093   8.855
 7271POPC   GL224086   2.628  36.174   8.855
 7271POPC   C1A24087   2.797  36.100   8.555
 7271POPC   D2A24088   2.748  36.101   8.255
 7271POPC   C3A24089   2.787  36.134   7.955
 7271POPC   C4A24090   2.730  36.162   7.655
 7271POPC   C1B24091   2.477  36.159   8.555
 7271POPC   C2B24092   2.477  36.162   8.255
 7271POPC   C3B24093   2.531  36.169   7.955
 7271POPC   C4B24094   2.501  36.171   7.655
 7272POPC   NC324095  22.172   3.545   9.455
 7272POPC   PO424096  22.195   3.552   9.155
 7272POPC   GL124097  22.190   3.533   8.855
 7272POPC   GL224098  22.113   3.689   8.855
 7272POPC   C1A24099  22.170   3.564   8.555
 7272POPC   D2A24100  22.184   3.549   8.255
 7272POPC   C3A24101  22.121   3.529   7.955
 7272POPC   C4A24102  22.193   3.565   7.655
 7272POPC   C1B24103  22.065   3.762   8.555
 7272POPC   C2B24104  22.101   3.755   8.255
 7272POPC   C3B24105  22.084   3.813   7.955
 7272POPC   C4B24106  22.095   3.782   7.655
 7273POPC   NC324107  44.711  21.423   9.455
 7273POPC   PO424108  44.633  21.398   9.155
 7273POPC   GL124109  44.654  21.346   8.855
 7273POPC   GL224110  44.752  21.483   8.855
 7273POPC   C1A24111  44.620  21.433   8.555
 7273POPC   D2A24112  44.670  21.363   8.255
 7273POPC   C3A24113  44.628  21.416   7.955
 7273POPC   C4A24114  44.638  21.368   7.655
 7273POPC   C1B24115  44.880  21.526   8.555
 7273POPC   C2B24116  44.844  21.478   8.255
 7273POPC   C3B24117  44.923  21.438   7.955
 7273POPC   C4B24118  44.883  21.520   7.655
 7274POPC   NC324119  26.797  26.023   9.455
 7274POPC   PO424120  26.841  26.065   9.155
 7274POPC   GL124121  26.809  26.086   8.855
 7274POPC   GL224122  26.904  26.040   8.855
 7274POPC   C1A24123  26.830  25.994   8.555
 7274POPC   D2A24124  26.857  26.038   8.255
 7274POPC   C3A24125  26.866  26.054   7.955
 7274POPC   C4A24126  26.782  26.037   7.655
 7274POPC   C1B24127  27.097  25.986   8.555
 7274POPC   C2B24128  27.024  25.987   8.255
 7274POPC   C3B24129  27.019  26.003   7.955
 7274POPC   C4B24130  27.065  25.999   7.655
 7275POPC   NC324131  15.162   8.224   9.455
 7275POPC   PO424132  15.216   8.160   9.155
 7275POPC   GL124133  15.209   8.161   8.855
 7275POPC   GL224134  15.106   8.251   8.855
 7275POPC   C1A24135  15.131   8.216   8.555
 7275POPC   D2A24136  15.227   8.196   8.255
 7275POPC   C3A24137  15.169   8.198   7.955
 7275POPC   C4A24138  15.173   8.241   7.655
 7275POPC   C1B24139  14.951   8.253   8.555
 7275POPC   C2B24140  14.890   8.283   8.255
 7275POPC   C3B24141  14.887   8.227   7.955
 7275POPC   C4B24142  14.963   8.274   7.655
 7276POPC   NC324143  19.023   7.380   9.455
 7276POPC   PO424144  19.052   7.454   9.155
 7276POPC   GL124145  19.097   7.390   8.855
 7276POPC   GL224146  19.228   7.466   8.855
 7276POPC   C1A24147  19.031   7.425   8.555
 7276POPC   D2A24148  19.090   7.438   8.255
 7276POPC   C3A24149  19.105   7.468   7.955
 7276POPC   C4A24150  19.087   7.382   7.655
 7276POPC   C1B24151  19.333   7.428   8.555
 7276POPC   C2B24152  19.298   7.442   8.255
 7276POPC   C3B24153  19.265   7.415   7.955
 7276POPC   C4B24154  19.351   7.513   7.655
 7277POPC   NC324155  39.985  35.342   9.455
 7277POPC   PO424156  39.978  35.384   9.155
 7277POPC   GL124157  40.004  35.342   8.855
 7277POPC   GL224158  39.908  35.398   8.855
 7277POPC   C1A24159  39.967  35.324   8.555
 7277POPC   D2A24160  40.031  35.310   8.255
 7277POPC   C3A24161  40.028  35.397   7.955
 7277POPC   C4A24162  39.968  35.356   7.655
 7277POPC   C1B24163  39.855  35.526   8.555
 7277POPC   C2B24164  39.852  35.491   8.255
 7277POPC   C3B24165  39.880  35.577   7.955
 7277POPC   C4B24166  39.820  35.583   7.655
 7278POPC   NC324167  19.796   9.727   9.455
 7278POPC   PO424168  19.869   9.750   9.155
 7278POPC   GL124169  19.851   9.703   8.855
 7278POPC   GL224170  19.843   9.649   8.855
 7278POPC   C1A24171  19.871   9.707   8.555
 7278POPC   D2A24172  19.799   9.738   8.255
 7278POPC   C3A24173  19.831   9.792   7.955
 7278POPC   C4A24174  19.807   9.792   7.655
 7278POPC   C1B24175  19.802   9.501   8.555
 7278POPC   C2B24176  19.839   9.456   8.255
 7278POPC   C3B24177  19.793   9.507   7.955
 7278POPC   C4B24178  19.792   9.465   7.655
 7279POPC   NC324179  37.649  26.054   9.455
 7279POPC   PO424180  37.699  26.082   9.155
 7279POPC   GL124181  37.707  26.081   8.855
 7279POPC   GL224182  37.571  26.057   8.855
 7279POPC   C1A24183  37.689  26.062   8.555
 7279POPC   D2A24184  37.699  26.034   8.255
 7279POPC   C3A24185  37.636  26.006   7.955
 7279POPC   C4A24186  37.636  26.011   7.655
 7279POPC   C1B24187  37.479  26.035   8.555
 7279POPC   C2B24188  37.466  26.034   8.255
 7279POPC   C3B24189  37.422  26.125   7.955
 7279POPC   C4B24190  37.456  26.040   7.655
 7280POPC   NC324191  32.264  33.036   9.455
 7280POPC   PO424192  32.241  32.986   9.155
 7280POPC   GL124193  32.255  32.987   8.855
 7280POPC   GL224194  32.164  33.076   8.855
 7280POPC   C1A24195  32.291  32.975   8.555
 7280POPC   D2A24196  32.199  33.012   8.255
 7280POPC   C3A24197  32.294  32.974   7.955
 7280POPC   C4A24198  32.263  33.053   7.655
 7280POPC   C1B24199  31.996  33.080   8.555
 7280POPC   C2B24200  31.973  33.052   8.255
 7280POPC   C3B24201  31.989  33.070   7.955
 7280POPC   C4B24202  32.050  33.118   7.655
 7281POPC   NC324203   4.292  32.989   9.455
 7281POPC   PO424204   4.279  33.029   9.155
 7281POPC   GL124205   4.315  32.994   8.855
 7281POPC   GL224206   4.212  32.923   8.855
 7281POPC   C1A24207   4.345  32.992   8.555
 7281POPC   D2A24208   4.313  33.017   8.255
 7281POPC   C3A24209   4.367  33.065   7.955
 7281POPC   C4A24210   4.288  33.020   7.655
 7281POPC   C1B24211   4.158  32.815   8.555
 7281POPC   C2B24212   4.133  32.824   8.255
 7281POPC   C3B24213   4.161  32.832   7.955
 7281POPC   C4B24214   4.162  32.776   7.655
 7282POPC   NC324215  43.070  26.826   9.455
 7282POPC   PO424216  43.134  26.853   9.155
 7282POPC   GL124217  43.062  26.849   8.855
 7282POPC   GL224218  43.120  26.946   8.855
 7282POPC   C1A24219  43.123  26.827   8.555
 7282POPC   D2A24220  43.082  26.835   8.255
 7282POPC   C3A24221  43.103  26.780   7.955
 7282POPC   C4A24222  43.138  26.807   7.655
 7282POPC   C1B24223  43.211  27.058   8.555
 7282POPC   C2B24224  43.239  27.072   8.255
 7282POPC   C3B24225  43.216  26.998   7.955
 7282POPC   C4B24226  43.208  27.060   7.655
 7283POPC   NC324227  41.586  12.840   9.455
 7283POPC   PO424228  41.542  12.811   9.155
 7283POPC   GL124229  41.595  12.901   8.855
 7283POPC   GL224230  41.531  12.715   8.855
 7283POPC   C1A24231  41.568  12.887   8.555
 7283POPC   D2A24232  41.560  12.891   8.255
 7283POPC   C3A24233  41.594  12.844   7.955
 7283POPC   C4A24234  41.543  12.876   7.655
 7283POPC   C1B24235  41.539  12.607   8.555
 7283POPC   C2B24236  41.507  12.585   8.255
 7283POPC   C3B24237  41.556  12.566   7.955
 7283POPC   C4B24238  41.556  12.622   7.655
 7284POPC   NC324239  22.152   5.821   9.455
 7284POPC   PO424240  22.116   5.908   9.155
 7284POPC   GL124241  22.165   5.899   8.855
 7284POPC   GL224242  22.247   5.801   8.855
 7284POPC   C1A24243  22.131   5.838   8.555
 7284POPC   D2A24244  22.170   5.892   8.255
 7284POPC   C3A24245  22.127   5.914   7.955
 7284POPC   C4A24246  22.129   5.844   7.655
 7284POPC   C1B24247  22.408   5.751   8.555
 7284POPC   C2B24248  22.415   5.762   8.255
 7284POPC   C3B24249  22.358   5.777   7.955
 7284POPC   C4B24250  22.421   5.808   7.655
 7285POPC   NC324251  23.754  16.705   9.455
 7285POPC   PO424252  23.741  16.756   9.155
 7285POPC   GL124253  23.724  16.763   8.855
 7285POPC   GL224254  23.615  16.838   8.855
 7285POPC   C1A24255  23.712  16.751   8.555
 7285POPC   D2A24256  23.713  16.720   8.255
 7285POPC   C3A24257  23.722  16.711   7.955
 7285POPC   C4A24258  23.713  16.758   7.655
 7285POPC   C1B24259  23.574  16.917   8.555
 7285POPC   C2B24260  23.561  16.910   8.255
 7285POPC   C3B24261  23.542  16.906   7.955
 7285POPC   C4B24262  23.562  16.918   7.655
 7286POPC   NC324263  40.830   0.388   9.455
 7286POPC   PO424264  40.770   0.476   9.155
 7286POPC   GL124265  40.825   0.468   8.855
 7286POPC   GL224266  40.746   0.511   8.855
 7286POPC   C1A24267  40.754   0.443   8.555
 7286POPC   D2A24268  40.788   0.452   8.255
 7286POPC   C3A24269  40.747   0.443   7.955
 7286POPC   C4A24270  40.814   0.438   7.655
 7286POPC   C1B24271  40.633   0.646   8.555
 7286POPC   C2B24272  40.656   0.677   8.255
 7286POPC   C3B24273  40.676   0.685   7.955
 7286POPC   C4B24274  40.682   0.621   7.655
 7287POPC   NC324275   8.220  12.900   9.455
 7287POPC   PO424276   8.244  12.842   9.155
 7287POPC   GL124277   8.167  12.840   8.855
 7287POPC   GL224278   8.176  12.775   8.855
 7287POPC   C1A24279   8.157  12.854   8.555
 7287POPC   D2A24280   8.228  12.820   8.255
 7287POPC   C3A24281   8.196  12.844   7.955
 7287POPC   C4A24282   8.223  12.894   7.655
 7287POPC   C1B24283   8.218  12.649   8.555
 7287POPC   C2B24284   8.162  12.552   8.255
 7287POPC   C3B24285   8.183  12.615   7.955
 7287POPC   C4B24286   8.209  12.615   7.655
 7288POPC   NC324287  13.669  12.118   9.455
 7288POPC   PO424288  13.597  12.051   9.155
 7288POPC   GL124289  13.662  12.119   8.855
 7288POPC   GL224290  13.700  12.133   8.855
 7288POPC   C1A24291  13.586  12.068   8.555
 7288POPC   D2A24292  13.673  12.106   8.255
 7288POPC   C3A24293  13.656  12.067   7.955
 7288POPC   C4A24294  13.636  12.041   7.655
 7288POPC   C1B24295  13.793  12.205   8.555
 7288POPC   C2B24296  13.784  12.276   8.255
 7288POPC   C3B24297  13.836  12.277   7.955
 7288POPC   C4B24298  13.807  12.259   7.655
 7289POPC   NC324299  23.748  27.630   9.455
 7289POPC   PO424300  23.672  27.585   9.155
 7289POPC   GL124301  23.672  27.604   8.855
 7289POPC   GL224302  23.641  27.748   8.855
 7289POPC   C1A24303  23.704  27.599   8.555
 7289POPC   D2A24304  23.758  27.634   8.255
 7289POPC   C3A24305  23.746  27.595   7.955
 7289POPC   C4A24306  23.672  27.570   7.655
 7289POPC   C1B24307  23.557  27.850   8.555
 7289POPC   C2B24308  23.611  27.791   8.255
 7289POPC   C3B24309  23.600  27.834   7.955
 7289POPC   C4B24310  23.558  27.777   7.655
 7290POPC   NC324311  33.844   8.162   9.455
 7290POPC   PO424312  33.787   8.242   9.155
 7290POPC   GL124313  33.814   8.192   8.855
 7290POPC   GL224314  33.931   8.327   8.855
 7290POPC   C1A24315  33.799   8.193   8.555
 7290POPC   D2A24316  33.837   8.161   8.255
 7290POPC   C3A24317  33.787   8.184   7.955
 7290POPC   C4A24318  33.755   8.232   7.655
 7290POPC   C1B24319  33.949   8.399   8.555
 7290POPC   C2B24320  34.017   8.378   8.255
 7290POPC   C3B24321  34.026   8.345   7.955
 7290POPC   C4B24322  33.931   8.330   7.655
 7291POPC   NC324323   2.733  29.911   9.455
 7291POPC   PO424324   2.781  29.967   9.155
 7291POPC   GL124325   2.791  29.958   8.855
 7291POPC   GL224326   2.639  29.872   8.855
 7291POPC   C1A24327   2.788  29.906   8.555
 7291POPC   D2A24328   2.796  29.910   8.255
 7291POPC   C3A24329   2.780  29.907   7.955
 7291POPC   C4A24330   2.743  29.943   7.655
 7291POPC   C1B24331   2.500  29.872   8.555
 7291POPC   C2B24332   2.525  29.869   8.255
 7291POPC   C3B24333   2.548  29.830   7.955
 7291POPC   C4B24334   2.571  29.880   7.655
 7292POPC   NC324335   3.574   2.780   9.455
 7292POPC   PO424336   3.498   2.763   9.155
 7292POPC   GL124337   3.556   2.731   8.855
 7292POPC   GL224338   3.477   2.710   8.855
 7292POPC   C1A24339   3.497   2.734   8.555
 7292POPC   D2A24340   3.535   2.758   8.255
 7292POPC   C3A24341   3.565   2.748   7.955
 7292POPC   C4A24342   3.524   2.784   7.655
 7292POPC   C1B24343   3.316   2.652   8.555
 7292POPC   C2B24344   3.327   2.665   8.255
 7292POPC   C3B24345   3.320   2.643   7.955
 7292POPC   C4B24346   3.280   2.659   7.655
 7293POPC   NC324347   5.874  43.135   9.455
 7293POPC   PO424348   5.919  43.066   9.155
 7293POPC   GL124349   5.900  43.121   8.855
 7293POPC   GL224350   5.961  43.044   8.855
 7293POPC   C1A24351   5.849  43.139   8.555
 7293POPC   D2A24352   5.899  43.082   8.255
 7293POPC   C3A24353   5.883  43.071   7.955
 7293POPC   C4A24354   5.860  43.143   7.655
 7293POPC   C1B24355   5.998  42.913   8.555
 7293POPC   C2B24356   6.079  42.960   8.255
 7293POPC   C3B24357   6.049  42.945   7.955
 7293POPC   C4B24358   6.058  42.948   7.655
 7294POPC   NC324359  11.266  22.972   9.455
 7294POPC   PO424360  11.260  22.925   9.155
 7294POPC   GL124361  11.313  22.958   8.855
 7294POPC   GL224362  11.240  23.009   8.855
 7294POPC   C1A24363  11.338  22.942   8.555
 7294POPC   D2A24364  11.349  22.889   8.255
 7294POPC   C3A24365  11.329  22.907   7.955
 7294POPC   C4A24366  11.286  22.888   7.655
 7294POPC   C1B24367  11.142  23.098   8.555
 7294POPC   C2B24368  11.099  23.110   8.255
 7294POPC   C3B24369  11.100  23.094   7.955
 7294POPC   C4B24370  11.117  23.107   7.655
 7295POPC   NC324371  20.615  32.985   9.455
 7295POPC   PO424372  20.576  33.026   9.155
 7295POPC   GL124373  20.654  33.034   8.855
 7295POPC   GL224374  20.716  33.077   8.855
 7295POPC   C1A24375  20.627  32.995   8.555
 7295POPC   D2A24376  20.597  33.032   8.255
 7295POPC   C3A24377  20.575  33.050   7.955
 7295POPC   C4A24378  20.620  33.046   7.655
 7295POPC   C1B24379  20.756  33.189   8.555
 7295POPC   C2B24380  20.796  33.134   8.255
 7295POPC   C3B24381  20.782  33.207   7.955
 7295POPC   C4B24382  20.851  33.177   7.655
 7296POPC   NC324383  38.471  40.766   9.455
 7296POPC   PO424384  38.480  40.774   9.155
 7296POPC   GL124385  38.477  40.815   8.855
 7296POPC   GL224386  38.366  40.836   8.855
 7296POPC   C1A24387  38.483  40.766   8.555
 7296POPC   D2A24388  38.469  40.779   8.255
 7296POPC   C3A24389  38.444  40.802   7.955
 7296POPC   C4A24390  38.482  40.748   7.655
 7296POPC   C1B24391  38.246  40.958   8.555
 7296POPC   C2B24392  38.280  40.932   8.255
 7296POPC   C3B24393  38.264  40.960   7.955
 7296POPC   C4B24394  38.293  40.988   7.655
 7297POPC   NC324395  34.527   5.878   9.455
 7297POPC   PO424396  34.596   5.860   9.155
 7297POPC   GL124397  34.567   5.917   8.855
 7297POPC   GL224398  34.655   5.936   8.855
 7297POPC   C1A24399  34.594   5.860   8.555
 7297POPC   D2A24400  34.610   5.913   8.255
 7297POPC   C3A24401  34.606   5.819   7.955
 7297POPC   C4A24402  34.582   5.875   7.655
 7297POPC   C1B24403  34.813   5.985   8.555
 7297POPC   C2B24404  34.834   5.907   8.255
 7297POPC   C3B24405  34.803   5.904   7.955
 7297POPC   C4B24406  34.821   5.970   7.655
 7298POPC   NC324407  12.069  42.330   9.455
 7298POPC   PO424408  12.048  42.300   9.155
 7298POPC   GL124409  12.051  42.345   8.855
 7298POPC   GL224410  12.074  42.186   8.855
 7298POPC   C1A24411  12.042  42.345   8.555
 7298POPC   D2A24412  12.032  42.308   8.255
 7298POPC   C3A24413  12.040  42.312   7.955
 7298POPC   C4A24414  12.053  42.296   7.655
 7298POPC   C1B24415  12.035  42.049   8.555
 7298POPC   C2B24416  12.003  42.062   8.255
 7298POPC   C3B24417  12.017  42.056   7.955
 7298POPC   C4B24418  11.963  42.107   7.655
 7299POPC   NC324419  16.778  21.382   9.455
 7299POPC   PO424420  16.750  21.355   9.155
 7299POPC   GL124421  16.755  21.377   8.855
 7299POPC   GL224422  16.658  21.239   8.855
 7299POPC   C1A24423  16.708  21.427   8.555
 7299POPC   D2A24424  16.732  21.413   8.255
 7299POPC   C3A24425  16.772  21.388   7.955
 7299POPC   C4A24426  16.759  21.354   7.655
 7299POPC   C1B24427  16.559  21.157   8.555
 7299POPC   C2B24428  16.615  21.224   8.255
 7299POPC   C3B24429  16.614  21.179   7.955
 7299POPC   C4B24430  16.563  21.213   7.655
 7300POPC   NC324431  14.410  10.482   9.455
 7300POPC   PO424432  14.402  10.523   9.155
 7300POPC   GL124433  14.383  10.550   8.855
 7300POPC   GL224434  14.380  10.612   8.855
 7300POPC   C1A24435  14.369  10.500   8.555
 7300POPC   D2A24436  14.406  10.553   8.255
 7300POPC   C3A24437  14.425  10.555   7.955
 7300POPC   C4A24438  14.392  10.486   7.655
 7300POPC   C1B24439  14.456  10.810   8.555
 7300POPC   C2B24440  14.407  10.738   8.255
 7300POPC   C3B24441  14.367  10.747   7.955
 7300POPC   C4B24442  14.401  10.734   7.655
 7301POPC   NC324443  13.659  21.365   9.455
 7301POPC   PO424444  13.602  21.359   9.155
 7301POPC   GL124445  13.645  21.411   8.855
 7301POPC   GL224446  13.682  21.487   8.855
 7301POPC   C1A24447  13.666  21.367   8.555
 7301POPC   D2A24448  13.630  21.352   8.255
 7301POPC   C3A24449  13.631  21.346   7.955
 7301POPC   C4A24450  13.612  21.400   7.655
 7301POPC   C1B24451  13.701  21.593   8.555
 7301POPC   C2B24452  13.650  21.620   8.255
 7301POPC   C3B24453  13.685  21.585   7.955
 7301POPC   C4B24454  13.658  21.623   7.655
 7302POPC   NC324455  42.321  22.166   9.455
 7302POPC   PO424456  42.294  22.115   9.155
 7302POPC   GL124457  42.300  22.137   8.855
 7302POPC   GL224458  42.361  22.316   8.855
 7302POPC   C1A24459  42.363  22.150   8.555
 7302POPC   D2A24460  42.303  22.175   8.255
 7302POPC   C3A24461  42.286  22.179   7.955
 7302POPC   C4A24462  42.354  22.184   7.655
 7302POPC   C1B24463  42.356  22.460   8.555
 7302POPC   C2B24464  42.300  22.364   8.255
 7302POPC   C3B24465  42.355  22.419   7.955
 7302POPC   C4B24466  42.327  22.365   7.655
 7303POPC   NC324467   4.288  12.898   9.455
 7303POPC   PO424468   4.339  12.825   9.155
 7303POPC   GL124469   4.269  12.882   8.855
 7303POPC   GL224470   4.419  12.735   8.855
 7303POPC   C1A24471   4.279  12.802   8.555
 7303POPC   D2A24472   4.303  12.860   8.255
 7303POPC   C3A24473   4.290  12.878   7.955
 7303POPC   C4A24474   4.268  12.808   7.655
 7303POPC   C1B24475   4.526  12.640   8.555
 7303POPC   C2B24476   4.498  12.687   8.255
 7303POPC   C3B24477   4.496  12.672   7.955
 7303POPC   C4B24478   4.455  12.629   7.655
 7304POPC   NC324479  21.408  33.005   9.455
 7304POPC   PO424480  21.401  33.020   9.155
 7304POPC   GL124481  21.416  32.997   8.855
 7304POPC   GL224482  21.537  32.945   8.855
 7304POPC   C1A24483  21.397  33.007   8.555
 7304POPC   D2A24484  21.375  33.015   8.255
 7304POPC   C3A24485  21.427  33.066   7.955
 7304POPC   C4A24486  21.345  32.988   7.655
 7304POPC   C1B24487  21.626  32.942   8.555
 7304POPC   C2B24488  21.654  32.991   8.255
 7304POPC   C3B24489  21.611  32.937   7.955
 7304POPC   C4B24490  21.664  32.961   7.655
 7305POPC   NC324491  27.625   8.174   9.455
 7305POPC   PO424492  27.554   8.229   9.155
 7305POPC   GL124493  27.608   8.187   8.855
 7305POPC   GL224494  27.500   8.283   8.855
 7305POPC   C1A24495  27.567   8.217   8.555
 7305POPC   D2A24496  27.590   8.243   8.255
 7305POPC   C3A24497  27.623   8.161   7.955
 7305POPC   C4A24498  27.616   8.213   7.655
 7305POPC   C1B24499  27.392   8.350   8.555
 7305POPC   C2B24500  27.378   8.315   8.255
 7305POPC   C3B24501  27.372   8.376   7.955
 7305POPC   C4B24502  27.442   8.300   7.655
 7306POPC   NC324503   7.445  17.521   9.455
 7306POPC   PO424504   7.435  17.459   9.155
 7306POPC   GL124505   7.432  17.500   8.855
 7306POPC   GL224506   7.325  17.547   8.855
 7306POPC   C1A24507   7.397  17.504   8.555
 7306POPC   D2A24508   7.429  17.496   8.255
 7306POPC   C3A24509   7.404  17.517   7.955
 7306POPC   C4A24510   7.409  17.469   7.655
 7306POPC   C1B24511   7.195  17.520   8.555
 7306POPC   C2B24512   7.154  17.485   8.255
 7306POPC   C3B24513   7.206  17.549   7.955
 7306POPC   C4B24514   7.168  17.539   7.655
 7307POPC   NC324515   8.241  41.535   9.455
 7307POPC   PO424516   8.186  41.521   9.155
 7307POPC   GL124517   8.177  41.538   8.855
 7307POPC   GL224518   8.170  41.421   8.855
 7307POPC   C1A24519   8.184  41.523   8.555
 7307POPC   D2A24520   8.158  41.511   8.255
 7307POPC   C3A24521   8.165  41.539   7.955
 7307POPC   C4A24522   8.198  41.570   7.655
 7307POPC   C1B24523   8.227  41.308   8.555
 7307POPC   C2B24524   8.185  41.333   8.255
 7307POPC   C3B24525   8.236  41.337   7.955
 7307POPC   C4B24526   8.189  41.278   7.655
 7308POPC   NC324527  22.133  42.303   9.455
 7308POPC   PO424528  22.145  42.288   9.155
 7308POPC   GL124529  22.164  42.361   8.855
 7308POPC   GL224530  22.051  42.332   8.855
 7308POPC   C1A24531  22.120  42.330   8.555
 7308POPC   D2A24532  22.166  42.333   8.255
 7308POPC   C3A24533  22.168  42.325   7.955
 7308POPC   C4A24534  22.156  42.341   7.655
 7308POPC   C1B24535  21.883  42.202   8.555
 7308POPC   C2B24536  21.890  42.245   8.255
 7308POPC   C3B24537  21.944  42.267   7.955
 7308POPC   C4B24538  21.957  42.213   7.655
 7309POPC   NC324539  36.133  36.087   9.455
 7309POPC   PO424540  36.088  36.127   9.155
 7309POPC   GL124541  36.096  36.123   8.855
 7309POPC   GL224542  36.209  36.003   8.855
 7309POPC   C1A24543  36.115  36.100   8.555
 7309POPC   D2A24544  36.174  36.102   8.255
 7309POPC   C3A24545  36.097  36.092   7.955
 7309POPC   C4A24546  36.142  36.100   7.655
 7309POPC   C1B24547  36.158  35.891   8.555
 7309POPC   C2B24548  36.250  35.915   8.255
 7309POPC   C3B24549  36.180  35.889   7.955
 7309POPC   C4B24550  36.161  35.901   7.655
 7310POPC   NC324551   1.174  26.056   9.455
 7310POPC   PO424552   1.164  26.072   9.155
 7310POPC   GL124553   1.167  25.992   8.855
 7310POPC   GL224554   1.233  25.935   8.855
 7310POPC   C1A24555   1.233  26.071   8.555
 7310POPC   D2A24556   1.187  26.031   8.255
 7310POPC   C3A24557   1.176  26.070   7.955
 7310POPC   C4A24558   1.197  26.057   7.655
 7310POPC   C1B24559   1.212  25.816   8.555
 7310POPC   C2B24560   1.281  25.799   8.255
 7310POPC   C3B24561   1.273  25.754   7.955
 7310POPC   C4B24562   1.212  25.770   7.655
 7311POPC   NC324563  35.344  33.759   9.455
 7311POPC   PO424564  35.304  33.818   9.155
 7311POPC   GL124565  35.371  33.784   8.855
 7311POPC   GL224566  35.370  33.685   8.855
 7311POPC   C1A24567  35.353  33.815   8.555
 7311POPC   D2A24568  35.358  33.821   8.255
 7311POPC   C3A24569  35.327  33.759   7.955
 7311POPC   C4A24570  35.353  33.792   7.655
 7311POPC   C1B24571  35.417  33.590   8.555
 7311POPC   C2B24572  35.375  33.525   8.255
 7311POPC   C3B24573  35.447  33.558   7.955
 7311POPC   C4B24574  35.367  33.507   7.655
 7312POPC   NC324575   2.741  44.710   9.455
 7312POPC   PO424576   2.792  44.660   9.155
 7312POPC   GL124577   2.792  44.633   8.855
 7312POPC   GL224578   2.774  44.543   8.855
 7312POPC   C1A24579   2.790  44.640   8.555
 7312POPC   D2A24580   2.795  44.634   8.255
 7312POPC   C3A24581   2.755  44.630   7.955
 7312POPC   C4A24582   2.766  44.702   7.655
 7312POPC   C1B24583   2.669  44.429   8.555
 7312POPC   C2B24584   2.688  44.464   8.255
 7312POPC   C3B24585   2.685  44.434   7.955
 7312POPC   C4B24586   2.638  44.448   7.655
 7313POPC   NC324587  17.539  14.419   9.455
 7313POPC   PO424588  17.526  14.393   9.155
 7313POPC   GL124589  17.481  14.361   8.855
 7313POPC   GL224590  17.536  14.499   8.855
 7313POPC   C1A24591  17.507  14.361   8.555
 7313POPC   D2A24592  17.526  14.438   8.255
 7313POPC   C3A24593  17.551  14.397   7.955
 7313POPC   C4A24594  17.554  14.370   7.655
 7313POPC   C1B24595  17.537  14.666   8.555
 7313POPC   C2B24596  17.493  14.612   8.255
 7313POPC   C3B24597  17.532  14.692   7.955
 7313POPC   C4B24598  17.498  14.630   7.655
 7314POPC   NC324599  14.388   7.455   9.455
 7314POPC   PO424600  14.434   7.464   9.155
 7314POPC   GL124601  14.360   7.449   8.855
 7314POPC   GL224602  14.564   7.389   8.855
 7314POPC   C1A24603  14.451   7.464   8.555
 7314POPC   D2A24604  14.428   7.409   8.255
 7314POPC   C3A24605  14.358   7.466   7.955
 7314POPC   C4A24606  14.399   7.419   7.655
 7314POPC   C1B24607  14.647   7.341   8.555
 7314POPC   C2B24608  14.606   7.346   8.255
 7314POPC   C3B24609  14.681   7.388   7.955
 7314POPC   C4B24610  14.683   7.378   7.655
 7315POPC   NC324611  19.801  36.084   9.455
 7315POPC   PO424612  19.861  36.084   9.155
 7315POPC   GL124613  19.852  36.156   8.855
 7315POPC   GL224614  19.922  36.043   8.855
 7315POPC   C1A24615  19.809  36.152   8.555
 7315POPC   D2A24616  19.798  36.085   8.255
 7315POPC   C3A24617  19.799  36.094   7.955
 7315POPC   C4A24618  19.861  36.100   7.655
 7315POPC   C1B24619  19.990  35.973   8.555
 7315POPC   C2B24620  19.990  36.015   8.255
 7315POPC   C3B24621  20.046  35.997   7.955
 7315POPC   C4B24622  19.991  35.939   7.655
 7316POPC   NC324623  28.378  41.569   9.455
 7316POPC   PO424624  28.393  41.606   9.155
 7316POPC   GL124625  28.345  41.511   8.855
 7316POPC   GL224626  28.464  41.637   8.855
 7316POPC   C1A24627  28.332  41.608   8.555
 7316POPC   D2A24628  28.416  41.539   8.255
 7316POPC   C3A24629  28.345  41.588   7.955
 7316POPC   C4A24630  28.338  41.564   7.655
 7316POPC   C1B24631  28.625  41.708   8.555
 7316POPC   C2B24632  28.582  41.640   8.255
 7316POPC   C3B24633  28.538  41.722   7.955
 7316POPC   C4B24634  28.543  41.638   7.655
 7317POPC   NC324635  32.275  19.045   9.455
 7317POPC   PO424636  32.220  19.068   9.155
 7317POPC   GL124637  32.254  19.054   8.855
 7317POPC   GL224638  32.331  19.161   8.855
 7317POPC   C1A24639  32.199  19.023   8.555
 7317POPC   D2A24640  32.208  19.062   8.255
 7317POPC   C3A24641  32.291  19.101   7.955
 7317POPC   C4A24642  32.214  19.088   7.655
 7317POPC   C1B24643  32.423  19.312   8.555
 7317POPC   C2B24644  32.362  19.260   8.255
 7317POPC   C3B24645  32.421  19.243   7.955
 7317POPC   C4B24646  32.336  19.234   7.655
 7318POPC   NC324647  14.363   5.133   9.455
 7318POPC   PO424648  14.371   5.065   9.155
 7318POPC   GL124649  14.385   5.067   8.855
 7318POPC   GL224650  14.363   5.247   8.855
 7318POPC   C1A24651  14.356   5.085   8.555
 7318POPC   D2A24652  14.403   5.076   8.255
 7318POPC   C3A24653  14.382   5.113   7.955
 7318POPC   C4A24654  14.374   5.065   7.655
 7318POPC   C1B24655  14.419   5.310   8.555
 7318POPC   C2B24656  14.411   5.371   8.255
 7318POPC   C3B24657  14.359   5.326   7.955
 7318POPC   C4B24658  14.368   5.335   7.655
 7319POPC   NC324659   2.812   6.623   9.455
 7319POPC   PO424660   2.779   6.631   9.155
 7319POPC   GL124661   2.750   6.682   8.855
 7319POPC   GL224662   2.790   6.537   8.855
 7319POPC   C1A24663   2.771   6.679   8.555
 7319POPC   D2A24664   2.811   6.601   8.255
 7319POPC   C3A24665   2.768   6.651   7.955
 7319POPC   C4A24666   2.809   6.678   7.655
 7319POPC   C1B24667   2.878   6.477   8.555
 7319POPC   C2B24668   2.887   6.428   8.255
 7319POPC   C3B24669   2.859   6.450   7.955
 7319POPC   C4B24670   2.864   6.400   7.655
 7320POPC   NC324671  11.333  20.596   9.455
 7320POPC   PO424672  11.259  20.590   9.155
 7320POPC   GL124673  11.261  20.622   8.855
 7320POPC   GL224674  11.233  20.462   8.855
 7320POPC   C1A24675  11.332  20.641   8.555
 7320POPC   D2A24676  11.302  20.618   8.255
 7320POPC   C3A24677  11.281  20.574   7.955
 7320POPC   C4A24678  11.274  20.565   7.655
 7320POPC   C1B24679  11.124  20.412   8.555
 7320POPC   C2B24680  11.150  20.448   8.255
 7320POPC   C3B24681  11.188  20.388   7.955
 7320POPC   C4B24682  11.156  20.422   7.655
 7321POPC   NC324683  20.642  41.510   9.455
 7321POPC   PO424684  20.609  41.514   9.155
 7321POPC   GL124685  20.627  41.587   8.855
 7321POPC   GL224686  20.655  41.417   8.855
 7321POPC   C1A24687  20.660  41.515   8.555
 7321POPC   D2A24688  20.594  41.608   8.255
 7321POPC   C3A24689  20.571  41.524   7.955
 7321POPC   C4A24690  20.628  41.582   7.655
 7321POPC   C1B24691  20.736  41.305   8.555
 7321POPC   C2B24692  20.735  41.346   8.255
 7321POPC   C3B24693  20.659  41.353   7.955
 7321POPC   C4B24694  20.746  41.283   7.655
 7322POPC   NC324695  27.641   2.721   9.455
 7322POPC   PO424696  27.616   2.727   9.155
 7322POPC   GL124697  27.580   2.800   8.855
 7322POPC   GL224698  27.439   2.709   8.855
 7322POPC   C1A24699  27.566   2.745   8.555
 7322POPC   D2A24700  27.615   2.760   8.255
 7322POPC   C3A24701  27.549   2.763   7.955
 7322POPC   C4A24702  27.562   2.815   7.655
 7322POPC   C1B24703  27.378   2.616   8.555
 7322POPC   C2B24704  27.333   2.598   8.255
 7322POPC   C3B24705  27.348   2.622   7.955
 7322POPC   C4B24706  27.331   2.612   7.655
 7323POPC   NC324707  29.105  29.134   9.455
 7323POPC   PO424708  29.169  29.190   9.155
 7323POPC   GL124709  29.106  29.124   8.855
 7323POPC   GL224710  29.222  29.023   8.855
 7323POPC   C1A24711  29.150  29.157   8.555
 7323POPC   D2A24712  29.161  29.148   8.255
 7323POPC   C3A24713  29.112  29.164   7.955
 7323POPC   C4A24714  29.139  29.105   7.655
 7323POPC   C1B24715  29.205  28.946   8.555
 7323POPC   C2B24716  29.243  28.889   8.255
 7323POPC   C3B24717  29.280  28.893   7.955
 7323POPC   C4B24718  29.216  28.966   7.655
 7324POPC   NC324719   6.608  12.808   9.455
 7324POPC   PO424720   6.677  12.883   9.155
 7324POPC   GL124721   6.604  12.816   8.855
 7324POPC   GL224722   6.523  12.768   8.855
 7324POPC   C1A24723   6.678  12.833   8.555
 7324POPC   D2A24724   6.639  12.881   8.255
 7324POPC   C3A24725   6.617  12.840   7.955
 7324POPC   C4A24726   6.596  12.860   7.655
 7324POPC   C1B24727   6.522  12.612   8.555
 7324POPC   C2B24728   6.512  12.681   8.255
 7324POPC   C3B24729   6.533  12.709   7.955
 7324POPC   C4B24730   6.435  12.628   7.655
 7325POPC   NC324731  35.362  22.148   9.455
 7325POPC   PO424732  35.324  22.195   9.155
 7325POPC   GL124733  35.308  22.155   8.855
 7325POPC   GL224734  35.425  22.072   8.855
 7325POPC   C1A24735  35.400  22.132   8.555
 7325POPC   D2A24736  35.384  22.166   8.255
 7325POPC   C3A24737  35.305  22.172   7.955
 7325POPC   C4A24738  35.392  22.115   7.655
 7325POPC   C1B24739  35.427  21.905   8.555
 7325POPC   C2B24740  35.389  21.878   8.255
 7325POPC   C3B24741  35.374  21.956   7.955
 7325POPC   C4B24742  35.365  21.908   7.655
 7326POPC   NC324743  23.685  34.580   9.455
 7326POPC   PO424744  23.693  34.528   9.155
 7326POPC   GL124745  23.743  34.599   8.855
 7326POPC   GL224746  23.563  34.559   8.855
 7326POPC   C1A24747  23.690  34.609   8.555
 7326POPC   D2A24748  23.682  34.540   8.255
 7326POPC   C3A24749  23.712  34.554   7.955
 7326POPC   C4A24750  23.673  34.625   7.655
 7326POPC   C1B24751  23.485  34.422   8.555
 7326POPC   C2B24752  23.527  34.424   8.255
 7326POPC   C3B24753  23.458  34.428   7.955
 7326POPC   C4B24754  23.487  34.488   7.655
 7327POPC   NC324755   1.206   8.997   9.455
 7327POPC   PO424756   1.214   8.998   9.155
 7327POPC   GL124757   1.219   8.992   8.855
 7327POPC   GL224758   1.067   9.075   8.855
 7327POPC   C1A24759   1.262   9.007   8.555
 7327POPC   D2A24760   1.245   8.985   8.255
 7327POPC   C3A24761   1.166   9.019   7.955
 7327POPC   C4A24762   1.256   8.984   7.655
 7327POPC   C1B24763   0.965   9.081   8.555
 7327POPC   C2B24764   1.015   9.116   8.255
 7327POPC   C3B24765   0.996   9.159   7.955
 7327POPC   C4B24766   1.053   9.084   7.655
 7328POPC   NC324767  43.158  43.125   9.455
 7328POPC   PO424768  43.157  43.097   9.155
 7328POPC   GL124769  43.120  43.147   8.855
 7328POPC   GL224770  43.258  43.115   8.855
 7328POPC   C1A24771  43.144  43.148   8.555
 7328POPC   D2A24772  43.144  43.117   8.255
 7328POPC   C3A24773  43.098  43.078   7.955
 7328POPC   C4A24774  43.082  43.124   7.655
 7328POPC   C1B24775  43.368  43.207   8.555
 7328POPC   C2B24776  43.342  43.178   8.255
 7328POPC   C3B24777  43.323  43.169   7.955
 7328POPC   C4B24778  43.343  43.130   7.655
 7329POPC   NC324779   9.701  11.348   9.455
 7329POPC   PO424780   9.701  11.270   9.155
 7329POPC   GL124781   9.728  11.348   8.855
 7329POPC   GL224782   9.823  11.183   8.855
 7329POPC   C1A24783   9.712  11.337   8.555
 7329POPC   D2A24784   9.719  11.281   8.255
 7329POPC   C3A24785   9.772  11.285   7.955
 7329POPC   C4A24786   9.785  11.280   7.655
 7329POPC   C1B24787   9.978  11.092   8.555
 7329POPC   C2B24788   9.908  11.164   8.255
 7329POPC   C3B24789   9.913  11.158   7.955
 7329POPC   C4B24790   9.977  11.148   7.655
 7330POPC   NC324791   3.543   9.791   9.455
 7330POPC   PO424792   3.492   9.716   9.155
 7330POPC   GL124793   3.514   9.706   8.855
 7330POPC   GL224794   3.559   9.633   8.855
 7330POPC   C1A24795   3.556   9.772   8.555
 7330POPC   D2A24796   3.572   9.702   8.255
 7330POPC   C3A24797   3.513   9.766   7.955
 7330POPC   C4A24798   3.588   9.752   7.655
 7330POPC   C1B24799   3.593   9.497   8.555
 7330POPC   C2B24800   3.589   9.468   8.255
 7330POPC   C3B24801   3.565   9.461   7.955
 7330POPC   C4B24802   3.606   9.498   7.655
 7331POPC   NC324803  26.059  33.787   9.455
 7331POPC   PO424804  26.073  33.806   9.155
 7331POPC   GL124805  26.045  33.848   8.855
 7331POPC   GL224806  26.089  33.954   8.855
 7331POPC   C1A24807  25.998  33.786   8.555
 7331POPC   D2A24808  26.000  33.835   8.255
 7331POPC   C3A24809  26.023  33.824   7.955
 7331POPC   C4A24810  26.036  33.848   7.655
 7331POPC   C1B24811  26.133  34.052   8.555
 7331POPC   C2B24812  26.143  34.031   8.255
 7331POPC   C3B24813  26.098  34.067   7.955
 7331POPC   C4B24814  26.059  34.088   7.655
 7332POPC   NC324815  15.216   4.307   9.455
 7332POPC   PO424816  15.201   4.286   9.155
 7332POPC   GL124817  15.181   4.347   8.855
 7332POPC   GL224818  15.282   4.333   8.855
 7332POPC   C1A24819  15.142   4.296   8.555
 7332POPC   D2A24820  15.166   4.342   8.255
 7332POPC   C3A24821  15.146   4.285   7.955
 7332POPC   C4A24822  15.130   4.324   7.655
 7332POPC   C1B24823  15.440   4.368   8.555
 7332POPC   C2B24824  15.458   4.442   8.255
 7332POPC   C3B24825  15.367   4.365   7.955
 7332POPC   C4B24826  15.459   4.401   7.655
 7333POPC   NC324827  12.844   3.577   9.455
 7333POPC   PO424828  12.867   3.584   9.155
 7333POPC   GL124829  12.821   3.565   8.855
 7333POPC   GL224830  12.971   3.577   8.855
 7333POPC   C1A24831  12.824   3.522   8.555
 7333POPC   D2A24832  12.890   3.544   8.255
 7333POPC   C3A24833  12.861   3.566   7.955
 7333POPC   C4A24834  12.867   3.586   7.655
 7333POPC   C1B24835  13.118   3.621   8.555
 7333POPC   C2B24836  13.143   3.551   8.255
 7333POPC   C3B24837  13.105   3.600   7.955
 7333POPC   C4B24838  13.096   3.623   7.655
 7334POPC   NC324839  40.736  43.133   9.455
 7334POPC   PO424840  40.769  43.111   9.155
 7334POPC   GL124841  40.755  43.094   8.855
 7334POPC   GL224842  40.693  43.069   8.855
 7334POPC   C1A24843  40.766  43.113   8.555
 7334POPC   D2A24844  40.795  43.071   8.255
 7334POPC   C3A24845  40.785  43.153   7.955
 7334POPC   C4A24846  40.787  43.113   7.655
 7334POPC   C1B24847  40.525  43.042   8.555
 7334POPC   C2B24848  40.495  43.080   8.255
 7334POPC   C3B24849  40.543  43.100   7.955
 7334POPC   C4B24850  40.486  43.085   7.655
 7335POPC   NC324851  36.870  39.214   9.455
 7335POPC   PO424852  36.878  39.185   9.155
 7335POPC   GL124853  36.931  39.209   8.855
 7335POPC   GL224854  37.012  39.151   8.855
 7335POPC   C1A24855  36.953  39.274   8.555
 7335POPC   D2A24856  36.924  39.208   8.255
 7335POPC   C3A24857  36.953  39.191   7.955
 7335POPC   C4A24858  36.935  39.257   7.655
 7335POPC   C1B24859  37.129  39.041   8.555
 7335POPC   C2B24860  37.042  39.090   8.255
 7335POPC   C3B24861  37.041  39.090   7.955
 7335POPC   C4B24862  37.081  39.104   7.655
 7336POPC   NC324863  30.683  31.444   9.455
 7336POPC   PO424864  30.742  31.433   9.155
 7336POPC   GL124865  30.668  31.488   8.855
 7336POPC   GL224866  30.585  31.455   8.855
 7336POPC   C1A24867  30.724  31.441   8.555
 7336POPC   D2A24868  30.724  31.498   8.255
 7336POPC   C3A24869  30.669  31.493   7.955
 7336POPC   C4A24870  30.676  31.466   7.655
 7336POPC   C1B24871  30.440  31.450   8.555
 7336POPC   C2B24872  30.468  31.504   8.255
 7336POPC   C3B24873  30.490  31.495   7.955
 7336POPC   C4B24874  30.398  31.464   7.655
 7337POPC   NC324875  11.265   7.459   9.455
 7337POPC   PO424876  11.348   7.415   9.155
 7337POPC   GL124877  11.288   7.463   8.855
 7337POPC   GL224878  11.205   7.421   8.855
 7337POPC   C1A24879  11.319   7.422   8.555
 7337POPC   D2A24880  11.304   7.379   8.255
 7337POPC   C3A24881  11.348   7.427   7.955
 7337POPC   C4A24882  11.348   7.382   7.655
 7337POPC   C1B24883  11.010   7.427   8.555
 7337POPC   C2B24884  11.027   7.384   8.255
 7337POPC   C3B24885  11.058   7.440   7.955
 7337POPC   C4B24886  11.020   7.415   7.655
 7338POPC   NC324887   0.418  19.038   9.455
 7338POPC   PO424888   0.473  19.041   9.155
 7338POPC   GL124889   0.437  19.081   8.855
 7338POPC   GL224890   0.497  19.208   8.855
 7338POPC   C1A24891   0.474  19.024   8.555
 7338POPC   D2A24892   0.472  19.068   8.255
 7338POPC   C3A24893   0.414  19.092   7.955
 7338POPC   C4A24894   0.454  19.027   7.655
 7338POPC   C1B24895   0.446  19.306   8.555
 7338POPC   C2B24896   0.457  19.293   8.255
 7338POPC   C3B24897   0.473  19.339   7.955
 7338POPC   C4B24898   0.460  19.320   7.655
 7339POPC   NC324899  36.910  25.266   9.455
 7339POPC   PO424900  36.896  25.282   9.155
 7339POPC   GL124901  36.897  25.265   8.855
 7339POPC   GL224902  36.990  25.190   8.855
 7339POPC   C1A24903  36.908  25.245   8.555
 7339POPC   D2A24904  36.893  25.259   8.255
 7339POPC   C3A24905  36.952  25.267   7.955
 7339POPC   C4A24906  36.919  25.247   7.655
 7339POPC   C1B24907  36.951  25.019   8.555
 7339POPC   C2B24908  36.964  25.013   8.255
 7339POPC   C3B24909  37.002  25.003   7.955
 7339POPC   C4B24910  36.982  24.993   7.655
 7340POPC   NC324911  12.117   9.768   9.455
 7340POPC   PO424912  12.096   9.726   9.155
 7340POPC   GL124913  12.057   9.760   8.855
 7340POPC   GL224914  12.084   9.881   8.855
 7340POPC   C1A24915  12.047   9.731   8.555
 7340POPC   D2A24916  12.079   9.786   8.255
 7340POPC   C3A24917  12.073   9.719   7.955
 7340POPC   C4A24918  12.077   9.752   7.655
 7340POPC   C1B24919  12.043   9.960   8.555
 7340POPC   C2B24920  12.042   9.974   8.255
 7340POPC   C3B24921  12.016  10.038   7.955
 7340POPC   C4B24922  12.113  10.004   7.655
 7341POPC   NC324923  40.815  15.148   9.455
 7341POPC   PO424924  40.818  15.177   9.155
 7341POPC   GL124925  40.752  15.228   8.855
 7341POPC   GL224926  40.681  15.202   8.855
 7341POPC   C1A24927  40.746  15.229   8.555
 7341POPC   D2A24928  40.745  15.211   8.255
 7341POPC   C3A24929  40.758  15.221   7.955
 7341POPC   C4A24930  40.781  15.146   7.655
 7341POPC   C1B24931  40.585  15.257   8.555
 7341POPC   C2B24932  40.598  15.258   8.255
 7341POPC   C3B24933  40.555  15.252   7.955
 7341POPC   C4B24934  40.560  15.253   7.655
 7342POPC   NC324935  24.479  27.592   9.455
 7342POPC   PO424936  24.539  27.568   9.155
 7342POPC   GL124937  24.534  27.605   8.855
 7342POPC   GL224938  24.445  27.456   8.855
 7342POPC   C1A24939  24.443  27.566   8.555
 7342POPC   D2A24940  24.454  27.617   8.255
 7342POPC   C3A24941  24.459  27.628   7.955
 7342POPC   C4A24942  24.481  27.609   7.655
 7342POPC   C1B24943  24.380  27.344   8.555
 7342POPC   C2B24944  24.368  27.394   8.255
 7342POPC   C3B24945  24.396  27.365   7.955
 7342POPC   C4B24946  24.403  27.354   7.655
 7343POPC   NC324947  35.359  35.354   9.455
 7343POPC   PO424948  35.399  35.307   9.155
 7343POPC   GL124949  35.354  35.314   8.855
 7343POPC   GL224950  35.242  35.339   8.855
 7343POPC   C1A24951  35.325  35.353   8.555
 7343POPC   D2A24952  35.395  35.371   8.255
 7343POPC   C3A24953  35.337  35.359   7.955
 7343POPC   C4A24954  35.369  35.392   7.655
 7343POPC   C1B24955  35.077  35.325   8.555
 7343POPC   C2B24956  35.142  35.326   8.255
 7343POPC   C3B24957  35.098  35.355   7.955
 7343POPC   C4B24958  35.137  35.302   7.655
 7344POPC   NC324959   1.950  26.796   9.455
 7344POPC   PO424960   1.950  26.794   9.155
 7344POPC   GL124961   1.970  26.862   8.855
 7344POPC   GL224962   2.009  26.695   8.855
 7344POPC   C1A24963   1.983  26.851   8.555
 7344POPC   D2A24964   2.005  26.799   8.255
 7344POPC   C3A24965   1.964  26.809   7.955
 7344POPC   C4A24966   2.002  26.806   7.655
 7344POPC   C1B24967   1.969  26.576   8.555
 7344POPC   C2B24968   1.985  26.609   8.255
 7344POPC   C3B24969   1.983  26.600   7.955
 7344POPC   C4B24970   1.929  26.553   7.655
 7345POPC   NC324971  33.017  12.844   9.455
 7345POPC   PO424972  33.010  12.877   9.155
 7345POPC   GL124973  33.031  12.822   8.855
 7345POPC   GL224974  33.097  12.784   8.855
 7345POPC   C1A24975  33.049  12.820   8.555
 7345POPC   D2A24976  33.065  12.831   8.255
 7345POPC   C3A24977  33.070  12.886   7.955
 7345POPC   C4A24978  33.067  12.830   7.655
 7345POPC   C1B24979  33.277  12.742   8.555
 7345POPC   C2B24980  33.285  12.688   8.255
 7345POPC   C3B24981  33.242  12.735   7.955
 7345POPC   C4B24982  33.275  12.728   7.655
 7346POPC   NC324983  20.641  43.088   9.455
 7346POPC   PO424984  20.617  43.139   9.155
 7346POPC   GL124985  20.652  43.139   8.855
 7346POPC   GL224986  20.539  43.242   8.855
 7346POPC   C1A24987  20.593  43.107   8.555
 7346POPC   D2A24988  20.606  43.105   8.255
 7346POPC   C3A24989  20.643  43.113   7.955
 7346POPC   C4A24990  20.568  43.110   7.655
 7346POPC   C1B24991  20.528  43.341   8.555
 7346POPC   C2B24992  20.530  43.311   8.255
 7346POPC   C3B24993  20.485  43.378   7.955
 7346POPC   C4B24994  20.473  43.314   7.655
 7347POPC   NC324995  23.756  12.100   9.455
 7347POPC   PO424996  23.760  12.116   9.155
 7347POPC   GL124997  23.665  12.034   8.855
 7347POPC   GL224998  23.626  12.146   8.855
 7347POPC   C1A24999  23.749  12.038   8.555
 7347POPC   D2A25000  23.672  12.044   8.255
 7347POPC   C3A25001  23.738  12.052   7.955
 7347POPC   C4A25002  23.759  12.056   7.655
 7347POPC   C1B25003  23.592  12.277   8.555
 7347POPC   C2B25004  23.506  12.298   8.255
 7347POPC   C3B25005  23.497  12.218   7.955
 7347POPC   C4B25006  23.548  12.217   7.655
 7348POPC   NC325007   5.129  15.916   9.455
 7348POPC   PO425008   5.048  15.951   9.155
 7348POPC   GL125009   5.143  15.961   8.855
 7348POPC   GL225010   5.003  15.943   8.855
 7348POPC   C1A25011   5.057  15.979   8.555
 7348POPC   D2A25012   5.082  15.950   8.255
 7348POPC   C3A25013   5.082  15.976   7.955
 7348POPC   C4A25014   5.123  16.002   7.655
 7348POPC   C1B25015   4.824  15.953   8.555
 7348POPC   C2B25016   4.880  15.937   8.255
 7348POPC   C3B25017   4.836  15.930   7.955
 7348POPC   C4B25018   4.870  15.973   7.655
 7349POPC   NC325019  13.677  33.057   9.455
 7349POPC   PO425020  13.604  33.039   9.155
 7349POPC   GL125021  13.645  32.992   8.855
 7349POPC   GL225022  13.692  33.173   8.855
 7349POPC   C1A25023  13.594  33.033   8.555
 7349POPC   D2A25024  13.593  33.013   8.255
 7349POPC   C3A25025  13.583  33.044   7.955
 7349POPC   C4A25026  13.586  33.059   7.655
 7349POPC   C1B25027  13.674  33.308   8.555
 7349POPC   C2B25028  13.669  33.274   8.255
 7349POPC   C3B25029  13.725  33.300   7.955
 7349POPC   C4B25030  13.690  33.220   7.655
 7350POPC   NC325031   8.215   4.299   9.455
 7350POPC   PO425032   8.185   4.272   9.155
 7350POPC   GL125033   8.241   4.274   8.855
 7350POPC   GL225034   8.203   4.217   8.855
 7350POPC   C1A25035   8.179   4.321   8.555
 7350POPC   D2A25036   8.192   4.304   8.255
 7350POPC   C3A25037   8.216   4.281   7.955
 7350POPC   C4A25038   8.242   4.303   7.655
 7350POPC   C1B25039   8.262   4.031   8.555
 7350POPC   C2B25040   8.232   4.091   8.255
 7350POPC   C3B25041   8.212   4.076   7.955
 7350POPC   C4B25042   8.287   4.042   7.655
 7351POPC   NC325043  43.890  19.030   9.455
 7351POPC   PO425044  43.907  19.040   9.155
 7351POPC   GL125045  43.852  19.038   8.855
 7351POPC   GL225046  43.996  19.001   8.855
 7351POPC   C1A25047  43.906  19.098   8.555
 7351POPC   D2A25048  43.889  19.071   8.255
 7351POPC   C3A25049  43.886  19.058   7.955
 7351POPC   C4A25050  43.846  19.070   7.655
 7351POPC   C1B25051  44.076  18.919   8.555
 7351POPC   C2B25052  44.111  18.886   8.255
 7351POPC   C3B25053  44.043  18.882   7.955
 7351POPC   C4B25054  44.096  18.878   7.655
 7352POPC   NC325055   2.780   8.195   9.455
 7352POPC   PO425056   2.810   8.174   9.155
 7352POPC   GL125057   2.814   8.223   8.855
 7352POPC   GL225058   2.646   8.194   8.855
 7352POPC   C1A25059   2.751   8.168   8.555
 7352POPC   D2A25060   2.769   8.195   8.255
 7352POPC   C3A25061   2.773   8.230   7.955
 7352POPC   C4A25062   2.773   8.148   7.655
 7352POPC   C1B25063   2.559   8.253   8.555
 7352POPC   C2B25064   2.547   8.235   8.255
 7352POPC   C3B25065   2.503   8.219   7.955
 7352POPC   C4B25066   2.513   8.267   7.655
 7353POPC   NC325067  41.574   2.775   9.455
 7353POPC   PO425068  41.572   2.725   9.155
 7353POPC   GL125069  41.564   2.725   8.855
 7353POPC   GL225070  41.686   2.774   8.855
 7353POPC   C1A25071  41.561   2.753   8.555
 7353POPC   D2A25072  41.525   2.742   8.255
 7353POPC   C3A25073  41.521   2.732   7.955
 7353POPC   C4A25074  41.514   2.807   7.655
 7353POPC   C1B25075  41.841   2.713   8.555
 7353POPC   C2B25076  41.808   2.762   8.255
 7353POPC   C3B25077  41.847   2.695   7.955
 7353POPC   C4B25078  41.810   2.767   7.655
 7354POPC   NC325079  20.592   3.557   9.455
 7354POPC   PO425080  20.568   3.527   9.155
 7354POPC   GL125081  20.644   3.511   8.855
 7354POPC   GL225082  20.703   3.420   8.855
 7354POPC   C1A25083  20.589   3.541   8.555
 7354POPC   D2A25084  20.636   3.551   8.255
 7354POPC   C3A25085  20.609   3.504   7.955
 7354POPC   C4A25086  20.572   3.587   7.655
 7354POPC   C1B25087  20.798   3.357   8.555
 7354POPC   C2B25088  20.781   3.332   8.255
 7354POPC   C3B25089  20.745   3.331   7.955
 7354POPC   C4B25090  20.789   3.349   7.655
 7355POPC   NC325091   5.099   5.074   9.455
 7355POPC   PO425092   5.086   5.077   9.155
 7355POPC   GL125093   5.073   5.066   8.855
 7355POPC   GL225094   4.990   5.002   8.855
 7355POPC   C1A25095   5.091   5.092   8.555
 7355POPC   D2A25096   5.045   5.056   8.255
 7355POPC   C3A25097   5.078   5.088   7.955
 7355POPC   C4A25098   5.067   5.059   7.655
 7355POPC   C1B25099   4.857   4.980   8.555
 7355POPC   C2B25100   4.872   4.980   8.255
 7355POPC   C3B25101   4.851   4.975   7.955
 7355POPC   C4B25102   4.902   4.948   7.655
 7356POPC   NC325103   1.942  43.920   9.455
 7356POPC   PO425104   1.999  43.899   9.155
 7356POPC   GL125105   2.038  43.853   8.855
 7356POPC   GL225106   2.094  43.932   8.855
 7356POPC   C1A25107   2.038  43.852   8.555
 7356POPC   D2A25108   1.956  43.890   8.255
 7356POPC   C3A25109   2.033  43.921   7.955
 7356POPC   C4A25110   1.993  43.863   7.655
 7356POPC   C1B25111   2.163  44.031   8.555
 7356POPC   C2B25112   2.156  44.067   8.255
 7356POPC   C3B25113   2.169  44.080   7.955
 7356POPC   C4B25114   2.144  44.029   7.655
 7357POPC   NC325115  25.241  29.186   9.455
 7357POPC   PO425116  25.261  29.098   9.155
 7357POPC   GL125117  25.278  29.145   8.855
 7357POPC   GL225118  25.358  29.100   8.855
 7357POPC   C1A25119  25.297  29.169   8.555
 7357POPC   D2A25120  25.249  29.109   8.255
 7357POPC   C3A25121  25.298  29.166   7.955
 7357POPC   C4A25122  25.314  29.123   7.655
 7357POPC   C1B25123  25.539  29.006   8.555
 7357POPC   C2B25124  25.501  29.050   8.255
 7357POPC   C3B25125  25.527  29.093   7.955
 7357POPC   C4B25126  25.520  29.074   7.655
 7358POPC   NC325127  35.387  16.730   9.455
 7358POPC   PO425128  35.328  16.770   9.155
 7358POPC   GL125129  35.342  16.776   8.855
 7358POPC   GL225130  35.471  16.665   8.855
 7358POPC   C1A25131  35.383  16.745   8.555
 7358POPC   D2A25132  35.383  16.721   8.255
 7358POPC   C3A25133  35.304  16.707   7.955
 7358POPC   C4A25134  35.363  16.736   7.655
 7358POPC   C1B25135  35.507  16.553   8.555
 7358POPC   C2B25136  35.469  16.576   8.255
 7358POPC   C3B25137  35.495  16.549   7.955
 7358POPC   C4B25138  35.542  16.529   7.655
 7359POPC   NC325139  29.929  36.895   9.455
 7359POPC   PO425140  29.873  36.873   9.155
 7359POPC   GL125141  29.872  36.910   8.855
 7359POPC   GL225142  29.904  37.071   8.855
 7359POPC   C1A25143  29.942  36.884   8.555
 7359POPC   D2A25144  29.937  36.873   8.255
 7359POPC   C3A25145  29.962  36.936   7.955
 7359POPC   C4A25146  29.892  36.858   7.655
 7359POPC   C1B25147  29.885  37.163   8.555
 7359POPC   C2B25148  29.878  37.097   8.255
 7359POPC   C3B25149  29.904  37.097   7.955
 7359POPC   C4B25150  29.878  37.195   7.655
 7360POPC   NC325151  26.085  36.148   9.455
 7360POPC   PO425152  26.066  36.089   9.155
 7360POPC   GL125153  26.016  36.089   8.855
 7360POPC   GL225154  26.002  35.997   8.855
 7360POPC   C1A25155  26.008  36.132   8.555
 7360POPC   D2A25156  26.046  36.129   8.255
 7360POPC   C3A25157  26.047  36.124   7.955
 7360POPC   C4A25158  26.065  36.107   7.655
 7360POPC   C1B25159  25.960  35.860   8.555
 7360POPC   C2B25160  25.983  35.912   8.255
 7360POPC   C3B25161  26.032  35.865   7.955
 7360POPC   C4B25162  25.951  35.857   7.655
 7361POPC   NC325163  38.464  40.009   9.455
 7361POPC   PO425164  38.481  40.006   9.155
 7361POPC   GL125165  38.461  39.994   8.855
 7361POPC   GL225166  38.423  39.864   8.855
 7361POPC   C1A25167  38.481  40.045   8.555
 7361POPC   D2A25168  38.420  40.032   8.255
 7361POPC   C3A25169  38.463  39.984   7.955
 7361POPC   C4A25170  38.428  40.021   7.655
 7361POPC   C1B25171  38.374  39.722   8.555
 7361POPC   C2B25172  38.353  39.731   8.255
 7361POPC   C3B25173  38.397  39.748   7.955
 7361POPC   C4B25174  38.420  39.755   7.655
 7362POPC   NC325175   9.779   4.364   9.455
 7362POPC   PO425176   9.750   4.313   9.155
 7362POPC   GL125177   9.717   4.286   8.855
 7362POPC   GL225178   9.820   4.208   8.855
 7362POPC   C1A25179   9.741   4.328   8.555
 7362POPC   D2A25180   9.743   4.314   8.255
 7362POPC   C3A25181   9.782   4.290   7.955
 7362POPC   C4A25182   9.759   4.279   7.655
 7362POPC   C1B25183   9.832   4.113   8.555
 7362POPC   C2B25184   9.793   4.119   8.255
 7362POPC   C3B25185   9.837   4.125   7.955
 7362POPC   C4B25186   9.840   4.100   7.655
 7363POPC   NC325187  39.190  34.561   9.455
 7363POPC   PO425188  39.250  34.578   9.155
 7363POPC   GL125189  39.275  34.609   8.855
 7363POPC   GL225190  39.185  34.688   8.855
 7363POPC   C1A25191  39.185  34.595   8.555
 7363POPC   D2A25192  39.234  34.575   8.255
 7363POPC   C3A25193  39.206  34.580   7.955
 7363POPC   C4A25194  39.212  34.552   7.655
 7363POPC   C1B25195  39.016  34.753   8.555
 7363POPC   C2B25196  39.030  34.747   8.255
 7363POPC   C3B25197  39.047  34.765   7.955
 7363POPC   C4B25198  39.093  34.778   7.655
 7364POPC   NC325199  17.486  33.767   9.455
 7364POPC   PO425200  17.472  33.782   9.155
 7364POPC   GL125201  17.490  33.776   8.855
 7364POPC   GL225202  17.416  33.943   8.855
 7364POPC   C1A25203  17.463  33.758   8.555
 7364POPC   D2A25204  17.552  33.808   8.255
 7364POPC   C3A25205  17.515  33.799   7.955
 7364POPC   C4A25206  17.505  33.765   7.655
 7364POPC   C1B25207  17.355  34.006   8.555
 7364POPC   C2B25208  17.337  33.984   8.255
 7364POPC   C3B25209  17.341  34.001   7.955
 7364POPC   C4B25210  17.338  34.011   7.655
 7365POPC   NC325211  25.310   4.349   9.455
 7365POPC   PO425212  25.283   4.324   9.155
 7365POPC   GL125213  25.244   4.317   8.855
 7365POPC   GL225214  25.371   4.341   8.855
 7365POPC   C1A25215  25.241   4.277   8.555
 7365POPC   D2A25216  25.303   4.353   8.255
 7365POPC   C3A25217  25.271   4.295   7.955
 7365POPC   C4A25218  25.219   4.289   7.655
 7365POPC   C1B25219  25.537   4.277   8.555
 7365POPC   C2B25220  25.505   4.368   8.255
 7365POPC   C3B25221  25.520   4.336   7.955
 7365POPC   C4B25222  25.544   4.290   7.655
 7366POPC   NC325223   8.232  12.115   9.455
 7366POPC   PO425224   8.217  12.100   9.155
 7366POPC   GL125225   8.226  12.119   8.855
 7366POPC   GL225226   8.340  12.065   8.855
 7366POPC   C1A25227   8.158  12.069   8.555
 7366POPC   D2A25228   8.191  12.049   8.255
 7366POPC   C3A25229   8.242  12.061   7.955
 7366POPC   C4A25230   8.195  12.098   7.655
 7366POPC   C1B25231   8.482  11.997   8.555
 7366POPC   C2B25232   8.442  12.009   8.255
 7366POPC   C3B25233   8.394  12.055   7.955
 7366POPC   C4B25234   8.446  12.015   7.655
 7367POPC   NC325235   9.713  21.432   9.455
 7367POPC   PO425236   9.720  21.419   9.155
 7367POPC   GL125237   9.717  21.420   8.855
 7367POPC   GL225238   9.885  21.326   8.855
 7367POPC   C1A25239   9.749  21.411   8.555
 7367POPC   D2A25240   9.753  21.368   8.255
 7367POPC   C3A25241   9.772  21.357   7.955
 7367POPC   C4A25242   9.743  21.404   7.655
 7367POPC   C1B25243   9.890  21.202   8.555
 7367POPC   C2B25244   9.933  21.172   8.255
 7367POPC   C3B25245   9.920  21.187   7.955
 7367POPC   C4B25246   9.943  21.219   7.655
 7368POPC   NC325247  28.403  29.166   9.455
 7368POPC   PO425248  28.403  29.172   9.155
 7368POPC   GL125249  28.338  29.181   8.855
 7368POPC   GL225250  28.497  29.171   8.855
 7368POPC   C1A25251  28.361  29.145   8.555
 7368POPC   D2A25252  28.405  29.102   8.255
 7368POPC   C3A25253  28.370  29.191   7.955
 7368POPC   C4A25254  28.417  29.097   7.655
 7368POPC   C1B25255  28.607  29.281   8.555
 7368POPC   C2B25256  28.644  29.260   8.255
 7368POPC   C3B25257  28.571  29.260   7.955
 7368POPC   C4B25258  28.605  29.221   7.655
 7369POPC   NC325259  36.078  21.419   9.455
 7369POPC   PO425260  36.143  21.405   9.155
 7369POPC   GL125261  36.131  21.427   8.855
 7369POPC   GL225262  36.046  21.330   8.855
 7369POPC   C1A25263  36.121  21.424   8.555
 7369POPC   D2A25264  36.099  21.388   8.255
 7369POPC   C3A25265  36.095  21.347   7.955
 7369POPC   C4A25266  36.134  21.395   7.655
 7369POPC   C1B25267  35.925  21.329   8.555
 7369POPC   C2B25268  35.929  21.303   8.255
 7369POPC   C3B25269  35.930  21.294   7.955
 7369POPC   C4B25270  35.880  21.263   7.655
 7370POPC   NC325271  36.165   0.480   9.455
 7370POPC   PO425272  36.177   0.453   9.155
 7370POPC   GL125273  36.162   0.411   8.855
 7370POPC   GL225274  36.174   0.334   8.855
 7370POPC   C1A25275  36.085   0.487   8.555
 7370POPC   D2A25276  36.168   0.461   8.255
 7370POPC   C3A25277  36.144   0.414   7.955
 7370POPC   C4A25278  36.140   0.396   7.655
 7370POPC   C1B25279  36.301   0.240   8.555
 7370POPC   C2B25280  36.276   0.300   8.255
 7370POPC   C3B25281  36.270   0.273   7.955
 7370POPC   C4B25282  36.363   0.270   7.655
 7371POPC   NC325283  30.713  33.777   9.455
 7371POPC   PO425284  30.649  33.789   9.155
 7371POPC   GL125285  30.660  33.812   8.855
 7371POPC   GL225286  30.763  33.906   8.855
 7371POPC   C1A25287  30.715  33.812   8.555
 7371POPC   D2A25288  30.737  33.829   8.255
 7371POPC   C3A25289  30.676  33.814   7.955
 7371POPC   C4A25290  30.662  33.758   7.655
 7371POPC   C1B25291  30.792  34.051   8.555
 7371POPC   C2B25292  30.823  34.046   8.255
 7371POPC   C3B25293  30.831  33.994   7.955
 7371POPC   C4B25294  30.767  34.001   7.655
 7372POPC   NC325295  23.710  29.184   9.455
 7372POPC   PO425296  23.758  29.152   9.155
 7372POPC   GL125297  23.671  29.176   8.855
 7372POPC   GL225298  23.585  29.203   8.855
 7372POPC   C1A25299  23.761  29.095   8.555
 7372POPC   D2A25300  23.706  29.148   8.255
 7372POPC   C3A25301  23.710  29.119   7.955
 7372POPC   C4A25302  23.672  29.167   7.655
 7372POPC   C1B25303  23.540  29.351   8.555
 7372POPC   C2B25304  23.561  29.300   8.255
 7372POPC   C3B25305  23.585  29.349   7.955
 7372POPC   C4B25306  23.553  29.326   7.655
 7373POPC   NC325307  18.292  33.756   9.455
 7373POPC   PO425308  18.241  33.795   9.155
 7373POPC   GL125309  18.273  33.775   8.855
 7373POPC   GL225310  18.414  33.818   8.855
 7373POPC   C1A25311  18.235  33.832   8.555
 7373POPC   D2A25312  18.284  33.794   8.255
 7373POPC   C3A25313  18.277  33.782   7.955
 7373POPC   C4A25314  18.308  33.844   7.655
 7373POPC   C1B25315  18.534  33.824   8.555
 7373POPC   C2B25316  18.498  33.889   8.255
 7373POPC   C3B25317  18.542  33.827   7.955
 7373POPC   C4B25318  18.533  33.821   7.655
 7374POPC   NC325319  12.091  26.841   9.455
 7374POPC   PO425320  12.070  26.784   9.155
 7374POPC   GL125321  12.068  26.854   8.855
 7374POPC   GL225322  12.113  26.730   8.855
 7374POPC   C1A25323  12.111  26.841   8.555
 7374POPC   D2A25324  12.026  26.842   8.255
 7374POPC   C3A25325  12.124  26.779   7.955
 7374POPC   C4A25326  12.078  26.839   7.655
 7374POPC   C1B25327  12.156  26.607   8.555
 7374POPC   C2B25328  12.124  26.591   8.255
 7374POPC   C3B25329  12.158  26.569   7.955
 7374POPC   C4B25330  12.109  26.594   7.655
 7375POPC   NC325331  42.296  41.596   9.455
 7375POPC   PO425332  42.382  41.566   9.155
 7375POPC   GL125333  42.323  41.549   8.855
 7375POPC   GL225334  42.396  41.698   8.855
 7375POPC   C1A25335  42.293  41.551   8.555
 7375POPC   D2A25336  42.292  41.558   8.255
 7375POPC   C3A25337  42.337  41.552   7.955
 7375POPC   C4A25338  42.285  41.522   7.655
 7375POPC   C1B25339  42.526  41.740   8.555
 7375POPC   C2B25340  42.492  41.767   8.255
 7375POPC   C3B25341  42.529  41.793   7.955
 7375POPC   C4B25342  42.461  41.730   7.655
 7376POPC   NC325343  36.129  29.933   9.455
 7376POPC   PO425344  36.141  29.961   9.155
 7376POPC   GL125345  36.155  29.966   8.855
 7376POPC   GL225346  36.068  29.958   8.855
 7376POPC   C1A25347  36.081  29.919   8.555
 7376POPC   D2A25348  36.177  29.896   8.255
 7376POPC   C3A25349  36.132  29.920   7.955
 7376POPC   C4A25350  36.097  29.894   7.655
 7376POPC   C1B25351  35.876  30.072   8.555
 7376POPC   C2B25352  35.912  30.101   8.255
 7376POPC   C3B25353  35.890  30.060   7.955
 7376POPC   C4B25354  35.909  30.109   7.655
 7377POPC   NC325355  29.942  43.925   9.455
 7377POPC   PO425356  29.964  43.886   9.155
 7377POPC   GL125357  29.938  43.899   8.855
 7377POPC   GL225358  29.873  43.984   8.855
 7377POPC   C1A25359  29.933  43.869   8.555
 7377POPC   D2A25360  29.910  43.869   8.255
 7377POPC   C3A25361  29.896  43.862   7.955
 7377POPC   C4A25362  29.920  43.926   7.655
 7377POPC   C1B25363  29.800  44.084   8.555
 7377POPC   C2B25364  29.764  44.097   8.255
 7377POPC   C3B25365  29.785  44.113   7.955
 7377POPC   C4B25366  29.752  44.073   7.655
 7378POPC   NC325367  29.153   5.112   9.455
 7378POPC   PO425368  29.113   5.074   9.155
 7378POPC   GL125369  29.185   5.114   8.855
 7378POPC   GL225370  29.173   4.979   8.855
 7378POPC   C1A25371  29.155   5.105   8.555
 7378POPC   D2A25372  29.194   5.063   8.255
 7378POPC   C3A25373  29.152   5.093   7.955
 7378POPC   C4A25374  29.176   5.119   7.655
 7378POPC   C1B25375  29.204   4.822   8.555
 7378POPC   C2B25376  29.180   4.868   8.255
 7378POPC   C3B25377  29.229   4.871   7.955
 7378POPC   C4B25378  29.251   4.884   7.655
 7379POPC   NC325379  10.536  25.292   9.455
 7379POPC   PO425380  10.523  25.308   9.155
 7379POPC   GL125381  10.528  25.258   8.855
 7379POPC   GL225382  10.398  25.166   8.855
 7379POPC   C1A25383  10.487  25.291   8.555
 7379POPC   D2A25384  10.499  25.275   8.255
 7379POPC   C3A25385  10.545  25.219   7.955
 7379POPC   C4A25386  10.572  25.290   7.655
 7379POPC   C1B25387  10.316  25.148   8.555
 7379POPC   C2B25388  10.294  25.118   8.255
 7379POPC   C3B25389  10.342  25.162   7.955
 7379POPC   C4B25390  10.363  25.146   7.655
 7380POPC   NC325391  16.714   1.255   9.455
 7380POPC   PO425392  16.688   1.259   9.155
 7380POPC   GL125393  16.757   1.182   8.855
 7380POPC   GL225394  16.704   1.339   8.855
 7380POPC   C1A25395  16.695   1.257   8.555
 7380POPC   D2A25396  16.708   1.175   8.255
 7380POPC   C3A25397  16.744   1.213   7.955
 7380POPC   C4A25398  16.767   1.181   7.655
 7380POPC   C1B25399  16.659   1.393   8.555
 7380POPC   C2B25400  16.584   1.398   8.255
 7380POPC   C3B25401  16.642   1.440   7.955
 7380POPC   C4B25402  16.639   1.422   7.655
 7381POPC   NC325403  40.753  22.145   9.455
 7381POPC   PO425404  40.743  22.156   9.155
 7381POPC   GL125405  40.736  22.116   8.855
 7381POPC   GL225406  40.829  22.058   8.855
 7381POPC   C1A25407  40.740  22.180   8.555
 7381POPC   D2A25408  40.770  22.140   8.255
 7381POPC   C3A25409  40.775  22.114   7.955
 7381POPC   C4A25410  40.823  22.112   7.655
 7381POPC   C1B25411  40.999  22.030   8.555
 7381POPC   C2B25412  40.977  21.963   8.255
 7381POPC   C3B25413  41.004  21.989   7.955
 7381POPC   C4B25414  40.964  22.004   7.655
 7382POPC   NC325415  18.286  36.903   9.455
 7382POPC   PO425416  18.320  36.867   9.155
 7382POPC   GL125417  18.314  36.863   8.855
 7382POPC   GL225418  18.177  36.935   8.855
 7382POPC   C1A25419  18.321  36.878   8.555
 7382POPC   D2A25420  18.302  36.934   8.255
 7382POPC   C3A25421  18.271  36.861   7.955
 7382POPC   C4A25422  18.301  36.887   7.655
 7382POPC   C1B25423  18.123  37.006   8.555
 7382POPC   C2B25424  18.109  37.076   8.255
 7382POPC   C3B25425  18.083  37.058   7.955
 7382POPC   C4B25426  18.085  37.001   7.655
 7383POPC   NC325427   1.164  42.354   9.455
 7383POPC   PO425428   1.191  42.287   9.155
 7383POPC   GL125429   1.252  42.318   8.855
 7383POPC   GL225430   1.304  42.428   8.855
 7383POPC   C1A25431   1.251  42.382   8.555
 7383POPC   D2A25432   1.241  42.327   8.255
 7383POPC   C3A25433   1.207  42.366   7.955
 7383POPC   C4A25434   1.164  42.329   7.655
 7383POPC   C1B25435   1.367  42.562   8.555
 7383POPC   C2B25436   1.373  42.556   8.255
 7383POPC   C3B25437   1.328  42.589   7.955
 7383POPC   C4B25438   1.366  42.577   7.655
 7384POPC   NC325439  29.136  30.664   9.455
 7384POPC   PO425440  29.135  30.725   9.155
 7384POPC   GL125441  29.127  30.700   8.855
 7384POPC   GL225442  29.122  30.788   8.855
 7384POPC   C1A25443  29.106  30.743   8.555
 7384POPC   D2A25444  29.128  30.660   8.255
 7384POPC   C3A25445  29.145  30.686   7.955
 7384POPC   C4A25446  29.176  30.743   7.655
 7384POPC   C1B25447  29.015  30.914   8.555
 7384POPC   C2B25448  29.050  30.938   8.255
 7384POPC   C3B25449  28.966  30.940   7.955
 7384POPC   C4B25450  28.981  30.932   7.655
 7385POPC   NC325451   8.193  33.770   9.455
 7385POPC   PO425452   8.186  33.841   9.155
 7385POPC   GL125453   8.225  33.809   8.855
 7385POPC   GL225454   8.106  33.915   8.855
 7385POPC   C1A25455   8.196  33.756   8.555
 7385POPC   D2A25456   8.230  33.763   8.255
 7385POPC   C3A25457   8.222  33.788   7.955
 7385POPC   C4A25458   8.148  33.833   7.655
 7385POPC   C1B25459   8.091  34.049   8.555
 7385POPC   C2B25460   8.058  33.990   8.255
 7385POPC   C3B25461   8.062  34.072   7.955
 7385POPC   C4B25462   8.086  33.990   7.655
 7386POPC   NC325463   5.116  31.502   9.455
 7386POPC   PO425464   5.114  31.491   9.155
 7386POPC   GL125465   5.108  31.468   8.855
 7386POPC   GL225466   4.975  31.524   8.855
 7386POPC   C1A25467   5.092  31.495   8.555
 7386POPC   D2A25468   5.067  31.434   8.255
 7386POPC   C3A25469   5.089  31.422   7.955
 7386POPC   C4A25470   5.049  31.512   7.655
 7386POPC   C1B25471   4.839  31.565   8.555
 7386POPC   C2B25472   4.875  31.603   8.255
 7386POPC   C3B25473   4.894  31.551   7.955
 7386POPC   C4B25474   4.868  31.567   7.655
 7387POPC   NC325475  26.865  43.118   9.455
 7387POPC   PO425476  26.843  43.091   9.155
 7387POPC   GL125477  26.818  43.062   8.855
 7387POPC   GL225478  26.687  43.059   8.855
 7387POPC   C1A25479  26.864  43.086   8.555
 7387POPC   D2A25480  26.814  43.123   8.255
 7387POPC   C3A25481  26.785  43.080   7.955
 7387POPC   C4A25482  26.839  43.127   7.655
 7387POPC   C1B25483  26.578  43.071   8.555
 7387POPC   C2B25484  26.534  43.059   8.255
 7387POPC   C3B25485  26.569  43.023   7.955
 7387POPC   C4B25486  26.597  43.098   7.655
 7388POPC   NC325487  20.634   7.393   9.455
 7388POPC   PO425488  20.574   7.448   9.155
 7388POPC   GL125489  20.590   7.411   8.855
 7388POPC   GL225490  20.592   7.555   8.855
 7388POPC   C1A25491  20.577   7.415   8.555
 7388POPC   D2A25492  20.567   7.419   8.255
 7388POPC   C3A25493  20.570   7.416   7.955
 7388POPC   C4A25494  20.639   7.390   7.655
 7388POPC   C1B25495  20.484   7.659   8.555
 7388POPC   C2B25496  20.492   7.678   8.255
 7388POPC   C3B25497  20.569   7.631   7.955
 7388POPC   C4B25498  20.515   7.652   7.655
 7389POPC   NC325499  30.713   7.391   9.455
 7389POPC   PO425500  30.725   7.455   9.155
 7389POPC   GL125501  30.697   7.456   8.855
 7389POPC   GL225502  30.618   7.388   8.855
 7389POPC   C1A25503  30.689   7.423   8.555
 7389POPC   D2A25504  30.683   7.405   8.255
 7389POPC   C3A25505  30.662   7.439   7.955
 7389POPC   C4A25506  30.686   7.443   7.655
 7389POPC   C1B25507  30.425   7.290   8.555
 7389POPC   C2B25508  30.466   7.374   8.255
 7389POPC   C3B25509  30.501   7.315   7.955
 7389POPC   C4B25510  30.452   7.372   7.655
 7390POPC   NC325511  27.637  33.804   9.455
 7390POPC   PO425512  27.555  33.766   9.155
 7390POPC   GL125513  27.550  33.760   8.855
 7390POPC   GL225514  27.532  33.677   8.855
 7390POPC   C1A25515  27.579  33.845   8.555
 7390POPC   D2A25516  27.600  33.829   8.255
 7390POPC   C3A25517  27.549  33.834   7.955
 7390POPC   C4A25518  27.594  33.795   7.655
 7390POPC   C1B25519  27.389  33.626   8.555
 7390POPC   C2B25520  27.465  33.607   8.255
 7390POPC   C3B25521  27.469  33.599   7.955
 7390POPC   C4B25522  27.387  33.579   7.655
 7391POPC   NC325523   8.944  36.089   9.455
 7391POPC   PO425524   8.945  36.153   9.155
 7391POPC   GL125525   8.955  36.149   8.855
 7391POPC   GL225526   9.083  36.068   8.855
 7391POPC   C1A25527   9.002  36.084   8.555
 7391POPC   D2A25528   8.974  36.162   8.255
 7391POPC   C3A25529   9.006  36.092   7.955
 7391POPC   C4A25530   8.994  36.131   7.655
 7391POPC   C1B25531   9.203  36.132   8.555
 7391POPC   C2B25532   9.172  36.106   8.255
 7391POPC   C3B25533   9.183  36.076   7.955
 7391POPC   C4B25534   9.212  36.077   7.655
 7392POPC   NC325535   1.987  28.407   9.455
 7392POPC   PO425536   1.976  28.394   9.155
 7392POPC   GL125537   1.988  28.381   8.855
 7392POPC   GL225538   1.815  28.378   8.855
 7392POPC   C1A25539   1.964  28.349   8.555
 7392POPC   D2A25540   1.964  28.324   8.255
 7392POPC   C3A25541   1.961  28.367   7.955
 7392POPC   C4A25542   1.970  28.358   7.655
 7392POPC   C1B25543   1.711  28.311   8.555
 7392POPC   C2B25544   1.780  28.303   8.255
 7392POPC   C3B25545   1.778  28.326   7.955
 7392POPC   C4B25546   1.714  28.334   7.655
 7393POPC   NC325547   1.988   2.023   9.455
 7393POPC   PO425548   2.024   1.996   9.155
 7393POPC   GL125549   2.039   2.004   8.855
 7393POPC   GL225550   1.856   2.078   8.855
 7393POPC   C1A25551   2.032   2.008   8.555
 7393POPC   D2A25552   1.992   2.021   8.255
 7393POPC   C3A25553   1.976   1.972   7.955
 7393POPC   C4A25554   1.988   1.947   7.655
 7393POPC   C1B25555   1.800   2.078   8.555
 7393POPC   C2B25556   1.798   2.034   8.255
 7393POPC   C3B25557   1.710   2.040   7.955
 7393POPC   C4B25558   1.776   2.053   7.655
 7394POPC   NC325559  11.267  40.034   9.455
 7394POPC   PO425560  11.265  39.968   9.155
 7394POPC   GL125561  11.310  39.976   8.855
 7394POPC   GL225562  11.159  40.030   8.855
 7394POPC   C1A25563  11.344  39.991   8.555
 7394POPC   D2A25564  11.348  39.963   8.255
 7394POPC   C3A25565  11.269  40.028   7.955
 7394POPC   C4A25566  11.302  39.968   7.655
 7394POPC   C1B25567  11.028  39.944   8.555
 7394POPC   C2B25568  11.070  39.997   8.255
 7394POPC   C3B25569  11.072  39.963   7.955
 7394POPC   C4B25570  11.024  39.963   7.655
 7395POPC   NC325571  39.980   8.187   9.455
 7395POPC   PO425572  40.023   8.235   9.155
 7395POPC   GL125573  40.036   8.246   8.855
 7395POPC   GL225574  40.174   8.142   8.855
 7395POPC   C1A25575  40.017   8.218   8.555
 7395POPC   D2A25576  39.977   8.157   8.255
 7395POPC   C3A25577  39.967   8.159   7.955
 7395POPC   C4A25578  39.970   8.163   7.655
 7395POPC   C1B25579  40.279   8.163   8.555
 7395POPC   C2B25580  40.293   8.100   8.255
 7395POPC   C3B25581  40.295   8.084   7.955
 7395POPC   C4B25582  40.235   8.083   7.655
 7396POPC   NC325583   0.465   0.416   9.455
 7396POPC   PO425584   0.447   0.432   9.155
 7396POPC   GL125585   0.435   0.403   8.855
 7396POPC   GL225586   0.573   0.379   8.855
 7396POPC   C1A25587   0.485   0.441   8.555
 7396POPC   D2A25588   0.436   0.394   8.255
 7396POPC   C3A25589   0.425   0.408   7.955
 7396POPC   C4A25590   0.414   0.449   7.655
 7396POPC   C1B25591   0.675   0.394   8.555
 7396POPC   C2B25592   0.725   0.367   8.255
 7396POPC   C3B25593   0.648   0.338   7.955
 7396POPC   C4B25594   0.706   0.389   7.655
 7397POPC   NC325595  32.273  26.789   9.455
 7397POPC   PO425596  32.274  26.863   9.155
 7397POPC   GL125597  32.200  26.795   8.855
 7397POPC   GL225598  32.111  26.765   8.855
 7397POPC   C1A25599  32.242  26.794   8.555
 7397POPC   D2A25600  32.238  26.812   8.255
 7397POPC   C3A25601  32.214  26.830   7.955
 7397POPC   C4A25602  32.216  26.836   7.655
 7397POPC   C1B25603  32.013  26.727   8.555
 7397POPC   C2B25604  31.971  26.811   8.255
 7397POPC   C3B25605  32.017  26.730   7.955
 7397POPC   C4B25606  31.964  26.803   7.655
 7398POPC   NC325607  24.491   6.610   9.455
 7398POPC   PO425608  24.446   6.677   9.155
 7398POPC   GL125609  24.458   6.632   8.855
 7398POPC   GL225610  24.404   6.551   8.855
 7398POPC   C1A25611  24.501   6.597   8.555
 7398POPC   D2A25612  24.452   6.665   8.255
 7398POPC   C3A25613  24.446   6.648   7.955
 7398POPC   C4A25614  24.503   6.603   7.655
 7398POPC   C1B25615  24.278   6.501   8.555
 7398POPC   C2B25616  24.257   6.551   8.255
 7398POPC   C3B25617  24.245   6.563   7.955
 7398POPC   C4B25618  24.250   6.553   7.655
 7399POPC   NC325619   8.970  23.737   9.455
 7399POPC   PO425620   8.946  23.664   9.155
 7399POPC   GL125621   8.954  23.751   8.855
 7399POPC   GL225622   8.840  23.633   8.855
 7399POPC   C1A25623   8.958  23.695   8.555
 7399POPC   D2A25624   8.945  23.738   8.255
 7399POPC   C3A25625   8.943  23.709   7.955
 7399POPC   C4A25626   9.011  23.740   7.655
 7399POPC   C1B25627   8.762  23.560   8.555
 7399POPC   C2B25628   8.722  23.579   8.255
 7399POPC   C3B25629   8.795  23.550   7.955
 7399POPC   C4B25630   8.741  23.622   7.655
 7400POPC   NC325631  15.983   1.999   9.455
 7400POPC   PO425632  15.968   1.948   9.155
 7400POPC   GL125633  15.985   1.985   8.855
 7400POPC   GL225634  15.903   1.914   8.855
 7400POPC   C1A25635  15.912   1.947   8.555
 7400POPC   D2A25636  15.962   1.983   8.255
 7400POPC   C3A25637  15.976   1.990   7.955
 7400POPC   C4A25638  15.910   2.031   7.655
 7400POPC   C1B25639  15.944   1.777   8.555
 7400POPC   C2B25640  15.931   1.753   8.255
 7400POPC   C3B25641  15.891   1.789   7.955
 7400POPC   C4B25642  15.934   1.735   7.655
 7401POPC   NC325643  38.466   4.278   9.455
 7401POPC   PO425644  38.461   4.278   9.155
 7401POPC   GL125645  38.463   4.270   8.855
 7401POPC   GL225646  38.306   4.313   8.855
 7401POPC   C1A25647  38.487   4.335   8.555
 7401POPC   D2A25648  38.423   4.304   8.255
 7401POPC   C3A25649  38.476   4.290   7.955
 7401POPC   C4A25650  38.460   4.332   7.655
 7401POPC   C1B25651  38.248   4.425   8.555
 7401POPC   C2B25652  38.187   4.428   8.255
 7401POPC   C3B25653  38.176   4.426   7.955
 7401POPC   C4B25654  38.249   4.367   7.655
 7402POPC   NC325655  39.997  18.268   9.455
 7402POPC   PO425656  40.014  18.268   9.155
 7402POPC   GL125657  39.984  18.326   8.855
 7402POPC   GL225658  40.123  18.191   8.855
 7402POPC   C1A25659  40.001  18.319   8.555
 7402POPC   D2A25660  40.018  18.250   8.255
 7402POPC   C3A25661  40.008  18.313   7.955
 7402POPC   C4A25662  40.026  18.324   7.655
 7402POPC   C1B25663  40.182  18.166   8.555
 7402POPC   C2B25664  40.196  18.072   8.255
 7402POPC   C3B25665  40.229  18.166   7.955
 7402POPC   C4B25666  40.196  18.097   7.655
 7403POPC   NC325667  30.698   3.503   9.455
 7403POPC   PO425668  30.708   3.544   9.155
 7403POPC   GL125669  30.701   3.585   8.855
 7403POPC   GL225670  30.700   3.624   8.855
 7403POPC   C1A25671  30.742   3.590   8.555
 7403POPC   D2A25672  30.661   3.510   8.255
 7403POPC   C3A25673  30.716   3.508   7.955
 7403POPC   C4A25674  30.720   3.544   7.655
 7403POPC   C1B25675  30.738   3.823   8.555
 7403POPC   C2B25676  30.697   3.794   8.255
 7403POPC   C3B25677  30.708   3.797   7.955
 7403POPC   C4B25678  30.746   3.783   7.655
 7404POPC   NC325679   5.080   9.019   9.455
 7404POPC   PO425680   5.112   8.952   9.155
 7404POPC   GL125681   5.111   8.978   8.855
 7404POPC   GL225682   5.094   8.868   8.855
 7404POPC   C1A25683   5.050   8.966   8.555
 7404POPC   D2A25684   5.080   8.931   8.255
 7404POPC   C3A25685   5.074   8.986   7.955
 7404POPC   C4A25686   5.109   8.965   7.655
 7404POPC   C1B25687   4.972   8.747   8.555
 7404POPC   C2B25688   4.964   8.757   8.255
 7404POPC   C3B25689   4.962   8.746   7.955
 7404POPC   C4B25690   5.036   8.693   7.655
 7405POPC   NC325691  28.403  43.070   9.455
 7405POPC   PO425692  28.369  43.083   9.155
 7405POPC   GL125693  28.328  43.068   8.855
 7405POPC   GL225694  28.296  43.049   8.855
 7405POPC   C1A25695  28.412  43.066   8.555
 7405POPC   D2A25696  28.412  43.147   8.255
 7405POPC   C3A25697  28.387  43.086   7.955
 7405POPC   C4A25698  28.355  43.072   7.655
 7405POPC   C1B25699  28.199  43.019   8.555
 7405POPC   C2B25700  28.187  42.939   8.255
 7405POPC   C3B25701  28.173  42.932   7.955
 7405POPC   C4B25702  28.112  42.982   7.655
 7406POPC   NC325703   5.051  36.123   9.455
 7406POPC   PO425704   5.126  36.109   9.155
 7406POPC   GL125705   5.112  36.125   8.855
 7406POPC   GL225706   5.058  35.965   8.855
 7406POPC   C1A25707   5.073  36.095   8.555
 7406POPC   D2A25708   5.081  36.102   8.255
 7406POPC   C3A25709   5.122  36.151   7.955
 7406POPC   C4A25710   5.082  36.152   7.655
 7406POPC   C1B25711   5.020  35.884   8.555
 7406POPC   C2B25712   5.081  35.911   8.255
 7406POPC   C3B25713   5.045  35.849   7.955
 7406POPC   C4B25714   5.012  35.867   7.655
 7407POPC   NC325715  42.343  24.469   9.455
 7407POPC   PO425716  42.313  24.516   9.155
 7407POPC   GL125717  42.358  24.442   8.855
 7407POPC   GL225718  42.346  24.408   8.855
 7407POPC   C1A25719  42.322  24.534   8.555
 7407POPC   D2A25720  42.336  24.533   8.255
 7407POPC   C3A25721  42.333  24.491   7.955
 7407POPC   C4A25722  42.312  24.509   7.655
 7407POPC   C1B25723  42.364  24.237   8.555
 7407POPC   C2B25724  42.340  24.231   8.255
 7407POPC   C3B25725  42.310  24.266   7.955
 7407POPC   C4B25726  42.336  24.258   7.655
 7408POPC   NC325727  35.397  30.677   9.455
 7408POPC   PO425728  35.375  30.716   9.155
 7408POPC   GL125729  35.383  30.737   8.855
 7408POPC   GL225730  35.514  30.778   8.855
 7408POPC   C1A25731  35.393  30.711   8.555
 7408POPC   D2A25732  35.338  30.744   8.255
 7408POPC   C3A25733  35.350  30.712   7.955
 7408POPC   C4A25734  35.324  30.717   7.655
 7408POPC   C1B25735  35.590  30.826   8.555
 7408POPC   C2B25736  35.627  30.796   8.255
 7408POPC   C3B25737  35.570  30.767   7.955
 7408POPC   C4B25738  35.543  30.771   7.655
 7409POPC   NC325739  15.151  22.129   9.455
 7409POPC   PO425740  15.164  22.144   9.155
 7409POPC   GL125741  15.165  22.182   8.855
 7409POPC   GL225742  15.224  22.045   8.855
 7409POPC   C1A25743  15.160  22.196   8.555
 7409POPC   D2A25744  15.160  22.126   8.255
 7409POPC   C3A25745  15.134  22.152   7.955
 7409POPC   C4A25746  15.178  22.157   7.655
 7409POPC   C1B25747  15.320  21.980   8.555
 7409POPC   C2B25748  15.326  21.954   8.255
 7409POPC   C3B25749  15.309  21.931   7.955
 7409POPC   C4B25750  15.387  22.001   7.655
 7410POPC   NC325751  40.813  33.769   9.455
 7410POPC   PO425752  40.798  33.793   9.155
 7410POPC   GL125753  40.810  33.812   8.855
 7410POPC   GL225754  40.879  33.679   8.855
 7410POPC   C1A25755  40.746  33.776   8.555
 7410POPC   D2A25756  40.747  33.789   8.255
 7410POPC   C3A25757  40.783  33.762   7.955
 7410POPC   C4A25758  40.799  33.789   7.655
 7410POPC   C1B25759  40.874  33.590   8.555
 7410POPC   C2B25760  40.963  33.554   8.255
 7410POPC   C3B25761  40.883  33.544   7.955
 7410POPC   C4B25762  40.885  33.597   7.655
 7411POPC   NC325763  40.785  14.404   9.455
 7411POPC   PO425764  40.751  14.370   9.155
 7411POPC   GL125765  40.792  14.358   8.855
 7411POPC   GL225766  40.795  14.264   8.855
 7411POPC   C1A25767  40.794  14.423   8.555
 7411POPC   D2A25768  40.744  14.445   8.255
 7411POPC   C3A25769  40.736  14.408   7.955
 7411POPC   C4A25770  40.828  14.368   7.655
 7411POPC   C1B25771  40.867  14.143   8.555
 7411POPC   C2B25772  40.868  14.164   8.255
 7411POPC   C3B25773  40.847  14.184   7.955
 7411POPC   C4B25774  40.860  14.195   7.655
 7412POPC   NC325775  29.895  26.797   9.455
 7412POPC   PO425776  29.923  26.866   9.155
 7412POPC   GL125777  29.968  26.806   8.855
 7412POPC   GL225778  29.999  26.830   8.855
 7412POPC   C1A25779  29.876  26.802   8.555
 7412POPC   D2A25780  29.877  26.840   8.255
 7412POPC   C3A25781  29.906  26.778   7.955
 7412POPC   C4A25782  29.935  26.862   7.655
 7412POPC   C1B25783  30.177  26.816   8.555
 7412POPC   C2B25784  30.149  26.858   8.255
 7412POPC   C3B25785  30.158  26.821   7.955
 7412POPC   C4B25786  30.206  26.860   7.655
 7413POPC   NC325787  12.041  21.401   9.455
 7413POPC   PO425788  12.052  21.404   9.155
 7413POPC   GL125789  12.083  21.345   8.855
 7413POPC   GL225790  12.168  21.299   8.855
 7413POPC   C1A25791  12.113  21.421   8.555
 7413POPC   D2A25792  12.031  21.339   8.255
 7413POPC   C3A25793  12.053  21.422   7.955
 7413POPC   C4A25794  12.119  21.357   7.655
 7413POPC   C1B25795  12.331  21.240   8.555
 7413POPC   C2B25796  12.287  21.265   8.255
 7413POPC   C3B25797  12.294  21.275   7.955
 7413POPC   C4B25798  12.315  21.234   7.655
 7414POPC   NC325799  30.743  15.172   9.455
 7414POPC   PO425800  30.706  15.150   9.155
 7414POPC   GL125801  30.710  15.205   8.855
 7414POPC   GL225802  30.710  15.057   8.855
 7414POPC   C1A25803  30.669  15.182   8.555
 7414POPC   D2A25804  30.672  15.135   8.255
 7414POPC   C3A25805  30.665  15.191   7.955
 7414POPC   C4A25806  30.662  15.136   7.655
 7414POPC   C1B25807  30.682  14.922   8.555
 7414POPC   C2B25808  30.730  14.929   8.255
 7414POPC   C3B25809  30.754  14.885   7.955
 7414POPC   C4B25810  30.702  14.929   7.655
 7415POPC   NC325811  14.364  17.510   9.455
 7415POPC   PO425812  14.354  17.545   9.155
 7415POPC   GL125813  14.365  17.469   8.855
 7415POPC   GL225814  14.397  17.648   8.855
 7415POPC   C1A25815  14.410  17.549   8.555
 7415POPC   D2A25816  14.376  17.506   8.255
 7415POPC   C3A25817  14.368  17.535   7.955
 7415POPC   C4A25818  14.416  17.484   7.655
 7415POPC   C1B25819  14.466  17.785   8.555
 7415POPC   C2B25820  14.425  17.797   8.255
 7415POPC   C3B25821  14.413  17.768   7.955
 7415POPC   C4B25822  14.433  17.719   7.655
 7416POPC   NC325823   8.925  16.005   9.455
 7416POPC   PO425824   8.966  15.984   9.155
 7416POPC   GL125825   8.987  16.002   8.855
 7416POPC   GL225826   8.933  16.037   8.855
 7416POPC   C1A25827   8.965  15.958   8.555
 7416POPC   D2A25828   8.929  15.918   8.255
 7416POPC   C3A25829   8.968  15.973   7.955
 7416POPC   C4A25830   8.995  15.958   7.655
 7416POPC   C1B25831   8.838  16.141   8.555
 7416POPC   C2B25832   8.855  16.153   8.255
 7416POPC   C3B25833   8.884  16.138   7.955
 7416POPC   C4B25834   8.882  16.170   7.655
 7417POPC   NC325835  37.668  24.500   9.455
 7417POPC   PO425836  37.697  24.487   9.155
 7417POPC   GL125837  37.681  24.535   8.855
 7417POPC   GL225838  37.728  24.568   8.855
 7417POPC   C1A25839  37.649  24.512   8.555
 7417POPC   D2A25840  37.708  24.527   8.255
 7417POPC   C3A25841  37.683  24.483   7.955
 7417POPC   C4A25842  37.654  24.526   7.655
 7417POPC   C1B25843  37.825  24.736   8.555
 7417POPC   C2B25844  37.824  24.732   8.255
 7417POPC   C3B25845  37.819  24.741   7.955
 7417POPC   C4B25846  37.828  24.725   7.655
 7418POPC   NC325847  13.633  25.233   9.455
 7418POPC   PO425848  13.669  25.302   9.155
 7418POPC   GL125849  13.612  25.295   8.855
 7418POPC   GL225850  13.536  25.232   8.855
 7418POPC   C1A25851  13.646  25.305   8.555
 7418POPC   D2A25852  13.658  25.282   8.255
 7418POPC   C3A25853  13.673  25.226   7.955
 7418POPC   C4A25854  13.665  25.264   7.655
 7418POPC   C1B25855  13.423  25.234   8.555
 7418POPC   C2B25856  13.370  25.260   8.255
 7418POPC   C3B25857  13.352  25.276   7.955
 7418POPC   C4B25858  13.377  25.269   7.655
 7419POPC   NC325859  43.902  22.927   9.455
 7419POPC   PO425860  43.878  22.932   9.155
 7419POPC   GL125861  43.929  22.924   8.855
 7419POPC   GL225862  43.952  23.018   8.855
 7419POPC   C1A25863  43.857  22.987   8.555
 7419POPC   D2A25864  43.863  22.957   8.255
 7419POPC   C3A25865  43.854  22.921   7.955
 7419POPC   C4A25866  43.921  22.929   7.655
 7419POPC   C1B25867  44.018  23.207   8.555
 7419POPC   C2B25868  43.968  23.178   8.255
 7419POPC   C3B25869  43.949  23.174   7.955
 7419POPC   C4B25870  43.973  23.125   7.655
 7420POPC   NC325871   7.391  22.120   9.455
 7420POPC   PO425872   7.406  22.158   9.155
 7420POPC   GL125873   7.412  22.202   8.855
 7420POPC   GL225874   7.400  22.085   8.855
 7420POPC   C1A25875   7.396  22.142   8.555
 7420POPC   D2A25876   7.452  22.174   8.255
 7420POPC   C3A25877   7.435  22.207   7.955
 7420POPC   C4A25878   7.422  22.170   7.655
 7420POPC   C1B25879   7.315  21.922   8.555
 7420POPC   C2B25880   7.316  21.884   8.255
 7420POPC   C3B25881   7.363  21.929   7.955
 7420POPC   C4B25882   7.364  21.881   7.655
 7421POPC   NC325883  39.264  19.102   9.455
 7421POPC   PO425884  39.277  19.027   9.155
 7421POPC   GL125885  39.197  19.041   8.855
 7421POPC   GL225886  39.125  19.145   8.855
 7421POPC   C1A25887  39.201  19.070   8.555
 7421POPC   D2A25888  39.212  19.011   8.255
 7421POPC   C3A25889  39.201  19.093   7.955
 7421POPC   C4A25890  39.210  19.050   7.655
 7421POPC   C1B25891  39.001  19.186   8.555
 7421POPC   C2B25892  39.013  19.196   8.255
 7421POPC   C3B25893  39.030  19.250   7.955
 7421POPC   C4B25894  39.037  19.201   7.655
 7422POPC   NC325895   7.441  36.152   9.455
 7422POPC   PO425896   7.440  36.162   9.155
 7422POPC   GL125897   7.376  36.095   8.855
 7422POPC   GL225898   7.485  35.998   8.855
 7422POPC   C1A25899   7.411  36.080   8.555
 7422POPC   D2A25900   7.408  36.164   8.255
 7422POPC   C3A25901   7.430  36.143   7.955
 7422POPC   C4A25902   7.452  36.114   7.655
 7422POPC   C1B25903   7.548  35.923   8.555
 7422POPC   C2B25904   7.613  35.916   8.255
 7422POPC   C3B25905   7.588  35.953   7.955
 7422POPC   C4B25906   7.600  35.933   7.655
 7423POPC   NC325907   8.944  33.023   9.455
 7423POPC   PO425908   8.956  33.041   9.155
 7423POPC   GL125909   8.946  32.984   8.855
 7423POPC   GL225910   8.972  33.175   8.855
 7423POPC   C1A25911   8.983  32.992   8.555
 7423POPC   D2A25912   8.991  33.013   8.255
 7423POPC   C3A25913   8.985  32.981   7.955
 7423POPC   C4A25914   8.923  32.975   7.655
 7423POPC   C1B25915   9.056  33.257   8.555
 7423POPC   C2B25916   9.003  33.308   8.255
 7423POPC   C3B25917   9.061  33.241   7.955
 7423POPC   C4B25918   9.024  33.251   7.655
 7424POPC   NC325919  12.827   0.460   9.455
 7424POPC   PO425920  12.813   0.450   9.155
 7424POPC   GL125921  12.861   0.393   8.855
 7424POPC   GL225922  12.833   0.606   8.855
 7424POPC   C1A25923  12.898   0.402   8.555
 7424POPC   D2A25924  12.832   0.478   8.255
 7424POPC   C3A25925  12.877   0.419   7.955
 7424POPC   C4A25926  12.832   0.439   7.655
 7424POPC   C1B25927  12.791   0.700   8.555
 7424POPC   C2B25928  12.807   0.687   8.255
 7424POPC   C3B25929  12.827   0.689   7.955
 7424POPC   C4B25930  12.795   0.710   7.655
 7425POPC   NC325931  27.638  29.919   9.455
 7425POPC   PO425932  27.599  29.912   9.155
 7425POPC   GL125933  27.573  29.873   8.855
 7425POPC   GL225934  27.661  29.819   8.855
 7425POPC   C1A25935  27.641  29.929   8.555
 7425POPC   D2A25936  27.601  29.964   8.255
 7425POPC   C3A25937  27.592  29.943   7.955
 7425POPC   C4A25938  27.626  29.962   7.655
 7425POPC   C1B25939  27.765  29.822   8.555
 7425POPC   C2B25940  27.837  29.779   8.255
 7425POPC   C3B25941  27.822  29.730   7.955
 7425POPC   C4B25942  27.804  29.742   7.655
 7426POPC   NC325943  25.308  34.598   9.455
 7426POPC   PO425944  25.254  34.603   9.155
 7426POPC   GL125945  25.298  34.545   8.855
 7426POPC   GL225946  25.282  34.482   8.855
 7426POPC   C1A25947  25.287  34.601   8.555
 7426POPC   D2A25948  25.234  34.562   8.255
 7426POPC   C3A25949  25.282  34.582   7.955
 7426POPC   C4A25950  25.240  34.593   7.655
 7426POPC   C1B25951  25.237  34.353   8.555
 7426POPC   C2B25952  25.233  34.365   8.255
 7426POPC   C3B25953  25.220  34.341   7.955
 7426POPC   C4B25954  25.209  34.306   7.655
 7427POPC   NC325955  42.359  12.107   9.455
 7427POPC   PO425956  42.374  12.077   9.155
 7427POPC   GL125957  42.358  12.120   8.855
 7427POPC   GL225958  42.390  12.237   8.855
 7427POPC   C1A25959  42.324  12.110   8.555
 7427POPC   D2A25960  42.297  12.099   8.255
 7427POPC   C3A25961  42.319  12.059   7.955
 7427POPC   C4A25962  42.361  12.030   7.655
 7427POPC   C1B25963  42.402  12.315   8.555
 7427POPC   C2B25964  42.420  12.337   8.255
 7427POPC   C3B25965  42.395  12.326   7.955
 7427POPC   C4B25966  42.414  12.323   7.655
 7428POPC   NC325967  17.488  10.507   9.455
 7428POPC   PO425968  17.494  10.554   9.155
 7428POPC   GL125969  17.529  10.564   8.855
 7428POPC   GL225970  17.390  10.584   8.855
 7428POPC   C1A25971  17.477  10.556   8.555
 7428POPC   D2A25972  17.517  10.490   8.255
 7428POPC   C3A25973  17.460  10.487   7.955
 7428POPC   C4A25974  17.464  10.555   7.655
 7428POPC   C1B25975  17.320  10.764   8.555
 7428POPC   C2B25976  17.310  10.710   8.255
 7428POPC   C3B25977  17.346  10.724   7.955
 7428POPC   C4B25978  17.374  10.735   7.655
 7429POPC   NC325979  22.911   9.742   9.455
 7429POPC   PO425980  22.974   9.709   9.155
 7429POPC   GL125981  22.902   9.732   8.855
 7429POPC   GL225982  23.053   9.745   8.855
 7429POPC   C1A25983  22.950   9.784   8.555
 7429POPC   D2A25984  22.889   9.789   8.255
 7429POPC   C3A25985  22.927   9.742   7.955
 7429POPC   C4A25986  22.943   9.774   7.655
 7429POPC   C1B25987  23.195   9.655   8.555
 7429POPC   C2B25988  23.212   9.712   8.255
 7429POPC   C3B25989  23.216   9.664   7.955
 7429POPC   C4B25990  23.215   9.701   7.655
 7430POPC   NC325991  22.171  26.827   9.455
 7430POPC   PO425992  22.125  26.780   9.155
 7430POPC   GL125993  22.185  26.797   8.855
 7430POPC   GL225994  22.139  26.938   8.855
 7430POPC   C1A25995  22.134  26.835   8.555
 7430POPC   D2A25996  22.126  26.794   8.255
 7430POPC   C3A25997  22.176  26.794   7.955
 7430POPC   C4A25998  22.186  26.845   7.655
 7430POPC   C1B25999  22.171  27.023   8.555
 7430POPC   C2B26000  22.229  27.045   8.255
 7430POPC   C3B26001  22.172  27.112   7.955
 7430POPC   C4B26002  22.156  27.094   7.655
 7431POPC   NC326003  30.733   6.604   9.455
 7431POPC   PO426004  30.690   6.684   9.155
 7431POPC   GL126005  30.742   6.644   8.855
 7431POPC   GL226006  30.595   6.747   8.855
 7431POPC   C1A26007  30.726   6.595   8.555
 7431POPC   D2A26008  30.668   6.597   8.255
 7431POPC   C3A26009  30.665   6.597   7.955
 7431POPC   C4A26010  30.678   6.615   7.655
 7431POPC   C1B26011  30.457   6.811   8.555
 7431POPC   C2B26012  30.482   6.757   8.255
 7431POPC   C3B26013  30.493   6.761   7.955
 7431POPC   C4B26014  30.501   6.741   7.655
 7432POPC   NC326015  21.356  26.825   9.455
 7432POPC   PO426016  21.406  26.789   9.155
 7432POPC   GL126017  21.353  26.815   8.855
 7432POPC   GL226018  21.419  26.976   8.855
 7432POPC   C1A26019  21.394  26.785   8.555
 7432POPC   D2A26020  21.427  26.806   8.255
 7432POPC   C3A26021  21.360  26.771   7.955
 7432POPC   C4A26022  21.392  26.834   7.655
 7432POPC   C1B26023  21.386  27.022   8.555
 7432POPC   C2B26024  21.411  27.108   8.255
 7432POPC   C3B26025  21.413  27.082   7.955
 7432POPC   C4B26026  21.432  27.075   7.655
 7433POPC   NC326027  41.537  20.658   9.455
 7433POPC   PO426028  41.540  20.576   9.155
 7433POPC   GL126029  41.583  20.637   8.855
 7433POPC   GL226030  41.625  20.541   8.855
 7433POPC   C1A26031  41.555  20.577   8.555
 7433POPC   D2A26032  41.520  20.643   8.255
 7433POPC   C3A26033  41.559  20.625   7.955
 7433POPC   C4A26034  41.577  20.592   7.655
 7433POPC   C1B26035  41.802  20.494   8.555
 7433POPC   C2B26036  41.752  20.474   8.255
 7433POPC   C3B26037  41.752  20.475   7.955
 7433POPC   C4B26038  41.789  20.492   7.655
 7434POPC   NC326039  32.977  29.097   9.455
 7434POPC   PO426040  32.984  29.107   9.155
 7434POPC   GL126041  33.041  29.147   8.855
 7434POPC   GL226042  33.035  29.278   8.855
 7434POPC   C1A26043  33.018  29.162   8.555
 7434POPC   D2A26044  33.010  29.152   8.255
 7434POPC   C3A26045  33.010  29.174   7.955
 7434POPC   C4A26046  32.999  29.139   7.655
 7434POPC   C1B26047  33.129  29.328   8.555
 7434POPC   C2B26048  33.149  29.398   8.255
 7434POPC   C3B26049  33.117  29.329   7.955
 7434POPC   C4B26050  33.093  29.340   7.655
 7435POPC   NC326051  27.563  34.573   9.455
 7435POPC   PO426052  27.621  34.623   9.155
 7435POPC   GL126053  27.632  34.528   8.855
 7435POPC   GL226054  27.645  34.701   8.855
 7435POPC   C1A26055  27.631  34.600   8.555
 7435POPC   D2A26056  27.610  34.536   8.255
 7435POPC   C3A26057  27.559  34.569   7.955
 7435POPC   C4A26058  27.632  34.575   7.655
 7435POPC   C1B26059  27.645  34.787   8.555
 7435POPC   C2B26060  27.659  34.801   8.255
 7435POPC   C3B26061  27.637  34.870   7.955
 7435POPC   C4B26062  27.611  34.788   7.655
 7436POPC   NC326063  43.857  30.672   9.455
 7436POPC   PO426064  43.880  30.727   9.155
 7436POPC   GL126065  43.838  30.710   8.855
 7436POPC   GL226066  43.928  30.535   8.855
 7436POPC   C1A26067  43.909  30.697   8.555
 7436POPC   D2A26068  43.932  30.716   8.255
 7436POPC   C3A26069  43.897  30.726   7.955
 7436POPC   C4A26070  43.862  30.687   7.655
 7436POPC   C1B26071  44.011  30.495   8.555
 7436POPC   C2B26072  43.961  30.429   8.255
 7436POPC   C3B26073  43.952  30.493   7.955
 7436POPC   C4B26074  43.984  30.454   7.655
 7437POPC   NC326075  15.183  11.315   9.455
 7437POPC   PO426076  15.187  11.308   9.155
 7437POPC   GL126077  15.159  11.264   8.855
 7437POPC   GL226078  15.162  11.198   8.855
 7437POPC   C1A26079  15.137  11.302   8.555
 7437POPC   D2A26080  15.187  11.295   8.255
 7437POPC   C3A26081  15.136  11.318   7.955
 7437POPC   C4A26082  15.179  11.263   7.655
 7437POPC   C1B26083  15.143  11.041   8.555
 7437POPC   C2B26084  15.154  11.027   8.255
 7437POPC   C3B26085  15.079  11.099   7.955
 7437POPC   C4B26086  15.162  11.056   7.655
 7438POPC   NC326087  44.645  32.294   9.455
 7438POPC   PO426088  44.681  32.234   9.155
 7438POPC   GL126089  44.620  32.263   8.855
 7438POPC   GL226090  44.702  32.099   8.855
 7438POPC   C1A26091  44.649  32.246   8.555
 7438POPC   D2A26092  44.659  32.219   8.255
 7438POPC   C3A26093  44.620  32.204   7.955
 7438POPC   C4A26094  44.684  32.201   7.655
 7438POPC   C1B26095  44.764  32.057   8.555
 7438POPC   C2B26096  44.785  32.001   8.255
 7438POPC   C3B26097  44.774  32.010   7.955
 7438POPC   C4B26098  44.735  31.981   7.655
 7439POPC   NC326099  38.495  34.534   9.455
 7439POPC   PO426100  38.458  34.574   9.155
 7439POPC   GL126101  38.488  34.585   8.855
 7439POPC   GL226102  38.376  34.694   8.855
 7439POPC   C1A26103  38.502  34.579   8.555
 7439POPC   D2A26104  38.408  34.615   8.255
 7439POPC   C3A26105  38.447  34.598   7.955
 7439POPC   C4A26106  38.451  34.617   7.655
 7439POPC   C1B26107  38.308  34.789   8.555
 7439POPC   C2B26108  38.358  34.785   8.255
 7439POPC   C3B26109  38.354  34.837   7.955
 7439POPC   C4B26110  38.360  34.812   7.655
 7440POPC   NC326111   1.205   5.844   9.455
 7440POPC   PO426112   1.235   5.899   9.155
 7440POPC   GL126113   1.245   5.838   8.855
 7440POPC   GL226114   1.273   6.034   8.855
 7440POPC   C1A26115   1.213   5.838   8.555
 7440POPC   D2A26116   1.225   5.869   8.255
 7440POPC   C3A26117   1.258   5.891   7.955
 7440POPC   C4A26118   1.227   5.898   7.655
 7440POPC   C1B26119   1.255   6.152   8.555
 7440POPC   C2B26120   1.240   6.165   8.255
 7440POPC   C3B26121   1.262   6.134   7.955
 7440POPC   C4B26122   1.296   6.086   7.655
 7441POPC   NC326123  36.855   8.243   9.455
 7441POPC   PO426124  36.918   8.191   9.155
 7441POPC   GL126125  36.888   8.188   8.855
 7441POPC   GL226126  36.983   8.219   8.855
 7441POPC   C1A26127  36.923   8.218   8.555
 7441POPC   D2A26128  36.893   8.147   8.255
 7441POPC   C3A26129  36.921   8.215   7.955
 7441POPC   C4A26130  36.947   8.180   7.655
 7441POPC   C1B26131  37.163   8.171   8.555
 7441POPC   C2B26132  37.121   8.142   8.255
 7441POPC   C3B26133  37.108   8.192   7.955
 7441POPC   C4B26134  37.106   8.142   7.655
 7442POPC   NC326135  20.597  43.921   9.455
 7442POPC   PO426136  20.567  43.863   9.155
 7442POPC   GL126137  20.591  43.896   8.855
 7442POPC   GL226138  20.561  43.954   8.855
 7442POPC   C1A26139  20.615  43.871   8.555
 7442POPC   D2A26140  20.572  43.862   8.255
 7442POPC   C3A26141  20.622  43.928   7.955
 7442POPC   C4A26142  20.636  43.884   7.655
 7442POPC   C1B26143  20.395  44.003   8.555
 7442POPC   C2B26144  20.460  44.079   8.255
 7442POPC   C3B26145  20.404  44.007   7.955
 7442POPC   C4B26146  20.454  44.016   7.655
 7443POPC   NC326147   4.276  16.744   9.455
 7443POPC   PO426148   4.310  16.732   9.155
 7443POPC   GL126149   4.276  16.728   8.855
 7443POPC   GL226150   4.432  16.656   8.855
 7443POPC   C1A26151   4.286  16.701   8.555
 7443POPC   D2A26152   4.276  16.764   8.255
 7443POPC   C3A26153   4.351  16.748   7.955
 7443POPC   C4A26154   4.297  16.703   7.655
 7443POPC   C1B26155   4.556  16.624   8.555
 7443POPC   C2B26156   4.605  16.626   8.255
 7443POPC   C3B26157   4.521  16.684   7.955
 7443POPC   C4B26158   4.540  16.631   7.655
 7444POPC   NC326159   9.725  36.116   9.455
 7444POPC   PO426160   9.789  36.143   9.155
 7444POPC   GL126161   9.790  36.130   8.855
 7444POPC   GL226162   9.692  36.047   8.855
 7444POPC   C1A26163   9.773  36.139   8.555
 7444POPC   D2A26164   9.718  36.126   8.255
 7444POPC   C3A26165   9.710  36.117   7.955
 7444POPC   C4A26166   9.778  36.164   7.655
 7444POPC   C1B26167   9.699  35.898   8.555
 7444POPC   C2B26168   9.728  35.841   8.255
 7444POPC   C3B26169   9.728  35.842   7.955
 7444POPC   C4B26170   9.739  35.895   7.655
 7445POPC   NC326171  39.247  24.496   9.455
 7445POPC   PO426172  39.274  24.442   9.155
 7445POPC   GL126173  39.184  24.479   8.855
 7445POPC   GL226174  39.125  24.468   8.855
 7445POPC   C1A26175  39.227  24.454   8.555
 7445POPC   D2A26176  39.217  24.450   8.255
 7445POPC   C3A26177  39.223  24.449   7.955
 7445POPC   C4A26178  39.230  24.491   7.655
 7445POPC   C1B26179  39.005  24.509   8.555
 7445POPC   C2B26180  39.014  24.437   8.255
 7445POPC   C3B26181  38.959  24.515   7.955
 7445POPC   C4B26182  39.002  24.453   7.655
 7446POPC   NC326183  28.351  35.377   9.455
 7446POPC   PO426184  28.373  35.381   9.155
 7446POPC   GL126185  28.410  35.400   8.855
 7446POPC   GL226186  28.410  35.256   8.855
 7446POPC   C1A26187  28.411  35.365   8.555
 7446POPC   D2A26188  28.355  35.373   8.255
 7446POPC   C3A26189  28.409  35.311   7.955
 7446POPC   C4A26190  28.373  35.306   7.655
 7446POPC   C1B26191  28.446  35.159   8.555
 7446POPC   C2B26192  28.427  35.144   8.255
 7446POPC   C3B26193  28.410  35.106   7.955
 7446POPC   C4B26194  28.426  35.126   7.655
 7447POPC   NC326195  40.041  22.148   9.455
 7447POPC   PO426196  40.006  22.114   9.155
 7447POPC   GL126197  39.976  22.203   8.855
 7447POPC   GL226198  40.022  22.013   8.855
 7447POPC   C1A26199  39.977  22.133   8.555
 7447POPC   D2A26200  39.988  22.142   8.255
 7447POPC   C3A26201  39.995  22.204   7.955
 7447POPC   C4A26202  39.984  22.168   7.655
 7447POPC   C1B26203  39.964  21.930   8.555
 7447POPC   C2B26204  39.973  21.890   8.255
 7447POPC   C3B26205  39.988  21.894   7.955
 7447POPC   C4B26206  40.013  21.892   7.655
 7448POPC   NC326207   1.229  28.355   9.455
 7448POPC   PO426208   1.260  28.408   9.155
 7448POPC   GL126209   1.256  28.363   8.855
 7448POPC   GL226210   1.166  28.405   8.855
 7448POPC   C1A26211   1.173  28.412   8.555
 7448POPC   D2A26212   1.197  28.326   8.255
 7448POPC   C3A26213   1.197  28.379   7.955
 7448POPC   C4A26214   1.212  28.418   7.655
 7448POPC   C1B26215   1.035  28.547   8.555
 7448POPC   C2B26216   1.050  28.565   8.255
 7448POPC   C3B26217   1.062  28.505   7.955
 7448POPC   C4B26218   1.063  28.558   7.655
 7449POPC   NC326219  13.587   5.899   9.455
 7449POPC   PO426220  13.610   5.896   9.155
 7449POPC   GL126221  13.632   5.834   8.855
 7449POPC   GL226222  13.700   5.973   8.855
 7449POPC   C1A26223  13.608   5.847   8.555
 7449POPC   D2A26224  13.598   5.827   8.255
 7449POPC   C3A26225  13.621   5.876   7.955
 7449POPC   C4A26226  13.677   5.861   7.655
 7449POPC   C1B26227  13.772   6.076   8.555
 7449POPC   C2B26228  13.764   6.018   8.255
 7449POPC   C3B26229  13.821   6.006   7.955
 7449POPC   C4B26230  13.785   5.991   7.655
 7450POPC   NC326231  19.862   6.659   9.455
 7450POPC   PO426232  19.823   6.658   9.155
 7450POPC   GL126233  19.868   6.655   8.855
 7450POPC   GL226234  19.855   6.517   8.855
 7450POPC   C1A26235  19.867   6.665   8.555
 7450POPC   D2A26236  19.844   6.675   8.255
 7450POPC   C3A26237  19.871   6.693   7.955
 7450POPC   C4A26238  19.836   6.683   7.655
 7450POPC   C1B26239  19.875   6.440   8.555
 7450POPC   C2B26240  19.849   6.346   8.255
 7450POPC   C3B26241  19.833   6.423   7.955
 7450POPC   C4B26242  19.871   6.445   7.655
 7451POPC   NC326243  20.660  12.032   9.455
 7451POPC   PO426244  20.561  12.042   9.155
 7451POPC   GL126245  20.608  12.051   8.855
 7451POPC   GL226246  20.555  12.116   8.855
 7451POPC   C1A26247  20.619  12.077   8.555
 7451POPC   D2A26248  20.590  12.116   8.255
 7451POPC   C3A26249  20.640  12.095   7.955
 7451POPC   C4A26250  20.611  12.038   7.655
 7451POPC   C1B26251  20.398  12.268   8.555
 7451POPC   C2B26252  20.426  12.227   8.255
 7451POPC   C3B26253  20.422  12.234   7.955
 7451POPC   C4B26254  20.425  12.232   7.655
 7452POPC   NC326255  23.717   7.376   9.455
 7452POPC   PO426256  23.676   7.437   9.155
 7452POPC   GL126257  23.732   7.381   8.855
 7452POPC   GL226258  23.594   7.449   8.855
 7452POPC   C1A26259  23.731   7.450   8.555
 7452POPC   D2A26260  23.747   7.399   8.255
 7452POPC   C3A26261  23.703   7.422   7.955
 7452POPC   C4A26262  23.762   7.433   7.655
 7452POPC   C1B26263  23.502   7.537   8.555
 7452POPC   C2B26264  23.475   7.543   8.255
 7452POPC   C3B26265  23.537   7.588   7.955
 7452POPC   C4B26266  23.487   7.541   7.655
 7453POPC   NC326267  40.012  17.480   9.455
 7453POPC   PO426268  40.047  17.484   9.155
 7453POPC   GL126269  40.047  17.553   8.855
 7453POPC   GL226270  40.090  17.642   8.855
 7453POPC   C1A26271  39.979  17.515   8.555
 7453POPC   D2A26272  39.987  17.508   8.255
 7453POPC   C3A26273  40.012  17.518   7.955
 7453POPC   C4A26274  40.004  17.554   7.655
 7453POPC   C1B26275  40.089  17.735   8.555
 7453POPC   C2B26276  40.118  17.764   8.255
 7453POPC   C3B26277  40.063  17.765   7.955
 7453POPC   C4B26278  40.089  17.756   7.655
 7454POPC   NC326279  18.274  24.463   9.455
 7454POPC   PO426280  18.322  24.472   9.155
 7454POPC   GL126281  18.288  24.459   8.855
 7454POPC   GL226282  18.345  24.528   8.855
 7454POPC   C1A26283  18.297  24.478   8.555
 7454POPC   D2A26284  18.315  24.447   8.255
 7454POPC   C3A26285  18.327  24.504   7.955
 7454POPC   C4A26286  18.251  24.506   7.655
 7454POPC   C1B26287  18.524  24.658   8.555
 7454POPC   C2B26288  18.445  24.624   8.255
 7454POPC   C3B26289  18.505  24.587   7.955
 7454POPC   C4B26290  18.443  24.614   7.655
 7455POPC   NC326291  22.910  44.677   9.455
 7455POPC   PO426292  22.936  44.635   9.155
 7455POPC   GL126293  22.975  44.654   8.855
 7455POPC   GL226294  22.775  44.605   8.855
 7455POPC   C1A26295  22.975  44.615   8.555
 7455POPC   D2A26296  22.943  44.662   8.255
 7455POPC   C3A26297  22.986  44.658   7.955
 7455POPC   C4A26298  22.895  44.712   7.655
 7455POPC   C1B26299  22.731  44.538   8.555
 7455POPC   C2B26300  22.722  44.572   8.255
 7455POPC   C3B26301  22.715  44.536   7.955
 7455POPC   C4B26302  22.674  44.587   7.655
 7456POPC   NC326303   5.861  41.515   9.455
 7456POPC   PO426304   5.829  41.535   9.155
 7456POPC   GL126305   5.847  41.595   8.855
 7456POPC   GL226306   5.954  41.619   8.855
 7456POPC   C1A26307   5.899  41.563   8.555
 7456POPC   D2A26308   5.882  41.587   8.255
 7456POPC   C3A26309   5.824  41.593   7.955
 7456POPC   C4A26310   5.894  41.514   7.655
 7456POPC   C1B26311   6.084  41.614   8.555
 7456POPC   C2B26312   6.115  41.653   8.255
 7456POPC   C3B26313   6.152  41.596   7.955
 7456POPC   C4B26314   6.129  41.567   7.655
 7457POPC   NC326315  32.258  29.096   9.455
 7457POPC   PO426316  32.214  29.140   9.155
 7457POPC   GL126317  32.263  29.097   8.855
 7457POPC   GL226318  32.236  29.292   8.855
 7457POPC   C1A26319  32.257  29.101   8.555
 7457POPC   D2A26320  32.243  29.169   8.255
 7457POPC   C3A26321  32.291  29.122   7.955
 7457POPC   C4A26322  32.268  29.104   7.655
 7457POPC   C1B26323  32.192  29.396   8.555
 7457POPC   C2B26324  32.149  29.437   8.255
 7457POPC   C3B26325  32.234  29.423   7.955
 7457POPC   C4B26326  32.224  29.347   7.655
 7458POPC   NC326327  37.659  18.298   9.455
 7458POPC   PO426328  37.707  18.268   9.155
 7458POPC   GL126329  37.650  18.298   8.855
 7458POPC   GL226330  37.622  18.116   8.855
 7458POPC   C1A26331  37.699  18.237   8.555
 7458POPC   D2A26332  37.682  18.316   8.255
 7458POPC   C3A26333  37.702  18.235   7.955
 7458POPC   C4A26334  37.686  18.241   7.655
 7458POPC   C1B26335  37.656  17.998   8.555
 7458POPC   C2B26336  37.626  17.999   8.255
 7458POPC   C3B26337  37.682  18.026   7.955
 7458POPC   C4B26338  37.602  18.034   7.655
 7459POPC   NC326339  39.195   8.988   9.455
 7459POPC   PO426340  39.195   8.983   9.155
 7459POPC   GL126341  39.255   8.969   8.855
 7459POPC   GL226342  39.178   9.098   8.855
 7459POPC   C1A26343  39.247   8.995   8.555
 7459POPC   D2A26344  39.196   8.999   8.255
 7459POPC   C3A26345  39.222   8.964   7.955
 7459POPC   C4A26346  39.211   8.972   7.655
 7459POPC   C1B26347  39.068   9.202   8.555
 7459POPC   C2B26348  39.062   9.156   8.255
 7459POPC   C3B26349  39.056   9.139   7.955
 7459POPC   C4B26350  39.079   9.231   7.655
 7460POPC   NC326351   8.242  22.922   9.455
 7460POPC   PO426352   8.156  22.935   9.155
 7460POPC   GL126353   8.156  22.923   8.855
 7460POPC   GL226354   8.119  22.876   8.855
 7460POPC   C1A26355   8.208  22.925   8.555
 7460POPC   D2A26356   8.216  22.977   8.255
 7460POPC   C3A26357   8.195  22.958   7.955
 7460POPC   C4A26358   8.216  22.920   7.655
 7460POPC   C1B26359   7.939  22.936   8.555
 7460POPC   C2B26360   7.954  22.845   8.255
 7460POPC   C3B26361   7.917  22.877   7.955
 7460POPC   C4B26362   7.913  22.863   7.655
 7461POPC   NC326363  32.283  34.583   9.455
 7461POPC   PO426364  32.211  34.551   9.155
 7461POPC   GL126365  32.251  34.584   8.855
 7461POPC   GL226366  32.291  34.669   8.855
 7461POPC   C1A26367  32.239  34.589   8.555
 7461POPC   D2A26368  32.276  34.576   8.255
 7461POPC   C3A26369  32.247  34.621   7.955
 7461POPC   C4A26370  32.293  34.623   7.655
 7461POPC   C1B26371  32.319  34.780   8.555
 7461POPC   C2B26372  32.307  34.813   8.255
 7461POPC   C3B26373  32.286  34.852   7.955
 7461POPC   C4B26374  32.288  34.851   7.655
 7462POPC   NC326375   5.916  12.818   9.455
 7462POPC   PO426376   5.876  12.813   9.155
 7462POPC   GL126377   5.828  12.816   8.855
 7462POPC   GL226378   5.998  12.992   8.855
 7462POPC   C1A26379   5.912  12.872   8.555
 7462POPC   D2A26380   5.894  12.900   8.255
 7462POPC   C3A26381   5.898  12.833   7.955
 7462POPC   C4A26382   5.829  12.811   7.655
 7462POPC   C1B26383   6.032  13.027   8.555
 7462POPC   C2B26384   6.035  13.071   8.255
 7462POPC   C3B26385   6.042  13.025   7.955
 7462POPC   C4B26386   6.010  13.020   7.655
 7463POPC   NC326387  30.647  35.389   9.455
 7463POPC   PO426388  30.668  35.348   9.155
 7463POPC   GL126389  30.674  35.320   8.855
 7463POPC   GL226390  30.779  35.293   8.855
 7463POPC   C1A26391  30.725  35.318   8.555
 7463POPC   D2A26392  30.706  35.346   8.255
 7463POPC   C3A26393  30.689  35.369   7.955
 7463POPC   C4A26394  30.676  35.313   7.655
 7463POPC   C1B26395  30.870  35.191   8.555
 7463POPC   C2B26396  30.883  35.212   8.255
 7463POPC   C3B26397  30.871  35.233   7.955
 7463POPC   C4B26398  30.867  35.234   7.655
 7464POPC   NC326399  18.264  29.954   9.455
 7464POPC   PO426400  18.276  29.895   9.155
 7464POPC   GL126401  18.235  29.968   8.855
 7464POPC   GL226402  18.415  29.905   8.855
 7464POPC   C1A26403  18.287  29.933   8.555
 7464POPC   D2A26404  18.267  29.884   8.255
 7464POPC   C3A26405  18.277  29.915   7.955
 7464POPC   C4A26406  18.239  29.911   7.655
 7464POPC   C1B26407  18.454  29.750   8.555
 7464POPC   C2B26408  18.472  29.816   8.255
 7464POPC   C3B26409  18.521  29.781   7.955
 7464POPC   C4B26410  18.511  29.812   7.655
 7465POPC   NC326411  19.073  12.088   9.455
 7465POPC   PO426412  19.051  12.067   9.155
 7465POPC   GL126413  19.054  12.092   8.855
 7465POPC   GL226414  18.893  12.040   8.855
 7465POPC   C1A26415  19.044  12.079   8.555
 7465POPC   D2A26416  19.090  12.120   8.255
 7465POPC   C3A26417  19.106  12.109   7.955
 7465POPC   C4A26418  19.024  12.037   7.655
 7465POPC   C1B26419  18.836  12.072   8.555
 7465POPC   C2B26420  18.826  12.107   8.255
 7465POPC   C3B26421  18.823  12.123   7.955
 7465POPC   C4B26422  18.780  12.114   7.655
 7466POPC   NC326423   7.428   7.407   9.455
 7466POPC   PO426424   7.409   7.425   9.155
 7466POPC   GL126425   7.462   7.470   8.855
 7466POPC   GL226426   7.274   7.333   8.855
 7466POPC   C1A26427   7.408   7.378   8.555
 7466POPC   D2A26428   7.397   7.429   8.255
 7466POPC   C3A26429   7.454   7.469   7.955
 7466POPC   C4A26430   7.462   7.375   7.655
 7466POPC   C1B26431   7.258   7.270   8.555
 7466POPC   C2B26432   7.181   7.291   8.255
 7466POPC   C3B26433   7.185   7.301   7.955
 7466POPC   C4B26434   7.267   7.295   7.655
 7467POPC   NC326435  40.818  31.473   9.455
 7467POPC   PO426436  40.781  31.438   9.155
 7467POPC   GL126437  40.820  31.446   8.855
 7467POPC   GL226438  40.798  31.394   8.855
 7467POPC   C1A26439  40.750  31.481   8.555
 7467POPC   D2A26440  40.830  31.445   8.255
 7467POPC   C3A26441  40.798  31.429   7.955
 7467POPC   C4A26442  40.773  31.500   7.655
 7467POPC   C1B26443  40.724  31.179   8.555
 7467POPC   C2B26444  40.707  31.278   8.255
 7467POPC   C3B26445  40.715  31.229   7.955
 7467POPC   C4B26446  40.757  31.192   7.655
 7468POPC   NC326447  28.378  36.094   9.455
 7468POPC   PO426448  28.330  36.079   9.155
 7468POPC   GL126449  28.352  36.109   8.855
 7468POPC   GL226450  28.506  36.039   8.855
 7468POPC   C1A26451  28.381  36.079   8.555
 7468POPC   D2A26452  28.401  36.138   8.255
 7468POPC   C3A26453  28.361  36.121   7.955
 7468POPC   C4A26454  28.331  36.121   7.655
 7468POPC   C1B26455  28.560  36.000   8.555
 7468POPC   C2B26456  28.563  36.068   8.255
 7468POPC   C3B26457  28.593  36.006   7.955
 7468POPC   C4B26458  28.607  35.999   7.655
 7469POPC   NC326459  11.280  40.779   9.455
 7469POPC   PO426460  11.281  40.777   9.155
 7469POPC   GL126461  11.269  40.780   8.855
 7469POPC   GL226462  11.164  40.679   8.855
 7469POPC   C1A26463  11.266  40.780   8.555
 7469POPC   D2A26464  11.339  40.802   8.255
 7469POPC   C3A26465  11.335  40.771   7.955
 7469POPC   C4A26466  11.344  40.828   7.655
 7469POPC   C1B26467  11.126  40.609   8.555
 7469POPC   C2B26468  11.127  40.646   8.255
 7469POPC   C3B26469  11.073  40.626   7.955
 7469POPC   C4B26470  11.160  40.613   7.655
 7470POPC   NC326471   8.202   2.039   9.455
 7470POPC   PO426472   8.210   1.989   9.155
 7470POPC   GL126473   8.236   1.991   8.855
 7470POPC   GL226474   8.114   2.053   8.855
 7470POPC   C1A26475   8.226   1.983   8.555
 7470POPC   D2A26476   8.174   1.981   8.255
 7470POPC   C3A26477   8.155   2.019   7.955
 7470POPC   C4A26478   8.168   2.008   7.655
 7470POPC   C1B26479   7.952   2.011   8.555
 7470POPC   C2B26480   7.924   2.030   8.255
 7470POPC   C3B26481   7.937   2.065   7.955
 7470POPC   C4B26482   8.000   2.041   7.655
 7471POPC   NC326483   9.731  25.223   9.455
 7471POPC   PO426484   9.703  25.221   9.155
 7471POPC   GL126485   9.762  25.240   8.855
 7471POPC   GL226486   9.840  25.335   8.855
 7471POPC   C1A26487   9.713  25.226   8.555
 7471POPC   D2A26488   9.786  25.221   8.255
 7471POPC   C3A26489   9.721  25.310   7.955
 7471POPC   C4A26490   9.748  25.235   7.655
 7471POPC   C1B26491   9.989  25.357   8.555
 7471POPC   C2B26492   9.954  25.345   8.255
 7471POPC   C3B26493   9.937  25.405   7.955
 7471POPC   C4B26494   9.974  25.389   7.655
 7472POPC   NC326495  35.348   8.937   9.455
 7472POPC   PO426496  35.366   8.960   9.155
 7472POPC   GL126497  35.350   8.945   8.855
 7472POPC   GL226498  35.284   8.930   8.855
 7472POPC   C1A26499  35.321   8.929   8.555
 7472POPC   D2A26500  35.378   8.993   8.255
 7472POPC   C3A26501  35.394   9.015   7.955
 7472POPC   C4A26502  35.338   8.926   7.655
 7472POPC   C1B26503  35.111   8.828   8.555
 7472POPC   C2B26504  35.125   8.830   8.255
 7472POPC   C3B26505  35.105   8.886   7.955
 7472POPC   C4B26506  35.165   8.905   7.655
 7473POPC   NC326507  38.414  29.134   9.455
 7473POPC   PO426508  38.450  29.193   9.155
 7473POPC   GL126509  38.468  29.130   8.855
 7473POPC   GL226510  38.415  29.010   8.855
 7473POPC   C1A26511  38.467  29.141   8.555
 7473POPC   D2A26512  38.409  29.132   8.255
 7473POPC   C3A26513  38.450  29.190   7.955
 7473POPC   C4A26514  38.433  29.183   7.655
 7473POPC   C1B26515  38.302  29.005   8.555
 7473POPC   C2B26516  38.321  28.983   8.255
 7473POPC   C3B26517  38.248  28.939   7.955
 7473POPC   C4B26518  38.302  28.977   7.655
 7474POPC   NC326519  25.304  14.386   9.455
 7474POPC   PO426520  25.266  14.387   9.155
 7474POPC   GL126521  25.310  14.365   8.855
 7474POPC   GL226522  25.228  14.552   8.855
 7474POPC   C1A26523  25.244  14.362   8.555
 7474POPC   D2A26524  25.240  14.453   8.255
 7474POPC   C3A26525  25.275  14.430   7.955
 7474POPC   C4A26526  25.260  14.365   7.655
 7474POPC   C1B26527  25.115  14.597   8.555
 7474POPC   C2B26528  25.118  14.586   8.255
 7474POPC   C3B26529  25.154  14.611   7.955
 7474POPC   C4B26530  25.068  14.582   7.655
 7475POPC   NC326531  28.356   5.097   9.455
 7475POPC   PO426532  28.339   5.118   9.155
 7475POPC   GL126533  28.387   5.110   8.855
 7475POPC   GL226534  28.409   5.018   8.855
 7475POPC   C1A26535  28.400   5.117   8.555
 7475POPC   D2A26536  28.350   5.140   8.255
 7475POPC   C3A26537  28.346   5.052   7.955
 7475POPC   C4A26538  28.401   5.139   7.655
 7475POPC   C1B26539  28.409   4.826   8.555
 7475POPC   C2B26540  28.408   4.856   8.255
 7475POPC   C3B26541  28.484   4.816   7.955
 7475POPC   C4B26542  28.413   4.840   7.655
 7476POPC   NC326543  30.717   2.767   9.455
 7476POPC   PO426544  30.672   2.736   9.155
 7476POPC   GL126545  30.683   2.721   8.855
 7476POPC   GL226546  30.659   2.673   8.855
 7476POPC   C1A26547  30.698   2.767   8.555
 7476POPC   D2A26548  30.671   2.804   8.255
 7476POPC   C3A26549  30.726   2.731   7.955
 7476POPC   C4A26550  30.648   2.795   7.655
 7476POPC   C1B26551  30.703   2.507   8.555
 7476POPC   C2B26552  30.670   2.522   8.255
 7476POPC   C3B26553  30.660   2.480   7.955
 7476POPC   C4B26554  30.687   2.531   7.655
 7477POPC   NC326555  13.607  29.168   9.455
 7477POPC   PO426556  13.598  29.189   9.155
 7477POPC   GL126557  13.608  29.098   8.855
 7477POPC   GL226558  13.757  29.233   8.855
 7477POPC   C1A26559  13.661  29.136   8.555
 7477POPC   D2A26560  13.585  29.133   8.255
 7477POPC   C3A26561  13.664  29.165   7.955
 7477POPC   C4A26562  13.591  29.150   7.655
 7477POPC   C1B26563  13.806  29.330   8.555
 7477POPC   C2B26564  13.831  29.315   8.255
 7477POPC   C3B26565  13.799  29.286   7.955
 7477POPC   C4B26566  13.803  29.369   7.655
 7478POPC   NC326567  39.222   5.089   9.455
 7478POPC   PO426568  39.267   5.070   9.155
 7478POPC   GL126569  39.229   5.115   8.855
 7478POPC   GL226570  39.344   5.136   8.855
 7478POPC   C1A26571  39.264   5.073   8.555
 7478POPC   D2A26572  39.190   5.075   8.255
 7478POPC   C3A26573  39.224   5.052   7.955
 7478POPC   C4A26574  39.183   5.086   7.655
 7478POPC   C1B26575  39.509   5.112   8.555
 7478POPC   C2B26576  39.529   5.135   8.255
 7478POPC   C3B26577  39.470   5.088   7.955
 7478POPC   C4B26578  39.462   5.113   7.655
 7479POPC   NC326579  33.025   3.561   9.455
 7479POPC   PO426580  33.058   3.561   9.155
 7479POPC   GL126581  33.061   3.533   8.855
 7479POPC   GL226582  32.990   3.441   8.855
 7479POPC   C1A26583  32.976   3.533   8.555
 7479POPC   D2A26584  33.069   3.499   8.255
 7479POPC   C3A26585  33.015   3.493   7.955
 7479POPC   C4A26586  33.030   3.590   7.655
 7479POPC   C1B26587  32.987   3.285   8.555
 7479POPC   C2B26588  33.046   3.258   8.255
 7479POPC   C3B26589  32.985   3.304   7.955
 7479POPC   C4B26590  33.034   3.331   7.655
 7480POPC   NC326591  21.361  31.466   9.455
 7480POPC   PO426592  21.401  31.443   9.155
 7480POPC   GL126593  21.388  31.491   8.855
 7480POPC   GL226594  21.512  31.512   8.855
 7480POPC   C1A26595  21.436  31.449   8.555
 7480POPC   D2A26596  21.434  31.461   8.255
 7480POPC   C3A26597  21.392  31.477   7.955
 7480POPC   C4A26598  21.339  31.494   7.655
 7480POPC   C1B26599  21.624  31.609   8.555
 7480POPC   C2B26600  21.604  31.650   8.255
 7480POPC   C3B26601  21.567  31.586   7.955
 7480POPC   C4B26602  21.568  31.613   7.655
 7481POPC   NC326603  36.120  35.390   9.455
 7481POPC   PO426604  36.143  35.376   9.155
 7481POPC   GL126605  36.139  35.369   8.855
 7481POPC   GL226606  36.116  35.248   8.855
 7481POPC   C1A26607  36.087  35.363   8.555
 7481POPC   D2A26608  36.138  35.326   8.255
 7481POPC   C3A26609  36.101  35.322   7.955
 7481POPC   C4A26610  36.175  35.372   7.655
 7481POPC   C1B26611  36.008  35.116   8.555
 7481POPC   C2B26612  36.056  35.115   8.255
 7481POPC   C3B26613  36.022  35.173   7.955
 7481POPC   C4B26614  36.037  35.158   7.655
 7482POPC   NC326615  32.981  34.594   9.455
 7482POPC   PO426616  33.052  34.553   9.155
 7482POPC   GL126617  33.024  34.608   8.855
 7482POPC   GL226618  32.901  34.539   8.855
 7482POPC   C1A26619  33.056  34.576   8.555
 7482POPC   D2A26620  32.976  34.597   8.255
 7482POPC   C3A26621  33.035  34.541   7.955
 7482POPC   C4A26622  32.982  34.533   7.655
 7482POPC   C1B26623  32.824  34.547   8.555
 7482POPC   C2B26624  32.753  34.575   8.255
 7482POPC   C3B26625  32.739  34.541   7.955
 7482POPC   C4B26626  32.750  34.509   7.655
 7483POPC   NC326627  32.287  15.219   9.455
 7483POPC   PO426628  32.235  15.173   9.155
 7483POPC   GL126629  32.298  15.214   8.855
 7483POPC   GL226630  32.167  15.306   8.855
 7483POPC   C1A26631  32.275  15.198   8.555
 7483POPC   D2A26632  32.289  15.164   8.255
 7483POPC   C3A26633  32.252  15.222   7.955
 7483POPC   C4A26634  32.223  15.166   7.655
 7483POPC   C1B26635  32.118  15.367   8.555
 7483POPC   C2B26636  32.102  15.342   8.255
 7483POPC   C3B26637  32.067  15.402   7.955
 7483POPC   C4B26638  32.142  15.357   7.655
 7484POPC   NC326639  33.815  14.374   9.455
 7484POPC   PO426640  33.792  14.354   9.155
 7484POPC   GL126641  33.825  14.414   8.855
 7484POPC   GL226642  33.895  14.383   8.855
 7484POPC   C1A26643  33.831  14.432   8.555
 7484POPC   D2A26644  33.788  14.417   8.255
 7484POPC   C3A26645  33.847  14.377   7.955
 7484POPC   C4A26646  33.784  14.395   7.655
 7484POPC   C1B26647  34.057  14.319   8.555
 7484POPC   C2B26648  34.054  14.356   8.255
 7484POPC   C3B26649  34.073  14.345   7.955
 7484POPC   C4B26650  34.016  14.286   7.655
 7485POPC   NC326651   9.705  42.378   9.455
 7485POPC   PO426652   9.731  42.351   9.155
 7485POPC   GL126653   9.732  42.329   8.855
 7485POPC   GL226654   9.650  42.276   8.855
 7485POPC   C1A26655   9.798  42.363   8.555
 7485POPC   D2A26656   9.710  42.326   8.255
 7485POPC   C3A26657   9.798  42.308   7.955
 7485POPC   C4A26658   9.713  42.368   7.655
 7485POPC   C1B26659   9.460  42.250   8.555
 7485POPC   C2B26660   9.526  42.311   8.255
 7485POPC   C3B26661   9.517  42.256   7.955
 7485POPC   C4B26662   9.549  42.241   7.655
 7486POPC   NC326663  26.070  32.998   9.455
 7486POPC   PO426664  26.035  33.028   9.155
 7486POPC   GL126665  26.050  32.992   8.855
 7486POPC   GL226666  26.131  33.118   8.855
 7486POPC   C1A26667  26.024  33.029   8.555
 7486POPC   D2A26668  26.043  33.052   8.255
 7486POPC   C3A26669  26.001  33.035   7.955
 7486POPC   C4A26670  26.065  32.995   7.655
 7486POPC   C1B26671  26.119  33.212   8.555
 7486POPC   C2B26672  26.102  33.243   8.255
 7486POPC   C3B26673  26.164  33.260   7.955
 7486POPC   C4B26674  26.192  33.257   7.655
 7487POPC   NC326675  33.841  35.353   9.455
 7487POPC   PO426676  33.835  35.388   9.155
 7487POPC   GL126677  33.773  35.363   8.855
 7487POPC   GL226678  33.665  35.402   8.855
 7487POPC   C1A26679  33.756  35.343   8.555
 7487POPC   D2A26680  33.791  35.323   8.255
 7487POPC   C3A26681  33.811  35.321   7.955
 7487POPC   C4A26682  33.769  35.304   7.655
 7487POPC   C1B26683  33.548  35.351   8.555
 7487POPC   C2B26684  33.569  35.405   8.255
 7487POPC   C3B26685  33.603  35.408   7.955
 7487POPC   C4B26686  33.535  35.393   7.655
 7488POPC   NC326687  38.413  12.864   9.455
 7488POPC   PO426688  38.499  12.847   9.155
 7488POPC   GL126689  38.489  12.827   8.855
 7488POPC   GL226690  38.438  12.769   8.855
 7488POPC   C1A26691  38.462  12.858   8.555
 7488POPC   D2A26692  38.406  12.846   8.255
 7488POPC   C3A26693  38.458  12.883   7.955
 7488POPC   C4A26694  38.452  12.802   7.655
 7488POPC   C1B26695  38.444  12.638   8.555
 7488POPC   C2B26696  38.471  12.602   8.255
 7488POPC   C3B26697  38.504  12.580   7.955
 7488POPC   C4B26698  38.513  12.555   7.655
 7489POPC   NC326699   4.295   5.047   9.455
 7489POPC   PO426700   4.299   5.088   9.155
 7489POPC   GL126701   4.282   5.063   8.855
 7489POPC   GL226702   4.202   5.013   8.855
 7489POPC   C1A26703   4.323   5.108   8.555
 7489POPC   D2A26704   4.318   5.083   8.255
 7489POPC   C3A26705   4.365   5.104   7.955
 7489POPC   C4A26706   4.293   5.085   7.655
 7489POPC   C1B26707   4.110   4.933   8.555
 7489POPC   C2B26708   4.164   4.914   8.255
 7489POPC   C3B26709   4.117   4.916   7.955
 7489POPC   C4B26710   4.111   4.901   7.655
 7490POPC   NC326711  29.944  10.561   9.455
 7490POPC   PO426712  29.964  10.493   9.155
 7490POPC   GL126713  29.877  10.498   8.855
 7490POPC   GL226714  29.841  10.479   8.855
 7490POPC   C1A26715  29.962  10.542   8.555
 7490POPC   D2A26716  29.910  10.481   8.255
 7490POPC   C3A26717  29.883  10.484   7.955
 7490POPC   C4A26718  29.932  10.567   7.655
 7490POPC   C1B26719  29.724  10.413   8.555
 7490POPC   C2B26720  29.649  10.478   8.255
 7490POPC   C3B26721  29.692  10.464   7.955
 7490POPC   C4B26722  29.671  10.449   7.655
 7491POPC   NC326723  38.407  32.993   9.455
 7491POPC   PO426724  38.424  32.977   9.155
 7491POPC   GL126725  38.461  33.032   8.855
 7491POPC   GL226726  38.510  32.920   8.855
 7491POPC   C1A26727  38.496  32.981   8.555
 7491POPC   D2A26728  38.479  33.019   8.255
 7491POPC   C3A26729  38.479  33.069   7.955
 7491POPC   C4A26730  38.474  33.031   7.655
 7491POPC   C1B26731  38.463  32.777   8.555
 7491POPC   C2B26732  38.483  32.818   8.255
 7491POPC   C3B26733  38.503  32.825   7.955
 7491POPC   C4B26734  38.537  32.763   7.655
 7492POPC   NC326735   2.762   1.168   9.455
 7492POPC   PO426736   2.719   1.186   9.155
 7492POPC   GL126737   2.762   1.234   8.855
 7492POPC   GL226738   2.867   1.278   8.855
 7492POPC   C1A26739   2.730   1.190   8.555
 7492POPC   D2A26740   2.778   1.172   8.255
 7492POPC   C3A26741   2.739   1.202   7.955
 7492POPC   C4A26742   2.815   1.238   7.655
 7492POPC   C1B26743   2.980   1.368   8.555
 7492POPC   C2B26744   2.980   1.348   8.255
 7492POPC   C3B26745   2.936   1.310   7.955
 7492POPC   C4B26746   2.983   1.372   7.655
 7493POPC   NC326747  33.784  29.960   9.455
 7493POPC   PO426748  33.758  29.909   9.155
 7493POPC   GL126749  33.841  29.948   8.855
 7493POPC   GL226750  33.740  30.081   8.855
 7493POPC   C1A26751  33.755  29.951   8.555
 7493POPC   D2A26752  33.755  29.910   8.255
 7493POPC   C3A26753  33.818  29.939   7.955
 7493POPC   C4A26754  33.836  29.926   7.655
 7493POPC   C1B26755  33.706  30.121   8.555
 7493POPC   C2B26756  33.729  30.160   8.255
 7493POPC   C3B26757  33.746  30.184   7.955
 7493POPC   C4B26758  33.771  30.187   7.655
 7494POPC   NC326759  13.638  44.631   9.455
 7494POPC   PO426760  13.676  44.635   9.155
 7494POPC   GL126761  13.661  44.632   8.855
 7494POPC   GL226762  13.502  44.577   8.855
 7494POPC   C1A26763  13.610  44.697   8.555
 7494POPC   D2A26764  13.624  44.633   8.255
 7494POPC   C3A26765  13.640  44.707   7.955
 7494POPC   C4A26766  13.596  44.706   7.655
 7494POPC   C1B26767  13.428  44.629   8.555
 7494POPC   C2B26768  13.405  44.543   8.255
 7494POPC   C3B26769  13.412  44.561   7.955
 7494POPC   C4B26770  13.379  44.566   7.655
 7495POPC   NC326771  17.537  32.288   9.455
 7495POPC   PO426772  17.498  32.295   9.155
 7495POPC   GL126773  17.501  32.289   8.855
 7495POPC   GL226774  17.576  32.188   8.855
 7495POPC   C1A26775  17.535  32.253   8.555
 7495POPC   D2A26776  17.549  32.242   8.255
 7495POPC   C3A26777  17.459  32.290   7.955
 7495POPC   C4A26778  17.500  32.291   7.655
 7495POPC   C1B26779  17.635  32.060   8.555
 7495POPC   C2B26780  17.685  32.077   8.255
 7495POPC   C3B26781  17.643  32.078   7.955
 7495POPC   C4B26782  17.625  32.069   7.655
 7496POPC   NC326783  39.204  23.704   9.455
 7496POPC   PO426784  39.278  23.726   9.155
 7496POPC   GL126785  39.246  23.682   8.855
 7496POPC   GL226786  39.390  23.718   8.855
 7496POPC   C1A26787  39.203  23.725   8.555
 7496POPC   D2A26788  39.227  23.727   8.255
 7496POPC   C3A26789  39.270  23.720   7.955
 7496POPC   C4A26790  39.193  23.679   7.655
 7496POPC   C1B26791  39.499  23.829   8.555
 7496POPC   C2B26792  39.463  23.830   8.255
 7496POPC   C3B26793  39.430  23.788   7.955
 7496POPC   C4B26794  39.488  23.803   7.655
 7497POPC   NC326795  10.485  22.988   9.455
 7497POPC   PO426796  10.493  22.897   9.155
 7497POPC   GL126797  10.554  22.908   8.855
 7497POPC   GL226798  10.551  22.783   8.855
 7497POPC   C1A26799  10.532  22.977   8.555
 7497POPC   D2A26800  10.485  22.904   8.255
 7497POPC   C3A26801  10.554  22.915   7.955
 7497POPC   C4A26802  10.526  22.964   7.655
 7497POPC   C1B26803  10.682  22.748   8.555
 7497POPC   C2B26804  10.643  22.699   8.255
 7497POPC   C3B26805  10.604  22.684   7.955
 7497POPC   C4B26806  10.628  22.727   7.655
 7498POPC   NC326807  21.354   9.784   9.455
 7498POPC   PO426808  21.370   9.740   9.155
 7498POPC   GL126809  21.414   9.726   8.855
 7498POPC   GL226810  21.493   9.839   8.855
 7498POPC   C1A26811  21.372   9.711   8.555
 7498POPC   D2A26812  21.413   9.786   8.255
 7498POPC   C3A26813  21.428   9.699   7.955
 7498POPC   C4A26814  21.426   9.718   7.655
 7498POPC   C1B26815  21.647   9.812   8.555
 7498POPC   C2B26816  21.571   9.882   8.255
 7498POPC   C3B26817  21.582   9.886   7.955
 7498POPC   C4B26818  21.659   9.843   7.655
 7499POPC   NC326819  27.556  25.240   9.455
 7499POPC   PO426820  27.559  25.247   9.155
 7499POPC   GL126821  27.626  25.244   8.855
 7499POPC   GL226822  27.568  25.107   8.855
 7499POPC   C1A26823  27.615  25.315   8.555
 7499POPC   D2A26824  27.548  25.226   8.255
 7499POPC   C3A26825  27.618  25.286   7.955
 7499POPC   C4A26826  27.582  25.252   7.655
 7499POPC   C1B26827  27.521  25.048   8.555
 7499POPC   C2B26828  27.512  25.076   8.255
 7499POPC   C3B26829  27.472  25.025   7.955
 7499POPC   C4B26830  27.515  25.069   7.655
 7500POPC   NC326831   8.929   1.944   9.455
 7500POPC   PO426832   9.013   2.033   9.155
 7500POPC   GL126833   8.984   1.987   8.855
 7500POPC   GL226834   9.073   2.041   8.855
 7500POPC   C1A26835   8.990   1.976   8.555
 7500POPC   D2A26836   8.951   1.955   8.255
 7500POPC   C3A26837   8.995   1.987   7.955
 7500POPC   C4A26838   8.964   1.942   7.655
 7500POPC   C1B26839   9.269   1.973   8.555
 7500POPC   C2B26840   9.198   2.057   8.255
 7500POPC   C3B26841   9.209   2.039   7.955
 7500POPC   C4B26842   9.174   2.023   7.655
 7501POPC   NC326843  42.309  15.228   9.455
 7501POPC   PO426844  42.298  15.206   9.155
 7501POPC   GL126845  42.372  15.165   8.855
 7501POPC   GL226846  42.309  15.055   8.855
 7501POPC   C1A26847  42.352  15.154   8.555
 7501POPC   D2A26848  42.330  15.199   8.255
 7501POPC   C3A26849  42.337  15.179   7.955
 7501POPC   C4A26850  42.341  15.159   7.655
 7501POPC   C1B26851  42.357  14.896   8.555
 7501POPC   C2B26852  42.373  14.882   8.255
 7501POPC   C3B26853  42.365  14.912   7.955
 7501POPC   C4B26854  42.402  14.934   7.655
 7502POPC   NC326855   7.385   1.203   9.455
 7502POPC   PO426856   7.432   1.258   9.155
 7502POPC   GL126857   7.399   1.227   8.855
 7502POPC   GL226858   7.544   1.113   8.855
 7502POPC   C1A26859   7.456   1.213   8.555
 7502POPC   D2A26860   7.416   1.220   8.255
 7502POPC   C3A26861   7.441   1.169   7.955
 7502POPC   C4A26862   7.451   1.207   7.655
 7502POPC   C1B26863   7.606   0.997   8.555
 7502POPC   C2B26864   7.556   1.004   8.255
 7502POPC   C3B26865   7.594   1.042   7.955
 7502POPC   C4B26866   7.608   1.032   7.655
 7503POPC   NC326867   9.712  29.105   9.455
 7503POPC   PO426868   9.788  29.123   9.155
 7503POPC   GL126869   9.738  29.163   8.855
 7503POPC   GL226870   9.707  29.296   8.855
 7503POPC   C1A26871   9.700  29.186   8.555
 7503POPC   D2A26872   9.741  29.099   8.255
 7503POPC   C3A26873   9.771  29.111   7.955
 7503POPC   C4A26874   9.794  29.169   7.655
 7503POPC   C1B26875   9.720  29.353   8.555
 7503POPC   C2B26876   9.726  29.369   8.255
 7503POPC   C3B26877   9.656  29.424   7.955
 7503POPC   C4B26878   9.690  29.407   7.655
 7504POPC   NC326879   5.882  30.675   9.455
 7504POPC   PO426880   5.826  30.679   9.155
 7504POPC   GL126881   5.820  30.694   8.855
 7504POPC   GL226882   5.919  30.624   8.855
 7504POPC   C1A26883   5.865  30.683   8.555
 7504POPC   D2A26884   5.863  30.708   8.255
 7504POPC   C3A26885   5.919  30.710   7.955
 7504POPC   C4A26886   5.834  30.714   7.655
 7504POPC   C1B26887   6.015  30.492   8.555
 7504POPC   C2B26888   6.098  30.488   8.255
 7504POPC   C3B26889   6.081  30.548   7.955
 7504POPC   C4B26890   6.045  30.494   7.655
 7505POPC   NC326891  15.131  37.672   9.455
 7505POPC   PO426892  15.216  37.715   9.155
 7505POPC   GL126893  15.149  37.726   8.855
 7505POPC   GL226894  15.246  37.736   8.855
 7505POPC   C1A26895  15.138  37.692   8.555
 7505POPC   D2A26896  15.129  37.700   8.255
 7505POPC   C3A26897  15.215  37.720   7.955
 7505POPC   C4A26898  15.220  37.670   7.655
 7505POPC   C1B26899  15.368  37.808   8.555
 7505POPC   C2B26900  15.427  37.864   8.255
 7505POPC   C3B26901  15.359  37.870   7.955
 7505POPC   C4B26902  15.359  37.783   7.655
 7506POPC   NC326903   3.558  20.650   9.455
 7506POPC   PO426904   3.584  20.578   9.155
 7506POPC   GL126905   3.511  20.570   8.855
 7506POPC   GL226906   3.529  20.483   8.855
 7506POPC   C1A26907   3.571  20.651   8.555
 7506POPC   D2A26908   3.566  20.599   8.255
 7506POPC   C3A26909   3.516  20.595   7.955
 7506POPC   C4A26910   3.524  20.563   7.655
 7506POPC   C1B26911   3.560  20.353   8.555
 7506POPC   C2B26912   3.503  20.376   8.255
 7506POPC   C3B26913   3.556  20.405   7.955
 7506POPC   C4B26914   3.568  20.327   7.655
 7507POPC   NC326915  43.065   0.406   9.455
 7507POPC   PO426916  43.134   0.483   9.155
 7507POPC   GL126917  43.159   0.447   8.855
 7507POPC   GL226918  43.235   0.421   8.855
 7507POPC   C1A26919  43.120   0.454   8.555
 7507POPC   D2A26920  43.089   0.422   8.255
 7507POPC   C3A26921  43.127   0.410   7.955
 7507POPC   C4A26922  43.139   0.389   7.655
 7507POPC   C1B26923  43.350   0.347   8.555
 7507POPC   C2B26924  43.388   0.360   8.255
 7507POPC   C3B26925  43.322   0.333   7.955
 7507POPC   C4B26926  43.387   0.302   7.655
 7508POPC   NC326927  16.005   5.101   9.455
 7508POPC   PO426928  15.929   5.045   9.155
 7508POPC   GL126929  16.001   5.097   8.855
 7508POPC   GL226930  15.860   5.140   8.855
 7508POPC   C1A26931  15.965   5.058   8.555
 7508POPC   D2A26932  16.000   5.044   8.255
 7508POPC   C3A26933  15.974   5.143   7.955
 7508POPC   C4A26934  15.986   5.125   7.655
 7508POPC   C1B26935  15.720   5.189   8.555
 7508POPC   C2B26936  15.764   5.165   8.255
 7508POPC   C3B26937  15.706   5.156   7.955
 7508POPC   C4B26938  15.687   5.213   7.655
 7509POPC   NC326939  14.373  29.873   9.455
 7509POPC   PO426940  14.402  29.886   9.155
 7509POPC   GL126941  14.406  29.951   8.855
 7509POPC   GL226942  14.503  29.835   8.855
 7509POPC   C1A26943  14.354  29.969   8.555
 7509POPC   D2A26944  14.397  29.897   8.255
 7509POPC   C3A26945  14.439  29.949   7.955
 7509POPC   C4A26946  14.420  29.899   7.655
 7509POPC   C1B26947  14.583  29.815   8.555
 7509POPC   C2B26948  14.604  29.840   8.255
 7509POPC   C3B26949  14.658  29.784   7.955
 7509POPC   C4B26950  14.581  29.843   7.655
 7510POPC   NC326951   7.412  20.565   9.455
 7510POPC   PO426952   7.445  20.583   9.155
 7510POPC   GL126953   7.404  20.588   8.855
 7510POPC   GL226954   7.467  20.715   8.855
 7510POPC   C1A26955   7.454  20.649   8.555
 7510POPC   D2A26956   7.454  20.575   8.255
 7510POPC   C3A26957   7.381  20.614   7.955
 7510POPC   C4A26958   7.443  20.578   7.655
 7510POPC   C1B26959   7.611  20.834   8.555
 7510POPC   C2B26960   7.627  20.828   8.255
 7510POPC   C3B26961   7.582  20.847   7.955
 7510POPC   C4B26962   7.611  20.796   7.655
 7511POPC   NC326963   8.230  15.941   9.455
 7511POPC   PO426964   8.222  15.948   9.155
 7511POPC   GL126965   8.183  15.912   8.855
 7511POPC   GL226966   8.210  15.853   8.855
 7511POPC   C1A26967   8.201  15.990   8.555
 7511POPC   D2A26968   8.203  15.933   8.255
 7511POPC   C3A26969   8.172  15.943   7.955
 7511POPC   C4A26970   8.153  15.980   7.655
 7511POPC   C1B26971   8.131  15.755   8.555
 7511POPC   C2B26972   8.130  15.686   8.255
 7511POPC   C3B26973   8.146  15.698   7.955
 7511POPC   C4B26974   8.123  15.741   7.655
 7512POPC   NC326975   7.409   6.606   9.455
 7512POPC   PO426976   7.411   6.603   9.155
 7512POPC   GL126977   7.433   6.695   8.855
 7512POPC   GL226978   7.437   6.570   8.855
 7512POPC   C1A26979   7.396   6.667   8.555
 7512POPC   D2A26980   7.379   6.658   8.255
 7512POPC   C3A26981   7.462   6.676   7.955
 7512POPC   C4A26982   7.417   6.635   7.655
 7512POPC   C1B26983   7.424   6.439   8.555
 7512POPC   C2B26984   7.457   6.431   8.255
 7512POPC   C3B26985   7.433   6.354   7.955
 7512POPC   C4B26986   7.455   6.363   7.655
 7513POPC   NC326987  12.045  16.699   9.455
 7513POPC   PO426988  12.096  16.728   9.155
 7513POPC   GL126989  12.050  16.754   8.855
 7513POPC   GL226990  11.996  16.824   8.855
 7513POPC   C1A26991  12.115  16.780   8.555
 7513POPC   D2A26992  12.034  16.710   8.255
 7513POPC   C3A26993  12.041  16.736   7.955
 7513POPC   C4A26994  12.124  16.690   7.655
 7513POPC   C1B26995  11.952  16.979   8.555
 7513POPC   C2B26996  11.924  16.980   8.255
 7513POPC   C3B26997  11.981  16.968   7.955
 7513POPC   C4B26998  11.907  16.899   7.655
 7514POPC   NC326999  43.894  29.127   9.455
 7514POPC   PO427000  43.933  29.162   9.155
 7514POPC   GL127001  43.855  29.135   8.855
 7514POPC   GL227002  43.902  29.279   8.855
 7514POPC   C1A27003  43.888  29.098   8.555
 7514POPC   D2A27004  43.889  29.177   8.255
 7514POPC   C3A27005  43.909  29.181   7.955
 7514POPC   C4A27006  43.920  29.151   7.655
 7514POPC   C1B27007  43.956  29.348   8.555
 7514POPC   C2B27008  43.909  29.343   8.255
 7514POPC   C3B27009  43.962  29.354   7.955
 7514POPC   C4B27010  43.943  29.340   7.655
 7515POPC   NC327011  12.886  18.319   9.455
 7515POPC   PO427012  12.831  18.245   9.155
 7515POPC   GL127013  12.843  18.296   8.855
 7515POPC   GL227014  12.737  18.256   8.855
 7515POPC   C1A27015  12.873  18.236   8.555
 7515POPC   D2A27016  12.850  18.247   8.255
 7515POPC   C3A27017  12.884  18.332   7.955
 7515POPC   C4A27018  12.814  18.309   7.655
 7515POPC   C1B27019  12.640  18.297   8.555
 7515POPC   C2B27020  12.618  18.284   8.255
 7515POPC   C3B27021  12.638  18.247   7.955
 7515POPC   C4B27022  12.650  18.331   7.655
 7516POPC   NC327023  36.140  23.730   9.455
 7516POPC   PO427024  36.106  23.695   9.155
 7516POPC   GL127025  36.177  23.675   8.855
 7516POPC   GL227026  36.225  23.701   8.855
 7516POPC   C1A27027  36.128  23.702   8.555
 7516POPC   D2A27028  36.092  23.740   8.255
 7516POPC   C3A27029  36.085  23.755   7.955
 7516POPC   C4A27030  36.099  23.687   7.655
 7516POPC   C1B27031  36.376  23.737   8.555
 7516POPC   C2B27032  36.352  23.697   8.255
 7516POPC   C3B27033  36.380  23.691   7.955
 7516POPC   C4B27034  36.352  23.743   7.655
 7517POPC   NC327035  31.445   4.285   9.455
 7517POPC   PO427036  31.486   4.355   9.155
 7517POPC   GL127037  31.430   4.356   8.855
 7517POPC   GL227038  31.349   4.289   8.855
 7517POPC   C1A27039  31.477   4.304   8.555
 7517POPC   D2A27040  31.500   4.321   8.255
 7517POPC   C3A27041  31.503   4.322   7.955
 7517POPC   C4A27042  31.432   4.342   7.655
 7517POPC   C1B27043  31.177   4.372   8.555
 7517POPC   C2B27044  31.270   4.368   8.255
 7517POPC   C3B27045  31.251   4.311   7.955
 7517POPC   C4B27046  31.196   4.326   7.655
 7518POPC   NC327047  30.726  11.340   9.455
 7518POPC   PO427048  30.690  11.322   9.155
 7518POPC   GL127049  30.705  11.262   8.855
 7518POPC   GL227050  30.584  11.367   8.855
 7518POPC   C1A27051  30.741  11.331   8.555
 7518POPC   D2A27052  30.668  11.293   8.255
 7518POPC   C3A27053  30.730  11.285   7.955
 7518POPC   C4A27054  30.691  11.297   7.655
 7518POPC   C1B27055  30.429  11.330   8.555
 7518POPC   C2B27056  30.451  11.338   8.255
 7518POPC   C3B27057  30.477  11.412   7.955
 7518POPC   C4B27058  30.453  11.379   7.655
 7519POPC   NC327059  31.437   3.507   9.455
 7519POPC   PO427060  31.427   3.568   9.155
 7519POPC   GL127061  31.440   3.585   8.855
 7519POPC   GL227062  31.352   3.591   8.855
 7519POPC   C1A27063  31.508   3.548   8.555
 7519POPC   D2A27064  31.443   3.553   8.255
 7519POPC   C3A27065  31.454   3.523   7.955
 7519POPC   C4A27066  31.513   3.512   7.655
 7519POPC   C1B27067  31.232   3.632   8.555
 7519POPC   C2B27068  31.219   3.644   8.255
 7519POPC   C3B27069  31.234   3.590   7.955
 7519POPC   C4B27070  31.254   3.634   7.655
 7520POPC   NC327071  25.220  32.998   9.455
 7520POPC   PO427072  25.313  32.982   9.155
 7520POPC   GL127073  25.221  33.010   8.855
 7520POPC   GL227074  25.386  33.057   8.855
 7520POPC   C1A27075  25.227  33.008   8.555
 7520POPC   D2A27076  25.310  33.013   8.255
 7520POPC   C3A27077  25.267  33.060   7.955
 7520POPC   C4A27078  25.225  33.070   7.655
 7520POPC   C1B27079  25.519  33.002   8.555
 7520POPC   C2B27080  25.542  33.027   8.255
 7520POPC   C3B27081  25.504  32.975   7.955
 7520POPC   C4B27082  25.516  33.071   7.655
 7521POPC   NC327083  13.593  15.179   9.455
 7521POPC   PO427084  13.588  15.217   9.155
 7521POPC   GL127085  13.591  15.223   8.855
 7521POPC   GL227086  13.595  15.256   8.855
 7521POPC   C1A27087  13.586  15.228   8.555
 7521POPC   D2A27088  13.594  15.157   8.255
 7521POPC   C3A27089  13.604  15.189   7.955
 7521POPC   C4A27090  13.629  15.193   7.655
 7521POPC   C1B27091  13.499  15.382   8.555
 7521POPC   C2B27092  13.494  15.418   8.255
 7521POPC   C3B27093  13.578  15.416   7.955
 7521POPC   C4B27094  13.542  15.380   7.655
 7522POPC   NC327095  26.823  32.207   9.455
 7522POPC   PO427096  26.804  32.246   9.155
 7522POPC   GL127097  26.802  32.286   8.855
 7522POPC   GL227098  26.680  32.302   8.855
 7522POPC   C1A27099  26.812  32.279   8.555
 7522POPC   D2A27100  26.848  32.221   8.255
 7522POPC   C3A27101  26.810  32.228   7.955
 7522POPC   C4A27102  26.846  32.241   7.655
 7522POPC   C1B27103  26.622  32.339   8.555
 7522POPC   C2B27104  26.581  32.344   8.255
 7522POPC   C3B27105  26.563  32.299   7.955
 7522POPC   C4B27106  26.540  32.369   7.655
 7523POPC   NC327107  33.780  15.209   9.455
 7523POPC   PO427108  33.771  15.221   9.155
 7523POPC   GL127109  33.826  15.137   8.855
 7523POPC   GL227110  33.874  15.137   8.855
 7523POPC   C1A27111  33.790  15.173   8.555
 7523POPC   D2A27112  33.810  15.160   8.255
 7523POPC   C3A27113  33.842  15.200   7.955
 7523POPC   C4A27114  33.813  15.175   7.655
 7523POPC   C1B27115  33.945  15.018   8.555
 7523POPC   C2B27116  33.984  15.032   8.255
 7523POPC   C3B27117  34.016  15.001   7.955
 7523POPC   C4B27118  34.016  15.001   7.655
 7524POPC   NC327119  16.713   8.970   9.455
 7524POPC   PO427120  16.716   8.950   9.155
 7524POPC   GL127121  16.763   8.964   8.855
 7524POPC   GL227122  16.882   8.974   8.855
 7524POPC   C1A27123  16.776   8.934   8.555
 7524POPC   D2A27124  16.742   8.979   8.255
 7524POPC   C3A27125  16.768   8.998   7.955
 7524POPC   C4A27126  16.765   8.998   7.655
 7524POPC   C1B27127  17.002   9.023   8.555
 7524POPC   C2B27128  16.955   8.983   8.255
 7524POPC   C3B27129  16.957   8.993   7.955
 7524POPC   C4B27130  16.972   9.013   7.655
 7525POPC   NC327131  27.560  33.044   9.455
 7525POPC   PO427132  27.562  33.071   9.155
 7525POPC   GL127133  27.599  33.066   8.855
 7525POPC   GL227134  27.592  33.156   8.855
 7525POPC   C1A27135  27.574  32.995   8.555
 7525POPC   D2A27136  27.589  33.004   8.255
 7525POPC   C3A27137  27.603  33.004   7.955
 7525POPC   C4A27138  27.607  33.057   7.655
 7525POPC   C1B27139  27.544  33.299   8.555
 7525POPC   C2B27140  27.454  33.208   8.255
 7525POPC   C3B27141  27.537  33.276   7.955
 7525POPC   C4B27142  27.530  33.211   7.655
 7526POPC   NC327143  18.241  36.114   9.455
 7526POPC   PO427144  18.286  36.085   9.155
 7526POPC   GL127145  18.277  36.169   8.855
 7526POPC   GL227146  18.159  36.097   8.855
 7526POPC   C1A27147  18.282  36.174   8.555
 7526POPC   D2A27148  18.260  36.117   8.255
 7526POPC   C3A27149  18.269  36.159   7.955
 7526POPC   C4A27150  18.242  36.138   7.655
 7526POPC   C1B27151  18.036  36.024   8.555
 7526POPC   C2B27152  18.095  35.994   8.255
 7526POPC   C3B27153  18.070  36.010   7.955
 7526POPC   C4B27154  18.069  35.940   7.655
 7527POPC   NC327155  36.892   3.492   9.455
 7527POPC   PO427156  36.932   3.554   9.155
 7527POPC   GL127157  36.947   3.567   8.855
 7527POPC   GL227158  37.070   3.490   8.855
 7527POPC   C1A27159  36.888   3.526   8.555
 7527POPC   D2A27160  36.879   3.586   8.255
 7527POPC   C3A27161  36.920   3.524   7.955
 7527POPC   C4A27162  36.945   3.533   7.655
 7527POPC   C1B27163  37.137   3.434   8.555
 7527POPC   C2B27164  37.127   3.429   8.255
 7527POPC   C3B27165  37.113   3.480   7.955
 7527POPC   C4B27166  37.092   3.462   7.655
 7528POPC   NC327167  15.918  24.455   9.455
 7528POPC   PO427168  15.949  24.518   9.155
 7528POPC   GL127169  15.939  24.529   8.855
 7528POPC   GL227170  15.991  24.340   8.855
 7528POPC   C1A27171  15.955  24.527   8.555
 7528POPC   D2A27172  15.985  24.467   8.255
 7528POPC   C3A27173  15.994  24.453   7.955
 7528POPC   C4A27174  15.999  24.505   7.655
 7528POPC   C1B27175  15.986  24.243   8.555
 7528POPC   C2B27176  16.011  24.270   8.255
 7528POPC   C3B27177  15.984  24.218   7.955
 7528POPC   C4B27178  16.012  24.224   7.655
 7529POPC   NC327179  39.976  33.020   9.455
 7529POPC   PO427180  39.961  32.975   9.155
 7529POPC   GL127181  39.992  33.031   8.855
 7529POPC   GL227182  40.076  32.946   8.855
 7529POPC   C1A27183  40.052  33.050   8.555
 7529POPC   D2A27184  39.999  33.051   8.255
 7529POPC   C3A27185  40.012  33.068   7.955
 7529POPC   C4A27186  40.036  33.025   7.655
 7529POPC   C1B27187  40.071  32.834   8.555
 7529POPC   C2B27188  40.135  32.772   8.255
 7529POPC   C3B27189  40.058  32.771   7.955
 7529POPC   C4B27190  40.052  32.778   7.655
 7530POPC   NC327191  18.238   2.803   9.455
 7530POPC   PO427192  18.270   2.767   9.155
 7530POPC   GL127193  18.250   2.784   8.855
 7530POPC   GL227194  18.430   2.756   8.855
 7530POPC   C1A27195  18.250   2.733   8.555
 7530POPC   D2A27196  18.256   2.733   8.255
 7530POPC   C3A27197  18.314   2.767   7.955
 7530POPC   C4A27198  18.268   2.759   7.655
 7530POPC   C1B27199  18.488   2.763   8.555
 7530POPC   C2B27200  18.526   2.817   8.255
 7530POPC   C3B27201  18.541   2.726   7.955
 7530POPC   C4B27202  18.506   2.737   7.655
 7531POPC   NC327203  19.019  26.781   9.455
 7531POPC   PO427204  19.105  26.811   9.155
 7531POPC   GL127205  19.019  26.843   8.855
 7531POPC   GL227206  19.130  26.654   8.855
 7531POPC   C1A27207  19.052  26.845   8.555
 7531POPC   D2A27208  19.046  26.845   8.255
 7531POPC   C3A27209  19.073  26.793   7.955
 7531POPC   C4A27210  19.108  26.849   7.655
 7531POPC   C1B27211  19.153  26.617   8.555
 7531POPC   C2B27212  19.127  26.526   8.255
 7531POPC   C3B27213  19.133  26.616   7.955
 7531POPC   C4B27214  19.156  26.584   7.655
 7532POPC   NC327215   2.732  40.767   9.455
 7532POPC   PO427216   2.813  40.802   9.155
 7532POPC   GL127217   2.745  40.791   8.855
 7532POPC   GL227218   2.879  40.842   8.855
 7532POPC   C1A27219   2.744  40.826   8.555
 7532POPC   D2A27220   2.745  40.781   8.255
 7532POPC   C3A27221   2.785  40.749   7.955
 7532POPC   C4A27222   2.807  40.813   7.655
 7532POPC   C1B27223   2.931  40.956   8.555
 7532POPC   C2B27224   2.878  40.967   8.255
 7532POPC   C3B27225   2.944  41.025   7.955
 7532POPC   C4B27226   2.949  40.947   7.655
 7533POPC   NC327227   9.714   0.409   9.455
 7533POPC   PO427228   9.721   0.456   9.155
 7533POPC   GL127229   9.721   0.467   8.855
 7533POPC   GL227230   9.623   0.545   8.855
 7533POPC   C1A27231   9.709   0.444   8.555
 7533POPC   D2A27232   9.715   0.449   8.255
 7533POPC   C3A27233   9.791   0.401   7.955
 7533POPC   C4A27234   9.750   0.484   7.655
 7533POPC   C1B27235   9.546   0.644   8.555
 7533POPC   C2B27236   9.610   0.625   8.255
 7533POPC   C3B27237   9.591   0.631   7.955
 7533POPC   C4B27238   9.535   0.671   7.655
 7534POPC   NC327239  23.732  19.806   9.455
 7534POPC   PO427240  23.719  19.870   9.155
 7534POPC   GL127241  23.743  19.794   8.855
 7534POPC   GL227242  23.732  19.735   8.855
 7534POPC   C1A27243  23.700  19.821   8.555
 7534POPC   D2A27244  23.691  19.832   8.255
 7534POPC   C3A27245  23.666  19.858   7.955
 7534POPC   C4A27246  23.672  19.860   7.655
 7534POPC   C1B27247  23.644  19.575   8.555
 7534POPC   C2B27248  23.645  19.600   8.255
 7534POPC   C3B27249  23.694  19.553   7.955
 7534POPC   C4B27250  23.692  19.625   7.655
 7535POPC   NC327251   0.460  16.717   9.455
 7535POPC   PO427252   0.481  16.750   9.155
 7535POPC   GL127253   0.451  16.696   8.855
 7535POPC   GL227254   0.539  16.822   8.855
 7535POPC   C1A27255   0.421  16.770   8.555
 7535POPC   D2A27256   0.444  16.744   8.255
 7535POPC   C3A27257   0.427  16.715   7.955
 7535POPC   C4A27258   0.422  16.710   7.655
 7535POPC   C1B27259   0.626  16.966   8.555
 7535POPC   C2B27260   0.623  16.952   8.255
 7535POPC   C3B27261   0.550  16.896   7.955
 7535POPC   C4B27262   0.576  16.916   7.655
 7536POPC   NC327263  16.755  31.511   9.455
 7536POPC   PO427264  16.779  31.441   9.155
 7536POPC   GL127265  16.751  31.461   8.855
 7536POPC   GL227266  16.634  31.513   8.855
 7536POPC   C1A27267  16.715  31.427   8.555
 7536POPC   D2A27268  16.721  31.508   8.255
 7536POPC   C3A27269  16.725  31.504   7.955
 7536POPC   C4A27270  16.727  31.513   7.655
 7536POPC   C1B27271  16.523  31.499   8.555
 7536POPC   C2B27272  16.484  31.547   8.255
 7536POPC   C3B27273  16.453  31.521   7.955
 7536POPC   C4B27274  16.485  31.563   7.655
 7537POPC   NC327275  40.739  40.744   9.455
 7537POPC   PO427276  40.737  40.814   9.155
 7537POPC   GL127277  40.750  40.780   8.855
 7537POPC   GL227278  40.682  40.649   8.855
 7537POPC   C1A27279  40.742  40.765   8.555
 7537POPC   D2A27280  40.755  40.805   8.255
 7537POPC   C3A27281  40.770  40.800   7.955
 7537POPC   C4A27282  40.797  40.780   7.655
 7537POPC   C1B27283  40.615  40.642   8.555
 7537POPC   C2B27284  40.641  40.626   8.255
 7537POPC   C3B27285  40.618  40.553   7.955
 7537POPC   C4B27286  40.624  40.583   7.655
 7538POPC   NC327287   3.511   6.688   9.455
 7538POPC   PO427288   3.531   6.614   9.155
 7538POPC   GL127289   3.524   6.672   8.855
 7538POPC   GL227290   3.618   6.578   8.855
 7538POPC   C1A27291   3.548   6.622   8.555
 7538POPC   D2A27292   3.574   6.624   8.255
 7538POPC   C3A27293   3.568   6.636   7.955
 7538POPC   C4A27294   3.556   6.659   7.655
 7538POPC   C1B27295   3.682   6.453   8.555
 7538POPC   C2B27296   3.645   6.390   8.255
 7538POPC   C3B27297   3.627   6.458   7.955
 7538POPC   C4B27298   3.635   6.465   7.655
 7539POPC   NC327299  20.619   5.101   9.455
 7539POPC   PO427300  20.595   5.080   9.155
 7539POPC   GL127301  20.580   5.070   8.855
 7539POPC   GL227302  20.522   5.010   8.855
 7539POPC   C1A27303  20.625   5.053   8.555
 7539POPC   D2A27304  20.641   5.065   8.255
 7539POPC   C3A27305  20.637   5.108   7.955
 7539POPC   C4A27306  20.651   5.091   7.655
 7539POPC   C1B27307  20.472   4.902   8.555
 7539POPC   C2B27308  20.425   4.915   8.255
 7539POPC   C3B27309  20.437   4.936   7.955
 7539POPC   C4B27310  20.443   4.953   7.655
 7540POPC   NC327311  37.729  23.680   9.455
 7540POPC   PO427312  37.648  23.703   9.155
 7540POPC   GL127313  37.647  23.747   8.855
 7540POPC   GL227314  37.630  23.631   8.855
 7540POPC   C1A27315  37.648  23.676   8.555
 7540POPC   D2A27316  37.688  23.698   8.255
 7540POPC   C3A27317  37.680  23.701   7.955
 7540POPC   C4A27318  37.654  23.680   7.655
 7540POPC   C1B27319  37.605  23.467   8.555
 7540POPC   C2B27320  37.533  23.512   8.255
 7540POPC   C3B27321  37.557  23.484   7.955
 7540POPC   C4B27322  37.624  23.475   7.655
 7541POPC   NC327323  39.965   7.465   9.455
 7541POPC   PO427324  40.013   7.391   9.155
 7541POPC   GL127325  40.014   7.433   8.855
 7541POPC   GL227326  39.956   7.546   8.855
 7541POPC   C1A27327  40.030   7.440   8.555
 7541POPC   D2A27328  40.018   7.400   8.255
 7541POPC   C3A27329  40.035   7.437   7.955
 7541POPC   C4A27330  39.988   7.434   7.655
 7541POPC   C1B27331  39.845   7.629   8.555
 7541POPC   C2B27332  39.889   7.691   8.255
 7541POPC   C3B27333  39.848   7.611   7.955
 7541POPC   C4B27334  39.928   7.665   7.655
 7542POPC   NC327335  10.487  20.575   9.455
 7542POPC   PO427336  10.523  20.573   9.155
 7542POPC   GL127337  10.533  20.646   8.855
 7542POPC   GL227338  10.507  20.492   8.855
 7542POPC   C1A27339  10.538  20.574   8.555
 7542POPC   D2A27340  10.543  20.572   8.255
 7542POPC   C3A27341  10.529  20.565   7.955
 7542POPC   C4A27342  10.499  20.607   7.655
 7542POPC   C1B27343  10.385  20.374   8.555
 7542POPC   C2B27344  10.447  20.399   8.255
 7542POPC   C3B27345  10.392  20.355   7.955
 7542POPC   C4B27346  10.367  20.433   7.655
 7543POPC   NC327347  43.915  26.862   9.455
 7543POPC   PO427348  43.852  26.865   9.155
 7543POPC   GL127349  43.894  26.820   8.855
 7543POPC   GL227350  43.779  26.792   8.855
 7543POPC   C1A27351  43.917  26.787   8.555
 7543POPC   D2A27352  43.894  26.866   8.255
 7543POPC   C3A27353  43.934  26.806   7.955
 7543POPC   C4A27354  43.928  26.859   7.655
 7543POPC   C1B27355  43.685  26.844   8.555
 7543POPC   C2B27356  43.668  26.822   8.255
 7543POPC   C3B27357  43.628  26.844   7.955
 7543POPC   C4B27358  43.682  26.801   7.655
 7544POPC   NC327359  30.701  12.066   9.455
 7544POPC   PO427360  30.717  12.046   9.155
 7544POPC   GL127361  30.689  12.113   8.855
 7544POPC   GL227362  30.764  11.981   8.855
 7544POPC   C1A27363  30.692  12.072   8.555
 7544POPC   D2A27364  30.648  12.045   8.255
 7544POPC   C3A27365  30.659  12.063   7.955
 7544POPC   C4A27366  30.657  12.087   7.655
 7544POPC   C1B27367  30.917  11.934   8.555
 7544POPC   C2B27368  30.878  11.920   8.255
 7544POPC   C3B27369  30.855  11.958   7.955
 7544POPC   C4B27370  30.898  11.881   7.655
 7545POPC   NC327371  27.640   1.180   9.455
 7545POPC   PO427372  27.608   1.189   9.155
 7545POPC   GL127373  27.633   1.229   8.855
 7545POPC   GL227374  27.512   1.109   8.855
 7545POPC   C1A27375  27.555   1.214   8.555
 7545POPC   D2A27376  27.603   1.186   8.255
 7545POPC   C3A27377  27.561   1.222   7.955
 7545POPC   C4A27378  27.578   1.174   7.655
 7545POPC   C1B27379  27.479   1.039   8.555
 7545POPC   C2B27380  27.426   0.971   8.255
 7545POPC   C3B27381  27.454   0.989   7.955
 7545POPC   C4B27382  27.408   1.015   7.655
 7546POPC   NC327383   2.747  10.529   9.455
 7546POPC   PO427384   2.735  10.504   9.155
 7546POPC   GL127385   2.805  10.539   8.855
 7546POPC   GL227386   2.618  10.569   8.855
 7546POPC   C1A27387   2.727  10.567   8.555
 7546POPC   D2A27388   2.768  10.559   8.255
 7546POPC   C3A27389   2.811  10.573   7.955
 7546POPC   C4A27390   2.737  10.513   7.655
 7546POPC   C1B27391   2.565  10.501   8.555
 7546POPC   C2B27392   2.541  10.569   8.255
 7546POPC   C3B27393   2.563  10.515   7.955
 7546POPC   C4B27394   2.506  10.576   7.655
 7547POPC   NC327395  43.151  31.469   9.455
 7547POPC   PO427396  43.070  31.472   9.155
 7547POPC   GL127397  43.063  31.435   8.855
 7547POPC   GL227398  42.984  31.449   8.855
 7547POPC   C1A27399  43.062  31.444   8.555
 7547POPC   D2A27400  43.149  31.473   8.255
 7547POPC   C3A27401  43.115  31.514   7.955
 7547POPC   C4A27402  43.109  31.432   7.655
 7547POPC   C1B27403  42.957  31.306   8.555
 7547POPC   C2B27404  42.880  31.284   8.255
 7547POPC   C3B27405  42.881  31.359   7.955
 7547POPC   C4B27406  42.872  31.338   7.655
 7548POPC   NC327407  44.624  19.085   9.455
 7548POPC   PO427408  44.708  19.096   9.155
 7548POPC   GL127409  44.689  19.086   8.855
 7548POPC   GL227410  44.516  18.984   8.855
 7548POPC   C1A27411  44.642  19.010   8.555
 7548POPC   D2A27412  44.634  19.077   8.255
 7548POPC   C3A27413  44.692  19.097   7.955
 7548POPC   C4A27414  44.638  19.042   7.655
 7548POPC   C1B27415  44.447  18.915   8.555
 7548POPC   C2B27416  44.469  18.927   8.255
 7548POPC   C3B27417  44.436  18.889   7.955
 7548POPC   C4B27418  44.460  18.922   7.655
 7549POPC   NC327419   8.235  30.679   9.455
 7549POPC   PO427420   8.158  30.729   9.155
 7549POPC   GL127421   8.155  30.667   8.855
 7549POPC   GL227422   8.359  30.699   8.855
 7549POPC   C1A27423   8.169  30.694   8.555
 7549POPC   D2A27424   8.242  30.647   8.255
 7549POPC   C3A27425   8.241  30.691   7.955
 7549POPC   C4A27426   8.186  30.682   7.655
 7549POPC   C1B27427   8.398  30.622   8.555
 7549POPC   C2B27428   8.458  30.636   8.255
 7549POPC   C3B27429   8.440  30.671   7.955
 7549POPC   C4B27430   8.401  30.644   7.655
 7550POPC   NC327431  36.900  27.626   9.455
 7550POPC   PO427432  36.937  27.582   9.155
 7550POPC   GL127433  36.920  27.591   8.855
 7550POPC   GL227434  36.917  27.731   8.855
 7550POPC   C1A27435  36.953  27.607   8.555
 7550POPC   D2A27436  36.894  27.572   8.255
 7550POPC   C3A27437  36.927  27.612   7.955
 7550POPC   C4A27438  36.870  27.566   7.655
 7550POPC   C1B27439  36.785  27.823   8.555
 7550POPC   C2B27440  36.826  27.825   8.255
 7550POPC   C3B27441  36.797  27.825   7.955
 7550POPC   C4B27442  36.813  27.833   7.655
 7551POPC   NC327443  30.695  12.846   9.455
 7551POPC   PO427444  30.727  12.863   9.155
 7551POPC   GL127445  30.667  12.815   8.855
 7551POPC   GL227446  30.757  12.710   8.855
 7551POPC   C1A27447  30.735  12.808   8.555
 7551POPC   D2A27448  30.667  12.871   8.255
 7551POPC   C3A27449  30.689  12.891   7.955
 7551POPC   C4A27450  30.723  12.873   7.655
 7551POPC   C1B27451  30.797  12.596   8.555
 7551POPC   C2B27452  30.839  12.639   8.255
 7551POPC   C3B27453  30.770  12.621   7.955
 7551POPC   C4B27454  30.812  12.595   7.655
 7552POPC   NC327455  19.036  22.945   9.455
 7552POPC   PO427456  19.058  22.956   9.155
 7552POPC   GL127457  19.066  22.985   8.855
 7552POPC   GL227458  19.003  22.871   8.855
 7552POPC   C1A27459  19.074  22.976   8.555
 7552POPC   D2A27460  19.090  22.955   8.255
 7552POPC   C3A27461  19.068  22.967   7.955
 7552POPC   C4A27462  19.092  22.974   7.655
 7552POPC   C1B27463  18.937  22.742   8.555
 7552POPC   C2B27464  18.960  22.769   8.255
 7552POPC   C3B27465  18.914  22.705   7.955
 7552POPC   C4B27466  18.925  22.773   7.655
 7553POPC   NC327467   2.013  41.517   9.455
 7553POPC   PO427468   2.025  41.539   9.155
 7553POPC   GL127469   1.965  41.553   8.855
 7553POPC   GL227470   1.899  41.500   8.855
 7553POPC   C1A27471   1.941  41.607   8.555
 7553POPC   D2A27472   2.016  41.522   8.255
 7553POPC   C3A27473   2.024  41.513   7.955
 7553POPC   C4A27474   1.957  41.515   7.655
 7553POPC   C1B27475   1.809  41.419   8.555
 7553POPC   C2B27476   1.852  41.362   8.255
 7553POPC   C3B27477   1.810  41.423   7.955
 7553POPC   C4B27478   1.794  41.360   7.655
 7554POPC   NC327479  40.026  32.297   9.455
 7554POPC   PO427480  40.013  32.269   9.155
 7554POPC   GL127481  40.012  32.231   8.855
 7554POPC   GL227482  40.091  32.408   8.855
 7554POPC   C1A27483  39.961  32.242   8.555
 7554POPC   D2A27484  39.971  32.275   8.255
 7554POPC   C3A27485  40.057  32.257   7.955
 7554POPC   C4A27486  39.969  32.280   7.655
 7554POPC   C1B27487  40.122  32.529   8.555
 7554POPC   C2B27488  40.067  32.459   8.255
 7554POPC   C3B27489  40.054  32.492   7.955
 7554POPC   C4B27490  40.116  32.499   7.655
 7555POPC   NC327491  13.588  14.407   9.455
 7555POPC   PO427492  13.601  14.354   9.155
 7555POPC   GL127493  13.581  14.372   8.855
 7555POPC   GL227494  13.478  14.437   8.855
 7555POPC   C1A27495  13.678  14.384   8.555
 7555POPC   D2A27496  13.638  14.407   8.255
 7555POPC   C3A27497  13.672  14.432   7.955
 7555POPC   C4A27498  13.670  14.355   7.655
 7555POPC   C1B27499  13.436  14.504   8.555
 7555POPC   C2B27500  13.396  14.459   8.255
 7555POPC   C3B27501  13.377  14.496   7.955
 7555POPC   C4B27502  13.359  14.458   7.655
 7556POPC   NC327503  29.879   5.881   9.455
 7556POPC   PO427504  29.919   5.911   9.155
 7556POPC   GL127505  29.950   5.850   8.855
 7556POPC   GL227506  29.766   5.873   8.855
 7556POPC   C1A27507  29.935   5.827   8.555
 7556POPC   D2A27508  29.954   5.860   8.255
 7556POPC   C3A27509  29.960   5.846   7.955
 7556POPC   C4A27510  29.907   5.857   7.655
 7556POPC   C1B27511  29.710   5.892   8.555
 7556POPC   C2B27512  29.671   5.895   8.255
 7556POPC   C3B27513  29.700   5.896   7.955
 7556POPC   C4B27514  29.628   5.841   7.655
 7557POPC   NC327515   7.399  31.463   9.455
 7557POPC   PO427516   7.434  31.434   9.155
 7557POPC   GL127517   7.375  31.423   8.855
 7557POPC   GL227518   7.338  31.383   8.855
 7557POPC   C1A27519   7.443  31.427   8.555
 7557POPC   D2A27520   7.432  31.429   8.255
 7557POPC   C3A27521   7.396  31.504   7.955
 7557POPC   C4A27522   7.420  31.485   7.655
 7557POPC   C1B27523   7.349  31.276   8.555
 7557POPC   C2B27524   7.294  31.285   8.255
 7557POPC   C3B27525   7.277  31.216   7.955
 7557POPC   C4B27526   7.295  31.211   7.655
 7558POPC   NC327527   9.000  26.077   9.455
 7558POPC   PO427528   8.975  26.044   9.155
 7558POPC   GL127529   9.020  25.992   8.855
 7558POPC   GL227530   8.898  25.995   8.855
 7558POPC   C1A27531   8.951  26.017   8.555
 7558POPC   D2A27532   8.950  26.035   8.255
 7558POPC   C3A27533   8.993  26.035   7.955
 7558POPC   C4A27534   8.992  26.063   7.655
 7558POPC   C1B27535   8.719  25.994   8.555
 7558POPC   C2B27536   8.681  25.946   8.255
 7558POPC   C3B27537   8.779  26.022   7.955
 7558POPC   C4B27538   8.738  25.987   7.655
 7559POPC   NC327539  10.538  10.559   9.455
 7559POPC   PO427540  10.489  10.501   9.155
 7559POPC   GL127541  10.524  10.533   8.855
 7559POPC   GL227542  10.392  10.604   8.855
 7559POPC   C1A27543  10.533  10.564   8.555
 7559POPC   D2A27544  10.518  10.521   8.255
 7559POPC   C3A27545  10.490  10.569   7.955
 7559POPC   C4A27546  10.512  10.478   7.655
 7559POPC   C1B27547  10.293  10.638   8.555
 7559POPC   C2B27548  10.318  10.666   8.255
 7559POPC   C3B27549  10.348  10.650   7.955
 7559POPC   C4B27550  10.310  10.687   7.655
 7560POPC   NC327551  23.678  36.155   9.455
 7560POPC   PO427552  23.686  36.123   9.155
 7560POPC   GL127553  23.691  36.174   8.855
 7560POPC   GL227554  23.824  36.050   8.855
 7560POPC   C1A27555  23.745  36.126   8.555
 7560POPC   D2A27556  23.730  36.165   8.255
 7560POPC   C3A27557  23.695  36.104   7.955
 7560POPC   C4A27558  23.682  36.115   7.655
 7560POPC   C1B27559  23.964  35.980   8.555
 7560POPC   C2B27560  23.941  36.047   8.255
 7560POPC   C3B27561  23.982  35.990   7.955
 7560POPC   C4B27562  23.954  36.013   7.655
 7561POPC   NC327563   9.789   1.238   9.455
 7561POPC   PO427564   9.770   1.248   9.155
 7561POPC   GL127565   9.757   1.183   8.855
 7561POPC   GL227566   9.600   1.268   8.855
 7561POPC   C1A27567   9.764   1.211   8.555
 7561POPC   D2A27568   9.766   1.190   8.255
 7561POPC   C3A27569   9.784   1.219   7.955
 7561POPC   C4A27570   9.703   1.252   7.655
 7561POPC   C1B27571   9.482   1.194   8.555
 7561POPC   C2B27572   9.473   1.234   8.255
 7561POPC   C3B27573   9.465   1.217   7.955
 7561POPC   C4B27574   9.474   1.286   7.655
 7562POPC   NC327575  31.520   9.760   9.455
 7562POPC   PO427576  31.512   9.723   9.155
 7562POPC   GL127577  31.510   9.745   8.855
 7562POPC   GL227578  31.596   9.803   8.855
 7562POPC   C1A27579  31.510   9.746   8.555
 7562POPC   D2A27580  31.501   9.767   8.255
 7562POPC   C3A27581  31.463   9.716   7.955
 7562POPC   C4A27582  31.501   9.767   7.655
 7562POPC   C1B27583  31.621   9.934   8.555
 7562POPC   C2B27584  31.703   9.892   8.255
 7562POPC   C3B27585  31.659   9.926   7.955
 7562POPC   C4B27586  31.697   9.863   7.655
 7563POPC   NC327587  36.103  39.232   9.455
 7563POPC   PO427588  36.155  39.182   9.155
 7563POPC   GL127589  36.129  39.205   8.855
 7563POPC   GL227590  36.131  39.133   8.855
 7563POPC   C1A27591  36.089  39.206   8.555
 7563POPC   D2A27592  36.104  39.275   8.255
 7563POPC   C3A27593  36.156  39.231   7.955
 7563POPC   C4A27594  36.177  39.183   7.655
 7563POPC   C1B27595  36.102  39.011   8.555
 7563POPC   C2B27596  36.153  39.001   8.255
 7563POPC   C3B27597  36.105  38.984   7.955
 7563POPC   C4B27598  36.176  38.984   7.655
 7564POPC   NC327599  41.605  40.032   9.455
 7564POPC   PO427600  41.540  40.046   9.155
 7564POPC   GL127601  41.531  39.996   8.855
 7564POPC   GL227602  41.638  39.981   8.855
 7564POPC   C1A27603  41.568  39.962   8.555
 7564POPC   D2A27604  41.550  40.047   8.255
 7564POPC   C3A27605  41.597  39.968   7.955
 7564POPC   C4A27606  41.550  40.042   7.655
 7564POPC   C1B27607  41.783  39.919   8.555
 7564POPC   C2B27608  41.760  39.945   8.255
 7564POPC   C3B27609  41.811  39.919   7.955
 7564POPC   C4B27610  41.777  39.863   7.655
 7565POPC   NC327611  19.844  10.567   9.455
 7565POPC   PO427612  19.818  10.492   9.155
 7565POPC   GL127613  19.860  10.545   8.855
 7565POPC   GL227614  19.749  10.383   8.855
 7565POPC   C1A27615  19.798  10.479   8.555
 7565POPC   D2A27616  19.829  10.545   8.255
 7565POPC   C3A27617  19.812  10.535   7.955
 7565POPC   C4A27618  19.794  10.548   7.655
 7565POPC   C1B27619  19.707  10.268   8.555
 7565POPC   C2B27620  19.717  10.314   8.255
 7565POPC   C3B27621  19.682  10.277   7.955
 7565POPC   C4B27622  19.719  10.327   7.655
 7566POPC   NC327623  31.480  11.273   9.455
 7566POPC   PO427624  31.507  11.253   9.155
 7566POPC   GL127625  31.517  11.303   8.855
 7566POPC   GL227626  31.561  11.383   8.855
 7566POPC   C1A27627  31.496  11.336   8.555
 7566POPC   D2A27628  31.454  11.350   8.255
 7566POPC   C3A27629  31.459  11.271   7.955
 7566POPC   C4A27630  31.473  11.268   7.655
 7566POPC   C1B27631  31.669  11.459   8.555
 7566POPC   C2B27632  31.612  11.499   8.255
 7566POPC   C3B27633  31.665  11.492   7.955
 7566POPC   C4B27634  31.667  11.450   7.655
 7567POPC   NC327635   7.396  38.491   9.455
 7567POPC   PO427636   7.460  38.463   9.155
 7567POPC   GL127637   7.466  38.408   8.855
 7567POPC   GL227638   7.522  38.477   8.855
 7567POPC   C1A27639   7.397  38.485   8.555
 7567POPC   D2A27640   7.379  38.410   8.255
 7567POPC   C3A27641   7.426  38.485   7.955
 7567POPC   C4A27642   7.407  38.447   7.655
 7567POPC   C1B27643   7.604  38.563   8.555
 7567POPC   C2B27644   7.679  38.574   8.255
 7567POPC   C3B27645   7.603  38.583   7.955
 7567POPC   C4B27646   7.645  38.544   7.655
 7568POPC   NC327647  36.093  29.185   9.455
 7568POPC   PO427648  36.132  29.143   9.155
 7568POPC   GL127649  36.102  29.096   8.855
 7568POPC   GL227650  36.291  29.148   8.855
 7568POPC   C1A27651  36.146  29.189   8.555
 7568POPC   D2A27652  36.115  29.125   8.255
 7568POPC   C3A27653  36.122  29.184   7.955
 7568POPC   C4A27654  36.161  29.174   7.655
 7568POPC   C1B27655  36.322  29.261   8.555
 7568POPC   C2B27656  36.386  29.203   8.255
 7568POPC   C3B27657  36.341  29.173   7.955
 7568POPC   C4B27658  36.337  29.244   7.655
 7569POPC   NC327659   5.873  20.607   9.455
 7569POPC   PO427660   5.841  20.636   9.155
 7569POPC   GL127661   5.863  20.656   8.855
 7569POPC   GL227662   6.003  20.560   8.855
 7569POPC   C1A27663   5.847  20.576   8.555
 7569POPC   D2A27664   5.904  20.643   8.255
 7569POPC   C3A27665   5.917  20.610   7.955
 7569POPC   C4A27666   5.872  20.592   7.655
 7569POPC   C1B27667   6.091  20.436   8.555
 7569POPC   C2B27668   6.103  20.478   8.255
 7569POPC   C3B27669   6.028  20.418   7.955
 7569POPC   C4B27670   6.025  20.426   7.655
 7570POPC   NC327671   5.138   1.954   9.455
 7570POPC   PO427672   5.107   2.001   9.155
 7570POPC   GL127673   5.048   1.949   8.855
 7570POPC   GL227674   5.089   1.878   8.855
 7570POPC   C1A27675   5.078   2.023   8.555
 7570POPC   D2A27676   5.047   1.967   8.255
 7570POPC   C3A27677   5.107   2.004   7.955
 7570POPC   C4A27678   5.140   2.012   7.655
 7570POPC   C1B27679   5.030   1.747   8.555
 7570POPC   C2B27680   5.082   1.760   8.255
 7570POPC   C3B27681   5.071   1.693   7.955
 7570POPC   C4B27682   5.034   1.707   7.655
 7571POPC   NC327683   2.779  41.549   9.455
 7571POPC   PO427684   2.814  41.550   9.155
 7571POPC   GL127685   2.805  41.520   8.855
 7571POPC   GL227686   2.831  41.720   8.855
 7571POPC   C1A27687   2.731  41.551   8.555
 7571POPC   D2A27688   2.806  41.533   8.255
 7571POPC   C3A27689   2.778  41.510   7.955
 7571POPC   C4A27690   2.788  41.534   7.655
 7571POPC   C1B27691   2.860  41.845   8.555
 7571POPC   C2B27692   2.803  41.820   8.255
 7571POPC   C3B27693   2.839  41.775   7.955
 7571POPC   C4B27694   2.822  41.837   7.655
 7572POPC   NC327695  13.585   2.024   9.455
 7572POPC   PO427696  13.660   1.949   9.155
 7572POPC   GL127697  13.651   1.957   8.855
 7572POPC   GL227698  13.649   1.819   8.855
 7572POPC   C1A27699  13.621   2.007   8.555
 7572POPC   D2A27700  13.629   1.943   8.255
 7572POPC   C3A27701  13.581   2.016   7.955
 7572POPC   C4A27702  13.672   2.040   7.655
 7572POPC   C1B27703  13.590   1.781   8.555
 7572POPC   C2B27704  13.583   1.703   8.255
 7572POPC   C3B27705  13.624   1.745   7.955
 7572POPC   C4B27706  13.627   1.756   7.655
 7573POPC   NC327707  25.237   2.738   9.455
 7573POPC   PO427708  25.241   2.793   9.155
 7573POPC   GL127709  25.242   2.782   8.855
 7573POPC   GL227710  25.179   2.708   8.855
 7573POPC   C1A27711  25.279   2.743   8.555
 7573POPC   D2A27712  25.289   2.797   8.255
 7573POPC   C3A27713  25.267   2.800   7.955
 7573POPC   C4A27714  25.234   2.735   7.655
 7573POPC   C1B27715  25.075   2.628   8.555
 7573POPC   C2B27716  25.071   2.680   8.255
 7573POPC   C3B27717  25.038   2.684   7.955
 7573POPC   C4B27718  25.067   2.635   7.655
 7574POPC   NC327719   8.980  42.376   9.455
 7574POPC   PO427720   8.938  42.338   9.155
 7574POPC   GL127721   8.997  42.343   8.855
 7574POPC   GL227722   9.002  42.468   8.855
 7574POPC   C1A27723   9.015  42.324   8.555
 7574POPC   D2A27724   8.983  42.292   8.255
 7574POPC   C3A27725   8.973  42.324   7.955
 7574POPC   C4A27726   8.951  42.337   7.655
 7574POPC   C1B27727   8.990  42.582   8.555
 7574POPC   C2B27728   8.938  42.601   8.255
 7574POPC   C3B27729   8.935  42.583   7.955
 7574POPC   C4B27730   8.906  42.615   7.655
 7575POPC   NC327731  13.603  22.151   9.455
 7575POPC   PO427732  13.625  22.123   9.155
 7575POPC   GL127733  13.642  22.187   8.855
 7575POPC   GL227734  13.531  22.296   8.855
 7575POPC   C1A27735  13.624  22.164   8.555
 7575POPC   D2A27736  13.607  22.207   8.255
 7575POPC   C3A27737  13.583  22.112   7.955
 7575POPC   C4A27738  13.589  22.130   7.655
 7575POPC   C1B27739  13.510  22.345   8.555
 7575POPC   C2B27740  13.442  22.331   8.255
 7575POPC   C3B27741  13.488  22.334   7.955
 7575POPC   C4B27742  13.519  22.367   7.655
 7576POPC   NC327743   5.852   6.628   9.455
 7576POPC   PO427744   5.863   6.665   9.155
 7576POPC   GL127745   5.827   6.659   8.855
 7576POPC   GL227746   5.866   6.800   8.855
 7576POPC   C1A27747   5.838   6.643   8.555
 7576POPC   D2A27748   5.863   6.609   8.255
 7576POPC   C3A27749   5.887   6.690   7.955
 7576POPC   C4A27750   5.883   6.680   7.655
 7576POPC   C1B27751   5.781   6.879   8.555
 7576POPC   C2B27752   5.803   6.869   8.255
 7576POPC   C3B27753   5.844   6.894   7.955
 7576POPC   C4B27754   5.785   6.935   7.655
 7577POPC   NC327755  32.216  36.925   9.455
 7577POPC   PO427756  32.264  36.914   9.155
 7577POPC   GL127757  32.249  36.926   8.855
 7577POPC   GL227758  32.301  36.857   8.855
 7577POPC   C1A27759  32.207  36.948   8.555
 7577POPC   D2A27760  32.224  36.939   8.255
 7577POPC   C3A27761  32.201  36.928   7.955
 7577POPC   C4A27762  32.267  36.900   7.655
 7577POPC   C1B27763  32.443  36.740   8.555
 7577POPC   C2B27764  32.467  36.703   8.255
 7577POPC   C3B27765  32.434  36.769   7.955
 7577POPC   C4B27766  32.464  36.698   7.655
 7578POPC   NC327767   7.389  37.704   9.455
 7578POPC   PO427768   7.390  37.652   9.155
 7578POPC   GL127769   7.468  37.715   8.855
 7578POPC   GL227770   7.318  37.557   8.855
 7578POPC   C1A27771   7.438  37.722   8.555
 7578POPC   D2A27772   7.390  37.701   8.255
 7578POPC   C3A27773   7.392  37.701   7.955
 7578POPC   C4A27774   7.419  37.698   7.655
 7578POPC   C1B27775   7.251  37.483   8.555
 7578POPC   C2B27776   7.245  37.510   8.255
 7578POPC   C3B27777   7.305  37.501   7.955
 7578POPC   C4B27778   7.305  37.443   7.655
 7579POPC   NC327779  15.179  27.639   9.455
 7579POPC   PO427780  15.166  27.584   9.155
 7579POPC   GL127781  15.181  27.561   8.855
 7579POPC   GL227782  15.310  27.707   8.855
 7579POPC   C1A27783  15.190  27.616   8.555
 7579POPC   D2A27784  15.145  27.612   8.255
 7579POPC   C3A27785  15.210  27.595   7.955
 7579POPC   C4A27786  15.143  27.608   7.655
 7579POPC   C1B27787  15.385  27.772   8.555
 7579POPC   C2B27788  15.373  27.804   8.255
 7579POPC   C3B27789  15.310  27.781   7.955
 7579POPC   C4B27790  15.380  27.812   7.655
 7580POPC   NC327791   6.618  41.518   9.455
 7580POPC   PO427792   6.648  41.557   9.155
 7580POPC   GL127793   6.649  41.599   8.855
 7580POPC   GL227794   6.633  41.409   8.855
 7580POPC   C1A27795   6.690  41.592   8.555
 7580POPC   D2A27796   6.610  41.534   8.255
 7580POPC   C3A27797   6.641  41.576   7.955
 7580POPC   C4A27798   6.661  41.528   7.655
 7580POPC   C1B27799   6.606  41.276   8.555
 7580POPC   C2B27800   6.621  41.268   8.255
 7580POPC   C3B27801   6.667  41.326   7.955
 7580POPC   C4B27802   6.592  41.306   7.655
 7581POPC   NC327803   3.494  43.856   9.455
 7581POPC   PO427804   3.550  43.842   9.155
 7581POPC   GL127805   3.583  43.918   8.855
 7581POPC   GL227806   3.393  43.936   8.855
 7581POPC   C1A27807   3.568  43.852   8.555
 7581POPC   D2A27808   3.520  43.893   8.255
 7581POPC   C3A27809   3.580  43.877   7.955
 7581POPC   C4A27810   3.500  43.851   7.655
 7581POPC   C1B27811   3.301  43.854   8.555
 7581POPC   C2B27812   3.246  43.881   8.255
 7581POPC   C3B27813   3.296  43.854   7.955
 7581POPC   C4B27814   3.328  43.924   7.655
 7582POPC   NC327815  34.607  44.649   9.455
 7582POPC   PO427816  34.567  44.619   9.155
 7582POPC   GL127817  34.561  44.682   8.855
 7582POPC   GL227818  34.541  44.558   8.855
 7582POPC   C1A27819  34.558  44.702   8.555
 7582POPC   D2A27820  34.539  44.622   8.255
 7582POPC   C3A27821  34.534  44.665   7.955
 7582POPC   C4A27822  34.622  44.646   7.655
 7582POPC   C1B27823  34.461  44.429   8.555
 7582POPC   C2B27824  34.445  44.403   8.255
 7582POPC   C3B27825  34.453  44.456   7.955
 7582POPC   C4B27826  34.404  44.411   7.655
 7583POPC   NC327827   2.765  22.967   9.455
 7583POPC   PO427828   2.773  22.958   9.155
 7583POPC   GL127829   2.775  22.987   8.855
 7583POPC   GL227830   2.909  22.969   8.855
 7583POPC   C1A27831   2.724  22.961   8.555
 7583POPC   D2A27832   2.769  22.930   8.255
 7583POPC   C3A27833   2.793  22.957   7.955
 7583POPC   C4A27834   2.800  22.950   7.655
 7583POPC   C1B27835   2.981  23.016   8.555
 7583POPC   C2B27836   3.016  23.058   8.255
 7583POPC   C3B27837   3.027  23.067   7.955
 7583POPC   C4B27838   2.949  23.045   7.655
 7584POPC   NC327839  10.479   9.704   9.455
 7584POPC   PO427840  10.561   9.701   9.155
 7584POPC   GL127841  10.513   9.750   8.855
 7584POPC   GL227842  10.612   9.790   8.855
 7584POPC   C1A27843  10.542   9.784   8.555
 7584POPC   D2A27844  10.504   9.719   8.255
 7584POPC   C3A27845  10.478   9.722   7.955
 7584POPC   C4A27846  10.523   9.728   7.655
 7584POPC   C1B27847  10.730   9.961   8.555
 7584POPC   C2B27848  10.695   9.919   8.255
 7584POPC   C3B27849  10.730   9.949   7.955
 7584POPC   C4B27850  10.754   9.929   7.655
 7585POPC   NC327851  39.242  10.501   9.455
 7585POPC   PO427852  39.278  10.531   9.155
 7585POPC   GL127853  39.256  10.519   8.855
 7585POPC   GL227854  39.239  10.392   8.855
 7585POPC   C1A27855  39.217  10.555   8.555
 7585POPC   D2A27856  39.264  10.520   8.255
 7585POPC   C3A27857  39.259  10.499   7.955
 7585POPC   C4A27858  39.223  10.486   7.655
 7585POPC   C1B27859  39.226  10.321   8.555
 7585POPC   C2B27860  39.229  10.253   8.255
 7585POPC   C3B27861  39.281  10.314   7.955
 7585POPC   C4B27862  39.214  10.236   7.655
 7586POPC   NC327863  31.446  36.134   9.455
 7586POPC   PO427864  31.430  36.174   9.155
 7586POPC   GL127865  31.522  36.097   8.855
 7586POPC   GL227866  31.588  36.117   8.855
 7586POPC   C1A27867  31.504  36.122   8.555
 7586POPC   D2A27868  31.512  36.156   8.255
 7586POPC   C3A27869  31.465  36.090   7.955
 7586POPC   C4A27870  31.474  36.177   7.655
 7586POPC   C1B27871  31.676  36.082   8.555
 7586POPC   C2B27872  31.696  36.074   8.255
 7586POPC   C3B27873  31.667  36.006   7.955
 7586POPC   C4B27874  31.682  36.043   7.655
 7587POPC   NC327875  20.598  33.845   9.455
 7587POPC   PO427876  20.587  33.840   9.155
 7587POPC   GL127877  20.590  33.795   8.855
 7587POPC   GL227878  20.687  33.681   8.855
 7587POPC   C1A27879  20.585  33.783   8.555
 7587POPC   D2A27880  20.579  33.833   8.255
 7587POPC   C3A27881  20.654  33.779   7.955
 7587POPC   C4A27882  20.571  33.836   7.655
 7587POPC   C1B27883  20.811  33.621   8.555
 7587POPC   C2B27884  20.765  33.613   8.255
 7587POPC   C3B27885  20.856  33.693   7.955
 7587POPC   C4B27886  20.825  33.653   7.655
 7588POPC   NC327887  36.873  13.618   9.455
 7588POPC   PO427888  36.913  13.595   9.155
 7588POPC   GL127889  36.881  13.588   8.855
 7588POPC   GL227890  36.867  13.760   8.855
 7588POPC   C1A27891  36.881  13.597   8.555
 7588POPC   D2A27892  36.871  13.637   8.255
 7588POPC   C3A27893  36.855  13.602   7.955
 7588POPC   C4A27894  36.900  13.578   7.655
 7588POPC   C1B27895  36.884  13.881   8.555
 7588POPC   C2B27896  36.904  13.862   8.255
 7588POPC   C3B27897  36.831  13.857   7.955
 7588POPC   C4B27898  36.913  13.858   7.655
 7589POPC   NC327899   6.678  10.477   9.455
 7589POPC   PO427900   6.652  10.537   9.155
 7589POPC   GL127901   6.671  10.499   8.855
 7589POPC   GL227902   6.607  10.678   8.855
 7589POPC   C1A27903   6.617  10.543   8.555
 7589POPC   D2A27904   6.633  10.531   8.255
 7589POPC   C3A27905   6.637  10.572   7.955
 7589POPC   C4A27906   6.654  10.546   7.655
 7589POPC   C1B27907   6.577  10.756   8.555
 7589POPC   C2B27908   6.626  10.747   8.255
 7589POPC   C3B27909   6.609  10.798   7.955
 7589POPC   C4B27910   6.589  10.780   7.655
 7590POPC   NC327911  31.460  20.611   9.455
 7590POPC   PO427912  31.460  20.612   9.155
 7590POPC   GL127913  31.455  20.599   8.855
 7590POPC   GL227914  31.385  20.609   8.855
 7590POPC   C1A27915  31.495  20.569   8.555
 7590POPC   D2A27916  31.424  20.566   8.255
 7590POPC   C3A27917  31.459  20.577   7.955
 7590POPC   C4A27918  31.458  20.616   7.655
 7590POPC   C1B27919  31.274  20.683   8.555
 7590POPC   C2B27920  31.204  20.729   8.255
 7590POPC   C3B27921  31.245  20.711   7.955
 7590POPC   C4B27922  31.274  20.674   7.655
 7591POPC   NC327923  10.559  29.141   9.455
 7591POPC   PO427924  10.567  29.120   9.155
 7591POPC   GL127925  10.509  29.107   8.855
 7591POPC   GL227926  10.505  29.309   8.855
 7591POPC   C1A27927  10.568  29.128   8.555
 7591POPC   D2A27928  10.485  29.122   8.255
 7591POPC   C3A27929  10.535  29.177   7.955
 7591POPC   C4A27930  10.533  29.133   7.655
 7591POPC   C1B27931  10.449  29.396   8.555
 7591POPC   C2B27932  10.391  29.395   8.255
 7591POPC   C3B27933  10.467  29.366   7.955
 7591POPC   C4B27934  10.414  29.382   7.655
 7592POPC   NC327935  24.518  33.010   9.455
 7592POPC   PO427936  24.503  33.071   9.155
 7592POPC   GL127937  24.486  33.053   8.855
 7592POPC   GL227938  24.634  32.968   8.855
 7592POPC   C1A27939  24.506  33.052   8.555
 7592POPC   D2A27940  24.499  32.987   8.255
 7592POPC   C3A27941  24.535  33.021   7.955
 7592POPC   C4A27942  24.523  32.984   7.655
 7592POPC   C1B27943  24.668  32.876   8.555
 7592POPC   C2B27944  24.678  32.926   8.255
 7592POPC   C3B27945  24.741  32.936   7.955
 7592POPC   C4B27946  24.685  32.877   7.655
 7593POPC   NC327947  11.291  12.039   9.455
 7593POPC   PO427948  11.289  12.070   9.155
 7593POPC   GL127949  11.342  12.074   8.855
 7593POPC   GL227950  11.233  12.067   8.855
 7593POPC   C1A27951  11.345  12.086   8.555
 7593POPC   D2A27952  11.305  12.041   8.255
 7593POPC   C3A27953  11.259  12.077   7.955
 7593POPC   C4A27954  11.258  12.074   7.655
 7593POPC   C1B27955  11.102  12.015   8.555
 7593POPC   C2B27956  11.093  11.927   8.255
 7593POPC   C3B27957  11.085  11.999   7.955
 7593POPC   C4B27958  11.112  11.977   7.655
 7594POPC   NC327959   2.753  28.351   9.455
 7594POPC   PO427960   2.738  28.400   9.155
 7594POPC   GL127961   2.815  28.416   8.855
 7594POPC   GL227962   2.911  28.434   8.855
 7594POPC   C1A27963   2.809  28.359   8.555
 7594POPC   D2A27964   2.770  28.333   8.255
 7594POPC   C3A27965   2.799  28.372   7.955
 7594POPC   C4A27966   2.787  28.372   7.655
 7594POPC   C1B27967   3.015  28.390   8.555
 7594POPC   C2B27968   2.993  28.388   8.255
 7594POPC   C3B27969   3.051  28.404   7.955
 7594POPC   C4B27970   3.058  28.412   7.655
 7595POPC   NC327971  26.004  26.062   9.455
 7595POPC   PO427972  25.998  26.044   9.155
 7595POPC   GL127973  26.066  25.999   8.855
 7595POPC   GL227974  25.920  25.933   8.855
 7595POPC   C1A27975  26.037  25.999   8.555
 7595POPC   D2A27976  26.027  26.052   8.255
 7595POPC   C3A27977  26.072  26.054   7.955
 7595POPC   C4A27978  26.042  26.059   7.655
 7595POPC   C1B27979  25.889  25.871   8.555
 7595POPC   C2B27980  25.809  25.913   8.255
 7595POPC   C3B27981  25.798  25.920   7.955
 7595POPC   C4B27982  25.849  25.919   7.655
 7596POPC   NC327983   3.575   0.410   9.455
 7596POPC   PO427984   3.522   0.446   9.155
 7596POPC   GL127985   3.522   0.402   8.855
 7596POPC   GL227986   3.379   0.392   8.855
 7596POPC   C1A27987   3.542   0.452   8.555
 7596POPC   D2A27988   3.588   0.465   8.255
 7596POPC   C3A27989   3.546   0.486   7.955
 7596POPC   C4A27990   3.505   0.451   7.655
 7596POPC   C1B27991   3.327   0.282   8.555
 7596POPC   C2B27992   3.298   0.286   8.255
 7596POPC   C3B27993   3.342   0.343   7.955
 7596POPC   C4B27994   3.279   0.347   7.655
 7597POPC   NC327995   0.389  19.848   9.455
 7597POPC   PO427996   0.468  19.834   9.155
 7597POPC   GL127997   0.443  19.809   8.855
 7597POPC   GL227998   0.344  19.921   8.855
 7597POPC   C1A27999   0.483  19.856   8.555
 7597POPC   D2A28000   0.427  19.821   8.255
 7597POPC   C3A28001   0.439  19.843   7.955
 7597POPC   C4A28002   0.402  19.793   7.655
 7597POPC   C1B28003   0.289  20.006   8.555
 7597POPC   C2B28004   0.261  20.058   8.255
 7597POPC   C3B28005   0.271  20.060   7.955
 7597POPC   C4B28006   0.254  20.031   7.655
 7598POPC   NC328007  35.361   4.367   9.455
 7598POPC   PO428008  35.343   4.330   9.155
 7598POPC   GL128009  35.385   4.274   8.855
 7598POPC   GL228010  35.270   4.189   8.855
 7598POPC   C1A28011  35.303   4.281   8.555
 7598POPC   D2A28012  35.340   4.331   8.255
 7598POPC   C3A28013  35.332   4.336   7.955
 7598POPC   C4A28014  35.396   4.269   7.655
 7598POPC   C1B28015  35.216   4.086   8.555
 7598POPC   C2B28016  35.205   4.083   8.255
 7598POPC   C3B28017  35.210   4.131   7.955
 7598POPC   C4B28018  35.210   4.090   7.655
 7599POPC   NC328019   4.286   7.418   9.455
 7599POPC   PO428020   4.298   7.388   9.155
 7599POPC   GL128021   4.345   7.444   8.855
 7599POPC   GL228022   4.455   7.493   8.855
 7599POPC   C1A28023   4.337   7.393   8.555
 7599POPC   D2A28024   4.299   7.453   8.255
 7599POPC   C3A28025   4.293   7.392   7.955
 7599POPC   C4A28026   4.332   7.410   7.655
 7599POPC   C1B28027   4.494   7.590   8.555
 7599POPC   C2B28028   4.555   7.512   8.255
 7599POPC   C3B28029   4.531   7.590   7.955
 7599POPC   C4B28030   4.502   7.507   7.655
 7600POPC   NC328031   5.851   2.764   9.455
 7600POPC   PO428032   5.894   2.732   9.155
 7600POPC   GL128033   5.897   2.776   8.855
 7600POPC   GL228034   5.803   2.714   8.855
 7600POPC   C1A28035   5.844   2.782   8.555
 7600POPC   D2A28036   5.885   2.770   8.255
 7600POPC   C3A28037   5.856   2.812   7.955
 7600POPC   C4A28038   5.874   2.742   7.655
 7600POPC   C1B28039   5.764   2.525   8.555
 7600POPC   C2B28040   5.743   2.603   8.255
 7600POPC   C3B28041   5.703   2.585   7.955
 7600POPC   C4B28042   5.755   2.614   7.655
 7601POPC   NC328043  34.541  32.275   9.455
 7601POPC   PO428044  34.622  32.266   9.155
 7601POPC   GL128045  34.550  32.239   8.855
 7601POPC   GL228046  34.611  32.337   8.855
 7601POPC   C1A28047  34.589  32.264   8.555
 7601POPC   D2A28048  34.529  32.277   8.255
 7601POPC   C3A28049  34.610  32.214   7.955
 7601POPC   C4A28050  34.583  32.257   7.655
 7601POPC   C1B28051  34.756  32.509   8.555
 7601POPC   C2B28052  34.704  32.412   8.255
 7601POPC   C3B28053  34.705  32.476   7.955
 7601POPC   C4B28054  34.723  32.496   7.655
 7602POPC   NC328055  11.297   5.858   9.455
 7602POPC   PO428056  11.283   5.837   9.155
 7602POPC   GL128057  11.345   5.876   8.855
 7602POPC   GL228058  11.461   5.870   8.855
 7602POPC   C1A28059  11.333   5.849   8.555
 7602POPC   D2A28060  11.323   5.866   8.255
 7602POPC   C3A28061  11.330   5.820   7.955
 7602POPC   C4A28062  11.342   5.833   7.655
 7602POPC   C1B28063  11.510   5.765   8.555
 7602POPC   C2B28064  11.576   5.813   8.255
 7602POPC   C3B28065  11.569   5.753   7.955
 7602POPC   C4B28066  11.530   5.818   7.655
 7603POPC   NC328067  17.470  27.635   9.455
 7603POPC   PO428068  17.467  27.642   9.155
 7603POPC   GL128069  17.538  27.604   8.855
 7603POPC   GL228070  17.601  27.474   8.855
 7603POPC   C1A28071  17.487  27.591   8.555
 7603POPC   D2A28072  17.548  27.559   8.255
 7603POPC   C3A28073  17.472  27.641   7.955
 7603POPC   C4A28074  17.521  27.562   7.655
 7603POPC   C1B28075  17.654  27.445   8.555
 7603POPC   C2B28076  17.698  27.431   8.255
 7603POPC   C3B28077  17.687  27.402   7.955
 7603POPC   C4B28078  17.617  27.426   7.655
 7604POPC   NC328079  33.004  15.186   9.455
 7604POPC   PO428080  32.983  15.195   9.155
 7604POPC   GL128081  32.980  15.186   8.855
 7604POPC   GL228082  32.991  15.246   8.855
 7604POPC   C1A28083  33.038  15.210   8.555
 7604POPC   D2A28084  33.016  15.182   8.255
 7604POPC   C3A28085  33.065  15.149   7.955
 7604POPC   C4A28086  33.017  15.141   7.655
 7604POPC   C1B28087  32.875  15.357   8.555
 7604POPC   C2B28088  32.919  15.344   8.255
 7604POPC   C3B28089  32.879  15.396   7.955
 7604POPC   C4B28090  32.886  15.383   7.655
 7605POPC   NC328091  38.482  29.951   9.455
 7605POPC   PO428092  38.460  29.932   9.155
 7605POPC   GL128093  38.445  29.916   8.855
 7605POPC   GL228094  38.465  30.078   8.855
 7605POPC   C1A28095  38.459  29.936   8.555
 7605POPC   D2A28096  38.422  29.917   8.255
 7605POPC   C3A28097  38.496  29.897   7.955
 7605POPC   C4A28098  38.467  29.904   7.655
 7605POPC   C1B28099  38.536  30.143   8.555
 7605POPC   C2B28100  38.563  30.185   8.255
 7605POPC   C3B28101  38.574  30.168   7.955
 7605POPC   C4B28102  38.562  30.202   7.655
 7606POPC   NC328103   8.173   2.750   9.455
 7606POPC   PO428104   8.199   2.728   9.155
 7606POPC   GL128105   8.160   2.779   8.855
 7606POPC   GL228106   8.338   2.753   8.855
 7606POPC   C1A28107   8.187   2.746   8.555
 7606POPC   D2A28108   8.235   2.733   8.255
 7606POPC   C3A28109   8.217   2.803   7.955
 7606POPC   C4A28110   8.163   2.792   7.655
 7606POPC   C1B28111   8.398   2.716   8.555
 7606POPC   C2B28112   8.414   2.736   8.255
 7606POPC   C3B28113   8.496   2.741   7.955
 7606POPC   C4B28114   8.451   2.744   7.655
 7607POPC   NC328115  11.274  27.588   9.455
 7607POPC   PO428116  11.326  27.592   9.155
 7607POPC   GL128117  11.350  27.587   8.855
 7607POPC   GL228118  11.145  27.622   8.855
 7607POPC   C1A28119  11.303  27.581   8.555
 7607POPC   D2A28120  11.324  27.576   8.255
 7607POPC   C3A28121  11.317  27.551   7.955
 7607POPC   C4A28122  11.285  27.573   7.655
 7607POPC   C1B28123  11.095  27.621   8.555
 7607POPC   C2B28124  11.055  27.660   8.255
 7607POPC   C3B28125  11.050  27.658   7.955
 7607POPC   C4B28126  11.035  27.654   7.655
 7608POPC   NC328127  27.631  15.162   9.455
 7608POPC   PO428128  27.562  15.165   9.155
 7608POPC   GL128129  27.581  15.143   8.855
 7608POPC   GL228130  27.450  15.186   8.855
 7608POPC   C1A28131  27.615  15.145   8.555
 7608POPC   D2A28132  27.578  15.229   8.255
 7608POPC   C3A28133  27.563  15.162   7.955
 7608POPC   C4A28134  27.636  15.166   7.655
 7608POPC   C1B28135  27.366  15.183   8.555
 7608POPC   C2B28136  27.399  15.218   8.255
 7608POPC   C3B28137  27.355  15.207   7.955
 7608POPC   C4B28138  27.336  15.218   7.655
 7609POPC   NC328139  32.285  27.544   9.455
 7609POPC   PO428140  32.296  27.621   9.155
 7609POPC   GL128141  32.273  27.602   8.855
 7609POPC   GL228142  32.354  27.654   8.855
 7609POPC   C1A28143  32.296  27.633   8.555
 7609POPC   D2A28144  32.237  27.575   8.255
 7609POPC   C3A28145  32.295  27.594   7.955
 7609POPC   C4A28146  32.202  27.552   7.655
 7609POPC   C1B28147  32.358  27.822   8.555
 7609POPC   C2B28148  32.377  27.827   8.255
 7609POPC   C3B28149  32.354  27.773   7.955
 7609POPC   C4B28150  32.393  27.840   7.655
 7610POPC   NC328151  43.148   2.756   9.455
 7610POPC   PO428152  43.094   2.751   9.155
 7610POPC   GL128153  43.105   2.767   8.855
 7610POPC   GL228154  43.193   2.856   8.855
 7610POPC   C1A28155  43.128   2.775   8.555
 7610POPC   D2A28156  43.064   2.785   8.255
 7610POPC   C3A28157  43.145   2.744   7.955
 7610POPC   C4A28158  43.075   2.751   7.655
 7610POPC   C1B28159  43.181   2.987   8.555
 7610POPC   C2B28160  43.239   3.015   8.255
 7610POPC   C3B28161  43.233   2.987   7.955
 7610POPC   C4B28162  43.242   2.997   7.655
 7611POPC   NC328163  41.517  14.356   9.455
 7611POPC   PO428164  41.525  14.402   9.155
 7611POPC   GL128165  41.575  14.433   8.855
 7611POPC   GL228166  41.491  14.515   8.855
 7611POPC   C1A28167  41.570  14.432   8.555
 7611POPC   D2A28168  41.572  14.387   8.255
 7611POPC   C3A28169  41.596  14.425   7.955
 7611POPC   C4A28170  41.510  14.367   7.655
 7611POPC   C1B28171  41.359  14.523   8.555
 7611POPC   C2B28172  41.317  14.581   8.255
 7611POPC   C3B28173  41.341  14.609   7.955
 7611POPC   C4B28174  41.381  14.569   7.655
 7612POPC   NC328175  15.982  22.199   9.455
 7612POPC   PO428176  15.946  22.199   9.155
 7612POPC   GL128177  15.929  22.171   8.855
 7612POPC   GL228178  15.852  22.086   8.855
 7612POPC   C1A28179  15.970  22.171   8.555
 7612POPC   D2A28180  15.974  22.184   8.255
 7612POPC   C3A28181  15.943  22.187   7.955
 7612POPC   C4A28182  15.966  22.156   7.655
 7612POPC   C1B28183  15.791  22.006   8.555
 7612POPC   C2B28184  15.797  21.923   8.255
 7612POPC   C3B28185  15.797  21.928   7.955
 7612POPC   C4B28186  15.789  21.977   7.655
 7613POPC   NC328187   9.011  12.880   9.455
 7613POPC   PO428188   9.002  12.898   9.155
 7613POPC   GL128189   8.997  12.807   8.855
 7613POPC   GL228190   9.008  13.002   8.855
 7613POPC   C1A28191   8.984  12.860   8.555
 7613POPC   D2A28192   9.011  12.830   8.255
 7613POPC   C3A28193   8.952  12.866   7.955
 7613POPC   C4A28194   9.020  12.854   7.655
 7613POPC   C1B28195   9.075  13.033   8.555
 7613POPC   C2B28196   9.140  13.108   8.255
 7613POPC   C3B28197   9.050  13.030   7.955
 7613POPC   C4B28198   9.053  13.107   7.655
 7614POPC   NC328199  39.183  35.397   9.455
 7614POPC   PO428200  39.241  35.364   9.155
 7614POPC   GL128201  39.206  35.367   8.855
 7614POPC   GL228202  39.076  35.422   8.855
 7614POPC   C1A28203  39.239  35.310   8.555
 7614POPC   D2A28204  39.213  35.313   8.255
 7614POPC   C3A28205  39.238  35.332   7.955
 7614POPC   C4A28206  39.241  35.321   7.655
 7614POPC   C1B28207  39.051  35.430   8.555
 7614POPC   C2B28208  38.994  35.457   8.255
 7614POPC   C3B28209  39.037  35.495   7.955
 7614POPC   C4B28210  39.000  35.475   7.655
 7615POPC   NC328211  40.021   3.542   9.455
 7615POPC   PO428212  39.987   3.525   9.155
 7615POPC   GL128213  39.963   3.550   8.855
 7615POPC   GL228214  40.130   3.479   8.855
 7615POPC   C1A28215  39.970   3.529   8.555
 7615POPC   D2A28216  40.022   3.538   8.255
 7615POPC   C3A28217  39.963   3.509   7.955
 7615POPC   C4A28218  39.989   3.533   7.655
 7615POPC   C1B28219  40.211   3.537   8.555
 7615POPC   C2B28220  40.209   3.542   8.255
 7615POPC   C3B28221  40.294   3.486   7.955
 7615POPC   C4B28222  40.301   3.534   7.655
 7616POPC   NC328223   9.742  44.706   9.455
 7616POPC   PO428224   9.787  44.664   9.155
 7616POPC   GL128225   9.703  44.684   8.855
 7616POPC   GL228226   9.817  44.566   8.855
 7616POPC   C1A28227   9.773  44.692   8.555
 7616POPC   D2A28228   9.733  44.698   8.255
 7616POPC   C3A28229   9.777  44.675   7.955
 7616POPC   C4A28230   9.725  44.665   7.655
 7616POPC   C1B28231   9.908  44.495   8.555
 7616POPC   C2B28232   9.958  44.475   8.255
 7616POPC   C3B28233   9.936  44.517   7.955
 7616POPC   C4B28234   9.947  44.467   7.655
 7617POPC   NC328235  34.552   8.219   9.455
 7617POPC   PO428236  34.588   8.179   9.155
 7617POPC   GL128237  34.613   8.204   8.855
 7617POPC   GL228238  34.651   8.327   8.855
 7617POPC   C1A28239  34.580   8.220   8.555
 7617POPC   D2A28240  34.618   8.233   8.255
 7617POPC   C3A28241  34.547   8.160   7.955
 7617POPC   C4A28242  34.615   8.187   7.655
 7617POPC   C1B28243  34.750   8.361   8.555
 7617POPC   C2B28244  34.735   8.379   8.255
 7617POPC   C3B28245  34.775   8.328   7.955
 7617POPC   C4B28246  34.770   8.398   7.655
 7618POPC   NC328247   1.986   2.749   9.455
 7618POPC   PO428248   1.946   2.799   9.155
 7618POPC   GL128249   2.007   2.730   8.855
 7618POPC   GL228250   1.928   2.866   8.855
 7618POPC   C1A28251   2.033   2.722   8.555
 7618POPC   D2A28252   2.002   2.716   8.255
 7618POPC   C3A28253   1.971   2.782   7.955
 7618POPC   C4A28254   1.974   2.742   7.655
 7618POPC   C1B28255   1.872   2.962   8.555
 7618POPC   C2B28256   1.924   2.986   8.255
 7618POPC   C3B28257   1.893   2.943   7.955
 7618POPC   C4B28258   1.854   3.012   7.655
 7619POPC   NC328259   4.335  18.313   9.455
 7619POPC   PO428260   4.337  18.316   9.155
 7619POPC   GL128261   4.319  18.275   8.855
 7619POPC   GL228262   4.394  18.259   8.855
 7619POPC   C1A28263   4.305  18.317   8.555
 7619POPC   D2A28264   4.367  18.239   8.255
 7619POPC   C3A28265   4.304  18.295   7.955
 7619POPC   C4A28266   4.291  18.262   7.655
 7619POPC   C1B28267   4.580  18.181   8.555
 7619POPC   C2B28268   4.519  18.184   8.255
 7619POPC   C3B28269   4.510  18.143   7.955
 7619POPC   C4B28270   4.497  18.159   7.655
 7620POPC   NC328271   0.486  22.966   9.455
 7620POPC   PO428272   0.436  22.969   9.155
 7620POPC   GL128273   0.446  22.915   8.855
 7620POPC   GL228274   0.388  23.070   8.855
 7620POPC   C1A28275   0.483  22.920   8.555
 7620POPC   D2A28276   0.415  22.930   8.255
 7620POPC   C3A28277   0.442  22.896   7.955
 7620POPC   C4A28278   0.415  22.950   7.655
 7620POPC   C1B28279   0.265  23.082   8.555
 7620POPC   C2B28280   0.271  23.151   8.255
 7620POPC   C3B28281   0.241  23.162   7.955
 7620POPC   C4B28282   0.300  23.078   7.655
 7621POPC   NC328283  26.831   6.611   9.455
 7621POPC   PO428284  26.776   6.655   9.155
 7621POPC   GL128285  26.794   6.647   8.855
 7621POPC   GL228286  26.784   6.770   8.855
 7621POPC   C1A28287  26.798   6.618   8.555
 7621POPC   D2A28288  26.824   6.683   8.255
 7621POPC   C3A28289  26.814   6.663   7.955
 7621POPC   C4A28290  26.815   6.646   7.655
 7621POPC   C1B28291  26.731   6.911   8.555
 7621POPC   C2B28292  26.826   6.888   8.255
 7621POPC   C3B28293  26.750   6.858   7.955
 7621POPC   C4B28294  26.802   6.925   7.655
 7622POPC   NC328295  29.903  31.436   9.455
 7622POPC   PO428296  29.950  31.508   9.155
 7622POPC   GL128297  29.908  31.450   8.855
 7622POPC   GL228298  29.755  31.517   8.855
 7622POPC   C1A28299  29.935  31.479   8.555
 7622POPC   D2A28300  29.874  31.469   8.255
 7622POPC   C3A28301  29.965  31.468   7.955
 7622POPC   C4A28302  29.947  31.429   7.655
 7622POPC   C1B28303  29.687  31.438   8.555
 7622POPC   C2B28304  29.638  31.499   8.255
 7622POPC   C3B28305  29.646  31.507   7.955
 7622POPC   C4B28306  29.623  31.455   7.655
 7623POPC   NC328307  38.473  38.480   9.455
 7623POPC   PO428308  38.435  38.447   9.155
 7623POPC   GL128309  38.425  38.478   8.855
 7623POPC   GL228310  38.547  38.589   8.855
 7623POPC   C1A28311  38.439  38.451   8.555
 7623POPC   D2A28312  38.456  38.429   8.255
 7623POPC   C3A28313  38.461  38.428   7.955
 7623POPC   C4A28314  38.494  38.458   7.655
 7623POPC   C1B28315  38.590  38.671   8.555
 7623POPC   C2B28316  38.592  38.646   8.255
 7623POPC   C3B28317  38.586  38.667   7.955
 7623POPC   C4B28318  38.640  38.676   7.655
 7624POPC   NC328319  16.762  34.536   9.455
 7624POPC   PO428320  16.683  34.536   9.155
 7624POPC   GL128321  16.688  34.567   8.855
 7624POPC   GL228322  16.801  34.690   8.855
 7624POPC   C1A28323  16.713  34.551   8.555
 7624POPC   D2A28324  16.740  34.579   8.255
 7624POPC   C3A28325  16.713  34.558   7.955
 7624POPC   C4A28326  16.768  34.585   7.655
 7624POPC   C1B28327  16.850  34.815   8.555
 7624POPC   C2B28328  16.843  34.736   8.255
 7624POPC   C3B28329  16.883  34.786   7.955
 7624POPC   C4B28330  16.906  34.782   7.655
 7625POPC   NC328331  24.464  44.706   9.455
 7625POPC   PO428332  24.442  44.689   9.155
 7625POPC   GL128333  24.539  44.696   8.855
 7625POPC   GL228334  24.496  44.526   8.855
 7625POPC   C1A28335  24.464  44.650   8.555
 7625POPC   D2A28336  24.507  44.653   8.255
 7625POPC   C3A28337  24.515  44.660   7.955
 7625POPC   C4A28338  24.517  44.650   7.655
 7625POPC   C1B28339  24.539  44.384   8.555
 7625POPC   C2B28340  24.564  44.475   8.255
 7625POPC   C3B28341  24.584  44.393   7.955
 7625POPC   C4B28342  24.555  44.421   7.655
 7626POPC   NC328343  23.734  32.977   9.455
 7626POPC   PO428344  23.694  33.032   9.155
 7626POPC   GL128345  23.708  33.013   8.855
 7626POPC   GL228346  23.631  33.113   8.855
 7626POPC   C1A28347  23.723  33.020   8.555
 7626POPC   D2A28348  23.735  33.067   8.255
 7626POPC   C3A28349  23.760  33.035   7.955
 7626POPC   C4A28350  23.703  33.053   7.655
 7626POPC   C1B28351  23.456  33.140   8.555
 7626POPC   C2B28352  23.448  33.168   8.255
 7626POPC   C3B28353  23.458  33.101   7.955
 7626POPC   C4B28354  23.515  33.121   7.655
 7627POPC   NC328355  43.097   8.202   9.455
 7627POPC   PO428356  43.145   8.167   9.155
 7627POPC   GL128357  43.146   8.175   8.855
 7627POPC   GL228358  42.946   8.175   8.855
 7627POPC   C1A28359  43.088   8.219   8.555
 7627POPC   D2A28360  43.121   8.221   8.255
 7627POPC   C3A28361  43.106   8.200   7.955
 7627POPC   C4A28362  43.150   8.229   7.655
 7627POPC   C1B28363  42.849   8.104   8.555
 7627POPC   C2B28364  42.823   8.157   8.255
 7627POPC   C3B28365  42.870   8.150   7.955
 7627POPC   C4B28366  42.834   8.164   7.655
 7628POPC   NC328367  15.226   5.055   9.455
 7628POPC   PO428368  15.184   5.087   9.155
 7628POPC   GL128369  15.136   5.060   8.855
 7628POPC   GL228370  15.265   5.175   8.855
 7628POPC   C1A28371  15.160   5.139   8.555
 7628POPC   D2A28372  15.155   5.079   8.255
 7628POPC   C3A28373  15.147   5.073   7.955
 7628POPC   C4A28374  15.133   5.070   7.655
 7628POPC   C1B28375  15.381   5.141   8.555
 7628POPC   C2B28376  15.448   5.227   8.255
 7628POPC   C3B28377  15.458   5.159   7.955
 7628POPC   C4B28378  15.440   5.145   7.655
 7629POPC   NC328379  31.479  33.057   9.455
 7629POPC   PO428380  31.451  32.998   9.155
 7629POPC   GL128381  31.426  33.032   8.855
 7629POPC   GL228382  31.380  33.043   8.855
 7629POPC   C1A28383  31.514  33.034   8.555
 7629POPC   D2A28384  31.465  32.983   8.255
 7629POPC   C3A28385  31.425  33.067   7.955
 7629POPC   C4A28386  31.428  33.004   7.655
 7629POPC   C1B28387  31.210  33.125   8.555
 7629POPC   C2B28388  31.283  33.195   8.255
 7629POPC   C3B28389  31.239  33.122   7.955
 7629POPC   C4B28390  31.254  33.161   7.655
 7630POPC   NC328391  29.132  34.571   9.455
 7630POPC   PO428392  29.192  34.592   9.155
 7630POPC   GL128393  29.170  34.608   8.855
 7630POPC   GL228394  29.216  34.588   8.855
 7630POPC   C1A28395  29.159  34.553   8.555
 7630POPC   D2A28396  29.145  34.543   8.255
 7630POPC   C3A28397  29.145  34.541   7.955
 7630POPC   C4A28398  29.114  34.555   7.655
 7630POPC   C1B28399  29.346  34.647   8.555
 7630POPC   C2B28400  29.319  34.731   8.255
 7630POPC   C3B28401  29.321  34.661   7.955
 7630POPC   C4B28402  29.356  34.661   7.655
 7631POPC   NC328403  20.595  35.319   9.455
 7631POPC   PO428404  20.578  35.328   9.155
 7631POPC   GL128405  20.593  35.370   8.855
 7631POPC   GL228406  20.530  35.395   8.855
 7631POPC   C1A28407  20.606  35.389   8.555
 7631POPC   D2A28408  20.595  35.323   8.255
 7631POPC   C3A28409  20.651  35.401   7.955
 7631POPC   C4A28410  20.625  35.397   7.655
 7631POPC   C1B28411  20.401  35.544   8.555
 7631POPC   C2B28412  20.404  35.530   8.255
 7631POPC   C3B28413  20.421  35.495   7.955
 7631POPC   C4B28414  20.408  35.493   7.655
 7632POPC   NC328415  27.632  14.356   9.455
 7632POPC   PO428416  27.612  14.386   9.155
 7632POPC   GL128417  27.588  14.433   8.855
 7632POPC   GL228418  27.618  14.253   8.855
 7632POPC   C1A28419  27.543  14.406   8.555
 7632POPC   D2A28420  27.595  14.408   8.255
 7632POPC   C3A28421  27.624  14.367   7.955
 7632POPC   C4A28422  27.573  14.452   7.655
 7632POPC   C1B28423  27.598  14.185   8.555
 7632POPC   C2B28424  27.596  14.173   8.255
 7632POPC   C3B28425  27.620  14.201   7.955
 7632POPC   C4B28426  27.630  14.192   7.655
 7633POPC   NC328427  19.836   1.952   9.455
 7633POPC   PO428428  19.849   1.976   9.155
 7633POPC   GL128429  19.818   2.025   8.855
 7633POPC   GL228430  19.948   1.992   8.855
 7633POPC   C1A28431  19.822   2.024   8.555
 7633POPC   D2A28432  19.840   1.952   8.255
 7633POPC   C3A28433  19.816   2.011   7.955
 7633POPC   C4A28434  19.882   1.969   7.655
 7633POPC   C1B28435  20.078   2.092   8.555
 7633POPC   C2B28436  20.079   2.058   8.255
 7633POPC   C3B28437  20.126   2.079   7.955
 7633POPC   C4B28438  20.035   2.023   7.655
 7634POPC   NC328439  43.068  10.551   9.455
 7634POPC   PO428440  43.098  10.528   9.155
 7634POPC   GL128441  43.122  10.529   8.855
 7634POPC   GL228442  43.209  10.605   8.855
 7634POPC   C1A28443  43.116  10.559   8.555
 7634POPC   D2A28444  43.110  10.514   8.255
 7634POPC   C3A28445  43.140  10.478   7.955
 7634POPC   C4A28446  43.091  10.485   7.655
 7634POPC   C1B28447  43.312  10.711   8.555
 7634POPC   C2B28448  43.263  10.739   8.255
 7634POPC   C3B28449  43.311  10.674   7.955
 7634POPC   C4B28450  43.259  10.672   7.655
 7635POPC   NC328451  12.080  10.553   9.455
 7635POPC   PO428452  12.049  10.564   9.155
 7635POPC   GL128453  12.109  10.498   8.855
 7635POPC   GL228454  12.209  10.446   8.855
 7635POPC   C1A28455  12.068  10.568   8.555
 7635POPC   D2A28456  12.045  10.548   8.255
 7635POPC   C3A28457  12.027  10.528   7.955
 7635POPC   C4A28458  12.087  10.524   7.655
 7635POPC   C1B28459  12.269  10.426   8.555
 7635POPC   C2B28460  12.324  10.381   8.255
 7635POPC   C3B28461  12.323  10.437   7.955
 7635POPC   C4B28462  12.306  10.400   7.655
 7636POPC   NC328463   6.646   8.226   9.455
 7636POPC   PO428464   6.613   8.239   9.155
 7636POPC   GL128465   6.639   8.223   8.855
 7636POPC   GL228466   6.605   8.269   8.855
 7636POPC   C1A28467   6.658   8.232   8.555
 7636POPC   D2A28468   6.600   8.186   8.255
 7636POPC   C3A28469   6.690   8.159   7.955
 7636POPC   C4A28470   6.675   8.162   7.655
 7636POPC   C1B28471   6.455   8.367   8.555
 7636POPC   C2B28472   6.433   8.347   8.255
 7636POPC   C3B28473   6.511   8.375   7.955
 7636POPC   C4B28474   6.514   8.357   7.655
 7637POPC   NC328475  19.800  33.817   9.455
 7637POPC   PO428476  19.841  33.776   9.155
 7637POPC   GL128477  19.846  33.814   8.855
 7637POPC   GL228478  19.684  33.815   8.855
 7637POPC   C1A28479  19.787  33.789   8.555
 7637POPC   D2A28480  19.797  33.795   8.255
 7637POPC   C3A28481  19.812  33.764   7.955
 7637POPC   C4A28482  19.827  33.848   7.655
 7637POPC   C1B28483  19.559  33.853   8.555
 7637POPC   C2B28484  19.636  33.830   8.255
 7637POPC   C3B28485  19.572  33.907   7.955
 7637POPC   C4B28486  19.567  33.893   7.655
 7638POPC   NC328487  12.041  44.707   9.455
 7638POPC   PO428488  12.102  44.692   9.155
 7638POPC   GL128489  12.100  44.652   8.855
 7638POPC   GL228490  11.985  44.616   8.855
 7638POPC   C1A28491  12.079  44.704   8.555
 7638POPC   D2A28492  12.070  44.638   8.255
 7638POPC   C3A28493  12.056  44.630   7.955
 7638POPC   C4A28494  12.084  44.674   7.655
 7638POPC   C1B28495  11.827  44.616   8.555
 7638POPC   C2B28496  11.878  44.623   8.255
 7638POPC   C3B28497  11.833  44.613   7.955
 7638POPC   C4B28498  11.787  44.659   7.655
 7639POPC   NC328499  43.855   1.166   9.455
 7639POPC   PO428500  43.874   1.225   9.155
 7639POPC   GL128501  43.882   1.245   8.855
 7639POPC   GL228502  43.782   1.130   8.855
 7639POPC   C1A28503  43.868   1.190   8.555
 7639POPC   D2A28504  43.875   1.217   8.255
 7639POPC   C3A28505  43.842   1.228   7.955
 7639POPC   C4A28506  43.859   1.236   7.655
 7639POPC   C1B28507  43.674   1.134   8.555
 7639POPC   C2B28508  43.656   1.150   8.255
 7639POPC   C3B28509  43.640   1.138   7.955
 7639POPC   C4B28510  43.676   1.162   7.655
 7640POPC   NC328511  39.245  37.699   9.455
 7640POPC   PO428512  39.184  37.700   9.155
 7640POPC   GL128513  39.201  37.705   8.855
 7640POPC   GL228514  39.234  37.753   8.855
 7640POPC   C1A28515  39.192  37.664   8.555
 7640POPC   D2A28516  39.244  37.637   8.255
 7640POPC   C3A28517  39.195  37.726   7.955
 7640POPC   C4A28518  39.197  37.662   7.655
 7640POPC   C1B28519  39.197  37.940   8.555
 7640POPC   C2B28520  39.210  37.937   8.255
 7640POPC   C3B28521  39.180  37.957   7.955
 7640POPC   C4B28522  39.170  37.890   7.655
 7641POPC   NC328523  16.691  26.806   9.455
 7641POPC   PO428524  16.727  26.770   9.155
 7641POPC   GL128525  16.700  26.847   8.855
 7641POPC   GL228526  16.879  26.853   8.855
 7641POPC   C1A28527  16.740  26.866   8.555
 7641POPC   D2A28528  16.684  26.771   8.255
 7641POPC   C3A28529  16.737  26.805   7.955
 7641POPC   C4A28530  16.706  26.865   7.655
 7641POPC   C1B28531  16.971  26.841   8.555
 7641POPC   C2B28532  16.978  26.856   8.255
 7641POPC   C3B28533  17.005  26.858   7.955
 7641POPC   C4B28534  16.977  26.871   7.655
 7642POPC   NC328535  18.323  32.207   9.455
 7642POPC   PO428536  18.321  32.297   9.155
 7642POPC   GL128537  18.275  32.285   8.855
 7642POPC   GL228538  18.295  32.080   8.855
 7642POPC   C1A28539  18.292  32.240   8.555
 7642POPC   D2A28540  18.236  32.205   8.255
 7642POPC   C3A28541  18.262  32.279   7.955
 7642POPC   C4A28542  18.297  32.203   7.655
 7642POPC   C1B28543  18.307  32.026   8.555
 7642POPC   C2B28544  18.368  31.959   8.255
 7642POPC   C3B28545  18.326  32.043   7.955
 7642POPC   C4B28546  18.299  31.956   7.655
 7643POPC   NC328547  28.370   3.549   9.455
 7643POPC   PO428548  28.356   3.526   9.155
 7643POPC   GL128549  28.396   3.589   8.855
 7643POPC   GL228550  28.238   3.522   8.855
 7643POPC   C1A28551  28.350   3.495   8.555
 7643POPC   D2A28552  28.325   3.495   8.255
 7643POPC   C3A28553  28.351   3.520   7.955
 7643POPC   C4A28554  28.361   3.560   7.655
 7643POPC   C1B28555  28.141   3.525   8.555
 7643POPC   C2B28556  28.146   3.521   8.255
 7643POPC   C3B28557  28.124   3.543   7.955
 7643POPC   C4B28558  28.150   3.583   7.655
 7644POPC   NC328559  44.613  43.093   9.455
 7644POPC   PO428560  44.628  43.095   9.155
 7644POPC   GL128561  44.665  43.099   8.855
 7644POPC   GL228562  44.568  43.083   8.855
 7644POPC   C1A28563  44.665  43.125   8.555
 7644POPC   D2A28564  44.663  43.106   8.255
 7644POPC   C3A28565  44.633  43.131   7.955
 7644POPC   C4A28566  44.698  43.152   7.655
 7644POPC   C1B28567  44.426  43.004   8.555
 7644POPC   C2B28568  44.471  43.021   8.255
 7644POPC   C3B28569  44.373  43.005   7.955
 7644POPC   C4B28570  44.396  43.065   7.655
 7645POPC   NC328571   5.094   0.407   9.455
 7645POPC   PO428572   5.096   0.485   9.155
 7645POPC   GL128573   5.076   0.424   8.855
 7645POPC   GL228574   5.011   0.365   8.855
 7645POPC   C1A28575   5.072   0.438   8.555
 7645POPC   D2A28576   5.103   0.479   8.255
 7645POPC   C3A28577   5.116   0.446   7.955
 7645POPC   C4A28578   5.118   0.484   7.655
 7645POPC   C1B28579   4.997   0.194   8.555
 7645POPC   C2B28580   5.038   0.186   8.255
 7645POPC   C3B28581   4.986   0.183   7.955
 7645POPC   C4B28582   4.964   0.243   7.655
 7646POPC   NC328583  39.971  43.841   9.455
 7646POPC   PO428584  40.018  43.913   9.155
 7646POPC   GL128585  40.040  43.922   8.855
 7646POPC   GL228586  40.117  43.841   8.855
 7646POPC   C1A28587  39.980  43.863   8.555
 7646POPC   D2A28588  39.963  43.927   8.255
 7646POPC   C3A28589  40.002  43.888   7.955
 7646POPC   C4A28590  39.971  43.916   7.655
 7646POPC   C1B28591  40.228  43.736   8.555
 7646POPC   C2B28592  40.262  43.738   8.255
 7646POPC   C3B28593  40.204  43.801   7.955
 7646POPC   C4B28594  40.270  43.815   7.655
 7647POPC   NC328595  43.933  13.674   9.455
 7647POPC   PO428596  43.921  13.673   9.155
 7647POPC   GL128597  43.842  13.594   8.855
 7647POPC   GL228598  43.996  13.543   8.855
 7647POPC   C1A28599  43.919  13.629   8.555
 7647POPC   D2A28600  43.924  13.599   8.255
 7647POPC   C3A28601  43.904  13.581   7.955
 7647POPC   C4A28602  43.888  13.606   7.655
 7647POPC   C1B28603  44.152  13.552   8.555
 7647POPC   C2B28604  44.076  13.528   8.255
 7647POPC   C3B28605  44.173  13.604   7.955
 7647POPC   C4B28606  44.153  13.591   7.655
 7648POPC   NC328607  33.041   4.331   9.455
 7648POPC   PO428608  33.013   4.314   9.155
 7648POPC   GL128609  32.978   4.316   8.855
 7648POPC   GL228610  33.033   4.220   8.855
 7648POPC   C1A28611  33.057   4.332   8.555
 7648POPC   D2A28612  32.988   4.271   8.255
 7648POPC   C3A28613  33.016   4.353   7.955
 7648POPC   C4A28614  33.039   4.292   7.655
 7648POPC   C1B28615  33.081   4.093   8.555
 7648POPC   C2B28616  33.157   4.054   8.255
 7648POPC   C3B28617  33.090   4.088   7.955
 7648POPC   C4B28618  33.141   4.108   7.655
 7649POPC   NC328619  39.969   8.977   9.455
 7649POPC   PO428620  40.051   8.923   9.155
 7649POPC   GL128621  39.967   8.946   8.855
 7649POPC   GL228622  40.145   8.867   8.855
 7649POPC   C1A28623  40.002   9.019   8.555
 7649POPC   D2A28624  39.996   8.982   8.255
 7649POPC   C3A28625  40.050   8.996   7.955
 7649POPC   C4A28626  40.020   8.950   7.655
 7649POPC   C1B28627  40.215   8.855   8.555
 7649POPC   C2B28628  40.159   8.806   8.255
 7649POPC   C3B28629  40.169   8.862   7.955
 7649POPC   C4B28630  40.191   8.835   7.655
 7650POPC   NC328631  42.291   9.752   9.455
 7650POPC   PO428632  42.379   9.699   9.155
 7650POPC   GL128633  42.323   9.785   8.855
 7650POPC   GL228634  42.414   9.690   8.855
 7650POPC   C1A28635  42.300   9.759   8.555
 7650POPC   D2A28636  42.325   9.787   8.255
 7650POPC   C3A28637  42.332   9.704   7.955
 7650POPC   C4A28638  42.363   9.702   7.655
 7650POPC   C1B28639  42.557   9.593   8.555
 7650POPC   C2B28640  42.568   9.592   8.255
 7650POPC   C3B28641  42.481   9.612   7.955
 7650POPC   C4B28642  42.549   9.567   7.655
 7651POPC   NC328643   4.333   5.878   9.455
 7651POPC   PO428644   4.318   5.856   9.155
 7651POPC   GL128645   4.321   5.906   8.855
 7651POPC   GL228646   4.194   5.838   8.855
 7651POPC   C1A28647   4.346   5.853   8.555
 7651POPC   D2A28648   4.344   5.854   8.255
 7651POPC   C3A28649   4.303   5.907   7.955
 7651POPC   C4A28650   4.358   5.851   7.655
 7651POPC   C1B28651   4.064   5.840   8.555
 7651POPC   C2B28652   4.046   5.781   8.255
 7651POPC   C3B28653   4.104   5.832   7.955
 7651POPC   C4B28654   4.069   5.795   7.655
 7652POPC   NC328655  19.871   1.261   9.455
 7652POPC   PO428656  19.790   1.264   9.155
 7652POPC   GL128657  19.789   1.186   8.855
 7652POPC   GL228658  19.953   1.242   8.855
 7652POPC   C1A28659  19.876   1.258   8.555
 7652POPC   D2A28660  19.842   1.235   8.255
 7652POPC   C3A28661  19.785   1.217   7.955
 7652POPC   C4A28662  19.851   1.175   7.655
 7652POPC   C1B28663  20.066   1.308   8.555
 7652POPC   C2B28664  20.006   1.303   8.255
 7652POPC   C3B28665  20.043   1.388   7.955
 7652POPC   C4B28666  20.049   1.300   7.655
 7653POPC   NC328667  34.587   8.937   9.455
 7653POPC   PO428668  34.528   9.018   9.155
 7653POPC   GL128669  34.551   9.021   8.855
 7653POPC   GL228670  34.654   8.942   8.855
 7653POPC   C1A28671  34.600   8.958   8.555
 7653POPC   D2A28672  34.613   8.982   8.255
 7653POPC   C3A28673  34.585   9.015   7.955
 7653POPC   C4A28674  34.622   9.007   7.655
 7653POPC   C1B28675  34.775   8.913   8.555
 7653POPC   C2B28676  34.760   8.902   8.255
 7653POPC   C3B28677  34.806   8.831   7.955
 7653POPC   C4B28678  34.802   8.863   7.655
 7654POPC   NC328679  28.358   7.409   9.455
 7654POPC   PO428680  28.331   7.416   9.155
 7654POPC   GL128681  28.397   7.398   8.855
 7654POPC   GL228682  28.460   7.433   8.855
 7654POPC   C1A28683  28.361   7.457   8.555
 7654POPC   D2A28684  28.399   7.428   8.255
 7654POPC   C3A28685  28.324   7.424   7.955
 7654POPC   C4A28686  28.390   7.433   7.655
 7654POPC   C1B28687  28.626   7.478   8.555
 7654POPC   C2B28688  28.598   7.544   8.255
 7654POPC   C3B28689  28.599   7.488   7.955
 7654POPC   C4B28690  28.635   7.463   7.655
 7655POPC   NC328691  14.446  22.192   9.455
 7655POPC   PO428692  14.394  22.209   9.155
 7655POPC   GL128693  14.385  22.152   8.855
 7655POPC   GL228694  14.288  22.197   8.855
 7655POPC   C1A28695  14.417  22.208   8.555
 7655POPC   D2A28696  14.358  22.145   8.255
 7655POPC   C3A28697  14.356  22.129   7.955
 7655POPC   C4A28698  14.363  22.156   7.655
 7655POPC   C1B28699  14.147  22.228   8.555
 7655POPC   C2B28700  14.204  22.182   8.255
 7655POPC   C3B28701  14.118  22.252   7.955
 7655POPC   C4B28702  14.117  22.262   7.655
 7656POPC   NC328703  14.439   8.933   9.455
 7656POPC   PO428704  14.386   8.970   9.155
 7656POPC   GL128705  14.414   8.946   8.855
 7656POPC   GL228706  14.247   9.030   8.855
 7656POPC   C1A28707  14.443   8.984   8.555
 7656POPC   D2A28708  14.409   8.997   8.255
 7656POPC   C3A28709  14.360   9.018   7.955
 7656POPC   C4A28710  14.437   9.005   7.655
 7656POPC   C1B28711  14.192   9.119   8.555
 7656POPC   C2B28712  14.178   9.131   8.255
 7656POPC   C3B28713  14.239   9.140   7.955
 7656POPC   C4B28714  14.226   9.142   7.655
 7657POPC   NC328715  13.645  31.434   9.455
 7657POPC   PO428716  13.621  31.442   9.155
 7657POPC   GL128717  13.606  31.432   8.855
 7657POPC   GL228718  13.778  31.490   8.855
 7657POPC   C1A28719  13.673  31.438   8.555
 7657POPC   D2A28720  13.659  31.452   8.255
 7657POPC   C3A28721  13.615  31.496   7.955
 7657POPC   C4A28722  13.585  31.510   7.655
 7657POPC   C1B28723  13.839  31.391   8.555
 7657POPC   C2B28724  13.896  31.431   8.255
 7657POPC   C3B28725  13.883  31.380   7.955
 7657POPC   C4B28726  13.865  31.393   7.655
 7658POPC   NC328727  29.927  17.473   9.455
 7658POPC   PO428728  29.927  17.470   9.155
 7658POPC   GL128729  29.894  17.528   8.855
 7658POPC   GL228730  29.781  17.457   8.855
 7658POPC   C1A28731  29.918  17.550   8.555
 7658POPC   D2A28732  29.934  17.483   8.255
 7658POPC   C3A28733  29.907  17.517   7.955
 7658POPC   C4A28734  29.926  17.547   7.655
 7658POPC   C1B28735  29.665  17.386   8.555
 7658POPC   C2B28736  29.727  17.407   8.255
 7658POPC   C3B28737  29.641  17.460   7.955
 7658POPC   C4B28738  29.718  17.374   7.655
 7659POPC   NC328739   5.082  37.726   9.455
 7659POPC   PO428740   5.106  37.667   9.155
 7659POPC   GL128741   5.130  37.704   8.855
 7659POPC   GL228742   5.124  37.572   8.855
 7659POPC   C1A28743   5.058  37.695   8.555
 7659POPC   D2A28744   5.070  37.638   8.255
 7659POPC   C3A28745   5.050  37.707   7.955
 7659POPC   C4A28746   5.143  37.635   7.655
 7659POPC   C1B28747   5.089  37.423   8.555
 7659POPC   C2B28748   5.013  37.423   8.255
 7659POPC   C3B28749   5.009  37.436   7.955
 7659POPC   C4B28750   5.031  37.480   7.655
 7660POPC   NC328751  26.039  17.550   9.455
 7660POPC   PO428752  26.064  17.464   9.155
 7660POPC   GL128753  26.023  17.508   8.855
 7660POPC   GL228754  25.952  17.554   8.855
 7660POPC   C1A28755  26.022  17.472   8.555
 7660POPC   D2A28756  26.071  17.515   8.255
 7660POPC   C3A28757  26.044  17.491   7.955
 7660POPC   C4A28758  26.068  17.505   7.655
 7660POPC   C1B28759  25.861  17.712   8.555
 7660POPC   C2B28760  25.905  17.689   8.255
 7660POPC   C3B28761  25.901  17.747   7.955
 7660POPC   C4B28762  25.926  17.729   7.655
 7661POPC   NC328763  12.111  19.078   9.455
 7661POPC   PO428764  12.032  19.032   9.155
 7661POPC   GL128765  12.088  19.076   8.855
 7661POPC   GL228766  12.007  18.952   8.855
 7661POPC   C1A28767  12.117  19.076   8.555
 7661POPC   D2A28768  12.098  19.061   8.255
 7661POPC   C3A28769  12.101  19.093   7.955
 7661POPC   C4A28770  12.059  19.103   7.655
 7661POPC   C1B28771  11.922  18.883   8.555
 7661POPC   C2B28772  11.876  18.877   8.255
 7661POPC   C3B28773  11.927  18.908   7.955
 7661POPC   C4B28774  11.947  18.839   7.655
 7662POPC   NC328775   7.449  21.400   9.455
 7662POPC   PO428776   7.441  21.416   9.155
 7662POPC   GL128777   7.454  21.343   8.855
 7662POPC   GL228778   7.333  21.473   8.855
 7662POPC   C1A28779   7.389  21.398   8.555
 7662POPC   D2A28780   7.431  21.407   8.255
 7662POPC   C3A28781   7.400  21.381   7.955
 7662POPC   C4A28782   7.427  21.385   7.655
 7662POPC   C1B28783   7.381  21.650   8.555
 7662POPC   C2B28784   7.352  21.619   8.255
 7662POPC   C3B28785   7.304  21.631   7.955
 7662POPC   C4B28786   7.299  21.580   7.655
 7663POPC   NC328787  29.878  39.974   9.455
 7663POPC   PO428788  29.947  40.018   9.155
 7663POPC   GL128789  29.885  40.024   8.855
 7663POPC   GL228790  29.789  39.954   8.855
 7663POPC   C1A28791  29.946  39.977   8.555
 7663POPC   D2A28792  29.874  39.993   8.255
 7663POPC   C3A28793  29.893  39.982   7.955
 7663POPC   C4A28794  29.882  40.025   7.655
 7663POPC   C1B28795  29.696  39.941   8.555
 7663POPC   C2B28796  29.624  39.945   8.255
 7663POPC   C3B28797  29.659  40.007   7.955
 7663POPC   C4B28798  29.627  39.929   7.655
 7664POPC   NC328799   9.734  12.082   9.455
 7664POPC   PO428800   9.725  12.054   9.155
 7664POPC   GL128801   9.704  12.073   8.855
 7664POPC   GL228802   9.757  11.904   8.855
 7664POPC   C1A28803   9.782  12.087   8.555
 7664POPC   D2A28804   9.788  12.117   8.255
 7664POPC   C3A28805   9.780  12.103   7.955
 7664POPC   C4A28806   9.747  12.068   7.655
 7664POPC   C1B28807   9.747  11.834   8.555
 7664POPC   C2B28808   9.809  11.799   8.255
 7664POPC   C3B28809   9.802  11.855   7.955
 7664POPC   C4B28810   9.734  11.832   7.655
 7665POPC   NC328811  24.490  43.118   9.455
 7665POPC   PO428812  24.530  43.157   9.155
 7665POPC   GL128813  24.499  43.074   8.855
 7665POPC   GL228814  24.496  42.985   8.855
 7665POPC   C1A28815  24.472  43.090   8.555
 7665POPC   D2A28816  24.440  43.122   8.255
 7665POPC   C3A28817  24.481  43.068   7.955
 7665POPC   C4A28818  24.452  43.095   7.655
 7665POPC   C1B28819  24.573  42.881   8.555
 7665POPC   C2B28820  24.577  42.822   8.255
 7665POPC   C3B28821  24.502  42.863   7.955
 7665POPC   C4B28822  24.516  42.862   7.655
 7666POPC   NC328823  31.445   2.033   9.455
 7666POPC   PO428824  31.442   1.975   9.155
 7666POPC   GL128825  31.431   2.040   8.855
 7666POPC   GL228826  31.496   1.907   8.855
 7666POPC   C1A28827  31.476   1.954   8.555
 7666POPC   D2A28828  31.431   2.018   8.255
 7666POPC   C3A28829  31.508   1.977   7.955
 7666POPC   C4A28830  31.484   1.948   7.655
 7666POPC   C1B28831  31.561   1.737   8.555
 7666POPC   C2B28832  31.502   1.752   8.255
 7666POPC   C3B28833  31.521   1.762   7.955
 7666POPC   C4B28834  31.552   1.794   7.655
 7667POPC   NC328835  38.477  44.675   9.455
 7667POPC   PO428836  38.469  44.660   9.155
 7667POPC   GL128837  38.439  44.643   8.855
 7667POPC   GL228838  38.550  44.651   8.855
 7667POPC   C1A28839  38.418  44.663   8.555
 7667POPC   D2A28840  38.484  44.635   8.255
 7667POPC   C3A28841  38.454  44.629   7.955
 7667POPC   C4A28842  38.472  44.690   7.655
 7667POPC   C1B28843  38.747  44.728   8.555
 7667POPC   C2B28844  38.659  44.693   8.255
 7667POPC   C3B28845  38.729  44.676   7.955
 7667POPC   C4B28846  38.660  44.709   7.655
 7668POPC   NC328847  17.491   7.463   9.455
 7668POPC   PO428848  17.542   7.375   9.155
 7668POPC   GL128849  17.518   7.403   8.855
 7668POPC   GL228850  17.509   7.282   8.855
 7668POPC   C1A28851  17.476   7.386   8.555
 7668POPC   D2A28852  17.471   7.415   8.255
 7668POPC   C3A28853  17.525   7.412   7.955
 7668POPC   C4A28854  17.457   7.394   7.655
 7668POPC   C1B28855  17.528   7.165   8.555
 7668POPC   C2B28856  17.577   7.155   8.255
 7668POPC   C3B28857  17.561   7.161   7.955
 7668POPC   C4B28858  17.488   7.154   7.655
 7669POPC   NC328859   8.961   5.914   9.455
 7669POPC   PO428860   8.959   5.839   9.155
 7669POPC   GL128861   9.002   5.844   8.855
 7669POPC   GL228862   8.832   5.852   8.855
 7669POPC   C1A28863   8.936   5.847   8.555
 7669POPC   D2A28864   8.950   5.863   8.255
 7669POPC   C3A28865   9.001   5.834   7.955
 7669POPC   C4A28866   8.984   5.839   7.655
 7669POPC   C1B28867   8.675   5.899   8.555
 7669POPC   C2B28868   8.711   5.847   8.255
 7669POPC   C3B28869   8.770   5.872   7.955
 7669POPC   C4B28870   8.695   5.869   7.655
 7670POPC   NC328871  21.348  41.566   9.455
 7670POPC   PO428872  21.422  41.594   9.155
 7670POPC   GL128873  21.375  41.530   8.855
 7670POPC   GL228874  21.430  41.425   8.855
 7670POPC   C1A28875  21.396  41.544   8.555
 7670POPC   D2A28876  21.391  41.512   8.255
 7670POPC   C3A28877  21.414  41.551   7.955
 7670POPC   C4A28878  21.356  41.515   7.655
 7670POPC   C1B28879  21.414  41.346   8.555
 7670POPC   C2B28880  21.427  41.275   8.255
 7670POPC   C3B28881  21.339  41.318   7.955
 7670POPC   C4B28882  21.375  41.298   7.655
 7671POPC   NC328883  33.068  27.627   9.455
 7671POPC   PO428884  33.006  27.600   9.155
 7671POPC   GL128885  32.996  27.602   8.855
 7671POPC   GL228886  32.889  27.488   8.855
 7671POPC   C1A28887  32.997  27.590   8.555
 7671POPC   D2A28888  32.976  27.563   8.255
 7671POPC   C3A28889  33.046  27.556   7.955
 7671POPC   C4A28890  33.017  27.630   7.655
 7671POPC   C1B28891  32.875  27.442   8.555
 7671POPC   C2B28892  32.804  27.433   8.255
 7671POPC   C3B28893  32.808  27.470   7.955
 7671POPC   C4B28894  32.812  27.406   7.655
 7672POPC   NC328895   9.795  35.324   9.455
 7672POPC   PO428896   9.731  35.336   9.155
 7672POPC   GL128897   9.761  35.390   8.855
 7672POPC   GL228898   9.744  35.496   8.855
 7672POPC   C1A28899   9.714  35.343   8.555
 7672POPC   D2A28900   9.789  35.353   8.255
 7672POPC   C3A28901   9.711  35.389   7.955
 7672POPC   C4A28902   9.715  35.339   7.655
 7672POPC   C1B28903   9.711  35.592   8.555
 7672POPC   C2B28904   9.713  35.596   8.255
 7672POPC   C3B28905   9.624  35.635   7.955
 7672POPC   C4B28906   9.692  35.623   7.655
 7673POPC   NC328907  38.492  12.035   9.455
 7673POPC   PO428908  38.481  12.072   9.155
 7673POPC   GL128909  38.432  12.052   8.855
 7673POPC   GL228910  38.384  12.008   8.855
 7673POPC   C1A28911  38.443  12.096   8.555
 7673POPC   D2A28912  38.438  12.056   8.255
 7673POPC   C3A28913  38.418  12.044   7.955
 7673POPC   C4A28914  38.479  12.104   7.655
 7673POPC   C1B28915  38.264  11.869   8.555
 7673POPC   C2B28916  38.353  11.907   8.255
 7673POPC   C3B28917  38.327  11.896   7.955
 7673POPC   C4B28918  38.332  11.880   7.655
 7674POPC   NC328919  16.002  23.719   9.455
 7674POPC   PO428920  15.953  23.730   9.155
 7674POPC   GL128921  15.983  23.686   8.855
 7674POPC   GL228922  16.017  23.663   8.855
 7674POPC   C1A28923  15.958  23.746   8.555
 7674POPC   D2A28924  15.970  23.732   8.255
 7674POPC   C3A28925  15.927  23.679   7.955
 7674POPC   C4A28926  15.941  23.722   7.655
 7674POPC   C1B28927  16.114  23.585   8.555
 7674POPC   C2B28928  16.093  23.546   8.255
 7674POPC   C3B28929  16.086  23.508   7.955
 7674POPC   C4B28930  16.118  23.582   7.655
 7675POPC   NC328931  13.659  10.526   9.455
 7675POPC   PO428932  13.661  10.547   9.155
 7675POPC   GL128933  13.621  10.517   8.855
 7675POPC   GL228934  13.558  10.623   8.855
 7675POPC   C1A28935  13.644  10.571   8.555
 7675POPC   D2A28936  13.633  10.487   8.255
 7675POPC   C3A28937  13.670  10.557   7.955
 7675POPC   C4A28938  13.604  10.496   7.655
 7675POPC   C1B28939  13.446  10.750   8.555
 7675POPC   C2B28940  13.445  10.748   8.255
 7675POPC   C3B28941  13.500  10.715   7.955
 7675POPC   C4B28942  13.466  10.767   7.655
 7676POPC   NC328943  38.463   9.720   9.455
 7676POPC   PO428944  38.436   9.704   9.155
 7676POPC   GL128945  38.486   9.765   8.855
 7676POPC   GL228946  38.476   9.902   8.855
 7676POPC   C1A28947  38.439   9.716   8.555
 7676POPC   D2A28948  38.416   9.748   8.255
 7676POPC   C3A28949  38.503   9.714   7.955
 7676POPC   C4A28950  38.405   9.703   7.655
 7676POPC   C1B28951  38.569   9.911   8.555
 7676POPC   C2B28952  38.553   9.965   8.255
 7676POPC   C3B28953  38.553   9.936   7.955
 7676POPC   C4B28954  38.597   9.941   7.655
 7677POPC   NC328955  12.079   8.168   9.455
 7677POPC   PO428956  12.057   8.180   9.155
 7677POPC   GL128957  12.110   8.160   8.855
 7677POPC   GL228958  12.144   8.358   8.855
 7677POPC   C1A28959  12.058   8.236   8.555
 7677POPC   D2A28960  12.123   8.156   8.255
 7677POPC   C3A28961  12.117   8.193   7.955
 7677POPC   C4A28962  12.122   8.224   7.655
 7677POPC   C1B28963  12.149   8.448   8.555
 7677POPC   C2B28964  12.072   8.462   8.255
 7677POPC   C3B28965  12.109   8.413   7.955
 7677POPC   C4B28966  12.133   8.424   7.655
 7678POPC   NC328967  22.138   8.926   9.455
 7678POPC   PO428968  22.185   9.017   9.155
 7678POPC   GL128969  22.120   9.017   8.855
 7678POPC   GL228970  22.063   8.852   8.855
 7678POPC   C1A28971  22.114   9.011   8.555
 7678POPC   D2A28972  22.145   8.980   8.255
 7678POPC   C3A28973  22.159   8.981   7.955
 7678POPC   C4A28974  22.138   8.951   7.655
 7678POPC   C1B28975  21.996   8.759   8.555
 7678POPC   C2B28976  22.014   8.785   8.255
 7678POPC   C3B28977  22.059   8.802   7.955
 7678POPC   C4B28978  22.025   8.787   7.655
 7679POPC   NC328979  13.669   2.745   9.455
 7679POPC   PO428980  13.653   2.730   9.155
 7679POPC   GL128981  13.635   2.743   8.855
 7679POPC   GL228982  13.710   2.760   8.855
 7679POPC   C1A28983  13.586   2.752   8.555
 7679POPC   D2A28984  13.610   2.732   8.255
 7679POPC   C3A28985  13.649   2.748   7.955
 7679POPC   C4A28986  13.631   2.765   7.655
 7679POPC   C1B28987  13.893   2.834   8.555
 7679POPC   C2B28988  13.829   2.783   8.255
 7679POPC   C3B28989  13.840   2.793   7.955
 7679POPC   C4B28990  13.917   2.811   7.655
 7680POPC   NC328991  17.501  23.712   9.455
 7680POPC   PO428992  17.547  23.718   9.155
 7680POPC   GL128993  17.489  23.668   8.855
 7680POPC   GL228994  17.370  23.796   8.855
 7680POPC   C1A28995  17.538  23.686   8.555
 7680POPC   D2A28996  17.485  23.686   8.255
 7680POPC   C3A28997  17.462  23.676   7.955
 7680POPC   C4A28998  17.554  23.679   7.655
 7680POPC   C1B28999  17.305  23.754   8.555
 7680POPC   C2B29000  17.282  23.787   8.255
 7680POPC   C3B29001  17.295  23.841   7.955
 7680POPC   C4B29002  17.306  23.773   7.655
 7681POPC   NC329003   6.607  39.281   9.455
 7681POPC   PO429004   6.622  39.233   9.155
 7681POPC   GL129005   6.689  39.192   8.855
 7681POPC   GL229006   6.530  39.197   8.855
 7681POPC   C1A29007   6.681  39.185   8.555
 7681POPC   D2A29008   6.671  39.258   8.255
 7681POPC   C3A29009   6.667  39.202   7.955
 7681POPC   C4A29010   6.693  39.229   7.655
 7681POPC   C1B29011   6.357  39.149   8.555
 7681POPC   C2B29012   6.385  39.152   8.255
 7681POPC   C3B29013   6.396  39.193   7.955
 7681POPC   C4B29014   6.397  39.182   7.655
 7682POPC   NC329015  42.383  42.342   9.455
 7682POPC   PO429016  42.306  42.339   9.155
 7682POPC   GL129017  42.312  42.340   8.855
 7682POPC   GL229018  42.361  42.206   8.855
 7682POPC   C1A29019  42.355  42.291   8.555
 7682POPC   D2A29020  42.305  42.306   8.255
 7682POPC   C3A29021  42.327  42.314   7.955
 7682POPC   C4A29022  42.318  42.301   7.655
 7682POPC   C1B29023  42.372  42.110   8.555
 7682POPC   C2B29024  42.338  42.055   8.255
 7682POPC   C3B29025  42.400  42.064   7.955
 7682POPC   C4B29026  42.369  42.123   7.655
 7683POPC   NC329027  12.101  31.490   9.455
 7683POPC   PO429028  12.080  31.461   9.155
 7683POPC   GL129029  12.106  31.498   8.855
 7683POPC   GL229030  12.070  31.634   8.855
 7683POPC   C1A29031  12.066  31.457   8.555
 7683POPC   D2A29032  12.034  31.465   8.255
 7683POPC   C3A29033  12.112  31.512   7.955
 7683POPC   C4A29034  12.065  31.425   7.655
 7683POPC   C1B29035  11.979  31.750   8.555
 7683POPC   C2B29036  12.042  31.728   8.255
 7683POPC   C3B29037  12.007  31.685   7.955
 7683POPC   C4B29038  12.036  31.690   7.655
 7684POPC   NC329039  28.351  38.480   9.455
 7684POPC   PO429040  28.398  38.481   9.155
 7684POPC   GL129041  28.351  38.462   8.855
 7684POPC   GL229042  28.450  38.427   8.855
 7684POPC   C1A29043  28.343  38.500   8.555
 7684POPC   D2A29044  28.404  38.440   8.255
 7684POPC   C3A29045  28.322  38.406   7.955
 7684POPC   C4A29046  28.358  38.406   7.655
 7684POPC   C1B29047  28.561  38.386   8.555
 7684POPC   C2B29048  28.628  38.420   8.255
 7684POPC   C3B29049  28.648  38.412   7.955
 7684POPC   C4B29050  28.635  38.383   7.655
 7685POPC   NC329051  22.118   8.208   9.455
 7685POPC   PO429052  22.115   8.179   9.155
 7685POPC   GL129053  22.164   8.194   8.855
 7685POPC   GL229054  22.028   8.240   8.855
 7685POPC   C1A29055  22.117   8.187   8.555
 7685POPC   D2A29056  22.180   8.211   8.255
 7685POPC   C3A29057  22.145   8.201   7.955
 7685POPC   C4A29058  22.206   8.198   7.655
 7685POPC   C1B29059  21.935   8.209   8.555
 7685POPC   C2B29060  21.889   8.195   8.255
 7685POPC   C3B29061  21.918   8.221   7.955
 7685POPC   C4B29062  21.946   8.182   7.655
 7686POPC   NC329063  35.376   9.778   9.455
 7686POPC   PO429064  35.308   9.699   9.155
 7686POPC   GL129065  35.325   9.706   8.855
 7686POPC   GL229066  35.320   9.833   8.855
 7686POPC   C1A29067  35.375   9.719   8.555
 7686POPC   D2A29068  35.330   9.744   8.255
 7686POPC   C3A29069  35.375   9.790   7.955
 7686POPC   C4A29070  35.398   9.727   7.655
 7686POPC   C1B29071  35.274  10.026   8.555
 7686POPC   C2B29072  35.331   9.966   8.255
 7686POPC   C3B29073  35.249  10.011   7.955
 7686POPC   C4B29074  35.337  10.008   7.655
 7687POPC   NC329075   9.774  23.699   9.455
 7687POPC   PO429076   9.780  23.681   9.155
 7687POPC   GL129077   9.709  23.697   8.855
 7687POPC   GL229078   9.902  23.720   8.855
 7687POPC   C1A29079   9.716  23.743   8.555
 7687POPC   D2A29080   9.790  23.679   8.255
 7687POPC   C3A29081   9.754  23.763   7.955
 7687POPC   C4A29082   9.718  23.678   7.655
 7687POPC   C1B29083  10.012  23.651   8.555
 7687POPC   C2B29084  10.017  23.597   8.255
 7687POPC   C3B29085  10.026  23.613   7.955
 7687POPC   C4B29086   9.999  23.677   7.655
 7688POPC   NC329087   8.225  43.837   9.455
 7688POPC   PO429088   8.177  43.874   9.155
 7688POPC   GL129089   8.232  43.936   8.855
 7688POPC   GL229090   8.285  43.988   8.855
 7688POPC   C1A29091   8.228  43.872   8.555
 7688POPC   D2A29092   8.149  43.881   8.255
 7688POPC   C3A29093   8.235  43.837   7.955
 7688POPC   C4A29094   8.227  43.853   7.655
 7688POPC   C1B29095   8.458  44.035   8.555
 7688POPC   C2B29096   8.413  43.983   8.255
 7688POPC   C3B29097   8.424  44.050   7.955
 7688POPC   C4B29098   8.432  44.005   7.655
 7689POPC   NC329099  40.034  22.929   9.455
 7689POPC   PO429100  40.012  22.897   9.155
 7689POPC   GL129101  40.000  22.951   8.855
 7689POPC   GL229102  39.901  22.932   8.855
 7689POPC   C1A29103  40.020  22.950   8.555
 7689POPC   D2A29104  40.029  22.923   8.255
 7689POPC   C3A29105  39.986  22.938   7.955
 7689POPC   C4A29106  40.002  22.951   7.655
 7689POPC   C1B29107  39.780  22.890   8.555
 7689POPC   C2B29108  39.712  22.881   8.255
 7689POPC   C3B29109  39.789  22.903   7.955
 7689POPC   C4B29110  39.778  22.950   7.655
 7690POPC   NC329111  11.349  43.061   9.455
 7690POPC   PO429112  11.256  43.124   9.155
 7690POPC   GL129113  11.288  43.121   8.855
 7690POPC   GL229114  11.302  42.998   8.855
 7690POPC   C1A29115  11.335  43.150   8.555
 7690POPC   D2A29116  11.273  43.101   8.255
 7690POPC   C3A29117  11.302  43.077   7.955
 7690POPC   C4A29118  11.309  43.139   7.655
 7690POPC   C1B29119  11.319  42.828   8.555
 7690POPC   C2B29120  11.239  42.865   8.255
 7690POPC   C3B29121  11.280  42.900   7.955
 7690POPC   C4B29122  11.328  42.891   7.655
 7691POPC   NC329123   1.169  29.163   9.455
 7691POPC   PO429124   1.203  29.118   9.155
 7691POPC   GL129125   1.231  29.110   8.855
 7691POPC   GL229126   1.206  29.003   8.855
 7691POPC   C1A29127   1.224  29.113   8.555
 7691POPC   D2A29128   1.202  29.100   8.255
 7691POPC   C3A29129   1.168  29.179   7.955
 7691POPC   C4A29130   1.235  29.190   7.655
 7691POPC   C1B29131   1.293  28.915   8.555
 7691POPC   C2B29132   1.247  28.854   8.255
 7691POPC   C3B29133   1.303  28.871   7.955
 7691POPC   C4B29134   1.299  28.883   7.655
 7692POPC   NC329135  43.065  40.818   9.455
 7692POPC   PO429136  43.123  40.804   9.155
 7692POPC   GL129137  43.101  40.809   8.855
 7692POPC   GL229138  43.107  40.893   8.855
 7692POPC   C1A29139  43.122  40.766   8.555
 7692POPC   D2A29140  43.147  40.825   8.255
 7692POPC   C3A29141  43.129  40.778   7.955
 7692POPC   C4A29142  43.133  40.746   7.655
 7692POPC   C1B29143  43.085  41.071   8.555
 7692POPC   C2B29144  43.047  41.057   8.255
 7692POPC   C3B29145  42.998  40.996   7.955
 7692POPC   C4B29146  43.007  41.016   7.655
 7693POPC   NC329147  42.373  15.960   9.455
 7693POPC   PO429148  42.367  15.947   9.155
 7693POPC   GL129149  42.368  15.970   8.855
 7693POPC   GL229150  42.167  15.967   8.855
 7693POPC   C1A29151  42.324  15.988   8.555
 7693POPC   D2A29152  42.311  15.929   8.255
 7693POPC   C3A29153  42.332  15.958   7.955
 7693POPC   C4A29154  42.305  15.912   7.655
 7693POPC   C1B29155  42.091  15.855   8.555
 7693POPC   C2B29156  42.060  15.840   8.255
 7693POPC   C3B29157  42.103  15.876   7.955
 7693POPC   C4B29158  42.125  15.893   7.655
 7694POPC   NC329159  40.827  24.538   9.455
 7694POPC   PO429160  40.776  24.454   9.155
 7694POPC   GL129161  40.771  24.503   8.855
 7694POPC   GL229162  40.666  24.414   8.855
 7694POPC   C1A29163  40.757  24.456   8.555
 7694POPC   D2A29164  40.779  24.445   8.255
 7694POPC   C3A29165  40.768  24.478   7.955
 7694POPC   C4A29166  40.828  24.447   7.655
 7694POPC   C1B29167  40.583  24.271   8.555
 7694POPC   C2B29168  40.597  24.315   8.255
 7694POPC   C3B29169  40.657  24.307   7.955
 7694POPC   C4B29170  40.634  24.331   7.655
 7695POPC   NC329171  40.755   7.390   9.455
 7695POPC   PO429172  40.765   7.391   9.155
 7695POPC   GL129173  40.805   7.425   8.855
 7695POPC   GL229174  40.612   7.464   8.855
 7695POPC   C1A29175  40.812   7.462   8.555
 7695POPC   D2A29176  40.803   7.396   8.255
 7695POPC   C3A29177  40.736   7.435   7.955
 7695POPC   C4A29178  40.764   7.428   7.655
 7695POPC   C1B29179  40.484   7.416   8.555
 7695POPC   C2B29180  40.499   7.436   8.255
 7695POPC   C3B29181  40.499   7.417   7.955
 7695POPC   C4B29182  40.524   7.420   7.655
 7696POPC   NC329183  10.545   1.187   9.455
 7696POPC   PO429184  10.497   1.197   9.155
 7696POPC   GL129185  10.545   1.261   8.855
 7696POPC   GL229186  10.515   1.119   8.855
 7696POPC   C1A29187  10.484   1.238   8.555
 7696POPC   D2A29188  10.535   1.240   8.255
 7696POPC   C3A29189  10.544   1.194   7.955
 7696POPC   C4A29190  10.554   1.215   7.655
 7696POPC   C1B29191  10.439   1.003   8.555
 7696POPC   C2B29192  10.447   0.948   8.255
 7696POPC   C3B29193  10.416   1.014   7.955
 7696POPC   C4B29194  10.478   1.020   7.655
 7697POPC   NC329195  39.251  27.572   9.455
 7697POPC   PO429196  39.228  27.566   9.155
 7697POPC   GL129197  39.262  27.640   8.855
 7697POPC   GL229198  39.092  27.631   8.855
 7697POPC   C1A29199  39.183  27.605   8.555
 7697POPC   D2A29200  39.222  27.580   8.255
 7697POPC   C3A29201  39.216  27.597   7.955
 7697POPC   C4A29202  39.232  27.600   7.655
 7697POPC   C1B29203  38.976  27.603   8.555
 7697POPC   C2B29204  38.980  27.560   8.255
 7697POPC   C3B29205  39.012  27.622   7.955
 7697POPC   C4B29206  39.029  27.602   7.655
 7698POPC   NC329207  13.578  43.891   9.455
 7698POPC   PO429208  13.578  43.936   9.155
 7698POPC   GL129209  13.589  43.840   8.855
 7698POPC   GL229210  13.563  43.864   8.855
 7698POPC   C1A29211  13.614  43.870   8.555
 7698POPC   D2A29212  13.670  43.886   8.255
 7698POPC   C3A29213  13.602  43.864   7.955
 7698POPC   C4A29214  13.606  43.850   7.655
 7698POPC   C1B29215  13.412  43.785   8.555
 7698POPC   C2B29216  13.446  43.727   8.255
 7698POPC   C3B29217  13.381  43.728   7.955
 7698POPC   C4B29218  13.389  43.743   7.655
 7699POPC   NC329219  41.585  17.539   9.455
 7699POPC   PO429220  41.524  17.491   9.155
 7699POPC   GL129221  41.540  17.470   8.855
 7699POPC   GL229222  41.532  17.363   8.855
 7699POPC   C1A29223  41.523  17.479   8.555
 7699POPC   D2A29224  41.512  17.479   8.255
 7699POPC   C3A29225  41.580  17.469   7.955
 7699POPC   C4A29226  41.594  17.507   7.655
 7699POPC   C1B29227  41.485  17.249   8.555
 7699POPC   C2B29228  41.401  17.276   8.255
 7699POPC   C3B29229  41.449  17.270   7.955
 7699POPC   C4B29230  41.399  17.304   7.655
 7700POPC   NC329231  19.859  29.154   9.455
 7700POPC   PO429232  19.875  29.150   9.155
 7700POPC   GL129233  19.812  29.136   8.855
 7700POPC   GL229234  19.707  29.154   8.855
 7700POPC   C1A29235  19.800  29.134   8.555
 7700POPC   D2A29236  19.835  29.097   8.255
 7700POPC   C3A29237  19.836  29.104   7.955
 7700POPC   C4A29238  19.846  29.147   7.655
 7700POPC   C1B29239  19.580  29.203   8.555
 7700POPC   C2B29240  19.591  29.179   8.255
 7700POPC   C3B29241  19.550  29.235   7.955
 7700POPC   C4B29242  19.560  29.169   7.655
 7701POPC   NC329243  19.838  38.488   9.455
 7701POPC   PO429244  19.860  38.434   9.155
 7701POPC   GL129245  19.823  38.422   8.855
 7701POPC   GL229246  19.998  38.434   8.855
 7701POPC   C1A29247  19.808  38.427   8.555
 7701POPC   D2A29248  19.873  38.434   8.255
 7701POPC   C3A29249  19.833  38.431   7.955
 7701POPC   C4A29250  19.789  38.460   7.655
 7701POPC   C1B29251  20.082  38.451   8.555
 7701POPC   C2B29252  20.129  38.489   8.255
 7701POPC   C3B29253  20.078  38.478   7.955
 7701POPC   C4B29254  20.115  38.440   7.655
 7702POPC   NC329255  10.516   5.842   9.455
 7702POPC   PO429256  10.481   5.891   9.155
 7702POPC   GL129257  10.482   5.899   8.855
 7702POPC   GL229258  10.605   5.938   8.855
 7702POPC   C1A29259  10.557   5.902   8.555
 7702POPC   D2A29260  10.560   5.846   8.255
 7702POPC   C3A29261  10.519   5.911   7.955
 7702POPC   C4A29262  10.475   5.869   7.655
 7702POPC   C1B29263  10.786   5.925   8.555
 7702POPC   C2B29264  10.767   5.891   8.255
 7702POPC   C3B29265  10.763   5.942   7.955
 7702POPC   C4B29266  10.722   5.964   7.655
 7703POPC   NC329267  34.584  23.671   9.455
 7703POPC   PO429268  34.537  23.713   9.155
 7703POPC   GL129269  34.618  23.738   8.855
 7703POPC   GL229270  34.732  23.821   8.855
 7703POPC   C1A29271  34.608  23.742   8.555
 7703POPC   D2A29272  34.601  23.688   8.255
 7703POPC   C3A29273  34.550  23.716   7.955
 7703POPC   C4A29274  34.625  23.664   7.655
 7703POPC   C1B29275  34.773  23.812   8.555
 7703POPC   C2B29276  34.806  23.832   8.255
 7703POPC   C3B29277  34.747  23.838   7.955
 7703POPC   C4B29278  34.822  23.815   7.655
 7704POPC   NC329279  39.256  20.596   9.455
 7704POPC   PO429280  39.243  20.566   9.155
 7704POPC   GL129281  39.267  20.645   8.855
 7704POPC   GL229282  39.130  20.459   8.855
 7704POPC   C1A29283  39.252  20.571   8.555
 7704POPC   D2A29284  39.274  20.614   8.255
 7704POPC   C3A29285  39.202  20.631   7.955
 7704POPC   C4A29286  39.270  20.631   7.655
 7704POPC   C1B29287  39.102  20.413   8.555
 7704POPC   C2B29288  39.137  20.399   8.255
 7704POPC   C3B29289  39.105  20.422   7.955
 7704POPC   C4B29290  39.137  20.437   7.655
 7705POPC   NC329291   7.433  34.547   9.455
 7705POPC   PO429292   7.424  34.527   9.155
 7705POPC   GL129293   7.419  34.582   8.855
 7705POPC   GL229294   7.341  34.651   8.855
 7705POPC   C1A29295   7.408  34.609   8.555
 7705POPC   D2A29296   7.380  34.614   8.255
 7705POPC   C3A29297   7.420  34.605   7.955
 7705POPC   C4A29298   7.396  34.607   7.655
 7705POPC   C1B29299   7.319  34.780   8.555
 7705POPC   C2B29300   7.306  34.852   8.255
 7705POPC   C3B29301   7.376  34.818   7.955
 7705POPC   C4B29302   7.310  34.799   7.655
 7706POPC   NC329303  39.990  20.631   9.455
 7706POPC   PO429304  40.042  20.568   9.155
 7706POPC   GL129305  39.966  20.625   8.855
 7706POPC   GL229306  39.958  20.538   8.855
 7706POPC   C1A29307  39.962  20.611   8.555
 7706POPC   D2A29308  39.991  20.565   8.255
 7706POPC   C3A29309  39.990  20.562   7.955
 7706POPC   C4A29310  39.993  20.598   7.655
 7706POPC   C1B29311  39.851  20.420   8.555
 7706POPC   C2B29312  39.891  20.425   8.255
 7706POPC   C3B29313  39.856  20.442   7.955
 7706POPC   C4B29314  39.890  20.462   7.655
 7707POPC   NC329315   5.123  32.284   9.455
 7707POPC   PO429316   5.075  32.293   9.155
 7707POPC   GL129317   5.052  32.199   8.855
 7707POPC   GL229318   5.121  32.122   8.855
 7707POPC   C1A29319   5.057  32.270   8.555
 7707POPC   D2A29320   5.066  32.255   8.255
 7707POPC   C3A29321   5.070  32.258   7.955
 7707POPC   C4A29322   5.099  32.228   7.655
 7707POPC   C1B29323   5.150  32.008   8.555
 7707POPC   C2B29324   5.070  32.013   8.255
 7707POPC   C3B29325   5.121  32.030   7.955
 7707POPC   C4B29326   5.123  32.016   7.655
 7708POPC   NC329327  31.487   5.098   9.455
 7708POPC   PO429328  31.431   5.131   9.155
 7708POPC   GL129329  31.453   5.138   8.855
 7708POPC   GL229330  31.590   5.234   8.855
 7708POPC   C1A29331  31.449   5.074   8.555
 7708POPC   D2A29332  31.453   5.100   8.255
 7708POPC   C3A29333  31.456   5.131   7.955
 7708POPC   C4A29334  31.472   5.097   7.655
 7708POPC   C1B29335  31.607   5.328   8.555
 7708POPC   C2B29336  31.578   5.311   8.255
 7708POPC   C3B29337  31.639   5.333   7.955
 7708POPC   C4B29338  31.595   5.251   7.655
 7709POPC   NC329339  15.218   8.989   9.455
 7709POPC   PO429340  15.219   9.012   9.155
 7709POPC   GL129341  15.155   8.982   8.855
 7709POPC   GL229342  15.248   9.088   8.855
 7709POPC   C1A29343  15.164   9.004   8.555
 7709POPC   D2A29344  15.215   8.948   8.255
 7709POPC   C3A29345  15.149   9.019   7.955
 7709POPC   C4A29346  15.216   8.949   7.655
 7709POPC   C1B29347  15.411   9.176   8.555
 7709POPC   C2B29348  15.392   9.155   8.255
 7709POPC   C3B29349  15.331   9.143   7.955
 7709POPC   C4B29350  15.325   9.180   7.655
 7710POPC   NC329351   8.956   5.089   9.455
 7710POPC   PO429352   8.986   5.143   9.155
 7710POPC   GL129353   8.976   5.117   8.855
 7710POPC   GL229354   8.980   4.982   8.855
 7710POPC   C1A29355   9.012   5.064   8.555
 7710POPC   D2A29356   9.011   5.060   8.255
 7710POPC   C3A29357   8.976   5.126   7.955
 7710POPC   C4A29358   8.963   5.054   7.655
 7710POPC   C1B29359   9.021   4.896   8.555
 7710POPC   C2B29360   9.068   4.851   8.255
 7710POPC   C3B29361   9.036   4.836   7.955
 7710POPC   C4B29362   9.082   4.821   7.655
 7711POPC   NC329363  22.948  43.084   9.455
 7711POPC   PO429364  22.914  43.102   9.155
 7711POPC   GL129365  22.970  43.139   8.855
 7711POPC   GL229366  23.076  43.126   8.855
 7711POPC   C1A29367  22.939  43.089   8.555
 7711POPC   D2A29368  22.980  43.145   8.255
 7711POPC   C3A29369  22.912  43.103   7.955
 7711POPC   C4A29370  22.890  43.083   7.655
 7711POPC   C1B29371  23.215  43.058   8.555
 7711POPC   C2B29372  23.225  43.107   8.255
 7711POPC   C3B29373  23.221  43.052   7.955
 7711POPC   C4B29374  23.155  43.034   7.655
 7712POPC   NC329375  43.910  29.941   9.455
 7712POPC   PO429376  43.842  29.959   9.155
 7712POPC   GL129377  43.879  29.910   8.855
 7712POPC   GL229378  43.816  29.991   8.855
 7712POPC   C1A29379  43.889  29.918   8.555
 7712POPC   D2A29380  43.861  29.965   8.255
 7712POPC   C3A29381  43.856  29.953   7.955
 7712POPC   C4A29382  43.908  29.965   7.655
 7712POPC   C1B29383  43.751  30.133   8.555
 7712POPC   C2B29384  43.744  30.140   8.255
 7712POPC   C3B29385  43.731  30.137   7.955
 7712POPC   C4B29386  43.806  30.146   7.655
 7713POPC   NC329387  44.696  34.542   9.455
 7713POPC   PO429388  44.690  34.561   9.155
 7713POPC   GL129389  44.667  34.590   8.855
 7713POPC   GL229390  44.704  34.501   8.855
 7713POPC   C1A29391  44.693  34.595   8.555
 7713POPC   D2A29392  44.652  34.611   8.255
 7713POPC   C3A29393  44.695  34.561   7.955
 7713POPC   C4A29394  44.701  34.559   7.655
 7713POPC   C1B29395  44.685  34.376   8.555
 7713POPC   C2B29396  44.759  34.363   8.255
 7713POPC   C3B29397  44.727  34.363   7.955
 7713POPC   C4B29398  44.690  34.288   7.655
 7714POPC   NC329399   5.053   7.403   9.455
 7714POPC   PO429400   5.125   7.408   9.155
 7714POPC   GL129401   5.055   7.459   8.855
 7714POPC   GL229402   5.200   7.449   8.855
 7714POPC   C1A29403   5.090   7.384   8.555
 7714POPC   D2A29404   5.138   7.435   8.255
 7714POPC   C3A29405   5.071   7.419   7.955
 7714POPC   C4A29406   5.120   7.463   7.655
 7714POPC   C1B29407   5.381   7.473   8.555
 7714POPC   C2B29408   5.371   7.466   8.255
 7714POPC   C3B29409   5.300   7.443   7.955
 7714POPC   C4B29410   5.348   7.493   7.655
 7715POPC   NC329411  42.373   1.969   9.455
 7715POPC   PO429412  42.333   1.957   9.155
 7715POPC   GL129413  42.293   2.019   8.855
 7715POPC   GL229414  42.402   1.961   8.855
 7715POPC   C1A29415  42.352   1.953   8.555
 7715POPC   D2A29416  42.370   1.962   8.255
 7715POPC   C3A29417  42.300   2.012   7.955
 7715POPC   C4A29418  42.361   1.964   7.655
 7715POPC   C1B29419  42.515   1.822   8.555
 7715POPC   C2B29420  42.603   1.916   8.255
 7715POPC   C3B29421  42.543   1.898   7.955
 7715POPC   C4B29422  42.604   1.916   7.655
 7716POPC   NC329423  42.379   4.329   9.455
 7716POPC   PO429424  42.383   4.324   9.155
 7716POPC   GL129425  42.327   4.337   8.855
 7716POPC   GL229426  42.404   4.223   8.855
 7716POPC   C1A29427  42.327   4.331   8.555
 7716POPC   D2A29428  42.324   4.303   8.255
 7716POPC   C3A29429  42.355   4.366   7.955
 7716POPC   C4A29430  42.333   4.330   7.655
 7716POPC   C1B29431  42.483   4.131   8.555
 7716POPC   C2B29432  42.453   4.165   8.255
 7716POPC   C3B29433  42.547   4.138   7.955
 7716POPC   C4B29434  42.531   4.111   7.655
 7717POPC   NC329435  29.925  33.022   9.455
 7717POPC   PO429436  29.873  33.037   9.155
 7717POPC   GL129437  29.958  33.039   8.855
 7717POPC   GL229438  30.038  32.977   8.855
 7717POPC   C1A29439  29.878  33.041   8.555
 7717POPC   D2A29440  29.970  33.034   8.255
 7717POPC   C3A29441  29.919  33.001   7.955
 7717POPC   C4A29442  29.913  33.010   7.655
 7717POPC   C1B29443  30.133  32.861   8.555
 7717POPC   C2B29444  30.161  32.916   8.255
 7717POPC   C3B29445  30.141  32.834   7.955
 7717POPC   C4B29446  30.172  32.874   7.655
 7718POPC   NC329447  34.559  12.822   9.455
 7718POPC   PO429448  34.622  12.876   9.155
 7718POPC   GL129449  34.554  12.892   8.855
 7718POPC   GL229450  34.438  12.888   8.855
 7718POPC   C1A29451  34.584  12.847   8.555
 7718POPC   D2A29452  34.623  12.896   8.255
 7718POPC   C3A29453  34.560  12.900   7.955
 7718POPC   C4A29454  34.545  12.841   7.655
 7718POPC   C1B29455  34.350  12.965   8.555
 7718POPC   C2B29456  34.338  12.899   8.255
 7718POPC   C3B29457  34.335  12.971   7.955
 7718POPC   C4B29458  34.320  12.935   7.655
 7719POPC   NC329459  36.901  33.053   9.455
 7719POPC   PO429460  36.855  33.058   9.155
 7719POPC   GL129461  36.866  33.056   8.855
 7719POPC   GL229462  36.985  32.972   8.855
 7719POPC   C1A29463  36.869  33.011   8.555
 7719POPC   D2A29464  36.927  32.991   8.255
 7719POPC   C3A29465  36.869  33.046   7.955
 7719POPC   C4A29466  36.920  32.982   7.655
 7719POPC   C1B29467  37.137  33.022   8.555
 7719POPC   C2B29468  37.187  33.007   8.255
 7719POPC   C3B29469  37.201  32.958   7.955
 7719POPC   C4B29470  37.189  33.017   7.655
 7720POPC   NC329471  29.939   2.030   9.455
 7720POPC   PO429472  29.899   1.964   9.155
 7720POPC   GL129473  29.968   2.011   8.855
 7720POPC   GL229474  29.835   1.900   8.855
 7720POPC   C1A29475  29.964   2.019   8.555
 7720POPC   D2A29476  29.914   2.028   8.255
 7720POPC   C3A29477  29.901   2.002   7.955
 7720POPC   C4A29478  29.900   2.036   7.655
 7720POPC   C1B29479  29.659   1.896   8.555
 7720POPC   C2B29480  29.705   1.843   8.255
 7720POPC   C3B29481  29.682   1.885   7.955
 7720POPC   C4B29482  29.649   1.904   7.655
 7721POPC   NC329483   4.297  32.292   9.455
 7721POPC   PO429484   4.288  32.236   9.155
 7721POPC   GL129485   4.345  32.283   8.855
 7721POPC   GL229486   4.388  32.188   8.855
 7721POPC   C1A29487   4.288  32.234   8.555
 7721POPC   D2A29488   4.319  32.230   8.255
 7721POPC   C3A29489   4.356  32.221   7.955
 7721POPC   C4A29490   4.354  32.294   7.655
 7721POPC   C1B29491   4.467  32.085   8.555
 7721POPC   C2B29492   4.447  32.063   8.255
 7721POPC   C3B29493   4.481  32.039   7.955
 7721POPC   C4B29494   4.447  32.069   7.655
 7722POPC   NC329495   0.431   1.962   9.455
 7722POPC   PO429496   0.431   1.988   9.155
 7722POPC   GL129497   0.479   1.972   8.855
 7722POPC   GL229498   0.451   1.836   8.855
 7722POPC   C1A29499   0.400   1.990   8.555
 7722POPC   D2A29500   0.445   2.031   8.255
 7722POPC   C3A29501   0.388   1.948   7.955
 7722POPC   C4A29502   0.485   1.990   7.655
 7722POPC   C1B29503   0.534   1.715   8.555
 7722POPC   C2B29504   0.507   1.780   8.255
 7722POPC   C3B29505   0.530   1.747   7.955
 7722POPC   C4B29506   0.488   1.735   7.655
 7723POPC   NC329507   0.400  43.134   9.455
 7723POPC   PO429508   0.411  43.152   9.155
 7723POPC   GL129509   0.422  43.135   8.855
 7723POPC   GL229510   0.509  43.160   8.855
 7723POPC   C1A29511   0.441  43.073   8.555
 7723POPC   D2A29512   0.395  43.078   8.255
 7723POPC   C3A29513   0.424  43.132   7.955
 7723POPC   C4A29514   0.452  43.148   7.655
 7723POPC   C1B29515   0.684  43.203   8.555
 7723POPC   C2B29516   0.659  43.254   8.255
 7723POPC   C3B29517   0.632  43.211   7.955
 7723POPC   C4B29518   0.680  43.168   7.655
 7724POPC   NC329519   8.173   1.201   9.455
 7724POPC   PO429520   8.154   1.190   9.155
 7724POPC   GL129521   8.246   1.242   8.855
 7724POPC   GL229522   8.322   1.250   8.855
 7724POPC   C1A29523   8.224   1.193   8.555
 7724POPC   D2A29524   8.192   1.261   8.255
 7724POPC   C3A29525   8.163   1.259   7.955
 7724POPC   C4A29526   8.237   1.188   7.655
 7724POPC   C1B29527   8.410   1.232   8.555
 7724POPC   C2B29528   8.398   1.223   8.255
 7724POPC   C3B29529   8.414   1.219   7.955
 7724POPC   C4B29530   8.480   1.206   7.655
 7725POPC   NC329531  15.156  36.914   9.455
 7725POPC   PO429532  15.199  36.946   9.155
 7725POPC   GL129533  15.227  36.891   8.855
 7725POPC   GL229534  15.237  36.823   8.855
 7725POPC   C1A29535  15.130  36.923   8.555
 7725POPC   D2A29536  15.192  36.883   8.255
 7725POPC   C3A29537  15.197  36.901   7.955
 7725POPC   C4A29538  15.150  36.906   7.655
 7725POPC   C1B29539  15.359  36.745   8.555
 7725POPC   C2B29540  15.386  36.713   8.255
 7725POPC   C3B29541  15.358  36.671   7.955
 7725POPC   C4B29542  15.367  36.682   7.655
 7726POPC   NC329543  23.741  15.953   9.455
 7726POPC   PO429544  23.740  15.934   9.155
 7726POPC   GL129545  23.761  15.959   8.855
 7726POPC   GL229546  23.584  15.949   8.855
 7726POPC   C1A29547  23.697  15.955   8.555
 7726POPC   D2A29548  23.726  16.002   8.255
 7726POPC   C3A29549  23.690  15.976   7.955
 7726POPC   C4A29550  23.668  15.993   7.655
 7726POPC   C1B29551  23.467  15.881   8.555
 7726POPC   C2B29552  23.420  15.880   8.255
 7726POPC   C3B29553  23.513  15.877   7.955
 7726POPC   C4B29554  23.441  15.893   7.655
 7727POPC   NC329555  27.585  19.876   9.455
 7727POPC   PO429556  27.608  19.857   9.155
 7727POPC   GL129557  27.548  19.817   8.855
 7727POPC   GL229558  27.528  19.947   8.855
 7727POPC   C1A29559  27.578  19.823   8.555
 7727POPC   D2A29560  27.586  19.821   8.255
 7727POPC   C3A29561  27.546  19.821   7.955
 7727POPC   C4A29562  27.567  19.850   7.655
 7727POPC   C1B29563  27.418  20.048   8.555
 7727POPC   C2B29564  27.380  20.002   8.255
 7727POPC   C3B29565  27.442  19.987   7.955
 7727POPC   C4B29566  27.384  20.050   7.655
 7728POPC   NC329567  27.641  19.106   9.455
 7728POPC   PO429568  27.619  19.059   9.155
 7728POPC   GL129569  27.564  19.074   8.855
 7728POPC   GL229570  27.458  19.120   8.855
 7728POPC   C1A29571  27.629  19.057   8.555
 7728POPC   D2A29572  27.601  19.100   8.255
 7728POPC   C3A29573  27.604  19.035   7.955
 7728POPC   C4A29574  27.552  19.089   7.655
 7728POPC   C1B29575  27.386  19.283   8.555
 7728POPC   C2B29576  27.451  19.229   8.255
 7728POPC   C3B29577  27.451  19.193   7.955
 7728POPC   C4B29578  27.454  19.261   7.655
 7729POPC   NC329579  27.599  32.249   9.455
 7729POPC   PO429580  27.593  32.244   9.155
 7729POPC   GL129581  27.567  32.223   8.855
 7729POPC   GL229582  27.554  32.326   8.855
 7729POPC   C1A29583  27.600  32.222   8.555
 7729POPC   D2A29584  27.577  32.217   8.255
 7729POPC   C3A29585  27.606  32.260   7.955
 7729POPC   C4A29586  27.623  32.249   7.655
 7729POPC   C1B29587  27.499  32.445   8.555
 7729POPC   C2B29588  27.413  32.410   8.255
 7729POPC   C3B29589  27.472  32.445   7.955
 7729POPC   C4B29590  27.500  32.464   7.655
 7730POPC   NC329591  15.997  25.227   9.455
 7730POPC   PO429592  16.001  25.296   9.155
 7730POPC   GL129593  15.918  25.279   8.855
 7730POPC   GL229594  15.918  25.375   8.855
 7730POPC   C1A29595  15.993  25.270   8.555
 7730POPC   D2A29596  15.990  25.298   8.255
 7730POPC   C3A29597  15.970  25.233   7.955
 7730POPC   C4A29598  15.926  25.249   7.655
 7730POPC   C1B29599  15.867  25.524   8.555
 7730POPC   C2B29600  15.877  25.515   8.255
 7730POPC   C3B29601  15.936  25.484   7.955
 7730POPC   C4B29602  15.950  25.550   7.655
 7731POPC   NC329603   8.933  22.938   9.455
 7731POPC   PO429604   8.949  22.911   9.155
 7731POPC   GL129605   8.965  22.891   8.855
 7731POPC   GL229606   9.108  22.973   8.855
 7731POPC   C1A29607   8.952  22.896   8.555
 7731POPC   D2A29608   8.992  22.908   8.255
 7731POPC   C3A29609   8.927  22.937   7.955
 7731POPC   C4A29610   8.943  22.904   7.655
 7731POPC   C1B29611   9.185  22.891   8.555
 7731POPC   C2B29612   9.176  22.981   8.255
 7731POPC   C3B29613   9.243  22.985   7.955
 7731POPC   C4B29614   9.255  22.922   7.655
 7732POPC   NC329615  13.672  17.511   9.455
 7732POPC   PO429616  13.668  17.511   9.155
 7732POPC   GL129617  13.588  17.465   8.855
 7732POPC   GL229618  13.598  17.417   8.855
 7732POPC   C1A29619  13.664  17.522   8.555
 7732POPC   D2A29620  13.588  17.504   8.255
 7732POPC   C3A29621  13.624  17.535   7.955
 7732POPC   C4A29622  13.598  17.477   7.655
 7732POPC   C1B29623  13.610  17.272   8.555
 7732POPC   C2B29624  13.622  17.223   8.255
 7732POPC   C3B29625  13.599  17.288   7.955
 7732POPC   C4B29626  13.666  17.300   7.655
 7733POPC   NC329627   4.318  21.371   9.455
 7733POPC   PO429628   4.295  21.365   9.155
 7733POPC   GL129629   4.268  21.343   8.855
 7733POPC   GL229630   4.364  21.481   8.855
 7733POPC   C1A29631   4.278  21.388   8.555
 7733POPC   D2A29632   4.271  21.391   8.255
 7733POPC   C3A29633   4.270  21.435   7.955
 7733POPC   C4A29634   4.349  21.346   7.655
 7733POPC   C1B29635   4.350  21.637   8.555
 7733POPC   C2B29636   4.304  21.670   8.255
 7733POPC   C3B29637   4.335  21.683   7.955
 7733POPC   C4B29638   4.328  21.623   7.655
 7734POPC   NC329639  40.011   0.477   9.455
 7734POPC   PO429640  39.958   0.441   9.155
 7734POPC   GL129641  39.989   0.465   8.855
 7734POPC   GL229642  40.073   0.596   8.855
 7734POPC   C1A29643  40.014   0.466   8.555
 7734POPC   D2A29644  39.971   0.487   8.255
 7734POPC   C3A29645  40.046   0.416   7.955
 7734POPC   C4A29646  39.974   0.431   7.655
 7734POPC   C1B29647  40.099   0.690   8.555
 7734POPC   C2B29648  40.049   0.700   8.255
 7734POPC   C3B29649  40.104   0.668   7.955
 7734POPC   C4B29650  40.061   0.701   7.655
 7735POPC   NC329651   0.432  41.552   9.455
 7735POPC   PO429652   0.463  41.529   9.155
 7735POPC   GL129653   0.452  41.525   8.855
 7735POPC   GL229654   0.285  41.537   8.855
 7735POPC   C1A29655   0.405  41.553   8.555
 7735POPC   D2A29656   0.396  41.600   8.255
 7735POPC   C3A29657   0.413  41.545   7.955
 7735POPC   C4A29658   0.392  41.607   7.655
 7735POPC   C1B29659   0.176  41.485   8.555
 7735POPC   C2B29660   0.160  41.523   8.255
 7735POPC   C3B29661   0.173  41.472   7.955
 7735POPC   C4B29662   0.241  41.464   7.655
 7736POPC   NC329663  35.310  11.309   9.455
 7736POPC   PO429664  35.338  11.298   9.155
 7736POPC   GL129665  35.400  11.277   8.855
 7736POPC   GL229666  35.233  11.195   8.855
 7736POPC   C1A29667  35.347  11.347   8.555
 7736POPC   D2A29668  35.346  11.331   8.255
 7736POPC   C3A29669  35.391  11.344   7.955
 7736POPC   C4A29670  35.364  11.327   7.655
 7736POPC   C1B29671  35.168  11.071   8.555
 7736POPC   C2B29672  35.239  11.128   8.255
 7736POPC   C3B29673  35.195  11.083   7.955
 7736POPC   C4B29674  35.148  11.136   7.655
 7737POPC   NC329675  11.259  26.842   9.455
 7737POPC   PO429676  11.258  26.822   9.155
 7737POPC   GL129677  11.318  26.779   8.855
 7737POPC   GL229678  11.223  26.931   8.855
 7737POPC   C1A29679  11.281  26.858   8.555
 7737POPC   D2A29680  11.340  26.808   8.255
 7737POPC   C3A29681  11.311  26.776   7.955
 7737POPC   C4A29682  11.316  26.809   7.655
 7737POPC   C1B29683  11.215  27.070   8.555
 7737POPC   C2B29684  11.164  27.068   8.255
 7737POPC   C3B29685  11.199  27.091   7.955
 7737POPC   C4B29686  11.219  27.047   7.655
 7738POPC   NC329687  39.196   0.459   9.455
 7738POPC   PO429688  39.274   0.459   9.155
 7738POPC   GL129689  39.202   0.408   8.855
 7738POPC   GL229690  39.277   0.304   8.855
 7738POPC   C1A29691  39.187   0.479   8.555
 7738POPC   D2A29692  39.195   0.486   8.255
 7738POPC   C3A29693  39.215   0.446   7.955
 7738POPC   C4A29694  39.247   0.406   7.655
 7738POPC   C1B29695  39.303   0.206   8.555
 7738POPC   C2B29696  39.262   0.203   8.255
 7738POPC   C3B29697  39.274   0.155   7.955
 7738POPC   C4B29698  39.281   0.195   7.655
 7739POPC   NC329699  29.902  41.606   9.455
 7739POPC   PO429700  29.926  41.597   9.155
 7739POPC   GL129701  29.969  41.606   8.855
 7739POPC   GL229702  30.071  41.643   8.855
 7739POPC   C1A29703  29.931  41.574   8.555
 7739POPC   D2A29704  29.882  41.573   8.255
 7739POPC   C3A29705  29.880  41.542   7.955
 7739POPC   C4A29706  29.912  41.530   7.655
 7739POPC   C1B29707  30.114  41.690   8.555
 7739POPC   C2B29708  30.172  41.666   8.255
 7739POPC   C3B29709  30.145  41.660   7.955
 7739POPC   C4B29710  30.119  41.642   7.655
 7740POPC   NC329711  28.391  33.071   9.455
 7740POPC   PO429712  28.417  32.978   9.155
 7740POPC   GL129713  28.351  33.061   8.855
 7740POPC   GL229714  28.410  32.884   8.855
 7740POPC   C1A29715  28.363  32.998   8.555
 7740POPC   D2A29716  28.373  32.993   8.255
 7740POPC   C3A29717  28.374  33.035   7.955
 7740POPC   C4A29718  28.322  33.032   7.655
 7740POPC   C1B29719  28.406  32.751   8.555
 7740POPC   C2B29720  28.404  32.785   8.255
 7740POPC   C3B29721  28.446  32.754   7.955
 7740POPC   C4B29722  28.394  32.742   7.655
 7741POPC   NC329723   5.089  32.998   9.455
 7741POPC   PO429724   5.100  33.016   9.155
 7741POPC   GL129725   5.125  33.065   8.855
 7741POPC   GL229726   5.112  33.139   8.855
 7741POPC   C1A29727   5.104  32.985   8.555
 7741POPC   D2A29728   5.118  33.006   8.255
 7741POPC   C3A29729   5.118  33.029   7.955
 7741POPC   C4A29730   5.046  33.004   7.655
 7741POPC   C1B29731   5.037  33.267   8.555
 7741POPC   C2B29732   5.018  33.274   8.255
 7741POPC   C3B29733   5.023  33.226   7.955
 7741POPC   C4B29734   5.060  33.269   7.655
 7742POPC   NC329735   4.281  42.344   9.455
 7742POPC   PO429736   4.289  42.372   9.155
 7742POPC   GL129737   4.284  42.384   8.855
 7742POPC   GL229738   4.274  42.436   8.855
 7742POPC   C1A29739   4.324  42.343   8.555
 7742POPC   D2A29740   4.361  42.363   8.255
 7742POPC   C3A29741   4.347  42.304   7.955
 7742POPC   C4A29742   4.353  42.323   7.655
 7742POPC   C1B29743   4.237  42.532   8.555
 7742POPC   C2B29744   4.202  42.546   8.255
 7742POPC   C3B29745   4.219  42.573   7.955
 7742POPC   C4B29746   4.267  42.553   7.655
 7743POPC   NC329747   3.530  19.791   9.455
 7743POPC   PO429748   3.499  19.798   9.155
 7743POPC   GL129749   3.574  19.834   8.855
 7743POPC   GL229750   3.639  19.849   8.855
 7743POPC   C1A29751   3.585  19.788   8.555
 7743POPC   D2A29752   3.576  19.843   8.255
 7743POPC   C3A29753   3.525  19.806   7.955
 7743POPC   C4A29754   3.550  19.879   7.655
 7743POPC   C1B29755   3.738  19.958   8.555
 7743POPC   C2B29756   3.752  19.929   8.255
 7743POPC   C3B29757   3.726  19.925   7.955
 7743POPC   C4B29758   3.745  19.886   7.655
 7744POPC   NC329759  43.091  30.698   9.455
 7744POPC   PO429760  43.112  30.730   9.155
 7744POPC   GL129761  43.073  30.739   8.855
 7744POPC   GL229762  43.233  30.740   8.855
 7744POPC   C1A29763  43.119  30.684   8.555
 7744POPC   D2A29764  43.080  30.657   8.255
 7744POPC   C3A29765  43.113  30.679   7.955
 7744POPC   C4A29766  43.127  30.724   7.655
 7744POPC   C1B29767  43.392  30.716   8.555
 7744POPC   C2B29768  43.394  30.735   8.255
 7744POPC   C3B29769  43.380  30.709   7.955
 7744POPC   C4B29770  43.393  30.703   7.655
 7745POPC   NC329771  44.624  17.486   9.455
 7745POPC   PO429772  44.635  17.488   9.155
 7745POPC   GL129773  44.662  17.482   8.855
 7745POPC   GL229774  44.736  17.597   8.855
 7745POPC   C1A29775  44.673  17.504   8.555
 7745POPC   D2A29776  44.667  17.552   8.255
 7745POPC   C3A29777  44.666  17.524   7.955
 7745POPC   C4A29778  44.694  17.526   7.655
 7745POPC   C1B29779  44.813  17.749   8.555
 7745POPC   C2B29780  44.755  17.707   8.255
 7745POPC   C3B29781  44.806  17.728   7.955
 7745POPC   C4B29782  44.766  17.736   7.655
 7746POPC   NC329783  29.943  32.226   9.455
 7746POPC   PO429784  29.934  32.250   9.155
 7746POPC   GL129785  29.911  32.215   8.855
 7746POPC   GL229786  29.812  32.168   8.855
 7746POPC   C1A29787  29.941  32.291   8.555
 7746POPC   D2A29788  29.930  32.228   8.255
 7746POPC   C3A29789  29.876  32.208   7.955
 7746POPC   C4A29790  29.923  32.281   7.655
 7746POPC   C1B29791  29.687  32.110   8.555
 7746POPC   C2B29792  29.705  32.100   8.255
 7746POPC   C3B29793  29.703  32.071   7.955
 7746POPC   C4B29794  29.688  32.100   7.655
 7747POPC   NC329795  27.568   5.072   9.455
 7747POPC   PO429796  27.605   5.068   9.155
 7747POPC   GL129797  27.642   5.071   8.855
 7747POPC   GL229798  27.494   5.153   8.855
 7747POPC   C1A29799  27.547   5.063   8.555
 7747POPC   D2A29800  27.578   5.046   8.255
 7747POPC   C3A29801  27.627   5.078   7.955
 7747POPC   C4A29802  27.633   5.111   7.655
 7747POPC   C1B29803  27.401   5.142   8.555
 7747POPC   C2B29804  27.376   5.172   8.255
 7747POPC   C3B29805  27.371   5.127   7.955
 7747POPC   C4B29806  27.376   5.134   7.655
 7748POPC   NC329807  37.637  16.714   9.455
 7748POPC   PO429808  37.663  16.748   9.155
 7748POPC   GL129809  37.656  16.713   8.855
 7748POPC   GL229810  37.790  16.586   8.855
 7748POPC   C1A29811  37.685  16.725   8.555
 7748POPC   D2A29812  37.663  16.778   8.255
 7748POPC   C3A29813  37.653  16.721   7.955
 7748POPC   C4A29814  37.677  16.758   7.655
 7748POPC   C1B29815  37.857  16.506   8.555
 7748POPC   C2B29816  37.856  16.567   8.255
 7748POPC   C3B29817  37.852  16.543   7.955
 7748POPC   C4B29818  37.803  16.521   7.655
 7749POPC   NC329819  37.704   4.360   9.455
 7749POPC   PO429820  37.668   4.299   9.155
 7749POPC   GL129821  37.647   4.307   8.855
 7749POPC   GL229822  37.745   4.204   8.855
 7749POPC   C1A29823  37.692   4.268   8.555
 7749POPC   D2A29824  37.652   4.319   8.255
 7749POPC   C3A29825  37.652   4.367   7.955
 7749POPC   C4A29826  37.644   4.334   7.655
 7749POPC   C1B29827  37.899   4.169   8.555
 7749POPC   C2B29828  37.878   4.132   8.255
 7749POPC   C3B29829  37.841   4.153   7.955
 7749POPC   C4B29830  37.869   4.107   7.655
 7750POPC   NC329831  33.818  19.076   9.455
 7750POPC   PO429832  33.797  19.012   9.155
 7750POPC   GL129833  33.845  19.032   8.855
 7750POPC   GL229834  33.696  19.045   8.855
 7750POPC   C1A29835  33.761  19.067   8.555
 7750POPC   D2A29836  33.826  19.069   8.255
 7750POPC   C3A29837  33.841  19.070   7.955
 7750POPC   C4A29838  33.786  19.043   7.655
 7750POPC   C1B29839  33.522  19.047   8.555
 7750POPC   C2B29840  33.517  19.014   8.255
 7750POPC   C3B29841  33.546  19.050   7.955
 7750POPC   C4B29842  33.589  19.065   7.655
 7751POPC   NC329843  20.562   1.206   9.455
 7751POPC   PO429844  20.628   1.198   9.155
 7751POPC   GL129845  20.595   1.256   8.855
 7751POPC   GL229846  20.529   1.063   8.855
 7751POPC   C1A29847  20.577   1.204   8.555
 7751POPC   D2A29848  20.594   1.240   8.255
 7751POPC   C3A29849  20.576   1.165   7.955
 7751POPC   C4A29850  20.595   1.225   7.655
 7751POPC   C1B29851  20.478   0.937   8.555
 7751POPC   C2B29852  20.545   0.973   8.255
 7751POPC   C3B29853  20.549   0.937   7.955
 7751POPC   C4B29854  20.501   1.001   7.655
 7752POPC   NC329855  34.597  21.389   9.455
 7752POPC   PO429856  34.616  21.375   9.155
 7752POPC   GL129857  34.580  21.393   8.855
 7752POPC   GL229858  34.725  21.324   8.855
 7752POPC   C1A29859  34.557  21.420   8.555
 7752POPC   D2A29860  34.564  21.391   8.255
 7752POPC   C3A29861  34.528  21.399   7.955
 7752POPC   C4A29862  34.545  21.410   7.655
 7752POPC   C1B29863  34.745  21.295   8.555
 7752POPC   C2B29864  34.752  21.250   8.255
 7752POPC   C3B29865  34.797  21.272   7.955
 7752POPC   C4B29866  34.813  21.231   7.655
 7753POPC   NC329867  43.849   5.860   9.455
 7753POPC   PO429868  43.858   5.857   9.155
 7753POPC   GL129869  43.908   5.860   8.855
 7753POPC   GL229870  43.799   5.976   8.855
 7753POPC   C1A29871  43.902   5.912   8.555
 7753POPC   D2A29872  43.922   5.819   8.255
 7753POPC   C3A29873  43.839   5.839   7.955
 7753POPC   C4A29874  43.920   5.849   7.655
 7753POPC   C1B29875  43.826   6.069   8.555
 7753POPC   C2B29876  43.767   6.096   8.255
 7753POPC   C3B29877  43.791   6.087   7.955
 7753POPC   C4B29878  43.838   6.108   7.655
 7754POPC   NC329879   8.152  29.943   9.455
 7754POPC   PO429880   8.231  29.911   9.155
 7754POPC   GL129881   8.234  29.959   8.855
 7754POPC   GL229882   8.323  30.018   8.855
 7754POPC   C1A29883   8.176  29.959   8.555
 7754POPC   D2A29884   8.149  29.894   8.255
 7754POPC   C3A29885   8.198  29.880   7.955
 7754POPC   C4A29886   8.174  29.896   7.655
 7754POPC   C1B29887   8.440  30.042   8.555
 7754POPC   C2B29888   8.355  30.087   8.255
 7754POPC   C3B29889   8.373  30.084   7.955
 7754POPC   C4B29890   8.344  30.094   7.655
 7755POPC   NC329891  39.235  33.837   9.455
 7755POPC   PO429892  39.230  33.796   9.155
 7755POPC   GL129893  39.191  33.847   8.855
 7755POPC   GL229894  39.266  33.663   8.855
 7755POPC   C1A29895  39.258  33.811   8.555
 7755POPC   D2A29896  39.270  33.808   8.255
 7755POPC   C3A29897  39.182  33.804   7.955
 7755POPC   C4A29898  39.203  33.777   7.655
 7755POPC   C1B29899  39.258  33.570   8.555
 7755POPC   C2B29900  39.327  33.523   8.255
 7755POPC   C3B29901  39.261  33.526   7.955
 7755POPC   C4B29902  39.306  33.581   7.655
 7756POPC   NC329903  12.063   3.515   9.455
 7756POPC   PO429904  12.055   3.575   9.155
 7756POPC   GL129905  12.033   3.587   8.855
 7756POPC   GL229906  12.167   3.635   8.855
 7756POPC   C1A29907  12.063   3.497   8.555
 7756POPC   D2A29908  12.073   3.530   8.255
 7756POPC   C3A29909  12.089   3.539   7.955
 7756POPC   C4A29910  12.116   3.567   7.655
 7756POPC   C1B29911  12.137   3.741   8.555
 7756POPC   C2B29912  12.140   3.811   8.255
 7756POPC   C3B29913  12.139   3.729   7.955
 7756POPC   C4B29914  12.228   3.759   7.655
 7757POPC   NC329915  24.451  18.237   9.455
 7757POPC   PO429916  24.459  18.313   9.155
 7757POPC   GL129917  24.472  18.318   8.855
 7757POPC   GL229918  24.522  18.370   8.855
 7757POPC   C1A29919  24.495  18.317   8.555
 7757POPC   D2A29920  24.522  18.280   8.255
 7757POPC   C3A29921  24.453  18.242   7.955
 7757POPC   C4A29922  24.531  18.321   7.655
 7757POPC   C1B29923  24.522  18.572   8.555
 7757POPC   C2B29924  24.485  18.525   8.255
 7757POPC   C3B29925  24.451  18.531   7.955
 7757POPC   C4B29926  24.490  18.578   7.655
 7758POPC   NC329927  25.254   5.119   9.455
 7758POPC   PO429928  25.270   5.090   9.155
 7758POPC   GL129929  25.274   5.085   8.855
 7758POPC   GL229930  25.397   5.173   8.855
 7758POPC   C1A29931  25.230   5.130   8.555
 7758POPC   D2A29932  25.222   5.080   8.255
 7758POPC   C3A29933  25.272   5.113   7.955
 7758POPC   C4A29934  25.265   5.083   7.655
 7758POPC   C1B29935  25.535   5.172   8.555
 7758POPC   C2B29936  25.460   5.215   8.255
 7758POPC   C3B29937  25.518   5.161   7.955
 7758POPC   C4B29938  25.464   5.193   7.655
 7759POPC   NC329939   7.422  35.354   9.455
 7759POPC   PO429940   7.424  35.329   9.155
 7759POPC   GL129941   7.422  35.368   8.855
 7759POPC   GL229942   7.356  35.256   8.855
 7759POPC   C1A29943   7.421  35.355   8.555
 7759POPC   D2A29944   7.426  35.370   8.255
 7759POPC   C3A29945   7.409  35.322   7.955
 7759POPC   C4A29946   7.460  35.363   7.655
 7759POPC   C1B29947   7.280  35.120   8.555
 7759POPC   C2B29948   7.305  35.153   8.255
 7759POPC   C3B29949   7.254  35.127   7.955
 7759POPC   C4B29950   7.253  35.100   7.655
 7760POPC   NC329951  12.101  40.053   9.455
 7760POPC   PO429952  12.042  39.969   9.155
 7760POPC   GL129953  12.041  39.994   8.855
 7760POPC   GL229954  12.066  40.107   8.855
 7760POPC   C1A29955  12.083  39.968   8.555
 7760POPC   D2A29956  12.032  40.037   8.255
 7760POPC   C3A29957  12.120  40.011   7.955
 7760POPC   C4A29958  12.079  40.027   7.655
 7760POPC   C1B29959  11.969  40.259   8.555
 7760POPC   C2B29960  11.992  40.250   8.255
 7760POPC   C3B29961  11.941  40.220   7.955
 7760POPC   C4B29962  11.990  40.191   7.655
 7761POPC   NC329963  29.890  33.839   9.455
 7761POPC   PO429964  29.964  33.781   9.155
 7761POPC   GL129965  29.904  33.777   8.855
 7761POPC   GL229966  29.808  33.742   8.855
 7761POPC   C1A29967  29.931  33.757   8.555
 7761POPC   D2A29968  29.941  33.820   8.255
 7761POPC   C3A29969  29.944  33.755   7.955
 7761POPC   C4A29970  29.964  33.789   7.655
 7761POPC   C1B29971  29.691  33.704   8.555
 7761POPC   C2B29972  29.760  33.649   8.255
 7761POPC   C3B29973  29.674  33.689   7.955
 7761POPC   C4B29974  29.725  33.700   7.655
 7762POPC   NC329975  34.558  30.692   9.455
 7762POPC   PO429976  34.624  30.649   9.155
 7762POPC   GL129977  34.589  30.684   8.855
 7762POPC   GL229978  34.408  30.671   8.855
 7762POPC   C1A29979  34.569  30.708   8.555
 7762POPC   D2A29980  34.536  30.688   8.255
 7762POPC   C3A29981  34.593  30.669   7.955
 7762POPC   C4A29982  34.570  30.701   7.655
 7762POPC   C1B29983  34.372  30.612   8.555
 7762POPC   C2B29984  34.287  30.617   8.255
 7762POPC   C3B29985  34.313  30.641   7.955
 7762POPC   C4B29986  34.308  30.610   7.655
 7763POPC   NC329987  38.491  13.611   9.455
 7763POPC   PO429988  38.496  13.617   9.155
 7763POPC   GL129989  38.445  13.608   8.855
 7763POPC   GL229990  38.507  13.766   8.855
 7763POPC   C1A29991  38.485  13.636   8.555
 7763POPC   D2A29992  38.416  13.655   8.255
 7763POPC   C3A29993  38.482  13.625   7.955
 7763POPC   C4A29994  38.473  13.586   7.655
 7763POPC   C1B29995  38.604  13.838   8.555
 7763POPC   C2B29996  38.665  13.775   8.255
 7763POPC   C3B29997  38.661  13.804   7.955
 7763POPC   C4B29998  38.650  13.776   7.655
 7764POPC   NC329999  15.220  29.904   9.455
 7764POPC   PO430000  15.220  29.934   9.155
 7764POPC   GL130001  15.184  29.927   8.855
 7764POPC   GL230002  15.323  29.884   8.855
 7764POPC   C1A30003  15.219  29.957   8.555
 7764POPC   D2A30004  15.226  29.872   8.255
 7764POPC   C3A30005  15.170  29.898   7.955
 7764POPC   C4A30006  15.147  29.941   7.655
 7764POPC   C1B30007  15.422  29.781   8.555
 7764POPC   C2B30008  15.377  29.748   8.255
 7764POPC   C3B30009  15.361  29.780   7.955
 7764POPC   C4B30010  15.351  29.814   7.655
 7765POPC   NC330011  13.626  30.722   9.455
 7765POPC   PO430012  13.626  30.684   9.155
 7765POPC   GL130013  13.612  30.730   8.855
 7765POPC   GL230014  13.618  30.760   8.855
 7765POPC   C1A30015  13.659  30.731   8.555
 7765POPC   D2A30016  13.606  30.670   8.255
 7765POPC   C3A30017  13.622  30.702   7.955
 7765POPC   C4A30018  13.591  30.724   7.655
 7765POPC   C1B30019  13.468  30.936   8.555
 7765POPC   C2B30020  13.495  30.872   8.255
 7765POPC   C3B30021  13.461  30.900   7.955
 7765POPC   C4B30022  13.472  30.879   7.655
 7766POPC   NC330023  36.903  23.666   9.455
 7766POPC   PO430024  36.947  23.689   9.155
 7766POPC   GL130025  36.910  23.692   8.855
 7766POPC   GL230026  36.827  23.791   8.855
 7766POPC   C1A30027  36.948  23.723   8.555
 7766POPC   D2A30028  36.937  23.722   8.255
 7766POPC   C3A30029  36.895  23.720   7.955
 7766POPC   C4A30030  36.873  23.710   7.655
 7766POPC   C1B30031  36.801  23.904   8.555
 7766POPC   C2B30032  36.771  23.936   8.255
 7766POPC   C3B30033  36.721  23.927   7.955
 7766POPC   C4B30034  36.706  23.901   7.655
 7767POPC   NC330035  39.266  40.000   9.455
 7767POPC   PO430036  39.203  39.974   9.155
 7767POPC   GL130037  39.254  40.035   8.855
 7767POPC   GL230038  39.129  39.968   8.855
 7767POPC   C1A30039  39.271  39.990   8.555
 7767POPC   D2A30040  39.256  40.015   8.255
 7767POPC   C3A30041  39.212  39.967   7.955
 7767POPC   C4A30042  39.197  39.975   7.655
 7767POPC   C1B30043  38.973  39.942   8.555
 7767POPC   C2B30044  38.954  39.889   8.255
 7767POPC   C3B30045  38.962  39.932   7.955
 7767POPC   C4B30046  38.967  39.885   7.655
 7768POPC   NC330047  18.314  25.220   9.455
 7768POPC   PO430048  18.283  25.313   9.155
 7768POPC   GL130049  18.313  25.248   8.855
 7768POPC   GL230050  18.165  25.287   8.855
 7768POPC   C1A30051  18.292  25.268   8.555
 7768POPC   D2A30052  18.242  25.242   8.255
 7768POPC   C3A30053  18.270  25.312   7.955
 7768POPC   C4A30054  18.294  25.225   7.655
 7768POPC   C1B30055  18.082  25.364   8.555
 7768POPC   C2B30056  18.084  25.379   8.255
 7768POPC   C3B30057  18.020  25.406   7.955
 7768POPC   C4B30058  18.021  25.397   7.655
 7769POPC   NC330059   3.532   7.405   9.455
 7769POPC   PO430060   3.507   7.384   9.155
 7769POPC   GL130061   3.555   7.449   8.855
 7769POPC   GL230062   3.604   7.494   8.855
 7769POPC   C1A30063   3.562   7.451   8.555
 7769POPC   D2A30064   3.524   7.385   8.255
 7769POPC   C3A30065   3.570   7.459   7.955
 7769POPC   C4A30066   3.562   7.387   7.655
 7769POPC   C1B30067   3.670   7.610   8.555
 7769POPC   C2B30068   3.610   7.629   8.255
 7769POPC   C3B30069   3.675   7.684   7.955
 7769POPC   C4B30070   3.613   7.679   7.655
 7770POPC   NC330071  30.657   8.157   9.455
 7770POPC   PO430072  30.730   8.217   9.155
 7770POPC   GL130073  30.725   8.191   8.855
 7770POPC   GL230074  30.589   8.292   8.855
 7770POPC   C1A30075  30.668   8.209   8.555
 7770POPC   D2A30076  30.706   8.158   8.255
 7770POPC   C3A30077  30.736   8.154   7.955
 7770POPC   C4A30078  30.726   8.222   7.655
 7770POPC   C1B30079  30.451   8.287   8.555
 7770POPC   C2B30080  30.440   8.339   8.255
 7770POPC   C3B30081  30.522   8.270   7.955
 7770POPC   C4B30082  30.491   8.333   7.655
 7771POPC   NC330083   5.097  13.618   9.455
 7771POPC   PO430084   5.129  13.607   9.155
 7771POPC   GL130085   5.093  13.620   8.855
 7771POPC   GL230086   4.939  13.632   8.855
 7771POPC   C1A30087   5.083  13.603   8.555
 7771POPC   D2A30088   5.126  13.607   8.255
 7771POPC   C3A30089   5.048  13.646   7.955
 7771POPC   C4A30090   5.127  13.638   7.655
 7771POPC   C1B30091   4.798  13.651   8.555
 7771POPC   C2B30092   4.818  13.647   8.255
 7771POPC   C3B30093   4.838  13.662   7.955
 7771POPC   C4B30094   4.885  13.614   7.655
 7772POPC   NC330095  15.155  36.163   9.455
 7772POPC   PO430096  15.163  36.163   9.155
 7772POPC   GL130097  15.206  36.159   8.855
 7772POPC   GL230098  15.234  36.174   8.855
 7772POPC   C1A30099  15.206  36.082   8.555
 7772POPC   D2A30100  15.178  36.120   8.255
 7772POPC   C3A30101  15.135  36.163   7.955
 7772POPC   C4A30102  15.210  36.121   7.655
 7772POPC   C1B30103  15.398  36.340   8.555
 7772POPC   C2B30104  15.328  36.276   8.255
 7772POPC   C3B30105  15.304  36.275   7.955
 7772POPC   C4B30106  15.368  36.288   7.655
 7773POPC   NC330107  12.815  30.661   9.455
 7773POPC   PO430108  12.842  30.733   9.155
 7773POPC   GL130109  12.871  30.657   8.855
 7773POPC   GL230110  12.907  30.851   8.855
 7773POPC   C1A30111  12.833  30.724   8.555
 7773POPC   D2A30112  12.894  30.684   8.255
 7773POPC   C3A30113  12.880  30.673   7.955
 7773POPC   C4A30114  12.802  30.685   7.655
 7773POPC   C1B30115  12.983  30.880   8.555
 7773POPC   C2B30116  12.968  30.945   8.255
 7773POPC   C3B30117  12.905  30.888   7.955
 7773POPC   C4B30118  12.912  30.939   7.655
 7774POPC   NC330119  42.338  32.208   9.455
 7774POPC   PO430120  42.347  32.239   9.155
 7774POPC   GL130121  42.321  32.259   8.855
 7774POPC   GL230122  42.332  32.139   8.855
 7774POPC   C1A30123  42.367  32.212   8.555
 7774POPC   D2A30124  42.331  32.289   8.255
 7774POPC   C3A30125  42.364  32.224   7.955
 7774POPC   C4A30126  42.367  32.201   7.655
 7774POPC   C1B30127  42.262  31.966   8.555
 7774POPC   C2B30128  42.319  31.968   8.255
 7774POPC   C3B30129  42.300  31.963   7.955
 7774POPC   C4B30130  42.313  32.035   7.655
 7775POPC   NC330131   5.074  33.819   9.455
 7775POPC   PO430132   5.135  33.830   9.155
 7775POPC   GL130133   5.094  33.825   8.855
 7775POPC   GL230134   4.990  33.850   8.855
 7775POPC   C1A30135   5.043  33.754   8.555
 7775POPC   D2A30136   5.117  33.781   8.255
 7775POPC   C3A30137   5.044  33.803   7.955
 7775POPC   C4A30138   5.051  33.830   7.655
 7775POPC   C1B30139   4.808  33.877   8.555
 7775POPC   C2B30140   4.903  33.900   8.255
 7775POPC   C3B30141   4.829  33.838   7.955
 7775POPC   C4B30142   4.886  33.857   7.655
 7776POPC   NC330143  38.500  30.690   9.455
 7776POPC   PO430144  38.480  30.690   9.155
 7776POPC   GL130145  38.468  30.674   8.855
 7776POPC   GL230146  38.306  30.637   8.855
 7776POPC   C1A30147  38.471  30.681   8.555
 7776POPC   D2A30148  38.470  30.734   8.255
 7776POPC   C3A30149  38.505  30.691   7.955
 7776POPC   C4A30150  38.412  30.676   7.655
 7776POPC   C1B30151  38.207  30.605   8.555
 7776POPC   C2B30152  38.268  30.596   8.255
 7776POPC   C3B30153  38.207  30.595   7.955
 7776POPC   C4B30154  38.183  30.573   7.655
 7777POPC   NC330155   7.375  19.030   9.455
 7777POPC   PO430156   7.449  19.081   9.155
 7777POPC   GL130157   7.391  19.057   8.855
 7777POPC   GL230158   7.459  18.942   8.855
 7777POPC   C1A30159   7.453  19.076   8.555
 7777POPC   D2A30160   7.397  19.039   8.255
 7777POPC   C3A30161   7.426  19.043   7.955
 7777POPC   C4A30162   7.450  19.069   7.655
 7777POPC   C1B30163   7.454  18.769   8.555
 7777POPC   C2B30164   7.499  18.802   8.255
 7777POPC   C3B30165   7.510  18.857   7.955
 7777POPC   C4B30166   7.493  18.793   7.655
 7778POPC   NC330167  16.720   5.888   9.455
 7778POPC   PO430168  16.694   5.845   9.155
 7778POPC   GL130169  16.769   5.824   8.855
 7778POPC   GL230170  16.723   5.972   8.855
 7778POPC   C1A30171  16.781   5.867   8.555
 7778POPC   D2A30172  16.763   5.872   8.255
 7778POPC   C3A30173  16.725   5.879   7.955
 7778POPC   C4A30174  16.710   5.882   7.655
 7778POPC   C1B30175  16.684   6.118   8.555
 7778POPC   C2B30176  16.729   6.124   8.255
 7778POPC   C3B30177  16.696   6.160   7.955
 7778POPC   C4B30178  16.641   6.068   7.655
 7779POPC   NC330179  15.908  21.352   9.455
 7779POPC   PO430180  15.921  21.416   9.155
 7779POPC   GL130181  15.947  21.404   8.855
 7779POPC   GL230182  15.839  21.384   8.855
 7779POPC   C1A30183  15.910  21.433   8.555
 7779POPC   D2A30184  15.961  21.353   8.255
 7779POPC   C3A30185  15.958  21.338   7.955
 7779POPC   C4A30186  15.964  21.379   7.655
 7779POPC   C1B30187  15.739  21.438   8.555
 7779POPC   C2B30188  15.692  21.483   8.255
 7779POPC   C3B30189  15.678  21.463   7.955
 7779POPC   C4B30190  15.728  21.456   7.655
 7780POPC   NC330191  33.009   5.061   9.455
 7780POPC   PO430192  33.002   5.103   9.155
 7780POPC   GL130193  33.062   5.130   8.855
 7780POPC   GL230194  32.937   5.017   8.855
 7780POPC   C1A30195  33.071   5.076   8.555
 7780POPC   D2A30196  32.992   5.106   8.255
 7780POPC   C3A30197  33.043   5.134   7.955
 7780POPC   C4A30198  32.996   5.068   7.655
 7780POPC   C1B30199  32.877   4.911   8.555
 7780POPC   C2B30200  32.818   4.903   8.255
 7780POPC   C3B30201  32.849   4.883   7.955
 7780POPC   C4B30202  32.865   4.889   7.655
 7781POPC   NC330203  10.485  33.052   9.455
 7781POPC   PO430204  10.566  33.007   9.155
 7781POPC   GL130205  10.523  33.003   8.855
 7781POPC   GL230206  10.378  32.930   8.855
 7781POPC   C1A30207  10.483  33.006   8.555
 7781POPC   D2A30208  10.481  33.058   8.255
 7781POPC   C3A30209  10.500  33.014   7.955
 7781POPC   C4A30210  10.546  32.981   7.655
 7781POPC   C1B30211  10.266  32.966   8.555
 7781POPC   C2B30212  10.250  32.917   8.255
 7781POPC   C3B30213  10.332  32.950   7.955
 7781POPC   C4B30214  10.335  32.883   7.655
 7782POPC   NC330215  40.738  38.437   9.455
 7782POPC   PO430216  40.831  38.438   9.155
 7782POPC   GL130217  40.767  38.490   8.855
 7782POPC   GL230218  40.878  38.375   8.855
 7782POPC   C1A30219  40.749  38.444   8.555
 7782POPC   D2A30220  40.774  38.482   8.255
 7782POPC   C3A30221  40.772  38.408   7.955
 7782POPC   C4A30222  40.786  38.473   7.655
 7782POPC   C1B30223  41.035  38.392   8.555
 7782POPC   C2B30224  41.046  38.343   8.255
 7782POPC   C3B30225  40.977  38.385   7.955
 7782POPC   C4B30226  41.040  38.418   7.655
 7783POPC   NC330227  44.621  41.514   9.455
 7783POPC   PO430228  44.680  41.534   9.155
 7783POPC   GL130229  44.648  41.521   8.855
 7783POPC   GL230230  44.619  41.643   8.855
 7783POPC   C1A30231  44.614  41.527   8.555
 7783POPC   D2A30232  44.631  41.554   8.255
 7783POPC   C3A30233  44.626  41.566   7.955
 7783POPC   C4A30234  44.641  41.523   7.655
 7783POPC   C1B30235  44.510  41.793   8.555
 7783POPC   C2B30236  44.545  41.782   8.255
 7783POPC   C3B30237  44.525  41.809   7.955
 7783POPC   C4B30238  44.546  41.792   7.655
 7784POPC   NC330239  23.688   3.575   9.455
 7784POPC   PO430240  23.698   3.585   9.155
 7784POPC   GL130241  23.739   3.551   8.855
 7784POPC   GL230242  23.610   3.564   8.855
 7784POPC   C1A30243  23.747   3.589   8.555
 7784POPC   D2A30244  23.762   3.554   8.255
 7784POPC   C3A30245  23.733   3.556   7.955
 7784POPC   C4A30246  23.677   3.556   7.655
 7784POPC   C1B30247  23.448   3.643   8.555
 7784POPC   C2B30248  23.463   3.611   8.255
 7784POPC   C3B30249  23.442   3.637   7.955
 7784POPC   C4B30250  23.453   3.567   7.655
 7785POPC   NC330251   4.323  33.835   9.455
 7785POPC   PO430252   4.345  33.838   9.155
 7785POPC   GL130253   4.323  33.838   8.855
 7785POPC   GL230254   4.380  33.860   8.855
 7785POPC   C1A30255   4.319  33.807   8.555
 7785POPC   D2A30256   4.288  33.779   8.255
 7785POPC   C3A30257   4.350  33.848   7.955
 7785POPC   C4A30258   4.274  33.797   7.655
 7785POPC   C1B30259   4.495  34.016   8.555
 7785POPC   C2B30260   4.486  33.942   8.255
 7785POPC   C3B30261   4.534  33.994   7.955
 7785POPC   C4B30262   4.473  33.963   7.655
 7786POPC   NC330263   1.983  31.455   9.455
 7786POPC   PO430264   2.005  31.484   9.155
 7786POPC   GL130265   1.969  31.497   8.855
 7786POPC   GL230266   1.832  31.419   8.855
 7786POPC   C1A30267   2.032  31.482   8.555
 7786POPC   D2A30268   2.005  31.522   8.255
 7786POPC   C3A30269   2.038  31.481   7.955
 7786POPC   C4A30270   2.037  31.439   7.655
 7786POPC   C1B30271   1.737  31.414   8.555
 7786POPC   C2B30272   1.725  31.409   8.255
 7786POPC   C3B30273   1.732  31.402   7.955
 7786POPC   C4B30274   1.710  31.454   7.655
 7787POPC   NC330275  29.119  27.617   9.455
 7787POPC   PO430276  29.148  27.589   9.155
 7787POPC   GL130277  29.190  27.575   8.855
 7787POPC   GL230278  29.085  27.513   8.855
 7787POPC   C1A30279  29.139  27.568   8.555
 7787POPC   D2A30280  29.139  27.606   8.255
 7787POPC   C3A30281  29.165  27.625   7.955
 7787POPC   C4A30282  29.136  27.605   7.655
 7787POPC   C1B30283  29.138  27.370   8.555
 7787POPC   C2B30284  29.117  27.371   8.255
 7787POPC   C3B30285  29.141  27.324   7.955
 7787POPC   C4B30286  29.097  27.390   7.655
 7788POPC   NC330287   7.438  11.260   9.455
 7788POPC   PO430288   7.377  11.263   9.155
 7788POPC   GL130289   7.380  11.339   8.855
 7788POPC   GL230290   7.314  11.239   8.855
 7788POPC   C1A30291   7.442  11.300   8.555
 7788POPC   D2A30292   7.403  11.348   8.255
 7788POPC   C3A30293   7.373  11.258   7.955
 7788POPC   C4A30294   7.442  11.274   7.655
 7788POPC   C1B30295   7.186  11.144   8.555
 7788POPC   C2B30296   7.164  11.225   8.255
 7788POPC   C3B30297   7.162  11.193   7.955
 7788POPC   C4B30298   7.179  11.224   7.655
 7789POPC   NC330299   1.963  44.668   9.455
 7789POPC   PO430300   1.973  44.632   9.155
 7789POPC   GL130301   2.009  44.687   8.855
 7789POPC   GL230302   1.955  44.783   8.855
 7789POPC   C1A30303   2.024  44.659   8.555
 7789POPC   D2A30304   1.996  44.678   8.255
 7789POPC   C3A30305   1.992  44.626   7.955
 7789POPC   C4A30306   2.012  44.646   7.655
 7789POPC   C1B30307   1.961  44.941   8.555
 7789POPC   C2B30308   1.909  44.931   8.255
 7789POPC   C3B30309   1.952  44.872   7.955
 7789POPC   C4B30310   1.939  44.917   7.655
 7790POPC   NC330311  12.081  13.612   9.455
 7790POPC   PO430312  12.076  13.584   9.155
 7790POPC   GL130313  12.106  13.598   8.855
 7790POPC   GL230314  12.052  13.778   8.855
 7790POPC   C1A30315  12.030  13.671   8.555
 7790POPC   D2A30316  12.124  13.612   8.255
 7790POPC   C3A30317  12.069  13.662   7.955
 7790POPC   C4A30318  12.036  13.663   7.655
 7790POPC   C1B30319  12.000  13.885   8.555
 7790POPC   C2B30320  11.987  13.904   8.255
 7790POPC   C3B30321  12.016  13.898   7.955
 7790POPC   C4B30322  12.001  13.849   7.655
 7791POPC   NC330323  38.419   7.407   9.455
 7791POPC   PO430324  38.452   7.450   9.155
 7791POPC   GL130325  38.428   7.392   8.855
 7791POPC   GL230326  38.623   7.450   8.855
 7791POPC   C1A30327  38.428   7.426   8.555
 7791POPC   D2A30328  38.461   7.447   8.255
 7791POPC   C3A30329  38.500   7.453   7.955
 7791POPC   C4A30330  38.427   7.378   7.655
 7791POPC   C1B30331  38.744   7.399   8.555
 7791POPC   C2B30332  38.736   7.418   8.255
 7791POPC   C3B30333  38.673   7.369   7.955
 7791POPC   C4B30334  38.682   7.384   7.655
 7792POPC   NC330335   2.733   8.938   9.455
 7792POPC   PO430336   2.815   8.926   9.155
 7792POPC   GL130337   2.731   8.928   8.855
 7792POPC   GL230338   2.715   9.094   8.855
 7792POPC   C1A30339   2.789   8.959   8.555
 7792POPC   D2A30340   2.752   8.982   8.255
 7792POPC   C3A30341   2.780   8.969   7.955
 7792POPC   C4A30342   2.752   9.022   7.655
 7792POPC   C1B30343   2.734   9.181   8.555
 7792POPC   C2B30344   2.753   9.221   8.255
 7792POPC   C3B30345   2.753   9.188   7.955
 7792POPC   C4B30346   2.749   9.249   7.655
 7793POPC   NC330347   3.549  16.710   9.455
 7793POPC   PO430348   3.584  16.688   9.155
 7793POPC   GL130349   3.585  16.759   8.855
 7793POPC   GL230350   3.622  16.799   8.855
 7793POPC   C1A30351   3.524  16.780   8.555
 7793POPC   D2A30352   3.563  16.733   8.255
 7793POPC   C3A30353   3.565  16.756   7.955
 7793POPC   C4A30354   3.531  16.779   7.655
 7793POPC   C1B30355   3.767  16.822   8.555
 7793POPC   C2B30356   3.789  16.813   8.255
 7793POPC   C3B30357   3.729  16.845   7.955
 7793POPC   C4B30358   3.735  16.849   7.655
 7794POPC   NC330359  41.587   5.876   9.455
 7794POPC   PO430360  41.516   5.821   9.155
 7794POPC   GL130361  41.594   5.898   8.855
 7794POPC   GL230362  41.507   5.987   8.855
 7794POPC   C1A30363  41.582   5.849   8.555
 7794POPC   D2A30364  41.523   5.902   8.255
 7794POPC   C3A30365  41.606   5.845   7.955
 7794POPC   C4A30366  41.581   5.837   7.655
 7794POPC   C1B30367  41.574   6.082   8.555
 7794POPC   C2B30368  41.603   6.127   8.255
 7794POPC   C3B30369  41.520   6.072   7.955
 7794POPC   C4B30370  41.535   6.120   7.655
 7795POPC   NC330371   8.989  31.519   9.455
 7795POPC   PO430372   8.942  31.435   9.155
 7795POPC   GL130373   8.960  31.521   8.855
 7795POPC   GL230374   8.967  31.629   8.855
 7795POPC   C1A30375   9.011  31.458   8.555
 7795POPC   D2A30376   8.974  31.459   8.255
 7795POPC   C3A30377   8.962  31.497   7.955
 7795POPC   C4A30378   8.965  31.514   7.655
 7795POPC   C1B30379   8.971  31.707   8.555
 7795POPC   C2B30380   9.024  31.765   8.255
 7795POPC   C3B30381   8.969  31.713   7.955
 7795POPC   C4B30382   8.972  31.686   7.655
 7796POPC   NC330383  43.871   2.739   9.455
 7796POPC   PO430384  43.896   2.744   9.155
 7796POPC   GL130385  43.870   2.777   8.855
 7796POPC   GL230386  44.032   2.722   8.855
 7796POPC   C1A30387  43.906   2.768   8.555
 7796POPC   D2A30388  43.872   2.804   8.255
 7796POPC   C3A30389  43.849   2.716   7.955
 7796POPC   C4A30390  43.916   2.787   7.655
 7796POPC   C1B30391  44.073   2.622   8.555
 7796POPC   C2B30392  44.077   2.617   8.255
 7796POPC   C3B30393  44.125   2.653   7.955
 7796POPC   C4B30394  44.057   2.622   7.655
 7797POPC   NC330395  15.917  28.348   9.455
 7797POPC   PO430396  15.931  28.414   9.155
 7797POPC   GL130397  15.954  28.345   8.855
 7797POPC   GL230398  15.987  28.209   8.855
 7797POPC   C1A30399  15.934  28.406   8.555
 7797POPC   D2A30400  15.938  28.325   8.255
 7797POPC   C3A30401  15.995  28.327   7.955
 7797POPC   C4A30402  15.946  28.385   7.655
 7797POPC   C1B30403  15.931  28.151   8.555
 7797POPC   C2B30404  15.908  28.078   8.255
 7797POPC   C3B30405  15.958  28.154   7.955
 7797POPC   C4B30406  15.948  28.169   7.655
 7798POPC   NC330407   6.649  15.909   9.455
 7798POPC   PO430408   6.659  15.909   9.155
 7798POPC   GL130409   6.608  15.996   8.855
 7798POPC   GL230410   6.565  16.008   8.855
 7798POPC   C1A30411   6.631  15.977   8.555
 7798POPC   D2A30412   6.680  15.945   8.255
 7798POPC   C3A30413   6.606  15.995   7.955
 7798POPC   C4A30414   6.650  15.963   7.655
 7798POPC   C1B30415   6.373  16.059   8.555
 7798POPC   C2B30416   6.381  16.034   8.255
 7798POPC   C3B30417   6.423  16.074   7.955
 7798POPC   C4B30418   6.437  16.042   7.655
 7799POPC   NC330419  40.771  29.112   9.455
 7799POPC   PO430420  40.814  29.123   9.155
 7799POPC   GL130421  40.797  29.147   8.855
 7799POPC   GL230422  40.824  29.073   8.855
 7799POPC   C1A30423  40.768  29.120   8.555
 7799POPC   D2A30424  40.740  29.149   8.255
 7799POPC   C3A30425  40.803  29.162   7.955
 7799POPC   C4A30426  40.773  29.102   7.655
 7799POPC   C1B30427  40.966  28.916   8.555
 7799POPC   C2B30428  40.952  28.913   8.255
 7799POPC   C3B30429  40.986  28.985   7.955
 7799POPC   C4B30430  40.949  28.973   7.655
 7800POPC   NC330431   8.189  35.400   9.455
 7800POPC   PO430432   8.213  35.340   9.155
 7800POPC   GL130433   8.172  35.384   8.855
 7800POPC   GL230434   8.098  35.458   8.855
 7800POPC   C1A30435   8.240  35.302   8.555
 7800POPC   D2A30436   8.168  35.355   8.255
 7800POPC   C3A30437   8.230  35.355   7.955
 7800POPC   C4A30438   8.211  35.353   7.655
 7800POPC   C1B30439   8.039  35.606   8.555
 7800POPC   C2B30440   8.036  35.575   8.255
 7800POPC   C3B30441   8.106  35.518   7.955
 7800POPC   C4B30442   8.103  35.596   7.655
 7801POPC   NC330443   5.829  10.553   9.455
 7801POPC   PO430444   5.882  10.515   9.155
 7801POPC   GL130445   5.895  10.529   8.855
 7801POPC   GL230446   5.967  10.653   8.855
 7801POPC   C1A30447   5.864  10.516   8.555
 7801POPC   D2A30448   5.864  10.497   8.255
 7801POPC   C3A30449   5.884  10.481   7.955
 7801POPC   C4A30450   5.911  10.504   7.655
 7801POPC   C1B30451   5.964  10.735   8.555
 7801POPC   C2B30452   5.996  10.731   8.255
 7801POPC   C3B30453   5.976  10.745   7.955
 7801POPC   C4B30454   5.927  10.736   7.655
 7802POPC   NC330455  32.203  31.451   9.455
 7802POPC   PO430456  32.298  31.496   9.155
 7802POPC   GL130457  32.285  31.443   8.855
 7802POPC   GL230458  32.363  31.609   8.855
 7802POPC   C1A30459  32.279  31.508   8.555
 7802POPC   D2A30460  32.282  31.454   8.255
 7802POPC   C3A30461  32.248  31.429   7.955
 7802POPC   C4A30462  32.271  31.499   7.655
 7802POPC   C1B30463  32.469  31.662   8.555
 7802POPC   C2B30464  32.430  31.623   8.255
 7802POPC   C3B30465  32.430  31.643   7.955
 7802POPC   C4B30466  32.375  31.689   7.655
 7803POPC   NC330467  15.975  34.568   9.455
 7803POPC   PO430468  15.928  34.545   9.155
 7803POPC   GL130469  15.974  34.608   8.855
 7803POPC   GL230470  16.029  34.519   8.855
 7803POPC   C1A30471  15.999  34.543   8.555
 7803POPC   D2A30472  15.953  34.562   8.255
 7803POPC   C3A30473  15.919  34.527   7.955
 7803POPC   C4A30474  15.955  34.593   7.655
 7803POPC   C1B30475  16.125  34.414   8.555
 7803POPC   C2B30476  16.200  34.435   8.255
 7803POPC   C3B30477  16.176  34.407   7.955
 7803POPC   C4B30478  16.128  34.446   7.655
 7804POPC   NC330479  37.704  21.342   9.455
 7804POPC   PO430480  37.702  21.383   9.155
 7804POPC   GL130481  37.655  21.344   8.855
 7804POPC   GL230482  37.738  21.249   8.855
 7804POPC   C1A30483  37.630  21.387   8.555
 7804POPC   D2A30484  37.710  21.426   8.255
 7804POPC   C3A30485  37.647  21.357   7.955
 7804POPC   C4A30486  37.671  21.371   7.655
 7804POPC   C1B30487  37.868  21.180   8.555
 7804POPC   C2B30488  37.842  21.190   8.255
 7804POPC   C3B30489  37.859  21.162   7.955
 7804POPC   C4B30490  37.788  21.211   7.655
 7805POPC   NC330491  19.845   2.800   9.455
 7805POPC   PO430492  19.880   2.799   9.155
 7805POPC   GL130493  19.819   2.807   8.855
 7805POPC   GL230494  19.924   2.690   8.855
 7805POPC   C1A30495  19.800   2.757   8.555
 7805POPC   D2A30496  19.800   2.760   8.255
 7805POPC   C3A30497  19.869   2.781   7.955
 7805POPC   C4A30498  19.833   2.725   7.655
 7805POPC   C1B30499  20.024   2.699   8.555
 7805POPC   C2B30500  20.112   2.724   8.255
 7805POPC   C3B30501  20.025   2.654   7.955
 7805POPC   C4B30502  20.054   2.729   7.655
 7806POPC   NC330503  14.402  35.333   9.455
 7806POPC   PO430504  14.373  35.361   9.155
 7806POPC   GL130505  14.422  35.392   8.855
 7806POPC   GL230506  14.500  35.232   8.855
 7806POPC   C1A30507  14.391  35.391   8.555
 7806POPC   D2A30508  14.370  35.323   8.255
 7806POPC   C3A30509  14.362  35.393   7.955
 7806POPC   C4A30510  14.438  35.372   7.655
 7806POPC   C1B30511  14.498  35.174   8.555
 7806POPC   C2B30512  14.486  35.146   8.255
 7806POPC   C3B30513  14.550  35.182   7.955
 7806POPC   C4B30514  14.563  35.158   7.655
 7807POPC   NC330515  38.475  24.489   9.455
 7807POPC   PO430516  38.483  24.525   9.155
 7807POPC   GL130517  38.476  24.534   8.855
 7807POPC   GL230518  38.441  24.403   8.855
 7807POPC   C1A30519  38.413  24.456   8.555
 7807POPC   D2A30520  38.416  24.479   8.255
 7807POPC   C3A30521  38.460  24.455   7.955
 7807POPC   C4A30522  38.439  24.459   7.655
 7807POPC   C1B30523  38.408  24.289   8.555
 7807POPC   C2B30524  38.382  24.231   8.255
 7807POPC   C3B30525  38.404  24.251   7.955
 7807POPC   C4B30526  38.455  24.200   7.655
 7808POPC   NC330527  32.208   0.475   9.455
 7808POPC   PO430528  32.254   0.475   9.155
 7808POPC   GL130529  32.257   0.442   8.855
 7808POPC   GL230530  32.356   0.516   8.855
 7808POPC   C1A30531  32.232   0.444   8.555
 7808POPC   D2A30532  32.259   0.468   8.255
 7808POPC   C3A30533  32.230   0.446   7.955
 7808POPC   C4A30534  32.247   0.430   7.655
 7808POPC   C1B30535  32.466   0.544   8.555
 7808POPC   C2B30536  32.473   0.472   8.255
 7808POPC   C3B30537  32.448   0.487   7.955
 7808POPC   C4B30538  32.445   0.543   7.655
 7809POPC   NC330539  20.614  29.167   9.455
 7809POPC   PO430540  20.602  29.141   9.155
 7809POPC   GL130541  20.594  29.097   8.855
 7809POPC   GL230542  20.534  29.232   8.855
 7809POPC   C1A30543  20.588  29.175   8.555
 7809POPC   D2A30544  20.612  29.136   8.255
 7809POPC   C3A30545  20.586  29.102   7.955
 7809POPC   C4A30546  20.658  29.133   7.655
 7809POPC   C1B30547  20.425  29.259   8.555
 7809POPC   C2B30548  20.466  29.304   8.255
 7809POPC   C3B30549  20.408  29.291   7.955
 7809POPC   C4B30550  20.459  29.261   7.655
 7810POPC   NC330551   9.022  19.809   9.455
 7810POPC   PO430552   8.998  19.878   9.155
 7810POPC   GL130553   8.928  19.806   8.855
 7810POPC   GL230554   8.903  19.908   8.855
 7810POPC   C1A30555   8.997  19.845   8.555
 7810POPC   D2A30556   8.936  19.833   8.255
 7810POPC   C3A30557   8.962  19.859   7.955
 7810POPC   C4A30558   8.928  19.856   7.655
 7810POPC   C1B30559   8.715  19.905   8.555
 7810POPC   C2B30560   8.759  19.972   8.255
 7810POPC   C3B30561   8.780  19.939   7.955
 7810POPC   C4B30562   8.762  19.986   7.655
 7811POPC   NC330563  13.647  23.748   9.455
 7811POPC   PO430564  13.634  23.674   9.155
 7811POPC   GL130565  13.602  23.733   8.855
 7811POPC   GL230566  13.476  23.681   8.855
 7811POPC   C1A30567  13.613  23.761   8.555
 7811POPC   D2A30568  13.645  23.714   8.255
 7811POPC   C3A30569  13.627  23.732   7.955
 7811POPC   C4A30570  13.657  23.690   7.655
 7811POPC   C1B30571  13.431  23.652   8.555
 7811POPC   C2B30572  13.336  23.624   8.255
 7811POPC   C3B30573  13.333  23.674   7.955
 7811POPC   C4B30574  13.362  23.658   7.655
 7812POPC   NC330575  30.697  15.933   9.455
 7812POPC   PO430576  30.699  15.996   9.155
 7812POPC   GL130577  30.737  15.990   8.855
 7812POPC   GL230578  30.849  15.932   8.855
 7812POPC   C1A30579  30.668  15.964   8.555
 7812POPC   D2A30580  30.668  15.909   8.255
 7812POPC   C3A30581  30.650  15.905   7.955
 7812POPC   C4A30582  30.658  15.971   7.655
 7812POPC   C1B30583  30.958  15.897   8.555
 7812POPC   C2B30584  30.899  15.962   8.255
 7812POPC   C3B30585  30.930  15.893   7.955
 7812POPC   C4B30586  30.994  15.893   7.655
 7813POPC   NC330587  15.947  22.939   9.455
 7813POPC   PO430588  15.986  22.965   9.155
 7813POPC   GL130589  15.928  22.931   8.855
 7813POPC   GL230590  15.804  22.873   8.855
 7813POPC   C1A30591  15.919  22.935   8.555
 7813POPC   D2A30592  15.955  22.934   8.255
 7813POPC   C3A30593  16.005  22.894   7.955
 7813POPC   C4A30594  15.932  22.926   7.655
 7813POPC   C1B30595  15.757  22.809   8.555
 7813POPC   C2B30596  15.687  22.808   8.255
 7813POPC   C3B30597  15.689  22.810   7.955
 7813POPC   C4B30598  15.713  22.883   7.655
 7814POPC   NC330599  25.279  44.687   9.455
 7814POPC   PO430600  25.303  44.642   9.155
 7814POPC   GL130601  25.254  44.629   8.855
 7814POPC   GL230602  25.373  44.627   8.855
 7814POPC   C1A30603  25.285  44.706   8.555
 7814POPC   D2A30604  25.245  44.699   8.255
 7814POPC   C3A30605  25.236  44.627   7.955
 7814POPC   C4A30606  25.281  44.642   7.655
 7814POPC   C1B30607  25.491  44.491   8.555
 7814POPC   C2B30608  25.480  44.476   8.255
 7814POPC   C3B30609  25.504  44.505   7.955
 7814POPC   C4B30610  25.438  44.534   7.655
 7815POPC   NC330611  33.783   4.340   9.455
 7815POPC   PO430612  33.838   4.365   9.155
 7815POPC   GL130613  33.775   4.361   8.855
 7815POPC   GL230614  33.655   4.268   8.855
 7815POPC   C1A30615  33.793   4.293   8.555
 7815POPC   D2A30616  33.843   4.337   8.255
 7815POPC   C3A30617  33.769   4.280   7.955
 7815POPC   C4A30618  33.768   4.301   7.655
 7815POPC   C1B30619  33.604   4.260   8.555
 7815POPC   C2B30620  33.550   4.273   8.255
 7815POPC   C3B30621  33.596   4.220   7.955
 7815POPC   C4B30622  33.559   4.285   7.655
 7816POPC   NC330623  36.091  30.729   9.455
 7816POPC   PO430624  36.152  30.689   9.155
 7816POPC   GL130625  36.129  30.664   8.855
 7816POPC   GL230626  36.237  30.726   8.855
 7816POPC   C1A30627  36.100  30.653   8.555
 7816POPC   D2A30628  36.162  30.701   8.255
 7816POPC   C3A30629  36.132  30.693   7.955
 7816POPC   C4A30630  36.126  30.719   7.655
 7816POPC   C1B30631  36.305  30.792   8.555
 7816POPC   C2B30632  36.349  30.845   8.255
 7816POPC   C3B30633  36.388  30.825   7.955
 7816POPC   C4B30634  36.334  30.799   7.655
 7817POPC   NC330635  40.038  39.257   9.455
 7817POPC   PO430636  39.957  39.200   9.155
 7817POPC   GL130637  40.023  39.262   8.855
 7817POPC   GL230638  40.007  39.141   8.855
 7817POPC   C1A30639  40.028  39.228   8.555
 7817POPC   D2A30640  40.027  39.257   8.255
 7817POPC   C3A30641  40.013  39.266   7.955
 7817POPC   C4A30642  40.019  39.206   7.655
 7817POPC   C1B30643  40.081  38.994   8.555
 7817POPC   C2B30644  40.033  39.025   8.255
 7817POPC   C3B30645  40.051  38.994   7.955
 7817POPC   C4B30646  40.046  38.948   7.655
 7818POPC   NC330647  12.073  23.680   9.455
 7818POPC   PO430648  12.067  23.752   9.155
 7818POPC   GL130649  12.119  23.691   8.855
 7818POPC   GL230650  11.928  23.716   8.855
 7818POPC   C1A30651  12.029  23.717   8.555
 7818POPC   D2A30652  12.044  23.667   8.255
 7818POPC   C3A30653  12.072  23.721   7.955
 7818POPC   C4A30654  12.086  23.737   7.655
 7818POPC   C1B30655  11.819  23.637   8.555
 7818POPC   C2B30656  11.805  23.590   8.255
 7818POPC   C3B30657  11.836  23.571   7.955
 7818POPC   C4B30658  11.891  23.629   7.655
 7819POPC   NC330659   2.748  36.951   9.455
 7819POPC   PO430660   2.806  36.898   9.155
 7819POPC   GL130661   2.797  36.916   8.855
 7819POPC   GL230662   2.663  36.959   8.855
 7819POPC   C1A30663   2.724  36.908   8.555
 7819POPC   D2A30664   2.809  36.947   8.255
 7819POPC   C3A30665   2.790  36.936   7.955
 7819POPC   C4A30666   2.777  36.938   7.655
 7819POPC   C1B30667   2.529  37.102   8.555
 7819POPC   C2B30668   2.544  37.104   8.255
 7819POPC   C3B30669   2.578  37.023   7.955
 7819POPC   C4B30670   2.602  37.041   7.655
 7820POPC   NC330671  37.650  12.815   9.455
 7820POPC   PO430672  37.696  12.871   9.155
 7820POPC   GL130673  37.715  12.852   8.855
 7820POPC   GL230674  37.777  12.749   8.855
 7820POPC   C1A30675  37.728  12.837   8.555
 7820POPC   D2A30676  37.696  12.863   8.255
 7820POPC   C3A30677  37.633  12.867   7.955
 7820POPC   C4A30678  37.709  12.819   7.655
 7820POPC   C1B30679  37.746  12.595   8.555
 7820POPC   C2B30680  37.794  12.587   8.255
 7820POPC   C3B30681  37.814  12.676   7.955
 7820POPC   C4B30682  37.828  12.597   7.655
 7821POPC   NC330683   4.310  40.803   9.455
 7821POPC   PO430684   4.288  40.801   9.155
 7821POPC   GL130685   4.289  40.807   8.855
 7821POPC   GL230686   4.403  40.650   8.855
 7821POPC   C1A30687   4.277  40.803   8.555
 7821POPC   D2A30688   4.339  40.778   8.255
 7821POPC   C3A30689   4.300  40.815   7.955
 7821POPC   C4A30690   4.311  40.776   7.655
 7821POPC   C1B30691   4.510  40.580   8.555
 7821POPC   C2B30692   4.491  40.571   8.255
 7821POPC   C3B30693   4.447  40.572   7.955
 7821POPC   C4B30694   4.518  40.617   7.655
 7822POPC   NC330695  28.373  11.347   9.455
 7822POPC   PO430696  28.412  11.264   9.155
 7822POPC   GL130697  28.399  11.332   8.855
 7822POPC   GL230698  28.422  11.423   8.855
 7822POPC   C1A30699  28.333  11.333   8.555
 7822POPC   D2A30700  28.407  11.290   8.255
 7822POPC   C3A30701  28.400  11.347   7.955
 7822POPC   C4A30702  28.341  11.329   7.655
 7822POPC   C1B30703  28.510  11.454   8.555
 7822POPC   C2B30704  28.590  11.497   8.255
 7822POPC   C3B30705  28.497  11.484   7.955
 7822POPC   C4B30706  28.540  11.436   7.655
 7823POPC   NC330707  43.128  11.326   9.455
 7823POPC   PO430708  43.089  11.327   9.155
 7823POPC   GL130709  43.158  11.289   8.855
 7823POPC   GL230710  43.054  11.450   8.855
 7823POPC   C1A30711  43.148  11.300   8.555
 7823POPC   D2A30712  43.114  11.289   8.255
 7823POPC   C3A30713  43.075  11.283   7.955
 7823POPC   C4A30714  43.073  11.298   7.655
 7823POPC   C1B30715  43.050  11.525   8.555
 7823POPC   C2B30716  42.984  11.540   8.255
 7823POPC   C3B30717  43.056  11.524   7.955
 7823POPC   C4B30718  43.019  11.542   7.655
 7824POPC   NC330719  39.972  42.337   9.455
 7824POPC   PO430720  40.002  42.317   9.155
 7824POPC   GL130721  40.044  42.297   8.855
 7824POPC   GL230722  40.067  42.451   8.855
 7824POPC   C1A30723  40.047  42.337   8.555
 7824POPC   D2A30724  40.052  42.374   8.255
 7824POPC   C3A30725  40.039  42.350   7.955
 7824POPC   C4A30726  40.010  42.326   7.655
 7824POPC   C1B30727  40.229  42.424   8.555
 7824POPC   C2B30728  40.192  42.424   8.255
 7824POPC   C3B30729  40.180  42.476   7.955
 7824POPC   C4B30730  40.172  42.441   7.655
 7825POPC   NC330731  35.373  19.015   9.455
 7825POPC   PO430732  35.333  19.012   9.155
 7825POPC   GL130733  35.366  19.034   8.855
 7825POPC   GL230734  35.325  19.210   8.855
 7825POPC   C1A30735  35.393  19.043   8.555
 7825POPC   D2A30736  35.395  19.038   8.255
 7825POPC   C3A30737  35.328  19.024   7.955
 7825POPC   C4A30738  35.353  19.069   7.655
 7825POPC   C1B30739  35.204  19.254   8.555
 7825POPC   C2B30740  35.261  19.260   8.255
 7825POPC   C3B30741  35.252  19.251   7.955
 7825POPC   C4B30742  35.284  19.270   7.655
 7826POPC   NC330743  11.307  42.380   9.455
 7826POPC   PO430744  11.270  42.381   9.155
 7826POPC   GL130745  11.316  42.377   8.855
 7826POPC   GL230746  11.173  42.241   8.855
 7826POPC   C1A30747  11.298  42.369   8.555
 7826POPC   D2A30748  11.279  42.311   8.255
 7826POPC   C3A30749  11.343  42.323   7.955
 7826POPC   C4A30750  11.341  42.366   7.655
 7826POPC   C1B30751  11.084  42.134   8.555
 7826POPC   C2B30752  11.085  42.138   8.255
 7826POPC   C3B30753  11.161  42.176   7.955
 7826POPC   C4B30754  11.167  42.191   7.655
 7827POPC   NC330755   1.204  44.657   9.455
 7827POPC   PO430756   1.210  44.673   9.155
 7827POPC   GL130757   1.248  44.650   8.855
 7827POPC   GL230758   1.083  44.587   8.855
 7827POPC   C1A30759   1.199  44.645   8.555
 7827POPC   D2A30760   1.194  44.696   8.255
 7827POPC   C3A30761   1.236  44.638   7.955
 7827POPC   C4A30762   1.257  44.617   7.655
 7827POPC   C1B30763   1.006  44.575   8.555
 7827POPC   C2B30764   0.983  44.649   8.255
 7827POPC   C3B30765   0.983  44.629   7.955
 7827POPC   C4B30766   0.955  44.605   7.655
 7828POPC   NC330767  22.940  15.137   9.455
 7828POPC   PO430768  22.894  15.154   9.155
 7828POPC   GL130769  22.985  15.155   8.855
 7828POPC   GL230770  22.926  15.275   8.855
 7828POPC   C1A30771  22.905  15.215   8.555
 7828POPC   D2A30772  22.988  15.132   8.255
 7828POPC   C3A30773  22.955  15.150   7.955
 7828POPC   C4A30774  22.976  15.204   7.655
 7828POPC   C1B30775  22.931  15.453   8.555
 7828POPC   C2B30776  22.896  15.446   8.255
 7828POPC   C3B30777  22.891  15.454   7.955
 7828POPC   C4B30778  22.877  15.466   7.655
 7829POPC   NC330779  26.073  30.680   9.455
 7829POPC   PO430780  26.014  30.679   9.155
 7829POPC   GL130781  26.044  30.689   8.855
 7829POPC   GL230782  25.980  30.535   8.855
 7829POPC   C1A30783  26.031  30.691   8.555
 7829POPC   D2A30784  26.020  30.672   8.255
 7829POPC   C3A30785  26.066  30.656   7.955
 7829POPC   C4A30786  26.025  30.684   7.655
 7829POPC   C1B30787  25.969  30.459   8.555
 7829POPC   C2B30788  25.989  30.445   8.255
 7829POPC   C3B30789  25.993  30.462   7.955
 7829POPC   C4B30790  26.010  30.421   7.655
 7830POPC   NC330791   8.234  39.991   9.455
 7830POPC   PO430792   8.158  40.019   9.155
 7830POPC   GL130793   8.200  40.011   8.855
 7830POPC   GL230794   8.265  39.875   8.855
 7830POPC   C1A30795   8.193  40.012   8.555
 7830POPC   D2A30796   8.234  40.021   8.255
 7830POPC   C3A30797   8.180  40.021   7.955
 7830POPC   C4A30798   8.215  40.016   7.655
 7830POPC   C1B30799   8.232  39.754   8.555
 7830POPC   C2B30800   8.278  39.776   8.255
 7830POPC   C3B30801   8.266  39.739   7.955
 7830POPC   C4B30802   8.250  39.790   7.655
 7831POPC   NC330803  10.553  23.675   9.455
 7831POPC   PO430804  10.545  23.720   9.155
 7831POPC   GL130805  10.538  23.688   8.855
 7831POPC   GL230806  10.450  23.781   8.855
 7831POPC   C1A30807  10.554  23.689   8.555
 7831POPC   D2A30808  10.515  23.745   8.255
 7831POPC   C3A30809  10.564  23.682   7.955
 7831POPC   C4A30810  10.551  23.721   7.655
 7831POPC   C1B30811  10.323  23.838   8.555
 7831POPC   C2B30812  10.310  23.862   8.255
 7831POPC   C3B30813  10.304  23.869   7.955
 7831POPC   C4B30814  10.390  23.923   7.655
 7832POPC   NC330815  29.120  32.237   9.455
 7832POPC   PO430816  29.174  32.254   9.155
 7832POPC   GL130817  29.190  32.202   8.855
 7832POPC   GL230818  29.155  32.148   8.855
 7832POPC   C1A30819  29.141  32.243   8.555
 7832POPC   D2A30820  29.155  32.234   8.255
 7832POPC   C3A30821  29.181  32.275   7.955
 7832POPC   C4A30822  29.132  32.280   7.655
 7832POPC   C1B30823  29.199  32.054   8.555
 7832POPC   C2B30824  29.209  31.984   8.255
 7832POPC   C3B30825  29.233  31.996   7.955
 7832POPC   C4B30826  29.258  31.992   7.655
 7833POPC   NC330827  32.256  28.378   9.455
 7833POPC   PO430828  32.217  28.377   9.155
 7833POPC   GL130829  32.289  28.393   8.855
 7833POPC   GL230830  32.097  28.463   8.855
 7833POPC   C1A30831  32.278  28.380   8.555
 7833POPC   D2A30832  32.274  28.416   8.255
 7833POPC   C3A30833  32.274  28.338   7.955
 7833POPC   C4A30834  32.252  28.359   7.655
 7833POPC   C1B30835  32.012  28.437   8.555
 7833POPC   C2B30836  31.996  28.460   8.255
 7833POPC   C3B30837  32.064  28.475   7.955
 7833POPC   C4B30838  32.006  28.496   7.655
 7834POPC   NC330839  19.068  27.573   9.455
 7834POPC   PO430840  19.088  27.641   9.155
 7834POPC   GL130841  19.013  27.549   8.855
 7834POPC   GL230842  19.157  27.590   8.855
 7834POPC   C1A30843  19.095  27.611   8.555
 7834POPC   D2A30844  19.093  27.607   8.255
 7834POPC   C3A30845  19.066  27.590   7.955
 7834POPC   C4A30846  19.074  27.613   7.655
 7834POPC   C1B30847  19.297  27.637   8.555
 7834POPC   C2B30848  19.307  27.660   8.255
 7834POPC   C3B30849  19.248  27.686   7.955
 7834POPC   C4B30850  19.338  27.657   7.655
 7835POPC   NC330851  36.873  12.094   9.455
 7835POPC   PO430852  36.892  12.076   9.155
 7835POPC   GL130853  36.936  12.079   8.855
 7835POPC   GL230854  37.009  12.232   8.855
 7835POPC   C1A30855  36.894  12.042   8.555
 7835POPC   D2A30856  36.904  12.036   8.255
 7835POPC   C3A30857  36.933  12.073   7.955
 7835POPC   C4A30858  36.866  12.114   7.655
 7835POPC   C1B30859  37.049  12.251   8.555
 7835POPC   C2B30860  36.993  12.312   8.255
 7835POPC   C3B30861  37.022  12.334   7.955
 7835POPC   C4B30862  37.046  12.300   7.655
 7836POPC   NC330863  29.108  33.850   9.455
 7836POPC   PO430864  29.151  33.845   9.155
 7836POPC   GL130865  29.151  33.831   8.855
 7836POPC   GL230866  28.998  33.774   8.855
 7836POPC   C1A30867  29.099  33.844   8.555
 7836POPC   D2A30868  29.123  33.809   8.255
 7836POPC   C3A30869  29.184  33.820   7.955
 7836POPC   C4A30870  29.118  33.802   7.655
 7836POPC   C1B30871  28.925  33.791   8.555
 7836POPC   C2B30872  28.889  33.727   8.255
 7836POPC   C3B30873  28.863  33.733   7.955
 7836POPC   C4B30874  28.885  33.733   7.655
 7837POPC   NC330875  35.322  17.526   9.455
 7837POPC   PO430876  35.357  17.546   9.155
 7837POPC   GL130877  35.387  17.518   8.855
 7837POPC   GL230878  35.439  17.623   8.855
 7837POPC   C1A30879  35.376  17.495   8.555
 7837POPC   D2A30880  35.370  17.503   8.255
 7837POPC   C3A30881  35.385  17.508   7.955
 7837POPC   C4A30882  35.368  17.475   7.655
 7837POPC   C1B30883  35.451  17.746   8.555
 7837POPC   C2B30884  35.524  17.731   8.255
 7837POPC   C3B30885  35.476  17.661   7.955
 7837POPC   C4B30886  35.471  17.673   7.655
 7838POPC   NC330887  37.662   8.936   9.455
 7838POPC   PO430888  37.649   9.012   9.155
 7838POPC   GL130889  37.659   8.951   8.855
 7838POPC   GL230890  37.737   8.856   8.855
 7838POPC   C1A30891  37.652   8.987   8.555
 7838POPC   D2A30892  37.632   8.946   8.255
 7838POPC   C3A30893  37.706   8.960   7.955
 7838POPC   C4A30894  37.641   9.006   7.655
 7838POPC   C1B30895  37.705   8.693   8.555
 7838POPC   C2B30896  37.706   8.686   8.255
 7838POPC   C3B30897  37.769   8.733   7.955
 7838POPC   C4B30898  37.707   8.694   7.655
 7839POPC   NC330899  15.945  26.785   9.455
 7839POPC   PO430900  16.000  26.768   9.155
 7839POPC   GL130901  16.000  26.770   8.855
 7839POPC   GL230902  15.902  26.702   8.855
 7839POPC   C1A30903  16.002  26.814   8.555
 7839POPC   D2A30904  15.964  26.834   8.255
 7839POPC   C3A30905  15.979  26.771   7.955
 7839POPC   C4A30906  15.996  26.783   7.655
 7839POPC   C1B30907  15.889  26.606   8.555
 7839POPC   C2B30908  15.839  26.601   8.255
 7839POPC   C3B30909  15.893  26.586   7.955
 7839POPC   C4B30910  15.906  26.589   7.655
 7840POPC   NC330911   8.968  33.756   9.455
 7840POPC   PO430912   8.991  33.793   9.155
 7840POPC   GL130913   9.006  33.776   8.855
 7840POPC   GL230914   8.866  33.736   8.855
 7840POPC   C1A30915   9.014  33.780   8.555
 7840POPC   D2A30916   8.940  33.823   8.255
 7840POPC   C3A30917   8.945  33.755   7.955
 7840POPC   C4A30918   8.924  33.833   7.655
 7840POPC   C1B30919   8.769  33.714   8.555
 7840POPC   C2B30920   8.781  33.708   8.255
 7840POPC   C3B30921   8.772  33.690   7.955
 7840POPC   C4B30922   8.695  33.675   7.655
 7841POPC   NC330923  16.701  20.567   9.455
 7841POPC   PO430924  16.715  20.656   9.155
 7841POPC   GL130925  16.695  20.639   8.855
 7841POPC   GL230926  16.656  20.721   8.855
 7841POPC   C1A30927  16.716  20.584   8.555
 7841POPC   D2A30928  16.724  20.596   8.255
 7841POPC   C3A30929  16.759  20.595   7.955
 7841POPC   C4A30930  16.727  20.613   7.655
 7841POPC   C1B30931  16.593  20.813   8.555
 7841POPC   C2B30932  16.542  20.753   8.255
 7841POPC   C3B30933  16.604  20.755   7.955
 7841POPC   C4B30934  16.515  20.784   7.655
 7842POPC   NC330935  14.430   1.232   9.455
 7842POPC   PO430936  14.399   1.226   9.155
 7842POPC   GL130937  14.438   1.251   8.855
 7842POPC   GL230938  14.349   1.270   8.855
 7842POPC   C1A30939  14.372   1.213   8.555
 7842POPC   D2A30940  14.388   1.203   8.255
 7842POPC   C3A30941  14.360   1.208   7.955
 7842POPC   C4A30942  14.440   1.202   7.655
 7842POPC   C1B30943  14.246   1.355   8.555
 7842POPC   C2B30944  14.241   1.401   8.255
 7842POPC   C3B30945  14.271   1.439   7.955
 7842POPC   C4B30946  14.259   1.410   7.655
 7843POPC   NC330947  14.396   5.843   9.455
 7843POPC   PO430948  14.417   5.880   9.155
 7843POPC   GL130949  14.412   5.840   8.855
 7843POPC   GL230950  14.457   5.707   8.855
 7843POPC   C1A30951  14.427   5.881   8.555
 7843POPC   D2A30952  14.386   5.870   8.255
 7843POPC   C3A30953  14.406   5.864   7.955
 7843POPC   C4A30954  14.357   5.889   7.655
 7843POPC   C1B30955  14.444   5.578   8.555
 7843POPC   C2B30956  14.430   5.649   8.255
 7843POPC   C3B30957  14.424   5.653   7.955
 7843POPC   C4B30958  14.486   5.628   7.655
 7844POPC   NC330959  25.315  29.948   9.455
 7844POPC   PO430960  25.266  29.929   9.155
 7844POPC   GL130961  25.238  29.958   8.855
 7844POPC   GL230962  25.126  29.937   8.855
 7844POPC   C1A30963  25.275  29.912   8.555
 7844POPC   D2A30964  25.263  29.948   8.255
 7844POPC   C3A30965  25.295  29.911   7.955
 7844POPC   C4A30966  25.233  29.954   7.655
 7844POPC   C1B30967  25.069  30.009   8.555
 7844POPC   C2B30968  25.021  29.959   8.255
 7844POPC   C3B30969  25.018  29.945   7.955
 7844POPC   C4B30970  24.991  29.980   7.655
 7845POPC   NC330971  41.549   5.120   9.455
 7845POPC   PO430972  41.554   5.096   9.155
 7845POPC   GL130973  41.551   5.092   8.855
 7845POPC   GL230974  41.651   4.965   8.855
 7845POPC   C1A30975  41.536   5.115   8.555
 7845POPC   D2A30976  41.547   5.079   8.255
 7845POPC   C3A30977  41.540   5.063   7.955
 7845POPC   C4A30978  41.559   5.064   7.655
 7845POPC   C1B30979  41.682   4.924   8.555
 7845POPC   C2B30980  41.655   4.840   8.255
 7845POPC   C3B30981  41.635   4.860   7.955
 7845POPC   C4B30982  41.663   4.885   7.655
 7846POPC   NC330983  30.663  29.119   9.455
 7846POPC   PO430984  30.703  29.173   9.155
 7846POPC   GL130985  30.739  29.184   8.855
 7846POPC   GL230986  30.787  29.266   8.855
 7846POPC   C1A30987  30.670  29.106   8.555
 7846POPC   D2A30988  30.649  29.130   8.255
 7846POPC   C3A30989  30.735  29.140   7.955
 7846POPC   C4A30990  30.654  29.194   7.655
 7846POPC   C1B30991  30.801  29.337   8.555
 7846POPC   C2B30992  30.822  29.410   8.255
 7846POPC   C3B30993  30.845  29.416   7.955
 7846POPC   C4B30994  30.851  29.397   7.655
 7847POPC   NC330995  41.552  22.962   9.455
 7847POPC   PO430996  41.599  22.954   9.155
 7847POPC   GL130997  41.581  22.959   8.855
 7847POPC   GL230998  41.689  22.951   8.855
 7847POPC   C1A30999  41.519  22.965   8.555
 7847POPC   D2A31000  41.529  22.950   8.255
 7847POPC   C3A31001  41.586  22.920   7.955
 7847POPC   C4A31002  41.553  22.913   7.655
 7847POPC   C1B31003  41.819  22.965   8.555
 7847POPC   C2B31004  41.822  23.014   8.255
 7847POPC   C3B31005  41.749  23.047   7.955
 7847POPC   C4B31006  41.807  23.053   7.655
 7848POPC   NC331007   5.860  21.416   9.455
 7848POPC   PO431008   5.885  21.387   9.155
 7848POPC   GL131009   5.857  21.383   8.855
 7848POPC   GL231010   6.016  21.361   8.855
 7848POPC   C1A31011   5.844  21.348   8.555
 7848POPC   D2A31012   5.820  21.402   8.255
 7848POPC   C3A31013   5.904  21.400   7.955
 7848POPC   C4A31014   5.822  21.418   7.655
 7848POPC   C1B31015   6.158  21.407   8.555
 7848POPC   C2B31016   6.086  21.439   8.255
 7848POPC   C3B31017   6.122  21.421   7.955
 7848POPC   C4B31018   6.134  21.404   7.655
 7849POPC   NC331019  33.029  19.795   9.455
 7849POPC   PO431020  32.987  19.833   9.155
 7849POPC   GL131021  33.014  19.875   8.855
 7849POPC   GL231022  32.912  19.720   8.855
 7849POPC   C1A31023  33.004  19.799   8.555
 7849POPC   D2A31024  32.985  19.822   8.255
 7849POPC   C3A31025  33.016  19.818   7.955
 7849POPC   C4A31026  33.046  19.800   7.655
 7849POPC   C1B31027  32.945  19.654   8.555
 7849POPC   C2B31028  32.871  19.638   8.255
 7849POPC   C3B31029  32.873  19.617   7.955
 7849POPC   C4B31030  32.875  19.629   7.655
 7850POPC   NC331031   9.709  36.939   9.455
 7850POPC   PO431032   9.789  36.902   9.155
 7850POPC   GL131033   9.794  36.933   8.855
 7850POPC   GL231034   9.680  36.877   8.855
 7850POPC   C1A31035   9.786  36.878   8.555
 7850POPC   D2A31036   9.744  36.865   8.255
 7850POPC   C3A31037   9.734  36.926   7.955
 7850POPC   C4A31038   9.731  36.914   7.655
 7850POPC   C1B31039   9.539  36.832   8.555
 7850POPC   C2B31040   9.555  36.770   8.255
 7850POPC   C3B31041   9.480  36.834   7.955
 7850POPC   C4B31042   9.514  36.829   7.655
 7851POPC   NC331043  36.127  12.870   9.455
 7851POPC   PO431044  36.117  12.869   9.155
 7851POPC   GL131045  36.114  12.836   8.855
 7851POPC   GL231046  36.064  12.709   8.855
 7851POPC   C1A31047  36.133  12.842   8.555
 7851POPC   D2A31048  36.167  12.886   8.255
 7851POPC   C3A31049  36.093  12.809   7.955
 7851POPC   C4A31050  36.137  12.888   7.655
 7851POPC   C1B31051  36.059  12.610   8.555
 7851POPC   C2B31052  36.010  12.621   8.255
 7851POPC   C3B31053  36.068  12.581   7.955
 7851POPC   C4B31054  36.043  12.593   7.655
 7852POPC   NC331055  27.554  29.151   9.455
 7852POPC   PO431056  27.548  29.098   9.155
 7852POPC   GL131057  27.617  29.099   8.855
 7852POPC   GL231058  27.546  29.227   8.855
 7852POPC   C1A31059  27.551  29.195   8.555
 7852POPC   D2A31060  27.589  29.148   8.255
 7852POPC   C3A31061  27.606  29.097   7.955
 7852POPC   C4A31062  27.597  29.100   7.655
 7852POPC   C1B31063  27.485  29.355   8.555
 7852POPC   C2B31064  27.486  29.359   8.255
 7852POPC   C3B31065  27.537  29.348   7.955
 7852POPC   C4B31066  27.534  29.402   7.655
 7853POPC   NC331067   1.957   8.974   9.455
 7853POPC   PO431068   2.039   8.985   9.155
 7853POPC   GL131069   1.954   8.927   8.855
 7853POPC   GL231070   1.829   8.915   8.855
 7853POPC   C1A31071   1.976   8.966   8.555
 7853POPC   D2A31072   2.007   9.018   8.255
 7853POPC   C3A31073   2.004   8.978   7.955
 7853POPC   C4A31074   2.008   8.947   7.655
 7853POPC   C1B31075   1.725   8.866   8.555
 7853POPC   C2B31076   1.709   8.909   8.255
 7853POPC   C3B31077   1.749   8.893   7.955
 7853POPC   C4B31078   1.723   8.875   7.655
 7854POPC   NC331079  19.812   4.270   9.455
 7854POPC   PO431080  19.844   4.295   9.155
 7854POPC   GL131081  19.854   4.318   8.855
 7854POPC   GL231082  19.726   4.197   8.855
 7854POPC   C1A31083  19.824   4.275   8.555
 7854POPC   D2A31084  19.833   4.312   8.255
 7854POPC   C3A31085  19.871   4.345   7.955
 7854POPC   C4A31086  19.863   4.310   7.655
 7854POPC   C1B31087  19.613   4.168   8.555
 7854POPC   C2B31088  19.631   4.148   8.255
 7854POPC   C3B31089  19.665   4.167   7.955
 7854POPC   C4B31090  19.606   4.119   7.655
 7855POPC   NC331091  29.167  15.991   9.455
 7855POPC   PO431092  29.127  15.956   9.155
 7855POPC   GL131093  29.144  15.907   8.855
 7855POPC   GL231094  29.213  15.891   8.855
 7855POPC   C1A31095  29.164  15.933   8.555
 7855POPC   D2A31096  29.167  15.912   8.255
 7855POPC   C3A31097  29.181  15.962   7.955
 7855POPC   C4A31098  29.159  15.956   7.655
 7855POPC   C1B31099  29.379  15.739   8.555
 7855POPC   C2B31100  29.325  15.824   8.255
 7855POPC   C3B31101  29.304  15.836   7.955
 7855POPC   C4B31102  29.377  15.742   7.655
 7856POPC   NC331103  21.362  37.702   9.455
 7856POPC   PO431104  21.432  37.662   9.155
 7856POPC   GL131105  21.402  37.661   8.855
 7856POPC   GL231106  21.529  37.570   8.855
 7856POPC   C1A31107  21.387  37.719   8.555
 7856POPC   D2A31108  21.362  37.710   8.255
 7856POPC   C3A31109  21.424  37.706   7.955
 7856POPC   C4A31110  21.342  37.665   7.655
 7856POPC   C1B31111  21.567  37.505   8.555
 7856POPC   C2B31112  21.544  37.571   8.255
 7856POPC   C3B31113  21.535  37.509   7.955
 7856POPC   C4B31114  21.585  37.504   7.655
 7857POPC   NC331115  26.793   2.017   9.455
 7857POPC   PO431116  26.830   1.940   9.155
 7857POPC   GL131117  26.819   1.971   8.855
 7857POPC   GL231118  26.766   1.914   8.855
 7857POPC   C1A31119  26.830   2.000   8.555
 7857POPC   D2A31120  26.810   1.984   8.255
 7857POPC   C3A31121  26.769   2.014   7.955
 7857POPC   C4A31122  26.785   1.969   7.655
 7857POPC   C1B31123  26.702   1.808   8.555
 7857POPC   C2B31124  26.652   1.752   8.255
 7857POPC   C3B31125  26.622   1.780   7.955
 7857POPC   C4B31126  26.689   1.752   7.655
 7858POPC   NC331127   5.914  32.245   9.455
 7858POPC   PO431128   5.863  32.294   9.155
 7858POPC   GL131129   5.919  32.241   8.855
 7858POPC   GL231130   5.816  32.195   8.855
 7858POPC   C1A31131   5.916  32.222   8.555
 7858POPC   D2A31132   5.915  32.260   8.255
 7858POPC   C3A31133   5.843  32.240   7.955
 7858POPC   C4A31134   5.889  32.282   7.655
 7858POPC   C1B31135   5.715  32.102   8.555
 7858POPC   C2B31136   5.647  32.040   8.255
 7858POPC   C3B31137   5.725  32.055   7.955
 7858POPC   C4B31138   5.684  32.067   7.655
 7859POPC   NC331139  40.030  25.269   9.455
 7859POPC   PO431140  40.044  25.249   9.155
 7859POPC   GL131141  39.986  25.293   8.855
 7859POPC   GL231142  39.921  25.266   8.855
 7859POPC   C1A31143  39.999  25.244   8.555
 7859POPC   D2A31144  40.045  25.272   8.255
 7859POPC   C3A31145  40.018  25.289   7.955
 7859POPC   C4A31146  40.040  25.241   7.655
 7859POPC   C1B31147  39.791  25.173   8.555
 7859POPC   C2B31148  39.740  25.199   8.255
 7859POPC   C3B31149  39.758  25.162   7.955
 7859POPC   C4B31150  39.747  25.217   7.655
 7860POPC   NC331151  41.567  27.643   9.455
 7860POPC   PO431152  41.583  27.546   9.155
 7860POPC   GL131153  41.551  27.588   8.855
 7860POPC   GL231154  41.579  27.715   8.855
 7860POPC   C1A31155  41.545  27.599   8.555
 7860POPC   D2A31156  41.589  27.630   8.255
 7860POPC   C3A31157  41.574  27.613   7.955
 7860POPC   C4A31158  41.602  27.546   7.655
 7860POPC   C1B31159  41.654  27.811   8.555
 7860POPC   C2B31160  41.713  27.844   8.255
 7860POPC   C3B31161  41.643  27.797   7.955
 7860POPC   C4B31162  41.693  27.809   7.655
 7861POPC   NC331163  19.047  44.623   9.455
 7861POPC   PO431164  19.050  44.654   9.155
 7861POPC   GL131165  19.038  44.668   8.855
 7861POPC   GL231166  19.228  44.642   8.855
 7861POPC   C1A31167  19.044  44.669   8.555
 7861POPC   D2A31168  19.057  44.687   8.255
 7861POPC   C3A31169  19.073  44.699   7.955
 7861POPC   C4A31170  19.072  44.685   7.655
 7861POPC   C1B31171  19.292  44.654   8.555
 7861POPC   C2B31172  19.286  44.613   8.255
 7861POPC   C3B31173  19.336  44.589   7.955
 7861POPC   C4B31174  19.280  44.633   7.655
 7862POPC   NC331175  40.811  25.315   9.455
 7862POPC   PO431176  40.774  25.239   9.155
 7862POPC   GL131177  40.786  25.255   8.855
 7862POPC   GL231178  40.862  25.323   8.855
 7862POPC   C1A31179  40.734  25.254   8.555
 7862POPC   D2A31180  40.814  25.233   8.255
 7862POPC   C3A31181  40.783  25.227   7.955
 7862POPC   C4A31182  40.797  25.313   7.655
 7862POPC   C1B31183  40.990  25.334   8.555
 7862POPC   C2B31184  41.064  25.319   8.255
 7862POPC   C3B31185  41.052  25.326   7.955
 7862POPC   C4B31186  41.019  25.315   7.655
 7863POPC   NC331187  38.466  32.279   9.455
 7863POPC   PO431188  38.503  32.213   9.155
 7863POPC   GL131189  38.429  32.265   8.855
 7863POPC   GL231190  38.339  32.252   8.855
 7863POPC   C1A31191  38.468  32.271   8.555
 7863POPC   D2A31192  38.425  32.291   8.255
 7863POPC   C3A31193  38.437  32.254   7.955
 7863POPC   C4A31194  38.483  32.228   7.655
 7863POPC   C1B31195  38.163  32.256   8.555
 7863POPC   C2B31196  38.174  32.222   8.255
 7863POPC   C3B31197  38.252  32.264   7.955
 7863POPC   C4B31198  38.251  32.249   7.655
 7864POPC   NC331199  29.173  16.706   9.455
 7864POPC   PO431200  29.112  16.737   9.155
 7864POPC   GL131201  29.164  16.718   8.855
 7864POPC   GL231202  29.107  16.651   8.855
 7864POPC   C1A31203  29.185  16.750   8.555
 7864POPC   D2A31204  29.193  16.725   8.255
 7864POPC   C3A31205  29.102  16.684   7.955
 7864POPC   C4A31206  29.161  16.769   7.655
 7864POPC   C1B31207  29.099  16.473   8.555
 7864POPC   C2B31208  29.159  16.440   8.255
 7864POPC   C3B31209  29.171  16.499   7.955
 7864POPC   C4B31210  29.114  16.481   7.655
 7865POPC   NC331211   3.528  37.688   9.455
 7865POPC   PO431212   3.565  37.643   9.155
 7865POPC   GL131213   3.529  37.715   8.855
 7865POPC   GL231214   3.647  37.785   8.855
 7865POPC   C1A31215   3.511  37.633   8.555
 7865POPC   D2A31216   3.519  37.662   8.255
 7865POPC   C3A31217   3.544  37.671   7.955
 7865POPC   C4A31218   3.571  37.713   7.655
 7865POPC   C1B31219   3.726  37.887   8.555
 7865POPC   C2B31220   3.754  37.844   8.255
 7865POPC   C3B31221   3.684  37.891   7.955
 7865POPC   C4B31222   3.697  37.862   7.655
 7866POPC   NC331223   6.681   5.861   9.455
 7866POPC   PO431224   6.623   5.859   9.155
 7866POPC   GL131225   6.632   5.863   8.855
 7866POPC   GL231226   6.567   5.708   8.855
 7866POPC   C1A31227   6.679   5.835   8.555
 7866POPC   D2A31228   6.611   5.870   8.255
 7866POPC   C3A31229   6.679   5.910   7.955
 7866POPC   C4A31230   6.639   5.848   7.655
 7866POPC   C1B31231   6.571   5.596   8.555
 7866POPC   C2B31232   6.539   5.657   8.255
 7866POPC   C3B31233   6.520   5.666   7.955
 7866POPC   C4B31234   6.506   5.606   7.655
 7867POPC   NC331235  37.640   5.895   9.455
 7867POPC   PO431236  37.721   5.829   9.155
 7867POPC   GL131237  37.639   5.851   8.855
 7867POPC   GL231238  37.700   5.758   8.855
 7867POPC   C1A31239  37.683   5.848   8.555
 7867POPC   D2A31240  37.693   5.912   8.255
 7867POPC   C3A31241  37.643   5.861   7.955
 7867POPC   C4A31242  37.630   5.840   7.655
 7867POPC   C1B31243  37.689   5.638   8.555
 7867POPC   C2B31244  37.679   5.610   8.255
 7867POPC   C3B31245  37.763   5.575   7.955
 7867POPC   C4B31246  37.759   5.600   7.655
 7868POPC   NC331247   1.250  41.525   9.455
 7868POPC   PO431248   1.185  41.549   9.155
 7868POPC   GL131249   1.241  41.542   8.855
 7868POPC   GL231250   1.046  41.583   8.855
 7868POPC   C1A31251   1.253  41.536   8.555
 7868POPC   D2A31252   1.219  41.509   8.255
 7868POPC   C3A31253   1.216  41.576   7.955
 7868POPC   C4A31254   1.243  41.535   7.655
 7868POPC   C1B31255   0.968  41.598   8.555
 7868POPC   C2B31256   0.974  41.677   8.255
 7868POPC   C3B31257   0.999  41.578   7.955
 7868POPC   C4B31258   0.987  41.614   7.655
 7869POPC   NC331259   3.528   8.987   9.455
 7869POPC   PO431260   3.577   9.014   9.155
 7869POPC   GL131261   3.559   9.016   8.855
 7869POPC   GL231262   3.643   8.952   8.855
 7869POPC   C1A31263   3.525   8.988   8.555
 7869POPC   D2A31264   3.568   8.927   8.255
 7869POPC   C3A31265   3.505   8.976   7.955
 7869POPC   C4A31266   3.505   8.958   7.655
 7869POPC   C1B31267   3.826   8.947   8.555
 7869POPC   C2B31268   3.761   8.885   8.255
 7869POPC   C3B31269   3.759   8.873   7.955
 7869POPC   C4B31270   3.767   8.909   7.655
 7870POPC   NC331271  12.895  44.624   9.455
 7870POPC   PO431272  12.885  44.622   9.155
 7870POPC   GL131273  12.834  44.707   8.855
 7870POPC   GL231274  12.972  44.743   8.855
 7870POPC   C1A31275  12.885  44.619   8.555
 7870POPC   D2A31276  12.868  44.654   8.255
 7870POPC   C3A31277  12.889  44.614   7.955
 7870POPC   C4A31278  12.811  44.638   7.655
 7870POPC   C1B31279  13.023  44.905   8.555
 7870POPC   C2B31280  12.962  44.894   8.255
 7870POPC   C3B31281  12.972  44.878   7.955
 7870POPC   C4B31282  13.000  44.844   7.655
 7871POPC   NC331283  36.948   2.797   9.455
 7871POPC   PO431284  36.927   2.803   9.155
 7871POPC   GL131285  36.922   2.748   8.855
 7871POPC   GL231286  36.851   2.856   8.855
 7871POPC   C1A31287  36.933   2.763   8.555
 7871POPC   D2A31288  36.885   2.755   8.255
 7871POPC   C3A31289  36.889   2.743   7.955
 7871POPC   C4A31290  36.873   2.809   7.655
 7871POPC   C1B31291  36.843   2.969   8.555
 7871POPC   C2B31292  36.827   3.049   8.255
 7871POPC   C3B31293  36.856   3.016   7.955
 7871POPC   C4B31294  36.794   3.038   7.655
 7872POPC   NC331295  31.461   0.422   9.455
 7872POPC   PO431296  31.489   0.403   9.155
 7872POPC   GL131297  31.438   0.425   8.855
 7872POPC   GL231298  31.323   0.436   8.855
 7872POPC   C1A31299  31.461   0.472   8.555
 7872POPC   D2A31300  31.507   0.468   8.255
 7872POPC   C3A31301  31.518   0.467   7.955
 7872POPC   C4A31302  31.488   0.457   7.655
 7872POPC   C1B31303  31.213   0.337   8.555
 7872POPC   C2B31304  31.282   0.366   8.255
 7872POPC   C3B31305  31.190   0.375   7.955
 7872POPC   C4B31306  31.240   0.308   7.655
 7873POPC   NC331307  14.379  36.946   9.455
 7873POPC   PO431308  14.409  36.935   9.155
 7873POPC   GL131309  14.408  36.908   8.855
 7873POPC   GL231310  14.365  36.826   8.855
 7873POPC   C1A31311  14.391  36.894   8.555
 7873POPC   D2A31312  14.412  36.913   8.255
 7873POPC   C3A31313  14.394  36.870   7.955
 7873POPC   C4A31314  14.425  36.936   7.655
 7873POPC   C1B31315  14.299  36.692   8.555
 7873POPC   C2B31316  14.300  36.709   8.255
 7873POPC   C3B31317  14.274  36.707   7.955
 7873POPC   C4B31318  14.290  36.742   7.655
 7874POPC   NC331319  22.987   5.882   9.455
 7874POPC   PO431320  22.944   5.895   9.155
 7874POPC   GL131321  22.983   5.874   8.855
 7874POPC   GL231322  22.788   5.821   8.855
 7874POPC   C1A31323  22.976   5.861   8.555
 7874POPC   D2A31324  22.982   5.896   8.255
 7874POPC   C3A31325  22.893   5.870   7.955
 7874POPC   C4A31326  22.912   5.909   7.655
 7874POPC   C1B31327  22.736   5.765   8.555
 7874POPC   C2B31328  22.743   5.775   8.255
 7874POPC   C3B31329  22.695   5.764   7.955
 7874POPC   C4B31330  22.689   5.832   7.655
 7875POPC   NC331331  26.775  35.354   9.455
 7875POPC   PO431332  26.797  35.351   9.155
 7875POPC   GL131333  26.793  35.342   8.855
 7875POPC   GL231334  26.781  35.507   8.855
 7875POPC   C1A31335  26.786  35.319   8.555
 7875POPC   D2A31336  26.780  35.341   8.255
 7875POPC   C3A31337  26.787  35.315   7.955
 7875POPC   C4A31338  26.829  35.343   7.655
 7875POPC   C1B31339  26.760  35.613   8.555
 7875POPC   C2B31340  26.768  35.627   8.255
 7875POPC   C3B31341  26.721  35.587   7.955
 7875POPC   C4B31342  26.718  35.545   7.655
 7876POPC   NC331343  39.961   6.611   9.455
 7876POPC   PO431344  40.053   6.651   9.155
 7876POPC   GL131345  40.047   6.646   8.855
 7876POPC   GL231346  39.979   6.481   8.855
 7876POPC   C1A31347  39.996   6.612   8.555
 7876POPC   D2A31348  40.045   6.644   8.255
 7876POPC   C3A31349  39.965   6.622   7.955
 7876POPC   C4A31350  40.030   6.645   7.655
 7876POPC   C1B31351  39.929   6.362   8.555
 7876POPC   C2B31352  39.957   6.371   8.255
 7876POPC   C3B31353  39.882   6.391   7.955
 7876POPC   C4B31354  39.934   6.441   7.655
 7877POPC   NC331355  16.758  25.298   9.455
 7877POPC   PO431356  16.767  25.225   9.155
 7877POPC   GL131357  16.738  25.282   8.855
 7877POPC   GL231358  16.727  25.185   8.855
 7877POPC   C1A31359  16.770  25.264   8.555
 7877POPC   D2A31360  16.735  25.267   8.255
 7877POPC   C3A31361  16.698  25.263   7.955
 7877POPC   C4A31362  16.682  25.273   7.655
 7877POPC   C1B31363  16.666  25.005   8.555
 7877POPC   C2B31364  16.662  24.996   8.255
 7877POPC   C3B31365  16.596  25.076   7.955
 7877POPC   C4B31366  16.611  25.038   7.655
 7878POPC   NC331367  28.333  16.741   9.455
 7878POPC   PO431368  28.367  16.749   9.155
 7878POPC   GL131369  28.344  16.722   8.855
 7878POPC   GL231370  28.507  16.692   8.855
 7878POPC   C1A31371  28.334  16.766   8.555
 7878POPC   D2A31372  28.383  16.733   8.255
 7878POPC   C3A31373  28.387  16.702   7.955
 7878POPC   C4A31374  28.342  16.686   7.655
 7878POPC   C1B31375  28.609  16.545   8.555
 7878POPC   C2B31376  28.544  16.626   8.255
 7878POPC   C3B31377  28.598  16.553   7.955
 7878POPC   C4B31378  28.609  16.597   7.655
 7879POPC   NC331379  14.392  25.305   9.455
 7879POPC   PO431380  14.433  25.298   9.155
 7879POPC   GL131381  14.436  25.239   8.855
 7879POPC   GL231382  14.374  25.361   8.855
 7879POPC   C1A31383  14.425  25.282   8.555
 7879POPC   D2A31384  14.432  25.222   8.255
 7879POPC   C3A31385  14.355  25.219   7.955
 7879POPC   C4A31386  14.451  25.248   7.655
 7879POPC   C1B31387  14.277  25.489   8.555
 7879POPC   C2B31388  14.317  25.532   8.255
 7879POPC   C3B31389  14.365  25.459   7.955
 7879POPC   C4B31390  14.279  25.463   7.655
 7880POPC   NC331391  22.936  31.502   9.455
 7880POPC   PO431392  22.939  31.462   9.155
 7880POPC   GL131393  22.970  31.437   8.855
 7880POPC   GL231394  22.954  31.374   8.855
 7880POPC   C1A31395  22.975  31.495   8.555
 7880POPC   D2A31396  22.946  31.450   8.255
 7880POPC   C3A31397  22.986  31.505   7.955
 7880POPC   C4A31398  22.928  31.511   7.655
 7880POPC   C1B31399  23.036  31.256   8.555
 7880POPC   C2B31400  22.962  31.278   8.255
 7880POPC   C3B31401  23.031  31.244   7.955
 7880POPC   C4B31402  22.963  31.201   7.655
 7881POPC   NC331403   8.989  17.480   9.455
 7881POPC   PO431404   8.946  17.483   9.155
 7881POPC   GL131405   8.945  17.524   8.855
 7881POPC   GL231406   8.970  17.673   8.855
 7881POPC   C1A31407   8.996  17.544   8.555
 7881POPC   D2A31408   9.001  17.509   8.255
 7881POPC   C3A31409   9.014  17.536   7.955
 7881POPC   C4A31410   8.939  17.458   7.655
 7881POPC   C1B31411   8.918  17.787   8.555
 7881POPC   C2B31412   8.912  17.801   8.255
 7881POPC   C3B31413   8.918  17.732   7.955
 7881POPC   C4B31414   8.954  17.725   7.655
 7882POPC   NC331415  15.180  38.495   9.455
 7882POPC   PO431416  15.221  38.483   9.155
 7882POPC   GL131417  15.182  38.405   8.855
 7882POPC   GL231418  15.321  38.418   8.855
 7882POPC   C1A31419  15.225  38.415   8.555
 7882POPC   D2A31420  15.140  38.495   8.255
 7882POPC   C3A31421  15.225  38.480   7.955
 7882POPC   C4A31422  15.157  38.443   7.655
 7882POPC   C1B31423  15.376  38.352   8.555
 7882POPC   C2B31424  15.384  38.315   8.255
 7882POPC   C3B31425  15.379  38.367   7.955
 7882POPC   C4B31426  15.349  38.349   7.655
 7883POPC   NC331427  36.177  19.842   9.455
 7883POPC   PO431428  36.159  19.872   9.155
 7883POPC   GL131429  36.156  19.830   8.855
 7883POPC   GL231430  36.044  19.888   8.855
 7883POPC   C1A31431  36.127  19.811   8.555
 7883POPC   D2A31432  36.156  19.790   8.255
 7883POPC   C3A31433  36.145  19.829   7.955
 7883POPC   C4A31434  36.097  19.785   7.655
 7883POPC   C1B31435  35.995  20.060   8.555
 7883POPC   C2B31436  36.011  20.028   8.255
 7883POPC   C3B31437  35.931  20.028   7.955
 7883POPC   C4B31438  35.923  20.064   7.655
 7884POPC   NC331439  32.236   8.978   9.455
 7884POPC   PO431440  32.203   8.990   9.155
 7884POPC   GL131441  32.293   9.015   8.855
 7884POPC   GL231442  32.210   9.074   8.855
 7884POPC   C1A31443  32.259   8.958   8.555
 7884POPC   D2A31444  32.274   8.923   8.255
 7884POPC   C3A31445  32.225   9.015   7.955
 7884POPC   C4A31446  32.241   8.953   7.655
 7884POPC   C1B31447  32.204   9.190   8.555
 7884POPC   C2B31448  32.185   9.238   8.255
 7884POPC   C3B31449  32.237   9.174   7.955
 7884POPC   C4B31450  32.246   9.235   7.655
 7885POPC   NC331451   2.022   7.452   9.455
 7885POPC   PO431452   2.000   7.377   9.155
 7885POPC   GL131453   1.970   7.435   8.855
 7885POPC   GL231454   2.107   7.381   8.855
 7885POPC   C1A31455   1.960   7.397   8.555
 7885POPC   D2A31456   1.956   7.426   8.255
 7885POPC   C3A31457   2.012   7.396   7.955
 7885POPC   C4A31458   2.033   7.462   7.655
 7885POPC   C1B31459   2.208   7.355   8.555
 7885POPC   C2B31460   2.208   7.409   8.255
 7885POPC   C3B31461   2.225   7.329   7.955
 7885POPC   C4B31462   2.241   7.337   7.655
 7886POPC   NC331463  29.887   3.491   9.455
 7886POPC   PO431464  29.951   3.570   9.155
 7886POPC   GL131465  29.971   3.498   8.855
 7886POPC   GL231466  29.901   3.669   8.855
 7886POPC   C1A31467  29.932   3.556   8.555
 7886POPC   D2A31468  29.957   3.496   8.255
 7886POPC   C3A31469  29.894   3.548   7.955
 7886POPC   C4A31470  29.949   3.515   7.655
 7886POPC   C1B31471  29.833   3.750   8.555
 7886POPC   C2B31472  29.808   3.739   8.255
 7886POPC   C3B31473  29.857   3.798   7.955
 7886POPC   C4B31474  29.878   3.826   7.655
 7887POPC   NC331475  24.459   1.965   9.455
 7887POPC   PO431476  24.486   2.029   9.155
 7887POPC   GL131477  24.486   1.973   8.855
 7887POPC   GL231478  24.374   1.934   8.855
 7887POPC   C1A31479  24.444   2.016   8.555
 7887POPC   D2A31480  24.506   2.009   8.255
 7887POPC   C3A31481  24.457   1.967   7.955
 7887POPC   C4A31482  24.520   2.031   7.655
 7887POPC   C1B31483  24.285   1.888   8.555
 7887POPC   C2B31484  24.311   1.815   8.255
 7887POPC   C3B31485  24.296   1.805   7.955
 7887POPC   C4B31486  24.317   1.881   7.655
 7888POPC   NC331487  11.290  18.238   9.455
 7888POPC   PO431488  11.341  18.311   9.155
 7888POPC   GL131489  11.335  18.244   8.855
 7888POPC   GL231490  11.184  18.358   8.855
 7888POPC   C1A31491  11.299  18.239   8.555
 7888POPC   D2A31492  11.271  18.317   8.255
 7888POPC   C3A31493  11.306  18.294   7.955
 7888POPC   C4A31494  11.343  18.265   7.655
 7888POPC   C1B31495  11.110  18.382   8.555
 7888POPC   C2B31496  11.103  18.333   8.255
 7888POPC   C3B31497  11.102  18.383   7.955
 7888POPC   C4B31498  11.102  18.402   7.655
 7889POPC   NC331499  44.698  28.376   9.455
 7889POPC   PO431500  44.709  28.389   9.155
 7889POPC   GL131501  44.712  28.413   8.855
 7889POPC   GL231502  44.761  28.303   8.855
 7889POPC   C1A31503  44.666  28.393   8.555
 7889POPC   D2A31504  44.621  28.414   8.255
 7889POPC   C3A31505  44.700  28.382   7.955
 7889POPC   C4A31506  44.672  28.336   7.655
 7889POPC   C1B31507  44.846  28.182   8.555
 7889POPC   C2B31508  44.795  28.170   8.255
 7889POPC   C3B31509  44.761  28.135   7.955
 7889POPC   C4B31510  44.844  28.148   7.655
 7890POPC   NC331511  41.537  38.420   9.455
 7890POPC   PO431512  41.597  38.435   9.155
 7890POPC   GL131513  41.589  38.481   8.855
 7890POPC   GL231514  41.665  38.467   8.855
 7890POPC   C1A31515  41.595  38.449   8.555
 7890POPC   D2A31516  41.555  38.428   8.255
 7890POPC   C3A31517  41.554  38.423   7.955
 7890POPC   C4A31518  41.528  38.412   7.655
 7890POPC   C1B31519  41.809  38.450   8.555
 7890POPC   C2B31520  41.814  38.540   8.255
 7890POPC   C3B31521  41.766  38.485   7.955
 7890POPC   C4B31522  41.802  38.516   7.655
 7891POPC   NC331523  15.180   1.991   9.455
 7891POPC   PO431524  15.139   1.959   9.155
 7891POPC   GL131525  15.156   2.015   8.855
 7891POPC   GL231526  15.043   1.900   8.855
 7891POPC   C1A31527  15.195   2.015   8.555
 7891POPC   D2A31528  15.197   2.025   8.255
 7891POPC   C3A31529  15.154   2.012   7.955
 7891POPC   C4A31530  15.172   1.979   7.655
 7891POPC   C1B31531  14.943   1.880   8.555
 7891POPC   C2B31532  14.932   1.839   8.255
 7891POPC   C3B31533  14.929   1.902   7.955
 7891POPC   C4B31534  14.960   1.820   7.655
 7892POPC   NC331535   6.627  18.258   9.455
 7892POPC   PO431536   6.606  18.302   9.155
 7892POPC   GL131537   6.625  18.256   8.855
 7892POPC   GL231538   6.674  18.144   8.855
 7892POPC   C1A31539   6.686  18.253   8.555
 7892POPC   D2A31540   6.660  18.264   8.255
 7892POPC   C3A31541   6.612  18.251   7.955
 7892POPC   C4A31542   6.674  18.315   7.655
 7892POPC   C1B31543   6.783  18.063   8.555
 7892POPC   C2B31544   6.778  18.111   8.255
 7892POPC   C3B31545   6.820  18.126   7.955
 7892POPC   C4B31546   6.785  18.098   7.655
 7893POPC   NC331547  42.344  10.560   9.455
 7893POPC   PO431548  42.287  10.493   9.155
 7893POPC   GL131549  42.334  10.501   8.855
 7893POPC   GL231550  42.457  10.619   8.855
 7893POPC   C1A31551  42.363  10.501   8.555
 7893POPC   D2A31552  42.380  10.489   8.255
 7893POPC   C3A31553  42.358  10.517   7.955
 7893POPC   C4A31554  42.377  10.485   7.655
 7893POPC   C1B31555  42.542  10.639   8.555
 7893POPC   C2B31556  42.535  10.715   8.255
 7893POPC   C3B31557  42.569  10.712   7.955
 7893POPC   C4B31558  42.580  10.671   7.655
 7894POPC   NC331559  29.130   8.975   9.455
 7894POPC   PO431560  29.119   8.943   9.155
 7894POPC   GL131561  29.103   9.022   8.855
 7894POPC   GL231562  29.161   9.090   8.855
 7894POPC   C1A31563  29.133   8.995   8.555
 7894POPC   D2A31564  29.167   8.945   8.255
 7894POPC   C3A31565  29.129   9.014   7.955
 7894POPC   C4A31566  29.153   9.009   7.655
 7894POPC   C1B31567  29.198   9.196   8.555
 7894POPC   C2B31568  29.241   9.186   8.255
 7894POPC   C3B31569  29.167   9.205   7.955
 7894POPC   C4B31570  29.200   9.200   7.655
 7895POPC   NC331571  28.390  20.651   9.455
 7895POPC   PO431572  28.334  20.617   9.155
 7895POPC   GL131573  28.362  20.640   8.855
 7895POPC   GL231574  28.489  20.616   8.855
 7895POPC   C1A31575  28.372  20.608   8.555
 7895POPC   D2A31576  28.364  20.610   8.255
 7895POPC   C3A31577  28.344  20.568   7.955
 7895POPC   C4A31578  28.368  20.622   7.655
 7895POPC   C1B31579  28.627  20.543   8.555
 7895POPC   C2B31580  28.649  20.556   8.255
 7895POPC   C3B31581  28.588  20.566   7.955
 7895POPC   C4B31582  28.640  20.588   7.655
 7896POPC   NC331583  39.274  42.306   9.455
 7896POPC   PO431584  39.200  42.356   9.155
 7896POPC   GL131585  39.242  42.363   8.855
 7896POPC   GL231586  39.335  42.277   8.855
 7896POPC   C1A31587  39.204  42.352   8.555
 7896POPC   D2A31588  39.277  42.359   8.255
 7896POPC   C3A31589  39.236  42.343   7.955
 7896POPC   C4A31590  39.273  42.383   7.655
 7896POPC   C1B31591  39.376  42.123   8.555
 7896POPC   C2B31592  39.373  42.205   8.255
 7896POPC   C3B31593  39.361  42.140   7.955
 7896POPC   C4B31594  39.390  42.136   7.655
 7897POPC   NC331595   1.253   2.745   9.455
 7897POPC   PO431596   1.169   2.786   9.155
 7897POPC   GL131597   1.171   2.799   8.855
 7897POPC   GL231598   1.155   2.693   8.855
 7897POPC   C1A31599   1.235   2.790   8.555
 7897POPC   D2A31600   1.238   2.791   8.255
 7897POPC   C3A31601   1.249   2.746   7.955
 7897POPC   C4A31602   1.264   2.722   7.655
 7897POPC   C1B31603   1.041   2.542   8.555
 7897POPC   C2B31604   1.045   2.553   8.255
 7897POPC   C3B31605   0.993   2.626   7.955
 7897POPC   C4B31606   1.044   2.590   7.655
 7898POPC   NC331607   3.563  29.921   9.455
 7898POPC   PO431608   3.519  29.944   9.155
 7898POPC   GL131609   3.566  29.875   8.855
 7898POPC   GL231610   3.395  29.958   8.855
 7898POPC   C1A31611   3.527  29.906   8.555
 7898POPC   D2A31612   3.573  29.929   8.255
 7898POPC   C3A31613   3.587  29.904   7.955
 7898POPC   C4A31614   3.501  29.917   7.655
 7898POPC   C1B31615   3.325  29.894   8.555
 7898POPC   C2B31616   3.282  29.960   8.255
 7898POPC   C3B31617   3.325  29.973   7.955
 7898POPC   C4B31618   3.262  29.961   7.655
 7899POPC   NC331619  26.867   7.415   9.455
 7899POPC   PO431620  26.804   7.373   9.155
 7899POPC   GL131621  26.792   7.405   8.855
 7899POPC   GL231622  26.689   7.416   8.855
 7899POPC   C1A31623  26.865   7.394   8.555
 7899POPC   D2A31624  26.798   7.373   8.255
 7899POPC   C3A31625  26.847   7.452   7.955
 7899POPC   C4A31626  26.850   7.408   7.655
 7899POPC   C1B31627  26.561   7.410   8.555
 7899POPC   C2B31628  26.523   7.438   8.255
 7899POPC   C3B31629  26.620   7.438   7.955
 7899POPC   C4B31630  26.613   7.489   7.655
 7900POPC   NC331631  25.216  16.739   9.455
 7900POPC   PO431632  25.313  16.724   9.155
 7900POPC   GL131633  25.280  16.777   8.855
 7900POPC   GL231634  25.171  16.778   8.855
 7900POPC   C1A31635  25.279  16.711   8.555
 7900POPC   D2A31636  25.253  16.744   8.255
 7900POPC   C3A31637  25.300  16.770   7.955
 7900POPC   C4A31638  25.273  16.693   7.655
 7900POPC   C1B31639  25.057  16.922   8.555
 7900POPC   C2B31640  25.088  16.851   8.255
 7900POPC   C3B31641  25.063  16.926   7.955
 7900POPC   C4B31642  25.034  16.902   7.655
 7901POPC   NC331643   7.409   9.013   9.455
 7901POPC   PO431644   7.414   8.991   9.155
 7901POPC   GL131645   7.439   8.925   8.855
 7901POPC   GL231646   7.445   9.053   8.855
 7901POPC   C1A31647   7.402   8.924   8.555
 7901POPC   D2A31648   7.414   8.982   8.255
 7901POPC   C3A31649   7.422   8.959   7.955
 7901POPC   C4A31650   7.397   8.971   7.655
 7901POPC   C1B31651   7.376   9.222   8.555
 7901POPC   C2B31652   7.452   9.203   8.255
 7901POPC   C3B31653   7.435   9.175   7.955
 7901POPC   C4B31654   7.369   9.190   7.655
 7902POPC   NC331655  32.996  12.078   9.455
 7902POPC   PO431656  32.999  12.114   9.155
 7902POPC   GL131657  33.039  12.056   8.855
 7902POPC   GL231658  32.970  12.001   8.855
 7902POPC   C1A31659  33.055  12.040   8.555
 7902POPC   D2A31660  33.016  12.124   8.255
 7902POPC   C3A31661  33.023  12.114   7.955
 7902POPC   C4A31662  33.056  12.110   7.655
 7902POPC   C1B31663  32.979  11.839   8.555
 7902POPC   C2B31664  32.994  11.823   8.255
 7902POPC   C3B31665  33.007  11.848   7.955
 7902POPC   C4B31666  32.974  11.863   7.655
 7903POPC   NC331667  35.335  43.885   9.455
 7903POPC   PO431668  35.344  43.926   9.155
 7903POPC   GL131669  35.380  43.916   8.855
 7903POPC   GL231670  35.309  44.031   8.855
 7903POPC   C1A31671  35.378  43.870   8.555
 7903POPC   D2A31672  35.383  43.932   8.255
 7903POPC   C3A31673  35.307  43.899   7.955
 7903POPC   C4A31674  35.329  43.895   7.655
 7903POPC   C1B31675  35.371  44.107   8.555
 7903POPC   C2B31676  35.377  44.113   8.255
 7903POPC   C3B31677  35.341  44.139   7.955
 7903POPC   C4B31678  35.300  44.137   7.655
 7904POPC   NC331679  34.620  15.151   9.455
 7904POPC   PO431680  34.555  15.149   9.155
 7904POPC   GL131681  34.541  15.188   8.855
 7904POPC   GL231682  34.695  15.071   8.855
 7904POPC   C1A31683  34.593  15.216   8.555
 7904POPC   D2A31684  34.531  15.222   8.255
 7904POPC   C3A31685  34.610  15.182   7.955
 7904POPC   C4A31686  34.590  15.143   7.655
 7904POPC   C1B31687  34.738  14.976   8.555
 7904POPC   C2B31688  34.791  15.033   8.255
 7904POPC   C3B31689  34.754  15.005   7.955
 7904POPC   C4B31690  34.745  14.992   7.655
 7905POPC   NC331691  43.908   7.372   9.455
 7905POPC   PO431692  43.886   7.452   9.155
 7905POPC   GL131693  43.854   7.381   8.855
 7905POPC   GL231694  44.020   7.518   8.855
 7905POPC   C1A31695  43.864   7.468   8.555
 7905POPC   D2A31696  43.900   7.383   8.255
 7905POPC   C3A31697  43.911   7.461   7.955
 7905POPC   C4A31698  43.879   7.396   7.655
 7905POPC   C1B31699  44.109   7.563   8.555
 7905POPC   C2B31700  44.084   7.529   8.255
 7905POPC   C3B31701  44.098   7.547   7.955
 7905POPC   C4B31702  44.065   7.509   7.655
 7906POPC   NC331703  27.635  16.689   9.455
 7906POPC   PO431704  27.601  16.761   9.155
 7906POPC   GL131705  27.569  16.717   8.855
 7906POPC   GL231706  27.488  16.714   8.855
 7906POPC   C1A31707  27.635  16.727   8.555
 7906POPC   D2A31708  27.567  16.703   8.255
 7906POPC   C3A31709  27.593  16.694   7.955
 7906POPC   C4A31710  27.642  16.694   7.655
 7906POPC   C1B31711  27.356  16.795   8.555
 7906POPC   C2B31712  27.335  16.787   8.255
 7906POPC   C3B31713  27.332  16.818   7.955
 7906POPC   C4B31714  27.342  16.771   7.655
 7907POPC   NC331715  10.508  28.341   9.455
 7907POPC   PO431716  10.512  28.377   9.155
 7907POPC   GL131717  10.481  28.380   8.855
 7907POPC   GL231718  10.507  28.257   8.855
 7907POPC   C1A31719  10.482  28.350   8.555
 7907POPC   D2A31720  10.488  28.334   8.255
 7907POPC   C3A31721  10.545  28.336   7.955
 7907POPC   C4A31722  10.484  28.414   7.655
 7907POPC   C1B31723  10.370  28.173   8.555
 7907POPC   C2B31724  10.393  28.113   8.255
 7907POPC   C3B31725  10.372  28.166   7.955
 7907POPC   C4B31726  10.390  28.102   7.655
 7908POPC   NC331727  17.509  12.843   9.455
 7908POPC   PO431728  17.479  12.839   9.155
 7908POPC   GL131729  17.490  12.895   8.855
 7908POPC   GL231730  17.515  12.962   8.855
 7908POPC   C1A31731  17.466  12.876   8.555
 7908POPC   D2A31732  17.525  12.893   8.255
 7908POPC   C3A31733  17.553  12.845   7.955
 7908POPC   C4A31734  17.527  12.829   7.655
 7908POPC   C1B31735  17.568  13.061   8.555
 7908POPC   C2B31736  17.531  13.083   8.255
 7908POPC   C3B31737  17.544  13.107   7.955
 7908POPC   C4B31738  17.549  13.085   7.655
 7909POPC   NC331739   7.470  13.666   9.455
 7909POPC   PO431740   7.406  13.598   9.155
 7909POPC   GL131741   7.445  13.634   8.855
 7909POPC   GL231742   7.307  13.734   8.855
 7909POPC   C1A31743   7.428  13.669   8.555
 7909POPC   D2A31744   7.390  13.620   8.255
 7909POPC   C3A31745   7.452  13.616   7.955
 7909POPC   C4A31746   7.403  13.612   7.655
 7909POPC   C1B31747   7.233  13.784   8.555
 7909POPC   C2B31748   7.269  13.791   8.255
 7909POPC   C3B31749   7.236  13.772   7.955
 7909POPC   C4B31750   7.246  13.823   7.655
 7910POPC   NC331751   6.619   2.761   9.455
 7910POPC   PO431752   6.606   2.787   9.155
 7910POPC   GL131753   6.627   2.814   8.855
 7910POPC   GL231754   6.603   2.622   8.855
 7910POPC   C1A31755   6.632   2.732   8.555
 7910POPC   D2A31756   6.675   2.763   8.255
 7910POPC   C3A31757   6.665   2.761   7.955
 7910POPC   C4A31758   6.660   2.792   7.655
 7910POPC   C1B31759   6.538   2.533   8.555
 7910POPC   C2B31760   6.537   2.576   8.255
 7910POPC   C3B31761   6.492   2.538   7.955
 7910POPC   C4B31762   6.516   2.590   7.655
 7911POPC   NC331763   6.602   5.081   9.455
 7911POPC   PO431764   6.603   5.058   9.155
 7911POPC   GL131765   6.644   5.073   8.855
 7911POPC   GL231766   6.567   4.971   8.855
 7911POPC   C1A31767   6.616   5.084   8.555
 7911POPC   D2A31768   6.641   5.136   8.255
 7911POPC   C3A31769   6.690   5.070   7.955
 7911POPC   C4A31770   6.619   5.131   7.655
 7911POPC   C1B31771   6.477   4.873   8.555
 7911POPC   C2B31772   6.524   4.901   8.255
 7911POPC   C3B31773   6.528   4.850   7.955
 7911POPC   C4B31774   6.462   4.899   7.655
 7912POPC   NC331775   7.436   2.014   9.455
 7912POPC   PO431776   7.413   1.956   9.155
 7912POPC   GL131777   7.381   1.950   8.855
 7912POPC   GL231778   7.441   1.865   8.855
 7912POPC   C1A31779   7.451   1.994   8.555
 7912POPC   D2A31780   7.457   2.033   8.255
 7912POPC   C3A31781   7.466   2.001   7.955
 7912POPC   C4A31782   7.457   1.957   7.655
 7912POPC   C1B31783   7.405   1.719   8.555
 7912POPC   C2B31784   7.455   1.786   8.255
 7912POPC   C3B31785   7.465   1.754   7.955
 7912POPC   C4B31786   7.382   1.699   7.655
 7913POPC   NC331787  26.859   9.009   9.455
 7913POPC   PO431788  26.828   8.923   9.155
 7913POPC   GL131789  26.841   8.990   8.855
 7913POPC   GL231790  26.733   9.057   8.855
 7913POPC   C1A31791  26.843   8.988   8.555
 7913POPC   D2A31792  26.858   9.014   8.255
 7913POPC   C3A31793  26.800   8.946   7.955
 7913POPC   C4A31794  26.839   8.993   7.655
 7913POPC   C1B31795  26.723   9.152   8.555
 7913POPC   C2B31796  26.686   9.221   8.255
 7913POPC   C3B31797  26.740   9.226   7.955
 7913POPC   C4B31798  26.658   9.211   7.655
 7914POPC   NC331799  29.179   3.556   9.455
 7914POPC   PO431800  29.140   3.562   9.155
 7914POPC   GL131801  29.130   3.562   8.855
 7914POPC   GL231802  28.974   3.584   8.855
 7914POPC   C1A31803  29.143   3.507   8.555
 7914POPC   D2A31804  29.150   3.549   8.255
 7914POPC   C3A31805  29.135   3.528   7.955
 7914POPC   C4A31806  29.177   3.543   7.655
 7914POPC   C1B31807  28.907   3.555   8.555
 7914POPC   C2B31808  28.850   3.536   8.255
 7914POPC   C3B31809  28.848   3.571   7.955
 7914POPC   C4B31810  28.915   3.572   7.655
 7915POPC   NC331811  44.620  24.502   9.455
 7915POPC   PO431812  44.707  24.520   9.155
 7915POPC   GL131813  44.643  24.507   8.855
 7915POPC   GL231814  44.545  24.595   8.855
 7915POPC   C1A31815  44.674  24.506   8.555
 7915POPC   D2A31816  44.661  24.512   8.255
 7915POPC   C3A31817  44.614  24.516   7.955
 7915POPC   C4A31818  44.645  24.491   7.655
 7915POPC   C1B31819  44.505  24.666   8.555
 7915POPC   C2B31820  44.456  24.676   8.255
 7915POPC   C3B31821  44.448  24.683   7.955
 7915POPC   C4B31822  44.462  24.627   7.655
 7916POPC   NC331823   1.971  29.913   9.455
 7916POPC   PO431824   1.988  29.925   9.155
 7916POPC   GL131825   2.034  29.938   8.855
 7916POPC   GL231826   1.837  29.958   8.855
 7916POPC   C1A31827   2.034  29.911   8.555
 7916POPC   D2A31828   1.961  29.927   8.255
 7916POPC   C3A31829   1.958  29.940   7.955
 7916POPC   C4A31830   1.981  29.947   7.655
 7916POPC   C1B31831   1.760  29.999   8.555
 7916POPC   C2B31832   1.741  29.994   8.255
 7916POPC   C3B31833   1.718  29.990   7.955
 7916POPC   C4B31834   1.737  30.051   7.655
 7917POPC   NC331835  22.914   1.963   9.455
 7917POPC   PO431836  22.899   2.006   9.155
 7917POPC   GL131837  22.972   2.030   8.855
 7917POPC   GL231838  23.032   2.053   8.855
 7917POPC   C1A31839  22.916   1.952   8.555
 7917POPC   D2A31840  22.955   1.982   8.255
 7917POPC   C3A31841  22.964   1.985   7.955
 7917POPC   C4A31842  22.986   2.037   7.655
 7917POPC   C1B31843  23.124   2.108   8.555
 7917POPC   C2B31844  23.186   2.132   8.255
 7917POPC   C3B31845  23.130   2.141   7.955
 7917POPC   C4B31846  23.165   2.077   7.655
 7918POPC   NC331847  41.548   7.444   9.455
 7918POPC   PO431848  41.541   7.460   9.155
 7918POPC   GL131849  41.535   7.416   8.855
 7918POPC   GL231850  41.669   7.417   8.855
 7918POPC   C1A31851  41.592   7.385   8.555
 7918POPC   D2A31852  41.514   7.390   8.255
 7918POPC   C3A31853  41.589   7.439   7.955
 7918POPC   C4A31854  41.545   7.464   7.655
 7918POPC   C1B31855  41.834   7.334   8.555
 7918POPC   C2B31856  41.836   7.339   8.255
 7918POPC   C3B31857  41.762   7.393   7.955
 7918POPC   C4B31858  41.807   7.346   7.655
 7919POPC   NC331859  15.921   9.708   9.455
 7919POPC   PO431860  15.916   9.699   9.155
 7919POPC   GL131861  16.003   9.729   8.855
 7919POPC   GL231862  15.958   9.615   8.855
 7919POPC   C1A31863  15.993   9.713   8.555
 7919POPC   D2A31864  15.986   9.710   8.255
 7919POPC   C3A31865  15.933   9.703   7.955
 7919POPC   C4A31866  15.927   9.778   7.655
 7919POPC   C1B31867  15.900   9.464   8.555
 7919POPC   C2B31868  15.923   9.522   8.255
 7919POPC   C3B31869  15.886   9.503   7.955
 7919POPC   C4B31870  15.926   9.487   7.655
 7920POPC   NC331871  13.637  34.586   9.455
 7920POPC   PO431872  13.594  34.536   9.155
 7920POPC   GL131873  13.626  34.560   8.855
 7920POPC   GL231874  13.598  34.447   8.855
 7920POPC   C1A31875  13.664  34.536   8.555
 7920POPC   D2A31876  13.640  34.607   8.255
 7920POPC   C3A31877  13.632  34.574   7.955
 7920POPC   C4A31878  13.607  34.618   7.655
 7920POPC   C1B31879  13.461  34.411   8.555
 7920POPC   C2B31880  13.478  34.373   8.255
 7920POPC   C3B31881  13.461  34.420   7.955
 7920POPC   C4B31882  13.445  34.337   7.655
 7921POPC   NC331883  31.426  19.836   9.455
 7921POPC   PO431884  31.505  19.836   9.155
 7921POPC   GL131885  31.491  19.791   8.855
 7921POPC   GL231886  31.424  19.887   8.855
 7921POPC   C1A31887  31.435  19.864   8.555
 7921POPC   D2A31888  31.512  19.792   8.255
 7921POPC   C3A31889  31.468  19.827   7.955
 7921POPC   C4A31890  31.464  19.807   7.655
 7921POPC   C1B31891  31.336  19.981   8.555
 7921POPC   C2B31892  31.297  20.070   8.255
 7921POPC   C3B31893  31.344  20.006   7.955
 7921POPC   C4B31894  31.355  19.990   7.655
 7922POPC   NC331895  33.799  28.326   9.455
 7922POPC   PO431896  33.754  28.339   9.155
 7922POPC   GL131897  33.842  28.320   8.855
 7922POPC   GL231898  33.931  28.335   8.855
 7922POPC   C1A31899  33.779  28.418   8.555
 7922POPC   D2A31900  33.777  28.418   8.255
 7922POPC   C3A31901  33.834  28.334   7.955
 7922POPC   C4A31902  33.816  28.392   7.655
 7922POPC   C1B31903  34.033  28.402   8.555
 7922POPC   C2B31904  34.089  28.400   8.255
 7922POPC   C3B31905  34.035  28.356   7.955
 7922POPC   C4B31906  34.037  28.355   7.655
 7923POPC   NC331907   1.970  18.255   9.455
 7923POPC   PO431908   2.016  18.238   9.155
 7923POPC   GL131909   1.996  18.249   8.855
 7923POPC   GL231910   2.073  18.335   8.855
 7923POPC   C1A31911   1.963  18.278   8.555
 7923POPC   D2A31912   2.002  18.278   8.255
 7923POPC   C3A31913   1.988  18.319   7.955
 7923POPC   C4A31914   1.950  18.271   7.655
 7923POPC   C1B31915   2.271  18.375   8.555
 7923POPC   C2B31916   2.210  18.311   8.255
 7923POPC   C3B31917   2.207  18.389   7.955
 7923POPC   C4B31918   2.194  18.322   7.655
 7924POPC   NC331919  32.989  10.480   9.455
 7924POPC   PO431920  33.048  10.572   9.155
 7924POPC   GL131921  32.996  10.476   8.855
 7924POPC   GL231922  32.902  10.545   8.855
 7924POPC   C1A31923  32.981  10.499   8.555
 7924POPC   D2A31924  33.037  10.530   8.255
 7924POPC   C3A31925  32.994  10.478   7.955
 7924POPC   C4A31926  32.984  10.508   7.655
 7924POPC   C1B31927  32.751  10.589   8.555
 7924POPC   C2B31928  32.842  10.592   8.255
 7924POPC   C3B31929  32.834  10.626   7.955
 7924POPC   C4B31930  32.766  10.616   7.655
 7925POPC   NC331931  41.590  26.027   9.455
 7925POPC   PO431932  41.570  26.082   9.155
 7925POPC   GL131933  41.519  26.008   8.855
 7925POPC   GL231934  41.728  26.030   8.855
 7925POPC   C1A31935  41.559  26.037   8.555
 7925POPC   D2A31936  41.587  26.022   8.255
 7925POPC   C3A31937  41.531  26.033   7.955
 7925POPC   C4A31938  41.601  25.999   7.655
 7925POPC   C1B31939  41.818  26.099   8.555
 7925POPC   C2B31940  41.761  26.093   8.255
 7925POPC   C3B31941  41.763  26.106   7.955
 7925POPC   C4B31942  41.843  26.069   7.655
 7926POPC   NC331943   5.848  13.641   9.455
 7926POPC   PO431944   5.840  13.654   9.155
 7926POPC   GL131945   5.829  13.671   8.855
 7926POPC   GL231946   5.794  13.699   8.855
 7926POPC   C1A31947   5.894  13.616   8.555
 7926POPC   D2A31948   5.898  13.676   8.255
 7926POPC   C3A31949   5.892  13.602   7.955
 7926POPC   C4A31950   5.867  13.601   7.655
 7926POPC   C1B31951   5.610  13.772   8.555
 7926POPC   C2B31952   5.673  13.754   8.255
 7926POPC   C3B31953   5.595  13.722   7.955
 7926POPC   C4B31954   5.616  13.710   7.655
 7927POPC   NC331955  22.897  30.743   9.455
 7927POPC   PO431956  22.942  30.733   9.155
 7927POPC   GL131957  22.974  30.692   8.855
 7927POPC   GL231958  23.076  30.607   8.855
 7927POPC   C1A31959  22.976  30.744   8.555
 7927POPC   D2A31960  22.976  30.693   8.255
 7927POPC   C3A31961  22.957  30.658   7.955
 7927POPC   C4A31962  22.942  30.674   7.655
 7927POPC   C1B31963  23.208  30.604   8.555
 7927POPC   C2B31964  23.150  30.616   8.255
 7927POPC   C3B31965  23.127  30.600   7.955
 7927POPC   C4B31966  23.216  30.636   7.655
 7928POPC   NC331967  40.747  22.919   9.455
 7928POPC   PO431968  40.780  22.935   9.155
 7928POPC   GL131969  40.785  22.933   8.855
 7928POPC   GL231970  40.908  22.907   8.855
 7928POPC   C1A31971  40.783  22.939   8.555
 7928POPC   D2A31972  40.758  22.939   8.255
 7928POPC   C3A31973  40.814  22.912   7.955
 7928POPC   C4A31974  40.739  22.950   7.655
 7928POPC   C1B31975  40.989  22.772   8.555
 7928POPC   C2B31976  40.977  22.852   8.255
 7928POPC   C3B31977  40.989  22.816   7.955
 7928POPC   C4B31978  40.956  22.848   7.655
 7929POPC   NC331979  14.361  29.194   9.455
 7929POPC   PO431980  14.379  29.098   9.155
 7929POPC   GL131981  14.413  29.174   8.855
 7929POPC   GL231982  14.338  29.098   8.855
 7929POPC   C1A31983  14.432  29.144   8.555
 7929POPC   D2A31984  14.381  29.179   8.255
 7929POPC   C3A31985  14.441  29.177   7.955
 7929POPC   C4A31986  14.423  29.165   7.655
 7929POPC   C1B31987  14.214  29.023   8.555
 7929POPC   C2B31988  14.239  29.038   8.255
 7929POPC   C3B31989  14.180  29.020   7.955
 7929POPC   C4B31990  14.165  29.022   7.655
 7930POPC   NC331991  11.286   9.749   9.455
 7930POPC   PO431992  11.335   9.748   9.155
 7930POPC   GL131993  11.317   9.742   8.855
 7930POPC   GL231994  11.275   9.581   8.855
 7930POPC   C1A31995  11.285   9.708   8.555
 7930POPC   D2A31996  11.309   9.782   8.255
 7930POPC   C3A31997  11.332   9.782   7.955
 7930POPC   C4A31998  11.323   9.720   7.655
 7930POPC   C1B31999  11.294   9.471   8.555
 7930POPC   C2B32000  11.297   9.492   8.255
 7930POPC   C3B32001  11.291   9.486   7.955
 7930POPC   C4B32002  11.283   9.506   7.655
 7931POPC   NC332003  11.293   1.242   9.455
 7931POPC   PO432004  11.284   1.187   9.155
 7931POPC   GL132005  11.289   1.196   8.855
 7931POPC   GL232006  11.151   1.283   8.855
 7931POPC   C1A32007  11.326   1.236   8.555
 7931POPC   D2A32008  11.302   1.245   8.255
 7931POPC   C3A32009  11.320   1.177   7.955
 7931POPC   C4A32010  11.293   1.260   7.655
 7931POPC   C1B32011  11.083   1.271   8.555
 7931POPC   C2B32012  11.039   1.317   8.255
 7931POPC   C3B32013  11.038   1.301   7.955
 7931POPC   C4B32014  11.088   1.356   7.655
 7932POPC   NC332015  28.356  26.817   9.455
 7932POPC   PO432016  28.375  26.857   9.155
 7932POPC   GL132017  28.364  26.775   8.855
 7932POPC   GL232018  28.310  26.658   8.855
 7932POPC   C1A32019  28.375  26.817   8.555
 7932POPC   D2A32020  28.351  26.805   8.255
 7932POPC   C3A32021  28.387  26.778   7.955
 7932POPC   C4A32022  28.331  26.826   7.655
 7932POPC   C1B32023  28.334  26.582   8.555
 7932POPC   C2B32024  28.324  26.524   8.255
 7932POPC   C3B32025  28.265  26.534   7.955
 7932POPC   C4B32026  28.297  26.527   7.655
 7933POPC   NC332027  24.532  42.348   9.455
 7933POPC   PO432028  24.468  42.317   9.155
 7933POPC   GL132029  24.495  42.374   8.855
 7933POPC   GL232030  24.384  42.262   8.855
 7933POPC   C1A32031  24.517  42.332   8.555
 7933POPC   D2A32032  24.485  42.367   8.255
 7933POPC   C3A32033  24.468  42.330   7.955
 7933POPC   C4A32034  24.498  42.308   7.655
 7933POPC   C1B32035  24.374  42.134   8.555
 7933POPC   C2B32036  24.351  42.089   8.255
 7933POPC   C3B32037  24.335  42.134   7.955
 7933POPC   C4B32038  24.346  42.135   7.655
 7934POPC   NC332039  29.108  38.504   9.455
 7934POPC   PO432040  29.168  38.460   9.155
 7934POPC   GL132041  29.102  38.446   8.855
 7934POPC   GL232042  29.092  38.390   8.855
 7934POPC   C1A32043  29.140  38.467   8.555
 7934POPC   D2A32044  29.187  38.463   8.255
 7934POPC   C3A32045  29.192  38.451   7.955
 7934POPC   C4A32046  29.187  38.493   7.655
 7934POPC   C1B32047  28.932  38.307   8.555
 7934POPC   C2B32048  28.981  38.348   8.255
 7934POPC   C3B32049  28.988  38.264   7.955
 7934POPC   C4B32050  28.922  38.324   7.655
 7935POPC   NC332051  28.372  18.298   9.455
 7935POPC   PO432052  28.362  18.331   9.155
 7935POPC   GL132053  28.365  18.274   8.855
 7935POPC   GL232054  28.341  18.408   8.855
 7935POPC   C1A32055  28.396  18.289   8.555
 7935POPC   D2A32056  28.401  18.235   8.255
 7935POPC   C3A32057  28.415  18.239   7.955
 7935POPC   C4A32058  28.338  18.277   7.655
 7935POPC   C1B32059  28.312  18.524   8.555
 7935POPC   C2B32060  28.296  18.506   8.255
 7935POPC   C3B32061  28.320  18.476   7.955
 7935POPC   C4B32062  28.271  18.495   7.655
 7936POPC   NC332063  20.653   9.702   9.455
 7936POPC   PO432064  20.607   9.732   9.155
 7936POPC   GL132065  20.577   9.717   8.855
 7936POPC   GL232066  20.698   9.709   8.855
 7936POPC   C1A32067  20.613   9.742   8.555
 7936POPC   D2A32068  20.580   9.707   8.255
 7936POPC   C3A32069  20.580   9.724   7.955
 7936POPC   C4A32070  20.567   9.760   7.655
 7936POPC   C1B32071  20.865   9.724   8.555
 7936POPC   C2B32072  20.879   9.778   8.255
 7936POPC   C3B32073  20.814   9.706   7.955
 7936POPC   C4B32074  20.907   9.797   7.655
 7937POPC   NC332075  29.884  19.089   9.455
 7937POPC   PO432076  29.908  19.076   9.155
 7937POPC   GL132077  29.959  19.093   8.855
 7937POPC   GL232078  29.941  18.962   8.855
 7937POPC   C1A32079  29.949  19.012   8.555
 7937POPC   D2A32080  29.941  19.009   8.255
 7937POPC   C3A32081  29.943  19.063   7.955
 7937POPC   C4A32082  29.873  19.024   7.655
 7937POPC   C1B32083  29.932  18.794   8.555
 7937POPC   C2B32084  29.887  18.760   8.255
 7937POPC   C3B32085  29.934  18.846   7.955
 7937POPC   C4B32086  29.940  18.817   7.655
 7938POPC   NC332087  22.159   1.994   9.455
 7938POPC   PO432088  22.170   1.971   9.155
 7938POPC   GL132089  22.206   1.946   8.855
 7938POPC   GL232090  22.301   2.085   8.855
 7938POPC   C1A32091  22.116   1.998   8.555
 7938POPC   D2A32092  22.141   1.990   8.255
 7938POPC   C3A32093  22.207   2.039   7.955
 7938POPC   C4A32094  22.196   1.974   7.655
 7938POPC   C1B32095  22.367   2.212   8.555
 7938POPC   C2B32096  22.335   2.194   8.255
 7938POPC   C3B32097  22.345   2.210   7.955
 7938POPC   C4B32098  22.347   2.216   7.655
 7939POPC   NC332099  21.409   2.764   9.455
 7939POPC   PO432100  21.379   2.739   9.155
 7939POPC   GL132101  21.343   2.743   8.855
 7939POPC   GL232102  21.245   2.871   8.855
 7939POPC   C1A32103  21.396   2.784   8.555
 7939POPC   D2A32104  21.384   2.726   8.255
 7939POPC   C3A32105  21.366   2.791   7.955
 7939POPC   C4A32106  21.418   2.801   7.655
 7939POPC   C1B32107  21.153   2.900   8.555
 7939POPC   C2B32108  21.180   2.973   8.255
 7939POPC   C3B32109  21.160   2.965   7.955
 7939POPC   C4B32110  21.234   2.882   7.655
 7940POPC   NC332111  42.299  18.262   9.455
 7940POPC   PO432112  42.323  18.247   9.155
 7940POPC   GL132113  42.355  18.300   8.855
 7940POPC   GL232114  42.187  18.281   8.855
 7940POPC   C1A32115  42.333  18.325   8.555
 7940POPC   D2A32116  42.299  18.269   8.255
 7940POPC   C3A32117  42.351  18.236   7.955
 7940POPC   C4A32118  42.362  18.265   7.655
 7940POPC   C1B32119  42.114  18.293   8.555
 7940POPC   C2B32120  42.082  18.303   8.255
 7940POPC   C3B32121  42.125  18.350   7.955
 7940POPC   C4B32122  42.096  18.314   7.655
 7941POPC   NC332123  19.050   8.213   9.455
 7941POPC   PO432124  19.097   8.192   9.155
 7941POPC   GL132125  19.027   8.222   8.855
 7941POPC   GL232126  19.124   8.217   8.855
 7941POPC   C1A32127  19.058   8.225   8.555
 7941POPC   D2A32128  19.093   8.165   8.255
 7941POPC   C3A32129  19.069   8.187   7.955
 7941POPC   C4A32130  19.108   8.180   7.655
 7941POPC   C1B32131  19.323   8.251   8.555
 7941POPC   C2B32132  19.295   8.274   8.255
 7941POPC   C3B32133  19.280   8.329   7.955
 7941POPC   C4B32134  19.256   8.324   7.655
 7942POPC   NC332135   0.487  33.839   9.455
 7942POPC   PO432136   0.421  33.806   9.155
 7942POPC   GL132137   0.484  33.841   8.855
 7942POPC   GL232138   0.549  33.666   8.855
 7942POPC   C1A32139   0.444  33.752   8.555
 7942POPC   D2A32140   0.412  33.823   8.255
 7942POPC   C3A32141   0.413  33.847   7.955
 7942POPC   C4A32142   0.481  33.819   7.655
 7942POPC   C1B32143   0.587  33.592   8.555
 7942POPC   C2B32144   0.605  33.573   8.255
 7942POPC   C3B32145   0.526  33.559   7.955
 7942POPC   C4B32146   0.534  33.633   7.655
 7943POPC   NC332147  13.597   8.228   9.455
 7943POPC   PO432148  13.594   8.242   9.155
 7943POPC   GL132149  13.652   8.168   8.855
 7943POPC   GL232150  13.564   8.102   8.855
 7943POPC   C1A32151  13.642   8.167   8.555
 7943POPC   D2A32152  13.605   8.164   8.255
 7943POPC   C3A32153  13.621   8.244   7.955
 7943POPC   C4A32154  13.621   8.168   7.655
 7943POPC   C1B32155  13.450   8.070   8.555
 7943POPC   C2B32156  13.438   8.082   8.255
 7943POPC   C3B32157  13.414   8.043   7.955
 7943POPC   C4B32158  13.482   8.001   7.655
 7944POPC   NC332159  43.926   0.484   9.455
 7944POPC   PO432160  43.860   0.418   9.155
 7944POPC   GL132161  43.843   0.485   8.855
 7944POPC   GL232162  43.946   0.383   8.855
 7944POPC   C1A32163  43.888   0.401   8.555
 7944POPC   D2A32164  43.889   0.391   8.255
 7944POPC   C3A32165  43.845   0.458   7.955
 7944POPC   C4A32166  43.839   0.469   7.655
 7944POPC   C1B32167  44.074   0.245   8.555
 7944POPC   C2B32168  44.081   0.258   8.255
 7944POPC   C3B32169  44.061   0.225   7.955
 7944POPC   C4B32170  44.081   0.266   7.655
 7945POPC   NC332171   4.314   8.993   9.455
 7945POPC   PO432172   4.335   8.991   9.155
 7945POPC   GL132173   4.358   8.927   8.855
 7945POPC   GL232174   4.197   8.977   8.855
 7945POPC   C1A32175   4.361   8.949   8.555
 7945POPC   D2A32176   4.316   8.938   8.255
 7945POPC   C3A32177   4.291   8.982   7.955
 7945POPC   C4A32178   4.281   8.930   7.655
 7945POPC   C1B32179   4.062   8.967   8.555
 7945POPC   C2B32180   4.070   8.978   8.255
 7945POPC   C3B32181   4.080   8.923   7.955
 7945POPC   C4B32182   4.084   8.936   7.655
 7946POPC   NC332183  34.575  12.108   9.455
 7946POPC   PO432184  34.601  12.052   9.155
 7946POPC   GL132185  34.567  12.039   8.855
 7946POPC   GL232186  34.745  12.110   8.855
 7946POPC   C1A32187  34.565  12.062   8.555
 7946POPC   D2A32188  34.619  12.042   8.255
 7946POPC   C3A32189  34.534  12.041   7.955
 7946POPC   C4A32190  34.554  12.096   7.655
 7946POPC   C1B32191  34.780  12.086   8.555
 7946POPC   C2B32192  34.825  12.040   8.255
 7946POPC   C3B32193  34.793  12.032   7.955
 7946POPC   C4B32194  34.777  12.030   7.655
 7947POPC   NC332195  39.263  25.992   9.455
 7947POPC   PO432196  39.259  26.046   9.155
 7947POPC   GL132197  39.265  26.050   8.855
 7947POPC   GL232198  39.253  26.210   8.855
 7947POPC   C1A32199  39.252  26.008   8.555
 7947POPC   D2A32200  39.252  26.052   8.255
 7947POPC   C3A32201  39.208  26.048   7.955
 7947POPC   C4A32202  39.244  26.027   7.655
 7947POPC   C1B32203  39.247  26.334   8.555
 7947POPC   C2B32204  39.253  26.312   8.255
 7947POPC   C3B32205  39.284  26.269   7.955
 7947POPC   C4B32206  39.252  26.319   7.655
 7948POPC   NC332207  36.932   6.654   9.455
 7948POPC   PO432208  36.880   6.680   9.155
 7948POPC   GL132209  36.950   6.639   8.855
 7948POPC   GL232210  36.945   6.577   8.855
 7948POPC   C1A32211  36.929   6.642   8.555
 7948POPC   D2A32212  36.914   6.656   8.255
 7948POPC   C3A32213  36.914   6.600   7.955
 7948POPC   C4A32214  36.931   6.641   7.655
 7948POPC   C1B32215  37.049   6.503   8.555
 7948POPC   C2B32216  37.053   6.459   8.255
 7948POPC   C3B32217  37.043   6.425   7.955
 7948POPC   C4B32218  37.126   6.439   7.655
 7949POPC   NC332219  17.501  26.788   9.455
 7949POPC   PO432220  17.463  26.822   9.155
 7949POPC   GL132221  17.491  26.780   8.855
 7949POPC   GL232222  17.569  26.888   8.855
 7949POPC   C1A32223  17.481  26.778   8.555
 7949POPC   D2A32224  17.472  26.827   8.255
 7949POPC   C3A32225  17.535  26.775   7.955
 7949POPC   C4A32226  17.470  26.813   7.655
 7949POPC   C1B32227  17.712  26.915   8.555
 7949POPC   C2B32228  17.760  26.924   8.255
 7949POPC   C3B32229  17.701  26.944   7.955
 7949POPC   C4B32230  17.760  26.909   7.655
 7950POPC   NC332231  40.802  12.066   9.455
 7950POPC   PO432232  40.812  12.033   9.155
 7950POPC   GL132233  40.736  12.087   8.855
 7950POPC   GL232234  40.703  12.168   8.855
 7950POPC   C1A32235  40.813  12.074   8.555
 7950POPC   D2A32236  40.823  12.075   8.255
 7950POPC   C3A32237  40.822  12.061   7.955
 7950POPC   C4A32238  40.832  12.095   7.655
 7950POPC   C1B32239  40.541  12.200   8.555
 7950POPC   C2B32240  40.578  12.203   8.255
 7950POPC   C3B32241  40.532  12.219   7.955
 7950POPC   C4B32242  40.599  12.256   7.655
 7951POPC   NC332243   5.066  21.359   9.455
 7951POPC   PO432244   5.098  21.415   9.155
 7951POPC   GL132245   5.081  21.406   8.855
 7951POPC   GL232246   5.079  21.538   8.855
 7951POPC   C1A32247   5.143  21.365   8.555
 7951POPC   D2A32248   5.083  21.351   8.255
 7951POPC   C3A32249   5.127  21.372   7.955
 7951POPC   C4A32250   5.136  21.373   7.655
 7951POPC   C1B32251   4.995  21.601   8.555
 7951POPC   C2B32252   4.992  21.559   8.255
 7951POPC   C3B32253   5.002  21.643   7.955
 7951POPC   C4B32254   4.984  21.650   7.655
 7952POPC   NC332255  24.491   8.204   9.455
 7952POPC   PO432256  24.537   8.185   9.155
 7952POPC   GL132257  24.531   8.231   8.855
 7952POPC   GL232258  24.402   8.285   8.855
 7952POPC   C1A32259  24.467   8.154   8.555
 7952POPC   D2A32260  24.493   8.246   8.255
 7952POPC   C3A32261  24.447   8.237   7.955
 7952POPC   C4A32262  24.451   8.208   7.655
 7952POPC   C1B32263  24.279   8.397   8.555
 7952POPC   C2B32264  24.336   8.338   8.255
 7952POPC   C3B32265  24.284   8.421   7.955
 7952POPC   C4B32266  24.284   8.413   7.655
 7953POPC   NC332267  21.409  44.635   9.455
 7953POPC   PO432268  21.436  44.680   9.155
 7953POPC   GL132269  21.374  44.673   8.855
 7953POPC   GL232270  21.275  44.752   8.855
 7953POPC   C1A32271  21.411  44.677   8.555
 7953POPC   D2A32272  21.416  44.680   8.255
 7953POPC   C3A32273  21.351  44.694   7.955
 7953POPC   C4A32274  21.406  44.655   7.655
 7953POPC   C1B32275  21.155  44.798   8.555
 7953POPC   C2B32276  21.176  44.854   8.255
 7953POPC   C3B32277  21.169  44.805   7.955
 7953POPC   C4B32278  21.213  44.870   7.655
 7954POPC   NC332279  24.473  30.648   9.455
 7954POPC   PO432280  24.453  30.727   9.155
 7954POPC   GL132281  24.525  30.705   8.855
 7954POPC   GL232282  24.596  30.725   8.855
 7954POPC   C1A32283  24.477  30.692   8.555
 7954POPC   D2A32284  24.537  30.669   8.255
 7954POPC   C3A32285  24.478  30.684   7.955
 7954POPC   C4A32286  24.453  30.728   7.655
 7954POPC   C1B32287  24.738  30.775   8.555
 7954POPC   C2B32288  24.690  30.717   8.255
 7954POPC   C3B32289  24.713  30.788   7.955
 7954POPC   C4B32290  24.768  30.752   7.655
 7955POPC   NC332291  19.017  12.824   9.455
 7955POPC   PO432292  19.097  12.877   9.155
 7955POPC   GL132293  19.108  12.802   8.855
 7955POPC   GL232294  18.979  12.818   8.855
 7955POPC   C1A32295  19.025  12.872   8.555
 7955POPC   D2A32296  19.027  12.819   8.255
 7955POPC   C3A32297  19.085  12.851   7.955
 7955POPC   C4A32298  19.069  12.822   7.655
 7955POPC   C1B32299  18.899  12.746   8.555
 7955POPC   C2B32300  18.808  12.745   8.255
 7955POPC   C3B32301  18.823  12.733   7.955
 7955POPC   C4B32302  18.887  12.661   7.655
 7956POPC   NC332303  33.756  17.533   9.455
 7956POPC   PO432304  33.774  17.512   9.155
 7956POPC   GL132305  33.832  17.539   8.855
 7956POPC   GL232306  33.659  17.543   8.855
 7956POPC   C1A32307  33.800  17.545   8.555
 7956POPC   D2A32308  33.768  17.511   8.255
 7956POPC   C3A32309  33.750  17.533   7.955
 7956POPC   C4A32310  33.820  17.532   7.655
 7956POPC   C1B32311  33.524  17.565   8.555
 7956POPC   C2B32312  33.582  17.615   8.255
 7956POPC   C3B32313  33.521  17.540   7.955
 7956POPC   C4B32314  33.528  17.546   7.655
 7957POPC   NC332315  27.588  35.353   9.455
 7957POPC   PO432316  27.564  35.329   9.155
 7957POPC   GL132317  27.592  35.333   8.855
 7957POPC   GL232318  27.519  35.416   8.855
 7957POPC   C1A32319  27.625  35.321   8.555
 7957POPC   D2A32320  27.564  35.399   8.255
 7957POPC   C3A32321  27.553  35.343   7.955
 7957POPC   C4A32322  27.597  35.390   7.655
 7957POPC   C1B32323  27.384  35.526   8.555
 7957POPC   C2B32324  27.365  35.530   8.255
 7957POPC   C3B32325  27.451  35.510   7.955
 7957POPC   C4B32326  27.361  35.480   7.655
 7958POPC   NC332327  20.616   8.199   9.455
 7958POPC   PO432328  20.635   8.238   9.155
 7958POPC   GL132329  20.586   8.220   8.855
 7958POPC   GL232330  20.553   8.104   8.855
 7958POPC   C1A32331  20.603   8.245   8.555
 7958POPC   D2A32332  20.630   8.229   8.255
 7958POPC   C3A32333  20.601   8.171   7.955
 7958POPC   C4A32334  20.606   8.226   7.655
 7958POPC   C1B32335  20.464   8.025   8.555
 7958POPC   C2B32336  20.539   7.935   8.255
 7958POPC   C3B32337  20.500   7.976   7.955
 7958POPC   C4B32338  20.465   7.983   7.655
 7959POPC   NC332339  39.967  12.868   9.455
 7959POPC   PO432340  39.991  12.844   9.155
 7959POPC   GL132341  40.047  12.827   8.855
 7959POPC   GL232342  40.120  12.836   8.855
 7959POPC   C1A32343  40.015  12.869   8.555
 7959POPC   D2A32344  39.977  12.802   8.255
 7959POPC   C3A32345  40.053  12.878   7.955
 7959POPC   C4A32346  40.015  12.845   7.655
 7959POPC   C1B32347  40.206  12.957   8.555
 7959POPC   C2B32348  40.275  12.880   8.255
 7959POPC   C3B32349  40.200  12.888   7.955
 7959POPC   C4B32350  40.267  12.920   7.655
 7960POPC   NC332351   4.276  43.107   9.455
 7960POPC   PO432352   4.351  43.145   9.155
 7960POPC   GL132353   4.278  43.152   8.855
 7960POPC   GL232354   4.180  43.062   8.855
 7960POPC   C1A32355   4.332  43.124   8.555
 7960POPC   D2A32356   4.362  43.079   8.255
 7960POPC   C3A32357   4.320  43.117   7.955
 7960POPC   C4A32358   4.271  43.099   7.655
 7960POPC   C1B32359   4.099  43.057   8.555
 7960POPC   C2B32360   4.044  43.091   8.255
 7960POPC   C3B32361   4.094  43.059   7.955
 7960POPC   C4B32362   4.118  43.069   7.655
 7961POPC   NC332363  16.724  29.169   9.455
 7961POPC   PO432364  16.741  29.104   9.155
 7961POPC   GL132365  16.764  29.163   8.855
 7961POPC   GL232366  16.611  29.120   8.855
 7961POPC   C1A32367  16.742  29.136   8.555
 7961POPC   D2A32368  16.753  29.169   8.255
 7961POPC   C3A32369  16.693  29.157   7.955
 7961POPC   C4A32370  16.719  29.113   7.655
 7961POPC   C1B32371  16.463  29.198   8.555
 7961POPC   C2B32372  16.436  29.165   8.255
 7961POPC   C3B32373  16.515  29.126   7.955
 7961POPC   C4B32374  16.465  29.151   7.655
 7962POPC   NC332375  27.544   5.835   9.455
 7962POPC   PO432376  27.619   5.862   9.155
 7962POPC   GL132377  27.620   5.919   8.855
 7962POPC   GL232378  27.678   5.727   8.855
 7962POPC   C1A32379  27.623   5.838   8.555
 7962POPC   D2A32380  27.629   5.873   8.255
 7962POPC   C3A32381  27.571   5.918   7.955
 7962POPC   C4A32382  27.618   5.831   7.655
 7962POPC   C1B32383  27.746   5.604   8.555
 7962POPC   C2B32384  27.704   5.649   8.255
 7962POPC   C3B32385  27.706   5.652   7.955
 7962POPC   C4B32386  27.702   5.688   7.655
 7963POPC   NC332387  20.572  31.430   9.455
 7963POPC   PO432388  20.563  31.512   9.155
 7963POPC   GL132389  20.588  31.509   8.855
 7963POPC   GL232390  20.686  31.354   8.855
 7963POPC   C1A32391  20.588  31.480   8.555
 7963POPC   D2A32392  20.591  31.503   8.255
 7963POPC   C3A32393  20.647  31.508   7.955
 7963POPC   C4A32394  20.631  31.458   7.655
 7963POPC   C1B32395  20.834  31.350   8.555
 7963POPC   C2B32396  20.782  31.270   8.255
 7963POPC   C3B32397  20.788  31.302   7.955
 7963POPC   C4B32398  20.809  31.311   7.655
 7964POPC   NC332399  25.237   7.391   9.455
 7964POPC   PO432400  25.306   7.422   9.155
 7964POPC   GL132401  25.301   7.387   8.855
 7964POPC   GL232402  25.346   7.331   8.855
 7964POPC   C1A32403  25.219   7.462   8.555
 7964POPC   D2A32404  25.251   7.387   8.255
 7964POPC   C3A32405  25.287   7.458   7.955
 7964POPC   C4A32406  25.260   7.391   7.655
 7964POPC   C1B32407  25.353   7.168   8.555
 7964POPC   C2B32408  25.421   7.249   8.255
 7964POPC   C3B32409  25.362   7.246   7.955
 7964POPC   C4B32410  25.404   7.205   7.655
 7965POPC   NC332411  15.912   3.568   9.455
 7965POPC   PO432412  15.956   3.583   9.155
 7965POPC   GL132413  15.988   3.537   8.855
 7965POPC   GL232414  16.079   3.532   8.855
 7965POPC   C1A32415  15.984   3.537   8.555
 7965POPC   D2A32416  15.906   3.510   8.255
 7965POPC   C3A32417  15.978   3.574   7.955
 7965POPC   C4A32418  15.972   3.507   7.655
 7965POPC   C1B32419  16.240   3.576   8.555
 7965POPC   C2B32420  16.178   3.616   8.255
 7965POPC   C3B32421  16.156   3.561   7.955
 7965POPC   C4B32422  16.216   3.566   7.655
 7966POPC   NC332423   1.193   0.462   9.455
 7966POPC   PO432424   1.232   0.406   9.155
 7966POPC   GL132425   1.186   0.457   8.855
 7966POPC   GL232426   1.065   0.450   8.855
 7966POPC   C1A32427   1.209   0.419   8.555
 7966POPC   D2A32428   1.179   0.471   8.255
 7966POPC   C3A32429   1.168   0.392   7.955
 7966POPC   C4A32430   1.205   0.390   7.655
 7966POPC   C1B32431   0.999   0.503   8.555
 7966POPC   C2B32432   0.970   0.511   8.255
 7966POPC   C3B32433   0.999   0.546   7.955
 7966POPC   C4B32434   0.988   0.551   7.655
 7967POPC   NC332435  16.749  12.871   9.455
 7967POPC   PO432436  16.765  12.888   9.155
 7967POPC   GL132437  16.766  12.848   8.855
 7967POPC   GL232438  16.602  12.822   8.855
 7967POPC   C1A32439  16.764  12.867   8.555
 7967POPC   D2A32440  16.734  12.846   8.255
 7967POPC   C3A32441  16.768  12.826   7.955
 7967POPC   C4A32442  16.779  12.867   7.655
 7967POPC   C1B32443  16.553  12.694   8.555
 7967POPC   C2B32444  16.465  12.766   8.255
 7967POPC   C3B32445  16.505  12.699   7.955
 7967POPC   C4B32446  16.500  12.760   7.655
 7968POPC   NC332447  21.417  36.121   9.455
 7968POPC   PO432448  21.388  36.089   9.155
 7968POPC   GL132449  21.344  36.146   8.855
 7968POPC   GL232450  21.341  36.046   8.855
 7968POPC   C1A32451  21.340  36.092   8.555
 7968POPC   D2A32452  21.356  36.087   8.255
 7968POPC   C3A32453  21.394  36.156   7.955
 7968POPC   C4A32454  21.417  36.174   7.655
 7968POPC   C1B32455  21.296  35.915   8.555
 7968POPC   C2B32456  21.233  35.909   8.255
 7968POPC   C3B32457  21.258  35.958   7.955
 7968POPC   C4B32458  21.218  35.960   7.655
 7969POPC   NC332459  15.157  32.239   9.455
 7969POPC   PO432460  15.209  32.232   9.155
 7969POPC   GL132461  15.206  32.243   8.855
 7969POPC   GL232462  15.297  32.203   8.855
 7969POPC   C1A32463  15.158  32.251   8.555
 7969POPC   D2A32464  15.205  32.230   8.255
 7969POPC   C3A32465  15.167  32.275   7.955
 7969POPC   C4A32466  15.136  32.288   7.655
 7969POPC   C1B32467  15.308  32.058   8.555
 7969POPC   C2B32468  15.323  32.071   8.255
 7969POPC   C3B32469  15.296  32.071   7.955
 7969POPC   C4B32470  15.338  32.063   7.655
 7970POPC   NC332471  31.517   6.663   9.455
 7970POPC   PO432472  31.518   6.690   9.155
 7970POPC   GL132473  31.517   6.608   8.855
 7970POPC   GL232474  31.458   6.490   8.855
 7970POPC   C1A32475  31.492   6.690   8.555
 7970POPC   D2A32476  31.479   6.670   8.255
 7970POPC   C3A32477  31.514   6.613   7.955
 7970POPC   C4A32478  31.522   6.690   7.655
 7970POPC   C1B32479  31.398   6.440   8.555
 7970POPC   C2B32480  31.432   6.394   8.255
 7970POPC   C3B32481  31.451   6.437   7.955
 7970POPC   C4B32482  31.441   6.382   7.655
 7971POPC   NC332483   8.198  37.676   9.455
 7971POPC   PO432484   8.243  37.690   9.155
 7971POPC   GL132485   8.173  37.649   8.855
 7971POPC   GL232486   8.097  37.565   8.855
 7971POPC   C1A32487   8.170  37.710   8.555
 7971POPC   D2A32488   8.171  37.634   8.255
 7971POPC   C3A32489   8.242  37.638   7.955
 7971POPC   C4A32490   8.162  37.720   7.655
 7971POPC   C1B32491   8.006  37.489   8.555
 7971POPC   C2B32492   7.958  37.540   8.255
 7971POPC   C3B32493   7.975  37.523   7.955
 7971POPC   C4B32494   8.031  37.493   7.655
 7972POPC   NC332495   2.798  40.036   9.455
 7972POPC   PO432496   2.779  40.021   9.155
 7972POPC   GL132497   2.785  39.982   8.855
 7972POPC   GL232498   2.688  39.979   8.855
 7972POPC   C1A32499   2.762  40.050   8.555
 7972POPC   D2A32500   2.745  40.008   8.255
 7972POPC   C3A32501   2.758  40.005   7.955
 7972POPC   C4A32502   2.788  39.997   7.655
 7972POPC   C1B32503   2.541  39.910   8.555
 7972POPC   C2B32504   2.490  39.908   8.255
 7972POPC   C3B32505   2.488  39.946   7.955
 7972POPC   C4B32506   2.491  39.942   7.655
 7973POPC   NC332507   2.011   5.886   9.455
 7973POPC   PO432508   2.033   5.887   9.155
 7973POPC   GL132509   2.000   5.836   8.855
 7973POPC   GL232510   2.040   5.933   8.855
 7973POPC   C1A32511   1.983   5.885   8.555
 7973POPC   D2A32512   1.960   5.857   8.255
 7973POPC   C3A32513   1.967   5.834   7.955
 7973POPC   C4A32514   1.998   5.841   7.655
 7973POPC   C1B32515   2.167   6.055   8.555
 7973POPC   C2B32516   2.159   6.047   8.255
 7973POPC   C3B32517   2.089   6.129   7.955
 7973POPC   C4B32518   2.121   6.106   7.655
 7974POPC   NC332519  23.733   5.111   9.455
 7974POPC   PO432520  23.748   5.140   9.155
 7974POPC   GL132521  23.721   5.114   8.855
 7974POPC   GL232522  23.807   5.076   8.855
 7974POPC   C1A32523  23.735   5.077   8.555
 7974POPC   D2A32524  23.687   5.060   8.255
 7974POPC   C3A32525  23.695   5.048   7.955
 7974POPC   C4A32526  23.698   5.084   7.655
 7974POPC   C1B32527  23.962   5.005   8.555
 7974POPC   C2B32528  23.974   5.062   8.255
 7974POPC   C3B32529  23.934   5.029   7.955
 7974POPC   C4B32530  23.994   5.085   7.655
 7975POPC   NC332531   2.736  39.273   9.455
 7975POPC   PO432532   2.729  39.211   9.155
 7975POPC   GL132533   2.797  39.217   8.855
 7975POPC   GL232534   2.814  39.317   8.855
 7975POPC   C1A32535   2.762  39.186   8.555
 7975POPC   D2A32536   2.782  39.209   8.255
 7975POPC   C3A32537   2.778  39.267   7.955
 7975POPC   C4A32538   2.737  39.235   7.655
 7975POPC   C1B32539   2.885  39.401   8.555
 7975POPC   C2B32540   2.898  39.483   8.255
 7975POPC   C3B32541   2.917  39.445   7.955
 7975POPC   C4B32542   2.941  39.440   7.655
 7976POPC   NC332543  23.738   6.601   9.455
 7976POPC   PO432544  23.746   6.671   9.155
 7976POPC   GL132545  23.734   6.606   8.855
 7976POPC   GL232546  23.589   6.681   8.855
 7976POPC   C1A32547  23.707   6.597   8.555
 7976POPC   D2A32548  23.677   6.615   8.255
 7976POPC   C3A32549  23.724   6.626   7.955
 7976POPC   C4A32550  23.675   6.618   7.655
 7976POPC   C1B32551  23.497   6.648   8.555
 7976POPC   C2B32552  23.429   6.647   8.255
 7976POPC   C3B32553  23.503   6.720   7.955
 7976POPC   C4B32554  23.514   6.688   7.655
 7977POPC   NC332555  10.558   5.143   9.455
 7977POPC   PO432556  10.561   5.113   9.155
 7977POPC   GL132557  10.514   5.138   8.855
 7977POPC   GL232558  10.508   5.206   8.855
 7977POPC   C1A32559  10.567   5.120   8.555
 7977POPC   D2A32560  10.480   5.127   8.255
 7977POPC   C3A32561  10.507   5.056   7.955
 7977POPC   C4A32562  10.514   5.120   7.655
 7977POPC   C1B32563  10.576   5.381   8.555
 7977POPC   C2B32564  10.570   5.295   8.255
 7977POPC   C3B32565  10.579   5.327   7.955
 7977POPC   C4B32566  10.551   5.299   7.655
 7978POPC   NC332567  26.844  16.769   9.455
 7978POPC   PO432568  26.786  16.699   9.155
 7978POPC   GL132569  26.827  16.689   8.855
 7978POPC   GL232570  26.953  16.779   8.855
 7978POPC   C1A32571  26.826  16.717   8.555
 7978POPC   D2A32572  26.830  16.700   8.255
 7978POPC   C3A32573  26.855  16.755   7.955
 7978POPC   C4A32574  26.813  16.715   7.655
 7978POPC   C1B32575  27.009  16.911   8.555
 7978POPC   C2B32576  27.007  16.905   8.255
 7978POPC   C3B32577  27.024  16.915   7.955
 7978POPC   C4B32578  27.007  16.946   7.655
 7979POPC   NC332579  26.806  33.044   9.455
 7979POPC   PO432580  26.805  32.999   9.155
 7979POPC   GL132581  26.786  33.006   8.855
 7979POPC   GL232582  26.896  33.141   8.855
 7979POPC   C1A32583  26.828  32.994   8.555
 7979POPC   D2A32584  26.866  33.016   8.255
 7979POPC   C3A32585  26.803  33.051   7.955
 7979POPC   C4A32586  26.773  32.985   7.655
 7979POPC   C1B32587  26.887  33.272   8.555
 7979POPC   C2B32588  26.925  33.285   8.255
 7979POPC   C3B32589  26.946  33.219   7.955
 7979POPC   C4B32590  26.907  33.280   7.655
 7980POPC   NC332591  43.839  31.486   9.455
 7980POPC   PO432592  43.893  31.452   9.155
 7980POPC   GL132593  43.882  31.517   8.855
 7980POPC   GL232594  43.876  31.352   8.855
 7980POPC   C1A32595  43.871  31.489   8.555
 7980POPC   D2A32596  43.888  31.513   8.255
 7980POPC   C3A32597  43.901  31.468   7.955
 7980POPC   C4A32598  43.908  31.436   7.655
 7980POPC   C1B32599  43.923  31.189   8.555
 7980POPC   C2B32600  43.986  31.234   8.255
 7980POPC   C3B32601  43.942  31.188   7.955
 7980POPC   C4B32602  43.934  31.248   7.655
 7981POPC   NC332603  12.034   2.752   9.455
 7981POPC   PO432604  12.053   2.762   9.155
 7981POPC   GL132605  12.082   2.799   8.855
 7981POPC   GL232606  12.213   2.667   8.855
 7981POPC   C1A32607  12.071   2.780   8.555
 7981POPC   D2A32608  12.115   2.775   8.255
 7981POPC   C3A32609  12.061   2.739   7.955
 7981POPC   C4A32610  12.034   2.795   7.655
 7981POPC   C1B32611  12.255   2.606   8.555
 7981POPC   C2B32612  12.228   2.612   8.255
 7981POPC   C3B32613  12.269   2.635   7.955
 7981POPC   C4B32614  12.306   2.617   7.655
 7982POPC   NC332615  43.935   3.589   9.455
 7982POPC   PO432616  43.844   3.590   9.155
 7982POPC   GL132617  43.903   3.565   8.855
 7982POPC   GL232618  43.949   3.628   8.855
 7982POPC   C1A32619  43.902   3.513   8.555
 7982POPC   D2A32620  43.903   3.506   8.255
 7982POPC   C3A32621  43.865   3.543   7.955
 7982POPC   C4A32622  43.932   3.536   7.655
 7982POPC   C1B32623  44.074   3.674   8.555
 7982POPC   C2B32624  44.061   3.744   8.255
 7982POPC   C3B32625  44.033   3.683   7.955
 7982POPC   C4B32626  44.041   3.688   7.655
 7983POPC   NC332627   8.965  30.657   9.455
 7983POPC   PO432628   8.968  30.723   9.155
 7983POPC   GL132629   8.948  30.687   8.855
 7983POPC   GL232630   9.044  30.860   8.855
 7983POPC   C1A32631   8.929  30.691   8.555
 7983POPC   D2A32632   8.927  30.712   8.255
 7983POPC   C3A32633   8.997  30.738   7.955
 7983POPC   C4A32634   8.982  30.712   7.655
 7983POPC   C1B32635   9.101  30.950   8.555
 7983POPC   C2B32636   9.020  30.916   8.255
 7983POPC   C3B32637   9.070  30.892   7.955
 7983POPC   C4B32638   9.080  30.933   7.655
 7984POPC   NC332639   4.279  29.964   9.455
 7984POPC   PO432640   4.307  29.937   9.155
 7984POPC   GL132641   4.355  29.925   8.855
 7984POPC   GL232642   4.359  29.802   8.855
 7984POPC   C1A32643   4.267  29.949   8.555
 7984POPC   D2A32644   4.335  29.954   8.255
 7984POPC   C3A32645   4.326  29.951   7.955
 7984POPC   C4A32646   4.359  29.967   7.655
 7984POPC   C1B32647   4.363  29.718   8.555
 7984POPC   C2B32648   4.328  29.635   8.255
 7984POPC   C3B32649   4.370  29.663   7.955
 7984POPC   C4B32650   4.285  29.710   7.655
 7985POPC   NC332651  19.036  26.015   9.455
 7985POPC   PO432652  19.055  26.079   9.155
 7985POPC   GL132653  19.030  26.071   8.855
 7985POPC   GL232654  18.922  25.919   8.855
 7985POPC   C1A32655  19.046  26.048   8.555
 7985POPC   D2A32656  19.060  26.039   8.255
 7985POPC   C3A32657  19.034  26.012   7.955
 7985POPC   C4A32658  19.038  26.079   7.655
 7985POPC   C1B32659  18.866  25.850   8.555
 7985POPC   C2B32660  18.851  25.922   8.255
 7985POPC   C3B32661  18.894  25.908   7.955
 7985POPC   C4B32662  18.858  25.864   7.655
 7986POPC   NC332663  40.040  43.135   9.455
 7986POPC   PO432664  40.012  43.098   9.155
 7986POPC   GL132665  40.007  43.103   8.855
 7986POPC   GL232666  39.972  42.997   8.855
 7986POPC   C1A32667  40.027  43.116   8.555
 7986POPC   D2A32668  40.020  43.072   8.255
 7986POPC   C3A32669  39.996  43.101   7.955
 7986POPC   C4A32670  40.009  43.121   7.655
 7986POPC   C1B32671  39.951  42.901   8.555
 7986POPC   C2B32672  39.944  42.897   8.255
 7986POPC   C3B32673  39.957  42.845   7.955
 7986POPC   C4B32674  39.951  42.887   7.655
 7987POPC   NC332675  40.005   4.296   9.455
 7987POPC   PO432676  39.997   4.310   9.155
 7987POPC   GL132677  39.972   4.311   8.855
 7987POPC   GL232678  40.112   4.357   8.855
 7987POPC   C1A32679  40.052   4.310   8.555
 7987POPC   D2A32680  40.010   4.296   8.255
 7987POPC   C3A32681  40.001   4.356   7.955
 7987POPC   C4A32682  40.016   4.326   7.655
 7987POPC   C1B32683  40.221   4.360   8.555
 7987POPC   C2B32684  40.228   4.325   8.255
 7987POPC   C3B32685  40.252   4.353   7.955
 7987POPC   C4B32686  40.285   4.307   7.655
 7988POPC   NC332687  43.116  17.556   9.455
 7988POPC   PO432688  43.073  17.515   9.155
 7988POPC   GL132689  43.078  17.497   8.855
 7988POPC   GL232690  43.248  17.578   8.855
 7988POPC   C1A32691  43.102  17.536   8.555
 7988POPC   D2A32692  43.137  17.515   8.255
 7988POPC   C3A32693  43.118  17.549   7.955
 7988POPC   C4A32694  43.113  17.550   7.655
 7988POPC   C1B32695  43.341  17.615   8.555
 7988POPC   C2B32696  43.328  17.659   8.255
 7988POPC   C3B32697  43.304  17.647   7.955
 7988POPC   C4B32698  43.306  17.651   7.655
 7989POPC   NC332699  13.661   3.579   9.455
 7989POPC   PO432700  13.668   3.528   9.155
 7989POPC   GL132701  13.660   3.552   8.855
 7989POPC   GL232702  13.487   3.488   8.855
 7989POPC   C1A32703  13.581   3.553   8.555
 7989POPC   D2A32704  13.600   3.514   8.255
 7989POPC   C3A32705  13.661   3.551   7.955
 7989POPC   C4A32706  13.578   3.560   7.655
 7989POPC   C1B32707  13.454   3.351   8.555
 7989POPC   C2B32708  13.443   3.431   8.255
 7989POPC   C3B32709  13.462   3.372   7.955
 7989POPC   C4B32710  13.384   3.345   7.655
 7990POPC   NC332711  10.481   6.691   9.455
 7990POPC   PO432712  10.513   6.647   9.155
 7990POPC   GL132713  10.529   6.645   8.855
 7990POPC   GL232714  10.647   6.641   8.855
 7990POPC   C1A32715  10.494   6.654   8.555
 7990POPC   D2A32716  10.560   6.626   8.255
 7990POPC   C3A32717  10.474   6.692   7.955
 7990POPC   C4A32718  10.496   6.649   7.655
 7990POPC   C1B32719  10.731   6.596   8.555
 7990POPC   C2B32720  10.794   6.628   8.255
 7990POPC   C3B32721  10.806   6.625   7.955
 7990POPC   C4B32722  10.767   6.544   7.655
 7991POPC   NC332723  19.865   0.415   9.455
 7991POPC   PO432724  19.788   0.401   9.155
 7991POPC   GL132725  19.801   0.468   8.855
 7991POPC   GL232726  19.689   0.517   8.855
 7991POPC   C1A32727  19.823   0.417   8.555
 7991POPC   D2A32728  19.855   0.444   8.255
 7991POPC   C3A32729  19.868   0.400   7.955
 7991POPC   C4A32730  19.820   0.411   7.655
 7991POPC   C1B32731  19.653   0.505   8.555
 7991POPC   C2B32732  19.564   0.589   8.255
 7991POPC   C3B32733  19.596   0.571   7.955
 7991POPC   C4B32734  19.619   0.529   7.655
 7992POPC   NC332735  13.634  38.498   9.455
 7992POPC   PO432736  13.633  38.470   9.155
 7992POPC   GL132737  13.623  38.501   8.855
 7992POPC   GL232738  13.789  38.505   8.855
 7992POPC   C1A32739  13.629  38.474   8.555
 7992POPC   D2A32740  13.659  38.422   8.255
 7992POPC   C3A32741  13.622  38.478   7.955
 7992POPC   C4A32742  13.659  38.413   7.655
 7992POPC   C1B32743  13.828  38.554   8.555
 7992POPC   C2B32744  13.824  38.499   8.255
 7992POPC   C3B32745  13.916  38.530   7.955
 7992POPC   C4B32746  13.872  38.542   7.655
 7993POPC   NC332747   9.725  10.521   9.455
 7993POPC   PO432748   9.740  10.474   9.155
 7993POPC   GL132749   9.699  10.571   8.855
 7993POPC   GL232750   9.635  10.650   8.855
 7993POPC   C1A32751   9.760  10.504   8.555
 7993POPC   D2A32752   9.771  10.536   8.255
 7993POPC   C3A32753   9.777  10.564   7.955
 7993POPC   C4A32754   9.729  10.485   7.655
 7993POPC   C1B32755   9.589  10.775   8.555
 7993POPC   C2B32756   9.580  10.713   8.255
 7993POPC   C3B32757   9.615  10.776   7.955
 7993POPC   C4B32758   9.610  10.783   7.655
 7994POPC   NC332759  23.666  43.101   9.455
 7994POPC   PO432760  23.734  43.136   9.155
 7994POPC   GL132761  23.692  43.075   8.855
 7994POPC   GL232762  23.669  43.193   8.855
 7994POPC   C1A32763  23.696  43.076   8.555
 7994POPC   D2A32764  23.707  43.136   8.255
 7994POPC   C3A32765  23.752  43.065   7.955
 7994POPC   C4A32766  23.703  43.085   7.655
 7994POPC   C1B32767  23.576  43.308   8.555
 7994POPC   C2B32768  23.559  43.321   8.255
 7994POPC   C3B32769  23.593  43.283   7.955
 7994POPC   C4B32770  23.518  43.283   7.655
 7995POPC   NC332771  37.697  19.056   9.455
 7995POPC   PO432772  37.651  19.013   9.155
 7995POPC   GL132773  37.707  19.093   8.855
 7995POPC   GL232774  37.682  19.153   8.855
 7995POPC   C1A32775  37.663  19.041   8.555
 7995POPC   D2A32776  37.729  19.026   8.255
 7995POPC   C3A32777  37.722  19.087   7.955
 7995POPC   C4A32778  37.670  19.103   7.655
 7995POPC   C1B32779  37.567  19.349   8.555
 7995POPC   C2B32780  37.621  19.277   8.255
 7995POPC   C3B32781  37.595  19.253   7.955
 7995POPC   C4B32782  37.658  19.345   7.655
 7996POPC   NC332783   5.821  16.726   9.455
 7996POPC   PO432784   5.896  16.726   9.155
 7996POPC   GL132785   5.907  16.691   8.855
 7996POPC   GL232786   5.715  16.747   8.855
 7996POPC   C1A32787   5.881  16.764   8.555
 7996POPC   D2A32788   5.851  16.693   8.255
 7996POPC   C3A32789   5.848  16.717   7.955
 7996POPC   C4A32790   5.826  16.729   7.655
 7996POPC   C1B32791   5.667  16.755   8.555
 7996POPC   C2B32792   5.643  16.793   8.255
 7996POPC   C3B32793   5.618  16.800   7.955
 7996POPC   C4B32794   5.673  16.793   7.655
 7997POPC   NC332795  40.055  34.598   9.455
 7997POPC   PO432796  39.965  34.529   9.155
 7997POPC   GL132797  40.012  34.619   8.855
 7997POPC   GL232798  40.131  34.691   8.855
 7997POPC   C1A32799  39.968  34.587   8.555
 7997POPC   D2A32800  39.983  34.585   8.255
 7997POPC   C3A32801  40.056  34.535   7.955
 7997POPC   C4A32802  40.047  34.579   7.655
 7997POPC   C1B32803  40.182  34.759   8.555
 7997POPC   C2B32804  40.164  34.721   8.255
 7997POPC   C3B32805  40.213  34.706   7.955
 7997POPC   C4B32806  40.200  34.749   7.655
 7998POPC   NC332807  31.517  13.655   9.455
 7998POPC   PO432808  31.451  13.616   9.155
 7998POPC   GL132809  31.489  13.618   8.855
 7998POPC   GL232810  31.585  13.692   8.855
 7998POPC   C1A32811  31.443  13.633   8.555
 7998POPC   D2A32812  31.473  13.645   8.255
 7998POPC   C3A32813  31.473  13.604   7.955
 7998POPC   C4A32814  31.459  13.670   7.655
 7998POPC   C1B32815  31.640  13.738   8.555
 7998POPC   C2B32816  31.699  13.716   8.255
 7998POPC   C3B32817  31.682  13.787   7.955
 7998POPC   C4B32818  31.716  13.722   7.655
 7999POPC   NC332819  32.249   1.221   9.455
 7999POPC   PO432820  32.242   1.175   9.155
 7999POPC   GL132821  32.233   1.171   8.855
 7999POPC   GL232822  32.237   1.111   8.855
 7999POPC   C1A32823  32.243   1.177   8.555
 7999POPC   D2A32824  32.264   1.236   8.255
 7999POPC   C3A32825  32.258   1.203   7.955
 7999POPC   C4A32826  32.199   1.173   7.655
 7999POPC   C1B32827  32.244   0.957   8.555
 7999POPC   C2B32828  32.287   0.932   8.255
 7999POPC   C3B32829  32.271   0.937   7.955
 7999POPC   C4B32830  32.292   0.951   7.655
 8000POPC   NC332831   8.958  22.131   9.455
 8000POPC   PO432832   9.016  22.182   9.155
 8000POPC   GL132833   8.942  22.115   8.855
 8000POPC   GL232834   9.025  22.037   8.855
 8000POPC   C1A32835   8.948  22.156   8.555
 8000POPC   D2A32836   8.951  22.167   8.255
 8000POPC   C3A32837   8.944  22.189   7.955
 8000POPC   C4A32838   8.932  22.159   7.655
 8000POPC   C1B32839   9.118  21.987   8.555
 8000POPC   C2B32840   9.188  22.010   8.255
 8000POPC   C3B32841   9.115  22.033   7.955
 8000POPC   C4B32842   9.116  22.024   7.655
 8001POPC   NC332843   8.154  36.119   9.455
 8001POPC   PO432844   8.158  36.147   9.155
 8001POPC   GL132845   8.204  36.161   8.855
 8001POPC   GL232846   8.328  36.137   8.855
 8001POPC   C1A32847   8.155  36.085   8.555
 8001POPC   D2A32848   8.206  36.081   8.255
 8001POPC   C3A32849   8.241  36.096   7.955
 8001POPC   C4A32850   8.211  36.100   7.655
 8001POPC   C1B32851   8.441  36.115   8.555
 8001POPC   C2B32852   8.470  36.078   8.255
 8001POPC   C3B32853   8.440  36.111   7.955
 8001POPC   C4B32854   8.444  36.082   7.655
 8002POPC   NC332855  22.200  29.113   9.455
 8002POPC   PO432856  22.144  29.173   9.155
 8002POPC   GL132857  22.148  29.176   8.855
 8002POPC   GL232858  22.256  29.030   8.855
 8002POPC   C1A32859  22.157  29.155   8.555
 8002POPC   D2A32860  22.177  29.136   8.255
 8002POPC   C3A32861  22.193  29.110   7.955
 8002POPC   C4A32862  22.149  29.171   7.655
 8002POPC   C1B32863  22.286  28.945   8.555
 8002POPC   C2B32864  22.290  28.899   8.255
 8002POPC   C3B32865  22.277  28.904   7.955
 8002POPC   C4B32866  22.284  28.872   7.655
 8003POPC   NC332867  25.261   6.681   9.455
 8003POPC   PO432868  25.239   6.663   9.155
 8003POPC   GL132869  25.231   6.602   8.855
 8003POPC   GL232870  25.329   6.531   8.855
 8003POPC   C1A32871  25.246   6.679   8.555
 8003POPC   D2A32872  25.230   6.634   8.255
 8003POPC   C3A32873  25.295   6.664   7.955
 8003POPC   C4A32874  25.255   6.665   7.655
 8003POPC   C1B32875  25.396   6.450   8.555
 8003POPC   C2B32876  25.435   6.411   8.255
 8003POPC   C3B32877  25.353   6.415   7.955
 8003POPC   C4B32878  25.347   6.426   7.655
 8004POPC   NC332879  20.623   4.280   9.455
 8004POPC   PO432880  20.616   4.310   9.155
 8004POPC   GL132881  20.647   4.320   8.855
 8004POPC   GL232882  20.680   4.258   8.855
 8004POPC   C1A32883  20.565   4.362   8.555
 8004POPC   D2A32884  20.640   4.331   8.255
 8004POPC   C3A32885  20.563   4.290   7.955
 8004POPC   C4A32886  20.565   4.328   7.655
 8004POPC   C1B32887  20.773   4.130   8.555
 8004POPC   C2B32888  20.792   4.135   8.255
 8004POPC   C3B32889  20.720   4.097   7.955
 8004POPC   C4B32890  20.766   4.104   7.655
 8005POPC   NC332891   4.285   6.632   9.455
 8005POPC   PO432892   4.356   6.618   9.155
 8005POPC   GL132893   4.337   6.644   8.855
 8005POPC   GL232894   4.213   6.785   8.855
 8005POPC   C1A32895   4.290   6.630   8.555
 8005POPC   D2A32896   4.366   6.685   8.255
 8005POPC   C3A32897   4.327   6.610   7.955
 8005POPC   C4A32898   4.269   6.623   7.655
 8005POPC   C1B32899   4.203   6.877   8.555
 8005POPC   C2B32900   4.167   6.904   8.255
 8005POPC   C3B32901   4.216   6.900   7.955
 8005POPC   C4B32902   4.164   6.898   7.655
 8006POPC   NC332903  32.288  14.367   9.455
 8006POPC   PO432904  32.230  14.434   9.155
 8006POPC   GL132905  32.240  14.378   8.855
 8006POPC   GL232906  32.220  14.503   8.855
 8006POPC   C1A32907  32.266  14.403   8.555
 8006POPC   D2A32908  32.205  14.380   8.255
 8006POPC   C3A32909  32.205  14.396   7.955
 8006POPC   C4A32910  32.273  14.378   7.655
 8006POPC   C1B32911  32.218  14.663   8.555
 8006POPC   C2B32912  32.162  14.673   8.255
 8006POPC   C3B32913  32.198  14.698   7.955
 8006POPC   C4B32914  32.183  14.603   7.655
 8007POPC   NC332915  26.861   8.206   9.455
 8007POPC   PO432916  26.795   8.228   9.155
 8007POPC   GL132917  26.810   8.168   8.855
 8007POPC   GL232918  26.689   8.157   8.855
 8007POPC   C1A32919  26.768   8.172   8.555
 8007POPC   D2A32920  26.862   8.188   8.255
 8007POPC   C3A32921  26.844   8.212   7.955
 8007POPC   C4A32922  26.788   8.201   7.655
 8007POPC   C1B32923  26.584   8.239   8.555
 8007POPC   C2B32924  26.563   8.203   8.255
 8007POPC   C3B32925  26.537   8.254   7.955
 8007POPC   C4B32926  26.589   8.243   7.655
 8008POPC   NC332927  38.469  14.432   9.455
 8008POPC   PO432928  38.437  14.389   9.155
 8008POPC   GL132929  38.412  14.415   8.855
 8008POPC   GL232930  38.502  14.545   8.855
 8008POPC   C1A32931  38.456  14.430   8.555
 8008POPC   D2A32932  38.478  14.404   8.255
 8008POPC   C3A32933  38.412  14.410   7.955
 8008POPC   C4A32934  38.470  14.356   7.655
 8008POPC   C1B32935  38.606  14.627   8.555
 8008POPC   C2B32936  38.581  14.573   8.255
 8008POPC   C3B32937  38.534  14.603   7.955
 8008POPC   C4B32938  38.560  14.637   7.655
 8009POPC   NC332939  11.345   0.447   9.455
 8009POPC   PO432940  11.284   0.403   9.155
 8009POPC   GL132941  11.323   0.451   8.855
 8009POPC   GL232942  11.298   0.595   8.855
 8009POPC   C1A32943  11.322   0.405   8.555
 8009POPC   D2A32944  11.256   0.450   8.255
 8009POPC   C3A32945  11.263   0.471   7.955
 8009POPC   C4A32946  11.290   0.424   7.655
 8009POPC   C1B32947  11.339   0.648   8.555
 8009POPC   C2B32948  11.392   0.708   8.255
 8009POPC   C3B32949  11.364   0.675   7.955
 8009POPC   C4B32950  11.421   0.672   7.655
 8010POPC   NC332951   8.181  22.207   9.455
 8010POPC   PO432952   8.233  22.198   9.155
 8010POPC   GL132953   8.156  22.170   8.855
 8010POPC   GL232954   8.132  22.235   8.855
 8010POPC   C1A32955   8.209  22.120   8.555
 8010POPC   D2A32956   8.173  22.130   8.255
 8010POPC   C3A32957   8.189  22.156   7.955
 8010POPC   C4A32958   8.232  22.149   7.655
 8010POPC   C1B32959   8.003  22.292   8.555
 8010POPC   C2B32960   7.986  22.313   8.255
 8010POPC   C3B32961   7.975  22.324   7.955
 8010POPC   C4B32962   8.019  22.363   7.655
 8011POPC   NC332963  13.607  26.777   9.455
 8011POPC   PO432964  13.617  26.860   9.155
 8011POPC   GL132965  13.599  26.832   8.855
 8011POPC   GL232966  13.527  26.830   8.855
 8011POPC   C1A32967  13.641  26.812   8.555
 8011POPC   D2A32968  13.643  26.778   8.255
 8011POPC   C3A32969  13.615  26.819   7.955
 8011POPC   C4A32970  13.661  26.856   7.655
 8011POPC   C1B32971  13.355  26.793   8.555
 8011POPC   C2B32972  13.400  26.776   8.255
 8011POPC   C3B32973  13.407  26.809   7.955
 8011POPC   C4B32974  13.351  26.788   7.655
 8012POPC   NC332975  10.574   2.032   9.455
 8012POPC   PO432976  10.570   1.964   9.155
 8012POPC   GL132977  10.495   1.969   8.855
 8012POPC   GL232978  10.481   2.124   8.855
 8012POPC   C1A32979  10.497   2.006   8.555
 8012POPC   D2A32980  10.496   1.966   8.255
 8012POPC   C3A32981  10.524   1.994   7.955
 8012POPC   C4A32982  10.530   2.018   7.655
 8012POPC   C1B32983  10.493   2.253   8.555
 8012POPC   C2B32984  10.480   2.258   8.255
 8012POPC   C3B32985  10.452   2.243   7.955
 8012POPC   C4B32986  10.439   2.276   7.655
 8013POPC   NC332987  43.926   5.105   9.455
 8013POPC   PO432988  43.866   5.067   9.155
 8013POPC   GL132989  43.868   5.078   8.855
 8013POPC   GL232990  43.786   4.962   8.855
 8013POPC   C1A32991  43.932   5.074   8.555
 8013POPC   D2A32992  43.923   5.124   8.255
 8013POPC   C3A32993  43.895   5.055   7.955
 8013POPC   C4A32994  43.883   5.102   7.655
 8013POPC   C1B32995  43.685   4.865   8.555
 8013POPC   C2B32996  43.711   4.910   8.255
 8013POPC   C3B32997  43.733   4.864   7.955
 8013POPC   C4B32998  43.698   4.894   7.655
 8014POPC   NC332999  26.816  20.648   9.455
 8014POPC   PO433000  26.826  20.599   9.155
 8014POPC   GL133001  26.834  20.635   8.855
 8014POPC   GL233002  26.871  20.704   8.855
 8014POPC   C1A33003  26.862  20.660   8.555
 8014POPC   D2A33004  26.824  20.570   8.255
 8014POPC   C3A33005  26.788  20.657   7.955
 8014POPC   C4A33006  26.778  20.587   7.655
 8014POPC   C1B33007  26.962  20.836   8.555
 8014POPC   C2B33008  26.916  20.783   8.255
 8014POPC   C3B33009  26.955  20.867   7.955
 8014POPC   C4B33010  26.969  20.793   7.655
 8015POPC   NC333011  40.813  44.665   9.455
 8015POPC   PO433012  40.764  44.635   9.155
 8015POPC   GL133013  40.785  44.680   8.855
 8015POPC   GL233014  40.681  44.583   8.855
 8015POPC   C1A33015  40.757  44.667   8.555
 8015POPC   D2A33016  40.760  44.645   8.255
 8015POPC   C3A33017  40.740  44.687   7.955
 8015POPC   C4A33018  40.812  44.663   7.655
 8015POPC   C1B33019  40.560  44.507   8.555
 8015POPC   C2B33020  40.634  44.487   8.255
 8015POPC   C3B33021  40.564  44.540   7.955
 8015POPC   C4B33022  40.594  44.487   7.655
 8016POPC   NC333023  40.813   1.941   9.455
 8016POPC   PO433024  40.790   1.970   9.155
 8016POPC   GL133025  40.768   1.949   8.855
 8016POPC   GL233026  40.905   1.959   8.855
 8016POPC   C1A33027  40.771   1.955   8.555
 8016POPC   D2A33028  40.825   2.024   8.255
 8016POPC   C3A33029  40.819   2.039   7.955
 8016POPC   C4A33030  40.736   1.978   7.655
 8016POPC   C1B33031  40.962   1.883   8.555
 8016POPC   C2B33032  40.971   1.903   8.255
 8016POPC   C3B33033  40.949   1.849   7.955
 8016POPC   C4B33034  40.968   1.864   7.655
 8017POPC   NC333035  15.936   6.619   9.455
 8017POPC   PO433036  15.918   6.634   9.155
 8017POPC   GL133037  15.956   6.604   8.855
 8017POPC   GL233038  15.790   6.622   8.855
 8017POPC   C1A33039  15.955   6.606   8.555
 8017POPC   D2A33040  15.968   6.683   8.255
 8017POPC   C3A33041  15.916   6.676   7.955
 8017POPC   C4A33042  15.922   6.665   7.655
 8017POPC   C1B33043  15.750   6.658   8.555
 8017POPC   C2B33044  15.745   6.661   8.255
 8017POPC   C3B33045  15.715   6.673   7.955
 8017POPC   C4B33046  15.664   6.624   7.655
 8018POPC   NC333047  19.874  30.722   9.455
 8018POPC   PO433048  19.845  30.663   9.155
 8018POPC   GL133049  19.820  30.677   8.855
 8018POPC   GL233050  19.726  30.696   8.855
 8018POPC   C1A33051  19.881  30.738   8.555
 8018POPC   D2A33052  19.848  30.654   8.255
 8018POPC   C3A33053  19.812  30.742   7.955
 8018POPC   C4A33054  19.805  30.654   7.655
 8018POPC   C1B33055  19.618  30.572   8.555
 8018POPC   C2B33056  19.588  30.639   8.255
 8018POPC   C3B33057  19.568  30.641   7.955
 8018POPC   C4B33058  19.604  30.639   7.655
 8019POPC   NC333059  34.621  26.770   9.455
 8019POPC   PO433060  34.618  26.794   9.155
 8019POPC   GL133061  34.625  26.830   8.855
 8019POPC   GL233062  34.620  26.951   8.855
 8019POPC   C1A33063  34.614  26.855   8.555
 8019POPC   D2A33064  34.553  26.784   8.255
 8019POPC   C3A33065  34.541  26.846   7.955
 8019POPC   C4A33066  34.561  26.775   7.655
 8019POPC   C1B33067  34.668  27.005   8.555
 8019POPC   C2B33068  34.726  26.985   8.255
 8019POPC   C3B33069  34.732  26.995   7.955
 8019POPC   C4B33070  34.675  27.061   7.655
 8020POPC   NC333071  32.982   6.643   9.455
 8020POPC   PO433072  33.052   6.618   9.155
 8020POPC   GL133073  33.055   6.620   8.855
 8020POPC   GL233074  32.949   6.624   8.855
 8020POPC   C1A33075  33.069   6.620   8.555
 8020POPC   D2A33076  33.039   6.639   8.255
 8020POPC   C3A33077  33.042   6.644   7.955
 8020POPC   C4A33078  33.028   6.630   7.655
 8020POPC   C1B33079  32.742   6.612   8.555
 8020POPC   C2B33080  32.826   6.550   8.255
 8020POPC   C3B33081  32.799   6.527   7.955
 8020POPC   C4B33082  32.781   6.623   7.655
 8021POPC   NC333083  20.650  36.876   9.455
 8021POPC   PO433084  20.643  36.864   9.155
 8021POPC   GL133085  20.604  36.918   8.855
 8021POPC   GL233086  20.557  37.066   8.855
 8021POPC   C1A33087  20.578  36.876   8.555
 8021POPC   D2A33088  20.645  36.903   8.255
 8021POPC   C3A33089  20.629  36.856   7.955
 8021POPC   C4A33090  20.623  36.903   7.655
 8021POPC   C1B33091  20.618  37.162   8.555
 8021POPC   C2B33092  20.592  37.189   8.255
 8021POPC   C3B33093  20.597  37.178   7.955
 8021POPC   C4B33094  20.570  37.190   7.655
 8022POPC   NC333095  15.152  19.843   9.455
 8022POPC   PO433096  15.169  19.806   9.155
 8022POPC   GL133097  15.223  19.834   8.855
 8022POPC   GL233098  15.152  19.933   8.855
 8022POPC   C1A33099  15.135  19.841   8.555
 8022POPC   D2A33100  15.221  19.878   8.255
 8022POPC   C3A33101  15.177  19.836   7.955
 8022POPC   C4A33102  15.135  19.814   7.655
 8022POPC   C1B33103  15.109  20.079   8.555
 8022POPC   C2B33104  15.099  20.070   8.255
 8022POPC   C3B33105  15.048  20.085   7.955
 8022POPC   C4B33106  15.011  20.080   7.655
 8023POPC   NC333107  15.168  15.185   9.455
 8023POPC   PO433108  15.186  15.221   9.155
 8023POPC   GL133109  15.138  15.149   8.855
 8023POPC   GL233110  15.090  15.214   8.855
 8023POPC   C1A33111  15.220  15.178   8.555
 8023POPC   D2A33112  15.136  15.171   8.255
 8023POPC   C3A33113  15.217  15.219   7.955
 8023POPC   C4A33114  15.207  15.214   7.655
 8023POPC   C1B33115  14.942  15.217   8.555
 8023POPC   C2B33116  14.938  15.225   8.255
 8023POPC   C3B33117  14.916  15.222   7.955
 8023POPC   C4B33118  14.951  15.221   7.655
 8024POPC   NC333119  43.116  19.106   9.455
 8024POPC   PO433120  43.119  19.097   9.155
 8024POPC   GL133121  43.120  19.053   8.855
 8024POPC   GL233122  43.201  19.108   8.855
 8024POPC   C1A33123  43.103  19.017   8.555
 8024POPC   D2A33124  43.124  19.027   8.255
 8024POPC   C3A33125  43.066  19.086   7.955
 8024POPC   C4A33126  43.151  19.028   7.655
 8024POPC   C1B33127  43.326  19.171   8.555
 8024POPC   C2B33128  43.314  19.174   8.255
 8024POPC   C3B33129  43.347  19.193   7.955
 8024POPC   C4B33130  43.381  19.136   7.655
 8025POPC   NC333131  39.232  32.277   9.455
 8025POPC   PO433132  39.183  32.243   9.155
 8025POPC   GL133133  39.247  32.236   8.855
 8025POPC   GL233134  39.107  32.227   8.855
 8025POPC   C1A33135  39.199  32.232   8.555
 8025POPC   D2A33136  39.259  32.206   8.255
 8025POPC   C3A33137  39.224  32.280   7.955
 8025POPC   C4A33138  39.198  32.253   7.655
 8025POPC   C1B33139  39.056  32.133   8.555
 8025POPC   C2B33140  39.050  32.111   8.255
 8025POPC   C3B33141  39.055  32.141   7.955
 8025POPC   C4B33142  38.981  32.122   7.655
 8026POPC   NC333143  41.562  12.081   9.455
 8026POPC   PO433144  41.553  12.085   9.155
 8026POPC   GL133145  41.581  12.069   8.855
 8026POPC   GL233146  41.401  12.062   8.855
 8026POPC   C1A33147  41.556  12.073   8.555
 8026POPC   D2A33148  41.568  12.042   8.255
 8026POPC   C3A33149  41.604  12.080   7.955
 8026POPC   C4A33150  41.514  12.120   7.655
 8026POPC   C1B33151  41.334  11.973   8.555
 8026POPC   C2B33152  41.381  11.972   8.255
 8026POPC   C3B33153  41.341  12.017   7.955
 8026POPC   C4B33154  41.290  11.987   7.655
 8027POPC   NC333155   4.300   2.018   9.455
 8027POPC   PO433156   4.305   2.017   9.155
 8027POPC   GL133157   4.355   2.006   8.855
 8027POPC   GL233158   4.436   1.999   8.855
 8027POPC   C1A33159   4.291   2.013   8.555
 8027POPC   D2A33160   4.315   1.971   8.255
 8027POPC   C3A33161   4.296   1.965   7.955
 8027POPC   C4A33162   4.304   2.024   7.655
 8027POPC   C1B33163   4.567   1.947   8.555
 8027POPC   C2B33164   4.566   1.899   8.255
 8027POPC   C3B33165   4.558   1.897   7.955
 8027POPC   C4B33166   4.588   1.915   7.655
 8028POPC   NC333167  22.962  26.864   9.455
 8028POPC   PO433168  22.986  26.814   9.155
 8028POPC   GL133169  22.923  26.810   8.855
 8028POPC   GL233170  23.024  26.921   8.855
 8028POPC   C1A33171  22.961  26.769   8.555
 8028POPC   D2A33172  22.954  26.824   8.255
 8028POPC   C3A33173  22.984  26.798   7.955
 8028POPC   C4A33174  22.926  26.784   7.655
 8028POPC   C1B33175  23.148  26.955   8.555
 8028POPC   C2B33176  23.181  26.945   8.255
 8028POPC   C3B33177  23.176  26.949   7.955
 8028POPC   C4B33178  23.181  27.008   7.655
 8029POPC   NC333179   1.998  20.641   9.455
 8029POPC   PO433180   1.954  20.612   9.155
 8029POPC   GL133181   1.953  20.595   8.855
 8029POPC   GL233182   1.951  20.511   8.855
 8029POPC   C1A33183   2.030  20.630   8.555
 8029POPC   D2A33184   1.982  20.590   8.255
 8029POPC   C3A33185   2.023  20.596   7.955
 8029POPC   C4A33186   2.009  20.636   7.655
 8029POPC   C1B33187   1.866  20.429   8.555
 8029POPC   C2B33188   1.895  20.403   8.255
 8029POPC   C3B33189   1.882  20.356   7.955
 8029POPC   C4B33190   1.852  20.395   7.655
 8030POPC   NC333191  24.530  25.236   9.455
 8030POPC   PO433192  24.455  25.249   9.155
 8030POPC   GL133193  24.459  25.261   8.855
 8030POPC   GL233194  24.409  25.180   8.855
 8030POPC   C1A33195  24.459  25.231   8.555
 8030POPC   D2A33196  24.493  25.271   8.255
 8030POPC   C3A33197  24.465  25.224   7.955
 8030POPC   C4A33198  24.511  25.243   7.655
 8030POPC   C1B33199  24.419  25.034   8.555
 8030POPC   C2B33200  24.345  25.067   8.255
 8030POPC   C3B33201  24.413  25.047   7.955
 8030POPC   C4B33202  24.344  25.067   7.655
 8031POPC   NC333203  37.693  33.756   9.455
 8031POPC   PO433204  37.694  33.828   9.155
 8031POPC   GL133205  37.712  33.831   8.855
 8031POPC   GL233206  37.593  33.771   8.855
 8031POPC   C1A33207  37.715  33.795   8.555
 8031POPC   D2A33208  37.655  33.772   8.255
 8031POPC   C3A33209  37.661  33.771   7.955
 8031POPC   C4A33210  37.636  33.803   7.655
 8031POPC   C1B33211  37.465  33.819   8.555
 8031POPC   C2B33212  37.462  33.818   8.255
 8031POPC   C3B33213  37.479  33.734   7.955
 8031POPC   C4B33214  37.393  33.778   7.655
 8032POPC   NC333215  26.848  29.106   9.455
 8032POPC   PO433216  26.831  29.151   9.155
 8032POPC   GL133217  26.839  29.156   8.855
 8032POPC   GL233218  26.730  29.145   8.855
 8032POPC   C1A33219  26.793  29.153   8.555
 8032POPC   D2A33220  26.791  29.140   8.255
 8032POPC   C3A33221  26.805  29.127   7.955
 8032POPC   C4A33222  26.849  29.142   7.655
 8032POPC   C1B33223  26.543  29.186   8.555
 8032POPC   C2B33224  26.546  29.184   8.255
 8032POPC   C3B33225  26.587  29.255   7.955
 8032POPC   C4B33226  26.621  29.170   7.655
 8033POPC   NC333227  17.525  29.111   9.455
 8033POPC   PO433228  17.521  29.103   9.155
 8033POPC   GL133229  17.462  29.107   8.855
 8033POPC   GL233230  17.481  29.033   8.855
 8033POPC   C1A33231  17.479  29.122   8.555
 8033POPC   D2A33232  17.551  29.113   8.255
 8033POPC   C3A33233  17.551  29.109   7.955
 8033POPC   C4A33234  17.516  29.163   7.655
 8033POPC   C1B33235  17.460  28.891   8.555
 8033POPC   C2B33236  17.443  28.915   8.255
 8033POPC   C3B33237  17.503  28.909   7.955
 8033POPC   C4B33238  17.513  28.852   7.655
 8034POPC   NC333239  35.374  28.348   9.455
 8034POPC   PO433240  35.363  28.371   9.155
 8034POPC   GL133241  35.304  28.365   8.855
 8034POPC   GL233242  35.318  28.266   8.855
 8034POPC   C1A33243  35.398  28.352   8.555
 8034POPC   D2A33244  35.394  28.391   8.255
 8034POPC   C3A33245  35.377  28.333   7.955
 8034POPC   C4A33246  35.372  28.368   7.655
 8034POPC   C1B33247  35.208  28.103   8.555
 8034POPC   C2B33248  35.256  28.189   8.255
 8034POPC   C3B33249  35.286  28.171   7.955
 8034POPC   C4B33250  35.198  28.118   7.655
 8035POPC   NC333251  22.896  34.581   9.455
 8035POPC   PO433252  22.938  34.531   9.155
 8035POPC   GL133253  22.955  34.607   8.855
 8035POPC   GL233254  22.818  34.519   8.855
 8035POPC   C1A33255  22.890  34.557   8.555
 8035POPC   D2A33256  22.922  34.618   8.255
 8035POPC   C3A33257  22.940  34.569   7.955
 8035POPC   C4A33258  22.984  34.528   7.655
 8035POPC   C1B33259  22.721  34.499   8.555
 8035POPC   C2B33260  22.672  34.505   8.255
 8035POPC   C3B33261  22.713  34.492   7.955
 8035POPC   C4B33262  22.699  34.531   7.655
 8036POPC   NC333263   7.408  33.789   9.455
 8036POPC   PO433264   7.392  33.787   9.155
 8036POPC   GL133265   7.389  33.813   8.855
 8036POPC   GL233266   7.535  33.801   8.855
 8036POPC   C1A33267   7.450  33.766   8.555
 8036POPC   D2A33268   7.464  33.804   8.255
 8036POPC   C3A33269   7.395  33.814   7.955
 8036POPC   C4A33270   7.431  33.751   7.655
 8036POPC   C1B33271   7.625  33.855   8.555
 8036POPC   C2B33272   7.715  33.821   8.255
 8036POPC   C3B33273   7.659  33.819   7.955
 8036POPC   C4B33274   7.651  33.782   7.655
 8037POPC   NC333275  15.166  26.774   9.455
 8037POPC   PO433276  15.227  26.821   9.155
 8037POPC   GL133277  15.149  26.795   8.855
 8037POPC   GL233278  15.264  26.746   8.855
 8037POPC   C1A33279  15.138  26.818   8.555
 8037POPC   D2A33280  15.182  26.806   8.255
 8037POPC   C3A33281  15.195  26.801   7.955
 8037POPC   C4A33282  15.165  26.784   7.655
 8037POPC   C1B33283  15.386  26.678   8.555
 8037POPC   C2B33284  15.445  26.698   8.255
 8037POPC   C3B33285  15.364  26.737   7.955
 8037POPC   C4B33286  15.363  26.677   7.655
 8038POPC   NC333287   5.868  35.393   9.455
 8038POPC   PO433288   5.907  35.332   9.155
 8038POPC   GL133289   5.892  35.373   8.855
 8038POPC   GL233290   5.884  35.211   8.855
 8038POPC   C1A33291   5.912  35.338   8.555
 8038POPC   D2A33292   5.826  35.330   8.255
 8038POPC   C3A33293   5.878  35.363   7.955
 8038POPC   C4A33294   5.876  35.310   7.655
 8038POPC   C1B33295   5.864  35.149   8.555
 8038POPC   C2B33296   5.842  35.058   8.255
 8038POPC   C3B33297   5.857  35.143   7.955
 8038POPC   C4B33298   5.841  35.088   7.655
 8039POPC   NC333299   1.985   4.313   9.455
 8039POPC   PO433300   1.999   4.312   9.155
 8039POPC   GL133301   1.997   4.299   8.855
 8039POPC   GL233302   2.044   4.144   8.855
 8039POPC   C1A33303   1.980   4.323   8.555
 8039POPC   D2A33304   1.958   4.306   8.255
 8039POPC   C3A33305   2.037   4.330   7.955
 8039POPC   C4A33306   2.002   4.367   7.655
 8039POPC   C1B33307   2.010   4.080   8.555
 8039POPC   C2B33308   2.001   4.072   8.255
 8039POPC   C3B33309   2.035   4.089   7.955
 8039POPC   C4B33310   2.021   4.034   7.655
 8040POPC   NC333311  16.737  32.224   9.455
 8040POPC   PO433312  16.724  32.293   9.155
 8040POPC   GL133313  16.768  32.249   8.855
 8040POPC   GL233314  16.797  32.307   8.855
 8040POPC   C1A33315  16.780  32.211   8.555
 8040POPC   D2A33316  16.781  32.293   8.255
 8040POPC   C3A33317  16.769  32.262   7.955
 8040POPC   C4A33318  16.753  32.292   7.655
 8040POPC   C1B33319  16.867  32.447   8.555
 8040POPC   C2B33320  16.865  32.389   8.255
 8040POPC   C3B33321  16.954  32.374   7.955
 8040POPC   C4B33322  16.895  32.401   7.655
 8041POPC   NC333323  37.724  31.437   9.455
 8041POPC   PO433324  37.695  31.449   9.155
 8041POPC   GL133325  37.656  31.431   8.855
 8041POPC   GL233326  37.690  31.397   8.855
 8041POPC   C1A33327  37.715  31.510   8.555
 8041POPC   D2A33328  37.639  31.476   8.255
 8041POPC   C3A33329  37.691  31.485   7.955
 8041POPC   C4A33330  37.664  31.490   7.655
 8041POPC   C1B33331  37.809  31.215   8.555
 8041POPC   C2B33332  37.769  31.238   8.255
 8041POPC   C3B33333  37.842  31.296   7.955
 8041POPC   C4B33334  37.789  31.258   7.655
 8042POPC   NC333335   2.033   8.241   9.455
 8042POPC   PO433336   2.032   8.214   9.155
 8042POPC   GL133337   2.027   8.154   8.855
 8042POPC   GL233338   1.933   8.114   8.855
 8042POPC   C1A33339   1.958   8.167   8.555
 8042POPC   D2A33340   1.989   8.244   8.255
 8042POPC   C3A33341   1.993   8.162   7.955
 8042POPC   C4A33342   2.015   8.158   7.655
 8042POPC   C1B33343   1.791   8.059   8.555
 8042POPC   C2B33344   1.791   8.025   8.255
 8042POPC   C3B33345   1.750   8.004   7.955
 8042POPC   C4B33346   1.843   8.034   7.655
 8043POPC   NC333347  41.531   1.218   9.455
 8043POPC   PO433348  41.600   1.232   9.155
 8043POPC   GL133349  41.598   1.255   8.855
 8043POPC   GL233350  41.449   1.285   8.855
 8043POPC   C1A33351  41.513   1.212   8.555
 8043POPC   D2A33352  41.597   1.196   8.255
 8043POPC   C3A33353  41.550   1.250   7.955
 8043POPC   C4A33354  41.512   1.232   7.655
 8043POPC   C1B33355  41.332   1.266   8.555
 8043POPC   C2B33356  41.350   1.298   8.255
 8043POPC   C3B33357  41.326   1.273   7.955
 8043POPC   C4B33358  41.300   1.278   7.655
 8044POPC   NC333359   8.183  31.477   9.455
 8044POPC   PO433360   8.234  31.509   9.155
 8044POPC   GL133361   8.239  31.489   8.855
 8044POPC   GL233362   8.342  31.434   8.855
 8044POPC   C1A33363   8.221  31.509   8.555
 8044POPC   D2A33364   8.177  31.501   8.255
 8044POPC   C3A33365   8.226  31.436   7.955
 8044POPC   C4A33366   8.161  31.497   7.655
 8044POPC   C1B33367   8.467  31.443   8.555
 8044POPC   C2B33368   8.442  31.467   8.255
 8044POPC   C3B33369   8.424  31.429   7.955
 8044POPC   C4B33370   8.471  31.480   7.655
 8045POPC   NC333371  33.064   5.907   9.455
 8045POPC   PO433372  32.993   5.899   9.155
 8045POPC   GL133373  32.988   5.859   8.855
 8045POPC   GL233374  33.131   5.789   8.855
 8045POPC   C1A33375  33.067   5.838   8.555
 8045POPC   D2A33376  33.007   5.875   8.255
 8045POPC   C3A33377  32.983   5.836   7.955
 8045POPC   C4A33378  33.046   5.913   7.655
 8045POPC   C1B33379  33.236   5.789   8.555
 8045POPC   C2B33380  33.267   5.733   8.255
 8045POPC   C3B33381  33.251   5.747   7.955
 8045POPC   C4B33382  33.231   5.767   7.655
 8046POPC   NC333383  43.864  21.392   9.455
 8046POPC   PO433384  43.896  21.344   9.155
 8046POPC   GL133385  43.920  21.349   8.855
 8046POPC   GL233386  43.972  21.465   8.855
 8046POPC   C1A33387  43.888  21.416   8.555
 8046POPC   D2A33388  43.915  21.427   8.255
 8046POPC   C3A33389  43.918  21.406   7.955
 8046POPC   C4A33390  43.918  21.431   7.655
 8046POPC   C1B33391  44.107  21.470   8.555
 8046POPC   C2B33392  44.143  21.445   8.255
 8046POPC   C3B33393  44.095  21.527   7.955
 8046POPC   C4B33394  44.120  21.445   7.655
 8047POPC   NC333395  11.282   5.109   9.455
 8047POPC   PO433396  11.252   5.111   9.155
 8047POPC   GL133397  11.334   5.139   8.855
 8047POPC   GL233398  11.390   5.105   8.855
 8047POPC   C1A33399  11.308   5.069   8.555
 8047POPC   D2A33400  11.284   5.060   8.255
 8047POPC   C3A33401  11.322   5.073   7.955
 8047POPC   C4A33402  11.319   5.061   7.655
 8047POPC   C1B33403  11.546   5.026   8.555
 8047POPC   C2B33404  11.543   5.026   8.255
 8047POPC   C3B33405  11.590   5.007   7.955
 8047POPC   C4B33406  11.556   5.034   7.655
 8048POPC   NC333407   8.162   9.711   9.455
 8048POPC   PO433408   8.176   9.744   9.155
 8048POPC   GL133409   8.217   9.773   8.855
 8048POPC   GL233410   8.184   9.671   8.855
 8048POPC   C1A33411   8.237   9.703   8.555
 8048POPC   D2A33412   8.237   9.735   8.255
 8048POPC   C3A33413   8.217   9.722   7.955
 8048POPC   C4A33414   8.220   9.765   7.655
 8048POPC   C1B33415   8.241   9.519   8.555
 8048POPC   C2B33416   8.190   9.522   8.255
 8048POPC   C3B33417   8.167   9.519   7.955
 8048POPC   C4B33418   8.210   9.457   7.655
 8049POPC   NC333419   8.989  15.150   9.455
 8049POPC   PO433420   8.994  15.140   9.155
 8049POPC   GL133421   8.940  15.204   8.855
 8049POPC   GL233422   9.059  15.143   8.855
 8049POPC   C1A33423   9.014  15.176   8.555
 8049POPC   D2A33424   8.953  15.131   8.255
 8049POPC   C3A33425   8.981  15.208   7.955
 8049POPC   C4A33426   8.933  15.221   7.655
 8049POPC   C1B33427   9.183  14.991   8.555
 8049POPC   C2B33428   9.174  15.018   8.255
 8049POPC   C3B33429   9.216  15.057   7.955
 8049POPC   C4B33430   9.146  15.031   7.655
 8050POPC   NC333431  10.540  26.032   9.455
 8050POPC   PO433432  10.534  26.017   9.155
 8050POPC   GL133433  10.551  25.993   8.855
 8050POPC   GL233434  10.673  25.954   8.855
 8050POPC   C1A33435  10.493  26.065   8.555
 8050POPC   D2A33436  10.563  26.049   8.255
 8050POPC   C3A33437  10.485  26.086   7.955
 8050POPC   C4A33438  10.555  25.996   7.655
 8050POPC   C1B33439  10.763  25.893   8.555
 8050POPC   C2B33440  10.706  25.939   8.255
 8050POPC   C3B33441  10.736  25.950   7.955
 8050POPC   C4B33442  10.769  25.905   7.655
 8051POPC   NC333443  33.063   8.953   9.455
 8051POPC   PO433444  33.067   8.923   9.155
 8051POPC   GL133445  32.992   9.005   8.855
 8051POPC   GL233446  33.058   9.119   8.855
 8051POPC   C1A33447  33.029   8.927   8.555
 8051POPC   D2A33448  33.061   9.002   8.255
 8051POPC   C3A33449  32.991   8.931   7.955
 8051POPC   C4A33450  32.982   8.930   7.655
 8051POPC   C1B33451  33.090   9.227   8.555
 8051POPC   C2B33452  33.088   9.246   8.255
 8051POPC   C3B33453  33.120   9.172   7.955
 8051POPC   C4B33454  33.098   9.245   7.655
 8052POPC   NC333455  38.465  19.087   9.455
 8052POPC   PO433456  38.472  19.017   9.155
 8052POPC   GL133457  38.455  19.076   8.855
 8052POPC   GL233458  38.417  18.942   8.855
 8052POPC   C1A33459  38.485  19.088   8.555
 8052POPC   D2A33460  38.434  19.063   8.255
 8052POPC   C3A33461  38.479  19.097   7.955
 8052POPC   C4A33462  38.501  19.053   7.655
 8052POPC   C1B33463  38.335  18.914   8.555
 8052POPC   C2B33464  38.307  18.895   8.255
 8052POPC   C3B33465  38.337  18.858   7.955
 8052POPC   C4B33466  38.238  18.899   7.655
 8053POPC   NC333467   8.166   8.204   9.455
 8053POPC   PO433468   8.205   8.204   9.155
 8053POPC   GL133469   8.230   8.149   8.855
 8053POPC   GL233470   8.173   8.282   8.855
 8053POPC   C1A33471   8.158   8.176   8.555
 8053POPC   D2A33472   8.181   8.158   8.255
 8053POPC   C3A33473   8.234   8.221   7.955
 8053POPC   C4A33474   8.214   8.161   7.655
 8053POPC   C1B33475   8.073   8.454   8.555
 8053POPC   C2B33476   8.038   8.377   8.255
 8053POPC   C3B33477   8.090   8.381   7.955
 8053POPC   C4B33478   8.048   8.437   7.655
 8054POPC   NC333479  29.948   0.440   9.455
 8054POPC   PO433480  29.917   0.468   9.155
 8054POPC   GL133481  29.959   0.401   8.855
 8054POPC   GL233482  29.974   0.401   8.855
 8054POPC   C1A33483  29.875   0.397   8.555
 8054POPC   D2A33484  29.925   0.433   8.255
 8054POPC   C3A33485  29.878   0.410   7.955
 8054POPC   C4A33486  29.931   0.431   7.655
 8054POPC   C1B33487  30.092   0.304   8.555
 8054POPC   C2B33488  30.155   0.309   8.255
 8054POPC   C3B33489  30.147   0.237   7.955
 8054POPC   C4B33490  30.059   0.302   7.655
 8055POPC   NC333491   5.903  43.856   9.455
 8055POPC   PO433492   5.880  43.901   9.155
 8055POPC   GL133493   5.874  43.914   8.855
 8055POPC   GL233494   5.711  43.930   8.855
 8055POPC   C1A33495   5.895  43.888   8.555
 8055POPC   D2A33496   5.917  43.877   8.255
 8055POPC   C3A33497   5.837  43.921   7.955
 8055POPC   C4A33498   5.899  43.929   7.655
 8055POPC   C1B33499   5.617  43.875   8.555
 8055POPC   C2B33500   5.662  43.906   8.255
 8055POPC   C3B33501   5.572  43.891   7.955
 8055POPC   C4B33502   5.590  43.852   7.655
 8056POPC   NC333503  34.616   7.399   9.455
 8056POPC   PO433504  34.623   7.411   9.155
 8056POPC   GL133505  34.555   7.439   8.855
 8056POPC   GL233506  34.711   7.507   8.855
 8056POPC   C1A33507  34.593   7.441   8.555
 8056POPC   D2A33508  34.622   7.443   8.255
 8056POPC   C3A33509  34.616   7.383   7.955
 8056POPC   C4A33510  34.529   7.411   7.655
 8056POPC   C1B33511  34.798   7.522   8.555
 8056POPC   C2B33512  34.807   7.456   8.255
 8056POPC   C3B33513  34.854   7.479   7.955
 8056POPC   C4B33514  34.852   7.474   7.655
 8057POPC   NC333515  38.455  39.224   9.455
 8057POPC   PO433516  38.476  39.254   9.155
 8057POPC   GL133517  38.462  39.218   8.855
 8057POPC   GL233518  38.578  39.330   8.855
 8057POPC   C1A33519  38.484  39.224   8.555
 8057POPC   D2A33520  38.435  39.258   8.255
 8057POPC   C3A33521  38.486  39.266   7.955
 8057POPC   C4A33522  38.455  39.247   7.655
 8057POPC   C1B33523  38.667  39.427   8.555
 8057POPC   C2B33524  38.589  39.446   8.255
 8057POPC   C3B33525  38.619  39.376   7.955
 8057POPC   C4B33526  38.633  39.391   7.655
 8058POPC   NC333527   8.955  16.687   9.455
 8058POPC   PO433528   8.942  16.753   9.155
 8058POPC   GL133529   8.960  16.756   8.855
 8058POPC   GL233530   8.986  16.664   8.855
 8058POPC   C1A33531   8.957  16.738   8.555
 8058POPC   D2A33532   9.003  16.752   8.255
 8058POPC   C3A33533   8.982  16.758   7.955
 8058POPC   C4A33534   8.925  16.751   7.655
 8058POPC   C1B33535   9.113  16.488   8.555
 8058POPC   C2B33536   9.034  16.480   8.255
 8058POPC   C3B33537   9.086  16.533   7.955
 8058POPC   C4B33538   9.088  16.505   7.655
 8059POPC   NC333539  28.330   0.434   9.455
 8059POPC   PO433540  28.376   0.476   9.155
 8059POPC   GL133541  28.401   0.472   8.855
 8059POPC   GL233542  28.207   0.448   8.855
 8059POPC   C1A33543  28.404   0.483   8.555
 8059POPC   D2A33544  28.337   0.438   8.255
 8059POPC   C3A33545  28.356   0.406   7.955
 8059POPC   C4A33546  28.365   0.483   7.655
 8059POPC   C1B33547  28.168   0.459   8.555
 8059POPC   C2B33548  28.080   0.538   8.255
 8059POPC   C3B33549  28.093   0.529   7.955
 8059POPC   C4B33550  28.155   0.477   7.655
 8060POPC   NC333551  19.813  13.663   9.455
 8060POPC   PO433552  19.832  13.604   9.155
 8060POPC   GL133553  19.869  13.662   8.855
 8060POPC   GL233554  19.867  13.792   8.855
 8060POPC   C1A33555  19.882  13.619   8.555
 8060POPC   D2A33556  19.863  13.671   8.255
 8060POPC   C3A33557  19.837  13.588   7.955
 8060POPC   C4A33558  19.866  13.648   7.655
 8060POPC   C1B33559  19.912  13.861   8.555
 8060POPC   C2B33560  19.943  13.865   8.255
 8060POPC   C3B33561  19.933  13.817   7.955
 8060POPC   C4B33562  19.882  13.872   7.655
 8061POPC   NC333563  36.879  12.834   9.455
 8061POPC   PO433564  36.886  12.813   9.155
 8061POPC   GL133565  36.940  12.858   8.855
 8061POPC   GL233566  36.769  12.841   8.855
 8061POPC   C1A33567  36.928  12.802   8.555
 8061POPC   D2A33568  36.914  12.885   8.255
 8061POPC   C3A33569  36.902  12.806   7.955
 8061POPC   C4A33570  36.916  12.878   7.655
 8061POPC   C1B33571  36.714  12.782   8.555
 8061POPC   C2B33572  36.681  12.741   8.255
 8061POPC   C3B33573  36.712  12.749   7.955
 8061POPC   C4B33574  36.673  12.717   7.655
 8062POPC   NC333575  37.713  22.205   9.455
 8062POPC   PO433576  37.715  22.142   9.155
 8062POPC   GL133577  37.654  22.158   8.855
 8062POPC   GL233578  37.707  22.262   8.855
 8062POPC   C1A33579  37.722  22.119   8.555
 8062POPC   D2A33580  37.700  22.186   8.255
 8062POPC   C3A33581  37.704  22.157   7.955
 8062POPC   C4A33582  37.655  22.161   7.655
 8062POPC   C1B33583  37.727  22.385   8.555
 8062POPC   C2B33584  37.781  22.361   8.255
 8062POPC   C3B33585  37.738  22.379   7.955
 8062POPC   C4B33586  37.760  22.403   7.655
 8063POPC   NC333587  42.322  29.930   9.455
 8063POPC   PO433588  42.289  29.895   9.155
 8063POPC   GL133589  42.311  29.965   8.855
 8063POPC   GL233590  42.213  29.936   8.855
 8063POPC   C1A33591  42.287  29.888   8.555
 8063POPC   D2A33592  42.347  29.885   8.255
 8063POPC   C3A33593  42.305  29.935   7.955
 8063POPC   C4A33594  42.320  29.937   7.655
 8063POPC   C1B33595  42.136  30.019   8.555
 8063POPC   C2B33596  42.139  30.015   8.255
 8063POPC   C3B33597  42.050  29.996   7.955
 8063POPC   C4B33598  42.053  29.972   7.655
 8064POPC   NC333599  20.629  30.653   9.455
 8064POPC   PO433600  20.567  30.677   9.155
 8064POPC   GL133601  20.636  30.654   8.855
 8064POPC   GL233602  20.500  30.614   8.855
 8064POPC   C1A33603  20.608  30.655   8.555
 8064POPC   D2A33604  20.604  30.678   8.255
 8064POPC   C3A33605  20.660  30.727   7.955
 8064POPC   C4A33606  20.630  30.745   7.655
 8064POPC   C1B33607  20.445  30.471   8.555
 8064POPC   C2B33608  20.473  30.497   8.255
 8064POPC   C3B33609  20.422  30.519   7.955
 8064POPC   C4B33610  20.512  30.532   7.655
 8065POPC   NC333611  20.561  11.291   9.455
 8065POPC   PO433612  20.641  11.302   9.155
 8065POPC   GL133613  20.561  11.292   8.855
 8065POPC   GL233614  20.486  11.280   8.855
 8065POPC   C1A33615  20.620  11.273   8.555
 8065POPC   D2A33616  20.642  11.305   8.255
 8065POPC   C3A33617  20.657  11.257   7.955
 8065POPC   C4A33618  20.575  11.300   7.655
 8065POPC   C1B33619  20.332  11.354   8.555
 8065POPC   C2B33620  20.385  11.304   8.255
 8065POPC   C3B33621  20.343  11.297   7.955
 8065POPC   C4B33622  20.389  11.387   7.655
 8066POPC   NC333623  37.659   1.245   9.455
 8066POPC   PO433624  37.686   1.248   9.155
 8066POPC   GL133625  37.666   1.201   8.855
 8066POPC   GL233626  37.563   1.194   8.855
 8066POPC   C1A33627  37.648   1.229   8.555
 8066POPC   D2A33628  37.673   1.215   8.255
 8066POPC   C3A33629  37.655   1.249   7.955
 8066POPC   C4A33630  37.634   1.164   7.655
 8066POPC   C1B33631  37.430   1.111   8.555
 8066POPC   C2B33632  37.464   1.101   8.255
 8066POPC   C3B33633  37.457   1.058   7.955
 8066POPC   C4B33634  37.422   1.108   7.655
 8067POPC   NC333635  33.036  11.335   9.455
 8067POPC   PO433636  33.044  11.325   9.155
 8067POPC   GL133637  32.981  11.271   8.855
 8067POPC   GL233638  33.180  11.249   8.855
 8067POPC   C1A33639  33.007  11.254   8.555
 8067POPC   D2A33640  33.036  11.311   8.255
 8067POPC   C3A33641  33.026  11.321   7.955
 8067POPC   C4A33642  33.051  11.340   7.655
 8067POPC   C1B33643  33.252  11.215   8.555
 8067POPC   C2B33644  33.246  11.215   8.255
 8067POPC   C3B33645  33.207  11.199   7.955
 8067POPC   C4B33646  33.248  11.162   7.655
 8068POPC   NC333647   4.291  44.698   9.455
 8068POPC   PO433648   4.344  44.711   9.155
 8068POPC   GL133649   4.287  44.646   8.855
 8068POPC   GL233650   4.379  44.608   8.855
 8068POPC   C1A33651   4.326  44.633   8.555
 8068POPC   D2A33652   4.283  44.621   8.255
 8068POPC   C3A33653   4.289  44.622   7.955
 8068POPC   C4A33654   4.305  44.693   7.655
 8068POPC   C1B33655   4.539  44.488   8.555
 8068POPC   C2B33656   4.558  44.481   8.255
 8068POPC   C3B33657   4.473  44.474   7.955
 8068POPC   C4B33658   4.516  44.486   7.655
 8069POPC   NC333659  29.165  29.968   9.455
 8069POPC   PO433660  29.101  29.878   9.155
 8069POPC   GL133661  29.184  29.920   8.855
 8069POPC   GL233662  29.139  30.079   8.855
 8069POPC   C1A33663  29.153  29.951   8.555
 8069POPC   D2A33664  29.096  29.934   8.255
 8069POPC   C3A33665  29.191  29.905   7.955
 8069POPC   C4A33666  29.135  29.874   7.655
 8069POPC   C1B33667  29.142  30.128   8.555
 8069POPC   C2B33668  29.175  30.178   8.255
 8069POPC   C3B33669  29.192  30.198   7.955
 8069POPC   C4B33670  29.194  30.209   7.655
 8070POPC   NC333671  20.643   2.813   9.455
 8070POPC   PO433672  20.569   2.802   9.155
 8070POPC   GL133673  20.624   2.779   8.855
 8070POPC   GL233674  20.689   2.618   8.855
 8070POPC   C1A33675  20.641   2.782   8.555
 8070POPC   D2A33676  20.572   2.745   8.255
 8070POPC   C3A33677  20.587   2.770   7.955
 8070POPC   C4A33678  20.570   2.740   7.655
 8070POPC   C1B33679  20.687   2.552   8.555
 8070POPC   C2B33680  20.749   2.510   8.255
 8070POPC   C3B33681  20.763   2.548   7.955
 8070POPC   C4B33682  20.753   2.595   7.655
 8071POPC   NC333683  16.681   0.461   9.455
 8071POPC   PO433684  16.749   0.474   9.155
 8071POPC   GL133685  16.709   0.430   8.855
 8071POPC   GL233686  16.664   0.317   8.855
 8071POPC   C1A33687  16.707   0.399   8.555
 8071POPC   D2A33688  16.773   0.418   8.255
 8071POPC   C3A33689  16.765   0.436   7.955
 8071POPC   C4A33690  16.757   0.409   7.655
 8071POPC   C1B33691  16.686   0.151   8.555
 8071POPC   C2B33692  16.628   0.221   8.255
 8071POPC   C3B33693  16.648   0.167   7.955
 8071POPC   C4B33694  16.672   0.233   7.655
 8072POPC   NC333695  14.400  44.677   9.455
 8072POPC   PO433696  14.371  44.680   9.155
 8072POPC   GL133697  14.388  44.639   8.855
 8072POPC   GL233698  14.462  44.555   8.855
 8072POPC   C1A33699  14.430  44.700   8.555
 8072POPC   D2A33700  14.369  44.622   8.255
 8072POPC   C3A33701  14.435  44.705   7.955
 8072POPC   C4A33702  14.355  44.683   7.655
 8072POPC   C1B33703  14.400  44.416   8.555
 8072POPC   C2B33704  14.398  44.414   8.255
 8072POPC   C3B33705  14.424  44.391   7.955
 8072POPC   C4B33706  14.484  44.411   7.655
 8073POPC   NC333707  15.918  26.017   9.455
 8073POPC   PO433708  15.999  26.019   9.155
 8073POPC   GL133709  15.947  26.058   8.855
 8073POPC   GL233710  16.044  25.904   8.855
 8073POPC   C1A33711  15.908  26.081   8.555
 8073POPC   D2A33712  15.955  26.069   8.255
 8073POPC   C3A33713  15.955  26.055   7.955
 8073POPC   C4A33714  15.981  25.992   7.655
 8073POPC   C1B33715  16.070  25.778   8.555
 8073POPC   C2B33716  16.033  25.821   8.255
 8073POPC   C3B33717  16.106  25.804   7.955
 8073POPC   C4B33718  16.078  25.777   7.655
 8074POPC   NC333719   7.382   3.581   9.455
 8074POPC   PO433720   7.391   3.558   9.155
 8074POPC   GL133721   7.455   3.519   8.855
 8074POPC   GL233722   7.298   3.503   8.855
 8074POPC   C1A33723   7.419   3.580   8.555
 8074POPC   D2A33724   7.453   3.539   8.255
 8074POPC   C3A33725   7.445   3.560   7.955
 8074POPC   C4A33726   7.435   3.535   7.655
 8074POPC   C1B33727   7.191   3.461   8.555
 8074POPC   C2B33728   7.186   3.454   8.255
 8074POPC   C3B33729   7.181   3.449   7.955
 8074POPC   C4B33730   7.227   3.428   7.655
 8075POPC   NC333731  42.375  44.618   9.455
 8075POPC   PO433732  42.312  44.695   9.155
 8075POPC   GL133733  42.321  44.684   8.855
 8075POPC   GL233734  42.444  44.747   8.855
 8075POPC   C1A33735  42.356  44.686   8.555
 8075POPC   D2A33736  42.345  44.639   8.255
 8075POPC   C3A33737  42.318  44.711   7.955
 8075POPC   C4A33738  42.348  44.695   7.655
 8075POPC   C1B33739  42.543  44.725   8.555
 8075POPC   C2B33740  42.562  44.796   8.255
 8075POPC   C3B33741  42.515  44.768   7.955
 8075POPC   C4B33742  42.543  44.717   7.655
 8076POPC   NC333743   7.387  36.871   9.455
 8076POPC   PO433744   7.414  36.915   9.155
 8076POPC   GL133745   7.397  36.885   8.855
 8076POPC   GL233746   7.274  36.863   8.855
 8076POPC   C1A33747   7.385  36.929   8.555
 8076POPC   D2A33748   7.371  36.873   8.255
 8076POPC   C3A33749   7.380  36.946   7.955
 8076POPC   C4A33750   7.397  36.893   7.655
 8076POPC   C1B33751   7.193  36.857   8.555
 8076POPC   C2B33752   7.203  36.867   8.255
 8076POPC   C3B33753   7.233  36.774   7.955
 8076POPC   C4B33754   7.143  36.856   7.655
 8077POPC   NC333755  23.703   5.844   9.455
 8077POPC   PO433756  23.737   5.837   9.155
 8077POPC   GL133757  23.752   5.878   8.855
 8077POPC   GL233758  23.790   5.981   8.855
 8077POPC   C1A33759  23.756   5.870   8.555
 8077POPC   D2A33760  23.693   5.904   8.255
 8077POPC   C3A33761  23.725   5.878   7.955
 8077POPC   C4A33762  23.746   5.886   7.655
 8077POPC   C1B33763  23.812   6.069   8.555
 8077POPC   C2B33764  23.806   6.093   8.255
 8077POPC   C3B33765  23.898   6.109   7.955
 8077POPC   C4B33766  23.834   6.072   7.655
 8078POPC   NC333767  30.659  34.564   9.455
 8078POPC   PO433768  30.722  34.586   9.155
 8078POPC   GL133769  30.737  34.601   8.855
 8078POPC   GL233770  30.636  34.464   8.855
 8078POPC   C1A33771  30.660  34.599   8.555
 8078POPC   D2A33772  30.683  34.586   8.255
 8078POPC   C3A33773  30.673  34.540   7.955
 8078POPC   C4A33774  30.675  34.587   7.655
 8078POPC   C1B33775  30.539  34.402   8.555
 8078POPC   C2B33776  30.460  34.431   8.255
 8078POPC   C3B33777  30.519  34.391   7.955
 8078POPC   C4B33778  30.443  34.425   7.655
 8079POPC   NC333779  15.201  26.047   9.455
 8079POPC   PO433780  15.210  25.999   9.155
 8079POPC   GL133781  15.221  26.068   8.855
 8079POPC   GL233782  15.129  26.184   8.855
 8079POPC   C1A33783  15.171  26.016   8.555
 8079POPC   D2A33784  15.185  26.089   8.255
 8079POPC   C3A33785  15.151  26.017   7.955
 8079POPC   C4A33786  15.206  25.994   7.655
 8079POPC   C1B33787  15.117  26.246   8.555
 8079POPC   C2B33788  15.091  26.308   8.255
 8079POPC   C3B33789  15.165  26.290   7.955
 8079POPC   C4B33790  15.127  26.248   7.655
 8080POPC   NC333791  16.721  33.028   9.455
 8080POPC   PO433792  16.682  33.061   9.155
 8080POPC   GL133793  16.739  33.054   8.855
 8080POPC   GL233794  16.878  33.040   8.855
 8080POPC   C1A33795  16.746  33.016   8.555
 8080POPC   D2A33796  16.754  33.060   8.255
 8080POPC   C3A33797  16.748  32.993   7.955
 8080POPC   C4A33798  16.709  32.995   7.655
 8080POPC   C1B33799  16.996  33.066   8.555
 8080POPC   C2B33800  16.992  33.144   8.255
 8080POPC   C3B33801  17.009  33.113   7.955
 8080POPC   C4B33802  16.994  33.055   7.655
 8081POPC   NC333803  26.017   0.468   9.455
 8081POPC   PO433804  25.996   0.466   9.155
 8081POPC   GL133805  26.031   0.422   8.855
 8081POPC   GL233806  25.931   0.521   8.855
 8081POPC   C1A33807  26.012   0.408   8.555
 8081POPC   D2A33808  26.042   0.474   8.255
 8081POPC   C3A33809  26.022   0.429   7.955
 8081POPC   C4A33810  26.033   0.432   7.655
 8081POPC   C1B33811  25.819   0.545   8.555
 8081POPC   C2B33812  25.853   0.529   8.255
 8081POPC   C3B33813  25.775   0.497   7.955
 8081POPC   C4B33814  25.840   0.498   7.655
 8082POPC   NC333815  35.308  19.795   9.455
 8082POPC   PO433816  35.388  19.829   9.155
 8082POPC   GL133817  35.362  19.789   8.855
 8082POPC   GL233818  35.347  19.753   8.855
 8082POPC   C1A33819  35.376  19.855   8.555
 8082POPC   D2A33820  35.323  19.792   8.255
 8082POPC   C3A33821  35.307  19.812   7.955
 8082POPC   C4A33822  35.314  19.834   7.655
 8082POPC   C1B33823  35.330  19.553   8.555
 8082POPC   C2B33824  35.323  19.537   8.255
 8082POPC   C3B33825  35.333  19.601   7.955
 8082POPC   C4B33826  35.361  19.622   7.655
 8083POPC   NC333827  30.716  44.619   9.455
 8083POPC   PO433828  30.651  44.635   9.155
 8083POPC   GL133829  30.714  44.617   8.855
 8083POPC   GL233830  30.740  44.552   8.855
 8083POPC   C1A33831  30.649  44.621   8.555
 8083POPC   D2A33832  30.654  44.654   8.255
 8083POPC   C3A33833  30.726  44.706   7.955
 8083POPC   C4A33834  30.733  44.677   7.655
 8083POPC   C1B33835  30.728  44.445   8.555
 8083POPC   C2B33836  30.736  44.404   8.255
 8083POPC   C3B33837  30.758  44.461   7.955
 8083POPC   C4B33838  30.719  44.453   7.655
 8084POPC   NC333839  12.098  29.965   9.455
 8084POPC   PO433840  12.054  29.903   9.155
 8084POPC   GL133841  12.059  29.956   8.855
 8084POPC   GL233842  12.221  29.849   8.855
 8084POPC   C1A33843  12.097  29.886   8.555
 8084POPC   D2A33844  12.110  29.875   8.255
 8084POPC   C3A33845  12.073  29.919   7.955
 8084POPC   C4A33846  12.105  29.878   7.655
 8084POPC   C1B33847  12.320  29.868   8.555
 8084POPC   C2B33848  12.326  29.859   8.255
 8084POPC   C3B33849  12.311  29.840   7.955
 8084POPC   C4B33850  12.289  29.866   7.655
 8085POPC   NC333851  15.910  11.336   9.455
 8085POPC   PO433852  15.990  11.269   9.155
 8085POPC   GL133853  15.905  11.320   8.855
 8085POPC   GL233854  16.119  11.309   8.855
 8085POPC   C1A33855  15.937  11.295   8.555
 8085POPC   D2A33856  15.921  11.336   8.255
 8085POPC   C3A33857  15.956  11.268   7.955
 8085POPC   C4A33858  15.918  11.326   7.655
 8085POPC   C1B33859  16.212  11.230   8.555
 8085POPC   C2B33860  16.198  11.220   8.255
 8085POPC   C3B33861  16.214  11.216   7.955
 8085POPC   C4B33862  16.194  11.196   7.655
 8086POPC   NC333863  33.757  18.315   9.455
 8086POPC   PO433864  33.774  18.313   9.155
 8086POPC   GL133865  33.799  18.314   8.855
 8086POPC   GL233866  33.892  18.324   8.855
 8086POPC   C1A33867  33.829  18.299   8.555
 8086POPC   D2A33868  33.789  18.293   8.255
 8086POPC   C3A33869  33.793  18.276   7.955
 8086POPC   C4A33870  33.788  18.273   7.655
 8086POPC   C1B33871  34.037  18.336   8.555
 8086POPC   C2B33872  34.020  18.388   8.255
 8086POPC   C3B33873  34.070  18.306   7.955
 8086POPC   C4B33874  34.033  18.402   7.655
 8087POPC   NC333875  12.821  16.719   9.455
 8087POPC   PO433876  12.896  16.688   9.155
 8087POPC   GL133877  12.872  16.745   8.855
 8087POPC   GL233878  12.774  16.682   8.855
 8087POPC   C1A33879  12.851  16.780   8.555
 8087POPC   D2A33880  12.838  16.692   8.255
 8087POPC   C3A33881  12.822  16.779   7.955
 8087POPC   C4A33882  12.815  16.754   7.655
 8087POPC   C1B33883  12.598  16.564   8.555
 8087POPC   C2B33884  12.678  16.605   8.255
 8087POPC   C3B33885  12.645  16.541   7.955
 8087POPC   C4B33886  12.678  16.633   7.655
 8088POPC   NC333887  42.376   8.193   9.455
 8088POPC   PO433888  42.349   8.163   9.155
 8088POPC   GL133889  42.330   8.170   8.855
 8088POPC   GL233890  42.235   8.347   8.855
 8088POPC   C1A33891  42.355   8.219   8.555
 8088POPC   D2A33892  42.347   8.153   8.255
 8088POPC   C3A33893  42.329   8.212   7.955
 8088POPC   C4A33894  42.290   8.221   7.655
 8088POPC   C1B33895  42.237   8.369   8.555
 8088POPC   C2B33896  42.194   8.456   8.255
 8088POPC   C3B33897  42.172   8.378   7.955
 8088POPC   C4B33898  42.246   8.408   7.655
 8089POPC   NC333899  33.004  43.839   9.455
 8089POPC   PO433900  32.983  43.892   9.155
 8089POPC   GL133901  33.011  43.868   8.855
 8089POPC   GL233902  32.955  43.929   8.855
 8089POPC   C1A33903  33.066  43.874   8.555
 8089POPC   D2A33904  32.981  43.841   8.255
 8089POPC   C3A33905  32.982  43.871   7.955
 8089POPC   C4A33906  33.031  43.898   7.655
 8089POPC   C1B33907  32.777  43.969   8.555
 8089POPC   C2B33908  32.777  43.989   8.255
 8089POPC   C3B33909  32.782  43.993   7.955
 8089POPC   C4B33910  32.804  43.964   7.655
 8090POPC   NC333911  42.364   8.972   9.455
 8090POPC   PO433912  42.337   9.020   9.155
 8090POPC   GL133913  42.324   8.954   8.855
 8090POPC   GL233914  42.385   9.082   8.855
 8090POPC   C1A33915  42.369   8.975   8.555
 8090POPC   D2A33916  42.304   9.020   8.255
 8090POPC   C3A33917  42.375   8.982   7.955
 8090POPC   C4A33918  42.343   8.960   7.655
 8090POPC   C1B33919  42.451   9.248   8.555
 8090POPC   C2B33920  42.394   9.179   8.255
 8090POPC   C3B33921  42.478   9.157   7.955
 8090POPC   C4B33922  42.406   9.200   7.655
 8091POPC   NC333923  28.373  33.807   9.455
 8091POPC   PO433924  28.365  33.772   9.155
 8091POPC   GL133925  28.331  33.791   8.855
 8091POPC   GL233926  28.523  33.795   8.855
 8091POPC   C1A33927  28.386  33.828   8.555
 8091POPC   D2A33928  28.349  33.833   8.255
 8091POPC   C3A33929  28.385  33.797   7.955
 8091POPC   C4A33930  28.357  33.815   7.655
 8091POPC   C1B33931  28.660  33.747   8.555
 8091POPC   C2B33932  28.596  33.783   8.255
 8091POPC   C3B33933  28.666  33.831   7.955
 8091POPC   C4B33934  28.604  33.823   7.655
 8092POPC   NC333935  30.722   8.969   9.455
 8092POPC   PO433936  30.728   8.977   9.155
 8092POPC   GL133937  30.669   8.946   8.855
 8092POPC   GL233938  30.607   8.893   8.855
 8092POPC   C1A33939  30.729   8.950   8.555
 8092POPC   D2A33940  30.706   8.930   8.255
 8092POPC   C3A33941  30.715   8.946   7.955
 8092POPC   C4A33942  30.707   8.994   7.655
 8092POPC   C1B33943  30.525   8.820   8.555
 8092POPC   C2B33944  30.520   8.726   8.255
 8092POPC   C3B33945  30.531   8.726   7.955
 8092POPC   C4B33946  30.533   8.739   7.655
 8093POPC   NC333947  17.478   5.820   9.455
 8093POPC   PO433948  17.494   5.876   9.155
 8093POPC   GL133949  17.520   5.824   8.855
 8093POPC   GL233950  17.385   5.909   8.855
 8093POPC   C1A33951  17.530   5.878   8.555
 8093POPC   D2A33952  17.524   5.873   8.255
 8093POPC   C3A33953  17.504   5.900   7.955
 8093POPC   C4A33954  17.475   5.891   7.655
 8093POPC   C1B33955  17.216   5.927   8.555
 8093POPC   C2B33956  17.226   5.863   8.255
 8093POPC   C3B33957  17.221   5.881   7.955
 8093POPC   C4B33958  17.265   5.898   7.655
 8094POPC   NC333959   5.823   5.071   9.455
 8094POPC   PO433960   5.876   5.121   9.155
 8094POPC   GL133961   5.915   5.075   8.855
 8094POPC   GL233962   5.719   5.075   8.855
 8094POPC   C1A33963   5.838   5.067   8.555
 8094POPC   D2A33964   5.865   5.120   8.255
 8094POPC   C3A33965   5.825   5.138   7.955
 8094POPC   C4A33966   5.841   5.081   7.655
 8094POPC   C1B33967   5.591   5.036   8.555
 8094POPC   C2B33968   5.641   4.944   8.255
 8094POPC   C3B33969   5.616   4.975   7.955
 8094POPC   C4B33970   5.631   4.978   7.655
 8095POPC   NC333971  18.308  22.923   9.455
 8095POPC   PO433972  18.305  22.898   9.155
 8095POPC   GL133973  18.332  22.950   8.855
 8095POPC   GL233974  18.269  23.110   8.855
 8095POPC   C1A33975  18.305  22.966   8.555
 8095POPC   D2A33976  18.234  22.935   8.255
 8095POPC   C3A33977  18.291  22.962   7.955
 8095POPC   C4A33978  18.235  22.964   7.655
 8095POPC   C1B33979  18.254  23.219   8.555
 8095POPC   C2B33980  18.319  23.157   8.255
 8095POPC   C3B33981  18.309  23.159   7.955
 8095POPC   C4B33982  18.281  23.195   7.655
 8096POPC   NC333983   6.676  13.620   9.455
 8096POPC   PO433984   6.638  13.645   9.155
 8096POPC   GL133985   6.694  13.604   8.855
 8096POPC   GL233986   6.753  13.621   8.855
 8096POPC   C1A33987   6.602  13.662   8.555
 8096POPC   D2A33988   6.658  13.639   8.255
 8096POPC   C3A33989   6.686  13.589   7.955
 8096POPC   C4A33990   6.620  13.648   7.655
 8096POPC   C1B33991   6.914  13.536   8.555
 8096POPC   C2B33992   6.911  13.593   8.255
 8096POPC   C3B33993   6.838  13.569   7.955
 8096POPC   C4B33994   6.850  13.525   7.655
 8097POPC   NC333995   3.576  33.033   9.455
 8097POPC   PO433996   3.587  32.995   9.155
 8097POPC   GL133997   3.575  32.996   8.855
 8097POPC   GL233998   3.437  33.079   8.855
 8097POPC   C1A33999   3.554  33.056   8.555
 8097POPC   D2A34000   3.586  33.071   8.255
 8097POPC   C3A34001   3.526  33.062   7.955
 8097POPC   C4A34002   3.499  33.048   7.655
 8097POPC   C1B34003   3.296  33.099   8.555
 8097POPC   C2B34004   3.288  33.101   8.255
 8097POPC   C3B34005   3.301  33.183   7.955
 8097POPC   C4B34006   3.280  33.113   7.655
 8098POPC   NC334007  16.759  13.609   9.455
 8098POPC   PO434008  16.731  13.607   9.155
 8098POPC   GL134009  16.693  13.633   8.855
 8098POPC   GL234010  16.668  13.535   8.855
 8098POPC   C1A34011  16.716  13.660   8.555
 8098POPC   D2A34012  16.732  13.658   8.255
 8098POPC   C3A34013  16.731  13.601   7.955
 8098POPC   C4A34014  16.759  13.613   7.655
 8098POPC   C1B34015  16.629  13.384   8.555
 8098POPC   C2B34016  16.621  13.439   8.255
 8098POPC   C3B34017  16.619  13.369   7.955
 8098POPC   C4B34018  16.614  13.414   7.655
 8099POPC   NC334019   1.193   8.215   9.455
 8099POPC   PO434020   1.194   8.241   9.155
 8099POPC   GL134021   1.244   8.225   8.855
 8099POPC   GL234022   1.132   8.304   8.855
 8099POPC   C1A34023   1.175   8.240   8.555
 8099POPC   D2A34024   1.188   8.154   8.255
 8099POPC   C3A34025   1.177   8.230   7.955
 8099POPC   C4A34026   1.169   8.226   7.655
 8099POPC   C1B34027   0.986   8.368   8.555
 8099POPC   C2B34028   0.996   8.366   8.255
 8099POPC   C3B34029   1.014   8.335   7.955
 8099POPC   C4B34030   1.036   8.355   7.655
 8100POPC   NC334031  44.712   2.735   9.455
 8100POPC   PO434032  44.678   2.763   9.155
 8100POPC   GL134033  44.666   2.755   8.855
 8100POPC   GL234034  44.735   2.851   8.855
 8100POPC   C1A34035  44.617   2.775   8.555
 8100POPC   D2A34036  44.674   2.729   8.255
 8100POPC   C3A34037  44.711   2.748   7.955
 8100POPC   C4A34038  44.702   2.798   7.655
 8100POPC   C1B34039  44.875   2.905   8.555
 8100POPC   C2B34040  44.862   2.913   8.255
 8100POPC   C3B34041  44.921   2.855   7.955
 8100POPC   C4B34042  44.914   2.934   7.655
 8101POPC   NC334043  36.943  42.347   9.455
 8101POPC   PO434044  36.912  42.325   9.155
 8101POPC   GL134045  36.883  42.286   8.855
 8101POPC   GL234046  36.897  42.201   8.855
 8101POPC   C1A34047  36.885  42.295   8.555
 8101POPC   D2A34048  36.860  42.300   8.255
 8101POPC   C3A34049  36.935  42.313   7.955
 8101POPC   C4A34050  36.933  42.318   7.655
 8101POPC   C1B34051  36.833  42.050   8.555
 8101POPC   C2B34052  36.841  42.106   8.255
 8101POPC   C3B34053  36.887  42.059   7.955
 8101POPC   C4B34054  36.899  42.137   7.655
 8102POPC   NC334055  29.185  35.385   9.455
 8102POPC   PO434056  29.174  35.366   9.155
 8102POPC   GL134057  29.184  35.337   8.855
 8102POPC   GL234058  29.193  35.235   8.855
 8102POPC   C1A34059  29.137  35.316   8.555
 8102POPC   D2A34060  29.175  35.324   8.255
 8102POPC   C3A34061  29.180  35.324   7.955
 8102POPC   C4A34062  29.188  35.337   7.655
 8102POPC   C1B34063  29.270  35.187   8.555
 8102POPC   C2B34064  29.297  35.196   8.255
 8102POPC   C3B34065  29.296  35.200   7.955
 8102POPC   C4B34066  29.275  35.142   7.655
 8103POPC   NC334067  33.841   8.974   9.455
 8103POPC   PO434068  33.811   8.986   9.155
 8103POPC   GL134069  33.816   9.004   8.855
 8103POPC   GL234070  33.890   8.859   8.855
 8103POPC   C1A34071  33.752   8.930   8.555
 8103POPC   D2A34072  33.809   8.942   8.255
 8103POPC   C3A34073  33.756   8.931   7.955
 8103POPC   C4A34074  33.815   9.012   7.655
 8103POPC   C1B34075  34.017   8.832   8.555
 8103POPC   C2B34076  34.018   8.831   8.255
 8103POPC   C3B34077  34.027   8.867   7.955
 8103POPC   C4B34078  34.011   8.804   7.655
 8104POPC   NC334079  11.299  16.742   9.455
 8104POPC   PO434080  11.325  16.758   9.155
 8104POPC   GL134081  11.274  16.753   8.855
 8104POPC   GL234082  11.324  16.603   8.855
 8104POPC   C1A34083  11.341  16.691   8.555
 8104POPC   D2A34084  11.305  16.759   8.255
 8104POPC   C3A34085  11.344  16.772   7.955
 8104POPC   C4A34086  11.308  16.699   7.655
 8104POPC   C1B34087  11.439  16.509   8.555
 8104POPC   C2B34088  11.363  16.491   8.255
 8104POPC   C3B34089  11.431  16.538   7.955
 8104POPC   C4B34090  11.430  16.494   7.655
 8105POPC   NC334091  42.351  40.752   9.455
 8105POPC   PO434092  42.362  40.816   9.155
 8105POPC   GL134093  42.365  40.735   8.855
 8105POPC   GL234094  42.350  40.854   8.855
 8105POPC   C1A34095  42.309  40.802   8.555
 8105POPC   D2A34096  42.318  40.773   8.255
 8105POPC   C3A34097  42.297  40.780   7.955
 8105POPC   C4A34098  42.368  40.786   7.655
 8105POPC   C1B34099  42.358  40.979   8.555
 8105POPC   C2B34100  42.434  40.980   8.255
 8105POPC   C3B34101  42.417  41.039   7.955
 8105POPC   C4B34102  42.349  40.995   7.655
 8106POPC   NC334103  29.872  11.312   9.455
 8106POPC   PO434104  29.880  11.253   9.155
 8106POPC   GL134105  29.897  11.277   8.855
 8106POPC   GL234106  29.897  11.175   8.855
 8106POPC   C1A34107  29.928  11.275   8.555
 8106POPC   D2A34108  29.899  11.303   8.255
 8106POPC   C3A34109  29.874  11.270   7.955
 8106POPC   C4A34110  29.904  11.303   7.655
 8106POPC   C1B34111  29.938  11.029   8.555
 8106POPC   C2B34112  29.951  11.041   8.255
 8106POPC   C3B34113  29.915  11.005   7.955
 8106POPC   C4B34114  29.974  11.010   7.655
 8107POPC   NC334115  12.110   4.281   9.455
 8107POPC   PO434116  12.033   4.342   9.155
 8107POPC   GL134117  12.109   4.352   8.855
 8107POPC   GL234118  11.997   4.442   8.855
 8107POPC   C1A34119  12.090   4.360   8.555
 8107POPC   D2A34120  12.049   4.276   8.255
 8107POPC   C3A34121  12.060   4.356   7.955
 8107POPC   C4A34122  12.048   4.354   7.655
 8107POPC   C1B34123  11.915   4.528   8.555
 8107POPC   C2B34124  11.891   4.547   8.255
 8107POPC   C3B34125  11.949   4.477   7.955
 8107POPC   C4B34126  11.885   4.472   7.655
 8108POPC   NC334127  34.540  15.991   9.455
 8108POPC   PO434128  34.595  15.962   9.155
 8108POPC   GL134129  34.529  15.984   8.855
 8108POPC   GL234130  34.690  16.009   8.855
 8108POPC   C1A34131  34.535  15.982   8.555
 8108POPC   D2A34132  34.526  15.952   8.255
 8108POPC   C3A34133  34.559  15.907   7.955
 8108POPC   C4A34134  34.578  15.948   7.655
 8108POPC   C1B34135  34.782  16.122   8.555
 8108POPC   C2B34136  34.774  16.091   8.255
 8108POPC   C3B34137  34.731  16.068   7.955
 8108POPC   C4B34138  34.777  16.083   7.655
 8109POPC   NC334139   2.809   4.341   9.455
 8109POPC   PO434140   2.727   4.334   9.155
 8109POPC   GL134141   2.797   4.306   8.855
 8109POPC   GL234142   2.900   4.413   8.855
 8109POPC   C1A34143   2.762   4.310   8.555
 8109POPC   D2A34144   2.787   4.365   8.255
 8109POPC   C3A34145   2.747   4.341   7.955
 8109POPC   C4A34146   2.739   4.325   7.655
 8109POPC   C1B34147   3.038   4.444   8.555
 8109POPC   C2B34148   3.043   4.464   8.255
 8109POPC   C3B34149   3.034   4.435   7.955
 8109POPC   C4B34150   2.962   4.380   7.655
 8110POPC   NC334151   4.318   4.304   9.455
 8110POPC   PO434152   4.326   4.279   9.155
 8110POPC   GL134153   4.328   4.331   8.855
 8110POPC   GL234154   4.146   4.291   8.855
 8110POPC   C1A34155   4.344   4.363   8.555
 8110POPC   D2A34156   4.337   4.334   8.255
 8110POPC   C3A34157   4.275   4.359   7.955
 8110POPC   C4A34158   4.364   4.292   7.655
 8110POPC   C1B34159   4.028   4.320   8.555
 8110POPC   C2B34160   4.033   4.291   8.255
 8110POPC   C3B34161   4.087   4.362   7.955
 8110POPC   C4B34162   4.061   4.286   7.655
 8111POPC   NC334163  28.395  31.444   9.455
 8111POPC   PO434164  28.414  31.438   9.155
 8111POPC   GL134165  28.413  31.467   8.855
 8111POPC   GL234166  28.311  31.378   8.855
 8111POPC   C1A34167  28.390  31.437   8.555
 8111POPC   D2A34168  28.390  31.520   8.255
 8111POPC   C3A34169  28.323  31.515   7.955
 8111POPC   C4A34170  28.327  31.490   7.655
 8111POPC   C1B34171  28.314  31.231   8.555
 8111POPC   C2B34172  28.260  31.259   8.255
 8111POPC   C3B34173  28.300  31.244   7.955
 8111POPC   C4B34174  28.321  31.192   7.655
 8112POPC   NC334175  32.237   6.667   9.455
 8112POPC   PO434176  32.225   6.671   9.155
 8112POPC   GL134177  32.277   6.670   8.855
 8112POPC   GL234178  32.206   6.501   8.855
 8112POPC   C1A34179  32.247   6.630   8.555
 8112POPC   D2A34180  32.279   6.617   8.255
 8112POPC   C3A34181  32.221   6.645   7.955
 8112POPC   C4A34182  32.236   6.642   7.655
 8112POPC   C1B34183  32.179   6.403   8.555
 8112POPC   C2B34184  32.229   6.374   8.255
 8112POPC   C3B34185  32.263   6.428   7.955
 8112POPC   C4B34186  32.200   6.411   7.655
 8113POPC   NC334187  26.804  41.547   9.455
 8113POPC   PO434188  26.769  41.554   9.155
 8113POPC   GL134189  26.774  41.549   8.855
 8113POPC   GL234190  26.863  41.495   8.855
 8113POPC   C1A34191  26.791  41.586   8.555
 8113POPC   D2A34192  26.865  41.525   8.255
 8113POPC   C3A34193  26.867  41.552   7.955
 8113POPC   C4A34194  26.836  41.584   7.655
 8113POPC   C1B34195  26.943  41.349   8.555
 8113POPC   C2B34196  26.945  41.319   8.255
 8113POPC   C3B34197  26.961  41.314   7.955
 8113POPC   C4B34198  26.955  41.361   7.655
 8114POPC   NC334199  37.662   8.229   9.455
 8114POPC   PO434200  37.704   8.192   9.155
 8114POPC   GL134201  37.681   8.154   8.855
 8114POPC   GL234202  37.815   8.085   8.855
 8114POPC   C1A34203  37.660   8.198   8.555
 8114POPC   D2A34204  37.700   8.232   8.255
 8114POPC   C3A34205  37.667   8.216   7.955
 8114POPC   C4A34206  37.685   8.187   7.655
 8114POPC   C1B34207  37.901   8.085   8.555
 8114POPC   C2B34208  37.938   8.047   8.255
 8114POPC   C3B34209  37.923   8.086   7.955
 8114POPC   C4B34210  37.917   8.080   7.655
 8115POPC   NC334211   1.216  20.654   9.455
 8115POPC   PO434212   1.263  20.574   9.155
 8115POPC   GL134213   1.226  20.596   8.855
 8115POPC   GL234214   1.292  20.517   8.855
 8115POPC   C1A34215   1.188  20.585   8.555
 8115POPC   D2A34216   1.246  20.592   8.255
 8115POPC   C3A34217   1.244  20.660   7.955
 8115POPC   C4A34218   1.237  20.642   7.655
 8115POPC   C1B34219   1.467  20.509   8.555
 8115POPC   C2B34220   1.403  20.449   8.255
 8115POPC   C3B34221   1.420  20.455   7.955
 8115POPC   C4B34222   1.416  20.433   7.655
 8116POPC   NC334223   6.620  21.346   9.455
 8116POPC   PO434224   6.693  21.431   9.155
 8116POPC   GL134225   6.694  21.411   8.855
 8116POPC   GL234226   6.561  21.384   8.855
 8116POPC   C1A34227   6.684  21.392   8.555
 8116POPC   D2A34228   6.689  21.357   8.255
 8116POPC   C3A34229   6.662  21.427   7.955
 8116POPC   C4A34230   6.621  21.375   7.655
 8116POPC   C1B34231   6.363  21.478   8.555
 8116POPC   C2B34232   6.373  21.483   8.255
 8116POPC   C3B34233   6.385  21.444   7.955
 8116POPC   C4B34234   6.435  21.480   7.655
 8117POPC   NC334235  13.664  41.532   9.455
 8117POPC   PO434236  13.632  41.588   9.155
 8117POPC   GL134237  13.660  41.595   8.855
 8117POPC   GL234238  13.796  41.563   8.855
 8117POPC   C1A34239  13.652  41.541   8.555
 8117POPC   D2A34240  13.592  41.521   8.255
 8117POPC   C3A34241  13.582  41.534   7.955
 8117POPC   C4A34242  13.663  41.595   7.655
 8117POPC   C1B34243  13.841  41.622   8.555
 8117POPC   C2B34244  13.825  41.628   8.255
 8117POPC   C3B34245  13.849  41.573   7.955
 8117POPC   C4B34246  13.901  41.627   7.655
 8118POPC   NC334247   5.831   8.926   9.455
 8118POPC   PO434248   5.844   8.956   9.155
 8118POPC   GL134249   5.839   9.022   8.855
 8118POPC   GL234250   5.900   9.102   8.855
 8118POPC   C1A34251   5.829   8.938   8.555
 8118POPC   D2A34252   5.909   8.974   8.255
 8118POPC   C3A34253   5.891   8.924   7.955
 8118POPC   C4A34254   5.911   8.963   7.655
 8118POPC   C1B34255   5.889   9.227   8.555
 8118POPC   C2B34256   5.850   9.217   8.255
 8118POPC   C3B34257   5.861   9.186   7.955
 8118POPC   C4B34258   5.861   9.220   7.655
 8119POPC   NC334259   7.431  39.980   9.455
 8119POPC   PO434260   7.435  40.003   9.155
 8119POPC   GL134261   7.413  40.011   8.855
 8119POPC   GL234262   7.517  39.952   8.855
 8119POPC   C1A34263   7.412  39.990   8.555
 8119POPC   D2A34264   7.401  39.965   8.255
 8119POPC   C3A34265   7.399  39.961   7.955
 8119POPC   C4A34266   7.469  40.012   7.655
 8119POPC   C1B34267   7.524  39.788   8.555
 8119POPC   C2B34268   7.542  39.818   8.255
 8119POPC   C3B34269   7.594  39.761   7.955
 8119POPC   C4B34270   7.598  39.795   7.655
 8120POPC   NC334271  20.632  34.574   9.455
 8120POPC   PO434272  20.608  34.615   9.155
 8120POPC   GL134273  20.597  34.568   8.855
 8120POPC   GL234274  20.577  34.631   8.855
 8120POPC   C1A34275  20.619  34.596   8.555
 8120POPC   D2A34276  20.614  34.589   8.255
 8120POPC   C3A34277  20.636  34.583   7.955
 8120POPC   C4A34278  20.597  34.542   7.655
 8120POPC   C1B34279  20.494  34.815   8.555
 8120POPC   C2B34280  20.491  34.812   8.255
 8120POPC   C3B34281  20.445  34.772   7.955
 8120POPC   C4B34282  20.452  34.799   7.655
 8121POPC   NC334283  32.253  16.717   9.455
 8121POPC   PO434284  32.254  16.768   9.155
 8121POPC   GL134285  32.243  16.776   8.855
 8121POPC   GL234286  32.215  16.600   8.855
 8121POPC   C1A34287  32.209  16.717   8.555
 8121POPC   D2A34288  32.276  16.739   8.255
 8121POPC   C3A34289  32.270  16.717   7.955
 8121POPC   C4A34290  32.265  16.707   7.655
 8121POPC   C1B34291  32.134  16.462   8.555
 8121POPC   C2B34292  32.143  16.495   8.255
 8121POPC   C3B34293  32.099  16.456   7.955
 8121POPC   C4B34294  32.116  16.540   7.655
 8122POPC   NC334295  12.106  37.632   9.455
 8122POPC   PO434296  12.036  37.632   9.155
 8122POPC   GL134297  12.100  37.695   8.855
 8122POPC   GL234298  12.176  37.626   8.855
 8122POPC   C1A34299  12.046  37.660   8.555
 8122POPC   D2A34300  12.033  37.670   8.255
 8122POPC   C3A34301  12.095  37.629   7.955
 8122POPC   C4A34302  12.112  37.726   7.655
 8122POPC   C1B34303  12.217  37.520   8.555
 8122POPC   C2B34304  12.305  37.491   8.255
 8122POPC   C3B34305  12.232  37.513   7.955
 8122POPC   C4B34306  12.287  37.524   7.655
 8123POPC   NC334307  14.429  15.174   9.455
 8123POPC   PO434308  14.359  15.195   9.155
 8123POPC   GL134309  14.365  15.220   8.855
 8123POPC   GL234310  14.238  15.114   8.855
 8123POPC   C1A34311  14.411  15.138   8.555
 8123POPC   D2A34312  14.373  15.204   8.255
 8123POPC   C3A34313  14.414  15.153   7.955
 8123POPC   C4A34314  14.444  15.175   7.655
 8123POPC   C1B34315  14.176  15.119   8.555
 8123POPC   C2B34316  14.174  15.066   8.255
 8123POPC   C3B34317  14.177  15.149   7.955
 8123POPC   C4B34318  14.142  15.139   7.655
 8124POPC   NC334319   2.774  17.518   9.455
 8124POPC   PO434320   2.804  17.514   9.155
 8124POPC   GL134321   2.801  17.525   8.855
 8124POPC   GL234322   2.618  17.527   8.855
 8124POPC   C1A34323   2.717  17.502   8.555
 8124POPC   D2A34324   2.789  17.544   8.255
 8124POPC   C3A34325   2.806  17.500   7.955
 8124POPC   C4A34326   2.750  17.525   7.655
 8124POPC   C1B34327   2.471  17.581   8.555
 8124POPC   C2B34328   2.493  17.580   8.255
 8124POPC   C3B34329   2.504  17.563   7.955
 8124POPC   C4B34330   2.528  17.504   7.655
 8125POPC   NC334331  31.459  39.977   9.455
 8125POPC   PO434332  31.475  40.033   9.155
 8125POPC   GL134333  31.492  39.986   8.855
 8125POPC   GL234334  31.634  39.998   8.855
 8125POPC   C1A34335  31.510  39.995   8.555
 8125POPC   D2A34336  31.493  40.009   8.255
 8125POPC   C3A34337  31.516  39.977   7.955
 8125POPC   C4A34338  31.476  40.049   7.655
 8125POPC   C1B34339  31.688  39.974   8.555
 8125POPC   C2B34340  31.733  39.999   8.255
 8125POPC   C3B34341  31.676  39.965   7.955
 8125POPC   C4B34342  31.673  39.912   7.655
 8126POPC   NC334343  17.529  38.428   9.455
 8126POPC   PO434344  17.472  38.453   9.155
 8126POPC   GL134345  17.546  38.489   8.855
 8126POPC   GL234346  17.398  38.448   8.855
 8126POPC   C1A34347  17.469  38.415   8.555
 8126POPC   D2A34348  17.548  38.478   8.255
 8126POPC   C3A34349  17.551  38.429   7.955
 8126POPC   C4A34350  17.515  38.478   7.655
 8126POPC   C1B34351  17.310  38.509   8.555
 8126POPC   C2B34352  17.260  38.511   8.255
 8126POPC   C3B34353  17.281  38.546   7.955
 8126POPC   C4B34354  17.220  38.526   7.655
 8127POPC   NC334355  36.131  22.120   9.455
 8127POPC   PO434356  36.093  22.125   9.155
 8127POPC   GL134357  36.109  22.193   8.855
 8127POPC   GL234358  36.114  22.047   8.855
 8127POPC   C1A34359  36.141  22.119   8.555
 8127POPC   D2A34360  36.088  22.168   8.255
 8127POPC   C3A34361  36.088  22.156   7.955
 8127POPC   C4A34362  36.083  22.195   7.655
 8127POPC   C1B34363  36.065  21.890   8.555
 8127POPC   C2B34364  36.072  21.959   8.255
 8127POPC   C3B34365  36.082  21.951   7.955
 8127POPC   C4B34366  36.043  21.944   7.655
 8128POPC   NC334367  39.996  33.821   9.455
 8128POPC   PO434368  39.984  33.835   9.155
 8128POPC   GL134369  39.977  33.837   8.855
 8128POPC   GL234370  40.019  33.950   8.855
 8128POPC   C1A34371  40.022  33.818   8.555
 8128POPC   D2A34372  40.020  33.848   8.255
 8128POPC   C3A34373  39.995  33.821   7.955
 8128POPC   C4A34374  39.962  33.841   7.655
 8128POPC   C1B34375  39.912  34.056   8.555
 8128POPC   C2B34376  39.986  34.053   8.255
 8128POPC   C3B34377  39.984  34.069   7.955
 8128POPC   C4B34378  39.966  34.088   7.655
 8129POPC   NC334379  41.575  15.203   9.455
 8129POPC   PO434380  41.565  15.138   9.155
 8129POPC   GL134381  41.595  15.210   8.855
 8129POPC   GL234382  41.702  15.211   8.855
 8129POPC   C1A34383  41.585  15.161   8.555
 8129POPC   D2A34384  41.578  15.206   8.255
 8129POPC   C3A34385  41.514  15.193   7.955
 8129POPC   C4A34386  41.547  15.207   7.655
 8129POPC   C1B34387  41.749  15.213   8.555
 8129POPC   C2B34388  41.846  15.247   8.255
 8129POPC   C3B34389  41.775  15.230   7.955
 8129POPC   C4B34390  41.785  15.284   7.655
 8130POPC   NC334391  19.043  10.514   9.455
 8130POPC   PO434392  19.088  10.539   9.155
 8130POPC   GL134393  19.090  10.528   8.855
 8130POPC   GL234394  19.162  10.424   8.855
 8130POPC   C1A34395  19.035  10.536   8.555
 8130POPC   D2A34396  19.098  10.499   8.255
 8130POPC   C3A34397  19.075  10.537   7.955
 8130POPC   C4A34398  19.097  10.557   7.655
 8130POPC   C1B34399  19.303  10.411   8.555
 8130POPC   C2B34400  19.267  10.401   8.255
 8130POPC   C3B34401  19.272  10.331   7.955
 8130POPC   C4B34402  19.216  10.366   7.655
 8131POPC   NC334403  35.389   0.408   9.455
 8131POPC   PO434404  35.336   0.426   9.155
 8131POPC   GL134405  35.332   0.471   8.855
 8131POPC   GL234406  35.397   0.314   8.855
 8131POPC   C1A34407  35.368   0.448   8.555
 8131POPC   D2A34408  35.309   0.465   8.255
 8131POPC   C3A34409  35.374   0.445   7.955
 8131POPC   C4A34410  35.310   0.389   7.655
 8131POPC   C1B34411  35.541   0.266   8.555
 8131POPC   C2B34412  35.566   0.220   8.255
 8131POPC   C3B34413  35.520   0.264   7.955
 8131POPC   C4B34414  35.477   0.291   7.655
 8132POPC   NC334415   4.308  31.508   9.455
 8132POPC   PO434416   4.299  31.450   9.155
 8132POPC   GL134417   4.319  31.456   8.855
 8132POPC   GL234418   4.336  31.543   8.855
 8132POPC   C1A34419   4.290  31.449   8.555
 8132POPC   D2A34420   4.278  31.494   8.255
 8132POPC   C3A34421   4.275  31.500   7.955
 8132POPC   C4A34422   4.346  31.513   7.655
 8132POPC   C1B34423   4.404  31.733   8.555
 8132POPC   C2B34424   4.395  31.703   8.255
 8132POPC   C3B34425   4.374  31.722   7.955
 8132POPC   C4B34426   4.387  31.661   7.655
 8133POPC   NC334427  24.471   4.297   9.455
 8133POPC   PO434428  24.475   4.280   9.155
 8133POPC   GL134429  24.536   4.357   8.855
 8133POPC   GL234430  24.612   4.365   8.855
 8133POPC   C1A34431  24.503   4.312   8.555
 8133POPC   D2A34432  24.451   4.291   8.255
 8133POPC   C3A34433  24.505   4.283   7.955
 8133POPC   C4A34434  24.461   4.322   7.655
 8133POPC   C1B34435  24.711   4.382   8.555
 8133POPC   C2B34436  24.737   4.330   8.255
 8133POPC   C3B34437  24.763   4.364   7.955
 8133POPC   C4B34438  24.758   4.370   7.655
 8134POPC   NC334439  12.854  32.995   9.455
 8134POPC   PO434440  12.881  33.046   9.155
 8134POPC   GL134441  12.843  33.002   8.855
 8134POPC   GL234442  12.845  33.146   8.855
 8134POPC   C1A34443  12.896  33.026   8.555
 8134POPC   D2A34444  12.819  32.979   8.255
 8134POPC   C3A34445  12.889  32.981   7.955
 8134POPC   C4A34446  12.873  33.052   7.655
 8134POPC   C1B34447  12.837  33.252   8.555
 8134POPC   C2B34448  12.868  33.289   8.255
 8134POPC   C3B34449  12.818  33.236   7.955
 8134POPC   C4B34450  12.796  33.251   7.655
 8135POPC   NC334451  19.083   9.731   9.455
 8135POPC   PO434452  19.016   9.719   9.155
 8135POPC   GL134453  19.015   9.716   8.855
 8135POPC   GL234454  18.969   9.821   8.855
 8135POPC   C1A34455  19.020   9.712   8.555
 8135POPC   D2A34456  19.074   9.779   8.255
 8135POPC   C3A34457  19.100   9.700   7.955
 8135POPC   C4A34458  19.100   9.722   7.655
 8135POPC   C1B34459  18.842   9.840   8.555
 8135POPC   C2B34460  18.787   9.778   8.255
 8135POPC   C3B34461  18.784   9.782   7.955
 8135POPC   C4B34462  18.785   9.807   7.655
 8136POPC   NC334463  31.427  29.154   9.455
 8136POPC   PO434464  31.479  29.170   9.155
 8136POPC   GL134465  31.507  29.130   8.855
 8136POPC   GL234466  31.446  29.035   8.855
 8136POPC   C1A34467  31.505  29.117   8.555
 8136POPC   D2A34468  31.472  29.149   8.255
 8136POPC   C3A34469  31.436  29.130   7.955
 8136POPC   C4A34470  31.436  29.146   7.655
 8136POPC   C1B34471  31.354  28.871   8.555
 8136POPC   C2B34472  31.354  28.870   8.255
 8136POPC   C3B34473  31.401  28.943   7.955
 8136POPC   C4B34474  31.406  28.950   7.655
 8137POPC   NC334475  40.822  41.598   9.455
 8137POPC   PO434476  40.821  41.546   9.155
 8137POPC   GL134477  40.825  41.565   8.855
 8137POPC   GL234478  40.744  41.646   8.855
 8137POPC   C1A34479  40.768  41.512   8.555
 8137POPC   D2A34480  40.833  41.559   8.255
 8137POPC   C3A34481  40.783  41.518   7.955
 8137POPC   C4A34482  40.734  41.516   7.655
 8137POPC   C1B34483  40.811  41.786   8.555
 8137POPC   C2B34484  40.808  41.856   8.255
 8137POPC   C3B34485  40.829  41.826   7.955
 8137POPC   C4B34486  40.776  41.836   7.655
 8138POPC   NC334487   1.166  40.016   9.455
 8138POPC   PO434488   1.171  39.968   9.155
 8138POPC   GL134489   1.210  40.000   8.855
 8138POPC   GL234490   1.053  40.040   8.855
 8138POPC   C1A34491   1.165  40.032   8.555
 8138POPC   D2A34492   1.237  40.042   8.255
 8138POPC   C3A34493   1.244  39.979   7.955
 8138POPC   C4A34494   1.203  40.045   7.655
 8138POPC   C1B34495   0.929  40.088   8.555
 8138POPC   C2B34496   1.011  40.079   8.255
 8138POPC   C3B34497   1.013  40.060   7.955
 8138POPC   C4B34498   0.950  39.994   7.655
 8139POPC   NC334499   5.853  15.211   9.455
 8139POPC   PO434500   5.869  15.145   9.155
 8139POPC   GL134501   5.878  15.200   8.855
 8139POPC   GL234502   5.977  15.101   8.855
 8139POPC   C1A34503   5.846  15.138   8.555
 8139POPC   D2A34504   5.902  15.153   8.255
 8139POPC   C3A34505   5.913  15.185   7.955
 8139POPC   C4A34506   5.840  15.212   7.655
 8139POPC   C1B34507   6.150  15.132   8.555
 8139POPC   C2B34508   6.109  15.119   8.255
 8139POPC   C3B34509   6.103  15.139   7.955
 8139POPC   C4B34510   6.068  15.110   7.655
 8140POPC   NC334511  13.591  36.169   9.455
 8140POPC   PO434512  13.649  36.156   9.155
 8140POPC   GL134513  13.654  36.091   8.855
 8140POPC   GL234514  13.498  36.134   8.855
 8140POPC   C1A34515  13.590  36.097   8.555
 8140POPC   D2A34516  13.614  36.097   8.255
 8140POPC   C3A34517  13.603  36.149   7.955
 8140POPC   C4A34518  13.603  36.153   7.655
 8140POPC   C1B34519  13.354  36.060   8.555
 8140POPC   C2B34520  13.347  36.117   8.255
 8140POPC   C3B34521  13.373  36.078   7.955
 8140POPC   C4B34522  13.357  36.105   7.655
 8141POPC   NC334523  15.962  10.493   9.455
 8141POPC   PO434524  15.916  10.534   9.155
 8141POPC   GL134525  15.960  10.532   8.855
 8141POPC   GL234526  16.037  10.676   8.855
 8141POPC   C1A34527  15.969  10.567   8.555
 8141POPC   D2A34528  15.936  10.491   8.255
 8141POPC   C3A34529  15.906  10.499   7.955
 8141POPC   C4A34530  15.969  10.565   7.655
 8141POPC   C1B34531  16.097  10.755   8.555
 8141POPC   C2B34532  16.058  10.790   8.255
 8141POPC   C3B34533  16.054  10.782   7.955
 8141POPC   C4B34534  16.037  10.728   7.655
 8142POPC   NC334535   5.089  36.860   9.455
 8142POPC   PO434536   5.043  36.888   9.155
 8142POPC   GL134537   5.133  36.892   8.855
 8142POPC   GL234538   5.043  36.762   8.855
 8142POPC   C1A34539   5.073  36.932   8.555
 8142POPC   D2A34540   5.127  36.938   8.255
 8142POPC   C3A34541   5.093  36.952   7.955
 8142POPC   C4A34542   5.086  36.910   7.655
 8142POPC   C1B34543   5.030  36.693   8.555
 8142POPC   C2B34544   4.985  36.622   8.255
 8142POPC   C3B34545   5.024  36.704   7.955
 8142POPC   C4B34546   5.064  36.693   7.655
 8143POPC   NC334547  37.637  30.737   9.455
 8143POPC   PO434548  37.715  30.686   9.155
 8143POPC   GL134549  37.658  30.715   8.855
 8143POPC   GL234550  37.563  30.765   8.855
 8143POPC   C1A34551  37.727  30.716   8.555
 8143POPC   D2A34552  37.678  30.690   8.255
 8143POPC   C3A34553  37.694  30.694   7.955
 8143POPC   C4A34554  37.661  30.681   7.655
 8143POPC   C1B34555  37.423  30.806   8.555
 8143POPC   C2B34556  37.461  30.870   8.255
 8143POPC   C3B34557  37.493  30.848   7.955
 8143POPC   C4B34558  37.464  30.818   7.655
 8144POPC   NC334559  20.575   0.439   9.455
 8144POPC   PO434560  20.631   0.474   9.155
 8144POPC   GL134561  20.581   0.467   8.855
 8144POPC   GL234562  20.697   0.329   8.855
 8144POPC   C1A34563  20.605   0.428   8.555
 8144POPC   D2A34564  20.561   0.428   8.255
 8144POPC   C3A34565  20.635   0.485   7.955
 8144POPC   C4A34566  20.609   0.407   7.655
 8144POPC   C1B34567  20.767   0.235   8.555
 8144POPC   C2B34568  20.756   0.227   8.255
 8144POPC   C3B34569  20.766   0.239   7.955
 8144POPC   C4B34570  20.778   0.249   7.655
 8145POPC   NC334571  12.118  27.643   9.455
 8145POPC   PO434572  12.082  27.579   9.155
 8145POPC   GL134573  12.120  27.570   8.855
 8145POPC   GL234574  12.168  27.538   8.855
 8145POPC   C1A34575  12.099  27.601   8.555
 8145POPC   D2A34576  12.079  27.563   8.255
 8145POPC   C3A34577  12.091  27.566   7.955
 8145POPC   C4A34578  12.123  27.561   7.655
 8145POPC   C1B34579  12.221  27.458   8.555
 8145POPC   C2B34580  12.219  27.391   8.255
 8145POPC   C3B34581  12.254  27.480   7.955
 8145POPC   C4B34582  12.233  27.418   7.655
 8146POPC   NC334583  22.138   1.220   9.455
 8146POPC   PO434584  22.132   1.213   9.155
 8146POPC   GL134585  22.164   1.232   8.855
 8146POPC   GL234586  22.318   1.139   8.855
 8146POPC   C1A34587  22.151   1.257   8.555
 8146POPC   D2A34588  22.193   1.257   8.255
 8146POPC   C3A34589  22.186   1.183   7.955
 8146POPC   C4A34590  22.210   1.240   7.655
 8146POPC   C1B34591  22.446   1.197   8.555
 8146POPC   C2B34592  22.392   1.171   8.255
 8146POPC   C3B34593  22.370   1.111   7.955
 8146POPC   C4B34594  22.415   1.168   7.655
 8147POPC   NC334595  12.083  19.840   9.455
 8147POPC   PO434596  12.101  19.872   9.155
 8147POPC   GL134597  12.093  19.788   8.855
 8147POPC   GL234598  12.139  19.952   8.855
 8147POPC   C1A34599  12.040  19.841   8.555
 8147POPC   D2A34600  12.046  19.828   8.255
 8147POPC   C3A34601  12.034  19.802   7.955
 8147POPC   C4A34602  12.038  19.838   7.655
 8147POPC   C1B34603  12.122  20.084   8.555
 8147POPC   C2B34604  12.136  20.057   8.255
 8147POPC   C3B34605  12.126  20.046   7.955
 8147POPC   C4B34606  12.090  20.031   7.655
 8148POPC   NC334607  40.751  34.532   9.455
 8148POPC   PO434608  40.741  34.619   9.155
 8148POPC   GL134609  40.772  34.576   8.855
 8148POPC   GL234610  40.715  34.461   8.855
 8148POPC   C1A34611  40.770  34.593   8.555
 8148POPC   D2A34612  40.762  34.610   8.255
 8148POPC   C3A34613  40.756  34.566   7.955
 8148POPC   C4A34614  40.767  34.560   7.655
 8148POPC   C1B34615  40.762  34.307   8.555
 8148POPC   C2B34616  40.761  34.327   8.255
 8148POPC   C3B34617  40.757  34.375   7.955
 8148POPC   C4B34618  40.694  34.303   7.655
 8149POPC   NC334619   5.071   1.172   9.455
 8149POPC   PO434620   5.070   1.227   9.155
 8149POPC   GL134621   5.129   1.238   8.855
 8149POPC   GL234622   5.166   1.101   8.855
 8149POPC   C1A34623   5.045   1.209   8.555
 8149POPC   D2A34624   5.121   1.207   8.255
 8149POPC   C3A34625   5.107   1.246   7.955
 8149POPC   C4A34626   5.079   1.242   7.655
 8149POPC   C1B34627   5.190   0.991   8.555
 8149POPC   C2B34628   5.203   0.976   8.255
 8149POPC   C3B34629   5.238   0.953   7.955
 8149POPC   C4B34630   5.233   0.994   7.655
 8150POPC   NC334631  36.112  20.580   9.455
 8150POPC   PO434632  36.079  20.627   9.155
 8150POPC   GL134633  36.177  20.614   8.855
 8150POPC   GL234634  36.107  20.453   8.855
 8150POPC   C1A34635  36.110  20.562   8.555
 8150POPC   D2A34636  36.143  20.625   8.255
 8150POPC   C3A34637  36.158  20.621   7.955
 8150POPC   C4A34638  36.095  20.570   7.655
 8150POPC   C1B34639  36.004  20.350   8.555
 8150POPC   C2B34640  36.040  20.432   8.255
 8150POPC   C3B34641  35.979  20.422   7.955
 8150POPC   C4B34642  36.064  20.413   7.655
 8151POPC   NC334643  13.585   4.317   9.455
 8151POPC   PO434644  13.634   4.342   9.155
 8151POPC   GL134645  13.648   4.298   8.855
 8151POPC   GL234646  13.702   4.401   8.855
 8151POPC   C1A34647  13.599   4.305   8.555
 8151POPC   D2A34648  13.658   4.324   8.255
 8151POPC   C3A34649  13.604   4.344   7.955
 8151POPC   C4A34650  13.667   4.302   7.655
 8151POPC   C1B34651  13.850   4.444   8.555
 8151POPC   C2B34652  13.794   4.450   8.255
 8151POPC   C3B34653  13.814   4.489   7.955
 8151POPC   C4B34654  13.809   4.470   7.655
 8152POPC   NC334655  13.677  24.445   9.455
 8152POPC   PO434656  13.671  24.472   9.155
 8152POPC   GL134657  13.666  24.539   8.855
 8152POPC   GL234658  13.559  24.435   8.855
 8152POPC   C1A34659  13.652  24.446   8.555
 8152POPC   D2A34660  13.596  24.517   8.255
 8152POPC   C3A34661  13.657  24.480   7.955
 8152POPC   C4A34662  13.607  24.493   7.655
 8152POPC   C1B34663  13.381  24.353   8.555
 8152POPC   C2B34664  13.359  24.343   8.255
 8152POPC   C3B34665  13.379  24.368   7.955
 8152POPC   C4B34666  13.374  24.421   7.655
 8153POPC   NC334667   3.497   3.494   9.455
 8153POPC   PO434668   3.569   3.522   9.155
 8153POPC   GL134669   3.563   3.564   8.855
 8153POPC   GL234670   3.461   3.542   8.855
 8153POPC   C1A34671   3.494   3.575   8.555
 8153POPC   D2A34672   3.494   3.533   8.255
 8153POPC   C3A34673   3.539   3.574   7.955
 8153POPC   C4A34674   3.525   3.583   7.655
 8153POPC   C1B34675   3.338   3.397   8.555
 8153POPC   C2B34676   3.319   3.448   8.255
 8153POPC   C3B34677   3.334   3.486   7.955
 8153POPC   C4B34678   3.272   3.467   7.655
 8154POPC   NC334679  35.381  12.868   9.455
 8154POPC   PO434680  35.310  12.874   9.155
 8154POPC   GL134681  35.369  12.876   8.855
 8154POPC   GL234682  35.491  12.765   8.855
 8154POPC   C1A34683  35.306  12.832   8.555
 8154POPC   D2A34684  35.307  12.856   8.255
 8154POPC   C3A34685  35.311  12.825   7.955
 8154POPC   C4A34686  35.317  12.893   7.655
 8154POPC   C1B34687  35.525  12.691   8.555
 8154POPC   C2B34688  35.526  12.718   8.255
 8154POPC   C3B34689  35.494  12.727   7.955
 8154POPC   C4B34690  35.551  12.713   7.655
 8155POPC   NC334691  31.483   9.002   9.455
 8155POPC   PO434692  31.480   9.006   9.155
 8155POPC   GL134693  31.445   8.977   8.855
 8155POPC   GL234694  31.380   8.873   8.855
 8155POPC   C1A34695  31.516   8.974   8.555
 8155POPC   D2A34696  31.453   8.958   8.255
 8155POPC   C3A34697  31.487   9.000   7.955
 8155POPC   C4A34698  31.442   8.998   7.655
 8155POPC   C1B34699  31.295   8.856   8.555
 8155POPC   C2B34700  31.262   8.849   8.255
 8155POPC   C3B34701  31.256   8.856   7.955
 8155POPC   C4B34702  31.248   8.831   7.655
 8156POPC   NC334703  19.062  34.552   9.455
 8156POPC   PO434704  19.022  34.609   9.155
 8156POPC   GL134705  19.059  34.550   8.855
 8156POPC   GL234706  19.080  34.697   8.855
 8156POPC   C1A34707  19.034  34.608   8.555
 8156POPC   D2A34708  19.049  34.608   8.255
 8156POPC   C3A34709  19.106  34.569   7.955
 8156POPC   C4A34710  19.106  34.619   7.655
 8156POPC   C1B34711  19.127  34.796   8.555
 8156POPC   C2B34712  19.156  34.821   8.255
 8156POPC   C3B34713  19.130  34.854   7.955
 8156POPC   C4B34714  19.163  34.832   7.655
 8157POPC   NC334715  15.188  24.444   9.455
 8157POPC   PO434716  15.142  24.504   9.155
 8157POPC   GL134717  15.156  24.475   8.855
 8157POPC   GL234718  15.278  24.557   8.855
 8157POPC   C1A34719  15.156  24.468   8.555
 8157POPC   D2A34720  15.150  24.485   8.255
 8157POPC   C3A34721  15.211  24.448   7.955
 8157POPC   C4A34722  15.207  24.501   7.655
 8157POPC   C1B34723  15.438  24.573   8.555
 8157POPC   C2B34724  15.422  24.583   8.255
 8157POPC   C3B34725  15.457  24.540   7.955
 8157POPC   C4B34726  15.387  24.514   7.655
 8158POPC   NC334727  18.318  12.091   9.455
 8158POPC   PO434728  18.252  12.109   9.155
 8158POPC   GL134729  18.331  12.044   8.855
 8158POPC   GL234730  18.317  12.148   8.855
 8158POPC   C1A34731  18.323  12.066   8.555
 8158POPC   D2A34732  18.289  12.109   8.255
 8158POPC   C3A34733  18.247  12.031   7.955
 8158POPC   C4A34734  18.333  12.055   7.655
 8158POPC   C1B34735  18.378  12.337   8.555
 8158POPC   C2B34736  18.321  12.298   8.255
 8158POPC   C3B34737  18.367  12.321   7.955
 8158POPC   C4B34738  18.367  12.350   7.655
 8159POPC   NC334739  12.890  10.552   9.455
 8159POPC   PO434740  12.826  10.558   9.155
 8159POPC   GL134741  12.850  10.556   8.855
 8159POPC   GL234742  12.807  10.610   8.855
 8159POPC   C1A34743  12.863  10.524   8.555
 8159POPC   D2A34744  12.819  10.479   8.255
 8159POPC   C3A34745  12.835  10.491   7.955
 8159POPC   C4A34746  12.881  10.488   7.655
 8159POPC   C1B34747  12.870  10.725   8.555
 8159POPC   C2B34748  12.875  10.761   8.255
 8159POPC   C3B34749  12.834  10.808   7.955
 8159POPC   C4B34750  12.866  10.787   7.655
 8160POPC   NC334751  13.583  13.600   9.455
 8160POPC   PO434752  13.667  13.593   9.155
 8160POPC   GL134753  13.603  13.663   8.855
 8160POPC   GL234754  13.769  13.659   8.855
 8160POPC   C1A34755  13.651  13.600   8.555
 8160POPC   D2A34756  13.592  13.619   8.255
 8160POPC   C3A34757  13.647  13.629   7.955
 8160POPC   C4A34758  13.672  13.665   7.655
 8160POPC   C1B34759  13.877  13.658   8.555
 8160POPC   C2B34760  13.859  13.614   8.255
 8160POPC   C3B34761  13.908  13.618   7.955
 8160POPC   C4B34762  13.909  13.702   7.655
 8161POPC   NC334763  33.798  15.939   9.455
 8161POPC   PO434764  33.794  15.992   9.155
 8161POPC   GL134765  33.772  15.919   8.855
 8161POPC   GL234766  33.900  16.000   8.855
 8161POPC   C1A34767  33.827  15.930   8.555
 8161POPC   D2A34768  33.771  15.996   8.255
 8161POPC   C3A34769  33.798  15.937   7.955
 8161POPC   C4A34770  33.772  15.908   7.655
 8161POPC   C1B34771  34.042  16.069   8.555
 8161POPC   C2B34772  34.066  16.084   8.255
 8161POPC   C3B34773  34.038  16.030   7.955
 8161POPC   C4B34774  34.015  16.075   7.655
 8162POPC   NC334775   3.555  34.611   9.455
 8162POPC   PO434776   3.559  34.622   9.155
 8162POPC   GL134777   3.498  34.578   8.855
 8162POPC   GL234778   3.543  34.706   8.855
 8162POPC   C1A34779   3.569  34.534   8.555
 8162POPC   D2A34780   3.585  34.579   8.255
 8162POPC   C3A34781   3.567  34.548   7.955
 8162POPC   C4A34782   3.567  34.587   7.655
 8162POPC   C1B34783   3.644  34.821   8.555
 8162POPC   C2B34784   3.623  34.851   8.255
 8162POPC   C3B34785   3.589  34.793   7.955
 8162POPC   C4B34786   3.654  34.832   7.655
 8163POPC   NC334787  18.293  23.731   9.455
 8163POPC   PO434788  18.290  23.714   9.155
 8163POPC   GL134789  18.322  23.670   8.855
 8163POPC   GL234790  18.190  23.631   8.855
 8163POPC   C1A34791  18.332  23.674   8.555
 8163POPC   D2A34792  18.322  23.705   8.255
 8163POPC   C3A34793  18.305  23.732   7.955
 8163POPC   C4A34794  18.305  23.665   7.655
 8163POPC   C1B34795  18.132  23.541   8.555
 8163POPC   C2B34796  18.068  23.503   8.255
 8163POPC   C3B34797  18.052  23.599   7.955
 8163POPC   C4B34798  18.103  23.555   7.655
 8164POPC   NC334799  14.364   6.608   9.455
 8164POPC   PO434800  14.400   6.666   9.155
 8164POPC   GL134801  14.434   6.643   8.855
 8164POPC   GL234802  14.520   6.775   8.855
 8164POPC   C1A34803  14.438   6.636   8.555
 8164POPC   D2A34804  14.381   6.627   8.255
 8164POPC   C3A34805  14.439   6.627   7.955
 8164POPC   C4A34806  14.361   6.622   7.655
 8164POPC   C1B34807  14.564   6.831   8.555
 8164POPC   C2B34808  14.621   6.835   8.255
 8164POPC   C3B34809  14.563   6.787   7.955
 8164POPC   C4B34810  14.554   6.853   7.655
 8165POPC   NC334811  26.008  15.933   9.455
 8165POPC   PO434812  26.027  15.927   9.155
 8165POPC   GL134813  26.084  15.954   8.855
 8165POPC   GL234814  25.907  15.909   8.855
 8165POPC   C1A34815  26.017  15.945   8.555
 8165POPC   D2A34816  26.022  15.966   8.255
 8165POPC   C3A34817  26.033  15.958   7.955
 8165POPC   C4A34818  26.018  15.982   7.655
 8165POPC   C1B34819  25.815  15.893   8.555
 8165POPC   C2B34820  25.789  15.875   8.255
 8165POPC   C3B34821  25.782  15.889   7.955
 8165POPC   C4B34822  25.768  15.809   7.655
 8166POPC   NC334823  31.459  34.598   9.455
 8166POPC   PO434824  31.456  34.575   9.155
 8166POPC   GL134825  31.503  34.578   8.855
 8166POPC   GL234826  31.382  34.553   8.855
 8166POPC   C1A34827  31.475  34.625   8.555
 8166POPC   D2A34828  31.484  34.530   8.255
 8166POPC   C3A34829  31.452  34.597   7.955
 8166POPC   C4A34830  31.440  34.625   7.655
 8166POPC   C1B34831  31.204  34.589   8.555
 8166POPC   C2B34832  31.253  34.538   8.255
 8166POPC   C3B34833  31.208  34.537   7.955
 8166POPC   C4B34834  31.205  34.624   7.655
 8167POPC   NC334835  15.189  29.185   9.455
 8167POPC   PO434836  15.195  29.144   9.155
 8167POPC   GL134837  15.188  29.168   8.855
 8167POPC   GL234838  15.302  29.165   8.855
 8167POPC   C1A34839  15.225  29.173   8.555
 8167POPC   D2A34840  15.187  29.104   8.255
 8167POPC   C3A34841  15.216  29.096   7.955
 8167POPC   C4A34842  15.179  29.102   7.655
 8167POPC   C1B34843  15.360  29.269   8.555
 8167POPC   C2B34844  15.388  29.253   8.255
 8167POPC   C3B34845  15.401  29.313   7.955
 8167POPC   C4B34846  15.428  29.285   7.655
 8168POPC   NC334847   9.711   8.164   9.455
 8168POPC   PO434848   9.712   8.237   9.155
 8168POPC   GL134849   9.778   8.156   8.855
 8168POPC   GL234850   9.761   8.122   8.855
 8168POPC   C1A34851   9.753   8.199   8.555
 8168POPC   D2A34852   9.784   8.228   8.255
 8168POPC   C3A34853   9.745   8.196   7.955
 8168POPC   C4A34854   9.759   8.148   7.655
 8168POPC   C1B34855   9.859   7.978   8.555
 8168POPC   C2B34856   9.864   7.986   8.255
 8168POPC   C3B34857   9.882   8.011   7.955
 8168POPC   C4B34858   9.835   7.948   7.655
 8169POPC   NC334859  40.808  20.610   9.455
 8169POPC   PO434860  40.823  20.585   9.155
 8169POPC   GL134861  40.800  20.591   8.855
 8169POPC   GL234862  40.754  20.716   8.855
 8169POPC   C1A34863  40.816  20.587   8.555
 8169POPC   D2A34864  40.757  20.600   8.255
 8169POPC   C3A34865  40.767  20.577   7.955
 8169POPC   C4A34866  40.802  20.621   7.655
 8169POPC   C1B34867  40.685  20.823   8.555
 8169POPC   C2B34868  40.697  20.836   8.255
 8169POPC   C3B34869  40.690  20.830   7.955
 8169POPC   C4B34870  40.662  20.840   7.655
 8170POPC   NC334871  15.222   5.820   9.455
 8170POPC   PO434872  15.220   5.819   9.155
 8170POPC   GL134873  15.207   5.834   8.855
 8170POPC   GL234874  15.203   5.753   8.855
 8170POPC   C1A34875  15.202   5.879   8.555
 8170POPC   D2A34876  15.195   5.910   8.255
 8170POPC   C3A34877  15.215   5.847   7.955
 8170POPC   C4A34878  15.132   5.820   7.655
 8170POPC   C1B34879  15.318   5.641   8.555
 8170POPC   C2B34880  15.303   5.622   8.255
 8170POPC   C3B34881  15.274   5.686   7.955
 8170POPC   C4B34882  15.263   5.645   7.655
 8171POPC   NC334883  37.642  34.588   9.455
 8171POPC   PO434884  37.638  34.541   9.155
 8171POPC   GL134885  37.694  34.570   8.855
 8171POPC   GL234886  37.840  34.601   8.855
 8171POPC   C1A34887  37.668  34.580   8.555
 8171POPC   D2A34888  37.650  34.584   8.255
 8171POPC   C3A34889  37.664  34.593   7.955
 8171POPC   C4A34890  37.695  34.573   7.655
 8171POPC   C1B34891  37.948  34.561   8.555
 8171POPC   C2B34892  37.957  34.560   8.255
 8171POPC   C3B34893  37.930  34.554   7.955
 8171POPC   C4B34894  37.960  34.578   7.655
 8172POPC   NC334895  12.853  40.775   9.455
 8172POPC   PO434896  12.802  40.824   9.155
 8172POPC   GL134897  12.899  40.823   8.855
 8172POPC   GL234898  12.938  40.893   8.855
 8172POPC   C1A34899  12.808  40.761   8.555
 8172POPC   D2A34900  12.804  40.830   8.255
 8172POPC   C3A34901  12.845  40.768   7.955
 8172POPC   C4A34902  12.899  40.753   7.655
 8172POPC   C1B34903  13.043  40.932   8.555
 8172POPC   C2B34904  13.067  40.999   8.255
 8172POPC   C3B34905  12.969  40.947   7.955
 8172POPC   C4B34906  13.035  40.952   7.655
 8173POPC   NC334907  11.285  30.652   9.455
 8173POPC   PO434908  11.348  30.727   9.155
 8173POPC   GL134909  11.251  30.666   8.855
 8173POPC   GL234910  11.158  30.745   8.855
 8173POPC   C1A34911  11.345  30.667   8.555
 8173POPC   D2A34912  11.255  30.667   8.255
 8173POPC   C3A34913  11.344  30.744   7.955
 8173POPC   C4A34914  11.279  30.724   7.655
 8173POPC   C1B34915  11.025  30.739   8.555
 8173POPC   C2B34916  11.050  30.775   8.255
 8173POPC   C3B34917  11.055  30.783   7.955
 8173POPC   C4B34918  11.078  30.749   7.655
 8174POPC   NC334919  34.546  18.271   9.455
 8174POPC   PO434920  34.532  18.327   9.155
 8174POPC   GL134921  34.539  18.275   8.855
 8174POPC   GL234922  34.571  18.209   8.855
 8174POPC   C1A34923  34.595  18.309   8.555
 8174POPC   D2A34924  34.538  18.256   8.255
 8174POPC   C3A34925  34.589  18.318   7.955
 8174POPC   C4A34926  34.599  18.278   7.655
 8174POPC   C1B34927  34.472  18.002   8.555
 8174POPC   C2B34928  34.492  18.006   8.255
 8174POPC   C3B34929  34.472  18.085   7.955
 8174POPC   C4B34930  34.531  17.996   7.655
 8175POPC   NC334931   8.998  13.654   9.455
 8175POPC   PO434932   8.957  13.591   9.155
 8175POPC   GL134933   8.995  13.609   8.855
 8175POPC   GL234934   9.068  13.709   8.855
 8175POPC   C1A34935   9.005  13.578   8.555
 8175POPC   D2A34936   9.020  13.623   8.255
 8175POPC   C3A34937   8.960  13.645   7.955
 8175POPC   C4A34938   8.993  13.593   7.655
 8175POPC   C1B34939   9.184  13.758   8.555
 8175POPC   C2B34940   9.198  13.766   8.255
 8175POPC   C3B34941   9.203  13.711   7.955
 8175POPC   C4B34942   9.177  13.773   7.655
 8176POPC   NC334943  41.561  30.652   9.455
 8176POPC   PO434944  41.573  30.729   9.155
 8176POPC   GL134945  41.559  30.727   8.855
 8176POPC   GL234946  41.718  30.782   8.855
 8176POPC   C1A34947  41.588  30.705   8.555
 8176POPC   D2A34948  41.608  30.660   8.255
 8176POPC   C3A34949  41.529  30.725   7.955
 8176POPC   C4A34950  41.561  30.706   7.655
 8176POPC   C1B34951  41.774  30.786   8.555
 8176POPC   C2B34952  41.823  30.742   8.255
 8176POPC   C3B34953  41.838  30.799   7.955
 8176POPC   C4B34954  41.764  30.735   7.655
 8177POPC   NC334955  17.552  22.898   9.455
 8177POPC   PO434956  17.531  22.960   9.155
 8177POPC   GL134957  17.515  22.901   8.855
 8177POPC   GL234958  17.606  23.000   8.855
 8177POPC   C1A34959  17.523  22.979   8.555
 8177POPC   D2A34960  17.505  22.920   8.255
 8177POPC   C3A34961  17.475  22.942   7.955
 8177POPC   C4A34962  17.545  22.917   7.655
 8177POPC   C1B34963  17.772  23.005   8.555
 8177POPC   C2B34964  17.732  23.059   8.255
 8177POPC   C3B34965  17.737  23.029   7.955
 8177POPC   C4B34966  17.713  23.031   7.655
 8178POPC   NC334967  26.800  19.866   9.455
 8178POPC   PO434968  26.824  19.812   9.155
 8178POPC   GL134969  26.843  19.822   8.855
 8178POPC   GL234970  26.727  19.973   8.855
 8178POPC   C1A34971  26.788  19.826   8.555
 8178POPC   D2A34972  26.809  19.822   8.255
 8178POPC   C3A34973  26.818  19.877   7.955
 8178POPC   C4A34974  26.790  19.792   7.655
 8178POPC   C1B34975  26.630  20.033   8.555
 8178POPC   C2B34976  26.608  20.042   8.255
 8178POPC   C3B34977  26.668  20.040   7.955
 8178POPC   C4B34978  26.691  20.016   7.655
 8179POPC   NC334979   3.494  36.910   9.455
 8179POPC   PO434980   3.507  36.886   9.155
 8179POPC   GL134981   3.515  36.900   8.855
 8179POPC   GL234982   3.415  37.014   8.855
 8179POPC   C1A34983   3.579  36.942   8.555
 8179POPC   D2A34984   3.579  36.891   8.255
 8179POPC   C3A34985   3.529  36.888   7.955
 8179POPC   C4A34986   3.502  36.878   7.655
 8179POPC   C1B34987   3.317  37.041   8.555
 8179POPC   C2B34988   3.358  37.042   8.255
 8179POPC   C3B34989   3.367  37.048   7.955
 8179POPC   C4B34990   3.321  37.057   7.655
 8180POPC   NC334991  14.423  33.835   9.455
 8180POPC   PO434992  14.380  33.777   9.155
 8180POPC   GL134993  14.394  33.846   8.855
 8180POPC   GL234994  14.368  33.639   8.855
 8180POPC   C1A34995  14.398  33.763   8.555
 8180POPC   D2A34996  14.383  33.789   8.255
 8180POPC   C3A34997  14.418  33.755   7.955
 8180POPC   C4A34998  14.367  33.829   7.655
 8180POPC   C1B34999  14.449  33.548   8.555
 8180POPC   C2B35000  14.385  33.521   8.255
 8180POPC   C3B35001  14.447  33.580   7.955
 8180POPC   C4B35002  14.368  33.589   7.655
 8181POPC   NC335003  12.883  34.533   9.455
 8181POPC   PO435004  12.871  34.625   9.155
 8181POPC   GL135005  12.815  34.560   8.855
 8181POPC   GL235006  12.988  34.574   8.855
 8181POPC   C1A35007  12.860  34.621   8.555
 8181POPC   D2A35008  12.889  34.542   8.255
 8181POPC   C3A35009  12.857  34.595   7.955
 8181POPC   C4A35010  12.877  34.599   7.655
 8181POPC   C1B35011  13.127  34.535   8.555
 8181POPC   C2B35012  13.099  34.547   8.255
 8181POPC   C3B35013  13.122  34.536   7.955
 8181POPC   C4B35014  13.146  34.550   7.655
 8182POPC   NC335015  44.680  44.685   9.455
 8182POPC   PO435016  44.623  44.678   9.155
 8182POPC   GL135017  44.625  44.697   8.855
 8182POPC   GL235018  44.592  44.589   8.855
 8182POPC   C1A35019  44.701  44.640   8.555
 8182POPC   D2A35020  44.614  44.633   8.255
 8182POPC   C3A35021  44.689  44.711   7.955
 8182POPC   C4A35022  44.650  44.645   7.655
 8182POPC   C1B35023  44.445  44.475   8.555
 8182POPC   C2B35024  44.516  44.517   8.255
 8182POPC   C3B35025  44.501  44.492   7.955
 8182POPC   C4B35026  44.503  44.483   7.655
 8183POPC   NC335027  22.942  33.033   9.455
 8183POPC   PO435028  22.919  32.978   9.155
 8183POPC   GL135029  22.984  33.031   8.855
 8183POPC   GL235030  22.926  32.944   8.855
 8183POPC   C1A35031  22.943  33.053   8.555
 8183POPC   D2A35032  22.958  33.061   8.255
 8183POPC   C3A35033  22.976  32.995   7.955
 8183POPC   C4A35034  22.954  33.073   7.655
 8183POPC   C1B35035  22.955  32.796   8.555
 8183POPC   C2B35036  23.037  32.753   8.255
 8183POPC   C3B35037  22.944  32.764   7.955
 8183POPC   C4B35038  23.014  32.745   7.655
 8184POPC   NC335039  36.918   7.465   9.455
 8184POPC   PO435040  36.907   7.404   9.155
 8184POPC   GL135041  36.915   7.442   8.855
 8184POPC   GL235042  36.762   7.467   8.855
 8184POPC   C1A35043  36.906   7.443   8.555
 8184POPC   D2A35044  36.950   7.405   8.255
 8184POPC   C3A35045  36.936   7.437   7.955
 8184POPC   C4A35046  36.943   7.439   7.655
 8184POPC   C1B35047  36.702   7.532   8.555
 8184POPC   C2B35048  36.709   7.541   8.255
 8184POPC   C3B35049  36.662   7.511   7.955
 8184POPC   C4B35050  36.713   7.566   7.655
 8185POPC   NC335051   3.527   5.052   9.455
 8185POPC   PO435052   3.545   5.075   9.155
 8185POPC   GL135053   3.508   5.125   8.855
 8185POPC   GL235054   3.621   5.156   8.855
 8185POPC   C1A35055   3.497   5.125   8.555
 8185POPC   D2A35056   3.567   5.129   8.255
 8185POPC   C3A35057   3.532   5.049   7.955
 8185POPC   C4A35058   3.564   5.052   7.655
 8185POPC   C1B35059   3.698   5.234   8.555
 8185POPC   C2B35060   3.754   5.261   8.255
 8185POPC   C3B35061   3.706   5.295   7.955
 8185POPC   C4B35062   3.726   5.312   7.655
 8186POPC   NC335063  40.037  30.676   9.455
 8186POPC   PO435064  40.001  30.701   9.155
 8186POPC   GL135065  40.007  30.674   8.855
 8186POPC   GL235066  39.871  30.646   8.855
 8186POPC   C1A35067  39.957  30.721   8.555
 8186POPC   D2A35068  40.053  30.723   8.255
 8186POPC   C3A35069  40.054  30.692   7.955
 8186POPC   C4A35070  39.976  30.709   7.655
 8186POPC   C1B35071  39.823  30.559   8.555
 8186POPC   C2B35072  39.770  30.533   8.255
 8186POPC   C3B35073  39.785  30.556   7.955
 8186POPC   C4B35074  39.788  30.607   7.655
 8187POPC   NC335075   0.468   8.239   9.455
 8187POPC   PO435076   0.488   8.161   9.155
 8187POPC   GL135077   0.433   8.152   8.855
 8187POPC   GL235078   0.457   8.034   8.855
 8187POPC   C1A35079   0.415   8.192   8.555
 8187POPC   D2A35080   0.487   8.231   8.255
 8187POPC   C3A35081   0.429   8.192   7.955
 8187POPC   C4A35082   0.431   8.192   7.655
 8187POPC   C1B35083   0.557   7.945   8.555
 8187POPC   C2B35084   0.516   7.940   8.255
 8187POPC   C3B35085   0.573   7.974   7.955
 8187POPC   C4B35086   0.570   8.003   7.655
 8188POPC   NC335087  16.765  22.924   9.455
 8188POPC   PO435088  16.728  22.945   9.155
 8188POPC   GL135089  16.745  22.977   8.855
 8188POPC   GL235090  16.601  22.929   8.855
 8188POPC   C1A35091  16.769  22.893   8.555
 8188POPC   D2A35092  16.725  22.943   8.255
 8188POPC   C3A35093  16.687  22.980   7.955
 8188POPC   C4A35094  16.718  22.890   7.655
 8188POPC   C1B35095  16.463  22.963   8.555
 8188POPC   C2B35096  16.524  22.904   8.255
 8188POPC   C3B35097  16.501  22.916   7.955
 8188POPC   C4B35098  16.472  22.891   7.655
 8189POPC   NC335099  21.412  34.565   9.455
 8189POPC   PO435100  21.436  34.601   9.155
 8189POPC   GL135101  21.376  34.599   8.855
 8189POPC   GL235102  21.217  34.577   8.855
 8189POPC   C1A35103  21.415  34.615   8.555
 8189POPC   D2A35104  21.351  34.591   8.255
 8189POPC   C3A35105  21.431  34.542   7.955
 8189POPC   C4A35106  21.343  34.529   7.655
 8189POPC   C1B35107  21.150  34.623   8.555
 8189POPC   C2B35108  21.177  34.631   8.255
 8189POPC   C3B35109  21.171  34.632   7.955
 8189POPC   C4B35110  21.104  34.597   7.655
 8190POPC   NC335111  19.807  35.351   9.455
 8190POPC   PO435112  19.823  35.394   9.155
 8190POPC   GL135113  19.789  35.395   8.855
 8190POPC   GL235114  19.972  35.420   8.855
 8190POPC   C1A35115  19.842  35.355   8.555
 8190POPC   D2A35116  19.818  35.393   8.255
 8190POPC   C3A35117  19.856  35.352   7.955
 8190POPC   C4A35118  19.877  35.396   7.655
 8190POPC   C1B35119  20.085  35.422   8.555
 8190POPC   C2B35120  20.115  35.371   8.255
 8190POPC   C3B35121  20.100  35.387   7.955
 8190POPC   C4B35122  20.089  35.430   7.655
 8191POPC   NC335123   1.226  25.232   9.455
 8191POPC   PO435124   1.246  25.286   9.155
 8191POPC   GL135125   1.211  25.239   8.855
 8191POPC   GL235126   1.382  25.313   8.855
 8191POPC   C1A35127   1.260  25.222   8.555
 8191POPC   D2A35128   1.259  25.245   8.255
 8191POPC   C3A35129   1.254  25.311   7.955
 8191POPC   C4A35130   1.231  25.253   7.655
 8191POPC   C1B35131   1.483  25.347   8.555
 8191POPC   C2B35132   1.455  25.300   8.255
 8191POPC   C3B35133   1.431  25.300   7.955
 8191POPC   C4B35134   1.443  25.294   7.655
 8192POPC   NC335135  32.296   5.091   9.455
 8192POPC   PO435136  32.263   5.085   9.155
 8192POPC   GL135137  32.240   5.048   8.855
 8192POPC   GL235138  32.272   5.171   8.855
 8192POPC   C1A35139  32.203   5.102   8.555
 8192POPC   D2A35140  32.255   5.112   8.255
 8192POPC   C3A35141  32.224   5.112   7.955
 8192POPC   C4A35142  32.220   5.108   7.655
 8192POPC   C1B35143  32.255   5.376   8.555
 8192POPC   C2B35144  32.241   5.387   8.255
 8192POPC   C3B35145  32.237   5.378   7.955
 8192POPC   C4B35146  32.176   5.340   7.655
 8193POPC   NC335147  34.569  34.600   9.455
 8193POPC   PO435148  34.589  34.538   9.155
 8193POPC   GL135149  34.582  34.554   8.855
 8193POPC   GL235150  34.693  34.481   8.855
 8193POPC   C1A35151  34.547  34.536   8.555
 8193POPC   D2A35152  34.534  34.570   8.255
 8193POPC   C3A35153  34.584  34.530   7.955
 8193POPC   C4A35154  34.540  34.547   7.655
 8193POPC   C1B35155  34.830  34.478   8.555
 8193POPC   C2B35156  34.829  34.445   8.255
 8193POPC   C3B35157  34.831  34.413   7.955
 8193POPC   C4B35158  34.838  34.464   7.655
 8194POPC   NC335159  30.709  36.172   9.455
 8194POPC   PO435160  30.725  36.121   9.155
 8194POPC   GL135161  30.702  36.134   8.855
 8194POPC   GL235162  30.860  36.137   8.855
 8194POPC   C1A35163  30.666  36.160   8.555
 8194POPC   D2A35164  30.677  36.086   8.255
 8194POPC   C3A35165  30.730  36.090   7.955
 8194POPC   C4A35166  30.722  36.160   7.655
 8194POPC   C1B35167  30.975  36.105   8.555
 8194POPC   C2B35168  30.984  36.035   8.255
 8194POPC   C3B35169  30.968  36.069   7.955
 8194POPC   C4B35170  30.966  36.040   7.655
 8195POPC   NC335171  13.646  32.291   9.455
 8195POPC   PO435172  13.655  32.264   9.155
 8195POPC   GL135173  13.631  32.228   8.855
 8195POPC   GL235174  13.670  32.110   8.855
 8195POPC   C1A35175  13.647  32.258   8.555
 8195POPC   D2A35176  13.656  32.246   8.255
 8195POPC   C3A35177  13.616  32.224   7.955
 8195POPC   C4A35178  13.618  32.291   7.655
 8195POPC   C1B35179  13.732  31.992   8.555
 8195POPC   C2B35180  13.797  32.022   8.255
 8195POPC   C3B35181  13.731  32.026   7.955
 8195POPC   C4B35182  13.793  32.039   7.655
 8196POPC   NC335183   5.846   1.990   9.455
 8196POPC   PO435184   5.832   2.004   9.155
 8196POPC   GL135185   5.883   2.025   8.855
 8196POPC   GL235186   5.789   1.930   8.855
 8196POPC   C1A35187   5.907   2.000   8.555
 8196POPC   D2A35188   5.887   2.035   8.255
 8196POPC   C3A35189   5.822   1.975   7.955
 8196POPC   C4A35190   5.829   1.973   7.655
 8196POPC   C1B35191   5.644   1.763   8.555
 8196POPC   C2B35192   5.674   1.801   8.255
 8196POPC   C3B35193   5.693   1.851   7.955
 8196POPC   C4B35194   5.709   1.793   7.655
 8197POPC   NC335195  43.080  28.347   9.455
 8197POPC   PO435196  43.128  28.390   9.155
 8197POPC   GL135197  43.130  28.323   8.855
 8197POPC   GL235198  43.188  28.291   8.855
 8197POPC   C1A35199  43.092  28.395   8.555
 8197POPC   D2A35200  43.106  28.328   8.255
 8197POPC   C3A35201  43.125  28.332   7.955
 8197POPC   C4A35202  43.146  28.365   7.655
 8197POPC   C1B35203  43.283  28.238   8.555
 8197POPC   C2B35204  43.356  28.241   8.255
 8197POPC   C3B35205  43.330  28.272   7.955
 8197POPC   C4B35206  43.293  28.267   7.655
 8198POPC   NC335207  43.861  15.135   9.455
 8198POPC   PO435208  43.881  15.201   9.155
 8198POPC   GL135209  43.859  15.144   8.855
 8198POPC   GL235210  44.003  15.282   8.855
 8198POPC   C1A35211  43.888  15.167   8.555
 8198POPC   D2A35212  43.864  15.177   8.255
 8198POPC   C3A35213  43.879  15.203   7.955
 8198POPC   C4A35214  43.890  15.175   7.655
 8198POPC   C1B35215  44.044  15.332   8.555
 8198POPC   C2B35216  44.038  15.313   8.255
 8198POPC   C3B35217  44.073  15.326   7.955
 8198POPC   C4B35218  44.085  15.316   7.655
 8199POPC   NC335219  44.669  26.821   9.455
 8199POPC   PO435220  44.674  26.830   9.155
 8199POPC   GL135221  44.680  26.804   8.855
 8199POPC   GL235222  44.558  26.711   8.855
 8199POPC   C1A35223  44.634  26.863   8.555
 8199POPC   D2A35224  44.698  26.785   8.255
 8199POPC   C3A35225  44.695  26.811   7.955
 8199POPC   C4A35226  44.675  26.811   7.655
 8199POPC   C1B35227  44.495  26.655   8.555
 8199POPC   C2B35228  44.455  26.686   8.255
 8199POPC   C3B35229  44.434  26.682   7.955
 8199POPC   C4B35230  44.436  26.658   7.655
 8200POPC   NC335231   6.684  22.163   9.455
 8200POPC   PO435232   6.682  22.160   9.155
 8200POPC   GL135233   6.650  22.145   8.855
 8200POPC   GL235234   6.724  22.248   8.855
 8200POPC   C1A35235   6.601  22.179   8.555
 8200POPC   D2A35236   6.691  22.141   8.255
 8200POPC   C3A35237   6.657  22.139   7.955
 8200POPC   C4A35238   6.691  22.141   7.655
 8200POPC   C1B35239   6.880  22.296   8.555
 8200POPC   C2B35240   6.842  22.263   8.255
 8200POPC   C3B35241   6.876  22.269   7.955
 8200POPC   C4B35242   6.886  22.307   7.655
 8201POPC   NC335243   9.760  28.332   9.455
 8201POPC   PO435244   9.783  28.338   9.155
 8201POPC   GL135245   9.748  28.381   8.855
 8201POPC   GL235246   9.814  28.517   8.855
 8201POPC   C1A35247   9.704  28.380   8.555
 8201POPC   D2A35248   9.703  28.418   8.255
 8201POPC   C3A35249   9.748  28.353   7.955
 8201POPC   C4A35250   9.748  28.394   7.655
 8201POPC   C1B35251   9.896  28.545   8.555
 8201POPC   C2B35252   9.905  28.596   8.255
 8201POPC   C3B35253   9.880  28.528   7.955
 8201POPC   C4B35254   9.890  28.580   7.655
 8202POPC   NC335255  31.501   8.200   9.455
 8202POPC   PO435256  31.499   8.229   9.155
 8202POPC   GL135257  31.483   8.185   8.855
 8202POPC   GL235258  31.487   8.095   8.855
 8202POPC   C1A35259  31.509   8.176   8.555
 8202POPC   D2A35260  31.468   8.203   8.255
 8202POPC   C3A35261  31.453   8.164   7.955
 8202POPC   C4A35262  31.462   8.150   7.655
 8202POPC   C1B35263  31.540   7.967   8.555
 8202POPC   C2B35264  31.516   7.965   8.255
 8202POPC   C3B35265  31.601   8.001   7.955
 8202POPC   C4B35266  31.590   7.920   7.655
 8203POPC   NC335267  36.920  31.479   9.455
 8203POPC   PO435268  36.889  31.522   9.155
 8203POPC   GL135269  36.946  31.451   8.855
 8203POPC   GL235270  36.977  31.490   8.855
 8203POPC   C1A35271  36.923  31.454   8.555
 8203POPC   D2A35272  36.950  31.490   8.255
 8203POPC   C3A35273  36.860  31.506   7.955
 8203POPC   C4A35274  36.934  31.431   7.655
 8203POPC   C1B35275  37.180  31.535   8.555
 8203POPC   C2B35276  37.188  31.546   8.255
 8203POPC   C3B35277  37.166  31.555   7.955
 8203POPC   C4B35278  37.138  31.564   7.655
 8204POPC   NC335279  25.288   3.511   9.455
 8204POPC   PO435280  25.245   3.565   9.155
 8204POPC   GL135281  25.306   3.562   8.855
 8204POPC   GL235282  25.098   3.541   8.855
 8204POPC   C1A35283  25.282   3.501   8.555
 8204POPC   D2A35284  25.225   3.547   8.255
 8204POPC   C3A35285  25.277   3.505   7.955
 8204POPC   C4A35286  25.263   3.533   7.655
 8204POPC   C1B35287  24.987   3.510   8.555
 8204POPC   C2B35288  25.001   3.504   8.255
 8204POPC   C3B35289  25.034   3.513   7.955
 8204POPC   C4B35290  25.022   3.475   7.655
 8205POPC   NC335291   5.130  41.556   9.455
 8205POPC   PO435292   5.120  41.567   9.155
 8205POPC   GL135293   5.139  41.597   8.855
 8205POPC   GL235294   5.141  41.465   8.855
 8205POPC   C1A35295   5.108  41.534   8.555
 8205POPC   D2A35296   5.103  41.564   8.255
 8205POPC   C3A35297   5.091  41.571   7.955
 8205POPC   C4A35298   5.082  41.593   7.655
 8205POPC   C1B35299   5.120  41.305   8.555
 8205POPC   C2B35300   5.089  41.305   8.255
 8205POPC   C3B35301   5.160  41.271   7.955
 8205POPC   C4B35302   5.149  41.315   7.655
 8206POPC   NC335303  40.025  27.610   9.455
 8206POPC   PO435304  39.974  27.633   9.155
 8206POPC   GL135305  39.968  27.592   8.855
 8206POPC   GL235306  40.110  27.523   8.855
 8206POPC   C1A35307  39.971  27.604   8.555
 8206POPC   D2A35308  40.003  27.544   8.255
 8206POPC   C3A35309  40.040  27.585   7.955
 8206POPC   C4A35310  39.992  27.629   7.655
 8206POPC   C1B35311  40.270  27.551   8.555
 8206POPC   C2B35312  40.285  27.556   8.255
 8206POPC   C3B35313  40.245  27.543   7.955
 8206POPC   C4B35314  40.224  27.526   7.655
 8207POPC   NC335315   0.391  30.735   9.455
 8207POPC   PO435316   0.477  30.672   9.155
 8207POPC   GL135317   0.450  30.651   8.855
 8207POPC   GL235318   0.275  30.778   8.855
 8207POPC   C1A35319   0.453  30.735   8.555
 8207POPC   D2A35320   0.422  30.722   8.255
 8207POPC   C3A35321   0.482  30.658   7.955
 8207POPC   C4A35322   0.390  30.654   7.655
 8207POPC   C1B35323   0.201  30.804   8.555
 8207POPC   C2B35324   0.158  30.775   8.255
 8207POPC   C3B35325   0.229  30.823   7.955
 8207POPC   C4B35326   0.254  30.821   7.655
 8208POPC   NC335327  17.506  35.334   9.455
 8208POPC   PO435328  17.457  35.353   9.155
 8208POPC   GL135329  17.497  35.314   8.855
 8208POPC   GL235330  17.588  35.345   8.855
 8208POPC   C1A35331  17.494  35.327   8.555
 8208POPC   D2A35332  17.531  35.387   8.255
 8208POPC   C3A35333  17.548  35.353   7.955
 8208POPC   C4A35334  17.523  35.307   7.655
 8208POPC   C1B35335  17.767  35.408   8.555
 8208POPC   C2B35336  17.747  35.423   8.255
 8208POPC   C3B35337  17.759  35.382   7.955
 8208POPC   C4B35338  17.788  35.363   7.655
 8209POPC   NC335339   9.731   3.505   9.455
 8209POPC   PO435340   9.728   3.588   9.155
 8209POPC   GL135341   9.792   3.532   8.855
 8209POPC   GL235342   9.703   3.387   8.855
 8209POPC   C1A35343   9.787   3.560   8.555
 8209POPC   D2A35344   9.739   3.557   8.255
 8209POPC   C3A35345   9.736   3.536   7.955
 8209POPC   C4A35346   9.788   3.549   7.655
 8209POPC   C1B35347   9.683   3.298   8.555
 8209POPC   C2B35348   9.691   3.321   8.255
 8209POPC   C3B35349   9.726   3.271   7.955
 8209POPC   C4B35350   9.669   3.272   7.655
 8210POPC   NC335351  36.895  29.123   9.455
 8210POPC   PO435352  36.877  29.146   9.155
 8210POPC   GL135353  36.907  29.158   8.855
 8210POPC   GL235354  37.017  29.086   8.855
 8210POPC   C1A35355  36.884  29.162   8.555
 8210POPC   D2A35356  36.919  29.137   8.255
 8210POPC   C3A35357  36.939  29.108   7.955
 8210POPC   C4A35358  36.915  29.167   7.655
 8210POPC   C1B35359  37.196  29.056   8.555
 8210POPC   C2B35360  37.126  29.088   8.255
 8210POPC   C3B35361  37.170  29.142   7.955
 8210POPC   C4B35362  37.114  29.115   7.655
 8211POPC   NC335363  38.498   2.784   9.455
 8211POPC   PO435364  38.480   2.718   9.155
 8211POPC   GL135365  38.457   2.794   8.855
 8211POPC   GL235366  38.606   2.700   8.855
 8211POPC   C1A35367  38.452   2.738   8.555
 8211POPC   D2A35368  38.462   2.750   8.255
 8211POPC   C3A35369  38.446   2.807   7.955
 8211POPC   C4A35370  38.491   2.742   7.655
 8211POPC   C1B35371  38.662   2.672   8.555
 8211POPC   C2B35372  38.680   2.685   8.255
 8211POPC   C3B35373  38.726   2.642   7.955
 8211POPC   C4B35374  38.695   2.670   7.655
 8212POPC   NC335375  29.171  42.356   9.455
 8212POPC   PO435376  29.192  42.303   9.155
 8212POPC   GL135377  29.148  42.341   8.855
 8212POPC   GL235378  29.178  42.212   8.855
 8212POPC   C1A35379  29.191  42.336   8.555
 8212POPC   D2A35380  29.100  42.345   8.255
 8212POPC   C3A35381  29.182  42.319   7.955
 8212POPC   C4A35382  29.191  42.360   7.655
 8212POPC   C1B35383  29.155  42.063   8.555
 8212POPC   C2B35384  29.132  42.098   8.255
 8212POPC   C3B35385  29.198  42.044   7.955
 8212POPC   C4B35386  29.185  42.055   7.655
 8213POPC   NC335387   8.193  32.259   9.455
 8213POPC   PO435388   8.147  32.272   9.155
 8213POPC   GL135389   8.177  32.243   8.855
 8213POPC   GL235390   8.359  32.279   8.855
 8213POPC   C1A35391   8.147  32.227   8.555
 8213POPC   D2A35392   8.199  32.228   8.255
 8213POPC   C3A35393   8.160  32.293   7.955
 8213POPC   C4A35394   8.184  32.253   7.655
 8213POPC   C1B35395   8.462  32.283   8.555
 8213POPC   C2B35396   8.446  32.283   8.255
 8213POPC   C3B35397   8.445  32.288   7.955
 8213POPC   C4B35398   8.478  32.283   7.655
 8214POPC   NC335399  26.043   4.287   9.455
 8214POPC   PO435400  26.023   4.317   9.155
 8214POPC   GL135401  26.074   4.363   8.855
 8214POPC   GL235402  25.984   4.228   8.855
 8214POPC   C1A35403  26.025   4.361   8.555
 8214POPC   D2A35404  26.041   4.281   8.255
 8214POPC   C3A35405  26.013   4.333   7.955
 8214POPC   C4A35406  26.048   4.342   7.655
 8214POPC   C1B35407  25.912   4.075   8.555
 8214POPC   C2B35408  25.924   4.114   8.255
 8214POPC   C3B35409  25.866   4.069   7.955
 8214POPC   C4B35410  25.888   4.156   7.655
 8215POPC   NC335411  41.602  10.520   9.455
 8215POPC   PO435412  41.563  10.508   9.155
 8215POPC   GL135413  41.511  10.521   8.855
 8215POPC   GL235414  41.431  10.652   8.855
 8215POPC   C1A35415  41.532  10.513   8.555
 8215POPC   D2A35416  41.599  10.528   8.255
 8215POPC   C3A35417  41.557  10.520   7.955
 8215POPC   C4A35418  41.545  10.541   7.655
 8215POPC   C1B35419  41.403  10.688   8.555
 8215POPC   C2B35420  41.389  10.696   8.255
 8215POPC   C3B35421  41.405  10.651   7.955
 8215POPC   C4B35422  41.398  10.645   7.655
 8216POPC   NC335423   8.986  35.308   9.455
 8216POPC   PO435424   9.002  35.319   9.155
 8216POPC   GL135425   9.019  35.371   8.855
 8216POPC   GL235426   9.135  35.351   8.855
 8216POPC   C1A35427   8.980  35.367   8.555
 8216POPC   D2A35428   9.003  35.358   8.255
 8216POPC   C3A35429   9.001  35.388   7.955
 8216POPC   C4A35430   9.004  35.360   7.655
 8216POPC   C1B35431   9.173  35.414   8.555
 8216POPC   C2B35432   9.222  35.342   8.255
 8216POPC   C3B35433   9.233  35.347   7.955
 8216POPC   C4B35434   9.218  35.355   7.655
 8217POPC   NC335435   7.465  29.895   9.455
 8217POPC   PO435436   7.470  29.910   9.155
 8217POPC   GL135437   7.397  29.911   8.855
 8217POPC   GL235438   7.475  29.855   8.855
 8217POPC   C1A35439   7.377  29.890   8.555
 8217POPC   D2A35440   7.455  29.888   8.255
 8217POPC   C3A35441   7.444  29.891   7.955
 8217POPC   C4A35442   7.379  29.873   7.655
 8217POPC   C1B35443   7.610  29.785   8.555
 8217POPC   C2B35444   7.581  29.720   8.255
 8217POPC   C3B35445   7.575  29.755   7.955
 8217POPC   C4B35446   7.552  29.757   7.655
 8218POPC   NC335447  23.739  15.217   9.455
 8218POPC   PO435448  23.716  15.173   9.155
 8218POPC   GL135449  23.677  15.183   8.855
 8218POPC   GL235450  23.823  15.139   8.855
 8218POPC   C1A35451  23.687  15.156   8.555
 8218POPC   D2A35452  23.758  15.179   8.255
 8218POPC   C3A35453  23.688  15.155   7.955
 8218POPC   C4A35454  23.725  15.159   7.655
 8218POPC   C1B35455  23.929  15.100   8.555
 8218POPC   C2B35456  23.972  15.048   8.255
 8218POPC   C3B35457  23.925  15.063   7.955
 8218POPC   C4B35458  23.965  15.027   7.655
 8219POPC   NC335459  30.665  18.242   9.455
 8219POPC   PO435460  30.722  18.256   9.155
 8219POPC   GL135461  30.683  18.289   8.855
 8219POPC   GL235462  30.563  18.328   8.855
 8219POPC   C1A35463  30.739  18.269   8.555
 8219POPC   D2A35464  30.654  18.248   8.255
 8219POPC   C3A35465  30.656  18.306   7.955
 8219POPC   C4A35466  30.710  18.290   7.655
 8219POPC   C1B35467  30.460  18.471   8.555
 8219POPC   C2B35468  30.535  18.404   8.255
 8219POPC   C3B35469  30.513  18.466   7.955
 8219POPC   C4B35470  30.455  18.422   7.655
 8220POPC   NC335471   2.004  40.746   9.455
 8220POPC   PO435472   2.011  40.739   9.155
 8220POPC   GL135473   2.039  40.743   8.855
 8220POPC   GL235474   1.943  40.912   8.855
 8220POPC   C1A35475   2.020  40.816   8.555
 8220POPC   D2A35476   1.967  40.780   8.255
 8220POPC   C3A35477   1.999  40.754   7.955
 8220POPC   C4A35478   1.954  40.739   7.655
 8220POPC   C1B35479   1.972  41.040   8.555
 8220POPC   C2B35480   1.947  41.013   8.255
 8220POPC   C3B35481   1.921  41.063   7.955
 8220POPC   C4B35482   1.988  41.042   7.655
 8221POPC   NC335483  18.270  26.057   9.455
 8221POPC   PO435484  18.300  26.024   9.155
 8221POPC   GL135485  18.324  26.080   8.855
 8221POPC   GL235486  18.218  26.112   8.855
 8221POPC   C1A35487  18.332  25.999   8.555
 8221POPC   D2A35488  18.235  26.077   8.255
 8221POPC   C3A35489  18.292  26.052   7.955
 8221POPC   C4A35490  18.284  26.018   7.655
 8221POPC   C1B35491  18.101  26.195   8.555
 8221POPC   C2B35492  18.117  26.194   8.255
 8221POPC   C3B35493  18.159  26.290   7.955
 8221POPC   C4B35494  18.182  26.260   7.655
 8222POPC   NC335495  33.017  42.337   9.455
 8222POPC   PO435496  33.038  42.356   9.155
 8222POPC   GL135497  33.060  42.318   8.855
 8222POPC   GL235498  32.914  42.269   8.855
 8222POPC   C1A35499  33.039  42.344   8.555
 8222POPC   D2A35500  33.032  42.378   8.255
 8222POPC   C3A35501  33.018  42.291   7.955
 8222POPC   C4A35502  33.031  42.331   7.655
 8222POPC   C1B35503  32.825  42.165   8.555
 8222POPC   C2B35504  32.829  42.192   8.255
 8222POPC   C3B35505  32.890  42.184   7.955
 8222POPC   C4B35506  32.902  42.149   7.655
 8223POPC   NC335507  37.698   5.061   9.455
 8223POPC   PO435508  37.704   5.053   9.155
 8223POPC   GL135509  37.704   5.121   8.855
 8223POPC   GL235510  37.532   5.139   8.855
 8223POPC   C1A35511  37.638   5.062   8.555
 8223POPC   D2A35512  37.714   5.138   8.255
 8223POPC   C3A35513  37.674   5.129   7.955
 8223POPC   C4A35514  37.639   5.052   7.655
 8223POPC   C1B35515  37.517   5.228   8.555
 8223POPC   C2B35516  37.441   5.208   8.255
 8223POPC   C3B35517  37.479   5.290   7.955
 8223POPC   C4B35518  37.455   5.205   7.655
 8224POPC   NC335519  19.010  28.342   9.455
 8224POPC   PO435520  19.040  28.384   9.155
 8224POPC   GL135521  19.037  28.361   8.855
 8224POPC   GL235522  19.071  28.282   8.855
 8224POPC   C1A35523  19.033  28.324   8.555
 8224POPC   D2A35524  19.098  28.348   8.255
 8224POPC   C3A35525  19.106  28.339   7.955
 8224POPC   C4A35526  19.085  28.370   7.655
 8224POPC   C1B35527  19.006  28.111   8.555
 8224POPC   C2B35528  19.025  28.075   8.255
 8224POPC   C3B35529  19.044  28.141   7.955
 8224POPC   C4B35530  19.060  28.129   7.655
 8225POPC   NC335531  21.378   8.238   9.455
 8225POPC   PO435532  21.434   8.157   9.155
 8225POPC   GL135533  21.401   8.166   8.855
 8225POPC   GL235534  21.413   8.047   8.855
 8225POPC   C1A35535  21.398   8.177   8.555
 8225POPC   D2A35536  21.377   8.216   8.255
 8225POPC   C3A35537  21.372   8.196   7.955
 8225POPC   C4A35538  21.396   8.205   7.655
 8225POPC   C1B35539  21.463   7.910   8.555
 8225POPC   C2B35540  21.484   7.907   8.255
 8225POPC   C3B35541  21.407   8.000   7.955
 8225POPC   C4B35542  21.448   7.927   7.655
 8226POPC   NC335543  29.873  16.690   9.455
 8226POPC   PO435544  29.963  16.695   9.155
 8226POPC   GL135545  29.911  16.701   8.855
 8226POPC   GL235546  30.007  16.777   8.855
 8226POPC   C1A35547  29.880  16.730   8.555
 8226POPC   D2A35548  29.965  16.699   8.255
 8226POPC   C3A35549  29.913  16.738   7.955
 8226POPC   C4A35550  29.960  16.755   7.655
 8226POPC   C1B35551  30.104  16.899   8.555
 8226POPC   C2B35552  30.172  16.849   8.255
 8226POPC   C3B35553  30.111  16.853   7.955
 8226POPC   C4B35554  30.150  16.801   7.655
 8227POPC   NC335555   8.201   7.396   9.455
 8227POPC   PO435556   8.229   7.406   9.155
 8227POPC   GL135557   8.209   7.427   8.855
 8227POPC   GL235558   8.318   7.533   8.855
 8227POPC   C1A35559   8.223   7.459   8.555
 8227POPC   D2A35560   8.159   7.454   8.255
 8227POPC   C3A35561   8.151   7.408   7.955
 8227POPC   C4A35562   8.228   7.469   7.655
 8227POPC   C1B35563   8.358   7.600   8.555
 8227POPC   C2B35564   8.405   7.662   8.255
 8227POPC   C3B35565   8.394   7.579   7.955
 8227POPC   C4B35566   8.324   7.649   7.655
 8228POPC   NC335567  29.968   5.047   9.455
 8228POPC   PO435568  29.874   5.107   9.155
 8228POPC   GL135569  29.945   5.099   8.855
 8228POPC   GL235570  29.787   5.048   8.855
 8228POPC   C1A35571  29.924   5.111   8.555
 8228POPC   D2A35572  29.956   5.140   8.255
 8228POPC   C3A35573  29.871   5.068   7.955
 8228POPC   C4A35574  29.932   5.128   7.655
 8228POPC   C1B35575  29.727   4.998   8.555
 8228POPC   C2B35576  29.696   5.043   8.255
 8228POPC   C3B35577  29.715   4.993   7.955
 8228POPC   C4B35578  29.674   4.979   7.655
 8229POPC   NC335579  29.885  26.031   9.455
 8229POPC   PO435580  29.921  26.067   9.155
 8229POPC   GL135581  29.903  26.008   8.855
 8229POPC   GL235582  29.856  25.949   8.855
 8229POPC   C1A35583  29.899  26.025   8.555
 8229POPC   D2A35584  29.895  26.038   8.255
 8229POPC   C3A35585  29.877  26.022   7.955
 8229POPC   C4A35586  29.912  26.053   7.655
 8229POPC   C1B35587  29.841  25.785   8.555
 8229POPC   C2B35588  29.859  25.760   8.255
 8229POPC   C3B35589  29.845  25.797   7.955
 8229POPC   C4B35590  29.877  25.843   7.655
 8230POPC   NC335591  35.308   2.794   9.455
 8230POPC   PO435592  35.354   2.751   9.155
 8230POPC   GL135593  35.365   2.765   8.855
 8230POPC   GL235594  35.445   2.668   8.855
 8230POPC   C1A35595  35.368   2.740   8.555
 8230POPC   D2A35596  35.302   2.808   8.255
 8230POPC   C3A35597  35.371   2.812   7.955
 8230POPC   C4A35598  35.394   2.765   7.655
 8230POPC   C1B35599  35.507   2.627   8.555
 8230POPC   C2B35600  35.562   2.548   8.255
 8230POPC   C3B35601  35.494   2.622   7.955
 8230POPC   C4B35602  35.494   2.568   7.655
 8231POPC   NC335603  33.833  12.088   9.455
 8231POPC   PO435604  33.828  12.029   9.155
 8231POPC   GL135605  33.834  12.102   8.855
 8231POPC   GL235606  33.730  12.222   8.855
 8231POPC   C1A35607  33.807  12.084   8.555
 8231POPC   D2A35608  33.793  12.096   8.255
 8231POPC   C3A35609  33.776  12.106   7.955
 8231POPC   C4A35610  33.782  12.044   7.655
 8231POPC   C1B35611  33.762  12.278   8.555
 8231POPC   C2B35612  33.716  12.286   8.255
 8231POPC   C3B35613  33.725  12.345   7.955
 8231POPC   C4B35614  33.731  12.267   7.655
 8232POPC   NC335615  21.365  10.476   9.455
 8232POPC   PO435616  21.422  10.509   9.155
 8232POPC   GL135617  21.402  10.561   8.855
 8232POPC   GL235618  21.439  10.608   8.855
 8232POPC   C1A35619  21.352  10.489   8.555
 8232POPC   D2A35620  21.343  10.502   8.255
 8232POPC   C3A35621  21.423  10.510   7.955
 8232POPC   C4A35622  21.349  10.504   7.655
 8232POPC   C1B35623  21.461  10.777   8.555
 8232POPC   C2B35624  21.484  10.716   8.255
 8232POPC   C3B35625  21.487  10.721   7.955
 8232POPC   C4B35626  21.457  10.793   7.655
 8233POPC   NC335627  39.242   2.791   9.455
 8233POPC   PO435628  39.258   2.779   9.155
 8233POPC   GL135629  39.186   2.772   8.855
 8233POPC   GL235630  39.246   2.611   8.855
 8233POPC   C1A35631  39.201   2.748   8.555
 8233POPC   D2A35632  39.232   2.760   8.255
 8233POPC   C3A35633  39.205   2.743   7.955
 8233POPC   C4A35634  39.211   2.796   7.655
 8233POPC   C1B35635  39.265   2.521   8.555
 8233POPC   C2B35636  39.248   2.529   8.255
 8233POPC   C3B35637  39.184   2.476   7.955
 8233POPC   C4B35638  39.266   2.529   7.655
 8234POPC   NC335639   0.484  25.231   9.455
 8234POPC   PO435640   0.461  25.279   9.155
 8234POPC   GL135641   0.403  25.219   8.855
 8234POPC   GL235642   0.530  25.364   8.855
 8234POPC   C1A35643   0.431  25.288   8.555
 8234POPC   D2A35644   0.420  25.252   8.255
 8234POPC   C3A35645   0.424  25.246   7.955
 8234POPC   C4A35646   0.445  25.227   7.655
 8234POPC   C1B35647   0.523  25.464   8.555
 8234POPC   C2B35648   0.510  25.536   8.255
 8234POPC   C3B35649   0.575  25.474   7.955
 8234POPC   C4B35650   0.510  25.532   7.655
 8235POPC   NC335651  12.828  41.512   9.455
 8235POPC   PO435652  12.842  41.574   9.155
 8235POPC   GL135653  12.864  41.608   8.855
 8235POPC   GL235654  12.937  41.483   8.855
 8235POPC   C1A35655  12.806  41.524   8.555
 8235POPC   D2A35656  12.840  41.535   8.255
 8235POPC   C3A35657  12.874  41.511   7.955
 8235POPC   C4A35658  12.866  41.591   7.655
 8235POPC   C1B35659  13.033  41.371   8.555
 8235POPC   C2B35660  13.066  41.406   8.255
 8235POPC   C3B35661  13.032  41.411   7.955
 8235POPC   C4B35662  12.995  41.416   7.655
 8236POPC   NC335663   5.859  42.364   9.455
 8236POPC   PO435664   5.910  42.380   9.155
 8236POPC   GL135665   5.856  42.368   8.855
 8236POPC   GL235666   6.023  42.375   8.855
 8236POPC   C1A35667   5.823  42.299   8.555
 8236POPC   D2A35668   5.822  42.374   8.255
 8236POPC   C3A35669   5.837  42.382   7.955
 8236POPC   C4A35670   5.871  42.324   7.655
 8236POPC   C1B35671   6.104  42.410   8.555
 8236POPC   C2B35672   6.087  42.353   8.255
 8236POPC   C3B35673   6.143  42.367   7.955
 8236POPC   C4B35674   6.151  42.393   7.655
 8237POPC   NC335675   5.141  28.320   9.455
 8237POPC   PO435676   5.076  28.374   9.155
 8237POPC   GL135677   5.100  28.355   8.855
 8237POPC   GL235678   5.105  28.514   8.855
 8237POPC   C1A35679   5.059  28.339   8.555
 8237POPC   D2A35680   5.083  28.390   8.255
 8237POPC   C3A35681   5.130  28.348   7.955
 8237POPC   C4A35682   5.109  28.368   7.655
 8237POPC   C1B35683   5.080  28.576   8.555
 8237POPC   C2B35684   5.109  28.602   8.255
 8237POPC   C3B35685   5.102  28.568   7.955
 8237POPC   C4B35686   5.060  28.635   7.655
 8238POPC   NC335687  12.118  28.402   9.455
 8238POPC   PO435688  12.109  28.404   9.155
 8238POPC   GL135689  12.085  28.375   8.855
 8238POPC   GL235690  12.078  28.273   8.855
 8238POPC   C1A35691  12.124  28.372   8.555
 8238POPC   D2A35692  12.064  28.393   8.255
 8238POPC   C3A35693  12.075  28.394   7.955
 8238POPC   C4A35694  12.043  28.409   7.655
 8238POPC   C1B35695  12.035  28.128   8.555
 8238POPC   C2B35696  12.094  28.153   8.255
 8238POPC   C3B35697  12.027  28.084   7.955
 8238POPC   C4B35698  12.051  28.156   7.655
 8239POPC   NC335699   4.344  36.151   9.455
 8239POPC   PO435700   4.298  36.128   9.155
 8239POPC   GL135701   4.324  36.086   8.855
 8239POPC   GL235702   4.268  36.250   8.855
 8239POPC   C1A35703   4.359  36.176   8.555
 8239POPC   D2A35704   4.331  36.135   8.255
 8239POPC   C3A35705   4.351  36.098   7.955
 8239POPC   C4A35706   4.281  36.159   7.655
 8239POPC   C1B35707   4.201  36.305   8.555
 8239POPC   C2B35708   4.232  36.310   8.255
 8239POPC   C3B35709   4.213  36.368   7.955
 8239POPC   C4B35710   4.155  36.324   7.655
 8240POPC   NC335711  43.923   4.304   9.455
 8240POPC   PO435712  43.900   4.349   9.155
 8240POPC   GL135713  43.854   4.327   8.855
 8240POPC   GL235714  43.892   4.387   8.855
 8240POPC   C1A35715  43.886   4.326   8.555
 8240POPC   D2A35716  43.900   4.338   8.255
 8240POPC   C3A35717  43.860   4.315   7.955
 8240POPC   C4A35718  43.900   4.327   7.655
 8240POPC   C1B35719  44.013   4.590   8.555
 8240POPC   C2B35720  43.972   4.506   8.255
 8240POPC   C3B35721  44.023   4.554   7.955
 8240POPC   C4B35722  44.006   4.526   7.655
 8241POPC   NC335723  10.523  22.142   9.455
 8241POPC   PO435724  10.567  22.138   9.155
 8241POPC   GL135725  10.566  22.171   8.855
 8241POPC   GL235726  10.580  22.234   8.855
 8241POPC   C1A35727  10.477  22.210   8.555
 8241POPC   D2A35728  10.507  22.175   8.255
 8241POPC   C3A35729  10.550  22.122   7.955
 8241POPC   C4A35730  10.499  22.135   7.655
 8241POPC   C1B35731  10.660  22.378   8.555
 8241POPC   C2B35732  10.603  22.395   8.255
 8241POPC   C3B35733  10.604  22.410   7.955
 8241POPC   C4B35734  10.665  22.350   7.655
 8242POPC   NC335735  44.681  43.853   9.455
 8242POPC   PO435736  44.613  43.866   9.155
 8242POPC   GL135737  44.656  43.933   8.855
 8242POPC   GL235738  44.686  44.027   8.855
 8242POPC   C1A35739  44.645  43.904   8.555
 8242POPC   D2A35740  44.626  43.863   8.255
 8242POPC   C3A35741  44.649  43.921   7.955
 8242POPC   C4A35742  44.699  43.872   7.655
 8242POPC   C1B35743  44.761  44.125   8.555
 8242POPC   C2B35744  44.725  44.083   8.255
 8242POPC   C3B35745  44.743  44.147   7.955
 8242POPC   C4B35746  44.740  44.133   7.655
 8243POPC   NC335747  43.131  22.170   9.455
 8243POPC   PO435748  43.074  22.125   9.155
 8243POPC   GL135749  43.073  22.203   8.855
 8243POPC   GL235750  42.988  22.110   8.855
 8243POPC   C1A35751  43.141  22.174   8.555
 8243POPC   D2A35752  43.089  22.121   8.255
 8243POPC   C3A35753  43.090  22.176   7.955
 8243POPC   C4A35754  43.152  22.186   7.655
 8243POPC   C1B35755  42.899  22.078   8.555
 8243POPC   C2B35756  42.895  22.088   8.255
 8243POPC   C3B35757  42.863  22.135   7.955
 8243POPC   C4B35758  42.831  22.111   7.655
 8244POPC   NC335759  12.872   1.176   9.455
 8244POPC   PO435760  12.829   1.177   9.155
 8244POPC   GL135761  12.898   1.231   8.855
 8244POPC   GL235762  12.769   1.366   8.855
 8244POPC   C1A35763  12.861   1.257   8.555
 8244POPC   D2A35764  12.838   1.217   8.255
 8244POPC   C3A35765  12.811   1.187   7.955
 8244POPC   C4A35766  12.881   1.166   7.655
 8244POPC   C1B35767  12.788   1.460   8.555
 8244POPC   C2B35768  12.750   1.416   8.255
 8244POPC   C3B35769  12.761   1.479   7.955
 8244POPC   C4B35770  12.738   1.417   7.655
 8245POPC   NC335771  22.925   3.553   9.455
 8245POPC   PO435772  22.889   3.507   9.155
 8245POPC   GL135773  22.946   3.564   8.855
 8245POPC   GL235774  22.986   3.432   8.855
 8245POPC   C1A35775  22.943   3.504   8.555
 8245POPC   D2A35776  22.948   3.493   8.255
 8245POPC   C3A35777  22.987   3.539   7.955
 8245POPC   C4A35778  22.951   3.550   7.655
 8245POPC   C1B35779  22.974   3.306   8.555
 8245POPC   C2B35780  22.947   3.315   8.255
 8245POPC   C3B35781  22.950   3.261   7.955
 8245POPC   C4B35782  22.981   3.297   7.655
 8246POPC   NC335783  20.614  19.067   9.455
 8246POPC   PO435784  20.652  19.108   9.155
 8246POPC   GL135785  20.620  19.045   8.855
 8246POPC   GL235786  20.451  19.047   8.855
 8246POPC   C1A35787  20.643  19.070   8.555
 8246POPC   D2A35788  20.613  19.105   8.255
 8246POPC   C3A35789  20.627  19.061   7.955
 8246POPC   C4A35790  20.618  19.019   7.655
 8246POPC   C1B35791  20.388  19.109   8.555
 8246POPC   C2B35792  20.378  19.041   8.255
 8246POPC   C3B35793  20.333  19.109   7.955
 8246POPC   C4B35794  20.394  19.110   7.655
 8247POPC   NC335795  33.752  34.559   9.455
 8247POPC   PO435796  33.765  34.567   9.155
 8247POPC   GL135797  33.766  34.613   8.855
 8247POPC   GL235798  33.776  34.715   8.855
 8247POPC   C1A35799  33.815  34.606   8.555
 8247POPC   D2A35800  33.794  34.618   8.255
 8247POPC   C3A35801  33.787  34.603   7.955
 8247POPC   C4A35802  33.764  34.599   7.655
 8247POPC   C1B35803  33.751  34.849   8.555
 8247POPC   C2B35804  33.787  34.819   8.255
 8247POPC   C3B35805  33.715  34.861   7.955
 8247POPC   C4B35806  33.800  34.821   7.655
 8248POPC   NC335807  37.636  17.521   9.455
 8248POPC   PO435808  37.704  17.468   9.155
 8248POPC   GL135809  37.726  17.474   8.855
 8248POPC   GL235810  37.792  17.360   8.855
 8248POPC   C1A35811  37.706  17.544   8.555
 8248POPC   D2A35812  37.712  17.475   8.255
 8248POPC   C3A35813  37.633  17.544   7.955
 8248POPC   C4A35814  37.631  17.519   7.655
 8248POPC   C1B35815  37.826  17.329   8.555
 8248POPC   C2B35816  37.779  17.253   8.255
 8248POPC   C3B35817  37.856  17.310   7.955
 8248POPC   C4B35818  37.772  17.272   7.655
 8249POPC   NC335819  28.336   5.906   9.455
 8249POPC   PO435820  28.341   5.892   9.155
 8249POPC   GL135821  28.349   5.882   8.855
 8249POPC   GL235822  28.414   5.759   8.855
 8249POPC   C1A35823  28.395   5.895   8.555
 8249POPC   D2A35824  28.385   5.841   8.255
 8249POPC   C3A35825  28.351   5.884   7.955
 8249POPC   C4A35826  28.358   5.887   7.655
 8249POPC   C1B35827  28.465   5.609   8.555
 8249POPC   C2B35828  28.526   5.664   8.255
 8249POPC   C3B35829  28.512   5.614   7.955
 8249POPC   C4B35830  28.493   5.698   7.655
 8250POPC   NC335831  21.395  36.887   9.455
 8250POPC   PO435832  21.423  36.896   9.155
 8250POPC   GL135833  21.402  36.949   8.855
 8250POPC   GL235834  21.244  36.934   8.855
 8250POPC   C1A35835  21.411  36.859   8.555
 8250POPC   D2A35836  21.405  36.950   8.255
 8250POPC   C3A35837  21.379  36.874   7.955
 8250POPC   C4A35838  21.384  36.925   7.655
 8250POPC   C1B35839  21.093  36.907   8.555
 8250POPC   C2B35840  21.100  36.873   8.255
 8250POPC   C3B35841  21.133  36.890   7.955
 8250POPC   C4B35842  21.132  36.909   7.655
 8251POPC   NC335843  14.356  24.448   9.455
 8251POPC   PO435844  14.437  24.526   9.155
 8251POPC   GL135845  14.442  24.462   8.855
 8251POPC   GL235846  14.266  24.446   8.855
 8251POPC   C1A35847  14.409  24.535   8.555
 8251POPC   D2A35848  14.441  24.484   8.255
 8251POPC   C3A35849  14.389  24.501   7.955
 8251POPC   C4A35850  14.425  24.493   7.655
 8251POPC   C1B35851  14.177  24.314   8.555
 8251POPC   C2B35852  14.157  24.320   8.255
 8251POPC   C3B35853  14.228  24.354   7.955
 8251POPC   C4B35854  14.180  24.362   7.655
 8252POPC   NC335855  27.604  26.860   9.455
 8252POPC   PO435856  27.548  26.825   9.155
 8252POPC   GL135857  27.558  26.825   8.855
 8252POPC   GL235858  27.764  26.792   8.855
 8252POPC   C1A35859  27.638  26.851   8.555
 8252POPC   D2A35860  27.549  26.831   8.255
 8252POPC   C3A35861  27.577  26.800   7.955
 8252POPC   C4A35862  27.565  26.801   7.655
 8252POPC   C1B35863  27.794  26.853   8.555
 8252POPC   C2B35864  27.845  26.853   8.255
 8252POPC   C3B35865  27.818  26.819   7.955
 8252POPC   C4B35866  27.804  26.807   7.655
 8253POPC   NC335867  42.321  17.522   9.455
 8253POPC   PO435868  42.316  17.474   9.155
 8253POPC   GL135869  42.301  17.503   8.855
 8253POPC   GL235870  42.364  17.663   8.855
 8253POPC   C1A35871  42.335  17.529   8.555
 8253POPC   D2A35872  42.336  17.467   8.255
 8253POPC   C3A35873  42.314  17.511   7.955
 8253POPC   C4A35874  42.311  17.508   7.655
 8253POPC   C1B35875  42.384  17.745   8.555
 8253POPC   C2B35876  42.345  17.748   8.255
 8253POPC   C3B35877  42.371  17.774   7.955
 8253POPC   C4B35878  42.367  17.745   7.655
 8254POPC   NC335879  39.996   2.800   9.455
 8254POPC   PO435880  40.027   2.810   9.155
 8254POPC   GL135881  40.041   2.740   8.855
 8254POPC   GL235882  39.937   2.729   8.855
 8254POPC   C1A35883  40.036   2.814   8.555
 8254POPC   D2A35884  40.039   2.782   8.255
 8254POPC   C3A35885  40.019   2.757   7.955
 8254POPC   C4A35886  39.989   2.803   7.655
 8254POPC   C1B35887  39.805   2.646   8.555
 8254POPC   C2B35888  39.834   2.672   8.255
 8254POPC   C3B35889  39.784   2.660   7.955
 8254POPC   C4B35890  39.797   2.610   7.655
 8255POPC   NC335891   2.789  21.365   9.455
 8255POPC   PO435892   2.724  21.385   9.155
 8255POPC   GL135893   2.783  21.354   8.855
 8255POPC   GL235894   2.696  21.423   8.855
 8255POPC   C1A35895   2.797  21.375   8.555
 8255POPC   D2A35896   2.771  21.409   8.255
 8255POPC   C3A35897   2.807  21.428   7.955
 8255POPC   C4A35898   2.812  21.355   7.655
 8255POPC   C1B35899   2.524  21.480   8.555
 8255POPC   C2B35900   2.588  21.512   8.255
 8255POPC   C3B35901   2.533  21.548   7.955
 8255POPC   C4B35902   2.511  21.560   7.655
 8256POPC   NC335903  10.561  38.459   9.455
 8256POPC   PO435904  10.538  38.486   9.155
 8256POPC   GL135905  10.530  38.456   8.855
 8256POPC   GL235906  10.576  38.624   8.855
 8256POPC   C1A35907  10.520  38.490   8.555
 8256POPC   D2A35908  10.495  38.414   8.255
 8256POPC   C3A35909  10.535  38.411   7.955
 8256POPC   C4A35910  10.550  38.469   7.655
 8256POPC   C1B35911  10.577  38.747   8.555
 8256POPC   C2B35912  10.559  38.659   8.255
 8256POPC   C3B35913  10.531  38.697   7.955
 8256POPC   C4B35914  10.572  38.688   7.655
 8257POPC   NC335915  10.506   7.442   9.455
 8257POPC   PO435916  10.517   7.417   9.155
 8257POPC   GL135917  10.543   7.463   8.855
 8257POPC   GL235918  10.454   7.325   8.855
 8257POPC   C1A35919  10.500   7.465   8.555
 8257POPC   D2A35920  10.494   7.437   8.255
 8257POPC   C3A35921  10.530   7.467   7.955
 8257POPC   C4A35922  10.507   7.400   7.655
 8257POPC   C1B35923  10.368   7.254   8.555
 8257POPC   C2B35924  10.390   7.269   8.255
 8257POPC   C3B35925  10.309   7.243   7.955
 8257POPC   C4B35926  10.307   7.217   7.655
 8258POPC   NC335927  43.139  23.706   9.455
 8258POPC   PO435928  43.065  23.750   9.155
 8258POPC   GL135929  43.149  23.666   8.855
 8258POPC   GL235930  43.189  23.559   8.855
 8258POPC   C1A35931  43.085  23.687   8.555
 8258POPC   D2A35932  43.127  23.664   8.255
 8258POPC   C3A35933  43.118  23.759   7.955
 8258POPC   C4A35934  43.100  23.727   7.655
 8258POPC   C1B35935  43.264  23.484   8.555
 8258POPC   C2B35936  43.211  23.488   8.255
 8258POPC   C3B35937  43.243  23.472   7.955
 8258POPC   C4B35938  43.230  23.487   7.655
 8259POPC   NC335939  32.217  17.483   9.455
 8259POPC   PO435940  32.291  17.461   9.155
 8259POPC   GL135941  32.213  17.477   8.855
 8259POPC   GL235942  32.150  17.422   8.855
 8259POPC   C1A35943  32.245  17.550   8.555
 8259POPC   D2A35944  32.282  17.481   8.255
 8259POPC   C3A35945  32.213  17.499   7.955
 8259POPC   C4A35946  32.236  17.470   7.655
 8259POPC   C1B35947  32.097  17.258   8.555
 8259POPC   C2B35948  32.089  17.306   8.255
 8259POPC   C3B35949  32.089  17.247   7.955
 8259POPC   C4B35950  32.137  17.259   7.655
 8260POPC   NC335951  26.067  19.024   9.455
 8260POPC   PO435952  26.025  19.028   9.155
 8260POPC   GL135953  26.000  19.052   8.855
 8260POPC   GL235954  25.994  19.182   8.855
 8260POPC   C1A35955  26.040  19.024   8.555
 8260POPC   D2A35956  26.018  19.013   8.255
 8260POPC   C3A35957  26.043  19.053   7.955
 8260POPC   C4A35958  26.086  19.071   7.655
 8260POPC   C1B35959  25.873  19.255   8.555
 8260POPC   C2B35960  25.812  19.255   8.255
 8260POPC   C3B35961  25.886  19.181   7.955
 8260POPC   C4B35962  25.836  19.241   7.655
 8261POPC   NC335963   3.577  23.760   9.455
 8261POPC   PO435964   3.537  23.679   9.155
 8261POPC   GL135965   3.589  23.729   8.855
 8261POPC   GL235966   3.645  23.688   8.855
 8261POPC   C1A35967   3.557  23.750   8.555
 8261POPC   D2A35968   3.585  23.704   8.255
 8261POPC   C3A35969   3.514  23.680   7.955
 8261POPC   C4A35970   3.582  23.738   7.655
 8261POPC   C1B35971   3.795  23.702   8.555
 8261POPC   C2B35972   3.820  23.644   8.255
 8261POPC   C3B35973   3.817  23.657   7.955
 8261POPC   C4B35974   3.828  23.627   7.655
 8262POPC   NC335975  43.142  24.464   9.455
 8262POPC   PO435976  43.144  24.496   9.155
 8262POPC   GL135977  43.133  24.448   8.855
 8262POPC   GL235978  43.038  24.554   8.855
 8262POPC   C1A35979  43.152  24.515   8.555
 8262POPC   D2A35980  43.128  24.488   8.255
 8262POPC   C3A35981  43.088  24.509   7.955
 8262POPC   C4A35982  43.140  24.536   7.655
 8262POPC   C1B35983  42.992  24.633   8.555
 8262POPC   C2B35984  42.922  24.677   8.255
 8262POPC   C3B35985  42.904  24.677   7.955
 8262POPC   C4B35986  42.922  24.720   7.655
 8263POPC   NC335987  26.036   5.868   9.455
 8263POPC   PO435988  26.045   5.884   9.155
 8263POPC   GL135989  26.075   5.844   8.855
 8263POPC   GL235990  25.949   5.864   8.855
 8263POPC   C1A35991  26.040   5.852   8.555
 8263POPC   D2A35992  26.063   5.857   8.255
 8263POPC   C3A35993  26.078   5.858   7.955
 8263POPC   C4A35994  26.047   5.851   7.655
 8263POPC   C1B35995  25.779   5.936   8.555
 8263POPC   C2B35996  25.816   5.862   8.255
 8263POPC   C3B35997  25.759   5.914   7.955
 8263POPC   C4B35998  25.810   5.912   7.655
 8264POPC   NC335999  12.117   5.065   9.455
 8264POPC   PO436000  12.110   5.112   9.155
 8264POPC   GL136001  12.120   5.119   8.855
 8264POPC   GL236002  12.027   4.968   8.855
 8264POPC   C1A36003  12.059   5.063   8.555
 8264POPC   D2A36004  12.124   5.107   8.255
 8264POPC   C3A36005  12.124   5.106   7.955
 8264POPC   C4A36006  12.065   5.112   7.655
 8264POPC   C1B36007  12.035   4.845   8.555
 8264POPC   C2B36008  12.067   4.802   8.255
 8264POPC   C3B36009  12.057   4.881   7.955
 8264POPC   C4B36010  12.013   4.803   7.655
 8265POPC   NC336011  33.070   1.965   9.455
 8265POPC   PO436012  33.037   2.018   9.155
 8265POPC   GL136013  33.049   1.976   8.855
 8265POPC   GL236014  33.117   2.091   8.855
 8265POPC   C1A36015  33.031   1.961   8.555
 8265POPC   D2A36016  33.037   1.956   8.255
 8265POPC   C3A36017  33.022   1.963   7.955
 8265POPC   C4A36018  32.977   2.025   7.655
 8265POPC   C1B36019  33.186   2.111   8.555
 8265POPC   C2B36020  33.260   2.127   8.255
 8265POPC   C3B36021  33.264   2.142   7.955
 8265POPC   C4B36022  33.249   2.099   7.655
 8266POPC   NC336023   0.407  40.762   9.455
 8266POPC   PO436024   0.404  40.765   9.155
 8266POPC   GL136025   0.433  40.820   8.855
 8266POPC   GL236026   0.577  40.744   8.855
 8266POPC   C1A36027   0.419  40.817   8.555
 8266POPC   D2A36028   0.450  40.779   8.255
 8266POPC   C3A36029   0.413  40.821   7.955
 8266POPC   C4A36030   0.398  40.823   7.655
 8266POPC   C1B36031   0.663  40.755   8.555
 8266POPC   C2B36032   0.637  40.770   8.255
 8266POPC   C3B36033   0.682  40.744   7.955
 8266POPC   C4B36034   0.691  40.782   7.655
 8267POPC   NC336035  21.401   1.256   9.455
 8267POPC   PO436036  21.381   1.205   9.155
 8267POPC   GL136037  21.339   1.219   8.855
 8267POPC   GL236038  21.505   1.249   8.855
 8267POPC   C1A36039  21.348   1.223   8.555
 8267POPC   D2A36040  21.389   1.227   8.255
 8267POPC   C3A36041  21.372   1.228   7.955
 8267POPC   C4A36042  21.377   1.199   7.655
 8267POPC   C1B36043  21.607   1.214   8.555
 8267POPC   C2B36044  21.617   1.180   8.255
 8267POPC   C3B36045  21.682   1.227   7.955
 8267POPC   C4B36046  21.608   1.166   7.655
 8268POPC   NC336047  41.546   4.352   9.455
 8268POPC   PO436048  41.515   4.363   9.155
 8268POPC   GL136049  41.597   4.346   8.855
 8268POPC   GL236050  41.602   4.210   8.855
 8268POPC   C1A36051  41.591   4.323   8.555
 8268POPC   D2A36052  41.548   4.363   8.255
 8268POPC   C3A36053  41.543   4.287   7.955
 8268POPC   C4A36054  41.574   4.354   7.655
 8268POPC   C1B36055  41.711   4.140   8.555
 8268POPC   C2B36056  41.756   4.115   8.255
 8268POPC   C3B36057  41.713   4.192   7.955
 8268POPC   C4B36058  41.771   4.114   7.655
 8269POPC   NC336059  34.577  31.425   9.455
 8269POPC   PO436060  34.560  31.452   9.155
 8269POPC   GL136061  34.599  31.450   8.855
 8269POPC   GL236062  34.478  31.561   8.855
 8269POPC   C1A36063  34.528  31.458   8.555
 8269POPC   D2A36064  34.528  31.522   8.255
 8269POPC   C3A36065  34.557  31.475   7.955
 8269POPC   C4A36066  34.612  31.450   7.655
 8269POPC   C1B36067  34.414  31.637   8.555
 8269POPC   C2B36068  34.349  31.607   8.255
 8269POPC   C3B36069  34.368  31.681   7.955
 8269POPC   C4B36070  34.429  31.653   7.655
 8270POPC   NC336071  12.821  24.509   9.455
 8270POPC   PO436072  12.863  24.493   9.155
 8270POPC   GL136073  12.874  24.502   8.855
 8270POPC   GL236074  12.858  24.632   8.855
 8270POPC   C1A36075  12.826  24.482   8.555
 8270POPC   D2A36076  12.889  24.480   8.255
 8270POPC   C3A36077  12.805  24.527   7.955
 8270POPC   C4A36078  12.859  24.456   7.655
 8270POPC   C1B36079  12.949  24.714   8.555
 8270POPC   C2B36080  12.878  24.757   8.255
 8270POPC   C3B36081  12.949  24.729   7.955
 8270POPC   C4B36082  12.964  24.705   7.655
 8271POPC   NC336083   5.086  10.500   9.455
 8271POPC   PO436084   5.064  10.549   9.155
 8271POPC   GL136085   5.073  10.493   8.855
 8271POPC   GL236086   5.185  10.617   8.855
 8271POPC   C1A36087   5.084  10.509   8.555
 8271POPC   D2A36088   5.093  10.495   8.255
 8271POPC   C3A36089   5.077  10.565   7.955
 8271POPC   C4A36090   5.104  10.522   7.655
 8271POPC   C1B36091   5.189  10.734   8.555
 8271POPC   C2B36092   5.220  10.778   8.255
 8271POPC   C3B36093   5.243  10.792   7.955
 8271POPC   C4B36094   5.221  10.779   7.655
 8272POPC   NC336095  36.872  26.804   9.455
 8272POPC   PO436096  36.934  26.809   9.155
 8272POPC   GL136097  36.912  26.799   8.855
 8272POPC   GL236098  37.013  26.760   8.855
 8272POPC   C1A36099  36.918  26.817   8.555
 8272POPC   D2A36100  36.945  26.828   8.255
 8272POPC   C3A36101  36.946  26.849   7.955
 8272POPC   C4A36102  36.904  26.829   7.655
 8272POPC   C1B36103  37.168  26.672   8.555
 8272POPC   C2B36104  37.157  26.706   8.255
 8272POPC   C3B36105  37.070  26.697   7.955
 8272POPC   C4B36106  37.128  26.728   7.655
 8273POPC   NC336107  17.475  12.081   9.455
 8273POPC   PO436108  17.550  12.125   9.155
 8273POPC   GL136109  17.523  12.124   8.855
 8273POPC   GL236110  17.586  12.182   8.855
 8273POPC   C1A36111  17.488  12.029   8.555
 8273POPC   D2A36112  17.500  12.099   8.255
 8273POPC   C3A36113  17.496  12.069   7.955
 8273POPC   C4A36114  17.511  12.040   7.655
 8273POPC   C1B36115  17.660  12.219   8.555
 8273POPC   C2B36116  17.759  12.217   8.255
 8273POPC   C3B36117  17.722  12.231   7.955
 8273POPC   C4B36118  17.672  12.183   7.655
 8274POPC   NC336119   3.552  42.315   9.455
 8274POPC   PO436120   3.586  42.347   9.155
 8274POPC   GL136121   3.554  42.355   8.855
 8274POPC   GL236122   3.369  42.308   8.855
 8274POPC   C1A36123   3.552  42.289   8.555
 8274POPC   D2A36124   3.566  42.339   8.255
 8274POPC   C3A36125   3.562  42.307   7.955
 8274POPC   C4A36126   3.561  42.358   7.655
 8274POPC   C1B36127   3.287  42.398   8.555
 8274POPC   C2B36128   3.247  42.333   8.255
 8274POPC   C3B36129   3.305  42.339   7.955
 8274POPC   C4B36130   3.298  42.357   7.655
 8275POPC   NC336131   3.561  22.123   9.455
 8275POPC   PO436132   3.527  22.154   9.155
 8275POPC   GL136133   3.499  22.160   8.855
 8275POPC   GL236134   3.455  22.224   8.855
 8275POPC   C1A36135   3.578  22.128   8.555
 8275POPC   D2A36136   3.496  22.146   8.255
 8275POPC   C3A36137   3.511  22.132   7.955
 8275POPC   C4A36138   3.510  22.144   7.655
 8275POPC   C1B36139   3.340  22.354   8.555
 8275POPC   C2B36140   3.389  22.378   8.255
 8275POPC   C3B36141   3.378  22.392   7.955
 8275POPC   C4B36142   3.437  22.334   7.655
 8276POPC   NC336143  36.094  33.817   9.455
 8276POPC   PO436144  36.154  33.788   9.155
 8276POPC   GL136145  36.101  33.838   8.855
 8276POPC   GL236146  36.225  33.723   8.855
 8276POPC   C1A36147  36.096  33.796   8.555
 8276POPC   D2A36148  36.131  33.829   8.255
 8276POPC   C3A36149  36.084  33.788   7.955
 8276POPC   C4A36150  36.127  33.846   7.655
 8276POPC   C1B36151  36.300  33.653   8.555
 8276POPC   C2B36152  36.330  33.598   8.255
 8276POPC   C3B36153  36.355  33.596   7.955
 8276POPC   C4B36154  36.326  33.618   7.655
 8277POPC   NC336155  39.230  32.986   9.455
 8277POPC   PO436156  39.220  33.006   9.155
 8277POPC   GL136157  39.259  32.979   8.855
 8277POPC   GL236158  39.326  33.017   8.855
 8277POPC   C1A36159  39.252  32.980   8.555
 8277POPC   D2A36160  39.206  32.976   8.255
 8277POPC   C3A36161  39.225  33.026   7.955
 8277POPC   C4A36162  39.255  33.047   7.655
 8277POPC   C1B36163  39.484  33.037   8.555
 8277POPC   C2B36164  39.493  32.977   8.255
 8277POPC   C3B36165  39.486  33.028   7.955
 8277POPC   C4B36166  39.477  32.967   7.655
 8278POPC   NC336167  22.957  35.334   9.455
 8278POPC   PO436168  22.934  35.392   9.155
 8278POPC   GL136169  22.941  35.337   8.855
 8278POPC   GL236170  22.858  35.395   8.855
 8278POPC   C1A36171  22.957  35.367   8.555
 8278POPC   D2A36172  22.899  35.335   8.255
 8278POPC   C3A36173  22.949  35.377   7.955
 8278POPC   C4A36174  22.975  35.355   7.655
 8278POPC   C1B36175  22.674  35.409   8.555
 8278POPC   C2B36176  22.710  35.371   8.255
 8278POPC   C3B36177  22.683  35.384   7.955
 8278POPC   C4B36178  22.700  35.329   7.655
 8279POPC   NC336179   1.249  43.882   9.455
 8279POPC   PO436180   1.238  43.859   9.155
 8279POPC   GL136181   1.189  43.920   8.855
 8279POPC   GL236182   1.228  43.767   8.855
 8279POPC   C1A36183   1.260  43.882   8.555
 8279POPC   D2A36184   1.171  43.921   8.255
 8279POPC   C3A36185   1.173  43.846   7.955
 8279POPC   C4A36186   1.262  43.926   7.655
 8279POPC   C1B36187   1.269  43.619   8.555
 8279POPC   C2B36188   1.267  43.612   8.255
 8279POPC   C3B36189   1.191  43.686   7.955
 8279POPC   C4B36190   1.284  43.630   7.655
 8280POPC   NC336191  15.976   8.198   9.455
 8280POPC   PO436192  15.995   8.240   9.155
 8280POPC   GL136193  15.928   8.229   8.855
 8280POPC   GL236194  15.868   8.154   8.855
 8280POPC   C1A36195  15.942   8.230   8.555
 8280POPC   D2A36196  15.982   8.238   8.255
 8280POPC   C3A36197  15.986   8.164   7.955
 8280POPC   C4A36198  15.939   8.217   7.655
 8280POPC   C1B36199  15.714   8.076   8.555
 8280POPC   C2B36200  15.693   8.133   8.255
 8280POPC   C3B36201  15.691   8.046   7.955
 8280POPC   C4B36202  15.682   8.043   7.655
 8281POPC   NC336203  22.128  43.111   9.455
 8281POPC   PO436204  22.184  43.090   9.155
 8281POPC   GL136205  22.179  43.110   8.855
 8281POPC   GL236206  22.203  43.225   8.855
 8281POPC   C1A36207  22.209  43.151   8.555
 8281POPC   D2A36208  22.115  43.099   8.255
 8281POPC   C3A36209  22.200  43.150   7.955
 8281POPC   C4A36210  22.202  43.143   7.655
 8281POPC   C1B36211  22.290  43.377   8.555
 8281POPC   C2B36212  22.324  43.295   8.255
 8281POPC   C3B36213  22.288  43.344   7.955
 8281POPC   C4B36214  22.271  43.349   7.655
 8282POPC   NC336215  33.769   2.815   9.455
 8282POPC   PO436216  33.816   2.750   9.155
 8282POPC   GL136217  33.772   2.803   8.855
 8282POPC   GL236218  33.904   2.758   8.855
 8282POPC   C1A36219  33.841   2.756   8.555
 8282POPC   D2A36220  33.772   2.761   8.255
 8282POPC   C3A36221  33.809   2.719   7.955
 8282POPC   C4A36222  33.833   2.765   7.655
 8282POPC   C1B36223  34.064   2.772   8.555
 8282POPC   C2B36224  34.086   2.796   8.255
 8282POPC   C3B36225  34.016   2.866   7.955
 8282POPC   C4B36226  34.021   2.853   7.655
 8283POPC   NC336227  24.451  29.096   9.455
 8283POPC   PO436228  24.454  29.158   9.155
 8283POPC   GL136229  24.528  29.099   8.855
 8283POPC   GL236230  24.459  29.028   8.855
 8283POPC   C1A36231  24.515  29.132   8.555
 8283POPC   D2A36232  24.441  29.193   8.255
 8283POPC   C3A36233  24.507  29.157   7.955
 8283POPC   C4A36234  24.525  29.191   7.655
 8283POPC   C1B36235  24.456  28.902   8.555
 8283POPC   C2B36236  24.416  28.939   8.255
 8283POPC   C3B36237  24.461  28.894   7.955
 8283POPC   C4B36238  24.420  28.905   7.655
 8284POPC   NC336239  32.992   2.764   9.455
 8284POPC   PO436240  33.024   2.800   9.155
 8284POPC   GL136241  33.062   2.813   8.855
 8284POPC   GL236242  33.009   2.614   8.855
 8284POPC   C1A36243  32.992   2.802   8.555
 8284POPC   D2A36244  33.074   2.751   8.255
 8284POPC   C3A36245  32.995   2.802   7.955
 8284POPC   C4A36246  33.011   2.804   7.655
 8284POPC   C1B36247  33.131   2.558   8.555
 8284POPC   C2B36248  33.122   2.477   8.255
 8284POPC   C3B36249  33.054   2.491   7.955
 8284POPC   C4B36250  33.072   2.566   7.655
 8285POPC   NC336251   8.931  20.579   9.455
 8285POPC   PO436252   8.957  20.616   9.155
 8285POPC   GL136253   8.945  20.575   8.855
 8285POPC   GL236254   8.860  20.523   8.855
 8285POPC   C1A36255   8.944  20.602   8.555
 8285POPC   D2A36256   8.969  20.598   8.255
 8285POPC   C3A36257   8.940  20.618   7.955
 8285POPC   C4A36258   8.951  20.561   7.655
 8285POPC   C1B36259   8.756  20.430   8.555
 8285POPC   C2B36260   8.762  20.411   8.255
 8285POPC   C3B36261   8.756  20.461   7.955
 8285POPC   C4B36262   8.802  20.443   7.655
 8286POPC   NC336263  36.881  34.605   9.455
 8286POPC   PO436264  36.940  34.581   9.155
 8286POPC   GL136265  36.953  34.608   8.855
 8286POPC   GL236266  36.831  34.422   8.855
 8286POPC   C1A36267  36.877  34.570   8.555
 8286POPC   D2A36268  36.945  34.544   8.255
 8286POPC   C3A36269  36.918  34.577   7.955
 8286POPC   C4A36270  36.937  34.620   7.655
 8286POPC   C1B36271  36.792  34.333   8.555
 8286POPC   C2B36272  36.785  34.309   8.255
 8286POPC   C3B36273  36.792  34.331   7.955
 8286POPC   C4B36274  36.832  34.383   7.655
 8287POPC   NC336275  12.857  19.883   9.455
 8287POPC   PO436276  12.819  19.800   9.155
 8287POPC   GL136277  12.879  19.833   8.855
 8287POPC   GL236278  12.904  19.660   8.855
 8287POPC   C1A36279  12.804  19.819   8.555
 8287POPC   D2A36280  12.858  19.841   8.255
 8287POPC   C3A36281  12.876  19.845   7.955
 8287POPC   C4A36282  12.895  19.862   7.655
 8287POPC   C1B36283  12.870  19.548   8.555
 8287POPC   C2B36284  12.906  19.581   8.255
 8287POPC   C3B36285  12.854  19.571   7.955
 8287POPC   C4B36286  12.818  19.553   7.655
 8288POPC   NC336287  18.280   3.520   9.455
 8288POPC   PO436288  18.302   3.537   9.155
 8288POPC   GL136289  18.325   3.547   8.855
 8288POPC   GL236290  18.178   3.621   8.855
 8288POPC   C1A36291  18.296   3.518   8.555
 8288POPC   D2A36292  18.252   3.562   8.255
 8288POPC   C3A36293  18.244   3.518   7.955
 8288POPC   C4A36294  18.236   3.522   7.655
 8288POPC   C1B36295  18.025   3.613   8.555
 8288POPC   C2B36296  18.060   3.619   8.255
 8288POPC   C3B36297  18.094   3.691   7.955
 8288POPC   C4B36298  18.080   3.631   7.655
 8289POPC   NC336299  26.804  30.698   9.455
 8289POPC   PO436300  26.797  30.682   9.155
 8289POPC   GL136301  26.819  30.702   8.855
 8289POPC   GL236302  26.689  30.657   8.855
 8289POPC   C1A36303  26.775  30.656   8.555
 8289POPC   D2A36304  26.836  30.679   8.255
 8289POPC   C3A36305  26.785  30.719   7.955
 8289POPC   C4A36306  26.825  30.720   7.655
 8289POPC   C1B36307  26.593  30.566   8.555
 8289POPC   C2B36308  26.576  30.547   8.255
 8289POPC   C3B36309  26.583  30.604   7.955
 8289POPC   C4B36310  26.581  30.564   7.655
 8290POPC   NC336311   3.556  32.214   9.455
 8290POPC   PO436312   3.523  32.290   9.155
 8290POPC   GL136313   3.542  32.202   8.855
 8290POPC   GL236314   3.603  32.298   8.855
 8290POPC   C1A36315   3.510  32.256   8.555
 8290POPC   D2A36316   3.516  32.228   8.255
 8290POPC   C3A36317   3.585  32.256   7.955
 8290POPC   C4A36318   3.523  32.254   7.655
 8290POPC   C1B36319   3.761  32.405   8.555
 8290POPC   C2B36320   3.734  32.409   8.255
 8290POPC   C3B36321   3.766  32.417   7.955
 8290POPC   C4B36322   3.718  32.464   7.655
 8291POPC   NC336323   0.477  29.098   9.455
 8291POPC   PO436324   0.418  29.151   9.155
 8291POPC   GL136325   0.404  29.172   8.855
 8291POPC   GL236326   0.537  29.209   8.855
 8291POPC   C1A36327   0.452  29.144   8.555
 8291POPC   D2A36328   0.479  29.140   8.255
 8291POPC   C3A36329   0.469  29.095   7.955
 8291POPC   C4A36330   0.416  29.175   7.655
 8291POPC   C1B36331   0.666  29.280   8.555
 8291POPC   C2B36332   0.691  29.301   8.255
 8291POPC   C3B36333   0.666  29.314   7.955
 8291POPC   C4B36334   0.596  29.328   7.655
 8292POPC   NC336335  28.384  15.195   9.455
 8292POPC   PO436336  28.371  15.228   9.155
 8292POPC   GL136337  28.400  15.201   8.855
 8292POPC   GL236338  28.370  15.079   8.855
 8292POPC   C1A36339  28.414  15.226   8.555
 8292POPC   D2A36340  28.363  15.182   8.255
 8292POPC   C3A36341  28.409  15.152   7.955
 8292POPC   C4A36342  28.381  15.147   7.655
 8292POPC   C1B36343  28.403  14.893   8.555
 8292POPC   C2B36344  28.410  14.927   8.255
 8292POPC   C3B36345  28.350  14.966   7.955
 8292POPC   C4B36346  28.416  14.912   7.655
 8293POPC   NC336347   9.006  43.896   9.455
 8293POPC   PO436348   8.949  43.908   9.155
 8293POPC   GL136349   8.958  43.875   8.855
 8293POPC   GL236350   8.825  43.947   8.855
 8293POPC   C1A36351   8.960  43.855   8.555
 8293POPC   D2A36352   9.001  43.935   8.255
 8293POPC   C3A36353   9.015  43.916   7.955
 8293POPC   C4A36354   8.935  43.894   7.655
 8293POPC   C1B36355   8.754  43.912   8.555
 8293POPC   C2B36356   8.683  43.929   8.255
 8293POPC   C3B36357   8.720  43.909   7.955
 8293POPC   C4B36358   8.731  43.956   7.655
 8294POPC   NC336359  31.437  44.632   9.455
 8294POPC   PO436360  31.457  44.684   9.155
 8294POPC   GL136361  31.500  44.615   8.855
 8294POPC   GL236362  31.325  44.619   8.855
 8294POPC   C1A36363  31.510  44.652   8.555
 8294POPC   D2A36364  31.437  44.679   8.255
 8294POPC   C3A36365  31.471  44.672   7.955
 8294POPC   C4A36366  31.507  44.675   7.655
 8294POPC   C1B36367  31.185  44.641   8.555
 8294POPC   C2B36368  31.210  44.576   8.255
 8294POPC   C3B36369  31.270  44.586   7.955
 8294POPC   C4B36370  31.220  44.591   7.655
 8295POPC   NC336371  20.592   8.947   9.455
 8295POPC   PO436372  20.645   8.952   9.155
 8295POPC   GL136373  20.597   8.985   8.855
 8295POPC   GL236374  20.719   8.920   8.855
 8295POPC   C1A36375  20.565   8.969   8.555
 8295POPC   D2A36376  20.561   8.962   8.255
 8295POPC   C3A36377  20.635   8.997   7.955
 8295POPC   C4A36378  20.639   8.938   7.655
 8295POPC   C1B36379  20.770   8.826   8.555
 8295POPC   C2B36380  20.831   8.817   8.255
 8295POPC   C3B36381  20.811   8.817   7.955
 8295POPC   C4B36382  20.768   8.774   7.655
 8296POPC   NC336383  15.971   4.336   9.455
 8296POPC   PO436384  15.916   4.346   9.155
 8296POPC   GL136385  15.935   4.306   8.855
 8296POPC   GL236386  15.849   4.378   8.855
 8296POPC   C1A36387  15.950   4.289   8.555
 8296POPC   D2A36388  15.924   4.351   8.255
 8296POPC   C3A36389  15.962   4.350   7.955
 8296POPC   C4A36390  15.986   4.274   7.655
 8296POPC   C1B36391  15.696   4.311   8.555
 8296POPC   C2B36392  15.732   4.347   8.255
 8296POPC   C3B36393  15.740   4.320   7.955
 8296POPC   C4B36394  15.685   4.324   7.655
 8297POPC   NC336395  11.338  32.999   9.455
 8297POPC   PO436396  11.299  33.031   9.155
 8297POPC   GL136397  11.341  33.032   8.855
 8297POPC   GL236398  11.400  33.161   8.855
 8297POPC   C1A36399  11.252  33.037   8.555
 8297POPC   D2A36400  11.310  33.008   8.255
 8297POPC   C3A36401  11.331  33.062   7.955
 8297POPC   C4A36402  11.343  33.017   7.655
 8297POPC   C1B36403  11.441  33.207   8.555
 8297POPC   C2B36404  11.480  33.197   8.255
 8297POPC   C3B36405  11.477  33.209   7.955
 8297POPC   C4B36406  11.426  33.257   7.655
 8298POPC   NC336407  19.104   6.665   9.455
 8298POPC   PO436408  19.022   6.603   9.155
 8298POPC   GL136409  19.066   6.659   8.855
 8298POPC   GL236410  19.107   6.491   8.855
 8298POPC   C1A36411  19.039   6.628   8.555
 8298POPC   D2A36412  19.076   6.621   8.255
 8298POPC   C3A36413  19.018   6.640   7.955
 8298POPC   C4A36414  19.086   6.608   7.655
 8298POPC   C1B36415  19.171   6.419   8.555
 8298POPC   C2B36416  19.151   6.457   8.255
 8298POPC   C3B36417  19.196   6.397   7.955
 8298POPC   C4B36418  19.156   6.422   7.655
 8299POPC   NC336419  15.156  30.726   9.455
 8299POPC   PO436420  15.141  30.650   9.155
 8299POPC   GL136421  15.173  30.722   8.855
 8299POPC   GL236422  15.332  30.721   8.855
 8299POPC   C1A36423  15.144  30.681   8.555
 8299POPC   D2A36424  15.194  30.688   8.255
 8299POPC   C3A36425  15.182  30.648   7.955
 8299POPC   C4A36426  15.152  30.744   7.655
 8299POPC   C1B36427  15.434  30.729   8.555
 8299POPC   C2B36428  15.429  30.759   8.255
 8299POPC   C3B36429  15.426  30.780   7.955
 8299POPC   C4B36430  15.390  30.736   7.655
 8300POPC   NC336431  30.674  17.521   9.455
 8300POPC   PO436432  30.697  17.527   9.155
 8300POPC   GL136433  30.690  17.466   8.855
 8300POPC   GL236434  30.856  17.514   8.855
 8300POPC   C1A36435  30.732  17.533   8.555
 8300POPC   D2A36436  30.714  17.458   8.255
 8300POPC   C3A36437  30.668  17.474   7.955
 8300POPC   C4A36438  30.704  17.506   7.655
 8300POPC   C1B36439  30.959  17.538   8.555
 8300POPC   C2B36440  30.986  17.498   8.255
 8300POPC   C3B36441  30.952  17.586   7.955
 8300POPC   C4B36442  30.977  17.523   7.655
 8301POPC   NC336443   2.752  24.501   9.455
 8301POPC   PO436444   2.721  24.524   9.155
 8301POPC   GL136445   2.737  24.502   8.855
 8301POPC   GL236446   2.814  24.640   8.855
 8301POPC   C1A36447   2.767  24.485   8.555
 8301POPC   D2A36448   2.723  24.461   8.255
 8301POPC   C3A36449   2.729  24.504   7.955
 8301POPC   C4A36450   2.811  24.457   7.655
 8301POPC   C1B36451   2.814  24.753   8.555
 8301POPC   C2B36452   2.819  24.785   8.255
 8301POPC   C3B36453   2.752  24.693   7.955
 8301POPC   C4B36454   2.829  24.742   7.655
 8302POPC   NC336455  44.626  18.287   9.455
 8302POPC   PO436456  44.625  18.319   9.155
 8302POPC   GL136457  44.691  18.283   8.855
 8302POPC   GL236458  44.721  18.175   8.855
 8302POPC   C1A36459  44.657  18.309   8.555
 8302POPC   D2A36460  44.670  18.321   8.255
 8302POPC   C3A36461  44.625  18.269   7.955
 8302POPC   C4A36462  44.662  18.304   7.655
 8302POPC   C1B36463  44.776  18.089   8.555
 8302POPC   C2B36464  44.770  18.065   8.255
 8302POPC   C3B36465  44.749  18.080   7.955
 8302POPC   C4B36466  44.826  18.023   7.655
 8303POPC   NC336467  15.939   0.476   9.455
 8303POPC   PO436468  15.910   0.443   9.155
 8303POPC   GL136469  15.945   0.449   8.855
 8303POPC   GL236470  16.021   0.312   8.855
 8303POPC   C1A36471  15.919   0.454   8.555
 8303POPC   D2A36472  15.971   0.454   8.255
 8303POPC   C3A36473  15.992   0.473   7.955
 8303POPC   C4A36474  15.979   0.484   7.655
 8303POPC   C1B36475  16.141   0.279   8.555
 8303POPC   C2B36476  16.153   0.239   8.255
 8303POPC   C3B36477  16.118   0.249   7.955
 8303POPC   C4B36478  16.110   0.274   7.655
 8304POPC   NC336479  36.886  11.298   9.455
 8304POPC   PO436480  36.919  11.273   9.155
 8304POPC   GL136481  36.875  11.336   8.855
 8304POPC   GL236482  36.892  11.401   8.855
 8304POPC   C1A36483  36.889  11.342   8.555
 8304POPC   D2A36484  36.882  11.310   8.255
 8304POPC   C3A36485  36.945  11.288   7.955
 8304POPC   C4A36486  36.943  11.288   7.655
 8304POPC   C1B36487  36.825  11.563   8.555
 8304POPC   C2B36488  36.808  11.557   8.255
 8304POPC   C3B36489  36.814  11.553   7.955
 8304POPC   C4B36490  36.835  11.488   7.655
 8305POPC   NC336491   3.522  43.111   9.455
 8305POPC   PO436492   3.497  43.134   9.155
 8305POPC   GL136493   3.503  43.134   8.855
 8305POPC   GL236494   3.448  43.054   8.855
 8305POPC   C1A36495   3.560  43.090   8.555
 8305POPC   D2A36496   3.542  43.153   8.255
 8305POPC   C3A36497   3.498  43.081   7.955
 8305POPC   C4A36498   3.541  43.078   7.655
 8305POPC   C1B36499   3.341  42.947   8.555
 8305POPC   C2B36500   3.318  42.890   8.255
 8305POPC   C3B36501   3.361  42.896   7.955
 8305POPC   C4B36502   3.334  42.915   7.655
 8306POPC   NC336503  32.206  32.242   9.455
 8306POPC   PO436504  32.264  32.272   9.155
 8306POPC   GL136505  32.244  32.235   8.855
 8306POPC   GL236506  32.315  32.132   8.855
 8306POPC   C1A36507  32.283  32.213   8.555
 8306POPC   D2A36508  32.270  32.203   8.255
 8306POPC   C3A36509  32.213  32.290   7.955
 8306POPC   C4A36510  32.207  32.246   7.655
 8306POPC   C1B36511  32.420  32.087   8.555
 8306POPC   C2B36512  32.425  32.020   8.255
 8306POPC   C3B36513  32.446  32.058   7.955
 8306POPC   C4B36514  32.456  32.062   7.655
 8307POPC   NC336515   5.046   4.309   9.455
 8307POPC   PO436516   5.128   4.316   9.155
 8307POPC   GL136517   5.122   4.321   8.855
 8307POPC   GL236518   5.156   4.182   8.855
 8307POPC   C1A36519   5.139   4.304   8.555
 8307POPC   D2A36520   5.060   4.284   8.255
 8307POPC   C3A36521   5.045   4.286   7.955
 8307POPC   C4A36522   5.067   4.355   7.655
 8307POPC   C1B36523   5.211   4.100   8.555
 8307POPC   C2B36524   5.160   4.089   8.255
 8307POPC   C3B36525   5.207   4.127   7.955
 8307POPC   C4B36526   5.131   4.080   7.655
 8308POPC   NC336527   8.164   5.064   9.455
 8308POPC   PO436528   8.230   5.052   9.155
 8308POPC   GL136529   8.236   5.068   8.855
 8308POPC   GL236530   8.229   5.223   8.855
 8308POPC   C1A36531   8.182   5.055   8.555
 8308POPC   D2A36532   8.164   5.102   8.255
 8308POPC   C3A36533   8.235   5.142   7.955
 8308POPC   C4A36534   8.160   5.096   7.655
 8308POPC   C1B36535   8.206   5.319   8.555
 8308POPC   C2B36536   8.252   5.300   8.255
 8308POPC   C3B36537   8.252   5.315   7.955
 8308POPC   C4B36538   8.198   5.319   7.655
 8309POPC   NC336539   7.432   5.855   9.455
 8309POPC   PO436540   7.422   5.915   9.155
 8309POPC   GL136541   7.392   5.845   8.855
 8309POPC   GL236542   7.250   5.891   8.855
 8309POPC   C1A36543   7.424   5.894   8.555
 8309POPC   D2A36544   7.377   5.860   8.255
 8309POPC   C3A36545   7.454   5.865   7.955
 8309POPC   C4A36546   7.429   5.848   7.655
 8309POPC   C1B36547   7.161   5.895   8.555
 8309POPC   C2B36548   7.218   5.836   8.255
 8309POPC   C3B36549   7.200   5.866   7.955
 8309POPC   C4B36550   7.123   5.857   7.655
 8310POPC   NC336551  41.553  19.866   9.455
 8310POPC   PO436552  41.537  19.822   9.155
 8310POPC   GL136553  41.563  19.861   8.855
 8310POPC   GL236554  41.626  19.701   8.855
 8310POPC   C1A36555  41.536  19.790   8.555
 8310POPC   D2A36556  41.524  19.798   8.255
 8310POPC   C3A36557  41.555  19.871   7.955
 8310POPC   C4A36558  41.606  19.796   7.655
 8310POPC   C1B36559  41.687  19.676   8.555
 8310POPC   C2B36560  41.715  19.652   8.255
 8310POPC   C3B36561  41.747  19.632   7.955
 8310POPC   C4B36562  41.732  19.603   7.655
 8311POPC   NC336563   5.866  18.310   9.455
 8311POPC   PO436564   5.910  18.327   9.155
 8311POPC   GL136565   5.857  18.324   8.855
 8311POPC   GL236566   5.799  18.415   8.855
 8311POPC   C1A36567   5.837  18.307   8.555
 8311POPC   D2A36568   5.876  18.332   8.255
 8311POPC   C3A36569   5.854  18.246   7.955
 8311POPC   C4A36570   5.823  18.291   7.655
 8311POPC   C1B36571   5.736  18.485   8.555
 8311POPC   C2B36572   5.724  18.490   8.255
 8311POPC   C3B36573   5.710  18.535   7.955
 8311POPC   C4B36574   5.753  18.512   7.655
 8312POPC   NC336575  20.599  22.977   9.455
 8312POPC   PO436576  20.649  22.935   9.155
 8312POPC   GL136577  20.645  22.977   8.855
 8312POPC   GL236578  20.584  22.786   8.855
 8312POPC   C1A36579  20.587  22.904   8.555
 8312POPC   D2A36580  20.600  22.980   8.255
 8312POPC   C3A36581  20.649  22.987   7.955
 8312POPC   C4A36582  20.598  22.945   7.655
 8312POPC   C1B36583  20.480  22.757   8.555
 8312POPC   C2B36584  20.435  22.739   8.255
 8312POPC   C3B36585  20.425  22.714   7.955
 8312POPC   C4B36586  20.455  22.772   7.655
 8313POPC   NC336587   9.757  15.212   9.455
 8313POPC   PO436588   9.757  15.199   9.155
 8313POPC   GL136589   9.723  15.148   8.855
 8313POPC   GL236590   9.604  15.181   8.855
 8313POPC   C1A36591   9.763  15.171   8.555
 8313POPC   D2A36592   9.754  15.205   8.255
 8313POPC   C3A36593   9.789  15.170   7.955
 8313POPC   C4A36594   9.780  15.139   7.655
 8313POPC   C1B36595   9.502  15.149   8.555
 8313POPC   C2B36596   9.469  15.207   8.255
 8313POPC   C3B36597   9.517  15.219   7.955
 8313POPC   C4B36598   9.450  15.153   7.655
 8314POPC   NC336599  39.267  11.259   9.455
 8314POPC   PO436600  39.227  11.320   9.155
 8314POPC   GL136601  39.225  11.251   8.855
 8314POPC   GL236602  39.284  11.192   8.855
 8314POPC   C1A36603  39.273  11.349   8.555
 8314POPC   D2A36604  39.278  11.287   8.255
 8314POPC   C3A36605  39.264  11.327   7.955
 8314POPC   C4A36606  39.213  11.339   7.655
 8314POPC   C1B36607  39.440  11.127   8.555
 8314POPC   C2B36608  39.404  11.122   8.255
 8314POPC   C3B36609  39.437  11.112   7.955
 8314POPC   C4B36610  39.451  11.154   7.655
 8315POPC   NC336611  33.844   0.415   9.455
 8315POPC   PO436612  33.844   0.485   9.155
 8315POPC   GL136613  33.781   0.437   8.855
 8315POPC   GL236614  33.782   0.556   8.855
 8315POPC   C1A36615  33.811   0.470   8.555
 8315POPC   D2A36616  33.845   0.404   8.255
 8315POPC   C3A36617  33.765   0.428   7.955
 8315POPC   C4A36618  33.817   0.404   7.655
 8315POPC   C1B36619  33.766   0.706   8.555
 8315POPC   C2B36620  33.693   0.699   8.255
 8315POPC   C3B36621  33.671   0.708   7.955
 8315POPC   C4B36622  33.725   0.654   7.655
 8316POPC   NC336623  29.158   8.186   9.455
 8316POPC   PO436624  29.192   8.227   9.155
 8316POPC   GL136625  29.187   8.197   8.855
 8316POPC   GL236626  29.044   8.292   8.855
 8316POPC   C1A36627  29.172   8.190   8.555
 8316POPC   D2A36628  29.167   8.233   8.255
 8316POPC   C3A36629  29.132   8.230   7.955
 8316POPC   C4A36630  29.155   8.189   7.655
 8316POPC   C1B36631  28.995   8.410   8.555
 8316POPC   C2B36632  28.964   8.332   8.255
 8316POPC   C3B36633  28.952   8.382   7.955
 8316POPC   C4B36634  28.938   8.377   7.655
 8317POPC   NC336635  10.505   3.494   9.455
 8317POPC   PO436636  10.544   3.560   9.155
 8317POPC   GL136637  10.477   3.512   8.855
 8317POPC   GL236638  10.621   3.655   8.855
 8317POPC   C1A36639  10.547   3.582   8.555
 8317POPC   D2A36640  10.477   3.559   8.255
 8317POPC   C3A36641  10.501   3.561   7.955
 8317POPC   C4A36642  10.511   3.537   7.655
 8317POPC   C1B36643  10.634   3.771   8.555
 8317POPC   C2B36644  10.615   3.714   8.255
 8317POPC   C3B36645  10.628   3.723   7.955
 8317POPC   C4B36646  10.656   3.793   7.655
 8318POPC   NC336647   7.425  10.527   9.455
 8318POPC   PO436648   7.416  10.521   9.155
 8318POPC   GL136649   7.412  10.555   8.855
 8318POPC   GL236650   7.378  10.412   8.855
 8318POPC   C1A36651   7.444  10.557   8.555
 8318POPC   D2A36652   7.434  10.548   8.255
 8318POPC   C3A36653   7.415  10.495   7.955
 8318POPC   C4A36654   7.383  10.548   7.655
 8318POPC   C1B36655   7.261  10.349   8.555
 8318POPC   C2B36656   7.304  10.318   8.255
 8318POPC   C3B36657   7.339  10.286   7.955
 8318POPC   C4B36658   7.265  10.314   7.655
 8319POPC   NC336659  37.707  19.799   9.455
 8319POPC   PO436660  37.630  19.879   9.155
 8319POPC   GL136661  37.688  19.878   8.855
 8319POPC   GL236662  37.600  19.969   8.855
 8319POPC   C1A36663  37.704  19.793   8.555
 8319POPC   D2A36664  37.646  19.786   8.255
 8319POPC   C3A36665  37.692  19.839   7.955
 8319POPC   C4A36666  37.689  19.864   7.655
 8319POPC   C1B36667  37.535  20.043   8.555
 8319POPC   C2B36668  37.549  20.042   8.255
 8319POPC   C3B36669  37.511  20.038   7.955
 8319POPC   C4B36670  37.571  20.025   7.655
 8320POPC   NC336671  43.135   7.468   9.455
 8320POPC   PO436672  43.075   7.470   9.155
 8320POPC   GL136673  43.077   7.443   8.855
 8320POPC   GL236674  43.101   7.335   8.855
 8320POPC   C1A36675  43.075   7.408   8.555
 8320POPC   D2A36676  43.142   7.465   8.255
 8320POPC   C3A36677  43.064   7.449   7.955
 8320POPC   C4A36678  43.160   7.405   7.655
 8320POPC   C1B36679  43.018   7.218   8.555
 8320POPC   C2B36680  43.042   7.176   8.255
 8320POPC   C3B36681  43.110   7.152   7.955
 8320POPC   C4B36682  43.021   7.131   7.655
 8321POPC   NC336683  15.198  33.017   9.455
 8321POPC   PO436684  15.155  33.002   9.155
 8321POPC   GL136685  15.197  33.025   8.855
 8321POPC   GL236686  15.099  33.156   8.855
 8321POPC   C1A36687  15.225  33.012   8.555
 8321POPC   D2A36688  15.137  33.068   8.255
 8321POPC   C3A36689  15.188  33.064   7.955
 8321POPC   C4A36690  15.131  32.986   7.655
 8321POPC   C1B36691  14.973  33.232   8.555
 8321POPC   C2B36692  15.066  33.209   8.255
 8321POPC   C3B36693  15.022  33.264   7.955
 8321POPC   C4B36694  15.003  33.205   7.655
 8322POPC   NC336695  10.558  37.687   9.455
 8322POPC   PO436696  10.541  37.679   9.155
 8322POPC   GL136697  10.494  37.642   8.855
 8322POPC   GL236698  10.449  37.758   8.855
 8322POPC   C1A36699  10.479  37.707   8.555
 8322POPC   D2A36700  10.476  37.649   8.255
 8322POPC   C3A36701  10.499  37.658   7.955
 8322POPC   C4A36702  10.495  37.728   7.655
 8322POPC   C1B36703  10.360  37.879   8.555
 8322POPC   C2B36704  10.364  37.873   8.255
 8322POPC   C3B36705  10.346  37.880   7.955
 8322POPC   C4B36706  10.313  37.815   7.655
 8323POPC   NC336707  21.392  28.351   9.455
 8323POPC   PO436708  21.404  28.399   9.155
 8323POPC   GL136709  21.379  28.377   8.855
 8323POPC   GL236710  21.283  28.454   8.855
 8323POPC   C1A36711  21.410  28.378   8.555
 8323POPC   D2A36712  21.420  28.387   8.255
 8323POPC   C3A36713  21.362  28.408   7.955
 8323POPC   C4A36714  21.338  28.359   7.655
 8323POPC   C1B36715  21.149  28.417   8.555
 8323POPC   C2B36716  21.131  28.451   8.255
 8323POPC   C3B36717  21.190  28.430   7.955
 8323POPC   C4B36718  21.112  28.488   7.655
 8324POPC   NC336719  20.634  38.460   9.455
 8324POPC   PO436720  20.597  38.432   9.155
 8324POPC   GL136721  20.643  38.431   8.855
 8324POPC   GL236722  20.522  38.461   8.855
 8324POPC   C1A36723  20.655  38.472   8.555
 8324POPC   D2A36724  20.641  38.430   8.255
 8324POPC   C3A36725  20.633  38.427   7.955
 8324POPC   C4A36726  20.657  38.412   7.655
 8324POPC   C1B36727  20.342  38.453   8.555
 8324POPC   C2B36728  20.322  38.463   8.255
 8324POPC   C3B36729  20.312  38.452   7.955
 8324POPC   C4B36730  20.410  38.497   7.655
 8325POPC   NC336731  36.911  15.198   9.455
 8325POPC   PO436732  36.916  15.165   9.155
 8325POPC   GL136733  36.877  15.221   8.855
 8325POPC   GL236734  36.777  15.072   8.855
 8325POPC   C1A36735  36.873  15.167   8.555
 8325POPC   D2A36736  36.898  15.144   8.255
 8325POPC   C3A36737  36.876  15.227   7.955
 8325POPC   C4A36738  36.927  15.165   7.655
 8325POPC   C1B36739  36.664  15.051   8.555
 8325POPC   C2B36740  36.751  15.056   8.255
 8325POPC   C3B36741  36.703  15.079   7.955
 8325POPC   C4B36742  36.685  15.026   7.655
 8326POPC   NC336743  39.202  25.293   9.455
 8326POPC   PO436744  39.257  25.289   9.155
 8326POPC   GL136745  39.186  25.269   8.855
 8326POPC   GL236746  39.340  25.295   8.855
 8326POPC   C1A36747  39.211  25.269   8.555
 8326POPC   D2A36748  39.244  25.305   8.255
 8326POPC   C3A36749  39.271  25.283   7.955
 8326POPC   C4A36750  39.265  25.248   7.655
 8326POPC   C1B36751  39.476  25.311   8.555
 8326POPC   C2B36752  39.426  25.359   8.255
 8326POPC   C3B36753  39.519  25.284   7.955
 8326POPC   C4B36754  39.512  25.293   7.655
 8327POPC   NC336755  10.557  24.521   9.455
 8327POPC   PO436756  10.481  24.463   9.155
 8327POPC   GL136757  10.541  24.514   8.855
 8327POPC   GL236758  10.458  24.609   8.855
 8327POPC   C1A36759  10.519  24.528   8.555
 8327POPC   D2A36760  10.529  24.452   8.255
 8327POPC   C3A36761  10.486  24.477   7.955
 8327POPC   C4A36762  10.475  24.458   7.655
 8327POPC   C1B36763  10.388  24.726   8.555
 8327POPC   C2B36764  10.445  24.678   8.255
 8327POPC   C3B36765  10.372  24.704   7.955
 8327POPC   C4B36766  10.434  24.715   7.655
 8328POPC   NC336767  10.480  32.245   9.455
 8328POPC   PO436768  10.570  32.295   9.155
 8328POPC   GL136769  10.508  32.296   8.855
 8328POPC   GL236770  10.672  32.186   8.855
 8328POPC   C1A36771  10.507  32.207   8.555
 8328POPC   D2A36772  10.548  32.234   8.255
 8328POPC   C3A36773  10.573  32.281   7.955
 8328POPC   C4A36774  10.488  32.203   7.655
 8328POPC   C1B36775  10.727  32.252   8.555
 8328POPC   C2B36776  10.733  32.213   8.255
 8328POPC   C3B36777  10.743  32.198   7.955
 8328POPC   C4B36778  10.730  32.202   7.655
 8329POPC   NC336779  43.103   4.335   9.455
 8329POPC   PO436780  43.076   4.347   9.155
 8329POPC   GL136781  43.075   4.326   8.855
 8329POPC   GL236782  43.177   4.410   8.855
 8329POPC   C1A36783  43.073   4.289   8.555
 8329POPC   D2A36784  43.140   4.336   8.255
 8329POPC   C3A36785  43.144   4.301   7.955
 8329POPC   C4A36786  43.110   4.296   7.655
 8329POPC   C1B36787  43.128   4.573   8.555
 8329POPC   C2B36788  43.128   4.550   8.255
 8329POPC   C3B36789  43.165   4.600   7.955
 8329POPC   C4B36790  43.175   4.592   7.655
 8330POPC   NC336791  35.357  22.981   9.455
 8330POPC   PO436792  35.319  22.918   9.155
 8330POPC   GL136793  35.307  22.986   8.855
 8330POPC   GL236794  35.256  22.942   8.855
 8330POPC   C1A36795  35.316  22.909   8.555
 8330POPC   D2A36796  35.348  22.966   8.255
 8330POPC   C3A36797  35.324  22.912   7.955
 8330POPC   C4A36798  35.389  22.928   7.655
 8330POPC   C1B36799  35.115  22.864   8.555
 8330POPC   C2B36800  35.102  22.846   8.255
 8330POPC   C3B36801  35.106  22.888   7.955
 8330POPC   C4B36802  35.098  22.826   7.655
 8331POPC   NC336803  28.360   1.233   9.455
 8331POPC   PO436804  28.381   1.250   9.155
 8331POPC   GL136805  28.378   1.176   8.855
 8331POPC   GL236806  28.399   1.139   8.855
 8331POPC   C1A36807  28.345   1.165   8.555
 8331POPC   D2A36808  28.320   1.233   8.255
 8331POPC   C3A36809  28.345   1.232   7.955
 8331POPC   C4A36810  28.383   1.252   7.655
 8331POPC   C1B36811  28.470   1.005   8.555
 8331POPC   C2B36812  28.442   1.026   8.255
 8331POPC   C3B36813  28.435   0.945   7.955
 8331POPC   C4B36814  28.486   0.961   7.655
 8332POPC   NC336815  36.948  26.059   9.455
 8332POPC   PO436816  36.906  26.024   9.155
 8332POPC   GL136817  36.915  25.992   8.855
 8332POPC   GL236818  36.822  26.022   8.855
 8332POPC   C1A36819  36.914  26.025   8.555
 8332POPC   D2A36820  36.887  26.088   8.255
 8332POPC   C3A36821  36.865  26.059   7.955
 8332POPC   C4A36822  36.887  26.071   7.655
 8332POPC   C1B36823  36.646  26.031   8.555
 8332POPC   C2B36824  36.694  26.102   8.255
 8332POPC   C3B36825  36.640  26.075   7.955
 8332POPC   C4B36826  36.627  26.062   7.655
 8333POPC   NC336827  32.229  26.081   9.455
 8333POPC   PO436828  32.286  26.012   9.155
 8333POPC   GL136829  32.206  26.020   8.855
 8333POPC   GL236830  32.409  26.082   8.855
 8333POPC   C1A36831  32.201  26.006   8.555
 8333POPC   D2A36832  32.273  26.016   8.255
 8333POPC   C3A36833  32.228  26.027   7.955
 8333POPC   C4A36834  32.209  26.015   7.655
 8333POPC   C1B36835  32.512  26.148   8.555
 8333POPC   C2B36836  32.510  26.105   8.255
 8333POPC   C3B36837  32.500  26.077   7.955
 8333POPC   C4B36838  32.524  26.174   7.655
 8334POPC   NC336839   3.577  39.995   9.455
 8334POPC   PO436840   3.572  40.017   9.155
 8334POPC   GL136841   3.578  40.051   8.855
 8334POPC   GL236842   3.587  39.889   8.855
 8334POPC   C1A36843   3.564  40.027   8.555
 8334POPC   D2A36844   3.576  39.968   8.255
 8334POPC   C3A36845   3.498  40.006   7.955
 8334POPC   C4A36846   3.573  40.033   7.655
 8334POPC   C1B36847   3.674  39.800   8.555
 8334POPC   C2B36848   3.635  39.832   8.255
 8334POPC   C3B36849   3.705  39.788   7.955
 8334POPC   C4B36850   3.657  39.762   7.655
 8335POPC   NC336851  36.910  14.445   9.455
 8335POPC   PO436852  36.948  14.355   9.155
 8335POPC   GL136853  36.932  14.363   8.855
 8335POPC   GL236854  37.057  14.417   8.855
 8335POPC   C1A36855  36.857  14.424   8.555
 8335POPC   D2A36856  36.939  14.409   8.255
 8335POPC   C3A36857  36.865  14.363   7.955
 8335POPC   C4A36858  36.926  14.418   7.655
 8335POPC   C1B36859  37.151  14.409   8.555
 8335POPC   C2B36860  37.104  14.430   8.255
 8335POPC   C3B36861  37.111  14.412   7.955
 8335POPC   C4B36862  37.161  14.424   7.655
 8336POPC   NC336863  19.817  26.784   9.455
 8336POPC   PO436864  19.847  26.776   9.155
 8336POPC   GL136865  19.790  26.826   8.855
 8336POPC   GL236866  19.720  26.815   8.855
 8336POPC   C1A36867  19.871  26.843   8.555
 8336POPC   D2A36868  19.839  26.774   8.255
 8336POPC   C3A36869  19.798  26.808   7.955
 8336POPC   C4A36870  19.789  26.850   7.655
 8336POPC   C1B36871  19.603  26.757   8.555
 8336POPC   C2B36872  19.586  26.783   8.255
 8336POPC   C3B36873  19.582  26.731   7.955
 8336POPC   C4B36874  19.591  26.757   7.655
 8337POPC   NC336875  40.762  28.366   9.455
 8337POPC   PO436876  40.741  28.339   9.155
 8337POPC   GL136877  40.811  28.375   8.855
 8337POPC   GL236878  40.650  28.348   8.855
 8337POPC   C1A36879  40.798  28.345   8.555
 8337POPC   D2A36880  40.769  28.362   8.255
 8337POPC   C3A36881  40.760  28.370   7.955
 8337POPC   C4A36882  40.797  28.362   7.655
 8337POPC   C1B36883  40.568  28.300   8.555
 8337POPC   C2B36884  40.581  28.283   8.255
 8337POPC   C3B36885  40.575  28.292   7.955
 8337POPC   C4B36886  40.536  28.258   7.655
 8338POPC   NC336887  43.920  25.224   9.455
 8338POPC   PO436888  43.901  25.310   9.155
 8338POPC   GL136889  43.889  25.297   8.855
 8338POPC   GL236890  43.935  25.201   8.855
 8338POPC   C1A36891  43.888  25.234   8.555
 8338POPC   D2A36892  43.881  25.236   8.255
 8338POPC   C3A36893  43.913  25.255   7.955
 8338POPC   C4A36894  43.854  25.249   7.655
 8338POPC   C1B36895  44.032  25.067   8.555
 8338POPC   C2B36896  43.980  25.037   8.255
 8338POPC   C3B36897  43.970  25.013   7.955
 8338POPC   C4B36898  44.001  25.007   7.655
 8339POPC   NC336899  35.355   3.585   9.455
 8339POPC   PO436900  35.332   3.540   9.155
 8339POPC   GL136901  35.330   3.510   8.855
 8339POPC   GL236902  35.347   3.400   8.855
 8339POPC   C1A36903  35.302   3.586   8.555
 8339POPC   D2A36904  35.387   3.556   8.255
 8339POPC   C3A36905  35.346   3.511   7.955
 8339POPC   C4A36906  35.399   3.544   7.655
 8339POPC   C1B36907  35.373   3.340   8.555
 8339POPC   C2B36908  35.420   3.265   8.255
 8339POPC   C3B36909  35.398   3.320   7.955
 8339POPC   C4B36910  35.431   3.314   7.655
 8340POPC   NC336911  27.555  43.078   9.455
 8340POPC   PO436912  27.610  43.075   9.155
 8340POPC   GL136913  27.642  43.065   8.855
 8340POPC   GL236914  27.758  43.134   8.855
 8340POPC   C1A36915  27.636  43.072   8.555
 8340POPC   D2A36916  27.574  43.099   8.255
 8340POPC   C3A36917  27.614  43.062   7.955
 8340POPC   C4A36918  27.551  43.112   7.655
 8340POPC   C1B36919  27.806  43.075   8.555
 8340POPC   C2B36920  27.856  43.085   8.255
 8340POPC   C3B36921  27.886  43.133   7.955
 8340POPC   C4B36922  27.848  43.088   7.655
 8341POPC   NC336923  43.153  26.014   9.455
 8341POPC   PO436924  43.080  26.046   9.155
 8341POPC   GL136925  43.134  26.022   8.855
 8341POPC   GL236926  43.003  25.922   8.855
 8341POPC   C1A36927  43.071  26.083   8.555
 8341POPC   D2A36928  43.116  26.064   8.255
 8341POPC   C3A36929  43.068  26.087   7.955
 8341POPC   C4A36930  43.118  26.068   7.655
 8341POPC   C1B36931  43.017  25.777   8.555
 8341POPC   C2B36932  42.944  25.852   8.255
 8341POPC   C3B36933  42.947  25.828   7.955
 8341POPC   C4B36934  42.993  25.804   7.655
 8342POPC   NC336935  14.355  37.635   9.455
 8342POPC   PO436936  14.369  37.660   9.155
 8342POPC   GL136937  14.417  37.717   8.855
 8342POPC   GL236938  14.298  37.627   8.855
 8342POPC   C1A36939  14.434  37.640   8.555
 8342POPC   D2A36940  14.443  37.662   8.255
 8342POPC   C3A36941  14.377  37.657   7.955
 8342POPC   C4A36942  14.402  37.653   7.655
 8342POPC   C1B36943  14.164  37.584   8.555
 8342POPC   C2B36944  14.192  37.544   8.255
 8342POPC   C3B36945  14.216  37.588   7.955
 8342POPC   C4B36946  14.159  37.576   7.655
 8343POPC   NC336947  32.281  36.149   9.455
 8343POPC   PO436948  32.295  36.079   9.155
 8343POPC   GL136949  32.273  36.128   8.855
 8343POPC   GL236950  32.365  36.113   8.855
 8343POPC   C1A36951  32.199  36.102   8.555
 8343POPC   D2A36952  32.206  36.156   8.255
 8343POPC   C3A36953  32.251  36.081   7.955
 8343POPC   C4A36954  32.283  36.135   7.655
 8343POPC   C1B36955  32.451  36.029   8.555
 8343POPC   C2B36956  32.477  36.064   8.255
 8343POPC   C3B36957  32.532  36.088   7.955
 8343POPC   C4B36958  32.522  36.059   7.655
 8344POPC   NC336959   9.010  19.067   9.455
 8344POPC   PO436960   9.005  19.066   9.155
 8344POPC   GL136961   9.013  19.054   8.855
 8344POPC   GL236962   9.046  19.038   8.855
 8344POPC   C1A36963   8.967  19.097   8.555
 8344POPC   D2A36964   8.989  19.047   8.255
 8344POPC   C3A36965   8.975  19.048   7.955
 8344POPC   C4A36966   9.011  19.010   7.655
 8344POPC   C1B36967   9.172  18.894   8.555
 8344POPC   C2B36968   9.223  18.951   8.255
 8344POPC   C3B36969   9.165  18.969   7.955
 8344POPC   C4B36970   9.150  18.919   7.655
 8345POPC   NC336971   6.630   1.973   9.455
 8345POPC   PO436972   6.632   2.037   9.155
 8345POPC   GL136973   6.684   2.004   8.855
 8345POPC   GL236974   6.738   2.072   8.855
 8345POPC   C1A36975   6.693   1.967   8.555
 8345POPC   D2A36976   6.595   2.015   8.255
 8345POPC   C3A36977   6.595   2.037   7.955
 8345POPC   C4A36978   6.681   1.998   7.655
 8345POPC   C1B36979   6.856   2.156   8.555
 8345POPC   C2B36980   6.820   2.093   8.255
 8345POPC   C3B36981   6.833   2.091   7.955
 8345POPC   C4B36982   6.828   2.105   7.655
 8346POPC   NC336983   5.090  18.330   9.455
 8346POPC   PO436984   5.104  18.252   9.155
 8346POPC   GL136985   5.091  18.329   8.855
 8346POPC   GL236986   4.979  18.353   8.855
 8346POPC   C1A36987   5.050  18.318   8.555
 8346POPC   D2A36988   5.080  18.315   8.255
 8346POPC   C3A36989   5.108  18.276   7.955
 8346POPC   C4A36990   5.114  18.274   7.655
 8346POPC   C1B36991   4.943  18.488   8.555
 8346POPC   C2B36992   4.934  18.424   8.255
 8346POPC   C3B36993   4.884  18.478   7.955
 8346POPC   C4B36994   4.885  18.435   7.655
 8347POPC   NC336995  19.811   3.546   9.455
 8347POPC   PO436996  19.800   3.565   9.155
 8347POPC   GL136997  19.876   3.522   8.855
 8347POPC   GL236998  19.724   3.509   8.855
 8347POPC   C1A36999  19.869   3.517   8.555
 8347POPC   D2A37000  19.854   3.557   8.255
 8347POPC   C3A37001  19.802   3.539   7.955
 8347POPC   C4A37002  19.863   3.515   7.655
 8347POPC   C1B37003  19.543   3.527   8.555
 8347POPC   C2B37004  19.578   3.566   8.255
 8347POPC   C3B37005  19.619   3.509   7.955
 8347POPC   C4B37006  19.618   3.562   7.655
 8348POPC   NC337007   6.602  44.626   9.455
 8348POPC   PO437008   6.621  44.642   9.155
 8348POPC   GL137009   6.667  44.635   8.855
 8348POPC   GL237010   6.742  44.810   8.855
 8348POPC   C1A37011   6.657  44.664   8.555
 8348POPC   D2A37012   6.611  44.683   8.255
 8348POPC   C3A37013   6.628  44.697   7.955
 8348POPC   C4A37014   6.653  44.638   7.655
 8348POPC   C1B37015   6.826  44.841   8.555
 8348POPC   C2B37016   6.776  44.829   8.255
 8348POPC   C3B37017   6.798  44.885   7.955
 8348POPC   C4B37018   6.731  44.902   7.655
 8349POPC   NC337019   8.232   8.942   9.455
 8349POPC   PO437020   8.173   9.000   9.155
 8349POPC   GL137021   8.213   8.957   8.855
 8349POPC   GL237022   8.308   9.040   8.855
 8349POPC   C1A37023   8.169   8.989   8.555
 8349POPC   D2A37024   8.174   8.973   8.255
 8349POPC   C3A37025   8.236   9.007   7.955
 8349POPC   C4A37026   8.170   8.983   7.655
 8349POPC   C1B37027   8.365   9.117   8.555
 8349POPC   C2B37028   8.416   9.176   8.255
 8349POPC   C3B37029   8.405   9.125   7.955
 8349POPC   C4B37030   8.345   9.119   7.655
 8350POPC   NC337031  14.378  19.787   9.455
 8350POPC   PO437032  14.449  19.864   9.155
 8350POPC   GL137033  14.416  19.852   8.855
 8350POPC   GL237034  14.526  19.968   8.855
 8350POPC   C1A37035  14.380  19.824   8.555
 8350POPC   D2A37036  14.419  19.878   8.255
 8350POPC   C3A37037  14.407  19.828   7.955
 8350POPC   C4A37038  14.428  19.823   7.655
 8350POPC   C1B37039  14.571  20.042   8.555
 8350POPC   C2B37040  14.524  20.032   8.255
 8350POPC   C3B37041  14.606  20.017   7.955
 8350POPC   C4B37042  14.585  19.985   7.655
 8351POPC   NC337043  22.976  13.604   9.455
 8351POPC   PO437044  22.974  13.579   9.155
 8351POPC   GL137045  22.982  13.663   8.855
 8351POPC   GL237046  23.033  13.672   8.855
 8351POPC   C1A37047  22.908  13.654   8.555
 8351POPC   D2A37048  22.980  13.594   8.255
 8351POPC   C3A37049  22.957  13.665   7.955
 8351POPC   C4A37050  22.925  13.590   7.655
 8351POPC   C1B37051  23.197  13.688   8.555
 8351POPC   C2B37052  23.211  13.629   8.255
 8351POPC   C3B37053  23.235  13.696   7.955
 8351POPC   C4B37054  23.165  13.692   7.655
 8352POPC   NC337055  13.664  12.880   9.455
 8352POPC   PO437056  13.593  12.859   9.155
 8352POPC   GL137057  13.660  12.900   8.855
 8352POPC   GL237058  13.656  12.694   8.855
 8352POPC   C1A37059  13.663  12.844   8.555
 8352POPC   D2A37060  13.646  12.823   8.255
 8352POPC   C3A37061  13.647  12.850   7.955
 8352POPC   C4A37062  13.646  12.898   7.655
 8352POPC   C1B37063  13.710  12.584   8.555
 8352POPC   C2B37064  13.617  12.558   8.255
 8352POPC   C3B37065  13.694  12.562   7.955
 8352POPC   C4B37066  13.706  12.564   7.655
 8353POPC   NC337067  20.591  28.361   9.455
 8353POPC   PO437068  20.608  28.348   9.155
 8353POPC   GL137069  20.632  28.371   8.855
 8353POPC   GL237070  20.532  28.497   8.855
 8353POPC   C1A37071  20.584  28.412   8.555
 8353POPC   D2A37072  20.592  28.364   8.255
 8353POPC   C3A37073  20.578  28.319   7.955
 8353POPC   C4A37074  20.581  28.372   7.655
 8353POPC   C1B37075  20.434  28.569   8.555
 8353POPC   C2B37076  20.487  28.560   8.255
 8353POPC   C3B37077  20.412  28.587   7.955
 8353POPC   C4B37078  20.476  28.504   7.655
 8354POPC   NC337079  12.810  11.347   9.455
 8354POPC   PO437080  12.868  11.302   9.155
 8354POPC   GL137081  12.852  11.315   8.855
 8354POPC   GL237082  12.987  11.352   8.855
 8354POPC   C1A37083  12.877  11.307   8.555
 8354POPC   D2A37084  12.898  11.315   8.255
 8354POPC   C3A37085  12.829  11.303   7.955
 8354POPC   C4A37086  12.885  11.327   7.655
 8354POPC   C1B37087  13.116  11.382   8.555
 8354POPC   C2B37088  13.090  11.341   8.255
 8354POPC   C3B37089  13.117  11.371   7.955
 8354POPC   C4B37090  13.114  11.360   7.655
 8355POPC   NC337091  12.044  26.067   9.455
 8355POPC   PO437092  12.117  26.038   9.155
 8355POPC   GL137093  12.051  26.023   8.855
 8355POPC   GL237094  11.960  26.154   8.855
 8355POPC   C1A37095  12.027  26.039   8.555
 8355POPC   D2A37096  12.113  26.045   8.255
 8355POPC   C3A37097  12.096  26.085   7.955
 8355POPC   C4A37098  12.082  26.007   7.655
 8355POPC   C1B37099  11.902  26.185   8.555
 8355POPC   C2B37100  11.892  26.244   8.255
 8355POPC   C3B37101  11.855  26.255   7.955
 8355POPC   C4B37102  11.938  26.220   7.655
 8356POPC   NC337103  18.278  44.673   9.455
 8356POPC   PO437104  18.233  44.707   9.155
 8356POPC   GL137105  18.272  44.683   8.855
 8356POPC   GL237106  18.366  44.762   8.855
 8356POPC   C1A37107  18.307  44.619   8.555
 8356POPC   D2A37108  18.244  44.680   8.255
 8356POPC   C3A37109  18.293  44.671   7.955
 8356POPC   C4A37110  18.280  44.676   7.655
 8356POPC   C1B37111  18.437  44.896   8.555
 8356POPC   C2B37112  18.391  44.846   8.255
 8356POPC   C3B37113  18.384  44.876   7.955
 8356POPC   C4B37114  18.411  44.904   7.655
 8357POPC   NC337115  16.001  19.820   9.455
 8357POPC   PO437116  15.919  19.854   9.155
 8357POPC   GL137117  15.925  19.805   8.855
 8357POPC   GL237118  16.013  19.876   8.855
 8357POPC   C1A37119  15.926  19.834   8.555
 8357POPC   D2A37120  15.931  19.809   8.255
 8357POPC   C3A37121  15.993  19.820   7.955
 8357POPC   C4A37122  15.989  19.790   7.655
 8357POPC   C1B37123  16.207  19.979   8.555
 8357POPC   C2B37124  16.210  20.005   8.255
 8357POPC   C3B37125  16.163  19.986   7.955
 8357POPC   C4B37126  16.193  20.002   7.655
 8358POPC   NC337127  13.585  35.367   9.455
 8358POPC   PO437128  13.596  35.399   9.155
 8358POPC   GL137129  13.669  35.366   8.855
 8358POPC   GL237130  13.549  35.276   8.855
 8358POPC   C1A37131  13.652  35.321   8.555
 8358POPC   D2A37132  13.673  35.364   8.255
 8358POPC   C3A37133  13.578  35.395   7.955
 8358POPC   C4A37134  13.619  35.337   7.655
 8358POPC   C1B37135  13.425  35.209   8.555
 8358POPC   C2B37136  13.367  35.179   8.255
 8358POPC   C3B37137  13.367  35.181   7.955
 8358POPC   C4B37138  13.421  35.203   7.655
 8359POPC   NC337139  19.803  27.574   9.455
 8359POPC   PO437140  19.857  27.627   9.155
 8359POPC   GL137141  19.872  27.638   8.855
 8359POPC   GL237142  19.714  27.550   8.855
 8359POPC   C1A37143  19.879  27.607   8.555
 8359POPC   D2A37144  19.798  27.642   8.255
 8359POPC   C3A37145  19.873  27.594   7.955
 8359POPC   C4A37146  19.806  27.604   7.655
 8359POPC   C1B37147  19.609  27.520   8.555
 8359POPC   C2B37148  19.568  27.501   8.255
 8359POPC   C3B37149  19.604  27.496   7.955
 8359POPC   C4B37150  19.626  27.514   7.655
 8360POPC   NC337151  12.887  25.304   9.455
 8360POPC   PO437152  12.808  25.308   9.155
 8360POPC   GL137153  12.806  25.225   8.855
 8360POPC   GL237154  12.817  25.106   8.855
 8360POPC   C1A37155  12.849  25.279   8.555
 8360POPC   D2A37156  12.829  25.225   8.255
 8360POPC   C3A37157  12.897  25.315   7.955
 8360POPC   C4A37158  12.807  25.256   7.655
 8360POPC   C1B37159  12.825  25.062   8.555
 8360POPC   C2B37160  12.784  25.009   8.255
 8360POPC   C3B37161  12.788  25.063   7.955
 8360POPC   C4B37162  12.810  25.027   7.655
 8361POPC   NC337163   5.061   9.731   9.455
 8361POPC   PO437164   5.082   9.771   9.155
 8361POPC   GL137165   5.059   9.774   8.855
 8361POPC   GL237166   5.196   9.694   8.855
 8361POPC   C1A37167   5.127   9.767   8.555
 8361POPC   D2A37168   5.064   9.718   8.255
 8361POPC   C3A37169   5.107   9.789   7.955
 8361POPC   C4A37170   5.130   9.739   7.655
 8361POPC   C1B37171   5.250   9.596   8.555
 8361POPC   C2B37172   5.211   9.539   8.255
 8361POPC   C3B37173   5.283   9.554   7.955
 8361POPC   C4B37174   5.248   9.594   7.655
 8362POPC   NC337175  14.355  28.331   9.455
 8362POPC   PO437176  14.405  28.364   9.155
 8362POPC   GL137177  14.380  28.358   8.855
 8362POPC   GL237178  14.366  28.267   8.855
 8362POPC   C1A37179  14.425  28.365   8.555
 8362POPC   D2A37180  14.426  28.390   8.255
 8362POPC   C3A37181  14.387  28.326   7.955
 8362POPC   C4A37182  14.430  28.386   7.655
 8362POPC   C1B37183  14.372  28.096   8.555
 8362POPC   C2B37184  14.331  28.080   8.255
 8362POPC   C3B37185  14.383  28.106   7.955
 8362POPC   C4B37186  14.361  28.172   7.655
 8363POPC   NC337187   7.447  29.157   9.455
 8363POPC   PO437188   7.414  29.192   9.155
 8363POPC   GL137189   7.455  29.166   8.855
 8363POPC   GL237190   7.404  28.977   8.855
 8363POPC   C1A37191   7.462  29.153   8.555
 8363POPC   D2A37192   7.383  29.185   8.255
 8363POPC   C3A37193   7.430  29.106   7.955
 8363POPC   C4A37194   7.458  29.132   7.655
 8363POPC   C1B37195   7.429  28.849   8.555
 8363POPC   C2B37196   7.450  28.927   8.255
 8363POPC   C3B37197   7.494  28.887   7.955
 8363POPC   C4B37198   7.408  28.882   7.655
 8364POPC   NC337199  22.153  33.000   9.455
 8364POPC   PO437200  22.121  33.056   9.155
 8364POPC   GL137201  22.176  33.053   8.855
 8364POPC   GL237202  22.084  33.036   8.855
 8364POPC   C1A37203  22.162  33.023   8.555
 8364POPC   D2A37204  22.184  32.974   8.255
 8364POPC   C3A37205  22.157  32.978   7.955
 8364POPC   C4A37206  22.168  33.031   7.655
 8364POPC   C1B37207  21.939  33.029   8.555
 8364POPC   C2B37208  21.919  32.982   8.255
 8364POPC   C3B37209  21.894  32.992   7.955
 8364POPC   C4B37210  21.895  32.946   7.655
 8365POPC   NC337211   7.464  43.101   9.455
 8365POPC   PO437212   7.408  43.153   9.155
 8365POPC   GL137213   7.388  43.096   8.855
 8365POPC   GL237214   7.491  43.145   8.855
 8365POPC   C1A37215   7.437  43.106   8.555
 8365POPC   D2A37216   7.425  43.094   8.255
 8365POPC   C3A37217   7.420  43.133   7.955
 8365POPC   C4A37218   7.384  43.159   7.655
 8365POPC   C1B37219   7.670  43.170   8.555
 8365POPC   C2B37220   7.641  43.202   8.255
 8365POPC   C3B37221   7.622  43.174   7.955
 8365POPC   C4B37222   7.674  43.173   7.655
 8366POPC   NC337223  32.995  32.295   9.455
 8366POPC   PO437224  33.005  32.244   9.155
 8366POPC   GL137225  33.052  32.285   8.855
 8366POPC   GL237226  32.956  32.191   8.855
 8366POPC   C1A37227  33.074  32.288   8.555
 8366POPC   D2A37228  33.053  32.279   8.255
 8366POPC   C3A37229  33.037  32.232   7.955
 8366POPC   C4A37230  32.991  32.260   7.655
 8366POPC   C1B37231  32.838  32.129   8.555
 8366POPC   C2B37232  32.817  32.095   8.255
 8366POPC   C3B37233  32.866  32.056   7.955
 8366POPC   C4B37234  32.796  32.146   7.655
 8367POPC   NC337235  38.494  11.325   9.455
 8367POPC   PO437236  38.501  11.339   9.155
 8367POPC   GL137237  38.489  11.262   8.855
 8367POPC   GL237238  38.370  11.280   8.855
 8367POPC   C1A37239  38.486  11.341   8.555
 8367POPC   D2A37240  38.478  11.263   8.255
 8367POPC   C3A37241  38.407  11.267   7.955
 8367POPC   C4A37242  38.417  11.282   7.655
 8367POPC   C1B37243  38.167  11.309   8.555
 8367POPC   C2B37244  38.196  11.368   8.255
 8367POPC   C3B37245  38.213  11.315   7.955
 8367POPC   C4B37246  38.166  11.374   7.655
 8368POPC   NC337247  26.066  25.222   9.455
 8368POPC   PO437248  26.044  25.292   9.155
 8368POPC   GL137249  26.044  25.264   8.855
 8368POPC   GL237250  26.164  25.342   8.855
 8368POPC   C1A37251  26.011  25.221   8.555
 8368POPC   D2A37252  26.024  25.276   8.255
 8368POPC   C3A37253  26.041  25.239   7.955
 8368POPC   C4A37254  26.080  25.227   7.655
 8368POPC   C1B37255  26.242  25.411   8.555
 8368POPC   C2B37256  26.233  25.371   8.255
 8368POPC   C3B37257  26.254  25.365   7.955
 8368POPC   C4B37258  26.231  25.327   7.655
 8369POPC   NC337259   7.422  30.682   9.455
 8369POPC   PO437260   7.408  30.656   9.155
 8369POPC   GL137261   7.417  30.658   8.855
 8369POPC   GL237262   7.504  30.737   8.855
 8369POPC   C1A37263   7.427  30.674   8.555
 8369POPC   D2A37264   7.403  30.673   8.255
 8369POPC   C3A37265   7.401  30.711   7.955
 8369POPC   C4A37266   7.420  30.694   7.655
 8369POPC   C1B37267   7.616  30.778   8.555
 8369POPC   C2B37268   7.656  30.857   8.255
 8369POPC   C3B37269   7.648  30.815   7.955
 8369POPC   C4B37270   7.662  30.860   7.655
 8370POPC   NC337271  36.110   9.774   9.455
 8370POPC   PO437272  36.150   9.760   9.155
 8370POPC   GL137273  36.172   9.721   8.855
 8370POPC   GL237274  36.044   9.677   8.855
 8370POPC   C1A37275  36.177   9.776   8.555
 8370POPC   D2A37276  36.153   9.704   8.255
 8370POPC   C3A37277  36.162   9.779   7.955
 8370POPC   C4A37278  36.145   9.717   7.655
 8370POPC   C1B37279  35.950   9.577   8.555
 8370POPC   C2B37280  35.944   9.592   8.255
 8370POPC   C3B37281  35.907   9.608   7.955
 8370POPC   C4B37282  35.889   9.595   7.655
 8371POPC   NC337283   9.719  40.782   9.455
 8371POPC   PO437284   9.784  40.757   9.155
 8371POPC   GL137285   9.780  40.735   8.855
 8371POPC   GL237286   9.772  40.888   8.855
 8371POPC   C1A37287   9.706  40.798   8.555
 8371POPC   D2A37288   9.785  40.796   8.255
 8371POPC   C3A37289   9.728  40.800   7.955
 8371POPC   C4A37290   9.727  40.750   7.655
 8371POPC   C1B37291   9.910  40.996   8.555
 8371POPC   C2B37292   9.877  40.961   8.255
 8371POPC   C3B37293   9.837  41.010   7.955
 8371POPC   C4B37294   9.837  40.960   7.655
 8372POPC   NC337295  12.101  18.261   9.455
 8372POPC   PO437296  12.032  18.321   9.155
 8372POPC   GL137297  12.076  18.266   8.855
 8372POPC   GL237298  12.150  18.376   8.855
 8372POPC   C1A37299  12.102  18.244   8.555
 8372POPC   D2A37300  12.107  18.312   8.255
 8372POPC   C3A37301  12.053  18.291   7.955
 8372POPC   C4A37302  12.125  18.262   7.655
 8372POPC   C1B37303  12.178  18.506   8.555
 8372POPC   C2B37304  12.141  18.498   8.255
 8372POPC   C3B37305  12.217  18.508   7.955
 8372POPC   C4B37306  12.159  18.490   7.655
 8373POPC   NC337307  43.159  41.571   9.455
 8373POPC   PO437308  43.099  41.580   9.155
 8373POPC   GL137309  43.134  41.568   8.855
 8373POPC   GL237310  43.042  41.469   8.855
 8373POPC   C1A37311  43.082  41.580   8.555
 8373POPC   D2A37312  43.066  41.596   8.255
 8373POPC   C3A37313  43.098  41.542   7.955
 8373POPC   C4A37314  43.118  41.578   7.655
 8373POPC   C1B37315  42.900  41.448   8.555
 8373POPC   C2B37316  42.900  41.468   8.255
 8373POPC   C3B37317  42.842  41.488   7.955
 8373POPC   C4B37318  42.874  41.468   7.655
 8374POPC   NC337319  34.548  11.250   9.455
 8374POPC   PO437320  34.608  11.272   9.155
 8374POPC   GL137321  34.598  11.348   8.855
 8374POPC   GL237322  34.681  11.374   8.855
 8374POPC   C1A37323  34.545  11.296   8.555
 8374POPC   D2A37324  34.591  11.295   8.255
 8374POPC   C3A37325  34.578  11.265   7.955
 8374POPC   C4A37326  34.585  11.283   7.655
 8374POPC   C1B37327  34.795  11.432   8.555
 8374POPC   C2B37328  34.750  11.426   8.255
 8374POPC   C3B37329  34.796  11.393   7.955
 8374POPC   C4B37330  34.771  11.390   7.655
 8375POPC   NC337331  33.821  13.675   9.455
 8375POPC   PO437332  33.841  13.631   9.155
 8375POPC   GL137333  33.796  13.645   8.855
 8375POPC   GL237334  33.688  13.545   8.855
 8375POPC   C1A37335  33.798  13.662   8.555
 8375POPC   D2A37336  33.846  13.675   8.255
 8375POPC   C3A37337  33.785  13.646   7.955
 8375POPC   C4A37338  33.823  13.585   7.655
 8375POPC   C1B37339  33.584  13.543   8.555
 8375POPC   C2B37340  33.575  13.527   8.255
 8375POPC   C3B37341  33.583  13.556   7.955
 8375POPC   C4B37342  33.566  13.501   7.655
 8376POPC   NC337343  17.552  22.202   9.455
 8376POPC   PO437344  17.468  22.114   9.155
 8376POPC   GL137345  17.524  22.135   8.855
 8376POPC   GL237346  17.479  22.319   8.855
 8376POPC   C1A37347  17.522  22.198   8.555
 8376POPC   D2A37348  17.502  22.168   8.255
 8376POPC   C3A37349  17.492  22.211   7.955
 8376POPC   C4A37350  17.463  22.115   7.655
 8376POPC   C1B37351  17.419  22.417   8.555
 8376POPC   C2B37352  17.380  22.429   8.255
 8376POPC   C3B37353  17.345  22.407   7.955
 8376POPC   C4B37354  17.414  22.411   7.655
 8377POPC   NC337355  40.766   9.012   9.455
 8377POPC   PO437356  40.832   8.998   9.155
 8377POPC   GL137357  40.780   9.021   8.855
 8377POPC   GL237358  40.767   9.074   8.855
 8377POPC   C1A37359  40.809   8.933   8.555
 8377POPC   D2A37360  40.770   8.996   8.255
 8377POPC   C3A37361  40.802   8.974   7.955
 8377POPC   C4A37362  40.754   8.978   7.655
 8377POPC   C1B37363  40.802   9.241   8.555
 8377POPC   C2B37364  40.833   9.248   8.255
 8377POPC   C3B37365  40.754   9.267   7.955
 8377POPC   C4B37366  40.751   9.252   7.655
 8378POPC   NC337367  44.700  30.739   9.455
 8378POPC   PO437368  44.664  30.740   9.155
 8378POPC   GL137369  44.641  30.669   8.855
 8378POPC   GL237370  44.651  30.610   8.855
 8378POPC   C1A37371  44.704  30.689   8.555
 8378POPC   D2A37372  44.617  30.734   8.255
 8378POPC   C3A37373  44.636  30.668   7.955
 8378POPC   C4A37374  44.655  30.720   7.655
 8378POPC   C1B37375  44.718  30.504   8.555
 8378POPC   C2B37376  44.711  30.456   8.255
 8378POPC   C3B37377  44.763  30.465   7.955
 8378POPC   C4B37378  44.721  30.451   7.655
 8379POPC   NC337379   9.774   6.676   9.455
 8379POPC   PO437380   9.718   6.627   9.155
 8379POPC   GL137381   9.797   6.626   8.855
 8379POPC   GL237382   9.746   6.505   8.855
 8379POPC   C1A37383   9.726   6.623   8.555
 8379POPC   D2A37384   9.740   6.644   8.255
 8379POPC   C3A37385   9.721   6.686   7.955
 8379POPC   C4A37386   9.759   6.626   7.655
 8379POPC   C1B37387   9.814   6.413   8.555
 8379POPC   C2B37388   9.852   6.374   8.255
 8379POPC   C3B37389   9.834   6.451   7.955
 8379POPC   C4B37390   9.833   6.378   7.655
 8380POPC   NC337391  29.188  15.199   9.455
 8380POPC   PO437392  29.132  15.222   9.155
 8380POPC   GL137393  29.122  15.179   8.855
 8380POPC   GL237394  29.061  15.195   8.855
 8380POPC   C1A37395  29.175  15.143   8.555
 8380POPC   D2A37396  29.098  15.133   8.255
 8380POPC   C3A37397  29.188  15.155   7.955
 8380POPC   C4A37398  29.127  15.134   7.655
 8380POPC   C1B37399  28.910  15.205   8.555
 8380POPC   C2B37400  28.882  15.199   8.255
 8380POPC   C3B37401  28.939  15.227   7.955
 8380POPC   C4B37402  28.885  15.230   7.655
 8381POPC   NC337403   5.868  37.692   9.455
 8381POPC   PO437404   5.854  37.631   9.155
 8381POPC   GL137405   5.906  37.651   8.855
 8381POPC   GL237406   5.904  37.755   8.855
 8381POPC   C1A37407   5.860  37.684   8.555
 8381POPC   D2A37408   5.825  37.675   8.255
 8381POPC   C3A37409   5.864  37.715   7.955
 8381POPC   C4A37410   5.831  37.649   7.655
 8381POPC   C1B37411   5.808  37.969   8.555
 8381POPC   C2B37412   5.865  37.968   8.255
 8381POPC   C3B37413   5.823  37.947   7.955
 8381POPC   C4B37414   5.843  37.957   7.655
 8382POPC   NC337415  36.860  32.288   9.455
 8382POPC   PO437416  36.888  32.230   9.155
 8382POPC   GL137417  36.933  32.238   8.855
 8382POPC   GL237418  37.075  32.244   8.855
 8382POPC   C1A37419  36.891  32.207   8.555
 8382POPC   D2A37420  36.917  32.257   8.255
 8382POPC   C3A37421  36.873  32.204   7.955
 8382POPC   C4A37422  36.944  32.262   7.655
 8382POPC   C1B37423  37.196  32.269   8.555
 8382POPC   C2B37424  37.104  32.221   8.255
 8382POPC   C3B37425  37.164  32.212   7.955
 8382POPC   C4B37426  37.104  32.264   7.655
 8383POPC   NC337427   3.551  18.253   9.455
 8383POPC   PO437428   3.521  18.242   9.155
 8383POPC   GL137429   3.505  18.236   8.855
 8383POPC   GL237430   3.516  18.392   8.855
 8383POPC   C1A37431   3.551  18.241   8.555
 8383POPC   D2A37432   3.566  18.324   8.255
 8383POPC   C3A37433   3.551  18.297   7.955
 8383POPC   C4A37434   3.585  18.290   7.655
 8383POPC   C1B37435   3.460  18.562   8.555
 8383POPC   C2B37436   3.509  18.505   8.255
 8383POPC   C3B37437   3.517  18.541   7.955
 8383POPC   C4B37438   3.489  18.477   7.655
 8384POPC   NC337439  36.928   5.044   9.455
 8384POPC   PO437440  36.886   5.127   9.155
 8384POPC   GL137441  36.915   5.070   8.855
 8384POPC   GL237442  36.915   5.207   8.855
 8384POPC   C1A37443  36.949   5.118   8.555
 8384POPC   D2A37444  36.901   5.092   8.255
 8384POPC   C3A37445  36.881   5.045   7.955
 8384POPC   C4A37446  36.883   5.069   7.655
 8384POPC   C1B37447  36.849   5.307   8.555
 8384POPC   C2B37448  36.937   5.297   8.255
 8384POPC   C3B37449  36.852   5.386   7.955
 8384POPC   C4B37450  36.852   5.294   7.655
 8385POPC   NC337451   4.352  40.056   9.455
 8385POPC   PO437452   4.345  39.984   9.155
 8385POPC   GL137453   4.363  40.019   8.855
 8385POPC   GL237454   4.357  39.963   8.855
 8385POPC   C1A37455   4.294  40.024   8.555
 8385POPC   D2A37456   4.302  40.043   8.255
 8385POPC   C3A37457   4.320  39.960   7.955
 8385POPC   C4A37458   4.314  40.014   7.655
 8385POPC   C1B37459   4.485  39.798   8.555
 8385POPC   C2B37460   4.491  39.853   8.255
 8385POPC   C3B37461   4.458  39.866   7.955
 8385POPC   C4B37462   4.464  39.856   7.655
 8386POPC   NC337463  14.435   8.208   9.455
 8386POPC   PO437464  14.441   8.211   9.155
 8386POPC   GL137465  14.414   8.206   8.855
 8386POPC   GL237466  14.417   8.073   8.855
 8386POPC   C1A37467  14.432   8.223   8.555
 8386POPC   D2A37468  14.361   8.166   8.255
 8386POPC   C3A37469  14.391   8.184   7.955
 8386POPC   C4A37470  14.432   8.233   7.655
 8386POPC   C1B37471  14.344   7.973   8.555
 8386POPC   C2B37472  14.307   7.976   8.255
 8386POPC   C3B37473  14.307   7.915   7.955
 8386POPC   C4B37474  14.333   7.932   7.655
 8387POPC   NC337475  31.449   5.846   9.455
 8387POPC   PO437476  31.458   5.896   9.155
 8387POPC   GL137477  31.440   5.847   8.855
 8387POPC   GL237478  31.571   5.738   8.855
 8387POPC   C1A37479  31.458   5.867   8.555
 8387POPC   D2A37480  31.493   5.838   8.255
 8387POPC   C3A37481  31.429   5.841   7.955
 8387POPC   C4A37482  31.460   5.847   7.655
 8387POPC   C1B37483  31.624   5.613   8.555
 8387POPC   C2B37484  31.604   5.659   8.255
 8387POPC   C3B37485  31.641   5.619   7.955
 8387POPC   C4B37486  31.589   5.705   7.655
 8388POPC   NC337487  31.482  31.469   9.455
 8388POPC   PO437488  31.424  31.435   9.155
 8388POPC   GL137489  31.484  31.499   8.855
 8388POPC   GL237490  31.636  31.509   8.855
 8388POPC   C1A37491  31.516  31.460   8.555
 8388POPC   D2A37492  31.516  31.490   8.255
 8388POPC   C3A37493  31.465  31.507   7.955
 8388POPC   C4A37494  31.437  31.505   7.655
 8388POPC   C1B37495  31.767  31.438   8.555
 8388POPC   C2B37496  31.736  31.429   8.255
 8388POPC   C3B37497  31.694  31.501   7.955
 8388POPC   C4B37498  31.711  31.525   7.655
 8389POPC   NC337499  25.253  32.257   9.455
 8389POPC   PO437500  25.287  32.289   9.155
 8389POPC   GL137501  25.248  32.212   8.855
 8389POPC   GL237502  25.323  32.367   8.855
 8389POPC   C1A37503  25.234  32.238   8.555
 8389POPC   D2A37504  25.283  32.283   8.255
 8389POPC   C3A37505  25.262  32.285   7.955
 8389POPC   C4A37506  25.258  32.270   7.655
 8389POPC   C1B37507  25.510  32.432   8.555
 8389POPC   C2B37508  25.458  32.433   8.255
 8389POPC   C3B37509  25.460  32.356   7.955
 8389POPC   C4B37510  25.451  32.375   7.655
 8390POPC   NC337511  36.155  16.711   9.455
 8390POPC   PO437512  36.131  16.764   9.155
 8390POPC   GL137513  36.137  16.741   8.855
 8390POPC   GL237514  36.048  16.690   8.855
 8390POPC   C1A37515  36.136  16.729   8.555
 8390POPC   D2A37516  36.142  16.753   8.255
 8390POPC   C3A37517  36.084  16.696   7.955
 8390POPC   C4A37518  36.171  16.712   7.655
 8390POPC   C1B37519  35.928  16.628   8.555
 8390POPC   C2B37520  35.910  16.676   8.255
 8390POPC   C3B37521  35.889  16.671   7.955
 8390POPC   C4B37522  35.904  16.620   7.655
 8391POPC   NC337523  12.118  35.393   9.455
 8391POPC   PO437524  12.075  35.308   9.155
 8391POPC   GL137525  12.117  35.324   8.855
 8391POPC   GL237526  12.112  35.484   8.855
 8391POPC   C1A37527  12.033  35.379   8.555
 8391POPC   D2A37528  12.027  35.339   8.255
 8391POPC   C3A37529  12.046  35.376   7.955
 8391POPC   C4A37530  12.097  35.360   7.655
 8391POPC   C1B37531  12.239  35.590   8.555
 8391POPC   C2B37532  12.179  35.566   8.255
 8391POPC   C3B37533  12.205  35.538   7.955
 8391POPC   C4B37534  12.211  35.560   7.655
 8392POPC   NC337535  12.813  19.012   9.455
 8392POPC   PO437536  12.873  19.091   9.155
 8392POPC   GL137537  12.809  19.061   8.855
 8392POPC   GL237538  12.936  19.136   8.855
 8392POPC   C1A37539  12.854  19.073   8.555
 8392POPC   D2A37540  12.851  19.087   8.255
 8392POPC   C3A37541  12.845  19.020   7.955
 8392POPC   C4A37542  12.835  19.108   7.655
 8392POPC   C1B37543  13.066  19.207   8.555
 8392POPC   C2B37544  13.096  19.192   8.255
 8392POPC   C3B37545  13.033  19.211   7.955
 8392POPC   C4B37546  13.044  19.120   7.655
 8393POPC   NC337547  39.274  28.412   9.455
 8393POPC   PO437548  39.188  28.369   9.155
 8393POPC   GL137549  39.237  28.326   8.855
 8393POPC   GL237550  39.119  28.480   8.855
 8393POPC   C1A37551  39.223  28.367   8.555
 8393POPC   D2A37552  39.188  28.392   8.255
 8393POPC   C3A37553  39.213  28.329   7.955
 8393POPC   C4A37554  39.249  28.382   7.655
 8393POPC   C1B37555  38.989  28.475   8.555
 8393POPC   C2B37556  39.016  28.487   8.255
 8393POPC   C3B37557  39.052  28.457   7.955
 8393POPC   C4B37558  39.001  28.453   7.655
 8394POPC   NC337559   7.393  15.161   9.455
 8394POPC   PO437560   7.454  15.184   9.155
 8394POPC   GL137561   7.426  15.182   8.855
 8394POPC   GL237562   7.482  15.037   8.855
 8394POPC   C1A37563   7.422  15.133   8.555
 8394POPC   D2A37564   7.380  15.207   8.255
 8394POPC   C3A37565   7.428  15.157   7.955
 8394POPC   C4A37566   7.406  15.227   7.655
 8394POPC   C1B37567   7.482  14.940   8.555
 8394POPC   C2B37568   7.533  14.965   8.255
 8394POPC   C3B37569   7.520  14.956   7.955
 8394POPC   C4B37570   7.460  14.920   7.655
 8395POPC   NC337571   0.423  42.383   9.455
 8395POPC   PO437572   0.422  42.334   9.155
 8395POPC   GL137573   0.480  42.360   8.855
 8395POPC   GL237574   0.543  42.472   8.855
 8395POPC   C1A37575   0.466  42.344   8.555
 8395POPC   D2A37576   0.467  42.334   8.255
 8395POPC   C3A37577   0.406  42.348   7.955
 8395POPC   C4A37578   0.466  42.302   7.655
 8395POPC   C1B37579   0.579  42.576   8.555
 8395POPC   C2B37580   0.593  42.499   8.255
 8395POPC   C3B37581   0.546  42.498   7.955
 8395POPC   C4B37582   0.586  42.557   7.655
 8396POPC   NC337583  12.854   8.236   9.455
 8396POPC   PO437584  12.837   8.181   9.155
 8396POPC   GL137585  12.843   8.208   8.855
 8396POPC   GL237586  13.008   8.102   8.855
 8396POPC   C1A37587  12.839   8.237   8.555
 8396POPC   D2A37588  12.844   8.183   8.255
 8396POPC   C3A37589  12.837   8.236   7.955
 8396POPC   C4A37590  12.834   8.189   7.655
 8396POPC   C1B37591  13.034   8.108   8.555
 8396POPC   C2B37592  13.075   8.049   8.255
 8396POPC   C3B37593  13.087   8.077   7.955
 8396POPC   C4B37594  13.110   8.051   7.655
 8397POPC   NC337595  35.320  20.634   9.455
 8397POPC   PO437596  35.366  20.619   9.155
 8397POPC   GL137597  35.318  20.604   8.855
 8397POPC   GL237598  35.273  20.726   8.855
 8397POPC   C1A37599  35.389  20.593   8.555
 8397POPC   D2A37600  35.332  20.623   8.255
 8397POPC   C3A37601  35.385  20.603   7.955
 8397POPC   C4A37602  35.346  20.660   7.655
 8397POPC   C1B37603  35.146  20.787   8.555
 8397POPC   C2B37604  35.162  20.742   8.255
 8397POPC   C3B37605  35.122  20.746   7.955
 8397POPC   C4B37606  35.120  20.723   7.655
 8398POPC   NC337607   8.166  17.510   9.455
 8398POPC   PO437608   8.213  17.508   9.155
 8398POPC   GL137609   8.195  17.487   8.855
 8398POPC   GL237610   8.166  17.676   8.855
 8398POPC   C1A37611   8.187  17.503   8.555
 8398POPC   D2A37612   8.180  17.505   8.255
 8398POPC   C3A37613   8.169  17.543   7.955
 8398POPC   C4A37614   8.172  17.517   7.655
 8398POPC   C1B37615   8.196  17.733   8.555
 8398POPC   C2B37616   8.211  17.764   8.255
 8398POPC   C3B37617   8.239  17.706   7.955
 8398POPC   C4B37618   8.180  17.718   7.655
 8399POPC   NC337619  17.528  20.655   9.455
 8399POPC   PO437620  17.468  20.571   9.155
 8399POPC   GL137621  17.522  20.568   8.855
 8399POPC   GL237622  17.490  20.708   8.855
 8399POPC   C1A37623  17.473  20.582   8.555
 8399POPC   D2A37624  17.458  20.659   8.255
 8399POPC   C3A37625  17.458  20.563   7.955
 8399POPC   C4A37626  17.512  20.630   7.655
 8399POPC   C1B37627  17.433  20.888   8.555
 8399POPC   C2B37628  17.483  20.829   8.255
 8399POPC   C3B37629  17.459  20.838   7.955
 8399POPC   C4B37630  17.442  20.897   7.655
 8400POPC   NC337631  33.038  29.966   9.455
 8400POPC   PO437632  32.980  29.935   9.155
 8400POPC   GL137633  33.010  29.915   8.855
 8400POPC   GL237634  32.920  29.956   8.855
 8400POPC   C1A37635  33.028  29.891   8.555
 8400POPC   D2A37636  33.042  29.914   8.255
 8400POPC   C3A37637  33.064  29.877   7.955
 8400POPC   C4A37638  32.985  29.890   7.655
 8400POPC   C1B37639  32.737  29.966   8.555
 8400POPC   C2B37640  32.821  29.916   8.255
 8400POPC   C3B37641  32.786  29.903   7.955
 8400POPC   C4B37642  32.802  29.895   7.655
 8401POPC   NC337643   2.734  33.777   9.455
 8401POPC   PO437644   2.740  33.818   9.155
 8401POPC   GL137645   2.792  33.838   8.855
 8401POPC   GL237646   2.884  33.651   8.855
 8401POPC   C1A37647   2.724  33.848   8.555
 8401POPC   D2A37648   2.795  33.786   8.255
 8401POPC   C3A37649   2.773  33.757   7.955
 8401POPC   C4A37650   2.757  33.752   7.655
 8401POPC   C1B37651   2.886  33.591   8.555
 8401POPC   C2B37652   2.894  33.609   8.255
 8401POPC   C3B37653   2.892  33.599   7.955
 8401POPC   C4B37654   2.936  33.648   7.655
 8402POPC   NC337655  36.920   9.738   9.455
 8402POPC   PO437656  36.871   9.731   9.155
 8402POPC   GL137657  36.923   9.745   8.855
 8402POPC   GL237658  36.925   9.609   8.855
 8402POPC   C1A37659  36.863   9.771   8.555
 8402POPC   D2A37660  36.860   9.718   8.255
 8402POPC   C3A37661  36.913   9.756   7.955
 8402POPC   C4A37662  36.909   9.706   7.655
 8402POPC   C1B37663  36.905   9.455   8.555
 8402POPC   C2B37664  36.946   9.495   8.255
 8402POPC   C3B37665  36.922   9.470   7.955
 8402POPC   C4B37666  36.946   9.549   7.655
 8403POPC   NC337667  24.448  26.004   9.455
 8403POPC   PO437668  24.452  26.059   9.155
 8403POPC   GL137669  24.516  26.057   8.855
 8403POPC   GL237670  24.398  25.912   8.855
 8403POPC   C1A37671  24.492  26.085   8.555
 8403POPC   D2A37672  24.475  25.995   8.255
 8403POPC   C3A37673  24.487  26.052   7.955
 8403POPC   C4A37674  24.460  26.029   7.655
 8403POPC   C1B37675  24.340  25.803   8.555
 8403POPC   C2B37676  24.314  25.816   8.255
 8403POPC   C3B37677  24.351  25.811   7.955
 8403POPC   C4B37678  24.390  25.798   7.655
 8404POPC   NC337679   6.605  43.922   9.455
 8404POPC   PO437680   6.597  43.878   9.155
 8404POPC   GL137681   6.619  43.839   8.855
 8404POPC   GL237682   6.662  43.765   8.855
 8404POPC   C1A37683   6.616  43.852   8.555
 8404POPC   D2A37684   6.666  43.849   8.255
 8404POPC   C3A37685   6.651  43.856   7.955
 8404POPC   C4A37686   6.603  43.913   7.655
 8404POPC   C1B37687   6.735  43.666   8.555
 8404POPC   C2B37688   6.699  43.678   8.255
 8404POPC   C3B37689   6.683  43.656   7.955
 8404POPC   C4B37690   6.649  43.644   7.655
 8405POPC   NC337691  41.596  44.666   9.455
 8405POPC   PO437692  41.590  44.679   9.155
 8405POPC   GL137693  41.595  44.635   8.855
 8405POPC   GL237694  41.483  44.723   8.855
 8405POPC   C1A37695  41.536  44.613   8.555
 8405POPC   D2A37696  41.522  44.619   8.255
 8405POPC   C3A37697  41.542  44.678   7.955
 8405POPC   C4A37698  41.582  44.628   7.655
 8405POPC   C1B37699  41.328  44.803   8.555
 8405POPC   C2B37700  41.317  44.831   8.255
 8405POPC   C3B37701  41.322  44.779   7.955
 8405POPC   C4B37702  41.375  44.795   7.655
 8406POPC   NC337703  14.401  13.589   9.455
 8406POPC   PO437704  14.421  13.619   9.155
 8406POPC   GL137705  14.426  13.623   8.855
 8406POPC   GL237706  14.235  13.549   8.855
 8406POPC   C1A37707  14.413  13.596   8.555
 8406POPC   D2A37708  14.391  13.588   8.255
 8406POPC   C3A37709  14.401  13.594   7.955
 8406POPC   C4A37710  14.447  13.673   7.655
 8406POPC   C1B37711  14.153  13.539   8.555
 8406POPC   C2B37712  14.174  13.573   8.255
 8406POPC   C3B37713  14.133  13.585   7.955
 8406POPC   C4B37714  14.175  13.612   7.655
 8407POPC   NC337715  12.075  32.994   9.455
 8407POPC   PO437716  12.056  33.008   9.155
 8407POPC   GL137717  12.083  32.976   8.855
 8407POPC   GL237718  12.015  32.888   8.855
 8407POPC   C1A37719  12.028  33.002   8.555
 8407POPC   D2A37720  12.032  32.996   8.255
 8407POPC   C3A37721  12.120  33.060   7.955
 8407POPC   C4A37722  12.031  32.993   7.655
 8407POPC   C1B37723  12.064  32.752   8.555
 8407POPC   C2B37724  12.063  32.747   8.255
 8407POPC   C3B37725  12.088  32.814   7.955
 8407POPC   C4B37726  12.055  32.774   7.655
 8408POPC   NC337727  43.921  43.888   9.455
 8408POPC   PO437728  43.852  43.880   9.155
 8408POPC   GL137729  43.929  43.881   8.855
 8408POPC   GL237730  43.864  43.780   8.855
 8408POPC   C1A37731  43.912  43.913   8.555
 8408POPC   D2A37732  43.866  43.868   8.255
 8408POPC   C3A37733  43.856  43.849   7.955
 8408POPC   C4A37734  43.878  43.860   7.655
 8408POPC   C1B37735  43.849  43.667   8.555
 8408POPC   C2B37736  43.808  43.613   8.255
 8408POPC   C3B37737  43.849  43.597   7.955
 8408POPC   C4B37738  43.855  43.598   7.655
 8409POPC   NC337739  16.766  26.016   9.455
 8409POPC   PO437740  16.729  26.056   9.155
 8409POPC   GL137741  16.721  26.076   8.855
 8409POPC   GL237742  16.617  25.955   8.855
 8409POPC   C1A37743  16.707  26.007   8.555
 8409POPC   D2A37744  16.725  25.992   8.255
 8409POPC   C3A37745  16.752  26.089   7.955
 8409POPC   C4A37746  16.689  26.022   7.655
 8409POPC   C1B37747  16.544  25.800   8.555
 8409POPC   C2B37748  16.556  25.882   8.255
 8409POPC   C3B37749  16.600  25.853   7.955
 8409POPC   C4B37750  16.526  25.816   7.655
 8410POPC   NC337751  28.374  34.580   5.555
 8410POPC   PO437752  28.324  34.576   5.855
 8410POPC   GL137753  28.385  34.531   6.155
 8410POPC   GL237754  28.360  34.406   6.155
 8410POPC   C1A37755  28.326  34.537   6.455
 8410POPC   D2A37756  28.339  34.595   6.755
 8410POPC   C3A37757  28.378  34.591   7.055
 8410POPC   C4A37758  28.384  34.613   7.355
 8410POPC   C1B37759  28.356  34.301   6.455
 8410POPC   C2B37760  28.339  34.338   6.755
 8410POPC   C3B37761  28.331  34.287   7.055
 8410POPC   C4B37762  28.345  34.316   7.355
 8411POPC   NC337763  33.065  32.250   5.555
 8411POPC   PO437764  33.030  32.225   5.855
 8411POPC   GL137765  33.038  32.252   6.155
 8411POPC   GL237766  32.929  32.188   6.155
 8411POPC   C1A37767  33.017  32.205   6.455
 8411POPC   D2A37768  32.981  32.206   6.755
 8411POPC   C3A37769  33.003  32.238   7.055
 8411POPC   C4A37770  33.047  32.233   7.355
 8411POPC   C1B37771  32.928  32.049   6.455
 8411POPC   C2B37772  32.921  32.044   6.755
 8411POPC   C3B37773  32.933  32.042   7.055
 8411POPC   C4B37774  32.910  31.980   7.355
 8412POPC   NC337775  22.179  12.094   5.555
 8412POPC   PO437776  22.211  12.070   5.855
 8412POPC   GL137777  22.171  12.081   6.155
 8412POPC   GL237778  22.243  11.941   6.155
 8412POPC   C1A37779  22.150  12.044   6.455
 8412POPC   D2A37780  22.204  12.069   6.755
 8412POPC   C3A37781  22.208  12.042   7.055
 8412POPC   C4A37782  22.154  12.070   7.355
 8412POPC   C1B37783  22.329  11.889   6.455
 8412POPC   C2B37784  22.249  11.816   6.755
 8412POPC   C3B37785  22.297  11.865   7.055
 8412POPC   C4B37786  22.296  11.861   7.355
 8413POPC   NC337787  31.449  36.136   5.555
 8413POPC   PO437788  31.498  36.177   5.855
 8413POPC   GL137789  31.428  36.103   6.155
 8413POPC   GL237790  31.574  36.069   6.155
 8413POPC   C1A37791  31.488  36.097   6.455
 8413POPC   D2A37792  31.432  36.150   6.755
 8413POPC   C3A37793  31.499  36.130   7.055
 8413POPC   C4A37794  31.461  36.108   7.355
 8413POPC   C1B37795  31.692  35.945   6.455
 8413POPC   C2B37796  31.622  35.967   6.755
 8413POPC   C3B37797  31.653  35.996   7.055
 8413POPC   C4B37798  31.708  35.949   7.355
 8414POPC   NC337799  15.187  12.885   5.555
 8414POPC   PO437800  15.146  12.829   5.855
 8414POPC   GL137801  15.175  12.866   6.155
 8414POPC   GL237802  15.027  12.970   6.155
 8414POPC   C1A37803  15.210  12.875   6.455
 8414POPC   D2A37804  15.195  12.828   6.755
 8414POPC   C3A37805  15.146  12.900   7.055
 8414POPC   C4A37806  15.193  12.821   7.355
 8414POPC   C1B37807  14.925  12.944   6.455
 8414POPC   C2B37808  14.922  12.967   6.755
 8414POPC   C3B37809  14.988  12.997   7.055
 8414POPC   C4B37810  15.017  13.030   7.355
 8415POPC   NC337811  16.692  24.452   5.555
 8415POPC   PO437812  16.690  24.489   5.855
 8415POPC   GL137813  16.746  24.511   6.155
 8415POPC   GL237814  16.825  24.620   6.155
 8415POPC   C1A37815  16.709  24.535   6.455
 8415POPC   D2A37816  16.767  24.466   6.755
 8415POPC   C3A37817  16.725  24.451   7.055
 8415POPC   C4A37818  16.704  24.450   7.355
 8415POPC   C1B37819  16.873  24.727   6.455
 8415POPC   C2B37820  16.876  24.712   6.755
 8415POPC   C3B37821  16.883  24.678   7.055
 8415POPC   C4B37822  16.917  24.648   7.355
 8416POPC   NC337823  23.706   8.242   5.555
 8416POPC   PO437824  23.692   8.176   5.855
 8416POPC   GL137825  23.711   8.246   6.155
 8416POPC   GL237826  23.806   8.230   6.155
 8416POPC   C1A37827  23.749   8.243   6.455
 8416POPC   D2A37828  23.703   8.188   6.755
 8416POPC   C3A37829  23.729   8.223   7.055
 8416POPC   C4A37830  23.676   8.214   7.355
 8416POPC   C1B37831  23.914   8.222   6.455
 8416POPC   C2B37832  24.003   8.233   6.755
 8416POPC   C3B37833  23.999   8.219   7.055
 8416POPC   C4B37834  23.983   8.242   7.355
 8417POPC   NC337835  43.117  12.893   5.555
 8417POPC   PO437836  43.135  12.867   5.855
 8417POPC   GL137837  43.073  12.856   6.155
 8417POPC   GL237838  43.203  12.819   6.155
 8417POPC   C1A37839  43.100  12.892   6.455
 8417POPC   D2A37840  43.092  12.888   6.755
 8417POPC   C3A37841  43.087  12.836   7.055
 8417POPC   C4A37842  43.151  12.887   7.355
 8417POPC   C1B37843  43.321  12.735   6.455
 8417POPC   C2B37844  43.345  12.747   6.755
 8417POPC   C3B37845  43.374  12.716   7.055
 8417POPC   C4B37846  43.300  12.767   7.355
 8418POPC   NC337847  36.948  39.262   5.555
 8418POPC   PO437848  36.912  39.215   5.855
 8418POPC   GL137849  36.859  39.262   6.155
 8418POPC   GL237850  37.041  39.289   6.155
 8418POPC   C1A37851  36.937  39.247   6.455
 8418POPC   D2A37852  36.905  39.256   6.755
 8418POPC   C3A37853  36.932  39.199   7.055
 8418POPC   C4A37854  36.943  39.252   7.355
 8418POPC   C1B37855  37.068  39.408   6.455
 8418POPC   C2B37856  37.134  39.437   6.755
 8418POPC   C3B37857  37.147  39.410   7.055
 8418POPC   C4B37858  37.101  39.366   7.355
 8419POPC   NC337859  15.207  32.206   5.555
 8419POPC   PO437860  15.167  32.287   5.855
 8419POPC   GL137861  15.197  32.207   6.155
 8419POPC   GL237862  15.330  32.244   6.155
 8419POPC   C1A37863  15.171  32.198   6.455
 8419POPC   D2A37864  15.135  32.210   6.755
 8419POPC   C3A37865  15.227  32.211   7.055
 8419POPC   C4A37866  15.222  32.249   7.355
 8419POPC   C1B37867  15.422  32.284   6.455
 8419POPC   C2B37868  15.430  32.287   6.755
 8419POPC   C3B37869  15.447  32.308   7.055
 8419POPC   C4B37870  15.473  32.311   7.355
 8420POPC   NC337871  28.377  28.373   5.555
 8420POPC   PO437872  28.371  28.343   5.855
 8420POPC   GL137873  28.323  28.384   6.155
 8420POPC   GL237874  28.435  28.354   6.155
 8420POPC   C1A37875  28.381  28.347   6.455
 8420POPC   D2A37876  28.335  28.358   6.755
 8420POPC   C3A37877  28.388  28.385   7.055
 8420POPC   C4A37878  28.387  28.345   7.355
 8420POPC   C1B37879  28.601  28.300   6.455
 8420POPC   C2B37880  28.596  28.308   6.755
 8420POPC   C3B37881  28.615  28.292   7.055
 8420POPC   C4B37882  28.618  28.305   7.355
 8421POPC   NC337883  12.051  14.446   5.555
 8421POPC   PO437884  12.119  14.379   5.855
 8421POPC   GL137885  12.034  14.403   6.155
 8421POPC   GL237886  12.180  14.283   6.155
 8421POPC   C1A37887  12.103  14.413   6.455
 8421POPC   D2A37888  12.055  14.373   6.755
 8421POPC   C3A37889  12.063  14.385   7.055
 8421POPC   C4A37890  12.062  14.366   7.355
 8421POPC   C1B37891  12.172  14.221   6.455
 8421POPC   C2B37892  12.236  14.201   6.755
 8421POPC   C3B37893  12.258  14.224   7.055
 8421POPC   C4B37894  12.209  14.170   7.355
 8422POPC   NC337895  19.840  30.650   5.555
 8422POPC   PO437896  19.857  30.651   5.855
 8422POPC   GL137897  19.844  30.663   6.155
 8422POPC   GL237898  19.816  30.836   6.155
 8422POPC   C1A37899  19.807  30.722   6.455
 8422POPC   D2A37900  19.819  30.702   6.755
 8422POPC   C3A37901  19.814  30.709   7.055
 8422POPC   C4A37902  19.795  30.674   7.355
 8422POPC   C1B37903  19.812  30.905   6.455
 8422POPC   C2B37904  19.793  30.936   6.755
 8422POPC   C3B37905  19.799  30.917   7.055
 8422POPC   C4B37906  19.814  30.929   7.355
 8423POPC   NC337907   4.270  37.701   5.555
 8423POPC   PO437908   4.323  37.655   5.855
 8423POPC   GL137909   4.279  37.630   6.155
 8423POPC   GL237910   4.349  37.828   6.155
 8423POPC   C1A37911   4.298  37.637   6.455
 8423POPC   D2A37912   4.351  37.632   6.755
 8423POPC   C3A37913   4.269  37.636   7.055
 8423POPC   C4A37914   4.293  37.658   7.355
 8423POPC   C1B37915   4.342  37.950   6.455
 8423POPC   C2B37916   4.394  37.906   6.755
 8423POPC   C3B37917   4.407  37.874   7.055
 8423POPC   C4B37918   4.394  37.934   7.355
 8424POPC   NC337919  36.931  19.094   5.555
 8424POPC   PO437920  36.895  19.027   5.855
 8424POPC   GL137921  36.887  19.048   6.155
 8424POPC   GL237922  37.056  18.997   6.155
 8424POPC   C1A37923  36.868  19.030   6.455
 8424POPC   D2A37924  36.884  19.019   6.755
 8424POPC   C3A37925  36.887  19.065   7.055
 8424POPC   C4A37926  36.922  19.044   7.355
 8424POPC   C1B37927  37.070  18.943   6.455
 8424POPC   C2B37928  37.160  18.912   6.755
 8424POPC   C3B37929  37.090  18.932   7.055
 8424POPC   C4B37930  37.122  18.965   7.355
 8425POPC   NC337931  12.124  15.921   5.555
 8425POPC   PO437932  12.114  15.944   5.855
 8425POPC   GL137933  12.062  15.983   6.155
 8425POPC   GL237934  12.039  15.877   6.155
 8425POPC   C1A37935  12.074  15.971   6.455
 8425POPC   D2A37936  12.034  15.921   6.755
 8425POPC   C3A37937  12.113  15.933   7.055
 8425POPC   C4A37938  12.065  15.943   7.355
 8425POPC   C1B37939  12.000  15.744   6.455
 8425POPC   C2B37940  12.084  15.665   6.755
 8425POPC   C3B37941  12.047  15.704   7.055
 8425POPC   C4B37942  12.054  15.702   7.355
 8426POPC   NC337943  38.482  25.269   5.555
 8426POPC   PO437944  38.467  25.269   5.855
 8426POPC   GL137945  38.475  25.230   6.155
 8426POPC   GL237946  38.494  25.407   6.155
 8426POPC   C1A37947  38.469  25.217   6.455
 8426POPC   D2A37948  38.481  25.294   6.755
 8426POPC   C3A37949  38.491  25.231   7.055
 8426POPC   C4A37950  38.495  25.296   7.355
 8426POPC   C1B37951  38.522  25.464   6.455
 8426POPC   C2B37952  38.523  25.515   6.755
 8426POPC   C3B37953  38.529  25.460   7.055
 8426POPC   C4B37954  38.512  25.525   7.355
 8427POPC   NC337955   9.759  26.057   5.555
 8427POPC   PO437956   9.713  26.009   5.855
 8427POPC   GL137957   9.730  26.065   6.155
 8427POPC   GL237958   9.735  26.184   6.155
 8427POPC   C1A37959   9.793  26.038   6.455
 8427POPC   D2A37960   9.771  26.013   6.755
 8427POPC   C3A37961   9.753  26.047   7.055
 8427POPC   C4A37962   9.703  26.053   7.355
 8427POPC   C1B37963   9.733  26.274   6.455
 8427POPC   C2B37964   9.684  26.240   6.755
 8427POPC   C3B37965   9.648  26.248   7.055
 8427POPC   C4B37966   9.669  26.270   7.355
 8428POPC   NC337967  26.061   2.038   5.555
 8428POPC   PO437968  26.082   2.022   5.855
 8428POPC   GL137969  26.056   1.970   6.155
 8428POPC   GL237970  25.923   1.885   6.155
 8428POPC   C1A37971  26.087   1.951   6.455
 8428POPC   D2A37972  26.010   2.021   6.755
 8428POPC   C3A37973  26.074   1.973   7.055
 8428POPC   C4A37974  26.011   1.976   7.355
 8428POPC   C1B37975  25.891   1.811   6.455
 8428POPC   C2B37976  25.894   1.810   6.755
 8428POPC   C3B37977  25.880   1.784   7.055
 8428POPC   C4B37978  25.858   1.798   7.355
 8429POPC   NC337979  36.946  29.130   5.555
 8429POPC   PO437980  36.934  29.188   5.855
 8429POPC   GL137981  36.897  29.133   6.155
 8429POPC   GL237982  36.895  29.298   6.155
 8429POPC   C1A37983  36.949  29.143   6.455
 8429POPC   D2A37984  36.897  29.168   6.755
 8429POPC   C3A37985  36.910  29.168   7.055
 8429POPC   C4A37986  36.870  29.123   7.355
 8429POPC   C1B37987  36.882  29.350   6.455
 8429POPC   C2B37988  36.890  29.361   6.755
 8429POPC   C3B37989  36.859  29.411   7.055
 8429POPC   C4B37990  36.831  29.343   7.355
 8430POPC   NC337991   8.935   7.390   5.555
 8430POPC   PO437992   8.999   7.451   5.855
 8430POPC   GL137993   8.979   7.445   6.155
 8430POPC   GL237994   8.819   7.397   6.155
 8430POPC   C1A37995   8.996   7.373   6.455
 8430POPC   D2A37996   8.962   7.461   6.755
 8430POPC   C3A37997   8.962   7.449   7.055
 8430POPC   C4A37998   8.999   7.450   7.355
 8430POPC   C1B37999   8.712   7.494   6.455
 8430POPC   C2B38000   8.752   7.506   6.755
 8430POPC   C3B38001   8.740   7.445   7.055
 8430POPC   C4B38002   8.731   7.476   7.355
 8431POPC   NC338003   3.589  33.833   5.555
 8431POPC   PO438004   3.575  33.791   5.855
 8431POPC   GL138005   3.586  33.782   6.155
 8431POPC   GL238006   3.391  33.894   6.155
 8431POPC   C1A38007   3.517  33.765   6.455
 8431POPC   D2A38008   3.574  33.812   6.755
 8431POPC   C3A38009   3.578  33.788   7.055
 8431POPC   C4A38010   3.570  33.763   7.355
 8431POPC   C1B38011   3.279  33.961   6.455
 8431POPC   C2B38012   3.321  33.870   6.755
 8431POPC   C3B38013   3.309  33.956   7.055
 8431POPC   C4B38014   3.365  33.948   7.355
 8432POPC   NC338015  15.936   6.672   5.555
 8432POPC   PO438016  16.004   6.655   5.855
 8432POPC   GL138017  15.918   6.601   6.155
 8432POPC   GL238018  15.982   6.753   6.155
 8432POPC   C1A38019  15.975   6.611   6.455
 8432POPC   D2A38020  15.988   6.664   6.755
 8432POPC   C3A38021  15.945   6.674   7.055
 8432POPC   C4A38022  15.991   6.692   7.355
 8432POPC   C1B38023  15.920   6.866   6.455
 8432POPC   C2B38024  15.881   6.860   6.755
 8432POPC   C3B38025  15.927   6.941   7.055
 8432POPC   C4B38026  15.958   6.866   7.355
 8433POPC   NC338027  40.774  26.067   5.555
 8433POPC   PO438028  40.820  26.071   5.855
 8433POPC   GL138029  40.823  26.056   6.155
 8433POPC   GL238030  40.805  25.958   6.155
 8433POPC   C1A38031  40.764  26.023   6.455
 8433POPC   D2A38032  40.786  26.018   6.755
 8433POPC   C3A38033  40.779  26.077   7.055
 8433POPC   C4A38034  40.805  26.072   7.355
 8433POPC   C1B38035  40.827  25.763   6.455
 8433POPC   C2B38036  40.892  25.767   6.755
 8433POPC   C3B38037  40.857  25.760   7.055
 8433POPC   C4B38038  40.854  25.771   7.355
 8434POPC   NC338039  36.086   5.096   5.555
 8434POPC   PO438040  36.105   5.097   5.855
 8434POPC   GL138041  36.082   5.112   6.155
 8434POPC   GL238042  36.109   4.985   6.155
 8434POPC   C1A38043  36.138   5.083   6.455
 8434POPC   D2A38044  36.144   5.118   6.755
 8434POPC   C3A38045  36.173   5.098   7.055
 8434POPC   C4A38046  36.158   5.088   7.355
 8434POPC   C1B38047  36.074   4.887   6.455
 8434POPC   C2B38048  36.162   4.810   6.755
 8434POPC   C3B38049  36.100   4.852   7.055
 8434POPC   C4B38050  36.152   4.887   7.355
 8435POPC   NC338051   7.415  36.134   5.555
 8435POPC   PO438052   7.458  36.156   5.855
 8435POPC   GL138053   7.394  36.165   6.155
 8435POPC   GL238054   7.571  36.062   6.155
 8435POPC   C1A38055   7.436  36.117   6.455
 8435POPC   D2A38056   7.414  36.121   6.755
 8435POPC   C3A38057   7.465  36.130   7.055
 8435POPC   C4A38058   7.456  36.148   7.355
 8435POPC   C1B38059   7.652  36.038   6.455
 8435POPC   C2B38060   7.611  36.026   6.755
 8435POPC   C3B38061   7.695  36.049   7.055
 8435POPC   C4B38062   7.644  36.018   7.355
 8436POPC   NC338063  15.935  29.152   5.555
 8436POPC   PO438064  15.993  29.174   5.855
 8436POPC   GL138065  15.925  29.116   6.155
 8436POPC   GL238066  15.881  29.287   6.155
 8436POPC   C1A38067  15.977  29.113   6.455
 8436POPC   D2A38068  15.995  29.155   6.755
 8436POPC   C3A38069  15.974  29.097   7.055
 8436POPC   C4A38070  15.987  29.175   7.355
 8436POPC   C1B38071  15.797  29.354   6.455
 8436POPC   C2B38072  15.767  29.384   6.755
 8436POPC   C3B38073  15.840  29.322   7.055
 8436POPC   C4B38074  15.825  29.289   7.355
 8437POPC   NC338075   7.431  15.208   5.555
 8437POPC   PO438076   7.410  15.223   5.855
 8437POPC   GL138077   7.459  15.198   6.155
 8437POPC   GL238078   7.432  15.351   6.155
 8437POPC   C1A38079   7.374  15.159   6.455
 8437POPC   D2A38080   7.461  15.159   6.755
 8437POPC   C3A38081   7.467  15.178   7.055
 8437POPC   C4A38082   7.422  15.193   7.355
 8437POPC   C1B38083   7.420  15.419   6.455
 8437POPC   C2B38084   7.443  15.389   6.755
 8437POPC   C3B38085   7.386  15.397   7.055
 8437POPC   C4B38086   7.417  15.397   7.355
 8438POPC   NC338087  26.831   5.142   5.555
 8438POPC   PO438088  26.820   5.142   5.855
 8438POPC   GL138089  26.867   5.124   6.155
 8438POPC   GL238090  26.700   5.038   6.155
 8438POPC   C1A38091  26.770   5.093   6.455
 8438POPC   D2A38092  26.770   5.048   6.755
 8438POPC   C3A38093  26.771   5.052   7.055
 8438POPC   C4A38094  26.781   5.070   7.355
 8438POPC   C1B38095  26.638   4.967   6.455
 8438POPC   C2B38096  26.602   4.964   6.755
 8438POPC   C3B38097  26.617   4.899   7.055
 8438POPC   C4B38098  26.609   4.979   7.355
 8439POPC   NC338099  22.202  10.567   5.555
 8439POPC   PO438100  22.169  10.538   5.855
 8439POPC   GL138101  22.193  10.532   6.155
 8439POPC   GL238102  22.141  10.361   6.155
 8439POPC   C1A38103  22.203  10.475   6.455
 8439POPC   D2A38104  22.189  10.484   6.755
 8439POPC   C3A38105  22.129  10.479   7.055
 8439POPC   C4A38106  22.117  10.506   7.355
 8439POPC   C1B38107  22.244  10.270   6.455
 8439POPC   C2B38108  22.225  10.292   6.755
 8439POPC   C3B38109  22.183  10.261   7.055
 8439POPC   C4B38110  22.209  10.285   7.355
 8440POPC   NC338111  31.456   5.868   5.555
 8440POPC   PO438112  31.467   5.913   5.855
 8440POPC   GL138113  31.461   5.826   6.155
 8440POPC   GL238114  31.371   5.934   6.155
 8440POPC   C1A38115  31.512   5.828   6.455
 8440POPC   D2A38116  31.449   5.880   6.755
 8440POPC   C3A38117  31.427   5.844   7.055
 8440POPC   C4A38118  31.436   5.830   7.355
 8440POPC   C1B38119  31.189   5.885   6.455
 8440POPC   C2B38120  31.212   5.926   6.755
 8440POPC   C3B38121  31.199   5.877   7.055
 8440POPC   C4B38122  31.182   5.935   7.355
 8441POPC   NC338123  14.383  33.847   5.555
 8441POPC   PO438124  14.399  33.806   5.855
 8441POPC   GL138125  14.416  33.803   6.155
 8441POPC   GL238126  14.273  33.804   6.155
 8441POPC   C1A38127  14.447  33.784   6.455
 8441POPC   D2A38128  14.392  33.830   6.755
 8441POPC   C3A38129  14.411  33.770   7.055
 8441POPC   C4A38130  14.414  33.812   7.355
 8441POPC   C1B38131  14.146  33.842   6.455
 8441POPC   C2B38132  14.140  33.865   6.755
 8441POPC   C3B38133  14.169  33.843   7.055
 8441POPC   C4B38134  14.132  33.817   7.355
 8442POPC   NC338135  36.089  15.178   5.555
 8442POPC   PO438136  36.121  15.194   5.855
 8442POPC   GL138137  36.134  15.146   6.155
 8442POPC   GL238138  36.143  15.265   6.155
 8442POPC   C1A38139  36.146  15.143   6.455
 8442POPC   D2A38140  36.116  15.192   6.755
 8442POPC   C3A38141  36.112  15.192   7.055
 8442POPC   C4A38142  36.133  15.170   7.355
 8442POPC   C1B38143  36.084  15.437   6.455
 8442POPC   C2B38144  36.134  15.381   6.755
 8442POPC   C3B38145  36.099  15.444   7.055
 8442POPC   C4B38146  36.154  15.478   7.355
 8443POPC   NC338147   5.084  37.659   5.555
 8443POPC   PO438148   5.093  37.640   5.855
 8443POPC   GL138149   5.079  37.647   6.155
 8443POPC   GL238150   4.987  37.700   6.155
 8443POPC   C1A38151   5.045  37.721   6.455
 8443POPC   D2A38152   5.096  37.644   6.755
 8443POPC   C3A38153   5.089  37.637   7.055
 8443POPC   C4A38154   5.051  37.695   7.355
 8443POPC   C1B38155   4.835  37.834   6.455
 8443POPC   C2B38156   4.874  37.831   6.755
 8443POPC   C3B38157   4.864  37.778   7.055
 8443POPC   C4B38158   4.860  37.763   7.355
 8444POPC   NC338159  38.414   7.416   5.555
 8444POPC   PO438160  38.472   7.391   5.855
 8444POPC   GL138161  38.440   7.421   6.155
 8444POPC   GL238162  38.476   7.335   6.155
 8444POPC   C1A38163  38.422   7.375   6.455
 8444POPC   D2A38164  38.444   7.421   6.755
 8444POPC   C3A38165  38.421   7.400   7.055
 8444POPC   C4A38166  38.452   7.457   7.355
 8444POPC   C1B38167  38.468   7.158   6.455
 8444POPC   C2B38168  38.457   7.186   6.755
 8444POPC   C3B38169  38.449   7.175   7.055
 8444POPC   C4B38170  38.484   7.162   7.355
 8445POPC   NC338171  12.847  22.148   5.555
 8445POPC   PO438172  12.856  22.113   5.855
 8445POPC   GL138173  12.884  22.182   6.155
 8445POPC   GL238174  13.009  22.110   6.155
 8445POPC   C1A38175  12.895  22.203   6.455
 8445POPC   D2A38176  12.823  22.136   6.755
 8445POPC   C3A38177  12.818  22.175   7.055
 8445POPC   C4A38178  12.831  22.167   7.355
 8445POPC   C1B38179  13.103  21.993   6.455
 8445POPC   C2B38180  13.090  22.077   6.755
 8445POPC   C3B38181  13.113  22.014   7.055
 8445POPC   C4B38182  13.120  22.003   7.355
 8446POPC   NC338183  19.105  12.123   5.555
 8446POPC   PO438184  19.089  12.108   5.855
 8446POPC   GL138185  19.060  12.077   6.155
 8446POPC   GL238186  19.090  12.209   6.155
 8446POPC   C1A38187  19.020  12.094   6.455
 8446POPC   D2A38188  19.041  12.062   6.755
 8446POPC   C3A38189  19.077  12.077   7.055
 8446POPC   C4A38190  19.035  12.107   7.355
 8446POPC   C1B38191  19.135  12.326   6.455
 8446POPC   C2B38192  19.103  12.329   6.755
 8446POPC   C3B38193  19.097  12.336   7.055
 8446POPC   C4B38194  19.170  12.335   7.355
 8447POPC   NC338195  43.090  29.909   5.555
 8447POPC   PO438196  43.121  29.962   5.855
 8447POPC   GL138197  43.132  29.885   6.155
 8447POPC   GL238198  43.275  29.892   6.155
 8447POPC   C1A38199  43.073  29.882   6.455
 8447POPC   D2A38200  43.084  29.916   6.755
 8447POPC   C3A38201  43.072  29.945   7.055
 8447POPC   C4A38202  43.105  29.907   7.355
 8447POPC   C1B38203  43.402  29.892   6.455
 8447POPC   C2B38204  43.356  29.896   6.755
 8447POPC   C3B38205  43.346  29.950   7.055
 8447POPC   C4B38206  43.407  29.879   7.355
 8448POPC   NC338207   6.622  38.413   5.555
 8448POPC   PO438208   6.649  38.447   5.855
 8448POPC   GL138209   6.607  38.420   6.155
 8448POPC   GL238210   6.512  38.587   6.155
 8448POPC   C1A38211   6.607  38.433   6.455
 8448POPC   D2A38212   6.690  38.497   6.755
 8448POPC   C3A38213   6.628  38.488   7.055
 8448POPC   C4A38214   6.617  38.485   7.355
 8448POPC   C1B38215   6.499  38.667   6.455
 8448POPC   C2B38216   6.455  38.588   6.755
 8448POPC   C3B38217   6.438  38.586   7.055
 8448POPC   C4B38218   6.421  38.626   7.355
 8449POPC   NC338219  15.984  36.111   5.555
 8449POPC   PO438220  15.944  36.109   5.855
 8449POPC   GL138221  15.910  36.151   6.155
 8449POPC   GL238222  16.036  36.053   6.155
 8449POPC   C1A38223  15.932  36.116   6.455
 8449POPC   D2A38224  15.933  36.093   6.755
 8449POPC   C3A38225  15.955  36.171   7.055
 8449POPC   C4A38226  15.992  36.129   7.355
 8449POPC   C1B38227  16.065  35.922   6.455
 8449POPC   C2B38228  16.068  35.953   6.755
 8449POPC   C3B38229  16.099  35.938   7.055
 8449POPC   C4B38230  16.107  35.927   7.355
 8450POPC   NC338231  42.304   1.249   5.555
 8450POPC   PO438232  42.373   1.247   5.855
 8450POPC   GL138233  42.381   1.165   6.155
 8450POPC   GL238234  42.203   1.198   6.155
 8450POPC   C1A38235  42.343   1.253   6.455
 8450POPC   D2A38236  42.358   1.230   6.755
 8450POPC   C3A38237  42.327   1.169   7.055
 8450POPC   C4A38238  42.346   1.226   7.355
 8450POPC   C1B38239  42.127   1.203   6.455
 8450POPC   C2B38240  42.063   1.207   6.755
 8450POPC   C3B38241  42.110   1.169   7.055
 8450POPC   C4B38242  42.036   1.211   7.355
 8451POPC   NC338243  19.788   8.233   5.555
 8451POPC   PO438244  19.844   8.211   5.855
 8451POPC   GL138245  19.831   8.195   6.155
 8451POPC   GL238246  19.815   8.305   6.155
 8451POPC   C1A38247  19.792   8.226   6.455
 8451POPC   D2A38248  19.796   8.178   6.755
 8451POPC   C3A38249  19.788   8.218   7.055
 8451POPC   C4A38250  19.823   8.243   7.355
 8451POPC   C1B38251  19.911   8.397   6.455
 8451POPC   C2B38252  19.928   8.453   6.755
 8451POPC   C3B38253  19.923   8.445   7.055
 8451POPC   C4B38254  19.925   8.436   7.355
 8452POPC   NC338255   8.225   0.442   5.555
 8452POPC   PO438256   8.178   0.457   5.855
 8452POPC   GL138257   8.165   0.400   6.155
 8452POPC   GL238258   8.311   0.476   6.155
 8452POPC   C1A38259   8.206   0.392   6.455
 8452POPC   D2A38260   8.183   0.439   6.755
 8452POPC   C3A38261   8.156   0.414   7.055
 8452POPC   C4A38262   8.219   0.401   7.355
 8452POPC   C1B38263   8.431   0.490   6.455
 8452POPC   C2B38264   8.409   0.496   6.755
 8452POPC   C3B38265   8.440   0.532   7.055
 8452POPC   C4B38266   8.432   0.553   7.355
 8453POPC   NC338267   9.745  35.389   5.555
 8453POPC   PO438268   9.760  35.329   5.855
 8453POPC   GL138269   9.715  35.352   6.155
 8453POPC   GL238270   9.827  35.421   6.155
 8453POPC   C1A38271   9.718  35.323   6.455
 8453POPC   D2A38272   9.784  35.319   6.755
 8453POPC   C3A38273   9.731  35.367   7.055
 8453POPC   C4A38274   9.784  35.380   7.355
 8453POPC   C1B38275   9.967  35.550   6.455
 8453POPC   C2B38276   9.894  35.548   6.755
 8453POPC   C3B38277   9.969  35.505   7.055
 8453POPC   C4B38278   9.973  35.511   7.355
 8454POPC   NC338279  40.049  11.285   5.555
 8454POPC   PO438280  39.976  11.289   5.855
 8454POPC   GL138281  40.024  11.263   6.155
 8454POPC   GL238282  40.122  11.302   6.155
 8454POPC   C1A38283  39.997  11.290   6.455
 8454POPC   D2A38284  40.057  11.304   6.755
 8454POPC   C3A38285  40.018  11.289   7.055
 8454POPC   C4A38286  40.002  11.269   7.355
 8454POPC   C1B38287  40.221  11.358   6.455
 8454POPC   C2B38288  40.219  11.441   6.755
 8454POPC   C3B38289  40.192  11.352   7.055
 8454POPC   C4B38290  40.275  11.352   7.355
 8455POPC   NC338291   0.484  17.504   5.555
 8455POPC   PO438292   0.461  17.545   5.855
 8455POPC   GL138293   0.413  17.556   6.155
 8455POPC   GL238294   0.454  17.638   6.155
 8455POPC   C1A38295   0.438  17.491   6.455
 8455POPC   D2A38296   0.475  17.504   6.755
 8455POPC   C3A38297   0.418  17.519   7.055
 8455POPC   C4A38298   0.412  17.492   7.355
 8455POPC   C1B38299   0.456  17.786   6.455
 8455POPC   C2B38300   0.420  17.730   6.755
 8455POPC   C3B38301   0.474  17.790   7.055
 8455POPC   C4B38302   0.453  17.793   7.355
 8456POPC   NC338303  24.515  15.202   5.555
 8456POPC   PO438304  24.514  15.192   5.855
 8456POPC   GL138305  24.517  15.182   6.155
 8456POPC   GL238306  24.382  15.151   6.155
 8456POPC   C1A38307  24.531  15.169   6.455
 8456POPC   D2A38308  24.526  15.207   6.755
 8456POPC   C3A38309  24.520  15.153   7.055
 8456POPC   C4A38310  24.479  15.219   7.355
 8456POPC   C1B38311  24.219  15.089   6.455
 8456POPC   C2B38312  24.226  15.096   6.755
 8456POPC   C3B38313  24.266  15.178   7.055
 8456POPC   C4B38314  24.268  15.098   7.355
 8457POPC   NC338315   4.304   0.399   5.555
 8457POPC   PO438316   4.352   0.406   5.855
 8457POPC   GL138317   4.347   0.430   6.155
 8457POPC   GL238318   4.292   0.570   6.155
 8457POPC   C1A38319   4.360   0.468   6.455
 8457POPC   D2A38320   4.289   0.433   6.755
 8457POPC   C3A38321   4.282   0.405   7.055
 8457POPC   C4A38322   4.356   0.407   7.355
 8457POPC   C1B38323   4.329   0.690   6.455
 8457POPC   C2B38324   4.334   0.729   6.755
 8457POPC   C3B38325   4.304   0.675   7.055
 8457POPC   C4B38326   4.340   0.674   7.355
 8458POPC   NC338327   6.622  32.201   5.555
 8458POPC   PO438328   6.666  32.249   5.855
 8458POPC   GL138329   6.665  32.282   6.155
 8458POPC   GL238330   6.531  32.369   6.155
 8458POPC   C1A38331   6.672  32.277   6.455
 8458POPC   D2A38332   6.652  32.268   6.755
 8458POPC   C3A38333   6.597  32.234   7.055
 8458POPC   C4A38334   6.689  32.275   7.355
 8458POPC   C1B38335   6.473  32.369   6.455
 8458POPC   C2B38336   6.474  32.429   6.755
 8458POPC   C3B38337   6.470  32.431   7.055
 8458POPC   C4B38338   6.422  32.403   7.355
 8459POPC   NC338339  26.806   8.167   5.555
 8459POPC   PO438340  26.852   8.170   5.855
 8459POPC   GL138341  26.817   8.208   6.155
 8459POPC   GL238342  26.680   8.141   6.155
 8459POPC   C1A38343  26.807   8.181   6.455
 8459POPC   D2A38344  26.804   8.157   6.755
 8459POPC   C3A38345  26.837   8.215   7.055
 8459POPC   C4A38346  26.825   8.169   7.355
 8459POPC   C1B38347  26.583   8.092   6.455
 8459POPC   C2B38348  26.615   8.117   6.755
 8459POPC   C3B38349  26.597   8.042   7.055
 8459POPC   C4B38350  26.600   8.123   7.355
 8460POPC   NC338351  38.423   2.749   5.555
 8460POPC   PO438352  38.456   2.759   5.855
 8460POPC   GL138353  38.489   2.760   6.155
 8460POPC   GL238354  38.399   2.890   6.155
 8460POPC   C1A38355  38.453   2.735   6.455
 8460POPC   D2A38356  38.452   2.757   6.755
 8460POPC   C3A38357  38.406   2.789   7.055
 8460POPC   C4A38358  38.428   2.734   7.355
 8460POPC   C1B38359  38.292   2.901   6.455
 8460POPC   C2B38360  38.295   2.915   6.755
 8460POPC   C3B38361  38.303   2.939   7.055
 8460POPC   C4B38362  38.318   2.914   7.355
 8461POPC   NC338363  28.349  33.000   5.555
 8461POPC   PO438364  28.351  33.032   5.855
 8461POPC   GL138365  28.365  32.985   6.155
 8461POPC   GL238366  28.363  32.873   6.155
 8461POPC   C1A38367  28.346  33.013   6.455
 8461POPC   D2A38368  28.405  33.028   6.755
 8461POPC   C3A38369  28.390  32.998   7.055
 8461POPC   C4A38370  28.342  33.064   7.355
 8461POPC   C1B38371  28.399  32.752   6.455
 8461POPC   C2B38372  28.412  32.804   6.755
 8461POPC   C3B38373  28.430  32.795   7.055
 8461POPC   C4B38374  28.428  32.743   7.355
 8462POPC   NC338375  15.952  33.843   5.555
 8462POPC   PO438376  15.985  33.844   5.855
 8462POPC   GL138377  15.933  33.795   6.155
 8462POPC   GL238378  15.824  33.874   6.155
 8462POPC   C1A38379  15.931  33.786   6.455
 8462POPC   D2A38380  15.975  33.780   6.755
 8462POPC   C3A38381  16.002  33.782   7.055
 8462POPC   C4A38382  15.950  33.750   7.355
 8462POPC   C1B38383  15.740  33.842   6.455
 8462POPC   C2B38384  15.673  33.914   6.755
 8462POPC   C3B38385  15.719  33.918   7.055
 8462POPC   C4B38386  15.763  33.914   7.355
 8463POPC   NC338387  32.262   6.630   5.555
 8463POPC   PO438388  32.271   6.645   5.855
 8463POPC   GL138389  32.249   6.612   6.155
 8463POPC   GL238390  32.249   6.794   6.155
 8463POPC   C1A38391  32.228   6.616   6.455
 8463POPC   D2A38392  32.245   6.670   6.755
 8463POPC   C3A38393  32.217   6.639   7.055
 8463POPC   C4A38394  32.231   6.669   7.355
 8463POPC   C1B38395  32.395   6.855   6.455
 8463POPC   C2B38396  32.370   6.846   6.755
 8463POPC   C3B38397  32.393   6.830   7.055
 8463POPC   C4B38398  32.360   6.880   7.355
 8464POPC   NC338399  18.265   2.790   5.555
 8464POPC   PO438400  18.247   2.810   5.855
 8464POPC   GL138401  18.300   2.766   6.155
 8464POPC   GL238402  18.365   2.773   6.155
 8464POPC   C1A38403  18.279   2.731   6.455
 8464POPC   D2A38404  18.248   2.723   6.755
 8464POPC   C3A38405  18.312   2.726   7.055
 8464POPC   C4A38406  18.246   2.743   7.355
 8464POPC   C1B38407  18.568   2.834   6.455
 8464POPC   C2B38408  18.476   2.800   6.755
 8464POPC   C3B38409  18.556   2.802   7.055
 8464POPC   C4B38410  18.557   2.822   7.355
 8465POPC   NC338411  25.287  34.587   5.555
 8465POPC   PO438412  25.238  34.598   5.855
 8465POPC   GL138413  25.216  34.615   6.155
 8465POPC   GL238414  25.271  34.447   6.155
 8465POPC   C1A38415  25.263  34.543   6.455
 8465POPC   D2A38416  25.271  34.536   6.755
 8465POPC   C3A38417  25.232  34.601   7.055
 8465POPC   C4A38418  25.303  34.586   7.355
 8465POPC   C1B38419  25.258  34.329   6.455
 8465POPC   C2B38420  25.245  34.333   6.755
 8465POPC   C3B38421  25.260  34.330   7.055
 8465POPC   C4B38422  25.257  34.311   7.355
 8466POPC   NC338423  22.943  31.487   5.555
 8466POPC   PO438424  22.937  31.487   5.855
 8466POPC   GL138425  22.896  31.437   6.155
 8466POPC   GL238426  22.854  31.503   6.155
 8466POPC   C1A38427  22.952  31.511   6.455
 8466POPC   D2A38428  22.917  31.462   6.755
 8466POPC   C3A38429  22.954  31.436   7.055
 8466POPC   C4A38430  22.955  31.448   7.355
 8466POPC   C1B38431  22.697  31.612   6.455
 8466POPC   C2B38432  22.749  31.529   6.755
 8466POPC   C3B38433  22.688  31.575   7.055
 8466POPC   C4B38434  22.734  31.565   7.355
 8467POPC   NC338435  15.165  26.831   5.555
 8467POPC   PO438436  15.145  26.787   5.855
 8467POPC   GL138437  15.222  26.771   6.155
 8467POPC   GL238438  15.067  26.928   6.155
 8467POPC   C1A38439  15.184  26.783   6.455
 8467POPC   D2A38440  15.218  26.857   6.755
 8467POPC   C3A38441  15.136  26.824   7.055
 8467POPC   C4A38442  15.155  26.770   7.355
 8467POPC   C1B38443  15.015  27.000   6.455
 8467POPC   C2B38444  15.021  26.982   6.755
 8467POPC   C3B38445  14.990  27.003   7.055
 8467POPC   C4B38446  15.050  27.054   7.355
 8468POPC   NC338447   9.726  22.182   5.555
 8468POPC   PO438448   9.771  22.159   5.855
 8468POPC   GL138449   9.744  22.183   6.155
 8468POPC   GL238450   9.764  22.292   6.155
 8468POPC   C1A38451   9.708  22.208   6.455
 8468POPC   D2A38452   9.729  22.172   6.755
 8468POPC   C3A38453   9.794  22.198   7.055
 8468POPC   C4A38454   9.751  22.139   7.355
 8468POPC   C1B38455   9.770  22.454   6.455
 8468POPC   C2B38456   9.740  22.394   6.755
 8468POPC   C3B38457   9.791  22.393   7.055
 8468POPC   C4B38458   9.799  22.407   7.355
 8469POPC   NC338459  27.585  30.660   5.555
 8469POPC   PO438460  27.599  30.682   5.855
 8469POPC   GL138461  27.545  30.691   6.155
 8469POPC   GL238462  27.761  30.681   6.155
 8469POPC   C1A38463  27.619  30.737   6.455
 8469POPC   D2A38464  27.576  30.730   6.755
 8469POPC   C3A38465  27.562  30.690   7.055
 8469POPC   C4A38466  27.633  30.663   7.355
 8469POPC   C1B38467  27.841  30.792   6.455
 8469POPC   C2B38468  27.848  30.792   6.755
 8469POPC   C3B38469  27.873  30.750   7.055
 8469POPC   C4B38470  27.847  30.765   7.355
 8470POPC   NC338471   5.068  39.246   5.555
 8470POPC   PO438472   5.123  39.204   5.855
 8470POPC   GL138473   5.119  39.265   6.155
 8470POPC   GL238474   4.968  39.267   6.155
 8470POPC   C1A38475   5.046  39.193   6.455
 8470POPC   D2A38476   5.118  39.230   6.755
 8470POPC   C3A38477   5.056  39.199   7.055
 8470POPC   C4A38478   5.098  39.207   7.355
 8470POPC   C1B38479   4.890  39.255   6.455
 8470POPC   C2B38480   4.831  39.198   6.755
 8470POPC   C3B38481   4.802  39.263   7.055
 8470POPC   C4B38482   4.847  39.222   7.355
 8471POPC   NC338483  23.698   5.121   5.555
 8471POPC   PO438484  23.682   5.086   5.855
 8471POPC   GL138485  23.698   5.116   6.155
 8471POPC   GL238486  23.824   5.203   6.155
 8471POPC   C1A38487  23.669   5.045   6.455
 8471POPC   D2A38488  23.717   5.057   6.755
 8471POPC   C3A38489  23.704   5.089   7.055
 8471POPC   C4A38490  23.710   5.049   7.355
 8471POPC   C1B38491  23.924   5.273   6.455
 8471POPC   C2B38492  23.903   5.282   6.755
 8471POPC   C3B38493  23.936   5.264   7.055
 8471POPC   C4B38494  23.858   5.297   7.355
 8472POPC   NC338495  15.917  26.041   5.555
 8472POPC   PO438496  15.988  26.000   5.855
 8472POPC   GL138497  15.930  26.071   6.155
 8472POPC   GL238498  15.989  25.980   6.155
 8472POPC   C1A38499  15.972  25.995   6.455
 8472POPC   D2A38500  16.005  26.011   6.755
 8472POPC   C3A38501  15.988  25.997   7.055
 8472POPC   C4A38502  15.918  26.029   7.355
 8472POPC   C1B38503  16.041  25.803   6.455
 8472POPC   C2B38504  16.121  25.836   6.755
 8472POPC   C3B38505  16.044  25.815   7.055
 8472POPC   C4B38506  16.038  25.790   7.355
 8473POPC   NC338507  35.370  21.406   5.555
 8473POPC   PO438508  35.329  21.390   5.855
 8473POPC   GL138509  35.377  21.339   6.155
 8473POPC   GL238510  35.461  21.465   6.155
 8473POPC   C1A38511  35.339  21.380   6.455
 8473POPC   D2A38512  35.313  21.353   6.755
 8473POPC   C3A38513  35.378  21.359   7.055
 8473POPC   C4A38514  35.314  21.383   7.355
 8473POPC   C1B38515  35.563  21.480   6.455
 8473POPC   C2B38516  35.595  21.552   6.755
 8473POPC   C3B38517  35.603  21.497   7.055
 8473POPC   C4B38518  35.563  21.522   7.355
 8474POPC   NC338519  19.024  29.187   5.555
 8474POPC   PO438520  19.105  29.130   5.855
 8474POPC   GL138521  19.099  29.181   6.155
 8474POPC   GL238522  19.031  28.998   6.155
 8474POPC   C1A38523  19.047  29.137   6.455
 8474POPC   D2A38524  19.043  29.105   6.755
 8474POPC   C3A38525  19.067  29.158   7.055
 8474POPC   C4A38526  19.024  29.106   7.355
 8474POPC   C1B38527  18.970  28.908   6.455
 8474POPC   C2B38528  18.920  28.920   6.755
 8474POPC   C3B38529  18.957  28.924   7.055
 8474POPC   C4B38530  18.928  28.905   7.355
 8475POPC   NC338531  43.079  23.676   5.555
 8475POPC   PO438532  43.102  23.696   5.855
 8475POPC   GL138533  43.087  23.682   6.155
 8475POPC   GL238534  42.991  23.682   6.155
 8475POPC   C1A38535  43.156  23.719   6.455
 8475POPC   D2A38536  43.128  23.704   6.755
 8475POPC   C3A38537  43.105  23.749   7.055
 8475POPC   C4A38538  43.154  23.741   7.355
 8475POPC   C1B38539  42.853  23.655   6.455
 8475POPC   C2B38540  42.829  23.688   6.755
 8475POPC   C3B38541  42.881  23.610   7.055
 8475POPC   C4B38542  42.850  23.683   7.355
 8476POPC   NC338543   6.692  21.368   5.555
 8476POPC   PO438544   6.617  21.371   5.855
 8476POPC   GL138545   6.686  21.399   6.155
 8476POPC   GL238546   6.558  21.377   6.155
 8476POPC   C1A38547   6.639  21.347   6.455
 8476POPC   D2A38548   6.691  21.378   6.755
 8476POPC   C3A38549   6.624  21.416   7.055
 8476POPC   C4A38550   6.601  21.359   7.355
 8476POPC   C1B38551   6.456  21.299   6.455
 8476POPC   C2B38552   6.443  21.246   6.755
 8476POPC   C3B38553   6.372  21.291   7.055
 8476POPC   C4B38554   6.396  21.317   7.355
 8477POPC   NC338555   2.769  43.084   5.555
 8477POPC   PO438556   2.771  43.120   5.855
 8477POPC   GL138557   2.770  43.098   6.155
 8477POPC   GL238558   2.791  43.266   6.155
 8477POPC   C1A38559   2.779  43.104   6.455
 8477POPC   D2A38560   2.735  43.102   6.755
 8477POPC   C3A38561   2.750  43.087   7.055
 8477POPC   C4A38562   2.733  43.069   7.355
 8477POPC   C1B38563   2.939  43.367   6.455
 8477POPC   C2B38564   2.873  43.368   6.755
 8477POPC   C3B38565   2.882  43.305   7.055
 8477POPC   C4B38566   2.927  43.325   7.355
 8478POPC   NC338567  15.156  31.518   5.555
 8478POPC   PO438568  15.169  31.425   5.855
 8478POPC   GL138569  15.227  31.516   6.155
 8478POPC   GL238570  15.054  31.366   6.155
 8478POPC   C1A38571  15.228  31.464   6.455
 8478POPC   D2A38572  15.223  31.489   6.755
 8478POPC   C3A38573  15.204  31.502   7.055
 8478POPC   C4A38574  15.154  31.480   7.355
 8478POPC   C1B38575  15.020  31.247   6.455
 8478POPC   C2B38576  14.968  31.279   6.755
 8478POPC   C3B38577  15.039  31.247   7.055
 8478POPC   C4B38578  14.986  31.333   7.355
 8479POPC   NC338579  31.499  14.396   5.555
 8479POPC   PO438580  31.460  14.441   5.855
 8479POPC   GL138581  31.470  14.393   6.155
 8479POPC   GL238582  31.602  14.400   6.155
 8479POPC   C1A38583  31.516  14.438   6.455
 8479POPC   D2A38584  31.428  14.389   6.755
 8479POPC   C3A38585  31.432  14.429   7.055
 8479POPC   C4A38586  31.442  14.356   7.355
 8479POPC   C1B38587  31.767  14.378   6.455
 8479POPC   C2B38588  31.768  14.381   6.755
 8479POPC   C3B38589  31.670  14.347   7.055
 8479POPC   C4B38590  31.755  14.400   7.355
 8480POPC   NC338591   1.260  19.103   5.555
 8480POPC   PO438592   1.215  19.068   5.855
 8480POPC   GL138593   1.178  19.071   6.155
 8480POPC   GL238594   1.199  18.949   6.155
 8480POPC   C1A38595   1.192  19.056   6.455
 8480POPC   D2A38596   1.193  19.021   6.755
 8480POPC   C3A38597   1.177  19.103   7.055
 8480POPC   C4A38598   1.180  19.076   7.355
 8480POPC   C1B38599   1.166  18.803   6.455
 8480POPC   C2B38600   1.176  18.812   6.755
 8480POPC   C3B38601   1.162  18.847   7.055
 8480POPC   C4B38602   1.224  18.822   7.355
 8481POPC   NC338603  37.661   0.432   5.555
 8481POPC   PO438604  37.640   0.393   5.855
 8481POPC   GL138605  37.725   0.434   6.155
 8481POPC   GL238606  37.796   0.564   6.155
 8481POPC   C1A38607  37.671   0.426   6.455
 8481POPC   D2A38608  37.643   0.479   6.755
 8481POPC   C3A38609  37.717   0.468   7.055
 8481POPC   C4A38610  37.724   0.388   7.355
 8481POPC   C1B38611  37.844   0.611   6.455
 8481POPC   C2B38612  37.779   0.683   6.755
 8481POPC   C3B38613  37.870   0.645   7.055
 8481POPC   C4B38614  37.787   0.659   7.355
 8482POPC   NC338615  20.604  12.859   5.555
 8482POPC   PO438616  20.583  12.872   5.855
 8482POPC   GL138617  20.658  12.843   6.155
 8482POPC   GL238618  20.628  12.678   6.155
 8482POPC   C1A38619  20.599  12.848   6.455
 8482POPC   D2A38620  20.592  12.861   6.755
 8482POPC   C3A38621  20.641  12.876   7.055
 8482POPC   C4A38622  20.644  12.827   7.355
 8482POPC   C1B38623  20.587  12.612   6.455
 8482POPC   C2B38624  20.571  12.628   6.755
 8482POPC   C3B38625  20.573  12.613   7.055
 8482POPC   C4B38626  20.588  12.601   7.355
 8483POPC   NC338627  39.977  15.165   5.555
 8483POPC   PO438628  40.019  15.142   5.855
 8483POPC   GL138629  40.052  15.184   6.155
 8483POPC   GL238630  39.931  15.238   6.155
 8483POPC   C1A38631  39.997  15.225   6.455
 8483POPC   D2A38632  40.034  15.209   6.755
 8483POPC   C3A38633  39.995  15.227   7.055
 8483POPC   C4A38634  39.981  15.205   7.355
 8483POPC   C1B38635  39.745  15.305   6.455
 8483POPC   C2B38636  39.773  15.291   6.755
 8483POPC   C3B38637  39.758  15.312   7.055
 8483POPC   C4B38638  39.764  15.347   7.355
 8484POPC   NC338639   1.207   9.744   5.555
 8484POPC   PO438640   1.180   9.782   5.855
 8484POPC   GL138641   1.207   9.764   6.155
 8484POPC   GL238642   1.152   9.690   6.155
 8484POPC   C1A38643   1.242   9.768   6.455
 8484POPC   D2A38644   1.254   9.737   6.755
 8484POPC   C3A38645   1.253   9.724   7.055
 8484POPC   C4A38646   1.173   9.786   7.355
 8484POPC   C1B38647   1.079   9.562   6.455
 8484POPC   C2B38648   1.022   9.546   6.755
 8484POPC   C3B38649   1.095   9.518   7.055
 8484POPC   C4B38650   1.061   9.538   7.355
 8485POPC   NC338651  42.339   1.941   5.555
 8485POPC   PO438652  42.358   1.977   5.855
 8485POPC   GL138653  42.344   2.026   6.155
 8485POPC   GL238654  42.226   2.130   6.155
 8485POPC   C1A38655  42.288   2.004   6.455
 8485POPC   D2A38656  42.343   1.989   6.755
 8485POPC   C3A38657  42.290   2.012   7.055
 8485POPC   C4A38658  42.305   1.996   7.355
 8485POPC   C1B38659  42.218   2.163   6.455
 8485POPC   C2B38660  42.212   2.216   6.755
 8485POPC   C3B38661  42.175   2.207   7.055
 8485POPC   C4B38662  42.173   2.215   7.355
 8486POPC   NC338663  34.592   0.412   5.555
 8486POPC   PO438664  34.612   0.417   5.855
 8486POPC   GL138665  34.576   0.391   6.155
 8486POPC   GL238666  34.456   0.368   6.155
 8486POPC   C1A38667  34.584   0.393   6.455
 8486POPC   D2A38668  34.553   0.468   6.755
 8486POPC   C3A38669  34.581   0.412   7.055
 8486POPC   C4A38670  34.549   0.463   7.355
 8486POPC   C1B38671  34.384   0.222   6.455
 8486POPC   C2B38672  34.454   0.264   6.755
 8486POPC   C3B38673  34.467   0.252   7.055
 8486POPC   C4B38674  34.413   0.194   7.355
 8487POPC   NC338675  15.919  21.354   5.555
 8487POPC   PO438676  15.975  21.407   5.855
 8487POPC   GL138677  16.003  21.347   6.155
 8487POPC   GL238678  15.841  21.529   6.155
 8487POPC   C1A38679  15.974  21.342   6.455
 8487POPC   D2A38680  15.962  21.412   6.755
 8487POPC   C3A38681  15.957  21.398   7.055
 8487POPC   C4A38682  15.955  21.386   7.355
 8487POPC   C1B38683  15.833  21.635   6.455
 8487POPC   C2B38684  15.814  21.545   6.755
 8487POPC   C3B38685  15.759  21.573   7.055
 8487POPC   C4B38686  15.802  21.621   7.355
 8488POPC   NC338687   5.883   8.219   5.555
 8488POPC   PO438688   5.853   8.194   5.855
 8488POPC   GL138689   5.917   8.215   6.155
 8488POPC   GL238690   5.975   8.290   6.155
 8488POPC   C1A38691   5.820   8.187   6.455
 8488POPC   D2A38692   5.825   8.236   6.755
 8488POPC   C3A38693   5.856   8.186   7.055
 8488POPC   C4A38694   5.917   8.179   7.355
 8488POPC   C1B38695   6.038   8.372   6.455
 8488POPC   C2B38696   5.984   8.419   6.755
 8488POPC   C3B38697   6.020   8.433   7.055
 8488POPC   C4B38698   6.013   8.428   7.355
 8489POPC   NC338699  18.328  44.651   5.555
 8489POPC   PO438700  18.252  44.616   5.855
 8489POPC   GL138701  18.302  44.659   6.155
 8489POPC   GL238702  18.151  44.640   6.155
 8489POPC   C1A38703  18.241  44.703   6.455
 8489POPC   D2A38704  18.282  44.628   6.755
 8489POPC   C3A38705  18.310  44.635   7.055
 8489POPC   C4A38706  18.239  44.652   7.355
 8489POPC   C1B38707  18.036  44.568   6.455
 8489POPC   C2B38708  18.021  44.563   6.755
 8489POPC   C3B38709  18.057  44.592   7.055
 8489POPC   C4B38710  18.022  44.624   7.355
 8490POPC   NC338711  40.046   6.624   5.555
 8490POPC   PO438712  40.053   6.683   5.855
 8490POPC   GL138713  40.034   6.685   6.155
 8490POPC   GL238714  39.991   6.750   6.155
 8490POPC   C1A38715  40.020   6.625   6.455
 8490POPC   D2A38716  39.996   6.609   6.755
 8490POPC   C3A38717  40.022   6.652   7.055
 8490POPC   C4A38718  40.028   6.676   7.355
 8490POPC   C1B38719  39.921   6.841   6.455
 8490POPC   C2B38720  39.919   6.886   6.755
 8490POPC   C3B38721  39.910   6.832   7.055
 8490POPC   C4B38722  39.947   6.872   7.355
 8491POPC   NC338723   8.956  35.314   5.555
 8491POPC   PO438724   8.954  35.331   5.855
 8491POPC   GL138725   8.948  35.378   6.155
 8491POPC   GL238726   8.964  35.462   6.155
 8491POPC   C1A38727   9.021  35.398   6.455
 8491POPC   D2A38728   8.928  35.384   6.755
 8491POPC   C3A38729   8.942  35.348   7.055
 8491POPC   C4A38730   8.932  35.362   7.355
 8491POPC   C1B38731   9.026  35.602   6.455
 8491POPC   C2B38732   9.024  35.565   6.755
 8491POPC   C3B38733   8.986  35.632   7.055
 8491POPC   C4B38734   9.059  35.596   7.355
 8492POPC   NC338735  10.488  37.720   5.555
 8492POPC   PO438736  10.476  37.714   5.855
 8492POPC   GL138737  10.570  37.698   6.155
 8492POPC   GL238738  10.535  37.828   6.155
 8492POPC   C1A38739  10.565  37.672   6.455
 8492POPC   D2A38740  10.501  37.636   6.755
 8492POPC   C3A38741  10.537  37.684   7.055
 8492POPC   C4A38742  10.505  37.643   7.355
 8492POPC   C1B38743  10.684  37.859   6.455
 8492POPC   C2B38744  10.608  37.934   6.755
 8492POPC   C3B38745  10.630  37.885   7.055
 8492POPC   C4B38746  10.590  37.858   7.355
 8493POPC   NC338747  41.542  11.288   5.555
 8493POPC   PO438748  41.574  11.341   5.855
 8493POPC   GL138749  41.512  11.345   6.155
 8493POPC   GL238750  41.654  11.255   6.155
 8493POPC   C1A38751  41.556  11.291   6.455
 8493POPC   D2A38752  41.594  11.334   6.755
 8493POPC   C3A38753  41.557  11.338   7.055
 8493POPC   C4A38754  41.517  11.266   7.355
 8493POPC   C1B38755  41.754  11.266   6.455
 8493POPC   C2B38756  41.788  11.241   6.755
 8493POPC   C3B38757  41.786  11.193   7.055
 8493POPC   C4B38758  41.843  11.179   7.355
 8494POPC   NC338759  34.593   6.675   5.555
 8494POPC   PO438760  34.540   6.661   5.855
 8494POPC   GL138761  34.535   6.633   6.155
 8494POPC   GL238762  34.560   6.777   6.155
 8494POPC   C1A38763  34.536   6.686   6.455
 8494POPC   D2A38764  34.611   6.606   6.755
 8494POPC   C3A38765  34.604   6.632   7.055
 8494POPC   C4A38766  34.607   6.652   7.355
 8494POPC   C1B38767  34.598   6.892   6.455
 8494POPC   C2B38768  34.589   6.870   6.755
 8494POPC   C3B38769  34.617   6.914   7.055
 8494POPC   C4B38770  34.644   6.863   7.355
 8495POPC   NC338771  11.344  13.644   5.555
 8495POPC   PO438772  11.319  13.592   5.855
 8495POPC   GL138773  11.268  13.655   6.155
 8495POPC   GL238774  11.453  13.579   6.155
 8495POPC   C1A38775  11.317  13.588   6.455
 8495POPC   D2A38776  11.268  13.671   6.755
 8495POPC   C3A38777  11.315  13.596   7.055
 8495POPC   C4A38778  11.317  13.660   7.355
 8495POPC   C1B38779  11.495  13.605   6.455
 8495POPC   C2B38780  11.569  13.583   6.755
 8495POPC   C3B38781  11.508  13.536   7.055
 8495POPC   C4B38782  11.539  13.588   7.355
 8496POPC   NC338783   8.996  29.932   5.555
 8496POPC   PO438784   8.948  29.904   5.855
 8496POPC   GL138785   8.951  29.929   6.155
 8496POPC   GL238786   8.971  30.000   6.155
 8496POPC   C1A38787   9.000  29.932   6.455
 8496POPC   D2A38788   8.999  29.915   6.755
 8496POPC   C3A38789   8.935  29.900   7.055
 8496POPC   C4A38790   8.954  29.875   7.355
 8496POPC   C1B38791   8.948  30.148   6.455
 8496POPC   C2B38792   8.879  30.168   6.755
 8496POPC   C3B38793   8.962  30.165   7.055
 8496POPC   C4B38794   8.903  30.204   7.355
 8497POPC   NC338795  33.026  14.398   5.555
 8497POPC   PO438796  33.028  14.361   5.855
 8497POPC   GL138797  33.015  14.412   6.155
 8497POPC   GL238798  32.916  14.324   6.155
 8497POPC   C1A38799  33.062  14.360   6.455
 8497POPC   D2A38800  33.011  14.397   6.755
 8497POPC   C3A38801  33.037  14.372   7.055
 8497POPC   C4A38802  32.975  14.432   7.355
 8497POPC   C1B38803  32.905  14.205   6.455
 8497POPC   C2B38804  32.901  14.171   6.755
 8497POPC   C3B38805  32.881  14.203   7.055
 8497POPC   C4B38806  32.919  14.223   7.355
 8498POPC   NC338807  36.161   8.148   5.555
 8498POPC   PO438808  36.174   8.208   5.855
 8498POPC   GL138809  36.104   8.204   6.155
 8498POPC   GL238810  36.047   8.085   6.155
 8498POPC   C1A38811  36.094   8.171   6.455
 8498POPC   D2A38812  36.081   8.163   6.755
 8498POPC   C3A38813  36.172   8.147   7.055
 8498POPC   C4A38814  36.160   8.239   7.355
 8498POPC   C1B38815  36.038   8.020   6.455
 8498POPC   C2B38816  35.985   8.010   6.755
 8498POPC   C3B38817  36.038   8.015   7.055
 8498POPC   C4B38818  36.000   8.017   7.355
 8499POPC   NC338819  17.494  11.261   5.555
 8499POPC   PO438820  17.457  11.302   5.855
 8499POPC   GL138821  17.488  11.316   6.155
 8499POPC   GL238822  17.574  11.236   6.155
 8499POPC   C1A38823  17.477  11.276   6.455
 8499POPC   D2A38824  17.475  11.299   6.755
 8499POPC   C3A38825  17.549  11.342   7.055
 8499POPC   C4A38826  17.495  11.320   7.355
 8499POPC   C1B38827  17.636  11.115   6.455
 8499POPC   C2B38828  17.660  11.143   6.755
 8499POPC   C3B38829  17.664  11.133   7.055
 8499POPC   C4B38830  17.659  11.100   7.355
 8500POPC   NC338831   2.764   6.604   5.555
 8500POPC   PO438832   2.814   6.635   5.855
 8500POPC   GL138833   2.750   6.597   6.155
 8500POPC   GL238834   2.659   6.590   6.155
 8500POPC   C1A38835   2.748   6.616   6.455
 8500POPC   D2A38836   2.801   6.686   6.755
 8500POPC   C3A38837   2.761   6.601   7.055
 8500POPC   C4A38838   2.797   6.669   7.355
 8500POPC   C1B38839   2.509   6.511   6.455
 8500POPC   C2B38840   2.588   6.464   6.755
 8500POPC   C3B38841   2.528   6.485   7.055
 8500POPC   C4B38842   2.535   6.460   7.355
 8501POPC   NC338843  41.593   4.298   5.555
 8501POPC   PO438844  41.579   4.354   5.855
 8501POPC   GL138845  41.543   4.333   6.155
 8501POPC   GL238846  41.601   4.205   6.155
 8501POPC   C1A38847  41.565   4.282   6.455
 8501POPC   D2A38848  41.574   4.314   6.755
 8501POPC   C3A38849  41.538   4.312   7.055
 8501POPC   C4A38850  41.605   4.315   7.355
 8501POPC   C1B38851  41.605   4.068   6.455
 8501POPC   C2B38852  41.643   4.061   6.755
 8501POPC   C3B38853  41.573   4.104   7.055
 8501POPC   C4B38854  41.569   4.057   7.355
 8502POPC   NC338855  39.963  15.955   5.555
 8502POPC   PO438856  40.009  15.988   5.855
 8502POPC   GL138857  39.961  15.946   6.155
 8502POPC   GL238858  39.937  15.964   6.155
 8502POPC   C1A38859  39.967  15.921   6.455
 8502POPC   D2A38860  40.023  15.988   6.755
 8502POPC   C3A38861  40.042  15.983   7.055
 8502POPC   C4A38862  39.971  15.924   7.355
 8502POPC   C1B38863  39.808  16.098   6.455
 8502POPC   C2B38864  39.795  16.103   6.755
 8502POPC   C3B38865  39.766  16.014   7.055
 8502POPC   C4B38866  39.795  16.090   7.355
 8503POPC   NC338867  43.875  41.544   5.555
 8503POPC   PO438868  43.868  41.584   5.855
 8503POPC   GL138869  43.860  41.552   6.155
 8503POPC   GL238870  43.784  41.574   6.155
 8503POPC   C1A38871  43.886  41.549   6.455
 8503POPC   D2A38872  43.930  41.523   6.755
 8503POPC   C3A38873  43.907  41.536   7.055
 8503POPC   C4A38874  43.840  41.542   7.355
 8503POPC   C1B38875  43.623  41.501   6.455
 8503POPC   C2B38876  43.608  41.533   6.755
 8503POPC   C3B38877  43.680  41.540   7.055
 8503POPC   C4B38878  43.602  41.548   7.355
 8504POPC   NC338879   3.495  18.274   5.555
 8504POPC   PO438880   3.493  18.310   5.855
 8504POPC   GL138881   3.504  18.311   6.155
 8504POPC   GL238882   3.395  18.308   6.155
 8504POPC   C1A38883   3.564  18.309   6.455
 8504POPC   D2A38884   3.529  18.235   6.755
 8504POPC   C3A38885   3.582  18.318   7.055
 8504POPC   C4A38886   3.553  18.261   7.355
 8504POPC   C1B38887   3.280  18.225   6.455
 8504POPC   C2B38888   3.296  18.283   6.755
 8504POPC   C3B38889   3.279  18.247   7.055
 8504POPC   C4B38890   3.288  18.276   7.355
 8505POPC   NC338891  39.197  19.094   5.555
 8505POPC   PO438892  39.262  19.045   5.855
 8505POPC   GL138893  39.183  19.059   6.155
 8505POPC   GL238894  39.067  19.080   6.155
 8505POPC   C1A38895  39.200  19.044   6.455
 8505POPC   D2A38896  39.210  19.094   6.755
 8505POPC   C3A38897  39.281  19.097   7.055
 8505POPC   C4A38898  39.256  19.052   7.355
 8505POPC   C1B38899  38.986  19.021   6.455
 8505POPC   C2B38900  39.009  19.069   6.755
 8505POPC   C3B38901  38.956  19.058   7.055
 8505POPC   C4B38902  38.960  19.043   7.355
 8506POPC   NC338903  19.831   5.842   5.555
 8506POPC   PO438904  19.819   5.890   5.855
 8506POPC   GL138905  19.861   5.896   6.155
 8506POPC   GL238906  19.825   5.695   6.155
 8506POPC   C1A38907  19.834   5.903   6.455
 8506POPC   D2A38908  19.865   5.903   6.755
 8506POPC   C3A38909  19.816   5.831   7.055
 8506POPC   C4A38910  19.841   5.850   7.355
 8506POPC   C1B38911  19.801   5.597   6.455
 8506POPC   C2B38912  19.861   5.606   6.755
 8506POPC   C3B38913  19.801   5.663   7.055
 8506POPC   C4B38914  19.872   5.653   7.355
 8507POPC   NC338915  37.641  19.810   5.555
 8507POPC   PO438916  37.674  19.873   5.855
 8507POPC   GL138917  37.652  19.850   6.155
 8507POPC   GL238918  37.730  19.953   6.155
 8507POPC   C1A38919  37.688  19.810   6.455
 8507POPC   D2A38920  37.691  19.845   6.755
 8507POPC   C3A38921  37.716  19.835   7.055
 8507POPC   C4A38922  37.666  19.785   7.355
 8507POPC   C1B38923  37.721  20.098   6.455
 8507POPC   C2B38924  37.700  20.127   6.755
 8507POPC   C3B38925  37.722  20.117   7.055
 8507POPC   C4B38926  37.738  20.112   7.355
 8508POPC   NC338927  31.504   0.476   5.555
 8508POPC   PO438928  31.500   0.443   5.855
 8508POPC   GL138929  31.475   0.427   6.155
 8508POPC   GL238930  31.376   0.554   6.155
 8508POPC   C1A38931  31.452   0.478   6.455
 8508POPC   D2A38932  31.481   0.445   6.755
 8508POPC   C3A38933  31.464   0.401   7.055
 8508POPC   C4A38934  31.512   0.437   7.355
 8508POPC   C1B38935  31.281   0.598   6.455
 8508POPC   C2B38936  31.322   0.609   6.755
 8508POPC   C3B38937  31.315   0.592   7.055
 8508POPC   C4B38938  31.362   0.638   7.355
 8509POPC   NC338939  41.547  44.699   5.555
 8509POPC   PO438940  41.579  44.640   5.855
 8509POPC   GL138941  41.561  44.658   6.155
 8509POPC   GL238942  41.554  44.742   6.155
 8509POPC   C1A38943  41.570  44.656   6.455
 8509POPC   D2A38944  41.595  44.641   6.755
 8509POPC   C3A38945  41.527  44.623   7.055
 8509POPC   C4A38946  41.565  44.646   7.355
 8509POPC   C1B38947  41.603  44.871   6.455
 8509POPC   C2B38948  41.653  44.948   6.755
 8509POPC   C3B38949  41.653  44.857   7.055
 8509POPC   C4B38950  41.595  44.900   7.355
 8510POPC   NC338951  30.667   5.131   5.555
 8510POPC   PO438952  30.659   5.121   5.855
 8510POPC   GL138953  30.719   5.102   6.155
 8510POPC   GL238954  30.851   5.105   6.155
 8510POPC   C1A38955  30.661   5.059   6.455
 8510POPC   D2A38956  30.685   5.103   6.755
 8510POPC   C3A38957  30.663   5.108   7.055
 8510POPC   C4A38958  30.719   5.110   7.355
 8510POPC   C1B38959  30.976   5.161   6.455
 8510POPC   C2B38960  30.955   5.159   6.755
 8510POPC   C3B38961  30.912   5.147   7.055
 8510POPC   C4B38962  30.947   5.068   7.355
 8511POPC   NC338963   5.853   7.408   5.555
 8511POPC   PO438964   5.842   7.383   5.855
 8511POPC   GL138965   5.902   7.405   6.155
 8511POPC   GL238966   5.716   7.388   6.155
 8511POPC   C1A38967   5.869   7.470   6.455
 8511POPC   D2A38968   5.882   7.447   6.755
 8511POPC   C3A38969   5.823   7.431   7.055
 8511POPC   C4A38970   5.829   7.388   7.355
 8511POPC   C1B38971   5.643   7.439   6.455
 8511POPC   C2B38972   5.605   7.409   6.755
 8511POPC   C3B38973   5.575   7.364   7.055
 8511POPC   C4B38974   5.620   7.438   7.355
 8512POPC   NC338975   4.296  39.973   5.555
 8512POPC   PO438976   4.335  39.999   5.855
 8512POPC   GL138977   4.317  40.037   6.155
 8512POPC   GL238978   4.338  39.921   6.155
 8512POPC   C1A38979   4.286  39.994   6.455
 8512POPC   D2A38980   4.367  39.966   6.755
 8512POPC   C3A38981   4.356  39.971   7.055
 8512POPC   C4A38982   4.332  40.006   7.355
 8512POPC   C1B38983   4.440  39.785   6.455
 8512POPC   C2B38984   4.437  39.821   6.755
 8512POPC   C3B38985   4.411  39.777   7.055
 8512POPC   C4B38986   4.442  39.774   7.355
 8513POPC   NC338987  40.034  29.122   5.555
 8513POPC   PO438988  40.030  29.162   5.855
 8513POPC   GL138989  40.016  29.170   6.155
 8513POPC   GL238990  39.844  29.067   6.155
 8513POPC   C1A38991  40.007  29.176   6.455
 8513POPC   D2A38992  40.010  29.134   6.755
 8513POPC   C3A38993  39.960  29.181   7.055
 8513POPC   C4A38994  39.968  29.135   7.355
 8513POPC   C1B38995  39.808  29.048   6.455
 8513POPC   C2B38996  39.774  29.048   6.755
 8513POPC   C3B38997  39.772  29.044   7.055
 8513POPC   C4B38998  39.788  29.031   7.355
 8514POPC   NC338999  11.299  39.972   5.555
 8514POPC   PO439000  11.287  40.020   5.855
 8514POPC   GL139001  11.321  40.032   6.155
 8514POPC   GL239002  11.164  40.063   6.155
 8514POPC   C1A39003  11.278  40.009   6.455
 8514POPC   D2A39004  11.283  40.051   6.755
 8514POPC   C3A39005  11.331  39.973   7.055
 8514POPC   C4A39006  11.286  39.996   7.355
 8514POPC   C1B39007  11.122  40.193   6.455
 8514POPC   C2B39008  11.114  40.164   6.755
 8514POPC   C3B39009  11.128  40.192   7.055
 8514POPC   C4B39010  11.096  40.109   7.355
 8515POPC   NC339011   4.312  36.173   5.555
 8515POPC   PO439012   4.329  36.112   5.855
 8515POPC   GL139013   4.275  36.102   6.155
 8515POPC   GL239014   4.251  36.216   6.155
 8515POPC   C1A39015   4.316  36.123   6.455
 8515POPC   D2A39016   4.356  36.079   6.755
 8515POPC   C3A39017   4.305  36.101   7.055
 8515POPC   C4A39018   4.367  36.128   7.355
 8515POPC   C1B39019   4.142  36.245   6.455
 8515POPC   C2B39020   4.112  36.256   6.755
 8515POPC   C3B39021   4.075  36.236   7.055
 8515POPC   C4B39022   4.073  36.263   7.355
 8516POPC   NC339023  37.709  24.535   5.555
 8516POPC   PO439024  37.694  24.529   5.855
 8516POPC   GL139025  37.710  24.477   6.155
 8516POPC   GL239026  37.765  24.625   6.155
 8516POPC   C1A39027  37.666  24.448   6.455
 8516POPC   D2A39028  37.637  24.441   6.755
 8516POPC   C3A39029  37.666  24.451   7.055
 8516POPC   C4A39030  37.710  24.525   7.355
 8516POPC   C1B39031  37.841  24.738   6.455
 8516POPC   C2B39032  37.847  24.742   6.755
 8516POPC   C3B39033  37.828  24.742   7.055
 8516POPC   C4B39034  37.846  24.744   7.355
 8517POPC   NC339035  20.629  19.074   5.555
 8517POPC   PO439036  20.659  19.024   5.855
 8517POPC   GL139037  20.652  19.081   6.155
 8517POPC   GL239038  20.551  18.998   6.155
 8517POPC   C1A39039  20.569  19.013   6.455
 8517POPC   D2A39040  20.570  19.048   6.755
 8517POPC   C3A39041  20.584  19.056   7.055
 8517POPC   C4A39042  20.652  19.020   7.355
 8517POPC   C1B39043  20.433  18.847   6.455
 8517POPC   C2B39044  20.415  18.815   6.755
 8517POPC   C3B39045  20.499  18.856   7.055
 8517POPC   C4B39046  20.495  18.896   7.355
 8518POPC   NC339047   5.851  41.526   5.555
 8518POPC   PO439048   5.868  41.563   5.855
 8518POPC   GL139049   5.904  41.581   6.155
 8518POPC   GL239050   5.954  41.560   6.155
 8518POPC   C1A39051   5.856  41.567   6.455
 8518POPC   D2A39052   5.909  41.601   6.755
 8518POPC   C3A39053   5.908  41.606   7.055
 8518POPC   C4A39054   5.821  41.510   7.355
 8518POPC   C1B39055   6.143  41.598   6.455
 8518POPC   C2B39056   6.113  41.641   6.755
 8518POPC   C3B39057   6.139  41.612   7.055
 8518POPC   C4B39058   6.159  41.643   7.355
 8519POPC   NC339059  15.196   9.709   5.555
 8519POPC   PO439060  15.150   9.758   5.855
 8519POPC   GL139061  15.200   9.723   6.155
 8519POPC   GL239062  15.061   9.684   6.155
 8519POPC   C1A39063  15.207   9.722   6.455
 8519POPC   D2A39064  15.145   9.714   6.755
 8519POPC   C3A39065  15.190   9.796   7.055
 8519POPC   C4A39066  15.199   9.785   7.355
 8519POPC   C1B39067  14.892   9.699   6.455
 8519POPC   C2B39068  14.892   9.663   6.755
 8519POPC   C3B39069  14.982   9.642   7.055
 8519POPC   C4B39070  14.908   9.722   7.355
 8520POPC   NC339071  12.855   9.772   5.555
 8520POPC   PO439072  12.819   9.784   5.855
 8520POPC   GL139073  12.834   9.722   6.155
 8520POPC   GL239074  12.727   9.724   6.155
 8520POPC   C1A39075  12.809   9.718   6.455
 8520POPC   D2A39076  12.879   9.771   6.755
 8520POPC   C3A39077  12.852   9.715   7.055
 8520POPC   C4A39078  12.815   9.742   7.355
 8520POPC   C1B39079  12.609   9.706   6.455
 8520POPC   C2B39080  12.565   9.734   6.755
 8520POPC   C3B39081  12.561   9.669   7.055
 8520POPC   C4B39082  12.572   9.739   7.355
 8521POPC   NC339083  40.763   2.773   5.555
 8521POPC   PO439084  40.742   2.729   5.855
 8521POPC   GL139085  40.733   2.752   6.155
 8521POPC   GL239086  40.703   2.857   6.155
 8521POPC   C1A39087  40.829   2.773   6.455
 8521POPC   D2A39088  40.742   2.794   6.755
 8521POPC   C3A39089  40.747   2.796   7.055
 8521POPC   C4A39090  40.757   2.740   7.355
 8521POPC   C1B39091  40.685   3.001   6.455
 8521POPC   C2B39092  40.675   2.966   6.755
 8521POPC   C3B39093  40.628   3.013   7.055
 8521POPC   C4B39094  40.687   3.020   7.355
 8522POPC   NC339095  19.070   1.982   5.555
 8522POPC   PO439096  19.069   1.994   5.855
 8522POPC   GL139097  19.028   1.971   6.155
 8522POPC   GL239098  18.964   1.902   6.155
 8522POPC   C1A39099  19.050   2.009   6.455
 8522POPC   D2A39100  19.036   1.963   6.755
 8522POPC   C3A39101  19.063   1.976   7.055
 8522POPC   C4A39102  19.047   2.030   7.355
 8522POPC   C1B39103  18.914   1.779   6.455
 8522POPC   C2B39104  18.895   1.823   6.755
 8522POPC   C3B39105  18.910   1.764   7.055
 8522POPC   C4B39106  18.873   1.792   7.355
 8523POPC   NC339107  13.621  20.620   5.555
 8523POPC   PO439108  13.643  20.646   5.855
 8523POPC   GL139109  13.629  20.610   6.155
 8523POPC   GL239110  13.475  20.599   6.155
 8523POPC   C1A39111  13.585  20.577   6.455
 8523POPC   D2A39112  13.595  20.573   6.755
 8523POPC   C3A39113  13.628  20.576   7.055
 8523POPC   C4A39114  13.615  20.571   7.355
 8523POPC   C1B39115  13.340  20.607   6.455
 8523POPC   C2B39116  13.381  20.642   6.755
 8523POPC   C3B39117  13.422  20.630   7.055
 8523POPC   C4B39118  13.398  20.615   7.355
 8524POPC   NC339119  15.187  37.704   5.555
 8524POPC   PO439120  15.221  37.629   5.855
 8524POPC   GL139121  15.203  37.729   6.155
 8524POPC   GL239122  15.053  37.649   6.155
 8524POPC   C1A39123  15.155  37.651   6.455
 8524POPC   D2A39124  15.227  37.642   6.755
 8524POPC   C3A39125  15.140  37.634   7.055
 8524POPC   C4A39126  15.199  37.715   7.355
 8524POPC   C1B39127  14.917  37.744   6.455
 8524POPC   C2B39128  14.916  37.737   6.755
 8524POPC   C3B39129  14.962  37.759   7.055
 8524POPC   C4B39130  14.891  37.684   7.355
 8525POPC   NC339131  35.322   5.917   5.555
 8525POPC   PO439132  35.361   5.885   5.855
 8525POPC   GL139133  35.312   5.900   6.155
 8525POPC   GL239134  35.346   6.004   6.155
 8525POPC   C1A39135  35.388   5.903   6.455
 8525POPC   D2A39136  35.348   5.879   6.755
 8525POPC   C3A39137  35.327   5.848   7.055
 8525POPC   C4A39138  35.310   5.862   7.355
 8525POPC   C1B39139  35.333   6.152   6.455
 8525POPC   C2B39140  35.278   6.124   6.755
 8525POPC   C3B39141  35.265   6.121   7.055
 8525POPC   C4B39142  35.254   6.092   7.355
 8526POPC   NC339143   7.394  42.359   5.555
 8526POPC   PO439144   7.429  42.288   5.855
 8526POPC   GL139145   7.421  42.338   6.155
 8526POPC   GL239146   7.452  42.203   6.155
 8526POPC   C1A39147   7.387  42.309   6.455
 8526POPC   D2A39148   7.412  42.365   6.755
 8526POPC   C3A39149   7.434  42.366   7.055
 8526POPC   C4A39150   7.437  42.383   7.355
 8526POPC   C1B39151   7.557  42.154   6.455
 8526POPC   C2B39152   7.571  42.133   6.755
 8526POPC   C3B39153   7.544  42.124   7.055
 8526POPC   C4B39154   7.542  42.107   7.355
 8527POPC   NC339155  23.731  32.212   5.555
 8527POPC   PO439156  23.700  32.272   5.855
 8527POPC   GL139157  23.711  32.204   6.155
 8527POPC   GL239158  23.684  32.174   6.155
 8527POPC   C1A39159  23.669  32.248   6.455
 8527POPC   D2A39160  23.725  32.274   6.755
 8527POPC   C3A39161  23.753  32.222   7.055
 8527POPC   C4A39162  23.732  32.269   7.355
 8527POPC   C1B39163  23.753  31.973   6.455
 8527POPC   C2B39164  23.716  32.005   6.755
 8527POPC   C3B39165  23.703  31.968   7.055
 8527POPC   C4B39166  23.701  32.042   7.355
 8528POPC   NC339167  28.395  36.131   5.555
 8528POPC   PO439168  28.348  36.113   5.855
 8528POPC   GL139169  28.383  36.109   6.155
 8528POPC   GL239170  28.441  36.023   6.155
 8528POPC   C1A39171  28.389  36.141   6.455
 8528POPC   D2A39172  28.409  36.083   6.755
 8528POPC   C3A39173  28.361  36.084   7.055
 8528POPC   C4A39174  28.363  36.087   7.355
 8528POPC   C1B39175  28.439  35.878   6.455
 8528POPC   C2B39176  28.417  35.919   6.755
 8528POPC   C3B39177  28.488  35.866   7.055
 8528POPC   C4B39178  28.496  35.926   7.355
 8529POPC   NC339179   8.944   6.652   5.555
 8529POPC   PO439180   8.990   6.685   5.855
 8529POPC   GL139181   8.968   6.653   6.155
 8529POPC   GL239182   8.980   6.789   6.155
 8529POPC   C1A39183   8.961   6.630   6.455
 8529POPC   D2A39184   8.942   6.657   6.755
 8529POPC   C3A39185   8.976   6.618   7.055
 8529POPC   C4A39186   8.995   6.687   7.355
 8529POPC   C1B39187   8.888   6.889   6.455
 8529POPC   C2B39188   8.957   6.924   6.755
 8529POPC   C3B39189   8.934   6.885   7.055
 8529POPC   C4B39190   8.952   6.911   7.355
 8530POPC   NC339191  39.281  23.719   5.555
 8530POPC   PO439192  39.208  23.712   5.855
 8530POPC   GL139193  39.214  23.718   6.155
 8530POPC   GL239194  39.305  23.591   6.155
 8530POPC   C1A39195  39.190  23.732   6.455
 8530POPC   D2A39196  39.279  23.666   6.755
 8530POPC   C3A39197  39.276  23.701   7.055
 8530POPC   C4A39198  39.235  23.719   7.355
 8530POPC   C1B39199  39.364  23.488   6.455
 8530POPC   C2B39200  39.373  23.514   6.755
 8530POPC   C3B39201  39.355  23.516   7.055
 8530POPC   C4B39202  39.421  23.562   7.355
 8531POPC   NC339203  26.861  18.268   5.555
 8531POPC   PO439204  26.806  18.265   5.855
 8531POPC   GL139205  26.846  18.295   6.155
 8531POPC   GL239206  26.907  18.198   6.155
 8531POPC   C1A39207  26.776  18.264   6.455
 8531POPC   D2A39208  26.848  18.283   6.755
 8531POPC   C3A39209  26.809  18.303   7.055
 8531POPC   C4A39210  26.817  18.261   7.355
 8531POPC   C1B39211  26.870  18.057   6.455
 8531POPC   C2B39212  26.921  18.089   6.755
 8531POPC   C3B39213  26.880  18.051   7.055
 8531POPC   C4B39214  26.933  18.041   7.355
 8532POPC   NC339215  14.394   5.067   5.555
 8532POPC   PO439216  14.402   5.113   5.855
 8532POPC   GL139217  14.437   5.136   6.155
 8532POPC   GL239218  14.327   4.970   6.155
 8532POPC   C1A39219  14.394   5.054   6.455
 8532POPC   D2A39220  14.415   5.094   6.755
 8532POPC   C3A39221  14.354   5.094   7.055
 8532POPC   C4A39222  14.394   5.140   7.355
 8532POPC   C1B39223  14.284   4.899   6.455
 8532POPC   C2B39224  14.291   4.864   6.755
 8532POPC   C3B39225  14.257   4.868   7.055
 8532POPC   C4B39226  14.274   4.903   7.355
 8533POPC   NC339227  16.767  25.220   5.555
 8533POPC   PO439228  16.722  25.284   5.855
 8533POPC   GL139229  16.742  25.253   6.155
 8533POPC   GL239230  16.643  25.357   6.155
 8533POPC   C1A39231  16.723  25.243   6.455
 8533POPC   D2A39232  16.765  25.291   6.755
 8533POPC   C3A39233  16.701  25.240   7.055
 8533POPC   C4A39234  16.754  25.298   7.355
 8533POPC   C1B39235  16.576  25.479   6.455
 8533POPC   C2B39236  16.529  25.408   6.755
 8533POPC   C3B39237  16.602  25.405   7.055
 8533POPC   C4B39238  16.545  25.501   7.355
 8534POPC   NC339239   8.155  15.193   5.555
 8534POPC   PO439240   8.152  15.170   5.855
 8534POPC   GL139241   8.205  15.141   6.155
 8534POPC   GL239242   8.278  15.296   6.155
 8534POPC   C1A39243   8.206  15.136   6.455
 8534POPC   D2A39244   8.148  15.202   6.755
 8534POPC   C3A39245   8.149  15.139   7.055
 8534POPC   C4A39246   8.150  15.151   7.355
 8534POPC   C1B39247   8.384  15.410   6.455
 8534POPC   C2B39248   8.367  15.375   6.755
 8534POPC   C3B39249   8.389  15.400   7.055
 8534POPC   C4B39250   8.351  15.380   7.355
 8535POPC   NC339251  26.799  26.856   5.555
 8535POPC   PO439252  26.813  26.795   5.855
 8535POPC   GL139253  26.848  26.815   6.155
 8535POPC   GL239254  26.852  26.697   6.155
 8535POPC   C1A39255  26.858  26.782   6.455
 8535POPC   D2A39256  26.813  26.827   6.755
 8535POPC   C3A39257  26.776  26.827   7.055
 8535POPC   C4A39258  26.833  26.840   7.355
 8535POPC   C1B39259  26.957  26.630   6.455
 8535POPC   C2B39260  26.949  26.581   6.755
 8535POPC   C3B39261  26.941  26.576   7.055
 8535POPC   C4B39262  27.010  26.645   7.355
 8536POPC   NC339263  21.436   4.306   5.555
 8536POPC   PO439264  21.397   4.278   5.855
 8536POPC   GL139265  21.359   4.289   6.155
 8536POPC   GL239266  21.231   4.420   6.155
 8536POPC   C1A39267  21.350   4.352   6.455
 8536POPC   D2A39268  21.369   4.314   6.755
 8536POPC   C3A39269  21.351   4.355   7.055
 8536POPC   C4A39270  21.356   4.320   7.355
 8536POPC   C1B39271  21.143   4.448   6.455
 8536POPC   C2B39272  21.155   4.446   6.755
 8536POPC   C3B39273  21.163   4.413   7.055
 8536POPC   C4B39274  21.135   4.449   7.355
 8537POPC   NC339275  22.945  18.244   5.555
 8537POPC   PO439276  22.957  18.322   5.855
 8537POPC   GL139277  22.936  18.276   6.155
 8537POPC   GL239278  23.079  18.253   6.155
 8537POPC   C1A39279  22.972  18.300   6.455
 8537POPC   D2A39280  22.916  18.242   6.755
 8537POPC   C3A39281  22.956  18.288   7.055
 8537POPC   C4A39282  22.927  18.317   7.355
 8537POPC   C1B39283  23.135  18.215   6.455
 8537POPC   C2B39284  23.135  18.202   6.755
 8537POPC   C3B39285  23.132  18.218   7.055
 8537POPC   C4B39286  23.211  18.205   7.355
 8538POPC   NC339287  19.050  26.852   5.555
 8538POPC   PO439288  19.089  26.843   5.855
 8538POPC   GL139289  19.035  26.823   6.155
 8538POPC   GL239290  19.190  26.933   6.155
 8538POPC   C1A39291  19.097  26.856   6.455
 8538POPC   D2A39292  19.081  26.837   6.755
 8538POPC   C3A39293  19.073  26.800   7.055
 8538POPC   C4A39294  19.101  26.805   7.355
 8538POPC   C1B39295  19.307  26.963   6.455
 8538POPC   C2B39296  19.231  26.978   6.755
 8538POPC   C3B39297  19.211  26.992   7.055
 8538POPC   C4B39298  19.277  27.015   7.355
 8539POPC   NC339299  29.187  13.651   5.555
 8539POPC   PO439300  29.101  13.617   5.855
 8539POPC   GL139301  29.178  13.663   6.155
 8539POPC   GL239302  29.105  13.771   6.155
 8539POPC   C1A39303  29.097  13.663   6.455
 8539POPC   D2A39304  29.095  13.578   6.755
 8539POPC   C3A39305  29.165  13.607   7.055
 8539POPC   C4A39306  29.142  13.582   7.355
 8539POPC   C1B39307  29.196  13.920   6.455
 8539POPC   C2B39308  29.144  13.877   6.755
 8539POPC   C3B39309  29.130  13.907   7.055
 8539POPC   C4B39310  29.168  13.892   7.355
 8540POPC   NC339311   3.525  19.831   5.555
 8540POPC   PO439312   3.528  19.798   5.855
 8540POPC   GL139313   3.506  19.875   6.155
 8540POPC   GL239314   3.422  19.941   6.155
 8540POPC   C1A39315   3.509  19.874   6.455
 8540POPC   D2A39316   3.552  19.810   6.755
 8540POPC   C3A39317   3.555  19.802   7.055
 8540POPC   C4A39318   3.545  19.799   7.355
 8540POPC   C1B39319   3.368  20.072   6.455
 8540POPC   C2B39320   3.421  20.072   6.755
 8540POPC   C3B39321   3.398  20.080   7.055
 8540POPC   C4B39322   3.391  20.065   7.355
 8541POPC   NC339323  34.601  15.161   5.555
 8541POPC   PO439324  34.563  15.166   5.855
 8541POPC   GL139325  34.556  15.203   6.155
 8541POPC   GL239326  34.435  15.126   6.155
 8541POPC   C1A39327  34.611  15.223   6.455
 8541POPC   D2A39328  34.565  15.153   6.755
 8541POPC   C3A39329  34.552  15.186   7.055
 8541POPC   C4A39330  34.591  15.142   7.355
 8541POPC   C1B39331  34.428  15.027   6.455
 8541POPC   C2B39332  34.412  15.036   6.755
 8541POPC   C3B39333  34.430  14.993   7.055
 8541POPC   C4B39334  34.388  14.990   7.355
 8542POPC   NC339335  17.531   1.193   5.555
 8542POPC   PO439336  17.493   1.208   5.855
 8542POPC   GL139337  17.496   1.194   6.155
 8542POPC   GL239338  17.370   1.167   6.155
 8542POPC   C1A39339  17.483   1.259   6.455
 8542POPC   D2A39340  17.480   1.210   6.755
 8542POPC   C3A39341  17.476   1.179   7.055
 8542POPC   C4A39342  17.457   1.221   7.355
 8542POPC   C1B39343  17.207   1.181   6.455
 8542POPC   C2B39344  17.299   1.168   6.755
 8542POPC   C3B39345  17.295   1.217   7.055
 8542POPC   C4B39346  17.212   1.178   7.355
 8543POPC   NC339347   1.982   4.300   5.555
 8543POPC   PO439348   1.990   4.357   5.855
 8543POPC   GL139349   1.955   4.320   6.155
 8543POPC   GL239350   2.018   4.448   6.155
 8543POPC   C1A39351   1.974   4.359   6.455
 8543POPC   D2A39352   2.037   4.337   6.755
 8543POPC   C3A39353   2.003   4.287   7.055
 8543POPC   C4A39354   1.991   4.327   7.355
 8543POPC   C1B39355   2.053   4.591   6.455
 8543POPC   C2B39356   2.089   4.572   6.755
 8543POPC   C3B39357   2.035   4.585   7.055
 8543POPC   C4B39358   2.115   4.536   7.355
 8544POPC   NC339359  17.511  10.550   5.555
 8544POPC   PO439360  17.550  10.572   5.855
 8544POPC   GL139361  17.511  10.485   6.155
 8544POPC   GL239362  17.402  10.527   6.155
 8544POPC   C1A39363  17.474  10.496   6.455
 8544POPC   D2A39364  17.503  10.554   6.755
 8544POPC   C3A39365  17.470  10.555   7.055
 8544POPC   C4A39366  17.508  10.497   7.355
 8544POPC   C1B39367  17.274  10.428   6.455
 8544POPC   C2B39368  17.223  10.436   6.755
 8544POPC   C3B39369  17.303  10.460   7.055
 8544POPC   C4B39370  17.261  10.452   7.355
 8545POPC   NC339371  26.079  18.293   5.555
 8545POPC   PO439372  26.023  18.298   5.855
 8545POPC   GL139373  26.078  18.242   6.155
 8545POPC   GL239374  25.973  18.364   6.155
 8545POPC   C1A39375  26.011  18.333   6.455
 8545POPC   D2A39376  26.039  18.266   6.755
 8545POPC   C3A39377  26.029  18.249   7.055
 8545POPC   C4A39378  26.068  18.329   7.355
 8545POPC   C1B39379  25.974  18.536   6.455
 8545POPC   C2B39380  25.932  18.518   6.755
 8545POPC   C3B39381  25.943  18.519   7.055
 8545POPC   C4B39382  25.976  18.539   7.355
 8546POPC   NC339383  35.303  13.585   5.555
 8546POPC   PO439384  35.374  13.588   5.855
 8546POPC   GL139385  35.395  13.578   6.155
 8546POPC   GL239386  35.423  13.747   6.155
 8546POPC   C1A39387  35.359  13.635   6.455
 8546POPC   D2A39388  35.349  13.641   6.755
 8546POPC   C3A39389  35.333  13.605   7.055
 8546POPC   C4A39390  35.383  13.635   7.355
 8546POPC   C1B39391  35.484  13.804   6.455
 8546POPC   C2B39392  35.518  13.869   6.755
 8546POPC   C3B39393  35.505  13.836   7.055
 8546POPC   C4B39394  35.508  13.877   7.355
 8547POPC   NC339395  32.199  12.828   5.555
 8547POPC   PO439396  32.249  12.827   5.855
 8547POPC   GL139397  32.268  12.802   6.155
 8547POPC   GL239398  32.225  12.909   6.155
 8547POPC   C1A39399  32.265  12.849   6.455
 8547POPC   D2A39400  32.268  12.841   6.755
 8547POPC   C3A39401  32.199  12.841   7.055
 8547POPC   C4A39402  32.287  12.875   7.355
 8547POPC   C1B39403  32.151  13.078   6.455
 8547POPC   C2B39404  32.139  13.078   6.755
 8547POPC   C3B39405  32.109  13.071   7.055
 8547POPC   C4B39406  32.088  13.053   7.355
 8548POPC   NC339407  26.801   6.601   5.555
 8548POPC   PO439408  26.775   6.684   5.855
 8548POPC   GL139409  26.789   6.614   6.155
 8548POPC   GL239410  26.903   6.706   6.155
 8548POPC   C1A39411  26.798   6.601   6.455
 8548POPC   D2A39412  26.820   6.598   6.755
 8548POPC   C3A39413  26.859   6.671   7.055
 8548POPC   C4A39414  26.834   6.618   7.355
 8548POPC   C1B39415  26.991   6.754   6.455
 8548POPC   C2B39416  27.048   6.802   6.755
 8548POPC   C3B39417  27.027   6.756   7.055
 8548POPC   C4B39418  27.009   6.750   7.355
 8549POPC   NC339419   7.427  40.050   5.555
 8549POPC   PO439420   7.411  40.035   5.855
 8549POPC   GL139421   7.469  39.968   6.155
 8549POPC   GL239422   7.487  40.099   6.155
 8549POPC   C1A39423   7.456  39.986   6.455
 8549POPC   D2A39424   7.412  40.010   6.755
 8549POPC   C3A39425   7.400  40.056   7.055
 8549POPC   C4A39426   7.430  40.013   7.355
 8549POPC   C1B39427   7.602  40.077   6.455
 8549POPC   C2B39428   7.665  40.076   6.755
 8549POPC   C3B39429   7.604  40.059   7.055
 8549POPC   C4B39430   7.616  40.086   7.355
 8550POPC   NC339431  36.877  14.400   5.555
 8550POPC   PO439432  36.923  14.390   5.855
 8550POPC   GL139433  36.940  14.383   6.155
 8550POPC   GL239434  36.781  14.416   6.155
 8550POPC   C1A39435  36.944  14.431   6.455
 8550POPC   D2A39436  36.913  14.449   6.755
 8550POPC   C3A39437  36.922  14.412   7.055
 8550POPC   C4A39438  36.947  14.363   7.355
 8550POPC   C1B39439  36.630  14.365   6.455
 8550POPC   C2B39440  36.709  14.331   6.755
 8550POPC   C3B39441  36.668  14.373   7.055
 8550POPC   C4B39442  36.650  14.324   7.355
 8551POPC   NC339443   1.202  40.050   5.555
 8551POPC   PO439444   1.188  39.989   5.855
 8551POPC   GL139445   1.168  40.041   6.155
 8551POPC   GL239446   1.349  40.124   6.155
 8551POPC   C1A39447   1.175  40.012   6.455
 8551POPC   D2A39448   1.206  39.974   6.755
 8551POPC   C3A39449   1.222  40.013   7.055
 8551POPC   C4A39450   1.227  39.974   7.355
 8551POPC   C1B39451   1.455  40.178   6.455
 8551POPC   C2B39452   1.416  40.189   6.755
 8551POPC   C3B39453   1.460  40.198   7.055
 8551POPC   C4B39454   1.421  40.167   7.355
 8552POPC   NC339455  16.004   4.280   5.555
 8552POPC   PO439456  15.967   4.360   5.855
 8552POPC   GL139457  15.921   4.286   6.155
 8552POPC   GL239458  15.876   4.384   6.155
 8552POPC   C1A39459  15.906   4.332   6.455
 8552POPC   D2A39460  15.983   4.316   6.755
 8552POPC   C3A39461  15.906   4.367   7.055
 8552POPC   C4A39462  15.932   4.301   7.355
 8552POPC   C1B39463  15.694   4.353   6.455
 8552POPC   C2B39464  15.758   4.367   6.755
 8552POPC   C3B39465  15.706   4.436   7.055
 8552POPC   C4B39466  15.720   4.395   7.355
 8553POPC   NC339467   4.288  16.708   5.555
 8553POPC   PO439468   4.312  16.690   5.855
 8553POPC   GL139469   4.317  16.726   6.155
 8553POPC   GL239470   4.375  16.667   6.155
 8553POPC   C1A39471   4.290  16.739   6.455
 8553POPC   D2A39472   4.365  16.763   6.755
 8553POPC   C3A39473   4.349  16.748   7.055
 8553POPC   C4A39474   4.293  16.740   7.355
 8553POPC   C1B39475   4.540  16.542   6.455
 8553POPC   C2B39476   4.562  16.616   6.755
 8553POPC   C3B39477   4.563  16.601   7.055
 8553POPC   C4B39478   4.485  16.554   7.355
 8554POPC   NC339479  18.239  12.102   5.555
 8554POPC   PO439480  18.238  12.032   5.855
 8554POPC   GL139481  18.320  12.036   6.155
 8554POPC   GL239482  18.365  12.130   6.155
 8554POPC   C1A39483  18.233  12.033   6.455
 8554POPC   D2A39484  18.276  12.108   6.755
 8554POPC   C3A39485  18.252  12.115   7.055
 8554POPC   C4A39486  18.332  12.081   7.355
 8554POPC   C1B39487  18.566  12.199   6.455
 8554POPC   C2B39488  18.511  12.136   6.755
 8554POPC   C3B39489  18.486  12.186   7.055
 8554POPC   C4B39490  18.511  12.152   7.355
 8555POPC   NC339491  13.593  33.805   5.555
 8555POPC   PO439492  13.662  33.797   5.855
 8555POPC   GL139493  13.659  33.754   6.155
 8555POPC   GL239494  13.481  33.693   6.155
 8555POPC   C1A39495  13.588  33.822   6.455
 8555POPC   D2A39496  13.610  33.849   6.755
 8555POPC   C3A39497  13.584  33.773   7.055
 8555POPC   C4A39498  13.642  33.775   7.355
 8555POPC   C1B39499  13.418  33.674   6.455
 8555POPC   C2B39500  13.409  33.670   6.755
 8555POPC   C3B39501  13.458  33.628   7.055
 8555POPC   C4B39502  13.414  33.710   7.355
 8556POPC   NC339503  12.042   8.959   5.555
 8556POPC   PO439504  12.107   8.970   5.855
 8556POPC   GL139505  12.062   8.972   6.155
 8556POPC   GL239506  12.160   8.943   6.155
 8556POPC   C1A39507  12.032   8.987   6.455
 8556POPC   D2A39508  12.078   8.985   6.755
 8556POPC   C3A39509  12.049   8.931   7.055
 8556POPC   C4A39510  12.041   8.949   7.355
 8556POPC   C1B39511  12.288   8.847   6.455
 8556POPC   C2B39512  12.295   8.869   6.755
 8556POPC   C3B39513  12.292   8.798   7.055
 8556POPC   C4B39514  12.313   8.848   7.355
 8557POPC   NC339515  43.891  26.807   5.555
 8557POPC   PO439516  43.871  26.774   5.855
 8557POPC   GL139517  43.880  26.839   6.155
 8557POPC   GL239518  43.760  26.827   6.155
 8557POPC   C1A39519  43.871  26.809   6.455
 8557POPC   D2A39520  43.930  26.779   6.755
 8557POPC   C3A39521  43.861  26.822   7.055
 8557POPC   C4A39522  43.934  26.867   7.355
 8557POPC   C1B39523  43.607  26.700   6.455
 8557POPC   C2B39524  43.597  26.752   6.755
 8557POPC   C3B39525  43.662  26.740   7.055
 8557POPC   C4B39526  43.688  26.766   7.355
 8558POPC   NC339527  12.056  29.907   5.555
 8558POPC   PO439528  12.116  29.913   5.855
 8558POPC   GL139529  12.038  29.891   6.155
 8558POPC   GL239530  12.223  29.974   6.155
 8558POPC   C1A39531  12.042  29.898   6.455
 8558POPC   D2A39532  12.120  29.946   6.755
 8558POPC   C3A39533  12.087  29.965   7.055
 8558POPC   C4A39534  12.089  29.962   7.355
 8558POPC   C1B39535  12.360  29.935   6.455
 8558POPC   C2B39536  12.319  29.920   6.755
 8558POPC   C3B39537  12.314  29.967   7.055
 8558POPC   C4B39538  12.343  29.941   7.355
 8559POPC   NC339539  38.499   5.049   5.555
 8559POPC   PO439540  38.475   5.121   5.855
 8559POPC   GL139541  38.418   5.106   6.155
 8559POPC   GL239542  38.303   5.164   6.155
 8559POPC   C1A39543  38.501   5.139   6.455
 8559POPC   D2A39544  38.433   5.100   6.755
 8559POPC   C3A39545  38.464   5.087   7.055
 8559POPC   C4A39546  38.432   5.108   7.355
 8559POPC   C1B39547  38.230   5.171   6.455
 8559POPC   C2B39548  38.186   5.218   6.755
 8559POPC   C3B39549  38.202   5.233   7.055
 8559POPC   C4B39550  38.200   5.232   7.355
 8560POPC   NC339551  19.054   3.575   5.555
 8560POPC   PO439552  19.105   3.511   5.855
 8560POPC   GL139553  19.068   3.509   6.155
 8560POPC   GL239554  19.071   3.673   6.155
 8560POPC   C1A39555  19.098   3.495   6.455
 8560POPC   D2A39556  19.079   3.521   6.755
 8560POPC   C3A39557  19.039   3.555   7.055
 8560POPC   C4A39558  19.095   3.497   7.355
 8560POPC   C1B39559  19.053   3.749   6.455
 8560POPC   C2B39560  19.124   3.774   6.755
 8560POPC   C3B39561  19.130   3.836   7.055
 8560POPC   C4B39562  19.066   3.768   7.355
 8561POPC   NC339563  33.047  29.140   5.555
 8561POPC   PO439564  33.061  29.127   5.855
 8561POPC   GL139565  33.028  29.141   6.155
 8561POPC   GL239566  32.929  29.166   6.155
 8561POPC   C1A39567  33.056  29.140   6.455
 8561POPC   D2A39568  32.985  29.177   6.755
 8561POPC   C3A39569  33.055  29.131   7.055
 8561POPC   C4A39570  33.045  29.125   7.355
 8561POPC   C1B39571  32.752  29.122   6.455
 8561POPC   C2B39572  32.747  29.129   6.755
 8561POPC   C3B39573  32.737  29.141   7.055
 8561POPC   C4B39574  32.800  29.164   7.355
 8562POPC   NC339575  37.629  42.287   5.555
 8562POPC   PO439576  37.711  42.287   5.855
 8562POPC   GL139577  37.724  42.304   6.155
 8562POPC   GL239578  37.548  42.278   6.155
 8562POPC   C1A39579  37.725  42.314   6.455
 8562POPC   D2A39580  37.649  42.366   6.755
 8562POPC   C3A39581  37.635  42.369   7.055
 8562POPC   C4A39582  37.690  42.312   7.355
 8562POPC   C1B39583  37.477  42.322   6.455
 8562POPC   C2B39584  37.467  42.264   6.755
 8562POPC   C3B39585  37.429  42.285   7.055
 8562POPC   C4B39586  37.463  42.304   7.355
 8563POPC   NC339587  41.514  31.442   5.555
 8563POPC   PO439588  41.582  31.459   5.855
 8563POPC   GL139589  41.604  31.488   6.155
 8563POPC   GL239590  41.696  31.374   6.155
 8563POPC   C1A39591  41.523  31.520   6.455
 8563POPC   D2A39592  41.605  31.424   6.755
 8563POPC   C3A39593  41.576  31.438   7.055
 8563POPC   C4A39594  41.566  31.435   7.355
 8563POPC   C1B39595  41.780  31.387   6.455
 8563POPC   C2B39596  41.760  31.313   6.755
 8563POPC   C3B39597  41.815  31.375   7.055
 8563POPC   C4B39598  41.721  31.299   7.355
 8564POPC   NC339599  15.208  28.337   5.555
 8564POPC   PO439600  15.171  28.339   5.855
 8564POPC   GL139601  15.182  28.342   6.155
 8564POPC   GL239602  15.290  28.263   6.155
 8564POPC   C1A39603  15.223  28.320   6.455
 8564POPC   D2A39604  15.191  28.351   6.755
 8564POPC   C3A39605  15.130  28.328   7.055
 8564POPC   C4A39606  15.171  28.399   7.355
 8564POPC   C1B39607  15.370  28.258   6.455
 8564POPC   C2B39608  15.342  28.199   6.755
 8564POPC   C3B39609  15.412  28.264   7.055
 8564POPC   C4B39610  15.346  28.230   7.355
 8565POPC   NC339611  22.185  13.629   5.555
 8565POPC   PO439612  22.168  13.644   5.855
 8565POPC   GL139613  22.160  13.601   6.155
 8565POPC   GL239614  22.094  13.547   6.155
 8565POPC   C1A39615  22.176  13.656   6.455
 8565POPC   D2A39616  22.194  13.646   6.755
 8565POPC   C3A39617  22.155  13.605   7.055
 8565POPC   C4A39618  22.116  13.621   7.355
 8565POPC   C1B39619  21.969  13.463   6.455
 8565POPC   C2B39620  22.012  13.454   6.755
 8565POPC   C3B39621  21.989  13.393   7.055
 8565POPC   C4B39622  21.979  13.391   7.355
 8566POPC   NC339623  22.943  39.245   5.555
 8566POPC   PO439624  22.904  39.192   5.855
 8566POPC   GL139625  22.963  39.249   6.155
 8566POPC   GL239626  23.051  39.354   6.155
 8566POPC   C1A39627  22.950  39.217   6.455
 8566POPC   D2A39628  22.968  39.208   6.755
 8566POPC   C3A39629  22.908  39.255   7.055
 8566POPC   C4A39630  22.939  39.191   7.355
 8566POPC   C1B39631  23.097  39.435   6.455
 8566POPC   C2B39632  23.163  39.438   6.755
 8566POPC   C3B39633  23.125  39.382   7.055
 8566POPC   C4B39634  23.109  39.441   7.355
 8567POPC   NC339635  43.101   5.841   5.555
 8567POPC   PO439636  43.147   5.878   5.855
 8567POPC   GL139637  43.102   5.888   6.155
 8567POPC   GL239638  43.248   5.775   6.155
 8567POPC   C1A39639  43.062   5.906   6.455
 8567POPC   D2A39640  43.114   5.828   6.755
 8567POPC   C3A39641  43.099   5.912   7.055
 8567POPC   C4A39642  43.139   5.865   7.355
 8567POPC   C1B39643  43.298   5.739   6.455
 8567POPC   C2B39644  43.279   5.765   6.755
 8567POPC   C3B39645  43.334   5.674   7.055
 8567POPC   C4B39646  43.272   5.669   7.355
 8568POPC   NC339647   6.687  15.169   5.555
 8568POPC   PO439648   6.679  15.175   5.855
 8568POPC   GL139649   6.616  15.216   6.155
 8568POPC   GL239650   6.522  15.133   6.155
 8568POPC   C1A39651   6.652  15.141   6.455
 8568POPC   D2A39652   6.656  15.149   6.755
 8568POPC   C3A39653   6.658  15.204   7.055
 8568POPC   C4A39654   6.655  15.201   7.355
 8568POPC   C1B39655   6.365  15.084   6.455
 8568POPC   C2B39656   6.423  15.061   6.755
 8568POPC   C3B39657   6.400  15.072   7.055
 8568POPC   C4B39658   6.415  15.088   7.355
 8569POPC   NC339659  35.355  35.348   5.555
 8569POPC   PO439660  35.337  35.317   5.855
 8569POPC   GL139661  35.317  35.398   6.155
 8569POPC   GL239662  35.448  35.474   6.155
 8569POPC   C1A39663  35.340  35.311   6.455
 8569POPC   D2A39664  35.303  35.359   6.755
 8569POPC   C3A39665  35.401  35.391   7.055
 8569POPC   C4A39666  35.362  35.308   7.355
 8569POPC   C1B39667  35.518  35.552   6.455
 8569POPC   C2B39668  35.493  35.541   6.755
 8569POPC   C3B39669  35.548  35.549   7.055
 8569POPC   C4B39670  35.558  35.553   7.355
 8570POPC   NC339671   4.308   6.683   5.555
 8570POPC   PO439672   4.268   6.613   5.855
 8570POPC   GL139673   4.358   6.626   6.155
 8570POPC   GL239674   4.185   6.648   6.155
 8570POPC   C1A39675   4.366   6.675   6.455
 8570POPC   D2A39676   4.333   6.660   6.755
 8570POPC   C3A39677   4.286   6.618   7.055
 8570POPC   C4A39678   4.290   6.608   7.355
 8570POPC   C1B39679   4.060   6.695   6.455
 8570POPC   C2B39680   4.117   6.670   6.755
 8570POPC   C3B39681   4.112   6.757   7.055
 8570POPC   C4B39682   4.089   6.708   7.355
 8571POPC   NC339683  29.149  15.973   5.555
 8571POPC   PO439684  29.103  15.986   5.855
 8571POPC   GL139685  29.130  15.992   6.155
 8571POPC   GL239686  29.108  15.863   6.155
 8571POPC   C1A39687  29.183  15.970   6.455
 8571POPC   D2A39688  29.160  15.952   6.755
 8571POPC   C3A39689  29.183  15.966   7.055
 8571POPC   C4A39690  29.108  15.999   7.355
 8571POPC   C1B39691  29.154  15.670   6.455
 8571POPC   C2B39692  29.174  15.674   6.755
 8571POPC   C3B39693  29.205  15.719   7.055
 8571POPC   C4B39694  29.113  15.736   7.355
 8572POPC   NC339695  36.078  43.067   5.555
 8572POPC   PO439696  36.089  43.112   5.855
 8572POPC   GL139697  36.164  43.092   6.155
 8572POPC   GL239698  36.288  43.087   6.155
 8572POPC   C1A39699  36.130  43.118   6.455
 8572POPC   D2A39700  36.145  43.094   6.755
 8572POPC   C3A39701  36.161  43.064   7.055
 8572POPC   C4A39702  36.100  43.138   7.355
 8572POPC   C1B39703  36.427  43.128   6.455
 8572POPC   C2B39704  36.340  43.147   6.755
 8572POPC   C3B39705  36.418  43.100   7.055
 8572POPC   C4B39706  36.384  43.088   7.355
 8573POPC   NC339707  27.619   0.418   5.555
 8573POPC   PO439708  27.581   0.454   5.855
 8573POPC   GL139709  27.587   0.396   6.155
 8573POPC   GL239710  27.675   0.315   6.155
 8573POPC   C1A39711  27.573   0.406   6.455
 8573POPC   D2A39712  27.546   0.437   6.755
 8573POPC   C3A39713  27.583   0.458   7.055
 8573POPC   C4A39714  27.579   0.426   7.355
 8573POPC   C1B39715  27.721   0.207   6.455
 8573POPC   C2B39716  27.675   0.190   6.755
 8573POPC   C3B39717  27.730   0.201   7.055
 8573POPC   C4B39718  27.725   0.233   7.355
 8574POPC   NC339719  22.916   4.301   5.555
 8574POPC   PO439720  22.906   4.308   5.855
 8574POPC   GL139721  22.978   4.357   6.155
 8574POPC   GL239722  23.009   4.238   6.155
 8574POPC   C1A39723  22.985   4.360   6.455
 8574POPC   D2A39724  22.949   4.270   6.755
 8574POPC   C3A39725  22.937   4.297   7.055
 8574POPC   C4A39726  22.911   4.327   7.355
 8574POPC   C1B39727  23.191   4.194   6.455
 8574POPC   C2B39728  23.181   4.205   6.755
 8574POPC   C3B39729  23.145   4.172   7.055
 8574POPC   C4B39730  23.142   4.240   7.355
 8575POPC   NC339731   1.970  23.690   5.555
 8575POPC   PO439732   1.999  23.678   5.855
 8575POPC   GL139733   1.980  23.740   6.155
 8575POPC   GL239734   1.852  23.706   6.155
 8575POPC   C1A39735   1.948  23.763   6.455
 8575POPC   D2A39736   1.953  23.719   6.755
 8575POPC   C3A39737   1.982  23.763   7.055
 8575POPC   C4A39738   1.979  23.713   7.355
 8575POPC   C1B39739   1.782  23.753   6.455
 8575POPC   C2B39740   1.740  23.771   6.755
 8575POPC   C3B39741   1.725  23.756   7.055
 8575POPC   C4B39742   1.796  23.749   7.355
 8576POPC   NC339743  12.057   1.216   5.555
 8576POPC   PO439744  12.058   1.205   5.855
 8576POPC   GL139745  12.044   1.176   6.155
 8576POPC   GL239746  11.987   1.307   6.155
 8576POPC   C1A39747  12.041   1.184   6.455
 8576POPC   D2A39748  12.028   1.174   6.755
 8576POPC   C3A39749  12.118   1.193   7.055
 8576POPC   C4A39750  12.034   1.239   7.355
 8576POPC   C1B39751  11.871   1.371   6.455
 8576POPC   C2B39752  11.904   1.369   6.755
 8576POPC   C3B39753  11.899   1.421   7.055
 8576POPC   C4B39754  11.925   1.359   7.355
 8577POPC   NC339755  32.259  17.502   5.555
 8577POPC   PO439756  32.283  17.467   5.855
 8577POPC   GL139757  32.206  17.476   6.155
 8577POPC   GL239758  32.310  17.442   6.155
 8577POPC   C1A39759  32.247  17.546   6.455
 8577POPC   D2A39760  32.242  17.490   6.755
 8577POPC   C3A39761  32.251  17.530   7.055
 8577POPC   C4A39762  32.266  17.553   7.355
 8577POPC   C1B39763  32.380  17.317   6.455
 8577POPC   C2B39764  32.358  17.352   6.755
 8577POPC   C3B39765  32.429  17.360   7.055
 8577POPC   C4B39766  32.425  17.301   7.355
 8578POPC   NC339767  12.027  40.735   5.555
 8578POPC   PO439768  12.091  40.805   5.855
 8578POPC   GL139769  12.043  40.815   6.155
 8578POPC   GL239770  12.115  40.929   6.155
 8578POPC   C1A39771  12.041  40.801   6.455
 8578POPC   D2A39772  12.120  40.831   6.755
 8578POPC   C3A39773  12.103  40.745   7.055
 8578POPC   C4A39774  12.118  40.740   7.355
 8578POPC   C1B39775  12.130  40.982   6.455
 8578POPC   C2B39776  12.150  40.990   6.755
 8578POPC   C3B39777  12.187  41.003   7.055
 8578POPC   C4B39778  12.179  41.024   7.355
 8579POPC   NC339779   6.612   8.987   5.555
 8579POPC   PO439780   6.694   8.989   5.855
 8579POPC   GL139781   6.648   8.987   6.155
 8579POPC   GL239782   6.731   8.980   6.155
 8579POPC   C1A39783   6.655   8.997   6.455
 8579POPC   D2A39784   6.679   8.975   6.755
 8579POPC   C3A39785   6.596   8.977   7.055
 8579POPC   C4A39786   6.655   8.973   7.355
 8579POPC   C1B39787   6.884   9.073   6.455
 8579POPC   C2B39788   6.836   9.084   6.755
 8579POPC   C3B39789   6.866   9.055   7.055
 8579POPC   C4B39790   6.911   9.095   7.355
 8580POPC   NC339791  31.451   4.308   5.555
 8580POPC   PO439792  31.487   4.292   5.855
 8580POPC   GL139793  31.499   4.305   6.155
 8580POPC   GL239794  31.545   4.282   6.155
 8580POPC   C1A39795  31.512   4.313   6.455
 8580POPC   D2A39796  31.501   4.365   6.755
 8580POPC   C3A39797  31.448   4.362   7.055
 8580POPC   C4A39798  31.505   4.320   7.355
 8580POPC   C1B39799  31.730   4.248   6.455
 8580POPC   C2B39800  31.678   4.267   6.755
 8580POPC   C3B39801  31.678   4.264   7.055
 8580POPC   C4B39802  31.716   4.220   7.355
 8581POPC   NC339803   0.448  19.802   5.555
 8581POPC   PO439804   0.397  19.874   5.855
 8581POPC   GL139805   0.396  19.829   6.155
 8581POPC   GL239806   0.543  19.705   6.155
 8581POPC   C1A39807   0.402  19.859   6.455
 8581POPC   D2A39808   0.428  19.813   6.755
 8581POPC   C3A39809   0.469  19.807   7.055
 8581POPC   C4A39810   0.394  19.845   7.355
 8581POPC   C1B39811   0.536  19.590   6.455
 8581POPC   C2B39812   0.561  19.623   6.755
 8581POPC   C3B39813   0.598  19.583   7.055
 8581POPC   C4B39814   0.578  19.667   7.355
 8582POPC   NC339815  25.275  29.938   5.555
 8582POPC   PO439816  25.240  29.964   5.855
 8582POPC   GL139817  25.265  29.954   6.155
 8582POPC   GL239818  25.112  29.874   6.155
 8582POPC   C1A39819  25.219  29.926   6.455
 8582POPC   D2A39820  25.240  29.913   6.755
 8582POPC   C3A39821  25.271  29.912   7.055
 8582POPC   C4A39822  25.314  29.952   7.355
 8582POPC   C1B39823  25.049  29.838   6.455
 8582POPC   C2B39824  25.014  29.837   6.755
 8582POPC   C3B39825  24.981  29.808   7.055
 8582POPC   C4B39826  25.067  29.850   7.355
 8583POPC   NC339827  44.664  41.575   5.555
 8583POPC   PO439828  44.705  41.550   5.855
 8583POPC   GL139829  44.669  41.543   6.155
 8583POPC   GL239830  44.580  41.573   6.155
 8583POPC   C1A39831  44.619  41.541   6.455
 8583POPC   D2A39832  44.649  41.600   6.755
 8583POPC   C3A39833  44.699  41.586   7.055
 8583POPC   C4A39834  44.614  41.518   7.355
 8583POPC   C1B39835  44.393  41.626   6.455
 8583POPC   C2B39836  44.412  41.572   6.755
 8583POPC   C3B39837  44.408  41.626   7.055
 8583POPC   C4B39838  44.422  41.634   7.355
 8584POPC   NC339839  26.035   2.742   5.555
 8584POPC   PO439840  26.085   2.798   5.855
 8584POPC   GL139841  26.036   2.742   6.155
 8584POPC   GL239842  26.003   2.920   6.155
 8584POPC   C1A39843  26.013   2.719   6.455
 8584POPC   D2A39844  25.993   2.752   6.755
 8584POPC   C3A39845  26.064   2.727   7.055
 8584POPC   C4A39846  26.090   2.796   7.355
 8584POPC   C1B39847  25.968   3.036   6.455
 8584POPC   C2B39848  25.974   3.001   6.755
 8584POPC   C3B39849  25.975   2.955   7.055
 8584POPC   C4B39850  25.905   2.988   7.355
 8585POPC   NC339851  12.065  30.697   5.555
 8585POPC   PO439852  12.083  30.671   5.855
 8585POPC   GL139853  12.092  30.661   6.155
 8585POPC   GL239854  12.096  30.619   6.155
 8585POPC   C1A39855  12.059  30.710   6.455
 8585POPC   D2A39856  12.047  30.703   6.755
 8585POPC   C3A39857  12.070  30.669   7.055
 8585POPC   C4A39858  12.068  30.660   7.355
 8585POPC   C1B39859  12.090  30.448   6.455
 8585POPC   C2B39860  12.132  30.410   6.755
 8585POPC   C3B39861  12.151  30.403   7.055
 8585POPC   C4B39862  12.131  30.466   7.355
 8586POPC   NC339863  16.716  10.561   5.555
 8586POPC   PO439864  16.774  10.555   5.855
 8586POPC   GL139865  16.767  10.491   6.155
 8586POPC   GL239866  16.604  10.572   6.155
 8586POPC   C1A39867  16.701  10.485   6.455
 8586POPC   D2A39868  16.708  10.551   6.755
 8586POPC   C3A39869  16.719  10.513   7.055
 8586POPC   C4A39870  16.766  10.563   7.355
 8586POPC   C1B39871  16.579  10.758   6.455
 8586POPC   C2B39872  16.563  10.715   6.755
 8586POPC   C3B39873  16.560  10.711   7.055
 8586POPC   C4B39874  16.606  10.715   7.355
 8587POPC   NC339875  12.043  27.589   5.555
 8587POPC   PO439876  12.084  27.568   5.855
 8587POPC   GL139877  12.099  27.557   6.155
 8587POPC   GL239878  12.008  27.719   6.155
 8587POPC   C1A39879  12.086  27.618   6.455
 8587POPC   D2A39880  12.063  27.563   6.755
 8587POPC   C3A39881  12.119  27.639   7.055
 8587POPC   C4A39882  12.104  27.564   7.355
 8587POPC   C1B39883  11.987  27.815   6.455
 8587POPC   C2B39884  12.028  27.842   6.755
 8587POPC   C3B39885  11.991  27.826   7.055
 8587POPC   C4B39886  12.059  27.801   7.355
 8588POPC   NC339887   1.165  40.819   5.555
 8588POPC   PO439888   1.197  40.750   5.855
 8588POPC   GL139889   1.198  40.827   6.155
 8588POPC   GL239890   1.289  40.725   6.155
 8588POPC   C1A39891   1.212  40.794   6.455
 8588POPC   D2A39892   1.175  40.815   6.755
 8588POPC   C3A39893   1.204  40.738   7.055
 8588POPC   C4A39894   1.169  40.739   7.355
 8588POPC   C1B39895   1.419  40.735   6.455
 8588POPC   C2B39896   1.433  40.760   6.755
 8588POPC   C3B39897   1.442  40.760   7.055
 8588POPC   C4B39898   1.496  40.736   7.355
 8589POPC   NC339899  35.364  26.016   5.555
 8589POPC   PO439900  35.364  26.001   5.855
 8589POPC   GL139901  35.310  26.072   6.155
 8589POPC   GL239902  35.265  26.194   6.155
 8589POPC   C1A39903  35.341  26.076   6.455
 8589POPC   D2A39904  35.340  26.045   6.755
 8589POPC   C3A39905  35.346  26.040   7.055
 8589POPC   C4A39906  35.398  26.056   7.355
 8589POPC   C1B39907  35.266  26.279   6.455
 8589POPC   C2B39908  35.251  26.320   6.755
 8589POPC   C3B39909  35.268  26.268   7.055
 8589POPC   C4B39910  35.244  26.302   7.355
 8590POPC   NC339911  24.495   5.123   5.555
 8590POPC   PO439912  24.528   5.101   5.855
 8590POPC   GL139913  24.514   5.062   6.155
 8590POPC   GL239914  24.405   5.027   6.155
 8590POPC   C1A39915  24.478   5.107   6.455
 8590POPC   D2A39916  24.514   5.046   6.755
 8590POPC   C3A39917  24.464   5.137   7.055
 8590POPC   C4A39918  24.441   5.101   7.355
 8590POPC   C1B39919  24.243   4.952   6.455
 8590POPC   C2B39920  24.281   4.962   6.755
 8590POPC   C3B39921  24.288   4.956   7.055
 8590POPC   C4B39922  24.285   4.987   7.355
 8591POPC   NC339923  28.397  15.199   5.555
 8591POPC   PO439924  28.393  15.182   5.855
 8591POPC   GL139925  28.352  15.208   6.155
 8591POPC   GL239926  28.430  15.316   6.155
 8591POPC   C1A39927  28.403  15.145   6.455
 8591POPC   D2A39928  28.340  15.227   6.755
 8591POPC   C3A39929  28.368  15.179   7.055
 8591POPC   C4A39930  28.342  15.133   7.355
 8591POPC   C1B39931  28.452  15.417   6.455
 8591POPC   C2B39932  28.372  15.462   6.755
 8591POPC   C3B39933  28.383  15.449   7.055
 8591POPC   C4B39934  28.450  15.411   7.355
 8592POPC   NC339935   7.377  32.211   5.555
 8592POPC   PO439936   7.440  32.245   5.855
 8592POPC   GL139937   7.450  32.241   6.155
 8592POPC   GL239938   7.351  32.317   6.155
 8592POPC   C1A39939   7.467  32.235   6.455
 8592POPC   D2A39940   7.438  32.276   6.755
 8592POPC   C3A39941   7.371  32.204   7.055
 8592POPC   C4A39942   7.394  32.247   7.355
 8592POPC   C1B39943   7.138  32.367   6.455
 8592POPC   C2B39944   7.161  32.310   6.755
 8592POPC   C3B39945   7.195  32.367   7.055
 8592POPC   C4B39946   7.190  32.291   7.355
 8593POPC   NC339947   5.128  44.683   5.555
 8593POPC   PO439948   5.048  44.668   5.855
 8593POPC   GL139949   5.135  44.686   6.155
 8593POPC   GL239950   5.050  44.747   6.155
 8593POPC   C1A39951   5.044  44.666   6.455
 8593POPC   D2A39952   5.076  44.647   6.755
 8593POPC   C3A39953   5.104  44.655   7.055
 8593POPC   C4A39954   5.124  44.708   7.355
 8593POPC   C1B39955   5.009  44.892   6.455
 8593POPC   C2B39956   4.992  44.928   6.755
 8593POPC   C3B39957   4.933  44.862   7.055
 8593POPC   C4B39958   4.949  44.915   7.355
 8594POPC   NC339959   0.459  27.583   5.555
 8594POPC   PO439960   0.403  27.602   5.855
 8594POPC   GL139961   0.392  27.592   6.155
 8594POPC   GL239962   0.388  27.760   6.155
 8594POPC   C1A39963   0.430  27.570   6.455
 8594POPC   D2A39964   0.415  27.633   6.755
 8594POPC   C3A39965   0.467  27.625   7.055
 8594POPC   C4A39966   0.448  27.560   7.355
 8594POPC   C1B39967   0.411  27.842   6.455
 8594POPC   C2B39968   0.440  27.883   6.755
 8594POPC   C3B39969   0.476  27.812   7.055
 8594POPC   C4B39970   0.471  27.798   7.355
 8595POPC   NC339971  39.205  32.985   5.555
 8595POPC   PO439972  39.203  33.036   5.855
 8595POPC   GL139973  39.237  33.021   6.155
 8595POPC   GL239974  39.369  33.101   6.155
 8595POPC   C1A39975  39.188  33.000   6.455
 8595POPC   D2A39976  39.211  33.045   6.755
 8595POPC   C3A39977  39.202  33.019   7.055
 8595POPC   C4A39978  39.194  33.020   7.355
 8595POPC   C1B39979  39.454  33.179   6.455
 8595POPC   C2B39980  39.398  33.190   6.755
 8595POPC   C3B39981  39.484  33.174   7.055
 8595POPC   C4B39982  39.427  33.123   7.355
 8596POPC   NC339983  17.491  19.858   5.555
 8596POPC   PO439984  17.479  19.840   5.855
 8596POPC   GL139985  17.479  19.793   6.155
 8596POPC   GL239986  17.504  19.708   6.155
 8596POPC   C1A39987  17.473  19.883   6.455
 8596POPC   D2A39988  17.519  19.871   6.755
 8596POPC   C3A39989  17.493  19.818   7.055
 8596POPC   C4A39990  17.486  19.825   7.355
 8596POPC   C1B39991  17.518  19.552   6.455
 8596POPC   C2B39992  17.549  19.629   6.755
 8596POPC   C3B39993  17.535  19.614   7.055
 8596POPC   C4B39994  17.552  19.541   7.355
 8597POPC   NC339995   9.759  36.937   5.555
 8597POPC   PO439996   9.733  36.889   5.855
 8597POPC   GL139997   9.733  36.856   6.155
 8597POPC   GL239998   9.824  36.785   6.155
 8597POPC   C1A39999   9.710  36.924   6.455
 8597POPC   D2A40000   9.790  36.914   6.755
 8597POPC   C3A40001   9.738  36.884   7.055
 8597POPC   C4A40002   9.735  36.942   7.355
 8597POPC   C1B40003   9.830  36.678   6.455
 8597POPC   C2B40004   9.895  36.712   6.755
 8597POPC   C3B40005   9.845  36.700   7.055
 8597POPC   C4B40006   9.813  36.699   7.355
 8598POPC   NC340007  16.756  20.655   5.555
 8598POPC   PO440008  16.726  20.579   5.855
 8598POPC   GL140009  16.714  20.562   6.155
 8598POPC   GL240010  16.656  20.576   6.155
 8598POPC   C1A40011  16.715  20.659   6.455
 8598POPC   D2A40012  16.730  20.584   6.755
 8598POPC   C3A40013  16.730  20.653   7.055
 8598POPC   C4A40014  16.728  20.640   7.355
 8598POPC   C1B40015  16.571  20.465   6.455
 8598POPC   C2B40016  16.539  20.407   6.755
 8598POPC   C3B40017  16.570  20.406   7.055
 8598POPC   C4B40018  16.514  20.408   7.355
 8599POPC   NC340019  20.575  25.997   5.555
 8599POPC   PO440020  20.594  26.076   5.855
 8599POPC   GL140021  20.589  26.056   6.155
 8599POPC   GL240022  20.624  25.931   6.155
 8599POPC   C1A40023  20.639  26.082   6.455
 8599POPC   D2A40024  20.597  26.074   6.755
 8599POPC   C3A40025  20.652  25.992   7.055
 8599POPC   C4A40026  20.599  25.999   7.355
 8599POPC   C1B40027  20.653  25.766   6.455
 8599POPC   C2B40028  20.605  25.751   6.755
 8599POPC   C3B40029  20.622  25.818   7.055
 8599POPC   C4B40030  20.696  25.762   7.355
 8600POPC   NC340031  18.270   1.974   5.555
 8600POPC   PO440032  18.263   1.942   5.855
 8600POPC   GL140033  18.324   2.038   6.155
 8600POPC   GL240034  18.246   2.100   6.155
 8600POPC   C1A40035  18.317   1.970   6.455
 8600POPC   D2A40036  18.245   1.987   6.755
 8600POPC   C3A40037  18.265   1.969   7.055
 8600POPC   C4A40038  18.317   2.014   7.355
 8600POPC   C1B40039  18.134   2.196   6.455
 8600POPC   C2B40040  18.080   2.233   6.755
 8600POPC   C3B40041  18.170   2.183   7.055
 8600POPC   C4B40042  18.171   2.152   7.355
 8601POPC   NC340043  35.346  24.449   5.555
 8601POPC   PO440044  35.316  24.456   5.855
 8601POPC   GL140045  35.388  24.489   6.155
 8601POPC   GL240046  35.277  24.542   6.155
 8601POPC   C1A40047  35.393  24.497   6.455
 8601POPC   D2A40048  35.302  24.513   6.755
 8601POPC   C3A40049  35.320  24.453   7.055
 8601POPC   C4A40050  35.305  24.495   7.355
 8601POPC   C1B40051  35.151  24.632   6.455
 8601POPC   C2B40052  35.189  24.671   6.755
 8601POPC   C3B40053  35.127  24.635   7.055
 8601POPC   C4B40054  35.180  24.632   7.355
 8602POPC   NC340055  13.634  41.547   5.555
 8602POPC   PO440056  13.620  41.545   5.855
 8602POPC   GL140057  13.629  41.547   6.155
 8602POPC   GL240058  13.680  41.452   6.155
 8602POPC   C1A40059  13.638  41.589   6.455
 8602POPC   D2A40060  13.591  41.526   6.755
 8602POPC   C3A40061  13.635  41.596   7.055
 8602POPC   C4A40062  13.583  41.576   7.355
 8602POPC   C1B40063  13.816  41.372   6.455
 8602POPC   C2B40064  13.787  41.431   6.755
 8602POPC   C3B40065  13.817  41.371   7.055
 8602POPC   C4B40066  13.789  41.403   7.355
 8603POPC   NC340067  18.306  29.098   5.555
 8603POPC   PO440068  18.256  29.195   5.855
 8603POPC   GL140069  18.330  29.189   6.155
 8603POPC   GL240070  18.167  29.054   6.155
 8603POPC   C1A40071  18.271  29.138   6.455
 8603POPC   D2A40072  18.268  29.173   6.755
 8603POPC   C3A40073  18.329  29.108   7.055
 8603POPC   C4A40074  18.316  29.149   7.355
 8603POPC   C1B40075  18.018  29.092   6.455
 8603POPC   C2B40076  18.021  29.064   6.755
 8603POPC   C3B40077  18.035  29.078   7.055
 8603POPC   C4B40078  18.030  29.071   7.355
 8604POPC   NC340079  13.628  19.811   5.555
 8604POPC   PO440080  13.607  19.801   5.855
 8604POPC   GL140081  13.673  19.857   6.155
 8604POPC   GL240082  13.486  19.777   6.155
 8604POPC   C1A40083  13.606  19.816   6.455
 8604POPC   D2A40084  13.582  19.858   6.755
 8604POPC   C3A40085  13.591  19.786   7.055
 8604POPC   C4A40086  13.668  19.816   7.355
 8604POPC   C1B40087  13.376  19.731   6.455
 8604POPC   C2B40088  13.373  19.696   6.755
 8604POPC   C3B40089  13.434  19.750   7.055
 8604POPC   C4B40090  13.355  19.767   7.355
 8605POPC   NC340091  42.348  43.142   5.555
 8605POPC   PO440092  42.381  43.118   5.855
 8605POPC   GL140093  42.319  43.097   6.155
 8605POPC   GL240094  42.405  43.157   6.155
 8605POPC   C1A40095  42.370  43.125   6.455
 8605POPC   D2A40096  42.346  43.122   6.755
 8605POPC   C3A40097  42.352  43.106   7.055
 8605POPC   C4A40098  42.374  43.089   7.355
 8605POPC   C1B40099  42.537  43.157   6.455
 8605POPC   C2B40100  42.520  43.161   6.755
 8605POPC   C3B40101  42.578  43.233   7.055
 8605POPC   C4B40102  42.571  43.223   7.355
 8606POPC   NC340103  42.384  41.561   5.555
 8606POPC   PO440104  42.357  41.535   5.855
 8606POPC   GL140105  42.310  41.547   6.155
 8606POPC   GL240106  42.231  41.466   6.155
 8606POPC   C1A40107  42.318  41.561   6.455
 8606POPC   D2A40108  42.312  41.544   6.755
 8606POPC   C3A40109  42.292  41.511   7.055
 8606POPC   C4A40110  42.318  41.547   7.355
 8606POPC   C1B40111  42.132  41.466   6.455
 8606POPC   C2B40112  42.150  41.397   6.755
 8606POPC   C3B40113  42.093  41.407   7.055
 8606POPC   C4B40114  42.091  41.455   7.355
 8607POPC   NC340115  33.819  22.956   5.555
 8607POPC   PO440116  33.776  22.904   5.855
 8607POPC   GL140117  33.782  22.960   6.155
 8607POPC   GL240118  33.725  22.963   6.155
 8607POPC   C1A40119  33.794  22.967   6.455
 8607POPC   D2A40120  33.832  22.949   6.755
 8607POPC   C3A40121  33.822  22.912   7.055
 8607POPC   C4A40122  33.755  22.957   7.355
 8607POPC   C1B40123  33.573  22.969   6.455
 8607POPC   C2B40124  33.585  23.031   6.755
 8607POPC   C3B40125  33.529  22.974   7.055
 8607POPC   C4B40126  33.570  23.033   7.355
 8608POPC   NC340127  43.897  42.355   5.555
 8608POPC   PO440128  43.874  42.327   5.855
 8608POPC   GL140129  43.929  42.293   6.155
 8608POPC   GL240130  44.005  42.351   6.155
 8608POPC   C1A40131  43.907  42.330   6.455
 8608POPC   D2A40132  43.915  42.353   6.755
 8608POPC   C3A40133  43.905  42.333   7.055
 8608POPC   C4A40134  43.924  42.346   7.355
 8608POPC   C1B40135  44.171  42.348   6.455
 8608POPC   C2B40136  44.122  42.257   6.755
 8608POPC   C3B40137  44.131  42.293   7.055
 8608POPC   C4B40138  44.153  42.290   7.355
 8609POPC   NC340139  20.648  43.915   5.555
 8609POPC   PO440140  20.630  43.912   5.855
 8609POPC   GL140141  20.601  43.915   6.155
 8609POPC   GL240142  20.699  43.965   6.155
 8609POPC   C1A40143  20.574  43.896   6.455
 8609POPC   D2A40144  20.595  43.879   6.755
 8609POPC   C3A40145  20.656  43.904   7.055
 8609POPC   C4A40146  20.634  43.865   7.355
 8609POPC   C1B40147  20.735  44.135   6.455
 8609POPC   C2B40148  20.746  44.132   6.755
 8609POPC   C3B40149  20.680  44.101   7.055
 8609POPC   C4B40150  20.761  44.096   7.355
 8610POPC   NC340151  22.938   9.742   5.555
 8610POPC   PO440152  22.894   9.781   5.855
 8610POPC   GL140153  22.915   9.782   6.155
 8610POPC   GL240154  23.063   9.741   6.155
 8610POPC   C1A40155  22.983   9.775   6.455
 8610POPC   D2A40156  22.949   9.787   6.755
 8610POPC   C3A40157  22.942   9.764   7.055
 8610POPC   C4A40158  22.927   9.766   7.355
 8610POPC   C1B40159  23.151   9.845   6.455
 8610POPC   C2B40160  23.227   9.786   6.755
 8610POPC   C3B40161  23.144   9.825   7.055
 8610POPC   C4B40162  23.161   9.784   7.355
 8611POPC   NC340163   2.019  40.777   5.555
 8611POPC   PO440164   1.998  40.742   5.855
 8611POPC   GL140165   1.965  40.794   6.155
 8611POPC   GL240166   1.834  40.776   6.155
 8611POPC   C1A40167   2.010  40.737   6.455
 8611POPC   D2A40168   1.953  40.761   6.755
 8611POPC   C3A40169   2.004  40.771   7.055
 8611POPC   C4A40170   2.002  40.757   7.355
 8611POPC   C1B40171   1.763  40.880   6.455
 8611POPC   C2B40172   1.801  40.821   6.755
 8611POPC   C3B40173   1.784  40.913   7.055
 8611POPC   C4B40174   1.731  40.847   7.355
 8612POPC   NC340175  16.003  11.309   5.555
 8612POPC   PO440176  15.921  11.310   5.855
 8612POPC   GL140177  15.998  11.319   6.155
 8612POPC   GL240178  16.028  11.185   6.155
 8612POPC   C1A40179  15.979  11.281   6.455
 8612POPC   D2A40180  15.988  11.341   6.755
 8612POPC   C3A40181  15.992  11.318   7.055
 8612POPC   C4A40182  15.950  11.321   7.355
 8612POPC   C1B40183  16.180  11.139   6.455
 8612POPC   C2B40184  16.128  11.181   6.755
 8612POPC   C3B40185  16.139  11.156   7.055
 8612POPC   C4B40186  16.156  11.167   7.355
 8613POPC   NC340187  13.580  15.906   5.555
 8613POPC   PO440188  13.673  15.959   5.855
 8613POPC   GL140189  13.657  15.983   6.155
 8613POPC   GL240190  13.652  16.103   6.155
 8613POPC   C1A40191  13.607  15.998   6.455
 8613POPC   D2A40192  13.662  15.997   6.755
 8613POPC   C3A40193  13.614  15.931   7.055
 8613POPC   C4A40194  13.616  15.986   7.355
 8613POPC   C1B40195  13.742  16.231   6.455
 8613POPC   C2B40196  13.696  16.146   6.755
 8613POPC   C3B40197  13.753  16.168   7.055
 8613POPC   C4B40198  13.712  16.234   7.355
 8614POPC   NC340199  16.768  11.334   5.555
 8614POPC   PO440200  16.693  11.300   5.855
 8614POPC   GL140201  16.761  11.268   6.155
 8614POPC   GL240202  16.650  11.284   6.155
 8614POPC   C1A40203  16.688  11.332   6.455
 8614POPC   D2A40204  16.737  11.345   6.755
 8614POPC   C3A40205  16.688  11.302   7.055
 8614POPC   C4A40206  16.718  11.318   7.355
 8614POPC   C1B40207  16.479  11.285   6.455
 8614POPC   C2B40208  16.501  11.256   6.755
 8614POPC   C3B40209  16.524  11.265   7.055
 8614POPC   C4B40210  16.477  11.244   7.355
 8615POPC   NC340211  25.249  44.670   5.555
 8615POPC   PO440212  25.240  44.680   5.855
 8615POPC   GL140213  25.261  44.707   6.155
 8615POPC   GL240214  25.155  44.723   6.155
 8615POPC   C1A40215  25.227  44.613   6.455
 8615POPC   D2A40216  25.263  44.614   6.755
 8615POPC   C3A40217  25.293  44.648   7.055
 8615POPC   C4A40218  25.219  44.656   7.355
 8615POPC   C1B40219  25.159  44.861   6.455
 8615POPC   C2B40220  25.129  44.866   6.755
 8615POPC   C3B40221  25.162  44.857   7.055
 8615POPC   C4B40222  25.099  44.865   7.355
 8616POPC   NC340223  32.230   8.940   5.555
 8616POPC   PO440224  32.222   8.929   5.855
 8616POPC   GL140225  32.248   8.984   6.155
 8616POPC   GL240226  32.231   8.878   6.155
 8616POPC   C1A40227  32.288   9.000   6.455
 8616POPC   D2A40228  32.221   8.966   6.755
 8616POPC   C3A40229  32.283   8.925   7.055
 8616POPC   C4A40230  32.246   9.016   7.355
 8616POPC   C1B40231  32.199   8.760   6.455
 8616POPC   C2B40232  32.256   8.700   6.755
 8616POPC   C3B40233  32.205   8.700   7.055
 8616POPC   C4B40234  32.218   8.760   7.355
 8617POPC   NC340235  38.468  28.395   5.555
 8617POPC   PO440236  38.455  28.368   5.855
 8617POPC   GL140237  38.464  28.320   6.155
 8617POPC   GL240238  38.335  28.282   6.155
 8617POPC   C1A40239  38.504  28.391   6.455
 8617POPC   D2A40240  38.411  28.383   6.755
 8617POPC   C3A40241  38.439  28.390   7.055
 8617POPC   C4A40242  38.420  28.416   7.355
 8617POPC   C1B40243  38.235  28.264   6.455
 8617POPC   C2B40244  38.219  28.274   6.755
 8617POPC   C3B40245  38.210  28.297   7.055
 8617POPC   C4B40246  38.223  28.236   7.355
 8618POPC   NC340247   8.226  12.837   5.555
 8618POPC   PO440248   8.236  12.840   5.855
 8618POPC   GL140249   8.169  12.891   6.155
 8618POPC   GL240250   8.278  12.905   6.155
 8618POPC   C1A40251   8.161  12.803   6.455
 8618POPC   D2A40252   8.246  12.885   6.755
 8618POPC   C3A40253   8.209  12.855   7.055
 8618POPC   C4A40254   8.196  12.820   7.355
 8618POPC   C1B40255   8.399  12.955   6.455
 8618POPC   C2B40256   8.376  13.025   6.755
 8618POPC   C3B40257   8.385  12.947   7.055
 8618POPC   C4B40258   8.411  12.973   7.355
 8619POPC   NC340259   8.933  18.285   5.555
 8619POPC   PO440260   8.986  18.306   5.855
 8619POPC   GL140261   8.936  18.269   6.155
 8619POPC   GL240262   8.909  18.114   6.155
 8619POPC   C1A40263   8.976  18.315   6.455
 8619POPC   D2A40264   8.981  18.287   6.755
 8619POPC   C3A40265   9.019  18.312   7.055
 8619POPC   C4A40266   8.972  18.264   7.355
 8619POPC   C1B40267   8.947  18.074   6.455
 8619POPC   C2B40268   8.878  18.027   6.755
 8619POPC   C3B40269   8.926  18.068   7.055
 8619POPC   C4B40270   8.868  18.025   7.355
 8620POPC   NC340271  12.863  36.138   5.555
 8620POPC   PO440272  12.809  36.113   5.855
 8620POPC   GL140273  12.892  36.129   6.155
 8620POPC   GL240274  12.943  36.216   6.155
 8620POPC   C1A40275  12.852  36.094   6.455
 8620POPC   D2A40276  12.824  36.153   6.755
 8620POPC   C3A40277  12.826  36.091   7.055
 8620POPC   C4A40278  12.842  36.115   7.355
 8620POPC   C1B40279  13.113  36.277   6.455
 8620POPC   C2B40280  13.056  36.251   6.755
 8620POPC   C3B40281  13.095  36.211   7.055
 8620POPC   C4B40282  13.110  36.279   7.355
 8621POPC   NC340283  31.506  19.104   5.555
 8621POPC   PO440284  31.425  19.010   5.855
 8621POPC   GL140285  31.434  19.010   6.155
 8621POPC   GL240286  31.382  19.108   6.155
 8621POPC   C1A40287  31.471  19.091   6.455
 8621POPC   D2A40288  31.505  19.016   6.755
 8621POPC   C3A40289  31.506  19.075   7.055
 8621POPC   C4A40290  31.474  19.086   7.355
 8621POPC   C1B40291  31.226  19.222   6.455
 8621POPC   C2B40292  31.239  19.148   6.755
 8621POPC   C3B40293  31.297  19.234   7.055
 8621POPC   C4B40294  31.265  19.232   7.355
 8622POPC   NC340295  12.108   5.828   5.555
 8622POPC   PO440296  12.091   5.832   5.855
 8622POPC   GL140297  12.049   5.917   6.155
 8622POPC   GL240298  12.148   5.702   6.155
 8622POPC   C1A40299  12.061   5.887   6.455
 8622POPC   D2A40300  12.040   5.918   6.755
 8622POPC   C3A40301  12.033   5.891   7.055
 8622POPC   C4A40302  12.048   5.831   7.355
 8622POPC   C1B40303  12.138   5.665   6.455
 8622POPC   C2B40304  12.146   5.675   6.755
 8622POPC   C3B40305  12.160   5.669   7.055
 8622POPC   C4B40306  12.142   5.619   7.355
 8623POPC   NC340307  29.960  28.327   5.555
 8623POPC   PO440308  29.955  28.345   5.855
 8623POPC   GL140309  29.970  28.360   6.155
 8623POPC   GL240310  29.838  28.507   6.155
 8623POPC   C1A40311  29.965  28.389   6.455
 8623POPC   D2A40312  29.885  28.340   6.755
 8623POPC   C3A40313  29.961  28.348   7.055
 8623POPC   C4A40314  29.898  28.406   7.355
 8623POPC   C1B40315  29.783  28.619   6.455
 8623POPC   C2B40316  29.790  28.561   6.755
 8623POPC   C3B40317  29.797  28.620   7.055
 8623POPC   C4B40318  29.773  28.620   7.355
 8624POPC   NC340319  11.301  39.275   5.555
 8624POPC   PO440320  11.279  39.224   5.855
 8624POPC   GL140321  11.261  39.211   6.155
 8624POPC   GL240322  11.450  39.173   6.155
 8624POPC   C1A40323  11.334  39.234   6.455
 8624POPC   D2A40324  11.321  39.256   6.755
 8624POPC   C3A40325  11.313  39.189   7.055
 8624POPC   C4A40326  11.339  39.247   7.355
 8624POPC   C1B40327  11.537  39.193   6.455
 8624POPC   C2B40328  11.492  39.150   6.755
 8624POPC   C3B40329  11.513  39.153   7.055
 8624POPC   C4B40330  11.548  39.188   7.355
 8625POPC   NC340331  40.025   5.913   5.555
 8625POPC   PO440332  40.049   5.830   5.855
 8625POPC   GL140333  39.984   5.845   6.155
 8625POPC   GL240334  39.968   5.789   6.155
 8625POPC   C1A40335  40.006   5.849   6.455
 8625POPC   D2A40336  40.053   5.911   6.755
 8625POPC   C3A40337  40.006   5.897   7.055
 8625POPC   C4A40338  40.021   5.853   7.355
 8625POPC   C1B40339  39.987   5.671   6.455
 8625POPC   C2B40340  39.944   5.576   6.755
 8625POPC   C3B40341  39.954   5.654   7.055
 8625POPC   C4B40342  39.983   5.582   7.355
 8626POPC   NC340343   9.774  15.200   5.555
 8626POPC   PO440344   9.773  15.150   5.855
 8626POPC   GL140345   9.764  15.173   6.155
 8626POPC   GL240346   9.670  15.087   6.155
 8626POPC   C1A40347   9.770  15.164   6.455
 8626POPC   D2A40348   9.797  15.136   6.755
 8626POPC   C3A40349   9.763  15.212   7.055
 8626POPC   C4A40350   9.744  15.205   7.355
 8626POPC   C1B40351   9.573  14.997   6.455
 8626POPC   C2B40352   9.617  14.970   6.755
 8626POPC   C3B40353   9.624  15.021   7.055
 8626POPC   C4B40354   9.615  15.006   7.355
 8627POPC   NC340355   8.206  20.636   5.555
 8627POPC   PO440356   8.153  20.614   5.855
 8627POPC   GL140357   8.237  20.570   6.155
 8627POPC   GL240358   8.295  20.544   6.155
 8627POPC   C1A40359   8.152  20.655   6.455
 8627POPC   D2A40360   8.193  20.641   6.755
 8627POPC   C3A40361   8.174  20.626   7.055
 8627POPC   C4A40362   8.207  20.649   7.355
 8627POPC   C1B40363   8.426  20.478   6.455
 8627POPC   C2B40364   8.426  20.529   6.755
 8627POPC   C3B40365   8.432  20.554   7.055
 8627POPC   C4B40366   8.466  20.568   7.355
 8628POPC   NC340367   3.542  22.167   5.555
 8628POPC   PO440368   3.510  22.199   5.855
 8628POPC   GL140369   3.570  22.179   6.155
 8628POPC   GL240370   3.472  22.083   6.155
 8628POPC   C1A40371   3.547  22.181   6.455
 8628POPC   D2A40372   3.535  22.196   6.755
 8628POPC   C3A40373   3.561  22.177   7.055
 8628POPC   C4A40374   3.576  22.211   7.355
 8628POPC   C1B40375   3.301  22.034   6.455
 8628POPC   C2B40376   3.328  21.990   6.755
 8628POPC   C3B40377   3.275  22.038   7.055
 8628POPC   C4B40378   3.310  22.019   7.355
 8629POPC   NC340379   2.729  40.032   5.555
 8629POPC   PO440380   2.784  39.972   5.855
 8629POPC   GL140381   2.762  40.020   6.155
 8629POPC   GL240382   2.665  39.978   6.155
 8629POPC   C1A40383   2.726  40.000   6.455
 8629POPC   D2A40384   2.745  40.037   6.755
 8629POPC   C3A40385   2.778  40.046   7.055
 8629POPC   C4A40386   2.778  40.043   7.355
 8629POPC   C1B40387   2.564  39.814   6.455
 8629POPC   C2B40388   2.557  39.842   6.755
 8629POPC   C3B40389   2.536  39.892   7.055
 8629POPC   C4B40390   2.522  39.875   7.355
 8630POPC   NC340391   8.228   9.774   5.555
 8630POPC   PO440392   8.216   9.739   5.855
 8630POPC   GL140393   8.218   9.739   6.155
 8630POPC   GL240394   8.287   9.801   6.155
 8630POPC   C1A40395   8.162   9.753   6.455
 8630POPC   D2A40396   8.188   9.789   6.755
 8630POPC   C3A40397   8.241   9.712   7.055
 8630POPC   C4A40398   8.229   9.779   7.355
 8630POPC   C1B40399   8.373   9.892   6.455
 8630POPC   C2B40400   8.387   9.865   6.755
 8630POPC   C3B40401   8.372   9.871   7.055
 8630POPC   C4B40402   8.454   9.914   7.355
 8631POPC   NC340403   0.411   8.197   5.555
 8631POPC   PO440404   0.486   8.229   5.855
 8631POPC   GL140405   0.390   8.229   6.155
 8631POPC   GL240406   0.496   8.119   6.155
 8631POPC   C1A40407   0.476   8.162   6.455
 8631POPC   D2A40408   0.436   8.183   6.755
 8631POPC   C3A40409   0.467   8.207   7.055
 8631POPC   C4A40410   0.434   8.200   7.355
 8631POPC   C1B40411   0.645   8.032   6.455
 8631POPC   C2B40412   0.670   8.073   6.755
 8631POPC   C3B40413   0.676   8.033   7.055
 8631POPC   C4B40414   0.678   8.036   7.355
 8632POPC   NC340415  15.140  14.372   5.555
 8632POPC   PO440416  15.184  14.385   5.855
 8632POPC   GL140417  15.206  14.402   6.155
 8632POPC   GL240418  15.212  14.331   6.155
 8632POPC   C1A40419  15.131  14.374   6.455
 8632POPC   D2A40420  15.159  14.396   6.755
 8632POPC   C3A40421  15.224  14.396   7.055
 8632POPC   C4A40422  15.156  14.387   7.355
 8632POPC   C1B40423  15.231  14.190   6.455
 8632POPC   C2B40424  15.265  14.144   6.755
 8632POPC   C3B40425  15.194  14.124   7.055
 8632POPC   C4B40426  15.258  14.142   7.355
 8633POPC   NC340427   3.519  20.651   5.555
 8633POPC   PO440428   3.537  20.615   5.855
 8633POPC   GL140429   3.516  20.575   6.155
 8633POPC   GL240430   3.408  20.633   6.155
 8633POPC   C1A40431   3.577  20.618   6.455
 8633POPC   D2A40432   3.510  20.605   6.755
 8633POPC   C3A40433   3.535  20.600   7.055
 8633POPC   C4A40434   3.590  20.631   7.355
 8633POPC   C1B40435   3.337  20.697   6.455
 8633POPC   C2B40436   3.317  20.660   6.755
 8633POPC   C3B40437   3.358  20.720   7.055
 8633POPC   C4B40438   3.306  20.740   7.355
 8634POPC   NC340439  21.413  36.944   5.555
 8634POPC   PO440440  21.385  36.901   5.855
 8634POPC   GL140441  21.424  36.876   6.155
 8634POPC   GL240442  21.232  36.809   6.155
 8634POPC   C1A40443  21.395  36.917   6.455
 8634POPC   D2A40444  21.377  36.863   6.755
 8634POPC   C3A40445  21.368  36.911   7.055
 8634POPC   C4A40446  21.399  36.881   7.355
 8634POPC   C1B40447  21.151  36.756   6.455
 8634POPC   C2B40448  21.181  36.778   6.755
 8634POPC   C3B40449  21.114  36.818   7.055
 8634POPC   C4B40450  21.169  36.811   7.355
 8635POPC   NC340451   5.092   5.854   5.555
 8635POPC   PO440452   5.141   5.865   5.855
 8635POPC   GL140453   5.119   5.895   6.155
 8635POPC   GL240454   4.984   5.911   6.155
 8635POPC   C1A40455   5.101   5.863   6.455
 8635POPC   D2A40456   5.082   5.899   6.755
 8635POPC   C3A40457   5.053   5.904   7.055
 8635POPC   C4A40458   5.064   5.876   7.355
 8635POPC   C1B40459   4.801   5.877   6.455
 8635POPC   C2B40460   4.803   5.896   6.755
 8635POPC   C3B40461   4.885   5.882   7.055
 8635POPC   C4B40462   4.820   5.893   7.355
 8636POPC   NC340463  19.085  28.383   5.555
 8636POPC   PO440464  19.049  28.377   5.855
 8636POPC   GL140465  19.049  28.383   6.155
 8636POPC   GL240466  18.904  28.399   6.155
 8636POPC   C1A40467  19.050  28.360   6.455
 8636POPC   D2A40468  19.031  28.322   6.755
 8636POPC   C3A40469  19.078  28.319   7.055
 8636POPC   C4A40470  19.096  28.344   7.355
 8636POPC   C1B40471  18.797  28.415   6.455
 8636POPC   C2B40472  18.775  28.445   6.755
 8636POPC   C3B40473  18.841  28.465   7.055
 8636POPC   C4B40474  18.850  28.442   7.355
 8637POPC   NC340475  28.326  33.756   5.555
 8637POPC   PO440476  28.417  33.830   5.855
 8637POPC   GL140477  28.338  33.838   6.155
 8637POPC   GL240478  28.311  33.831   6.155
 8637POPC   C1A40479  28.335  33.769   6.455
 8637POPC   D2A40480  28.414  33.835   6.755
 8637POPC   C3A40481  28.355  33.844   7.055
 8637POPC   C4A40482  28.405  33.831   7.355
 8637POPC   C1B40483  28.190  33.928   6.455
 8637POPC   C2B40484  28.215  33.971   6.755
 8637POPC   C3B40485  28.158  33.903   7.055
 8637POPC   C4B40486  28.204  33.906   7.355
 8638POPC   NC340487  19.800   4.293   5.555
 8638POPC   PO440488  19.883   4.356   5.855
 8638POPC   GL140489  19.858   4.321   6.155
 8638POPC   GL240490  19.995   4.298   6.155
 8638POPC   C1A40491  19.864   4.344   6.455
 8638POPC   D2A40492  19.786   4.345   6.755
 8638POPC   C3A40493  19.802   4.287   7.055
 8638POPC   C4A40494  19.824   4.285   7.355
 8638POPC   C1B40495  20.053   4.262   6.455
 8638POPC   C2B40496  20.076   4.307   6.755
 8638POPC   C3B40497  20.068   4.252   7.055
 8638POPC   C4B40498  20.119   4.291   7.355
 8639POPC   NC340499  22.918   3.499   5.555
 8639POPC   PO440500  22.943   3.568   5.855
 8639POPC   GL140501  22.947   3.584   6.155
 8639POPC   GL240502  23.064   3.550   6.155
 8639POPC   C1A40503  22.914   3.543   6.455
 8639POPC   D2A40504  22.950   3.493   6.755
 8639POPC   C3A40505  22.961   3.540   7.055
 8639POPC   C4A40506  22.933   3.554   7.355
 8639POPC   C1B40507  23.167   3.593   6.455
 8639POPC   C2B40508  23.185   3.605   6.755
 8639POPC   C3B40509  23.154   3.633   7.055
 8639POPC   C4B40510  23.136   3.580   7.355
 8640POPC   NC340511  36.901   1.218   5.555
 8640POPC   PO440512  36.918   1.239   5.855
 8640POPC   GL140513  36.922   1.262   6.155
 8640POPC   GL240514  37.064   1.210   6.155
 8640POPC   C1A40515  36.891   1.216   6.455
 8640POPC   D2A40516  36.924   1.254   6.755
 8640POPC   C3A40517  36.944   1.214   7.055
 8640POPC   C4A40518  36.918   1.202   7.355
 8640POPC   C1B40519  37.109   1.234   6.455
 8640POPC   C2B40520  37.115   1.220   6.755
 8640POPC   C3B40521  37.165   1.190   7.055
 8640POPC   C4B40522  37.163   1.200   7.355
 8641POPC   NC340523  15.921  15.141   5.555
 8641POPC   PO440524  15.921  15.225   5.855
 8641POPC   GL140525  15.986  15.163   6.155
 8641POPC   GL240526  15.947  15.345   6.155
 8641POPC   C1A40527  15.961  15.205   6.455
 8641POPC   D2A40528  15.916  15.198   6.755
 8641POPC   C3A40529  15.929  15.229   7.055
 8641POPC   C4A40530  15.960  15.226   7.355
 8641POPC   C1B40531  15.891  15.405   6.455
 8641POPC   C2B40532  15.899  15.450   6.755
 8641POPC   C3B40533  15.835  15.408   7.055
 8641POPC   C4B40534  15.860  15.454   7.355
 8642POPC   NC340535  18.275  29.885   5.555
 8642POPC   PO440536  18.234  29.966   5.855
 8642POPC   GL140537  18.311  29.906   6.155
 8642POPC   GL240538  18.231  29.783   6.155
 8642POPC   C1A40539  18.326  29.897   6.455
 8642POPC   D2A40540  18.316  29.905   6.755
 8642POPC   C3A40541  18.243  29.943   7.055
 8642POPC   C4A40542  18.255  29.880   7.355
 8642POPC   C1B40543  18.233  29.653   6.455
 8642POPC   C2B40544  18.143  29.657   6.755
 8642POPC   C3B40545  18.155  29.667   7.055
 8642POPC   C4B40546  18.203  29.644   7.355
 8643POPC   NC340547  17.464  34.591   5.555
 8643POPC   PO440548  17.546  34.551   5.855
 8643POPC   GL140549  17.544  34.572   6.155
 8643POPC   GL240550  17.407  34.719   6.155
 8643POPC   C1A40551  17.497  34.545   6.455
 8643POPC   D2A40552  17.466  34.567   6.755
 8643POPC   C3A40553  17.534  34.596   7.055
 8643POPC   C4A40554  17.535  34.535   7.355
 8643POPC   C1B40555  17.348  34.797   6.455
 8643POPC   C2B40556  17.338  34.779   6.755
 8643POPC   C3B40557  17.355  34.735   7.055
 8643POPC   C4B40558  17.370  34.798   7.355
 8644POPC   NC340559   4.363  44.627   5.555
 8644POPC   PO440560   4.345  44.640   5.855
 8644POPC   GL140561   4.341  44.657   6.155
 8644POPC   GL240562   4.390  44.501   6.155
 8644POPC   C1A40563   4.273  44.711   6.455
 8644POPC   D2A40564   4.271  44.637   6.755
 8644POPC   C3A40565   4.332  44.645   7.055
 8644POPC   C4A40566   4.360  44.658   7.355
 8644POPC   C1B40567   4.384  44.410   6.455
 8644POPC   C2B40568   4.376  44.389   6.755
 8644POPC   C3B40569   4.391  44.390   7.055
 8644POPC   C4B40570   4.361  44.428   7.355
 8645POPC   NC340571  27.560  43.908   5.555
 8645POPC   PO440572  27.632  43.875   5.855
 8645POPC   GL140573  27.622  43.887   6.155
 8645POPC   GL240574  27.490  43.938   6.155
 8645POPC   C1A40575  27.637  43.896   6.455
 8645POPC   D2A40576  27.555  43.849   6.755
 8645POPC   C3A40577  27.558  43.852   7.055
 8645POPC   C4A40578  27.597  43.843   7.355
 8645POPC   C1B40579  27.404  43.988   6.455
 8645POPC   C2B40580  27.383  43.980   6.755
 8645POPC   C3B40581  27.383  43.942   7.055
 8645POPC   C4B40582  27.344  43.961   7.355
 8646POPC   NC340583  12.091  33.008   5.555
 8646POPC   PO440584  12.056  32.979   5.855
 8646POPC   GL140585  12.032  33.074   6.155
 8646POPC   GL240586  12.088  33.145   6.155
 8646POPC   C1A40587  12.092  33.056   6.455
 8646POPC   D2A40588  12.079  33.033   6.755
 8646POPC   C3A40589  12.122  33.041   7.055
 8646POPC   C4A40590  12.065  33.056   7.355
 8646POPC   C1B40591  12.094  33.294   6.455
 8646POPC   C2B40592  12.164  33.223   6.755
 8646POPC   C3B40593  12.082  33.267   7.055
 8646POPC   C4B40594  12.072  33.261   7.355
 8647POPC   NC340595  13.593  18.295   5.555
 8647POPC   PO440596  13.596  18.289   5.855
 8647POPC   GL140597  13.609  18.314   6.155
 8647POPC   GL240598  13.549  18.350   6.155
 8647POPC   C1A40599  13.619  18.237   6.455
 8647POPC   D2A40600  13.610  18.329   6.755
 8647POPC   C3A40601  13.670  18.245   7.055
 8647POPC   C4A40602  13.654  18.282   7.355
 8647POPC   C1B40603  13.343  18.338   6.455
 8647POPC   C2B40604  13.384  18.332   6.755
 8647POPC   C3B40605  13.360  18.284   7.055
 8647POPC   C4B40606  13.415  18.297   7.355
 8648POPC   NC340607  13.601   8.943   5.555
 8648POPC   PO440608  13.612   9.014   5.855
 8648POPC   GL140609  13.584   8.934   6.155
 8648POPC   GL240610  13.651   8.894   6.155
 8648POPC   C1A40611  13.612   8.969   6.455
 8648POPC   D2A40612  13.648   8.926   6.755
 8648POPC   C3A40613  13.618   8.984   7.055
 8648POPC   C4A40614  13.579   9.002   7.355
 8648POPC   C1B40615  13.760   8.815   6.455
 8648POPC   C2B40616  13.723   8.733   6.755
 8648POPC   C3B40617  13.818   8.787   7.055
 8648POPC   C4B40618  13.762   8.818   7.355
 8649POPC   NC340619  37.714  19.105   5.555
 8649POPC   PO440620  37.667  19.035   5.855
 8649POPC   GL140621  37.715  19.088   6.155
 8649POPC   GL240622  37.619  19.185   6.155
 8649POPC   C1A40623  37.716  19.047   6.455
 8649POPC   D2A40624  37.720  19.051   6.755
 8649POPC   C3A40625  37.646  19.015   7.055
 8649POPC   C4A40626  37.688  19.047   7.355
 8649POPC   C1B40627  37.461  19.167   6.455
 8649POPC   C2B40628  37.479  19.163   6.755
 8649POPC   C3B40629  37.436  19.249   7.055
 8649POPC   C4B40630  37.432  19.163   7.355
 8650POPC   NC340631  24.442  43.133   5.555
 8650POPC   PO440632  24.486  43.088   5.855
 8650POPC   GL140633  24.510  43.109   6.155
 8650POPC   GL240634  24.555  43.056   6.155
 8650POPC   C1A40635  24.489  43.144   6.455
 8650POPC   D2A40636  24.496  43.112   6.755
 8650POPC   C3A40637  24.529  43.088   7.055
 8650POPC   C4A40638  24.445  43.078   7.355
 8650POPC   C1B40639  24.693  42.940   6.455
 8650POPC   C2B40640  24.665  42.979   6.755
 8650POPC   C3B40641  24.699  42.915   7.055
 8650POPC   C4B40642  24.676  42.944   7.355
 8651POPC   NC340643  35.336  19.873   5.555
 8651POPC   PO440644  35.348  19.850   5.855
 8651POPC   GL140645  35.394  19.806   6.155
 8651POPC   GL240646  35.476  19.816   6.155
 8651POPC   C1A40647  35.363  19.846   6.455
 8651POPC   D2A40648  35.349  19.882   6.755
 8651POPC   C3A40649  35.309  19.854   7.055
 8651POPC   C4A40650  35.394  19.836   7.355
 8651POPC   C1B40651  35.625  19.724   6.455
 8651POPC   C2B40652  35.586  19.700   6.755
 8651POPC   C3B40653  35.538  19.705   7.055
 8651POPC   C4B40654  35.564  19.751   7.355
 8652POPC   NC340655  36.112   9.742   5.555
 8652POPC   PO440656  36.109   9.709   5.855
 8652POPC   GL140657  36.130   9.761   6.155
 8652POPC   GL240658  36.003   9.643   6.155
 8652POPC   C1A40659  36.134   9.719   6.455
 8652POPC   D2A40660  36.172   9.736   6.755
 8652POPC   C3A40661  36.127   9.737   7.055
 8652POPC   C4A40662  36.106   9.760   7.355
 8652POPC   C1B40663  35.955   9.592   6.455
 8652POPC   C2B40664  35.940   9.575   6.755
 8652POPC   C3B40665  35.958   9.514   7.055
 8652POPC   C4B40666  35.935   9.597   7.355
 8653POPC   NC340667   2.807  20.655   5.555
 8653POPC   PO440668   2.731  20.600   5.855
 8653POPC   GL140669   2.752  20.573   6.155
 8653POPC   GL240670   2.849  20.667   6.155
 8653POPC   C1A40671   2.756  20.572   6.455
 8653POPC   D2A40672   2.722  20.627   6.755
 8653POPC   C3A40673   2.724  20.562   7.055
 8653POPC   C4A40674   2.743  20.584   7.355
 8653POPC   C1B40675   2.993  20.663   6.455
 8653POPC   C2B40676   2.996  20.729   6.755
 8653POPC   C3B40677   2.951  20.728   7.055
 8653POPC   C4B40678   2.956  20.734   7.355
 8654POPC   NC340679  17.542  33.770   5.555
 8654POPC   PO440680  17.515  33.820   5.855
 8654POPC   GL140681  17.533  33.844   6.155
 8654POPC   GL240682  17.595  33.817   6.155
 8654POPC   C1A40683  17.529  33.798   6.455
 8654POPC   D2A40684  17.459  33.833   6.755
 8654POPC   C3A40685  17.466  33.818   7.055
 8654POPC   C4A40686  17.512  33.816   7.355
 8654POPC   C1B40687  17.741  33.949   6.455
 8654POPC   C2B40688  17.699  33.880   6.755
 8654POPC   C3B40689  17.681  33.912   7.055
 8654POPC   C4B40690  17.770  33.887   7.355
 8655POPC   NC340691   1.944  19.097   5.555
 8655POPC   PO440692   1.958  19.059   5.855
 8655POPC   GL140693   2.021  19.029   6.155
 8655POPC   GL240694   2.074  19.151   6.155
 8655POPC   C1A40695   1.999  19.081   6.455
 8655POPC   D2A40696   1.984  19.012   6.755
 8655POPC   C3A40697   1.943  19.092   7.055
 8655POPC   C4A40698   2.028  19.072   7.355
 8655POPC   C1B40699   2.183  19.131   6.455
 8655POPC   C2B40700   2.215  19.143   6.755
 8655POPC   C3B40701   2.187  19.171   7.055
 8655POPC   C4B40702   2.247  19.136   7.355
 8656POPC   NC340703  31.507  41.527   5.555
 8656POPC   PO440704  31.479  41.603   5.855
 8656POPC   GL140705  31.426  41.578   6.155
 8656POPC   GL240706  31.548  41.608   6.155
 8656POPC   C1A40707  31.423  41.544   6.455
 8656POPC   D2A40708  31.462  41.606   6.755
 8656POPC   C3A40709  31.439  41.589   7.055
 8656POPC   C4A40710  31.454  41.512   7.355
 8656POPC   C1B40711  31.650  41.714   6.455
 8656POPC   C2B40712  31.708  41.679   6.755
 8656POPC   C3B40713  31.735  41.702   7.055
 8656POPC   C4B40714  31.722  41.711   7.355
 8657POPC   NC340715  40.780  13.610   5.555
 8657POPC   PO440716  40.763  13.677   5.855
 8657POPC   GL140717  40.823  13.625   6.155
 8657POPC   GL240718  40.860  13.517   6.155
 8657POPC   C1A40719  40.806  13.640   6.455
 8657POPC   D2A40720  40.790  13.638   6.755
 8657POPC   C3A40721  40.824  13.614   7.055
 8657POPC   C4A40722  40.814  13.632   7.355
 8657POPC   C1B40723  40.968  13.422   6.455
 8657POPC   C2B40724  40.982  13.405   6.755
 8657POPC   C3B40725  40.940  13.468   7.055
 8657POPC   C4B40726  40.949  13.438   7.355
 8658POPC   NC340727  41.569  39.274   5.555
 8658POPC   PO440728  41.532  39.255   5.855
 8658POPC   GL140729  41.606  39.266   6.155
 8658POPC   GL240730  41.681  39.328   6.155
 8658POPC   C1A40731  41.606  39.275   6.455
 8658POPC   D2A40732  41.548  39.270   6.755
 8658POPC   C3A40733  41.598  39.264   7.055
 8658POPC   C4A40734  41.511  39.223   7.355
 8658POPC   C1B40735  41.789  39.438   6.455
 8658POPC   C2B40736  41.737  39.433   6.755
 8658POPC   C3B40737  41.784  39.438   7.055
 8658POPC   C4B40738  41.749  39.435   7.355
 8659POPC   NC340739  44.665   4.310   5.555
 8659POPC   PO440740  44.700   4.349   5.855
 8659POPC   GL140741  44.664   4.354   6.155
 8659POPC   GL240742  44.813   4.325   6.155
 8659POPC   C1A40743  44.674   4.314   6.455
 8659POPC   D2A40744  44.668   4.339   6.755
 8659POPC   C3A40745  44.656   4.298   7.055
 8659POPC   C4A40746  44.648   4.282   7.355
 8659POPC   C1B40747  44.863   4.337   6.455
 8659POPC   C2B40748  44.956   4.399   6.755
 8659POPC   C3B40749  44.882   4.304   7.055
 8659POPC   C4B40750  44.957   4.310   7.355
 8660POPC   NC340751  26.814  29.105   5.555
 8660POPC   PO440752  26.785  29.105   5.855
 8660POPC   GL140753  26.789  29.143   6.155
 8660POPC   GL240754  26.958  29.136   6.155
 8660POPC   C1A40755  26.824  29.145   6.455
 8660POPC   D2A40756  26.798  29.190   6.755
 8660POPC   C3A40757  26.782  29.123   7.055
 8660POPC   C4A40758  26.821  29.116   7.355
 8660POPC   C1B40759  27.018  29.040   6.455
 8660POPC   C2B40760  27.105  29.066   6.755
 8660POPC   C3B40761  27.037  29.068   7.055
 8660POPC   C4B40762  27.101  29.107   7.355
 8661POPC   NC340763  39.215  39.229   5.555
 8661POPC   PO440764  39.253  39.212   5.855
 8661POPC   GL140765  39.189  39.251   6.155
 8661POPC   GL240766  39.171  39.301   6.155
 8661POPC   C1A40767  39.200  39.194   6.455
 8661POPC   D2A40768  39.278  39.274   6.755
 8661POPC   C3A40769  39.248  39.261   7.055
 8661POPC   C4A40770  39.225  39.222   7.355
 8661POPC   C1B40771  39.127  39.457   6.455
 8661POPC   C2B40772  39.109  39.460   6.755
 8661POPC   C3B40773  39.080  39.422   7.055
 8661POPC   C4B40774  39.138  39.442   7.355
 8662POPC   NC340775  29.932   9.763   5.555
 8662POPC   PO440776  29.965   9.762   5.855
 8662POPC   GL140777  29.946   9.773   6.155
 8662POPC   GL240778  30.003   9.897   6.155
 8662POPC   C1A40779  29.893   9.767   6.455
 8662POPC   D2A40780  29.927   9.796   6.755
 8662POPC   C3A40781  29.888   9.758   7.055
 8662POPC   C4A40782  29.887   9.744   7.355
 8662POPC   C1B40783  29.998   9.956   6.455
 8662POPC   C2B40784  30.026   9.957   6.755
 8662POPC   C3B40785  29.989  10.014   7.055
 8662POPC   C4B40786  29.998   9.971   7.355
 8663POPC   NC340787  29.147  38.425   5.555
 8663POPC   PO440788  29.188  38.406   5.855
 8663POPC   GL140789  29.156  38.426   6.155
 8663POPC   GL240790  29.212  38.563   6.155
 8663POPC   C1A40791  29.174  38.468   6.455
 8663POPC   D2A40792  29.168  38.451   6.755
 8663POPC   C3A40793  29.177  38.501   7.055
 8663POPC   C4A40794  29.132  38.504   7.355
 8663POPC   C1B40795  29.275  38.654   6.455
 8663POPC   C2B40796  29.231  38.687   6.755
 8663POPC   C3B40797  29.289  38.652   7.055
 8663POPC   C4B40798  29.311  38.632   7.355
 8664POPC   NC340799   3.578   1.962   5.555
 8664POPC   PO440800   3.513   1.995   5.855
 8664POPC   GL140801   3.549   1.954   6.155
 8664POPC   GL240802   3.618   2.110   6.155
 8664POPC   C1A40803   3.556   1.964   6.455
 8664POPC   D2A40804   3.570   2.026   6.755
 8664POPC   C3A40805   3.495   2.022   7.055
 8664POPC   C4A40806   3.512   1.940   7.355
 8664POPC   C1B40807   3.596   2.227   6.455
 8664POPC   C2B40808   3.637   2.206   6.755
 8664POPC   C3B40809   3.653   2.217   7.055
 8664POPC   C4B40810   3.630   2.207   7.355
 8665POPC   NC340811  38.467  15.191   5.555
 8665POPC   PO440812  38.421  15.143   5.855
 8665POPC   GL140813  38.429  15.164   6.155
 8665POPC   GL240814  38.413  15.034   6.155
 8665POPC   C1A40815  38.480  15.202   6.455
 8665POPC   D2A40816  38.483  15.197   6.755
 8665POPC   C3A40817  38.479  15.210   7.055
 8665POPC   C4A40818  38.475  15.150   7.355
 8665POPC   C1B40819  38.410  14.968   6.455
 8665POPC   C2B40820  38.438  14.905   6.755
 8665POPC   C3B40821  38.489  14.966   7.055
 8665POPC   C4B40822  38.450  14.957   7.355
 8666POPC   NC340823  44.622  15.957   5.555
 8666POPC   PO440824  44.618  15.921   5.855
 8666POPC   GL140825  44.632  15.976   6.155
 8666POPC   GL240826  44.677  16.110   6.155
 8666POPC   C1A40827  44.634  15.920   6.455
 8666POPC   D2A40828  44.627  15.919   6.755
 8666POPC   C3A40829  44.636  15.962   7.055
 8666POPC   C4A40830  44.668  15.938   7.355
 8666POPC   C1B40831  44.590  16.182   6.455
 8666POPC   C2B40832  44.593  16.172   6.755
 8666POPC   C3B40833  44.586  16.219   7.055
 8666POPC   C4B40834  44.641  16.169   7.355
 8667POPC   NC340835  28.411  38.429   5.555
 8667POPC   PO440836  28.341  38.450   5.855
 8667POPC   GL140837  28.323  38.455   6.155
 8667POPC   GL240838  28.287  38.431   6.155
 8667POPC   C1A40839  28.410  38.435   6.455
 8667POPC   D2A40840  28.389  38.491   6.755
 8667POPC   C3A40841  28.327  38.486   7.055
 8667POPC   C4A40842  28.379  38.487   7.355
 8667POPC   C1B40843  28.093  38.520   6.455
 8667POPC   C2B40844  28.117  38.473   6.755
 8667POPC   C3B40845  28.090  38.463   7.055
 8667POPC   C4B40846  28.140  38.503   7.355
 8668POPC   NC340847  16.758   8.209   5.555
 8668POPC   PO440848  16.699   8.195   5.855
 8668POPC   GL140849  16.718   8.166   6.155
 8668POPC   GL240850  16.741   8.335   6.155
 8668POPC   C1A40851  16.708   8.222   6.455
 8668POPC   D2A40852  16.735   8.225   6.755
 8668POPC   C3A40853  16.726   8.158   7.055
 8668POPC   C4A40854  16.745   8.154   7.355
 8668POPC   C1B40855  16.640   8.414   6.455
 8668POPC   C2B40856  16.648   8.484   6.755
 8668POPC   C3B40857  16.647   8.490   7.055
 8668POPC   C4B40858  16.691   8.457   7.355
 8669POPC   NC340859  16.697  34.568   5.555
 8669POPC   PO440860  16.704  34.560   5.855
 8669POPC   GL140861  16.721  34.550   6.155
 8669POPC   GL240862  16.777  34.650   6.155
 8669POPC   C1A40863  16.709  34.603   6.455
 8669POPC   D2A40864  16.749  34.539   6.755
 8669POPC   C3A40865  16.705  34.583   7.055
 8669POPC   C4A40866  16.715  34.608   7.355
 8669POPC   C1B40867  16.914  34.784   6.455
 8669POPC   C2B40868  16.903  34.698   6.755
 8669POPC   C3B40869  16.876  34.692   7.055
 8669POPC   C4B40870  16.901  34.772   7.355
 8670POPC   NC340871   4.314  20.640   5.555
 8670POPC   PO440872   4.274  20.593   5.855
 8670POPC   GL140873   4.365  20.599   6.155
 8670POPC   GL240874   4.419  20.685   6.155
 8670POPC   C1A40875   4.311  20.579   6.455
 8670POPC   D2A40876   4.290  20.653   6.755
 8670POPC   C3A40877   4.271  20.572   7.055
 8670POPC   C4A40878   4.280  20.653   7.355
 8670POPC   C1B40879   4.524  20.706   6.455
 8670POPC   C2B40880   4.513  20.744   6.755
 8670POPC   C3B40881   4.572  20.717   7.055
 8670POPC   C4B40882   4.572  20.711   7.355
 8671POPC   NC340883   8.200  41.545   5.555
 8671POPC   PO440884   8.158  41.528   5.855
 8671POPC   GL140885   8.215  41.530   6.155
 8671POPC   GL240886   8.296  41.543   6.155
 8671POPC   C1A40887   8.181  41.559   6.455
 8671POPC   D2A40888   8.157  41.602   6.755
 8671POPC   C3A40889   8.209  41.519   7.055
 8671POPC   C4A40890   8.240  41.527   7.355
 8671POPC   C1B40891   8.484  41.604   6.455
 8671POPC   C2B40892   8.437  41.622   6.755
 8671POPC   C3B40893   8.411  41.623   7.055
 8671POPC   C4B40894   8.400  41.657   7.355
 8672POPC   NC340895  10.570  36.135   5.555
 8672POPC   PO440896  10.573  36.115   5.855
 8672POPC   GL140897  10.521  36.158   6.155
 8672POPC   GL240898  10.396  36.126   6.155
 8672POPC   C1A40899  10.486  36.103   6.455
 8672POPC   D2A40900  10.530  36.147   6.755
 8672POPC   C3A40901  10.551  36.111   7.055
 8672POPC   C4A40902  10.556  36.087   7.355
 8672POPC   C1B40903  10.279  36.222   6.455
 8672POPC   C2B40904  10.243  36.148   6.755
 8672POPC   C3B40905  10.237  36.206   7.055
 8672POPC   C4B40906  10.288  36.124   7.355
 8673POPC   NC340907  12.094   8.244   5.555
 8673POPC   PO440908  12.049   8.246   5.855
 8673POPC   GL140909  12.116   8.220   6.155
 8673POPC   GL240910  11.908   8.124   6.155
 8673POPC   C1A40911  12.037   8.161   6.455
 8673POPC   D2A40912  12.119   8.218   6.755
 8673POPC   C3A40913  12.077   8.165   7.055
 8673POPC   C4A40914  12.041   8.192   7.355
 8673POPC   C1B40915  11.838   8.151   6.455
 8673POPC   C2B40916  11.847   8.093   6.755
 8673POPC   C3B40917  11.798   8.078   7.055
 8673POPC   C4B40918  11.856   8.152   7.355
 8674POPC   NC340919  30.746   1.185   5.555
 8674POPC   PO440920  30.698   1.168   5.855
 8674POPC   GL140921  30.716   1.233   6.155
 8674POPC   GL240922  30.764   1.288   6.155
 8674POPC   C1A40923  30.661   1.213   6.455
 8674POPC   D2A40924  30.709   1.199   6.755
 8674POPC   C3A40925  30.739   1.216   7.055
 8674POPC   C4A40926  30.652   1.196   7.355
 8674POPC   C1B40927  30.891   1.305   6.455
 8674POPC   C2B40928  30.917   1.344   6.755
 8674POPC   C3B40929  30.953   1.359   7.055
 8674POPC   C4B40930  30.932   1.309   7.355
 8675POPC   NC340931  30.673  16.700   5.555
 8675POPC   PO440932  30.714  16.726   5.855
 8675POPC   GL140933  30.704  16.708   6.155
 8675POPC   GL240934  30.618  16.893   6.155
 8675POPC   C1A40935  30.715  16.726   6.455
 8675POPC   D2A40936  30.701  16.746   6.755
 8675POPC   C3A40937  30.733  16.693   7.055
 8675POPC   C4A40938  30.697  16.717   7.355
 8675POPC   C1B40939  30.657  16.987   6.455
 8675POPC   C2B40940  30.573  16.944   6.755
 8675POPC   C3B40941  30.611  16.961   7.055
 8675POPC   C4B40942  30.617  17.009   7.355
 8676POPC   NC340943  44.628  23.666   5.555
 8676POPC   PO440944  44.681  23.747   5.855
 8676POPC   GL140945  44.647  23.734   6.155
 8676POPC   GL240946  44.770  23.783   6.155
 8676POPC   C1A40947  44.643  23.752   6.455
 8676POPC   D2A40948  44.655  23.755   6.755
 8676POPC   C3A40949  44.616  23.745   7.055
 8676POPC   C4A40950  44.650  23.688   7.355
 8676POPC   C1B40951  44.938  23.717   6.455
 8676POPC   C2B40952  44.957  23.807   6.755
 8676POPC   C3B40953  44.875  23.732   7.055
 8676POPC   C4B40954  44.943  23.709   7.355
 8677POPC   NC340955   5.895  39.967   5.555
 8677POPC   PO440956   5.880  40.016   5.855
 8677POPC   GL140957   5.862  39.975   6.155
 8677POPC   GL240958   5.938  40.154   6.155
 8677POPC   C1A40959   5.862  40.049   6.455
 8677POPC   D2A40960   5.862  40.038   6.755
 8677POPC   C3A40961   5.890  40.037   7.055
 8677POPC   C4A40962   5.868  40.002   7.355
 8677POPC   C1B40963   6.015  40.237   6.455
 8677POPC   C2B40964   5.946  40.184   6.755
 8677POPC   C3B40965   5.988  40.198   7.055
 8677POPC   C4B40966   5.991  40.193   7.355
 8678POPC   NC340967   2.751  43.839   5.555
 8678POPC   PO440968   2.746  43.914   5.855
 8678POPC   GL140969   2.765  43.907   6.155
 8678POPC   GL240970   2.632  43.803   6.155
 8678POPC   C1A40971   2.752  43.924   6.455
 8678POPC   D2A40972   2.777  43.914   6.755
 8678POPC   C3A40973   2.808  43.895   7.055
 8678POPC   C4A40974   2.764  43.892   7.355
 8678POPC   C1B40975   2.596  43.659   6.455
 8678POPC   C2B40976   2.553  43.737   6.755
 8678POPC   C3B40977   2.617  43.699   7.055
 8678POPC   C4B40978   2.561  43.694   7.355
 8679POPC   NC340979   8.184  43.078   5.555
 8679POPC   PO440980   8.154  43.129   5.855
 8679POPC   GL140981   8.185  43.124   6.155
 8679POPC   GL240982   8.123  43.163   6.155
 8679POPC   C1A40983   8.171  43.129   6.455
 8679POPC   D2A40984   8.218  43.134   6.755
 8679POPC   C3A40985   8.205  43.092   7.055
 8679POPC   C4A40986   8.237  43.109   7.355
 8679POPC   C1B40987   7.975  43.286   6.455
 8679POPC   C2B40988   8.012  43.241   6.755
 8679POPC   C3B40989   7.962  43.267   7.055
 8679POPC   C4B40990   8.015  43.249   7.355
 8680POPC   NC340991  36.898  29.876   5.555
 8680POPC   PO440992  36.864  29.924   5.855
 8680POPC   GL140993  36.911  29.911   6.155
 8680POPC   GL240994  36.881  30.072   6.155
 8680POPC   C1A40995  36.926  29.888   6.455
 8680POPC   D2A40996  36.863  29.923   6.755
 8680POPC   C3A40997  36.944  29.931   7.055
 8680POPC   C4A40998  36.909  29.929   7.355
 8680POPC   C1B40999  36.810  30.173   6.455
 8680POPC   C2B41000  36.871  30.121   6.755
 8680POPC   C3B41001  36.829  30.191   7.055
 8680POPC   C4B41002  36.850  30.120   7.355
 8681POPC   NC341003   1.227   7.428   5.555
 8681POPC   PO441004   1.175   7.459   5.855
 8681POPC   GL141005   1.186   7.397   6.155
 8681POPC   GL241006   1.273   7.371   6.155
 8681POPC   C1A41007   1.177   7.456   6.455
 8681POPC   D2A41008   1.239   7.405   6.755
 8681POPC   C3A41009   1.255   7.445   7.055
 8681POPC   C4A41010   1.194   7.387   7.355
 8681POPC   C1B41011   1.376   7.216   6.455
 8681POPC   C2B41012   1.375   7.276   6.755
 8681POPC   C3B41013   1.422   7.238   7.055
 8681POPC   C4B41014   1.406   7.258   7.355
 8682POPC   NC341015  36.110  23.704   5.555
 8682POPC   PO441016  36.083  23.719   5.855
 8682POPC   GL141017  36.167  23.682   6.155
 8682POPC   GL241018  36.027  23.769   6.155
 8682POPC   C1A41019  36.125  23.763   6.455
 8682POPC   D2A41020  36.114  23.675   6.755
 8682POPC   C3A41021  36.090  23.711   7.055
 8682POPC   C4A41022  36.144  23.739   7.355
 8682POPC   C1B41023  35.889  23.757   6.455
 8682POPC   C2B41024  35.945  23.782   6.755
 8682POPC   C3B41025  35.941  23.839   7.055
 8682POPC   C4B41026  35.876  23.799   7.355
 8683POPC   NC341027  29.943   5.052   5.555
 8683POPC   PO441028  29.956   5.096   5.855
 8683POPC   GL141029  29.931   5.112   6.155
 8683POPC   GL241030  30.049   5.071   6.155
 8683POPC   C1A41031  29.932   5.131   6.455
 8683POPC   D2A41032  29.914   5.142   6.755
 8683POPC   C3A41033  29.958   5.073   7.055
 8683POPC   C4A41034  29.965   5.136   7.355
 8683POPC   C1B41035  30.160   5.082   6.455
 8683POPC   C2B41036  30.135   5.060   6.755
 8683POPC   C3B41037  30.200   5.052   7.055
 8683POPC   C4B41038  30.197   5.077   7.355
 8684POPC   NC341039   3.530  32.208   5.555
 8684POPC   PO441040   3.560  32.296   5.855
 8684POPC   GL141041   3.562  32.254   6.155
 8684POPC   GL241042   3.536  32.157   6.155
 8684POPC   C1A41043   3.580  32.206   6.455
 8684POPC   D2A41044   3.554  32.204   6.755
 8684POPC   C3A41045   3.543  32.246   7.055
 8684POPC   C4A41046   3.550  32.264   7.355
 8684POPC   C1B41047   3.476  32.058   6.455
 8684POPC   C2B41048   3.487  31.978   6.755
 8684POPC   C3B41049   3.456  32.011   7.055
 8684POPC   C4B41050   3.480  32.006   7.355
 8685POPC   NC341051  12.802  40.793   5.555
 8685POPC   PO441052  12.858  40.738   5.855
 8685POPC   GL141053  12.844  40.737   6.155
 8685POPC   GL241054  12.785  40.825   6.155
 8685POPC   C1A41055  12.900  40.798   6.455
 8685POPC   D2A41056  12.887  40.772   6.755
 8685POPC   C3A41057  12.827  40.810   7.055
 8685POPC   C4A41058  12.873  40.792   7.355
 8685POPC   C1B41059  12.621  40.935   6.455
 8685POPC   C2B41060  12.633  40.905   6.755
 8685POPC   C3B41061  12.696  40.934   7.055
 8685POPC   C4B41062  12.680  40.989   7.355
 8686POPC   NC341063   8.973   2.794   5.555
 8686POPC   PO441064   8.997   2.810   5.855
 8686POPC   GL141065   8.934   2.787   6.155
 8686POPC   GL241066   8.909   2.915   6.155
 8686POPC   C1A41067   8.953   2.789   6.455
 8686POPC   D2A41068   8.984   2.731   6.755
 8686POPC   C3A41069   8.978   2.720   7.055
 8686POPC   C4A41070   8.968   2.734   7.355
 8686POPC   C1B41071   8.917   3.060   6.455
 8686POPC   C2B41072   8.967   2.998   6.755
 8686POPC   C3B41073   8.928   3.010   7.055
 8686POPC   C4B41074   8.983   2.974   7.355
 8687POPC   NC341075  11.286  12.040   5.555
 8687POPC   PO441076  11.315  12.069   5.855
 8687POPC   GL141077  11.286  12.061   6.155
 8687POPC   GL241078  11.369  12.228   6.155
 8687POPC   C1A41079  11.346  12.060   6.455
 8687POPC   D2A41080  11.288  12.063   6.755
 8687POPC   C3A41081  11.305  12.071   7.055
 8687POPC   C4A41082  11.308  12.076   7.355
 8687POPC   C1B41083  11.328  12.342   6.455
 8687POPC   C2B41084  11.380  12.330   6.755
 8687POPC   C3B41085  11.343  12.327   7.055
 8687POPC   C4B41086  11.318  12.346   7.355
 8688POPC   NC341087  37.724  36.938   5.555
 8688POPC   PO441088  37.710  36.896   5.855
 8688POPC   GL141089  37.645  36.898   6.155
 8688POPC   GL241090  37.630  37.018   6.155
 8688POPC   C1A41091  37.725  36.911   6.455
 8688POPC   D2A41092  37.634  36.911   6.755
 8688POPC   C3A41093  37.651  36.870   7.055
 8688POPC   C4A41094  37.725  36.864   7.355
 8688POPC   C1B41095  37.662  37.100   6.455
 8688POPC   C2B41096  37.631  37.126   6.755
 8688POPC   C3B41097  37.605  37.132   7.055
 8688POPC   C4B41098  37.622  37.185   7.355
 8689POPC   NC341099  18.237  26.009   5.555
 8689POPC   PO441100  18.302  26.043   5.855
 8689POPC   GL141101  18.307  26.049   6.155
 8689POPC   GL241102  18.214  26.040   6.155
 8689POPC   C1A41103  18.238  25.995   6.455
 8689POPC   D2A41104  18.263  26.058   6.755
 8689POPC   C3A41105  18.284  26.029   7.055
 8689POPC   C4A41106  18.248  26.067   7.355
 8689POPC   C1B41107  18.058  26.171   6.455
 8689POPC   C2B41108  18.065  26.122   6.755
 8689POPC   C3B41109  18.026  26.104   7.055
 8689POPC   C4B41110  18.044  26.131   7.355
 8690POPC   NC341111  18.288  43.095   5.555
 8690POPC   PO441112  18.256  43.076   5.855
 8690POPC   GL141113  18.270  43.160   6.155
 8690POPC   GL241114  18.197  42.972   6.155
 8690POPC   C1A41115  18.305  43.077   6.455
 8690POPC   D2A41116  18.288  43.062   6.755
 8690POPC   C3A41117  18.253  43.101   7.055
 8690POPC   C4A41118  18.307  43.061   7.355
 8690POPC   C1B41119  18.141  42.951   6.455
 8690POPC   C2B41120  18.078  42.909   6.755
 8690POPC   C3B41121  18.139  42.969   7.055
 8690POPC   C4B41122  18.135  42.924   7.355
 8691POPC   NC341123  33.771  11.331   5.555
 8691POPC   PO441124  33.792  11.343   5.855
 8691POPC   GL141125  33.794  11.251   6.155
 8691POPC   GL241126  33.905  11.272   6.155
 8691POPC   C1A41127  33.811  11.323   6.455
 8691POPC   D2A41128  33.751  11.287   6.755
 8691POPC   C3A41129  33.796  11.255   7.055
 8691POPC   C4A41130  33.776  11.343   7.355
 8691POPC   C1B41131  34.004  11.278   6.455
 8691POPC   C2B41132  34.008  11.237   6.755
 8691POPC   C3B41133  34.081  11.256   7.055
 8691POPC   C4B41134  34.029  11.290   7.355
 8692POPC   NC341135  41.577   7.414   5.555
 8692POPC   PO441136  41.594   7.407   5.855
 8692POPC   GL141137  41.586   7.468   6.155
 8692POPC   GL241138  41.572   7.548   6.155
 8692POPC   C1A41139  41.593   7.441   6.455
 8692POPC   D2A41140  41.565   7.434   6.755
 8692POPC   C3A41141  41.605   7.439   7.055
 8692POPC   C4A41142  41.532   7.398   7.355
 8692POPC   C1B41143  41.597   7.631   6.455
 8692POPC   C2B41144  41.673   7.631   6.755
 8692POPC   C3B41145  41.595   7.692   7.055
 8692POPC   C4B41146  41.659   7.668   7.355
 8693POPC   NC341147  22.166  25.218   5.555
 8693POPC   PO441148  22.119  25.226   5.855
 8693POPC   GL141149  22.134  25.275   6.155
 8693POPC   GL241150  22.256  25.340   6.155
 8693POPC   C1A41151  22.118  25.243   6.455
 8693POPC   D2A41152  22.137  25.309   6.755
 8693POPC   C3A41153  22.171  25.289   7.055
 8693POPC   C4A41154  22.207  25.300   7.355
 8693POPC   C1B41155  22.358  25.344   6.455
 8693POPC   C2B41156  22.394  25.374   6.755
 8693POPC   C3B41157  22.429  25.353   7.055
 8693POPC   C4B41158  22.421  25.365   7.355
 8694POPC   NC341159   8.232  36.902   5.555
 8694POPC   PO441160   8.194  36.868   5.855
 8694POPC   GL141161   8.178  36.949   6.155
 8694POPC   GL241162   8.225  36.802   6.155
 8694POPC   C1A41163   8.205  36.929   6.455
 8694POPC   D2A41164   8.224  36.879   6.755
 8694POPC   C3A41165   8.215  36.922   7.055
 8694POPC   C4A41166   8.230  36.919   7.355
 8694POPC   C1B41167   8.212  36.622   6.455
 8694POPC   C2B41168   8.253  36.641   6.755
 8694POPC   C3B41169   8.262  36.620   7.055
 8694POPC   C4B41170   8.215  36.619   7.355
 8695POPC   NC341171  16.734  30.698   5.555
 8695POPC   PO441172  16.719  30.678   5.855
 8695POPC   GL141173  16.703  30.716   6.155
 8695POPC   GL241174  16.757  30.576   6.155
 8695POPC   C1A41175  16.743  30.687   6.455
 8695POPC   D2A41176  16.755  30.651   6.755
 8695POPC   C3A41177  16.774  30.728   7.055
 8695POPC   C4A41178  16.697  30.664   7.355
 8695POPC   C1B41179  16.876  30.508   6.455
 8695POPC   C2B41180  16.852  30.506   6.755
 8695POPC   C3B41181  16.822  30.452   7.055
 8695POPC   C4B41182  16.781  30.471   7.355
 8696POPC   NC341183  33.775   2.763   5.555
 8696POPC   PO441184  33.793   2.795   5.855
 8696POPC   GL141185  33.789   2.737   6.155
 8696POPC   GL241186  33.931   2.756   6.155
 8696POPC   C1A41187  33.832   2.808   6.455
 8696POPC   D2A41188  33.781   2.796   6.755
 8696POPC   C3A41189  33.822   2.787   7.055
 8696POPC   C4A41190  33.827   2.793   7.355
 8696POPC   C1B41191  34.076   2.841   6.455
 8696POPC   C2B41192  34.087   2.796   6.755
 8696POPC   C3B41193  34.063   2.760   7.055
 8696POPC   C4B41194  34.045   2.803   7.355
 8697POPC   NC341195  38.408  19.030   5.555
 8697POPC   PO441196  38.491  19.067   5.855
 8697POPC   GL141197  38.465  19.013   6.155
 8697POPC   GL241198  38.417  19.190   6.155
 8697POPC   C1A41199  38.450  19.012   6.455
 8697POPC   D2A41200  38.443  19.015   6.755
 8697POPC   C3A41201  38.428  19.085   7.055
 8697POPC   C4A41202  38.487  19.015   7.355
 8697POPC   C1B41203  38.300  19.322   6.455
 8697POPC   C2B41204  38.354  19.261   6.755
 8697POPC   C3B41205  38.325  19.292   7.055
 8697POPC   C4B41206  38.345  19.286   7.355
 8698POPC   NC341207   7.406  14.383   5.555
 8698POPC   PO441208   7.465  14.382   5.855
 8698POPC   GL141209   7.378  14.442   6.155
 8698POPC   GL241210   7.369  14.507   6.155
 8698POPC   C1A41211   7.392  14.360   6.455
 8698POPC   D2A41212   7.407  14.383   6.755
 8698POPC   C3A41213   7.461  14.419   7.055
 8698POPC   C4A41214   7.400  14.426   7.355
 8698POPC   C1B41215   7.196  14.551   6.455
 8698POPC   C2B41216   7.246  14.600   6.755
 8698POPC   C3B41217   7.243  14.581   7.055
 8698POPC   C4B41218   7.222  14.547   7.355
 8699POPC   NC341219  36.952  43.930   5.555
 8699POPC   PO441220  36.896  43.897   5.855
 8699POPC   GL141221  36.876  43.865   6.155
 8699POPC   GL241222  36.829  43.777   6.155
 8699POPC   C1A41223  36.858  43.850   6.455
 8699POPC   D2A41224  36.944  43.882   6.755
 8699POPC   C3A41225  36.890  43.838   7.055
 8699POPC   C4A41226  36.902  43.878   7.355
 8699POPC   C1B41227  36.729  43.678   6.455
 8699POPC   C2B41228  36.789  43.714   6.755
 8699POPC   C3B41229  36.708  43.645   7.055
 8699POPC   C4B41230  36.700  43.719   7.355
 8700POPC   NC341231   7.394   4.270   5.555
 8700POPC   PO441232   7.460   4.278   5.855
 8700POPC   GL141233   7.449   4.339   6.155
 8700POPC   GL241234   7.591   4.344   6.155
 8700POPC   C1A41235   7.400   4.324   6.455
 8700POPC   D2A41236   7.379   4.329   6.755
 8700POPC   C3A41237   7.390   4.365   7.055
 8700POPC   C4A41238   7.406   4.329   7.355
 8700POPC   C1B41239   7.667   4.317   6.455
 8700POPC   C2B41240   7.668   4.304   6.755
 8700POPC   C3B41241   7.675   4.358   7.055
 8700POPC   C4B41242   7.713   4.354   7.355
 8701POPC   NC341243   7.429  40.810   5.555
 8701POPC   PO441244   7.461  40.751   5.855
 8701POPC   GL141245   7.404  40.803   6.155
 8701POPC   GL241246   7.536  40.727   6.155
 8701POPC   C1A41247   7.444  40.823   6.455
 8701POPC   D2A41248   7.430  40.769   6.755
 8701POPC   C3A41249   7.381  40.818   7.055
 8701POPC   C4A41250   7.414  40.794   7.355
 8701POPC   C1B41251   7.617  40.602   6.455
 8701POPC   C2B41252   7.662  40.615   6.755
 8701POPC   C3B41253   7.594  40.617   7.055
 8701POPC   C4B41254   7.653  40.651   7.355
 8702POPC   NC341255  15.946   1.975   5.555
 8702POPC   PO441256  15.954   1.989   5.855
 8702POPC   GL141257  15.981   1.989   6.155
 8702POPC   GL241258  15.891   2.045   6.155
 8702POPC   C1A41259  15.906   1.977   6.455
 8702POPC   D2A41260  16.003   2.024   6.755
 8702POPC   C3A41261  15.946   2.009   7.055
 8702POPC   C4A41262  15.949   2.007   7.355
 8702POPC   C1B41263  15.741   2.154   6.455
 8702POPC   C2B41264  15.837   2.169   6.755
 8702POPC   C3B41265  15.777   2.223   7.055
 8702POPC   C4B41266  15.787   2.183   7.355
 8703POPC   NC341267  32.266   8.163   5.555
 8703POPC   PO441268  32.266   8.201   5.855
 8703POPC   GL141269  32.225   8.157   6.155
 8703POPC   GL241270  32.226   8.301   6.155
 8703POPC   C1A41271  32.237   8.179   6.455
 8703POPC   D2A41272  32.207   8.193   6.755
 8703POPC   C3A41273  32.253   8.168   7.055
 8703POPC   C4A41274  32.298   8.184   7.355
 8703POPC   C1B41275  32.256   8.446   6.455
 8703POPC   C2B41276  32.274   8.459   6.755
 8703POPC   C3B41277  32.262   8.483   7.055
 8703POPC   C4B41278  32.284   8.468   7.355
 8704POPC   NC341279  35.317   6.693   5.555
 8704POPC   PO441280  35.337   6.633   5.855
 8704POPC   GL141281  35.333   6.682   6.155
 8704POPC   GL241282  35.211   6.543   6.155
 8704POPC   C1A41283  35.373   6.656   6.455
 8704POPC   D2A41284  35.377   6.598   6.755
 8704POPC   C3A41285  35.385   6.628   7.055
 8704POPC   C4A41286  35.395   6.631   7.355
 8704POPC   C1B41287  35.175   6.516   6.455
 8704POPC   C2B41288  35.209   6.475   6.755
 8704POPC   C3B41289  35.196   6.525   7.055
 8704POPC   C4B41290  35.160   6.453   7.355
 8705POPC   NC341291  38.505  37.720   5.555
 8705POPC   PO441292  38.495  37.651   5.855
 8705POPC   GL141293  38.410  37.630   6.155
 8705POPC   GL241294  38.559  37.709   6.155
 8705POPC   C1A41295  38.492  37.644   6.455
 8705POPC   D2A41296  38.413  37.669   6.755
 8705POPC   C3A41297  38.473  37.667   7.055
 8705POPC   C4A41298  38.419  37.651   7.355
 8705POPC   C1B41299  38.634  37.798   6.455
 8705POPC   C2B41300  38.691  37.741   6.755
 8705POPC   C3B41301  38.683  37.779   7.055
 8705POPC   C4B41302  38.678  37.761   7.355
 8706POPC   NC341303   5.916   9.011   5.555
 8706POPC   PO441304   5.917   8.928   5.855
 8706POPC   GL141305   5.847   8.952   6.155
 8706POPC   GL241306   5.902   9.095   6.155
 8706POPC   C1A41307   5.821   8.968   6.455
 8706POPC   D2A41308   5.905   9.020   6.755
 8706POPC   C3A41309   5.849   9.013   7.055
 8706POPC   C4A41310   5.872   8.978   7.355
 8706POPC   C1B41311   6.036   9.145   6.455
 8706POPC   C2B41312   6.048   9.180   6.755
 8706POPC   C3B41313   5.977   9.156   7.055
 8706POPC   C4B41314   6.053   9.210   7.355
 8707POPC   NC341315  28.418  30.679   5.555
 8707POPC   PO441316  28.367  30.734   5.855
 8707POPC   GL141317  28.409  30.721   6.155
 8707POPC   GL241318  28.448  30.771   6.155
 8707POPC   C1A41319  28.378  30.698   6.455
 8707POPC   D2A41320  28.335  30.673   6.755
 8707POPC   C3A41321  28.419  30.709   7.055
 8707POPC   C4A41322  28.383  30.724   7.355
 8707POPC   C1B41323  28.510  30.887   6.455
 8707POPC   C2B41324  28.481  30.854   6.755
 8707POPC   C3B41325  28.491  30.899   7.055
 8707POPC   C4B41326  28.550  30.898   7.355
 8708POPC   NC341327   2.764  19.065   5.555
 8708POPC   PO441328   2.780  19.064   5.855
 8708POPC   GL141329   2.745  19.013   6.155
 8708POPC   GL241330   2.686  19.040   6.155
 8708POPC   C1A41331   2.748  19.080   6.455
 8708POPC   D2A41332   2.750  19.019   6.755
 8708POPC   C3A41333   2.717  19.075   7.055
 8708POPC   C4A41334   2.761  19.065   7.355
 8708POPC   C1B41335   2.571  18.920   6.455
 8708POPC   C2B41336   2.497  18.998   6.755
 8708POPC   C3B41337   2.587  18.957   7.055
 8708POPC   C4B41338   2.562  18.931   7.355
 8709POPC   NC341339   0.402  33.810   5.555
 8709POPC   PO441340   0.408  33.770   5.855
 8709POPC   GL141341   0.392  33.807   6.155
 8709POPC   GL241342   0.477  33.719   6.155
 8709POPC   C1A41343   0.430  33.778   6.455
 8709POPC   D2A41344   0.456  33.797   6.755
 8709POPC   C3A41345   0.471  33.835   7.055
 8709POPC   C4A41346   0.403  33.774   7.355
 8709POPC   C1B41347   0.443  33.591   6.455
 8709POPC   C2B41348   0.421  33.549   6.755
 8709POPC   C3B41349   0.428  33.569   7.055
 8709POPC   C4B41350   0.400  33.600   7.355
 8710POPC   NC341351  38.432  15.908   5.555
 8710POPC   PO441352  38.488  15.966   5.855
 8710POPC   GL141353  38.435  15.967   6.155
 8710POPC   GL241354  38.606  15.867   6.155
 8710POPC   C1A41355  38.473  15.974   6.455
 8710POPC   D2A41356  38.493  15.980   6.755
 8710POPC   C3A41357  38.421  15.931   7.055
 8710POPC   C4A41358  38.472  15.961   7.355
 8710POPC   C1B41359  38.650  15.848   6.455
 8710POPC   C2B41360  38.705  15.837   6.755
 8710POPC   C3B41361  38.682  15.842   7.055
 8710POPC   C4B41362  38.720  15.845   7.355
 8711POPC   NC341363   5.103   3.587   5.555
 8711POPC   PO441364   5.100   3.514   5.855
 8711POPC   GL141365   5.128   3.558   6.155
 8711POPC   GL241366   5.078   3.403   6.155
 8711POPC   C1A41367   5.106   3.590   6.455
 8711POPC   D2A41368   5.089   3.587   6.755
 8711POPC   C3A41369   5.063   3.568   7.055
 8711POPC   C4A41370   5.124   3.570   7.355
 8711POPC   C1B41371   4.973   3.334   6.455
 8711POPC   C2B41372   4.989   3.291   6.755
 8711POPC   C3B41373   4.984   3.342   7.055
 8711POPC   C4B41374   4.956   3.292   7.355
 8712POPC   NC341375  38.469  26.839   5.555
 8712POPC   PO441376  38.437  26.863   5.855
 8712POPC   GL141377  38.420  26.786   6.155
 8712POPC   GL241378  38.607  26.821   6.155
 8712POPC   C1A41379  38.418  26.861   6.455
 8712POPC   D2A41380  38.450  26.828   6.755
 8712POPC   C3A41381  38.437  26.778   7.055
 8712POPC   C4A41382  38.442  26.812   7.355
 8712POPC   C1B41383  38.690  26.872   6.455
 8712POPC   C2B41384  38.680  26.901   6.755
 8712POPC   C3B41385  38.717  26.817   7.055
 8712POPC   C4B41386  38.705  26.819   7.355
 8713POPC   NC341387   7.427   5.061   5.555
 8713POPC   PO441388   7.427   5.141   5.855
 8713POPC   GL141389   7.379   5.071   6.155
 8713POPC   GL241390   7.488   5.198   6.155
 8713POPC   C1A41391   7.454   5.137   6.455
 8713POPC   D2A41392   7.427   5.099   6.755
 8713POPC   C3A41393   7.469   5.057   7.055
 8713POPC   C4A41394   7.459   5.078   7.355
 8713POPC   C1B41395   7.474   5.289   6.455
 8713POPC   C2B41396   7.474   5.300   6.755
 8713POPC   C3B41397   7.518   5.292   7.055
 8713POPC   C4B41398   7.477   5.322   7.355
 8714POPC   NC341399  38.452   6.644   5.555
 8714POPC   PO441400  38.477   6.623   5.855
 8714POPC   GL141401  38.430   6.634   6.155
 8714POPC   GL241402  38.480   6.507   6.155
 8714POPC   C1A41403  38.503   6.674   6.455
 8714POPC   D2A41404  38.457   6.606   6.755
 8714POPC   C3A41405  38.412   6.685   7.055
 8714POPC   C4A41406  38.435   6.632   7.355
 8714POPC   C1B41407  38.565   6.433   6.455
 8714POPC   C2B41408  38.542   6.422   6.755
 8714POPC   C3B41409  38.614   6.448   7.055
 8714POPC   C4B41410  38.560   6.410   7.355
 8715POPC   NC341411   9.793   7.394   5.555
 8715POPC   PO441412   9.775   7.402   5.855
 8715POPC   GL141413   9.735   7.453   6.155
 8715POPC   GL241414   9.913   7.454   6.155
 8715POPC   C1A41415   9.723   7.460   6.455
 8715POPC   D2A41416   9.774   7.411   6.755
 8715POPC   C3A41417   9.738   7.465   7.055
 8715POPC   C4A41418   9.767   7.396   7.355
 8715POPC   C1B41419   9.951   7.485   6.455
 8715POPC   C2B41420   9.964   7.512   6.755
 8715POPC   C3B41421  10.030   7.538   7.055
 8715POPC   C4B41422   9.981   7.469   7.355
 8716POPC   NC341423   6.651   7.397   5.555
 8716POPC   PO441424   6.616   7.429   5.855
 8716POPC   GL141425   6.627   7.401   6.155
 8716POPC   GL241426   6.607   7.558   6.155
 8716POPC   C1A41427   6.624   7.446   6.455
 8716POPC   D2A41428   6.648   7.387   6.755
 8716POPC   C3A41429   6.671   7.441   7.055
 8716POPC   C4A41430   6.625   7.401   7.355
 8716POPC   C1B41431   6.701   7.631   6.455
 8716POPC   C2B41432   6.620   7.674   6.755
 8716POPC   C3B41433   6.621   7.647   7.055
 8716POPC   C4B41434   6.656   7.641   7.355
 8717POPC   NC341435  31.512  33.776   5.555
 8717POPC   PO441436  31.429  33.772   5.855
 8717POPC   GL141437  31.457  33.806   6.155
 8717POPC   GL241438  31.419  33.893   6.155
 8717POPC   C1A41439  31.502  33.824   6.455
 8717POPC   D2A41440  31.522  33.780   6.755
 8717POPC   C3A41441  31.467  33.833   7.055
 8717POPC   C4A41442  31.505  33.778   7.355
 8717POPC   C1B41443  31.319  33.993   6.455
 8717POPC   C2B41444  31.252  33.999   6.755
 8717POPC   C3B41445  31.270  34.007   7.055
 8717POPC   C4B41446  31.287  33.978   7.355
 8718POPC   NC341447  28.343  26.000   5.555
 8718POPC   PO441448  28.363  26.058   5.855
 8718POPC   GL141449  28.380  26.079   6.155
 8718POPC   GL241450  28.461  26.186   6.155
 8718POPC   C1A41451  28.367  26.041   6.455
 8718POPC   D2A41452  28.387  26.013   6.755
 8718POPC   C3A41453  28.414  25.992   7.055
 8718POPC   C4A41454  28.401  26.091   7.355
 8718POPC   C1B41455  28.427  26.320   6.455
 8718POPC   C2B41456  28.489  26.294   6.755
 8718POPC   C3B41457  28.500  26.236   7.055
 8718POPC   C4B41458  28.486  26.251   7.355
 8719POPC   NC341459   1.195  20.642   5.555
 8719POPC   PO441460   1.195  20.574   5.855
 8719POPC   GL141461   1.215  20.589   6.155
 8719POPC   GL241462   1.326  20.583   6.155
 8719POPC   C1A41463   1.239  20.608   6.455
 8719POPC   D2A41464   1.251  20.610   6.755
 8719POPC   C3A41465   1.228  20.647   7.055
 8719POPC   C4A41466   1.188  20.654   7.355
 8719POPC   C1B41467   1.426  20.528   6.455
 8719POPC   C2B41468   1.491  20.508   6.755
 8719POPC   C3B41469   1.459  20.498   7.055
 8719POPC   C4B41470   1.452  20.505   7.355
 8720POPC   NC341471  35.343  43.886   5.555
 8720POPC   PO441472  35.321  43.876   5.855
 8720POPC   GL141473  35.327  43.905   6.155
 8720POPC   GL241474  35.200  43.928   6.155
 8720POPC   C1A41475  35.379  43.870   6.455
 8720POPC   D2A41476  35.383  43.897   6.755
 8720POPC   C3A41477  35.377  43.853   7.055
 8720POPC   C4A41478  35.398  43.854   7.355
 8720POPC   C1B41479  35.117  43.937   6.455
 8720POPC   C2B41480  35.124  43.933   6.755
 8720POPC   C3B41481  35.139  43.849   7.055
 8720POPC   C4B41482  35.074  43.920   7.355
 8721POPC   NC341483  39.980  10.532   5.555
 8721POPC   PO441484  39.974  10.514   5.855
 8721POPC   GL141485  40.054  10.490   6.155
 8721POPC   GL241486  39.834  10.461   6.155
 8721POPC   C1A41487  40.012  10.571   6.455
 8721POPC   D2A41488  40.051  10.568   6.755
 8721POPC   C3A41489  39.978  10.564   7.055
 8721POPC   C4A41490  40.048  10.490   7.355
 8721POPC   C1B41491  39.772  10.482   6.455
 8721POPC   C2B41492  39.799  10.456   6.755
 8721POPC   C3B41493  39.792  10.442   7.055
 8721POPC   C4B41494  39.748  10.458   7.355
 8722POPC   NC341495  26.006  29.177   5.555
 8722POPC   PO441496  25.992  29.195   5.855
 8722POPC   GL141497  26.081  29.120   6.155
 8722POPC   GL241498  25.938  29.248   6.155
 8722POPC   C1A41499  26.050  29.109   6.455
 8722POPC   D2A41500  25.998  29.165   6.755
 8722POPC   C3A41501  26.063  29.150   7.055
 8722POPC   C4A41502  26.088  29.176   7.355
 8722POPC   C1B41503  25.832  29.340   6.455
 8722POPC   C2B41504  25.867  29.335   6.755
 8722POPC   C3B41505  25.810  29.318   7.055
 8722POPC   C4B41506  25.879  29.259   7.355
 8723POPC   NC341507  34.584  12.882   5.555
 8723POPC   PO441508  34.533  12.812   5.855
 8723POPC   GL141509  34.619  12.865   6.155
 8723POPC   GL241510  34.459  12.943   6.155
 8723POPC   C1A41511  34.567  12.810   6.455
 8723POPC   D2A41512  34.541  12.849   6.755
 8723POPC   C3A41513  34.580  12.812   7.055
 8723POPC   C4A41514  34.559  12.839   7.355
 8723POPC   C1B41515  34.368  13.025   6.455
 8723POPC   C2B41516  34.400  13.050   6.755
 8723POPC   C3B41517  34.362  12.980   7.055
 8723POPC   C4B41518  34.341  12.992   7.355
 8724POPC   NC341519  13.662  32.233   5.555
 8724POPC   PO441520  13.636  32.225   5.855
 8724POPC   GL141521  13.596  32.262   6.155
 8724POPC   GL241522  13.480  32.293   6.155
 8724POPC   C1A41523  13.616  32.281   6.455
 8724POPC   D2A41524  13.658  32.252   6.755
 8724POPC   C3A41525  13.624  32.208   7.055
 8724POPC   C4A41526  13.660  32.221   7.355
 8724POPC   C1B41527  13.470  32.387   6.455
 8724POPC   C2B41528  13.465  32.406   6.755
 8724POPC   C3B41529  13.443  32.388   7.055
 8724POPC   C4B41530  13.379  32.421   7.355
 8725POPC   NC341531  32.243  12.069   5.555
 8725POPC   PO441532  32.251  12.047   5.855
 8725POPC   GL141533  32.267  12.064   6.155
 8725POPC   GL241534  32.133  12.080   6.155
 8725POPC   C1A41535  32.251  12.081   6.455
 8725POPC   D2A41536  32.255  12.051   6.755
 8725POPC   C3A41537  32.216  12.070   7.055
 8725POPC   C4A41538  32.280  12.042   7.355
 8725POPC   C1B41539  32.050  12.026   6.455
 8725POPC   C2B41540  31.982  11.987   6.755
 8725POPC   C3B41541  31.976  11.989   7.055
 8725POPC   C4B41542  31.965  12.032   7.355
 8726POPC   NC341543  13.604  44.677   5.555
 8726POPC   PO441544  13.675  44.685   5.855
 8726POPC   GL141545  13.584  44.647   6.155
 8726POPC   GL241546  13.741  44.745   6.155
 8726POPC   C1A41547  13.616  44.681   6.455
 8726POPC   D2A41548  13.647  44.650   6.755
 8726POPC   C3A41549  13.616  44.694   7.055
 8726POPC   C4A41550  13.579  44.614   7.355
 8726POPC   C1B41551  13.850  44.685   6.455
 8726POPC   C2B41552  13.822  44.713   6.755
 8726POPC   C3B41553  13.833  44.729   7.055
 8726POPC   C4B41554  13.835  44.760   7.355
 8727POPC   NC341555  18.295  23.722   5.555
 8727POPC   PO441556  18.236  23.756   5.855
 8727POPC   GL141557  18.267  23.696   6.155
 8727POPC   GL241558  18.325  23.844   6.155
 8727POPC   C1A41559  18.261  23.722   6.455
 8727POPC   D2A41560  18.282  23.759   6.755
 8727POPC   C3A41561  18.285  23.695   7.055
 8727POPC   C4A41562  18.241  23.735   7.355
 8727POPC   C1B41563  18.361  23.962   6.455
 8727POPC   C2B41564  18.409  23.931   6.755
 8727POPC   C3B41565  18.349  23.969   7.055
 8727POPC   C4B41566  18.347  23.979   7.355
 8728POPC   NC341567  33.055  16.780   5.555
 8728POPC   PO441568  32.993  16.722   5.855
 8728POPC   GL141569  33.057  16.696   6.155
 8728POPC   GL241570  32.980  16.826   6.155
 8728POPC   C1A41571  33.045  16.683   6.455
 8728POPC   D2A41572  33.054  16.759   6.755
 8728POPC   C3A41573  33.057  16.686   7.055
 8728POPC   C4A41574  33.000  16.738   7.355
 8728POPC   C1B41575  32.894  16.958   6.455
 8728POPC   C2B41576  32.889  16.898   6.755
 8728POPC   C3B41577  32.879  16.922   7.055
 8728POPC   C4B41578  32.812  16.957   7.355
 8729POPC   NC341579  29.131   9.722   5.555
 8729POPC   PO441580  29.182   9.726   5.855
 8729POPC   GL141581  29.122   9.787   6.155
 8729POPC   GL241582  29.258   9.830   6.155
 8729POPC   C1A41583  29.128   9.700   6.455
 8729POPC   D2A41584  29.171   9.704   6.755
 8729POPC   C3A41585  29.172   9.757   7.055
 8729POPC   C4A41586  29.193   9.709   7.355
 8729POPC   C1B41587  29.405   9.834   6.455
 8729POPC   C2B41588  29.396   9.901   6.755
 8729POPC   C3B41589  29.337   9.890   7.055
 8729POPC   C4B41590  29.324   9.830   7.355
 8730POPC   NC341591  36.113  24.515   5.555
 8730POPC   PO441592  36.140  24.440   5.855
 8730POPC   GL141593  36.116  24.477   6.155
 8730POPC   GL241594  36.113  24.407   6.155
 8730POPC   C1A41595  36.163  24.517   6.455
 8730POPC   D2A41596  36.152  24.486   6.755
 8730POPC   C3A41597  36.099  24.537   7.055
 8730POPC   C4A41598  36.105  24.510   7.355
 8730POPC   C1B41599  36.070  24.202   6.455
 8730POPC   C2B41600  36.040  24.204   6.755
 8730POPC   C3B41601  36.022  24.290   7.055
 8730POPC   C4B41602  36.037  24.211   7.355
 8731POPC   NC341603   9.791  39.999   5.555
 8731POPC   PO441604   9.749  39.979   5.855
 8731POPC   GL141605   9.756  39.989   6.155
 8731POPC   GL241606   9.848  40.126   6.155
 8731POPC   C1A41607   9.713  39.983   6.455
 8731POPC   D2A41608   9.739  40.047   6.755
 8731POPC   C3A41609   9.776  39.997   7.055
 8731POPC   C4A41610   9.773  39.995   7.355
 8731POPC   C1B41611   9.895  40.280   6.455
 8731POPC   C2B41612   9.883  40.193   6.755
 8731POPC   C3B41613   9.808  40.212   7.055
 8731POPC   C4B41614   9.815  40.238   7.355
 8732POPC   NC341615  17.465   2.017   5.555
 8732POPC   PO441616  17.491   1.980   5.855
 8732POPC   GL141617  17.471   2.016   6.155
 8732POPC   GL241618  17.412   1.967   6.155
 8732POPC   C1A41619  17.516   2.004   6.455
 8732POPC   D2A41620  17.494   1.946   6.755
 8732POPC   C3A41621  17.510   2.014   7.055
 8732POPC   C4A41622  17.510   2.008   7.355
 8732POPC   C1B41623  17.262   1.901   6.455
 8732POPC   C2B41624  17.251   1.888   6.755
 8732POPC   C3B41625  17.255   1.851   7.055
 8732POPC   C4B41626  17.321   1.876   7.355
 8733POPC   NC341627   5.871  17.524   5.555
 8733POPC   PO441628   5.830  17.512   5.855
 8733POPC   GL141629   5.864  17.462   6.155
 8733POPC   GL241630   5.721  17.532   6.155
 8733POPC   C1A41631   5.889  17.555   6.455
 8733POPC   D2A41632   5.907  17.473   6.755
 8733POPC   C3A41633   5.871  17.508   7.055
 8733POPC   C4A41634   5.838  17.548   7.355
 8733POPC   C1B41635   5.603  17.603   6.455
 8733POPC   C2B41636   5.648  17.567   6.755
 8733POPC   C3B41637   5.620  17.564   7.055
 8733POPC   C4B41638   5.585  17.552   7.355
 8734POPC   NC341639   0.467  33.034   5.555
 8734POPC   PO441640   0.422  33.011   5.855
 8734POPC   GL141641   0.420  33.044   6.155
 8734POPC   GL241642   0.418  32.922   6.155
 8734POPC   C1A41643   0.398  33.010   6.455
 8734POPC   D2A41644   0.412  33.055   6.755
 8734POPC   C3A41645   0.461  33.059   7.055
 8734POPC   C4A41646   0.400  33.013   7.355
 8734POPC   C1B41647   0.359  32.826   6.455
 8734POPC   C2B41648   0.353  32.826   6.755
 8734POPC   C3B41649   0.405  32.770   7.055
 8734POPC   C4B41650   0.412  32.734   7.355
 8735POPC   NC341651  40.019  19.858   5.555
 8735POPC   PO441652  39.981  19.869   5.855
 8735POPC   GL141653  40.052  19.813   6.155
 8735POPC   GL241654  40.093  19.767   6.155
 8735POPC   C1A41655  40.052  19.855   6.455
 8735POPC   D2A41656  39.959  19.875   6.755
 8735POPC   C3A41657  40.039  19.827   7.055
 8735POPC   C4A41658  40.040  19.799   7.355
 8735POPC   C1B41659  40.201  19.677   6.455
 8735POPC   C2B41660  40.167  19.705   6.755
 8735POPC   C3B41661  40.212  19.743   7.055
 8735POPC   C4B41662  40.249  19.651   7.355
 8736POPC   NC341663  42.324  25.311   5.555
 8736POPC   PO441664  42.304  25.228   5.855
 8736POPC   GL141665  42.303  25.257   6.155
 8736POPC   GL241666  42.453  25.207   6.155
 8736POPC   C1A41667  42.369  25.275   6.455
 8736POPC   D2A41668  42.349  25.308   6.755
 8736POPC   C3A41669  42.371  25.225   7.055
 8736POPC   C4A41670  42.298  25.236   7.355
 8736POPC   C1B41671  42.477  25.080   6.455
 8736POPC   C2B41672  42.509  25.094   6.755
 8736POPC   C3B41673  42.484  25.100   7.055
 8736POPC   C4B41674  42.464  25.068   7.355
 8737POPC   NC341675  36.927  15.225   5.555
 8737POPC   PO441676  36.877  15.184   5.855
 8737POPC   GL141677  36.943  15.165   6.155
 8737POPC   GL241678  36.842  15.306   6.155
 8737POPC   C1A41679  36.862  15.196   6.455
 8737POPC   D2A41680  36.916  15.220   6.755
 8737POPC   C3A41681  36.940  15.201   7.055
 8737POPC   C4A41682  36.945  15.187   7.355
 8737POPC   C1B41683  36.868  15.399   6.455
 8737POPC   C2B41684  36.811  15.431   6.755
 8737POPC   C3B41685  36.826  15.375   7.055
 8737POPC   C4B41686  36.793  15.445   7.355
 8738POPC   NC341687   6.644   5.066   5.555
 8738POPC   PO441688   6.680   5.117   5.855
 8738POPC   GL141689   6.616   5.060   6.155
 8738POPC   GL241690   6.760   5.151   6.155
 8738POPC   C1A41691   6.616   5.050   6.455
 8738POPC   D2A41692   6.630   5.084   6.755
 8738POPC   C3A41693   6.630   5.047   7.055
 8738POPC   C4A41694   6.687   5.131   7.355
 8738POPC   C1B41695   6.852   5.223   6.455
 8738POPC   C2B41696   6.891   5.204   6.755
 8738POPC   C3B41697   6.815   5.201   7.055
 8738POPC   C4B41698   6.847   5.280   7.355
 8739POPC   NC341699  40.054  36.866   5.555
 8739POPC   PO441700  40.039  36.863   5.855
 8739POPC   GL141701  40.037  36.939   6.155
 8739POPC   GL241702  40.036  36.802   6.155
 8739POPC   C1A41703  40.042  36.918   6.455
 8739POPC   D2A41704  39.970  36.939   6.755
 8739POPC   C3A41705  40.014  36.925   7.055
 8739POPC   C4A41706  40.050  36.866   7.355
 8739POPC   C1B41707  39.987  36.639   6.455
 8739POPC   C2B41708  40.015  36.618   6.755
 8739POPC   C3B41709  40.029  36.673   7.055
 8739POPC   C4B41710  40.063  36.643   7.355
 8740POPC   NC341711  39.224  29.170   5.555
 8740POPC   PO441712  39.275  29.185   5.855
 8740POPC   GL141713  39.271  29.102   6.155
 8740POPC   GL241714  39.306  29.198   6.155
 8740POPC   C1A41715  39.253  29.127   6.455
 8740POPC   D2A41716  39.259  29.149   6.755
 8740POPC   C3A41717  39.252  29.142   7.055
 8740POPC   C4A41718  39.259  29.109   7.355
 8740POPC   C1B41719  39.444  29.260   6.455
 8740POPC   C2B41720  39.475  29.288   6.755
 8740POPC   C3B41721  39.465  29.268   7.055
 8740POPC   C4B41722  39.457  29.211   7.355
 8741POPC   NC341723  12.861  43.091   5.555
 8741POPC   PO441724  12.857  43.063   5.855
 8741POPC   GL141725  12.864  43.119   6.155
 8741POPC   GL241726  12.951  42.971   6.155
 8741POPC   C1A41727  12.839  43.134   6.455
 8741POPC   D2A41728  12.885  43.148   6.755
 8741POPC   C3A41729  12.845  43.070   7.055
 8741POPC   C4A41730  12.832  43.072   7.355
 8741POPC   C1B41731  12.963  42.916   6.455
 8741POPC   C2B41732  13.024  42.899   6.755
 8741POPC   C3B41733  12.982  42.868   7.055
 8741POPC   C4B41734  13.007  42.902   7.355
 8742POPC   NC341735  10.572   2.725   5.555
 8742POPC   PO441736  10.552   2.784   5.855
 8742POPC   GL141737  10.510   2.766   6.155
 8742POPC   GL241738  10.630   2.791   6.155
 8742POPC   C1A41739  10.507   2.799   6.455
 8742POPC   D2A41740  10.570   2.793   6.755
 8742POPC   C3A41741  10.542   2.804   7.055
 8742POPC   C4A41742  10.569   2.764   7.355
 8742POPC   C1B41743  10.797   2.782   6.455
 8742POPC   C2B41744  10.813   2.800   6.755
 8742POPC   C3B41745  10.758   2.727   7.055
 8742POPC   C4B41746  10.807   2.736   7.355
 8743POPC   NC341747  39.270  30.689   5.555
 8743POPC   PO441748  39.212  30.720   5.855
 8743POPC   GL141749  39.210  30.671   6.155
 8743POPC   GL241750  39.285  30.547   6.155
 8743POPC   C1A41751  39.183  30.669   6.455
 8743POPC   D2A41752  39.261  30.700   6.755
 8743POPC   C3A41753  39.279  30.673   7.055
 8743POPC   C4A41754  39.197  30.743   7.355
 8743POPC   C1B41755  39.338  30.493   6.455
 8743POPC   C2B41756  39.299  30.419   6.755
 8743POPC   C3B41757  39.339  30.458   7.055
 8743POPC   C4B41758  39.358  30.425   7.355
 8744POPC   NC341759   4.352  19.018   5.555
 8744POPC   PO441760   4.320  19.082   5.855
 8744POPC   GL141761   4.343  19.022   6.155
 8744POPC   GL241762   4.207  19.168   6.155
 8744POPC   C1A41763   4.306  19.056   6.455
 8744POPC   D2A41764   4.278  19.052   6.755
 8744POPC   C3A41765   4.269  19.070   7.055
 8744POPC   C4A41766   4.279  19.082   7.355
 8744POPC   C1B41767   4.053  19.175   6.455
 8744POPC   C2B41768   4.075  19.201   6.755
 8744POPC   C3B41769   4.112  19.172   7.055
 8744POPC   C4B41770   4.140  19.169   7.355
 8745POPC   NC341771  41.527  27.552   5.555
 8745POPC   PO441772  41.592  27.621   5.855
 8745POPC   GL141773  41.524  27.558   6.155
 8745POPC   GL241774  41.661  27.701   6.155
 8745POPC   C1A41775  41.577  27.555   6.455
 8745POPC   D2A41776  41.535  27.612   6.755
 8745POPC   C3A41777  41.585  27.589   7.055
 8745POPC   C4A41778  41.559  27.546   7.355
 8745POPC   C1B41779  41.804  27.721   6.455
 8745POPC   C2B41780  41.773  27.714   6.755
 8745POPC   C3B41781  41.782  27.694   7.055
 8745POPC   C4B41782  41.788  27.725   7.355
 8746POPC   NC341783   7.379   9.006   5.555
 8746POPC   PO441784   7.394   9.020   5.855
 8746POPC   GL141785   7.384   8.975   6.155
 8746POPC   GL241786   7.527   9.037   6.155
 8746POPC   C1A41787   7.404   8.933   6.455
 8746POPC   D2A41788   7.438   9.007   6.755
 8746POPC   C3A41789   7.385   8.968   7.055
 8746POPC   C4A41790   7.454   8.978   7.355
 8746POPC   C1B41791   7.588   9.138   6.455
 8746POPC   C2B41792   7.626   9.080   6.755
 8746POPC   C3B41793   7.593   9.111   7.055
 8746POPC   C4B41794   7.650   9.114   7.355
 8747POPC   NC341795  41.533  12.812   5.555
 8747POPC   PO441796  41.559  12.819   5.855
 8747POPC   GL141797  41.510  12.863   6.155
 8747POPC   GL241798  41.700  12.756   6.155
 8747POPC   C1A41799  41.577  12.885   6.455
 8747POPC   D2A41800  41.576  12.875   6.755
 8747POPC   C3A41801  41.589  12.851   7.055
 8747POPC   C4A41802  41.602  12.840   7.355
 8747POPC   C1B41803  41.787  12.745   6.455
 8747POPC   C2B41804  41.790  12.721   6.755
 8747POPC   C3B41805  41.748  12.691   7.055
 8747POPC   C4B41806  41.788  12.704   7.355
 8748POPC   NC341807  27.633  35.333   5.555
 8748POPC   PO441808  27.560  35.314   5.855
 8748POPC   GL141809  27.579  35.399   6.155
 8748POPC   GL241810  27.674  35.243   6.155
 8748POPC   C1A41811  27.557  35.363   6.455
 8748POPC   D2A41812  27.599  35.352   6.755
 8748POPC   C3A41813  27.615  35.304   7.055
 8748POPC   C4A41814  27.582  35.329   7.355
 8748POPC   C1B41815  27.838  35.174   6.455
 8748POPC   C2B41816  27.766  35.221   6.755
 8748POPC   C3B41817  27.763  35.242   7.055
 8748POPC   C4B41818  27.778  35.197   7.355
 8749POPC   NC341819  11.264  26.016   5.555
 8749POPC   PO441820  11.284  26.071   5.855
 8749POPC   GL141821  11.336  26.000   6.155
 8749POPC   GL241822  11.321  25.961   6.155
 8749POPC   C1A41823  11.349  26.030   6.455
 8749POPC   D2A41824  11.316  26.001   6.755
 8749POPC   C3A41825  11.282  26.012   7.055
 8749POPC   C4A41826  11.325  26.062   7.355
 8749POPC   C1B41827  11.341  25.827   6.455
 8749POPC   C2B41828  11.355  25.806   6.755
 8749POPC   C3B41829  11.373  25.765   7.055
 8749POPC   C4B41830  11.349  25.777   7.355
 8750POPC   NC341831  27.564   3.583   5.555
 8750POPC   PO441832  27.615   3.570   5.855
 8750POPC   GL141833  27.571   3.523   6.155
 8750POPC   GL241834  27.618   3.682   6.155
 8750POPC   C1A41835  27.554   3.509   6.455
 8750POPC   D2A41836  27.602   3.586   6.755
 8750POPC   C3A41837  27.576   3.538   7.055
 8750POPC   C4A41838  27.597   3.561   7.355
 8750POPC   C1B41839  27.650   3.746   6.455
 8750POPC   C2B41840  27.671   3.751   6.755
 8750POPC   C3B41841  27.717   3.722   7.055
 8750POPC   C4B41842  27.704   3.763   7.355
 8751POPC   NC341843  33.833   9.751   5.555
 8751POPC   PO441844  33.797   9.757   5.855
 8751POPC   GL141845  33.778   9.767   6.155
 8751POPC   GL241846  33.762   9.661   6.155
 8751POPC   C1A41847  33.797   9.703   6.455
 8751POPC   D2A41848  33.834   9.762   6.755
 8751POPC   C3A41849  33.848   9.736   7.055
 8751POPC   C4A41850  33.785   9.788   7.355
 8751POPC   C1B41851  33.841   9.545   6.455
 8751POPC   C2B41852  33.805   9.492   6.755
 8751POPC   C3B41853  33.826   9.506   7.055
 8751POPC   C4B41854  33.764   9.492   7.355
 8752POPC   NC341855   4.341  41.510   5.555
 8752POPC   PO441856   4.323  41.605   5.855
 8752POPC   GL141857   4.273  41.571   6.155
 8752POPC   GL241858   4.234  41.657   6.155
 8752POPC   C1A41859   4.332  41.569   6.455
 8752POPC   D2A41860   4.329  41.597   6.755
 8752POPC   C3A41861   4.331  41.588   7.055
 8752POPC   C4A41862   4.303  41.578   7.355
 8752POPC   C1B41863   4.150  41.676   6.455
 8752POPC   C2B41864   4.097  41.695   6.755
 8752POPC   C3B41865   4.143  41.671   7.055
 8752POPC   C4B41866   4.112  41.729   7.355
 8753POPC   NC341867  22.147  33.043   5.555
 8753POPC   PO441868  22.119  33.026   5.855
 8753POPC   GL141869  22.201  33.023   6.155
 8753POPC   GL241870  22.143  33.094   6.155
 8753POPC   C1A41871  22.163  32.998   6.455
 8753POPC   D2A41872  22.209  32.982   6.755
 8753POPC   C3A41873  22.139  32.988   7.055
 8753POPC   C4A41874  22.181  33.033   7.355
 8753POPC   C1B41875  22.102  33.263   6.455
 8753POPC   C2B41876  22.058  33.257   6.755
 8753POPC   C3B41877  22.070  33.289   7.055
 8753POPC   C4B41878  22.100  33.269   7.355
 8754POPC   NC341879  14.412   2.729   5.555
 8754POPC   PO441880  14.355   2.780   5.855
 8754POPC   GL141881  14.435   2.797   6.155
 8754POPC   GL241882  14.298   2.742   6.155
 8754POPC   C1A41883  14.362   2.802   6.455
 8754POPC   D2A41884  14.429   2.778   6.755
 8754POPC   C3A41885  14.390   2.743   7.055
 8754POPC   C4A41886  14.410   2.813   7.355
 8754POPC   C1B41887  14.189   2.662   6.455
 8754POPC   C2B41888  14.195   2.677   6.755
 8754POPC   C3B41889  14.211   2.627   7.055
 8754POPC   C4B41890  14.141   2.612   7.355
 8755POPC   NC341891   6.670   1.185   5.555
 8755POPC   PO441892   6.694   1.169   5.855
 8755POPC   GL141893   6.609   1.220   6.155
 8755POPC   GL241894   6.647   1.346   6.155
 8755POPC   C1A41895   6.665   1.262   6.455
 8755POPC   D2A41896   6.642   1.243   6.755
 8755POPC   C3A41897   6.666   1.231   7.055
 8755POPC   C4A41898   6.657   1.199   7.355
 8755POPC   C1B41899   6.671   1.477   6.455
 8755POPC   C2B41900   6.682   1.506   6.755
 8755POPC   C3B41901   6.667   1.439   7.055
 8755POPC   C4B41902   6.676   1.499   7.355
 8756POPC   NC341903   8.242  38.433   5.555
 8756POPC   PO441904   8.162  38.414   5.855
 8756POPC   GL141905   8.200  38.474   6.155
 8756POPC   GL241906   8.341  38.464   6.155
 8756POPC   C1A41907   8.234  38.407   6.455
 8756POPC   D2A41908   8.169  38.467   6.755
 8756POPC   C3A41909   8.187  38.503   7.055
 8756POPC   C4A41910   8.160  38.432   7.355
 8756POPC   C1B41911   8.392  38.588   6.455
 8756POPC   C2B41912   8.446  38.534   6.755
 8756POPC   C3B41913   8.437  38.583   7.055
 8756POPC   C4B41914   8.426  38.588   7.355
 8757POPC   NC341915   7.431   9.774   5.555
 8757POPC   PO441916   7.395   9.748   5.855
 8757POPC   GL141917   7.374   9.738   6.155
 8757POPC   GL241918   7.414   9.889   6.155
 8757POPC   C1A41919   7.468   9.710   6.455
 8757POPC   D2A41920   7.385   9.702   6.755
 8757POPC   C3A41921   7.379   9.738   7.055
 8757POPC   C4A41922   7.395   9.770   7.355
 8757POPC   C1B41923   7.333   9.947   6.455
 8757POPC   C2B41924   7.294  10.002   6.755
 8757POPC   C3B41925   7.261   9.940   7.055
 8757POPC   C4B41926   7.315   9.983   7.355
 8758POPC   NC341927  15.926   9.754   5.555
 8758POPC   PO441928  15.947   9.783   5.855
 8758POPC   GL141929  15.957   9.780   6.155
 8758POPC   GL241930  15.854   9.738   6.155
 8758POPC   C1A41931  15.989   9.791   6.455
 8758POPC   D2A41932  15.960   9.700   6.755
 8758POPC   C3A41933  15.907   9.768   7.055
 8758POPC   C4A41934  15.969   9.739   7.355
 8758POPC   C1B41935  15.692   9.784   6.455
 8758POPC   C2B41936  15.724   9.766   6.755
 8758POPC   C3B41937  15.668   9.769   7.055
 8758POPC   C4B41938  15.748   9.755   7.355
 8759POPC   NC341939  40.038  23.755   5.555
 8759POPC   PO441940  40.035  23.755   5.855
 8759POPC   GL141941  40.009  23.726   6.155
 8759POPC   GL241942  39.907  23.645   6.155
 8759POPC   C1A41943  39.996  23.755   6.455
 8759POPC   D2A41944  40.020  23.743   6.755
 8759POPC   C3A41945  40.018  23.753   7.055
 8759POPC   C4A41946  39.994  23.754   7.355
 8759POPC   C1B41947  39.846  23.533   6.455
 8759POPC   C2B41948  39.825  23.593   6.755
 8759POPC   C3B41949  39.863  23.511   7.055
 8759POPC   C4B41950  39.784  23.597   7.355
 8760POPC   NC341951  39.978   3.579   5.555
 8760POPC   PO441952  39.996   3.546   5.855
 8760POPC   GL141953  40.011   3.578   6.155
 8760POPC   GL241954  40.162   3.612   6.155
 8760POPC   C1A41955  40.054   3.555   6.455
 8760POPC   D2A41956  40.004   3.503   6.755
 8760POPC   C3A41957  40.045   3.512   7.055
 8760POPC   C4A41958  39.998   3.570   7.355
 8760POPC   C1B41959  40.259   3.681   6.455
 8760POPC   C2B41960  40.219   3.599   6.755
 8760POPC   C3B41961  40.276   3.624   7.055
 8760POPC   C4B41962  40.242   3.594   7.355
 8761POPC   NC341963  30.730  30.722   5.555
 8761POPC   PO441964  30.741  30.746   5.855
 8761POPC   GL141965  30.657  30.659   6.155
 8761POPC   GL241966  30.559  30.642   6.155
 8761POPC   C1A41967  30.708  30.689   6.455
 8761POPC   D2A41968  30.680  30.687   6.755
 8761POPC   C3A41969  30.657  30.745   7.055
 8761POPC   C4A41970  30.664  30.718   7.355
 8761POPC   C1B41971  30.459  30.534   6.455
 8761POPC   C2B41972  30.498  30.578   6.755
 8761POPC   C3B41973  30.463  30.532   7.055
 8761POPC   C4B41974  30.538  30.507   7.355
 8762POPC   NC341975   0.430  29.896   5.555
 8762POPC   PO441976   0.424  29.916   5.855
 8762POPC   GL141977   0.467  29.969   6.155
 8762POPC   GL241978   0.341  29.870   6.155
 8762POPC   C1A41979   0.429  29.950   6.455
 8762POPC   D2A41980   0.408  29.922   6.755
 8762POPC   C3A41981   0.461  29.907   7.055
 8762POPC   C4A41982   0.438  29.945   7.355
 8762POPC   C1B41983   0.157  29.883   6.455
 8762POPC   C2B41984   0.223  29.901   6.755
 8762POPC   C3B41985   0.151  29.888   7.055
 8762POPC   C4B41986   0.190  29.882   7.355
 8763POPC   NC341987  13.623  35.318   5.555
 8763POPC   PO441988  13.637  35.310   5.855
 8763POPC   GL141989  13.616  35.392   6.155
 8763POPC   GL241990  13.543  35.252   6.155
 8763POPC   C1A41991  13.665  35.361   6.455
 8763POPC   D2A41992  13.628  35.324   6.755
 8763POPC   C3A41993  13.675  35.304   7.055
 8763POPC   C4A41994  13.639  35.396   7.355
 8763POPC   C1B41995  13.390  35.182   6.455
 8763POPC   C2B41996  13.388  35.185   6.755
 8763POPC   C3B41997  13.442  35.257   7.055
 8763POPC   C4B41998  13.397  35.199   7.355
 8764POPC   NC341999  19.811  27.622   5.555
 8764POPC   PO442000  19.825  27.585   5.855
 8764POPC   GL142001  19.845  27.570   6.155
 8764POPC   GL242002  19.728  27.655   6.155
 8764POPC   C1A42003  19.848  27.639   6.455
 8764POPC   D2A42004  19.873  27.575   6.755
 8764POPC   C3A42005  19.830  27.599   7.055
 8764POPC   C4A42006  19.823  27.604   7.355
 8764POPC   C1B42007  19.728  27.831   6.455
 8764POPC   C2B42008  19.674  27.822   6.755
 8764POPC   C3B42009  19.737  27.861   7.055
 8764POPC   C4B42010  19.717  27.814   7.355
 8765POPC   NC342011  42.300  36.127   5.555
 8765POPC   PO442012  42.343  36.166   5.855
 8765POPC   GL142013  42.368  36.174   6.155
 8765POPC   GL242014  42.413  36.092   6.155
 8765POPC   C1A42015  42.325  36.160   6.455
 8765POPC   D2A42016  42.287  36.174   6.755
 8765POPC   C3A42017  42.316  36.127   7.055
 8765POPC   C4A42018  42.310  36.149   7.355
 8765POPC   C1B42019  42.537  36.066   6.455
 8765POPC   C2B42020  42.614  36.040   6.755
 8765POPC   C3B42021  42.555  36.051   7.055
 8765POPC   C4B42022  42.543  36.126   7.355
 8766POPC   NC342023  36.890  32.215   5.555
 8766POPC   PO442024  36.934  32.239   5.855
 8766POPC   GL142025  36.889  32.274   6.155
 8766POPC   GL242026  36.908  32.389   6.155
 8766POPC   C1A42027  36.926  32.270   6.455
 8766POPC   D2A42028  36.883  32.266   6.755
 8766POPC   C3A42029  36.928  32.283   7.055
 8766POPC   C4A42030  36.921  32.228   7.355
 8766POPC   C1B42031  36.858  32.505   6.455
 8766POPC   C2B42032  36.838  32.452   6.755
 8766POPC   C3B42033  36.799  32.518   7.055
 8766POPC   C4B42034  36.880  32.473   7.355
 8767POPC   NC342035  27.573   5.847   5.555
 8767POPC   PO442036  27.570   5.835   5.855
 8767POPC   GL142037  27.628   5.855   6.155
 8767POPC   GL242038  27.459   5.797   6.155
 8767POPC   C1A42039  27.557   5.890   6.455
 8767POPC   D2A42040  27.593   5.845   6.755
 8767POPC   C3A42041  27.565   5.838   7.055
 8767POPC   C4A42042  27.604   5.846   7.355
 8767POPC   C1B42043  27.325   5.779   6.455
 8767POPC   C2B42044  27.356   5.767   6.755
 8767POPC   C3B42045  27.385   5.800   7.055
 8767POPC   C4B42046  27.326   5.743   7.355
 8768POPC   NC342047  11.300  11.323   5.555
 8768POPC   PO442048  11.343  11.300   5.855
 8768POPC   GL142049  11.336  11.342   6.155
 8768POPC   GL242050  11.161  11.275   6.155
 8768POPC   C1A42051  11.252  11.294   6.455
 8768POPC   D2A42052  11.330  11.264   6.755
 8768POPC   C3A42053  11.274  11.316   7.055
 8768POPC   C4A42054  11.286  11.250   7.355
 8768POPC   C1B42055  11.100  11.202   6.455
 8768POPC   C2B42056  11.125  11.192   6.755
 8768POPC   C3B42057  11.049  11.172   7.055
 8768POPC   C4B42058  11.092  11.197   7.355
 8769POPC   NC342059   5.916  19.808   5.555
 8769POPC   PO442060   5.878  19.816   5.855
 8769POPC   GL142061   5.886  19.832   6.155
 8769POPC   GL242062   5.953  19.949   6.155
 8769POPC   C1A42063   5.867  19.862   6.455
 8769POPC   D2A42064   5.916  19.786   6.755
 8769POPC   C3A42065   5.890  19.822   7.055
 8769POPC   C4A42066   5.886  19.840   7.355
 8769POPC   C1B42067   5.945  20.023   6.455
 8769POPC   C2B42068   6.029  20.099   6.755
 8769POPC   C3B42069   6.030  20.047   7.055
 8769POPC   C4B42070   6.029  20.055   7.355
 8770POPC   NC342071  39.264   9.708   5.555
 8770POPC   PO442072  39.250   9.764   5.855
 8770POPC   GL142073  39.251   9.763   6.155
 8770POPC   GL242074  39.168   9.780   6.155
 8770POPC   C1A42075  39.277   9.767   6.455
 8770POPC   D2A42076  39.262   9.720   6.755
 8770POPC   C3A42077  39.255   9.770   7.055
 8770POPC   C4A42078  39.197   9.729   7.355
 8770POPC   C1B42079  39.034   9.818   6.455
 8770POPC   C2B42080  39.045   9.818   6.755
 8770POPC   C3B42081  38.979   9.848   7.055
 8770POPC   C4B42082  38.967   9.823   7.355
 8771POPC   NC342083   6.639  33.054   5.555
 8771POPC   PO442084   6.663  32.980   5.855
 8771POPC   GL142085   6.692  33.068   6.155
 8771POPC   GL242086   6.559  33.063   6.155
 8771POPC   C1A42087   6.619  33.056   6.455
 8771POPC   D2A42088   6.619  33.073   6.755
 8771POPC   C3A42089   6.623  33.046   7.055
 8771POPC   C4A42090   6.608  33.034   7.355
 8771POPC   C1B42091   6.418  33.164   6.455
 8771POPC   C2B42092   6.393  33.145   6.755
 8771POPC   C3B42093   6.443  33.168   7.055
 8771POPC   C4B42094   6.463  33.139   7.355
 8772POPC   NC342095   7.371  44.690   5.555
 8772POPC   PO442096   7.443  44.692   5.855
 8772POPC   GL142097   7.404  44.664   6.155
 8772POPC   GL242098   7.510  44.610   6.155
 8772POPC   C1A42099   7.450  44.643   6.455
 8772POPC   D2A42100   7.387  44.655   6.755
 8772POPC   C3A42101   7.444  44.675   7.055
 8772POPC   C4A42102   7.396  44.633   7.355
 8772POPC   C1B42103   7.616  44.616   6.455
 8772POPC   C2B42104   7.647  44.609   6.755
 8772POPC   C3B42105   7.626  44.617   7.055
 8772POPC   C4B42106   7.667  44.563   7.355
 8773POPC   NC342107  20.600   0.397   5.555
 8773POPC   PO442108  20.592   0.425   5.855
 8773POPC   GL142109  20.645   0.417   6.155
 8773POPC   GL242110  20.552   0.374   6.155
 8773POPC   C1A42111  20.618   0.472   6.455
 8773POPC   D2A42112  20.599   0.473   6.755
 8773POPC   C3A42113  20.622   0.457   7.055
 8773POPC   C4A42114  20.633   0.451   7.355
 8773POPC   C1B42115  20.529   0.219   6.455
 8773POPC   C2B42116  20.505   0.270   6.755
 8773POPC   C3B42117  20.431   0.239   7.055
 8773POPC   C4B42118  20.519   0.224   7.355
 8774POPC   NC342119  31.517  17.482   5.555
 8774POPC   PO442120  31.479  17.518   5.855
 8774POPC   GL142121  31.471  17.505   6.155
 8774POPC   GL242122  31.351  17.457   6.155
 8774POPC   C1A42123  31.480  17.491   6.455
 8774POPC   D2A42124  31.437  17.471   6.755
 8774POPC   C3A42125  31.503  17.474   7.055
 8774POPC   C4A42126  31.480  17.499   7.355
 8774POPC   C1B42127  31.278  17.377   6.455
 8774POPC   C2B42128  31.262  17.358   6.755
 8774POPC   C3B42129  31.260  17.359   7.055
 8774POPC   C4B42130  31.243  17.347   7.355
 8775POPC   NC342131  29.881   3.590   5.555
 8775POPC   PO442132  29.910   3.529   5.855
 8775POPC   GL142133  29.951   3.550   6.155
 8775POPC   GL242134  29.930   3.634   6.155
 8775POPC   C1A42135  29.937   3.529   6.455
 8775POPC   D2A42136  29.948   3.504   6.755
 8775POPC   C3A42137  29.957   3.518   7.055
 8775POPC   C4A42138  29.881   3.577   7.355
 8775POPC   C1B42139  29.891   3.828   6.455
 8775POPC   C2B42140  29.836   3.770   6.755
 8775POPC   C3B42141  29.845   3.740   7.055
 8775POPC   C4B42142  29.863   3.831   7.355
 8776POPC   NC342143  40.821   4.328   5.555
 8776POPC   PO442144  40.763   4.360   5.855
 8776POPC   GL142145  40.773   4.348   6.155
 8776POPC   GL242146  40.826   4.421   6.155
 8776POPC   C1A42147  40.741   4.308   6.455
 8776POPC   D2A42148  40.761   4.305   6.755
 8776POPC   C3A42149  40.796   4.351   7.055
 8776POPC   C4A42150  40.797   4.314   7.355
 8776POPC   C1B42151  40.850   4.596   6.455
 8776POPC   C2B42152  40.828   4.597   6.755
 8776POPC   C3B42153  40.786   4.608   7.055
 8776POPC   C4B42154  40.859   4.538   7.355
 8777POPC   NC342155  24.472   1.204   5.555
 8777POPC   PO442156  24.478   1.259   5.855
 8777POPC   GL142157  24.471   1.261   6.155
 8777POPC   GL242158  24.647   1.263   6.155
 8777POPC   C1A42159  24.441   1.259   6.455
 8777POPC   D2A42160  24.504   1.253   6.755
 8777POPC   C3A42161  24.521   1.224   7.055
 8777POPC   C4A42162  24.442   1.198   7.355
 8777POPC   C1B42163  24.773   1.278   6.455
 8777POPC   C2B42164  24.745   1.291   6.755
 8777POPC   C3B42165  24.704   1.295   7.055
 8777POPC   C4B42166  24.779   1.260   7.355
 8778POPC   NC342167  22.965   8.188   5.555
 8778POPC   PO442168  22.917   8.224   5.855
 8778POPC   GL142169  22.961   8.214   6.155
 8778POPC   GL242170  22.813   8.224   6.155
 8778POPC   C1A42171  22.930   8.166   6.455
 8778POPC   D2A42172  22.972   8.198   6.755
 8778POPC   C3A42173  22.963   8.166   7.055
 8778POPC   C4A42174  22.979   8.229   7.355
 8778POPC   C1B42175  22.674   8.211   6.455
 8778POPC   C2B42176  22.649   8.156   6.755
 8778POPC   C3B42177  22.688   8.211   7.055
 8778POPC   C4B42178  22.706   8.160   7.355
 8779POPC   NC342179   4.293  38.465   5.555
 8779POPC   PO442180   4.302  38.452   5.855
 8779POPC   GL142181   4.282  38.460   6.155
 8779POPC   GL242182   4.457  38.400   6.155
 8779POPC   C1A42183   4.289  38.406   6.455
 8779POPC   D2A42184   4.314  38.450   6.755
 8779POPC   C3A42185   4.311  38.453   7.055
 8779POPC   C4A42186   4.333  38.440   7.355
 8779POPC   C1B42187   4.590  38.350   6.455
 8779POPC   C2B42188   4.559  38.341   6.755
 8779POPC   C3B42189   4.504  38.332   7.055
 8779POPC   C4B42190   4.592  38.397   7.355
 8780POPC   NC342191  41.565   1.988   5.555
 8780POPC   PO442192  41.570   2.005   5.855
 8780POPC   GL142193  41.607   1.981   6.155
 8780POPC   GL242194  41.599   2.118   6.155
 8780POPC   C1A42195  41.536   2.012   6.455
 8780POPC   D2A42196  41.566   1.997   6.755
 8780POPC   C3A42197  41.522   2.038   7.055
 8780POPC   C4A42198  41.574   2.024   7.355
 8780POPC   C1B42199  41.587   2.239   6.455
 8780POPC   C2B42200  41.551   2.197   6.755
 8780POPC   C3B42201  41.548   2.265   7.055
 8780POPC   C4B42202  41.542   2.214   7.355
 8781POPC   NC342203  29.969   2.812   5.555
 8781POPC   PO442204  29.871   2.721   5.855
 8781POPC   GL142205  29.949   2.774   6.155
 8781POPC   GL242206  29.971   2.680   6.155
 8781POPC   C1A42207  29.920   2.790   6.455
 8781POPC   D2A42208  29.871   2.814   6.755
 8781POPC   C3A42209  29.943   2.790   7.055
 8781POPC   C4A42210  29.941   2.738   7.355
 8781POPC   C1B42211  30.032   2.558   6.455
 8781POPC   C2B42212  30.120   2.521   6.755
 8781POPC   C3B42213  30.041   2.605   7.055
 8781POPC   C4B42214  30.114   2.574   7.355
 8782POPC   NC342215  41.530  12.053   5.555
 8782POPC   PO442216  41.553  12.027   5.855
 8782POPC   GL142217  41.550  12.061   6.155
 8782POPC   GL242218  41.587  12.208   6.155
 8782POPC   C1A42219  41.600  12.032   6.455
 8782POPC   D2A42220  41.588  12.112   6.755
 8782POPC   C3A42221  41.525  12.051   7.055
 8782POPC   C4A42222  41.564  12.080   7.355
 8782POPC   C1B42223  41.692  12.265   6.455
 8782POPC   C2B42224  41.721  12.309   6.755
 8782POPC   C3B42225  41.679  12.330   7.055
 8782POPC   C4B42226  41.657  12.262   7.355
 8783POPC   NC342227   5.821  15.212   5.555
 8783POPC   PO442228   5.904  15.148   5.855
 8783POPC   GL142229   5.896  15.186   6.155
 8783POPC   GL242230   5.987  15.142   6.155
 8783POPC   C1A42231   5.825  15.133   6.455
 8783POPC   D2A42232   5.874  15.214   6.755
 8783POPC   C3A42233   5.902  15.216   7.055
 8783POPC   C4A42234   5.886  15.178   7.355
 8783POPC   C1B42235   6.074  14.997   6.455
 8783POPC   C2B42236   6.037  15.036   6.755
 8783POPC   C3B42237   6.093  15.054   7.055
 8783POPC   C4B42238   6.058  14.975   7.355
 8784POPC   NC342239  21.376   6.626   5.555
 8784POPC   PO442240  21.429   6.596   5.855
 8784POPC   GL142241  21.343   6.596   6.155
 8784POPC   GL242242  21.432   6.765   6.155
 8784POPC   C1A42243  21.373   6.617   6.455
 8784POPC   D2A42244  21.376   6.647   6.755
 8784POPC   C3A42245  21.409   6.650   7.055
 8784POPC   C4A42246  21.426   6.655   7.355
 8784POPC   C1B42247  21.524   6.800   6.455
 8784POPC   C2B42248  21.583   6.875   6.755
 8784POPC   C3B42249  21.537   6.826   7.055
 8784POPC   C4B42250  21.533   6.881   7.355
 8785POPC   NC342251  19.082  33.033   5.555
 8785POPC   PO442252  19.015  33.070   5.855
 8785POPC   GL142253  19.051  32.991   6.155
 8785POPC   GL242254  18.935  33.047   6.155
 8785POPC   C1A42255  19.024  33.066   6.455
 8785POPC   D2A42256  19.086  33.052   6.755
 8785POPC   C3A42257  19.032  33.065   7.055
 8785POPC   C4A42258  19.067  33.074   7.355
 8785POPC   C1B42259  18.818  33.044   6.455
 8785POPC   C2B42260  18.770  32.993   6.755
 8785POPC   C3B42261  18.779  32.981   7.055
 8785POPC   C4B42262  18.780  33.023   7.355
 8786POPC   NC342263  12.034  15.160   5.555
 8786POPC   PO442264  12.103  15.152   5.855
 8786POPC   GL142265  12.089  15.219   6.155
 8786POPC   GL242266  12.055  15.068   6.155
 8786POPC   C1A42267  12.076  15.198   6.455
 8786POPC   D2A42268  12.066  15.169   6.755
 8786POPC   C3A42269  12.060  15.159   7.055
 8786POPC   C4A42270  12.063  15.219   7.355
 8786POPC   C1B42271  12.057  14.951   6.455
 8786POPC   C2B42272  12.065  14.963   6.755
 8786POPC   C3B42273  12.092  14.937   7.055
 8786POPC   C4B42274  12.088  14.937   7.355
 8787POPC   NC342275  31.494   9.745   5.555
 8787POPC   PO442276  31.451   9.784   5.855
 8787POPC   GL142277  31.503   9.785   6.155
 8787POPC   GL242278  31.330   9.804   6.155
 8787POPC   C1A42279  31.455   9.741   6.455
 8787POPC   D2A42280  31.431   9.782   6.755
 8787POPC   C3A42281  31.511   9.795   7.055
 8787POPC   C4A42282  31.522   9.731   7.355
 8787POPC   C1B42283  31.197   9.883   6.455
 8787POPC   C2B42284  31.253   9.889   6.755
 8787POPC   C3B42285  31.243   9.890   7.055
 8787POPC   C4B42286  31.205   9.836   7.355
 8788POPC   NC342287  22.138  26.782   5.555
 8788POPC   PO442288  22.137  26.807   5.855
 8788POPC   GL142289  22.209  26.837   6.155
 8788POPC   GL242290  22.138  26.891   6.155
 8788POPC   C1A42291  22.159  26.854   6.455
 8788POPC   D2A42292  22.152  26.788   6.755
 8788POPC   C3A42293  22.138  26.815   7.055
 8788POPC   C4A42294  22.117  26.793   7.355
 8788POPC   C1B42295  22.082  27.065   6.455
 8788POPC   C2B42296  22.104  26.998   6.755
 8788POPC   C3B42297  22.051  27.078   7.055
 8788POPC   C4B42298  22.081  27.075   7.355
 8789POPC   NC342299  24.471  41.519   5.555
 8789POPC   PO442300  24.446  41.543   5.855
 8789POPC   GL142301  24.505  41.533   6.155
 8789POPC   GL242302  24.582  41.670   6.155
 8789POPC   C1A42303  24.476  41.570   6.455
 8789POPC   D2A42304  24.447  41.560   6.755
 8789POPC   C3A42305  24.519  41.533   7.055
 8789POPC   C4A42306  24.498  41.513   7.355
 8789POPC   C1B42307  24.602  41.766   6.455
 8789POPC   C2B42308  24.571  41.780   6.755
 8789POPC   C3B42309  24.584  41.774   7.055
 8789POPC   C4B42310  24.579  41.820   7.355
 8790POPC   NC342311  19.806  14.452   5.555
 8790POPC   PO442312  19.842  14.404   5.855
 8790POPC   GL142313  19.796  14.413   6.155
 8790POPC   GL242314  19.814  14.567   6.155
 8790POPC   C1A42315  19.794  14.426   6.455
 8790POPC   D2A42316  19.844  14.424   6.755
 8790POPC   C3A42317  19.826  14.405   7.055
 8790POPC   C4A42318  19.801  14.408   7.355
 8790POPC   C1B42319  19.775  14.651   6.455
 8790POPC   C2B42320  19.825  14.604   6.755
 8790POPC   C3B42321  19.837  14.602   7.055
 8790POPC   C4B42322  19.822  14.618   7.355
 8791POPC   NC342323  14.432   8.988   5.555
 8791POPC   PO442324  14.427   8.952   5.855
 8791POPC   GL142325  14.431   8.995   6.155
 8791POPC   GL242326  14.360   8.893   6.155
 8791POPC   C1A42327  14.372   8.955   6.455
 8791POPC   D2A42328  14.449   8.999   6.755
 8791POPC   C3A42329  14.417   9.004   7.055
 8791POPC   C4A42330  14.365   8.985   7.355
 8791POPC   C1B42331  14.414   8.692   6.455
 8791POPC   C2B42332  14.328   8.701   6.755
 8791POPC   C3B42333  14.331   8.770   7.055
 8791POPC   C4B42334  14.335   8.721   7.355
 8792POPC   NC342335  35.316   9.000   5.555
 8792POPC   PO442336  35.370   9.002   5.855
 8792POPC   GL142337  35.377   8.979   6.155
 8792POPC   GL242338  35.285   8.817   6.155
 8792POPC   C1A42339  35.360   8.926   6.455
 8792POPC   D2A42340  35.386   8.940   6.755
 8792POPC   C3A42341  35.330   8.940   7.055
 8792POPC   C4A42342  35.353   8.986   7.355
 8792POPC   C1B42343  35.273   8.771   6.455
 8792POPC   C2B42344  35.258   8.716   6.755
 8792POPC   C3B42345  35.261   8.703   7.055
 8792POPC   C4B42346  35.277   8.759   7.355
 8793POPC   NC342347  32.237   2.761   5.555
 8793POPC   PO442348  32.243   2.742   5.855
 8793POPC   GL142349  32.255   2.791   6.155
 8793POPC   GL242350  32.253   2.650   6.155
 8793POPC   C1A42351  32.215   2.802   6.455
 8793POPC   D2A42352  32.240   2.726   6.755
 8793POPC   C3A42353  32.262   2.725   7.055
 8793POPC   C4A42354  32.257   2.778   7.355
 8793POPC   C1B42355  32.214   2.499   6.455
 8793POPC   C2B42356  32.232   2.531   6.755
 8793POPC   C3B42357  32.216   2.481   7.055
 8793POPC   C4B42358  32.225   2.471   7.355
 8794POPC   NC342359  14.374  29.916   5.555
 8794POPC   PO442360  14.397  29.967   5.855
 8794POPC   GL142361  14.387  29.915   6.155
 8794POPC   GL242362  14.469  29.833   6.155
 8794POPC   C1A42363  14.407  29.927   6.455
 8794POPC   D2A42364  14.361  29.930   6.755
 8794POPC   C3A42365  14.442  29.971   7.055
 8794POPC   C4A42366  14.440  29.878   7.355
 8794POPC   C1B42367  14.518  29.751   6.455
 8794POPC   C2B42368  14.551  29.680   6.755
 8794POPC   C3B42369  14.512  29.734   7.055
 8794POPC   C4B42370  14.539  29.661   7.355
 8795POPC   NC342371  19.070  25.218   5.555
 8795POPC   PO442372  19.078  25.308   5.855
 8795POPC   GL142373  19.053  25.226   6.155
 8795POPC   GL242374  19.193  25.200   6.155
 8795POPC   C1A42375  19.045  25.232   6.455
 8795POPC   D2A42376  19.046  25.225   6.755
 8795POPC   C3A42377  19.014  25.249   7.055
 8795POPC   C4A42378  19.022  25.228   7.355
 8795POPC   C1B42379  19.278  25.072   6.455
 8795POPC   C2B42380  19.260  25.141   6.755
 8795POPC   C3B42381  19.212  25.150   7.055
 8795POPC   C4B42382  19.279  25.063   7.355
 8796POPC   NC342383  44.683  32.278   5.555
 8796POPC   PO442384  44.652  32.217   5.855
 8796POPC   GL142385  44.689  32.294   6.155
 8796POPC   GL242386  44.814  32.298   6.155
 8796POPC   C1A42387  44.657  32.256   6.455
 8796POPC   D2A42388  44.634  32.257   6.755
 8796POPC   C3A42389  44.684  32.248   7.055
 8796POPC   C4A42390  44.708  32.258   7.355
 8796POPC   C1B42391  44.875  32.336   6.455
 8796POPC   C2B42392  44.938  32.358   6.755
 8796POPC   C3B42393  44.859  32.346   7.055
 8796POPC   C4B42394  44.865  32.313   7.355
 8797POPC   NC342395  41.584  18.279   5.555
 8797POPC   PO442396  41.562  18.315   5.855
 8797POPC   GL142397  41.514  18.309   6.155
 8797POPC   GL242398  41.460  18.194   6.155
 8797POPC   C1A42399  41.579  18.254   6.455
 8797POPC   D2A42400  41.524  18.312   6.755
 8797POPC   C3A42401  41.509  18.314   7.055
 8797POPC   C4A42402  41.583  18.252   7.355
 8797POPC   C1B42403  41.296  18.203   6.455
 8797POPC   C2B42404  41.296  18.162   6.755
 8797POPC   C3B42405  41.332  18.221   7.055
 8797POPC   C4B42406  41.378  18.194   7.355
 8798POPC   NC342407   9.744  22.970   5.555
 8798POPC   PO442408   9.707  22.905   5.855
 8798POPC   GL142409   9.770  22.936   6.155
 8798POPC   GL242410   9.772  22.789   6.155
 8798POPC   C1A42411   9.754  22.961   6.455
 8798POPC   D2A42412   9.795  22.985   6.755
 8798POPC   C3A42413   9.748  22.985   7.055
 8798POPC   C4A42414   9.709  22.967   7.355
 8798POPC   C1B42415   9.809  22.720   6.455
 8798POPC   C2B42416   9.849  22.709   6.755
 8798POPC   C3B42417   9.840  22.727   7.055
 8798POPC   C4B42418   9.816  22.659   7.355
 8799POPC   NC342419  42.353  10.554   5.555
 8799POPC   PO442420  42.344  10.476   5.855
 8799POPC   GL142421  42.301  10.561   6.155
 8799POPC   GL242422  42.469  10.578   6.155
 8799POPC   C1A42423  42.360  10.527   6.455
 8799POPC   D2A42424  42.333  10.547   6.755
 8799POPC   C3A42425  42.291  10.555   7.055
 8799POPC   C4A42426  42.307  10.486   7.355
 8799POPC   C1B42427  42.589  10.624   6.455
 8799POPC   C2B42428  42.609  10.646   6.755
 8799POPC   C3B42429  42.609  10.594   7.055
 8799POPC   C4B42430  42.541  10.631   7.355
 8800POPC   NC342431  39.248  13.644   5.555
 8800POPC   PO442432  39.203  13.600   5.855
 8800POPC   GL142433  39.196  13.595   6.155
 8800POPC   GL242434  39.180  13.759   6.155
 8800POPC   C1A42435  39.218  13.590   6.455
 8800POPC   D2A42436  39.230  13.676   6.755
 8800POPC   C3A42437  39.218  13.664   7.055
 8800POPC   C4A42438  39.196  13.677   7.355
 8800POPC   C1B42439  39.207  13.825   6.455
 8800POPC   C2B42440  39.216  13.895   6.755
 8800POPC   C3B42441  39.159  13.858   7.055
 8800POPC   C4B42442  39.141  13.916   7.355
 8801POPC   NC342443  22.127  40.815   5.555
 8801POPC   PO442444  22.186  40.830   5.855
 8801POPC   GL142445  22.122  40.779   6.155
 8801POPC   GL242446  22.263  40.689   6.155
 8801POPC   C1A42447  22.167  40.771   6.455
 8801POPC   D2A42448  22.152  40.830   6.755
 8801POPC   C3A42449  22.208  40.776   7.055
 8801POPC   C4A42450  22.190  40.766   7.355
 8801POPC   C1B42451  22.238  40.564   6.455
 8801POPC   C2B42452  22.241  40.576   6.755
 8801POPC   C3B42453  22.247  40.602   7.055
 8801POPC   C4B42454  22.262  40.527   7.355
 8802POPC   NC342455  40.782  22.124   5.555
 8802POPC   PO442456  40.818  22.113   5.855
 8802POPC   GL142457  40.815  22.172   6.155
 8802POPC   GL242458  40.869  22.127   6.155
 8802POPC   C1A42459  40.771  22.154   6.455
 8802POPC   D2A42460  40.794  22.191   6.755
 8802POPC   C3A42461  40.795  22.130   7.055
 8802POPC   C4A42462  40.768  22.156   7.355
 8802POPC   C1B42463  40.994  22.103   6.455
 8802POPC   C2B42464  41.029  22.131   6.755
 8802POPC   C3B42465  40.982  22.143   7.055
 8802POPC   C4B42466  41.037  22.057   7.355
 8803POPC   NC342467  29.152  35.315   5.555
 8803POPC   PO442468  29.129  35.386   5.855
 8803POPC   GL142469  29.140  35.386   6.155
 8803POPC   GL242470  29.274  35.250   6.155
 8803POPC   C1A42471  29.175  35.356   6.455
 8803POPC   D2A42472  29.159  35.374   6.755
 8803POPC   C3A42473  29.151  35.308   7.055
 8803POPC   C4A42474  29.159  35.373   7.355
 8803POPC   C1B42475  29.301  35.242   6.455
 8803POPC   C2B42476  29.375  35.186   6.755
 8803POPC   C3B42477  29.291  35.216   7.055
 8803POPC   C4B42478  29.384  35.221   7.355
 8804POPC   NC342479  42.356   8.987   5.555
 8804POPC   PO442480  42.337   9.011   5.855
 8804POPC   GL142481  42.323   8.937   6.155
 8804POPC   GL242482  42.418   8.963   6.155
 8804POPC   C1A42483  42.307   8.939   6.455
 8804POPC   D2A42484  42.288   8.972   6.755
 8804POPC   C3A42485  42.318   8.986   7.055
 8804POPC   C4A42486  42.316   9.012   7.355
 8804POPC   C1B42487  42.592   8.854   6.455
 8804POPC   C2B42488  42.601   8.891   6.755
 8804POPC   C3B42489  42.611   8.917   7.055
 8804POPC   C4B42490  42.589   8.877   7.355
 8805POPC   NC342491  33.800  20.614   5.555
 8805POPC   PO442492  33.810  20.651   5.855
 8805POPC   GL142493  33.795  20.589   6.155
 8805POPC   GL242494  33.791  20.521   6.155
 8805POPC   C1A42495  33.849  20.654   6.455
 8805POPC   D2A42496  33.788  20.611   6.755
 8805POPC   C3A42497  33.760  20.614   7.055
 8805POPC   C4A42498  33.762  20.604   7.355
 8805POPC   C1B42499  33.713  20.384   6.455
 8805POPC   C2B42500  33.793  20.324   6.755
 8805POPC   C3B42501  33.738  20.357   7.055
 8805POPC   C4B42502  33.757  20.351   7.355
 8806POPC   NC342503  22.171   1.196   5.555
 8806POPC   PO442504  22.173   1.249   5.855
 8806POPC   GL142505  22.175   1.236   6.155
 8806POPC   GL242506  22.120   1.347   6.155
 8806POPC   C1A42507  22.185   1.220   6.455
 8806POPC   D2A42508  22.204   1.176   6.755
 8806POPC   C3A42509  22.141   1.198   7.055
 8806POPC   C4A42510  22.178   1.262   7.355
 8806POPC   C1B42511  21.968   1.388   6.455
 8806POPC   C2B42512  21.989   1.410   6.755
 8806POPC   C3B42513  21.954   1.370   7.055
 8806POPC   C4B42514  22.022   1.410   7.355
 8807POPC   NC342515  41.511   9.005   5.555
 8807POPC   PO442516  41.510   8.926   5.855
 8807POPC   GL142517  41.561   9.007   6.155
 8807POPC   GL242518  41.637   8.829   6.155
 8807POPC   C1A42519  41.592   8.933   6.455
 8807POPC   D2A42520  41.602   8.943   6.755
 8807POPC   C3A42521  41.526   8.945   7.055
 8807POPC   C4A42522  41.554   8.933   7.355
 8807POPC   C1B42523  41.653   8.720   6.455
 8807POPC   C2B42524  41.690   8.768   6.755
 8807POPC   C3B42525  41.643   8.773   7.055
 8807POPC   C4B42526  41.639   8.736   7.355
 8808POPC   NC342527  37.712  20.641   5.555
 8808POPC   PO442528  37.714  20.626   5.855
 8808POPC   GL142529  37.667  20.612   6.155
 8808POPC   GL242530  37.761  20.622   6.155
 8808POPC   C1A42531  37.670  20.642   6.455
 8808POPC   D2A42532  37.729  20.655   6.755
 8808POPC   C3A42533  37.701  20.633   7.055
 8808POPC   C4A42534  37.634  20.627   7.355
 8808POPC   C1B42535  37.886  20.607   6.455
 8808POPC   C2B42536  37.914  20.620   6.755
 8808POPC   C3B42537  37.911  20.589   7.055
 8808POPC   C4B42538  37.890  20.641   7.355
 8809POPC   NC342539   6.693  33.775   5.555
 8809POPC   PO442540   6.603  33.838   5.855
 8809POPC   GL142541   6.647  33.760   6.155
 8809POPC   GL242542   6.580  33.679   6.155
 8809POPC   C1A42543   6.605  33.783   6.455
 8809POPC   D2A42544   6.655  33.834   6.755
 8809POPC   C3A42545   6.669  33.766   7.055
 8809POPC   C4A42546   6.690  33.801   7.355
 8809POPC   C1B42547   6.622  33.509   6.455
 8809POPC   C2B42548   6.581  33.522   6.755
 8809POPC   C3B42549   6.610  33.576   7.055
 8809POPC   C4B42550   6.611  33.573   7.355
 8810POPC   NC342551  39.268   7.387   5.555
 8810POPC   PO442552  39.256   7.405   5.855
 8810POPC   GL142553  39.280   7.387   6.155
 8810POPC   GL242554  39.339   7.496   6.155
 8810POPC   C1A42555  39.244   7.435   6.455
 8810POPC   D2A42556  39.239   7.467   6.755
 8810POPC   C3A42557  39.183   7.462   7.055
 8810POPC   C4A42558  39.261   7.460   7.355
 8810POPC   C1B42559  39.392   7.582   6.455
 8810POPC   C2B42560  39.401   7.625   6.755
 8810POPC   C3B42561  39.359   7.555   7.055
 8810POPC   C4B42562  39.384   7.606   7.355
 8811POPC   NC342563   9.731  18.238   5.555
 8811POPC   PO442564   9.778  18.311   5.855
 8811POPC   GL142565   9.732  18.306   6.155
 8811POPC   GL242566   9.619  18.273   6.155
 8811POPC   C1A42567   9.765  18.323   6.455
 8811POPC   D2A42568   9.708  18.314   6.755
 8811POPC   C3A42569   9.757  18.244   7.055
 8811POPC   C4A42570   9.713  18.329   7.355
 8811POPC   C1B42571   9.513  18.343   6.455
 8811POPC   C2B42572   9.538  18.319   6.755
 8811POPC   C3B42573   9.543  18.355   7.055
 8811POPC   C4B42574   9.544  18.280   7.355
 8812POPC   NC342575  10.538  16.735   5.555
 8812POPC   PO442576  10.479  16.696   5.855
 8812POPC   GL142577  10.569  16.776   6.155
 8812POPC   GL242578  10.609  16.886   6.155
 8812POPC   C1A42579  10.499  16.750   6.455
 8812POPC   D2A42580  10.505  16.771   6.755
 8812POPC   C3A42581  10.478  16.701   7.055
 8812POPC   C4A42582  10.562  16.747   7.355
 8812POPC   C1B42583  10.615  16.928   6.455
 8812POPC   C2B42584  10.653  16.905   6.755
 8812POPC   C3B42585  10.685  16.979   7.055
 8812POPC   C4B42586  10.677  16.918   7.355
 8813POPC   NC342587  33.074   6.679   5.555
 8813POPC   PO442588  33.058   6.675   5.855
 8813POPC   GL142589  33.022   6.641   6.155
 8813POPC   GL242590  33.053   6.782   6.155
 8813POPC   C1A42591  33.071   6.677   6.455
 8813POPC   D2A42592  33.062   6.663   6.755
 8813POPC   C3A42593  32.976   6.611   7.055
 8813POPC   C4A42594  33.057   6.601   7.355
 8813POPC   C1B42595  33.186   6.887   6.455
 8813POPC   C2B42596  33.105   6.845   6.755
 8813POPC   C3B42597  33.185   6.911   7.055
 8813POPC   C4B42598  33.158   6.845   7.355
 8814POPC   NC342599  34.554   2.025   5.555
 8814POPC   PO442600  34.578   2.020   5.855
 8814POPC   GL142601  34.604   2.036   6.155
 8814POPC   GL242602  34.620   2.046   6.155
 8814POPC   C1A42603  34.610   1.995   6.455
 8814POPC   D2A42604  34.561   1.948   6.755
 8814POPC   C3A42605  34.547   1.941   7.055
 8814POPC   C4A42606  34.601   2.018   7.355
 8814POPC   C1B42607  34.695   2.165   6.455
 8814POPC   C2B42608  34.687   2.222   6.755
 8814POPC   C3B42609  34.680   2.146   7.055
 8814POPC   C4B42610  34.743   2.245   7.355
 8815POPC   NC342611   8.169  10.503   5.555
 8815POPC   PO442612   8.234  10.554   5.855
 8815POPC   GL142613   8.190  10.507   6.155
 8815POPC   GL242614   8.067  10.594   6.155
 8815POPC   C1A42615   8.148  10.535   6.455
 8815POPC   D2A42616   8.200  10.565   6.755
 8815POPC   C3A42617   8.169  10.503   7.055
 8815POPC   C4A42618   8.191  10.485   7.355
 8815POPC   C1B42619   7.994  10.647   6.455
 8815POPC   C2B42620   7.967  10.723   6.755
 8815POPC   C3B42621   8.024  10.724   7.055
 8815POPC   C4B42622   8.002  10.713   7.355
 8816POPC   NC342623  27.585  14.382   5.555
 8816POPC   PO442624  27.615  14.421   5.855
 8816POPC   GL142625  27.642  14.369   6.155
 8816POPC   GL242626  27.438  14.405   6.155
 8816POPC   C1A42627  27.587  14.372   6.455
 8816POPC   D2A42628  27.617  14.393   6.755
 8816POPC   C3A42629  27.594  14.437   7.055
 8816POPC   C4A42630  27.582  14.366   7.355
 8816POPC   C1B42631  27.320  14.457   6.455
 8816POPC   C2B42632  27.324  14.491   6.755
 8816POPC   C3B42633  27.354  14.451   7.055
 8816POPC   C4B42634  27.318  14.500   7.355
 8817POPC   NC342635  40.048  25.256   5.555
 8817POPC   PO442636  39.980  25.277   5.855
 8817POPC   GL142637  40.027  25.222   6.155
 8817POPC   GL242638  40.071  25.406   6.155
 8817POPC   C1A42639  39.997  25.221   6.455
 8817POPC   D2A42640  39.996  25.266   6.755
 8817POPC   C3A42641  39.990  25.269   7.055
 8817POPC   C4A42642  39.988  25.237   7.355
 8817POPC   C1B42643  40.066  25.498   6.455
 8817POPC   C2B42644  40.075  25.484   6.755
 8817POPC   C3B42645  40.035  25.493   7.055
 8817POPC   C4B42646  40.008  25.531   7.355
 8818POPC   NC342647  40.787  30.739   5.555
 8818POPC   PO442648  40.764  30.668   5.855
 8818POPC   GL142649  40.766  30.677   6.155
 8818POPC   GL242650  40.878  30.786   6.155
 8818POPC   C1A42651  40.755  30.685   6.455
 8818POPC   D2A42652  40.757  30.668   6.755
 8818POPC   C3A42653  40.742  30.688   7.055
 8818POPC   C4A42654  40.798  30.682   7.355
 8818POPC   C1B42655  40.952  30.839   6.455
 8818POPC   C2B42656  40.959  30.911   6.755
 8818POPC   C3B42657  40.975  30.904   7.055
 8818POPC   C4B42658  40.928  30.885   7.355
 8819POPC   NC342659  36.886   4.306   5.555
 8819POPC   PO442660  36.945   4.293   5.855
 8819POPC   GL142661  36.926   4.356   6.155
 8819POPC   GL242662  36.800   4.266   6.155
 8819POPC   C1A42663  36.951   4.268   6.455
 8819POPC   D2A42664  36.898   4.327   6.755
 8819POPC   C3A42665  36.927   4.331   7.055
 8819POPC   C4A42666  36.951   4.324   7.355
 8819POPC   C1B42667  36.638   4.362   6.455
 8819POPC   C2B42668  36.618   4.306   6.755
 8819POPC   C3B42669  36.654   4.263   7.055
 8819POPC   C4B42670  36.702   4.361   7.355
 8820POPC   NC342671  12.842   5.866   5.555
 8820POPC   PO442672  12.806   5.919   5.855
 8820POPC   GL142673  12.851   5.880   6.155
 8820POPC   GL242674  12.898   5.978   6.155
 8820POPC   C1A42675  12.899   5.895   6.455
 8820POPC   D2A42676  12.813   5.823   6.755
 8820POPC   C3A42677  12.852   5.870   7.055
 8820POPC   C4A42678  12.857   5.834   7.355
 8820POPC   C1B42679  12.834   6.134   6.455
 8820POPC   C2B42680  12.892   6.165   6.755
 8820POPC   C3B42681  12.863   6.155   7.055
 8820POPC   C4B42682  12.883   6.131   7.355
 8821POPC   NC342683   8.955   1.975   5.555
 8821POPC   PO442684   9.008   1.982   5.855
 8821POPC   GL142685   8.954   1.984   6.155
 8821POPC   GL242686   9.015   2.067   6.155
 8821POPC   C1A42687   9.012   1.951   6.455
 8821POPC   D2A42688   8.927   1.960   6.755
 8821POPC   C3A42689   9.009   1.969   7.055
 8821POPC   C4A42690   8.938   1.978   7.355
 8821POPC   C1B42691   8.948   2.252   6.455
 8821POPC   C2B42692   8.928   2.276   6.755
 8821POPC   C3B42693   8.958   2.245   7.055
 8821POPC   C4B42694   8.998   2.278   7.355
 8822POPC   NC342695  10.529  12.048   5.555
 8822POPC   PO442696  10.532  12.086   5.855
 8822POPC   GL142697  10.495  12.048   6.155
 8822POPC   GL242698  10.595  12.006   6.155
 8822POPC   C1A42699  10.560  12.061   6.455
 8822POPC   D2A42700  10.556  12.088   6.755
 8822POPC   C3A42701  10.489  12.052   7.055
 8822POPC   C4A42702  10.518  12.105   7.355
 8822POPC   C1B42703  10.733  11.977   6.455
 8822POPC   C2B42704  10.773  11.945   6.755
 8822POPC   C3B42705  10.780  11.958   7.055
 8822POPC   C4B42706  10.713  11.928   7.355
 8823POPC   NC342707  21.352  31.517   5.555
 8823POPC   PO442708  21.392  31.426   5.855
 8823POPC   GL142709  21.413  31.461   6.155
 8823POPC   GL242710  21.527  31.411   6.155
 8823POPC   C1A42711  21.372  31.480   6.455
 8823POPC   D2A42712  21.360  31.462   6.755
 8823POPC   C3A42713  21.353  31.493   7.055
 8823POPC   C4A42714  21.366  31.476   7.355
 8823POPC   C1B42715  21.567  31.400   6.455
 8823POPC   C2B42716  21.607  31.375   6.755
 8823POPC   C3B42717  21.632  31.389   7.055
 8823POPC   C4B42718  21.635  31.323   7.355
 8824POPC   NC342719  16.711  27.570   5.555
 8824POPC   PO442720  16.706  27.556   5.855
 8824POPC   GL142721  16.722  27.580   6.155
 8824POPC   GL242722  16.766  27.517   6.155
 8824POPC   C1A42723  16.756  27.638   6.455
 8824POPC   D2A42724  16.754  27.573   6.755
 8824POPC   C3A42725  16.738  27.602   7.055
 8824POPC   C4A42726  16.708  27.615   7.355
 8824POPC   C1B42727  16.739  27.341   6.455
 8824POPC   C2B42728  16.685  27.330   6.755
 8824POPC   C3B42729  16.724  27.364   7.055
 8824POPC   C4B42730  16.697  27.308   7.355
 8825POPC   NC342731  36.900  28.342   5.555
 8825POPC   PO442732  36.922  28.352   5.855
 8825POPC   GL142733  36.886  28.368   6.155
 8825POPC   GL242734  36.832  28.259   6.155
 8825POPC   C1A42735  36.948  28.351   6.455
 8825POPC   D2A42736  36.951  28.325   6.755
 8825POPC   C3A42737  36.924  28.361   7.055
 8825POPC   C4A42738  36.859  28.383   7.355
 8825POPC   C1B42739  36.718  28.213   6.455
 8825POPC   C2B42740  36.693  28.144   6.755
 8825POPC   C3B42741  36.737  28.190   7.055
 8825POPC   C4B42742  36.758  28.160   7.355
 8826POPC   NC342743   2.030  41.541   5.555
 8826POPC   PO442744   1.963  41.566   5.855
 8826POPC   GL142745   1.978  41.555   6.155
 8826POPC   GL242746   2.065  41.517   6.155
 8826POPC   C1A42747   1.947  41.590   6.455
 8826POPC   D2A42748   1.974  41.590   6.755
 8826POPC   C3A42749   1.962  41.510   7.055
 8826POPC   C4A42750   1.998  41.568   7.355
 8826POPC   C1B42751   2.280  41.472   6.455
 8826POPC   C2B42752   2.229  41.491   6.755
 8826POPC   C3B42753   2.273  41.461   7.055
 8826POPC   C4B42754   2.223  41.507   7.355
 8827POPC   NC342755  11.327  37.687   5.555
 8827POPC   PO442756  11.252  37.653   5.855
 8827POPC   GL142757  11.329  37.630   6.155
 8827POPC   GL242758  11.414  37.767   6.155
 8827POPC   C1A42759  11.306  37.647   6.455
 8827POPC   D2A42760  11.302  37.667   6.755
 8827POPC   C3A42761  11.349  37.696   7.055
 8827POPC   C4A42762  11.272  37.719   7.355
 8827POPC   C1B42763  11.461  37.850   6.455
 8827POPC   C2B42764  11.530  37.816   6.755
 8827POPC   C3B42765  11.521  37.785   7.055
 8827POPC   C4B42766  11.460  37.871   7.355
 8828POPC   NC342767  43.857  22.893   5.555
 8828POPC   PO442768  43.856  22.942   5.855
 8828POPC   GL142769  43.871  22.964   6.155
 8828POPC   GL242770  43.876  23.108   6.155
 8828POPC   C1A42771  43.898  22.958   6.455
 8828POPC   D2A42772  43.890  22.982   6.755
 8828POPC   C3A42773  43.868  22.920   7.055
 8828POPC   C4A42774  43.890  22.949   7.355
 8828POPC   C1B42775  43.941  23.154   6.455
 8828POPC   C2B42776  43.933  23.208   6.755
 8828POPC   C3B42777  43.973  23.209   7.055
 8828POPC   C4B42778  43.961  23.213   7.355
 8829POPC   NC342779   0.454  26.078   5.555
 8829POPC   PO442780   0.415  26.017   5.855
 8829POPC   GL142781   0.458  26.019   6.155
 8829POPC   GL242782   0.349  25.940   6.155
 8829POPC   C1A42783   0.418  26.024   6.455
 8829POPC   D2A42784   0.422  26.015   6.755
 8829POPC   C3A42785   0.421  26.038   7.055
 8829POPC   C4A42786   0.422  25.996   7.355
 8829POPC   C1B42787   0.301  25.759   6.455
 8829POPC   C2B42788   0.344  25.762   6.755
 8829POPC   C3B42789   0.355  25.854   7.055
 8829POPC   C4B42790   0.369  25.846   7.355
 8830POPC   NC342791  24.443  29.876   5.555
 8830POPC   PO442792  24.526  29.927   5.855
 8830POPC   GL142793  24.449  29.953   6.155
 8830POPC   GL242794  24.380  29.946   6.155
 8830POPC   C1A42795  24.531  29.895   6.455
 8830POPC   D2A42796  24.500  29.917   6.755
 8830POPC   C3A42797  24.528  29.922   7.055
 8830POPC   C4A42798  24.521  29.914   7.355
 8830POPC   C1B42799  24.294  30.018   6.455
 8830POPC   C2B42800  24.305  30.061   6.755
 8830POPC   C3B42801  24.244  30.047   7.055
 8830POPC   C4B42802  24.227  30.073   7.355
 8831POPC   NC342803  19.882  24.517   5.555
 8831POPC   PO442804  19.860  24.457   5.855
 8831POPC   GL142805  19.832  24.503   6.155
 8831POPC   GL242806  19.699  24.452   6.155
 8831POPC   C1A42807  19.853  24.471   6.455
 8831POPC   D2A42808  19.861  24.465   6.755
 8831POPC   C3A42809  19.798  24.531   7.055
 8831POPC   C4A42810  19.884  24.538   7.355
 8831POPC   C1B42811  19.538  24.463   6.455
 8831POPC   C2B42812  19.599  24.458   6.755
 8831POPC   C3B42813  19.602  24.480   7.055
 8831POPC   C4B42814  19.624  24.430   7.355
 8832POPC   NC342815   1.237   8.170   5.555
 8832POPC   PO442816   1.194   8.166   5.855
 8832POPC   GL142817   1.230   8.166   6.155
 8832POPC   GL242818   1.163   8.068   6.155
 8832POPC   C1A42819   1.192   8.151   6.455
 8832POPC   D2A42820   1.237   8.203   6.755
 8832POPC   C3A42821   1.226   8.195   7.055
 8832POPC   C4A42822   1.233   8.174   7.355
 8832POPC   C1B42823   1.170   7.908   6.455
 8832POPC   C2B42824   1.125   7.931   6.755
 8832POPC   C3B42825   1.165   7.956   7.055
 8832POPC   C4B42826   1.104   7.928   7.355
 8833POPC   NC342827  36.896  33.044   5.555
 8833POPC   PO442828  36.896  33.054   5.855
 8833POPC   GL142829  36.947  32.989   6.155
 8833POPC   GL242830  37.062  33.020   6.155
 8833POPC   C1A42831  36.856  33.012   6.455
 8833POPC   D2A42832  36.915  33.027   6.755
 8833POPC   C3A42833  36.857  33.072   7.055
 8833POPC   C4A42834  36.929  33.031   7.355
 8833POPC   C1B42835  37.165  32.913   6.455
 8833POPC   C2B42836  37.183  32.924   6.755
 8833POPC   C3B42837  37.154  32.978   7.055
 8833POPC   C4B42838  37.090  32.933   7.355
 8834POPC   NC342839  43.147  44.694   5.555
 8834POPC   PO442840  43.061  44.710   5.855
 8834POPC   GL142841  43.129  44.615   6.155
 8834POPC   GL242842  43.162  44.551   6.155
 8834POPC   C1A42843  43.085  44.655   6.455
 8834POPC   D2A42844  43.108  44.704   6.755
 8834POPC   C3A42845  43.067  44.633   7.055
 8834POPC   C4A42846  43.158  44.663   7.355
 8834POPC   C1B42847  43.268  44.412   6.455
 8834POPC   C2B42848  43.217  44.450   6.755
 8834POPC   C3B42849  43.281  44.405   7.055
 8834POPC   C4B42850  43.263  44.491   7.355
 8835POPC   NC342851   2.783   8.933   5.555
 8835POPC   PO442852   2.800   9.001   5.855
 8835POPC   GL142853   2.745   8.931   6.155
 8835POPC   GL242854   2.764   8.866   6.155
 8835POPC   C1A42855   2.771   8.993   6.455
 8835POPC   D2A42856   2.736   8.998   6.755
 8835POPC   C3A42857   2.743   8.932   7.055
 8835POPC   C4A42858   2.789   8.960   7.355
 8835POPC   C1B42859   2.778   8.715   6.455
 8835POPC   C2B42860   2.784   8.683   6.755
 8835POPC   C3B42861   2.773   8.745   7.055
 8835POPC   C4B42862   2.750   8.702   7.355
 8836POPC   NC342863   2.036  26.808   5.555
 8836POPC   PO442864   2.022  26.802   5.855
 8836POPC   GL142865   1.977  26.768   6.155
 8836POPC   GL242866   1.837  26.786   6.155
 8836POPC   C1A42867   2.017  26.771   6.455
 8836POPC   D2A42868   1.961  26.838   6.755
 8836POPC   C3A42869   2.029  26.853   7.055
 8836POPC   C4A42870   2.001  26.845   7.355
 8836POPC   C1B42871   1.747  26.796   6.455
 8836POPC   C2B42872   1.758  26.720   6.755
 8836POPC   C3B42873   1.768  26.796   7.055
 8836POPC   C4B42874   1.696  26.809   7.355
 8837POPC   NC342875  12.877  12.083   5.555
 8837POPC   PO442876  12.893  12.032   5.855
 8837POPC   GL142877  12.855  12.052   6.155
 8837POPC   GL242878  12.714  11.988   6.155
 8837POPC   C1A42879  12.834  12.052   6.455
 8837POPC   D2A42880  12.893  12.094   6.755
 8837POPC   C3A42881  12.816  12.060   7.055
 8837POPC   C4A42882  12.861  12.032   7.355
 8837POPC   C1B42883  12.688  11.925   6.455
 8837POPC   C2B42884  12.644  11.905   6.755
 8837POPC   C3B42885  12.663  11.947   7.055
 8837POPC   C4B42886  12.643  11.915   7.355
 8838POPC   NC342887  41.596  36.876   5.555
 8838POPC   PO442888  41.597  36.859   5.855
 8838POPC   GL142889  41.548  36.904   6.155
 8838POPC   GL242890  41.497  36.932   6.155
 8838POPC   C1A42891  41.564  36.885   6.455
 8838POPC   D2A42892  41.599  36.904   6.755
 8838POPC   C3A42893  41.582  36.917   7.055
 8838POPC   C4A42894  41.537  36.927   7.355
 8838POPC   C1B42895  41.346  37.038   6.455
 8838POPC   C2B42896  41.320  37.006   6.755
 8838POPC   C3B42897  41.370  37.056   7.055
 8838POPC   C4B42898  41.362  37.004   7.355
 8839POPC   NC342899  40.816  40.811   5.555
 8839POPC   PO442900  40.787  40.771   5.855
 8839POPC   GL142901  40.804  40.756   6.155
 8839POPC   GL242902  40.942  40.785   6.155
 8839POPC   C1A42903  40.744  40.827   6.455
 8839POPC   D2A42904  40.802  40.829   6.755
 8839POPC   C3A42905  40.802  40.751   7.055
 8839POPC   C4A42906  40.774  40.831   7.355
 8839POPC   C1B42907  41.053  40.799   6.455
 8839POPC   C2B42908  41.012  40.837   6.755
 8839POPC   C3B42909  41.045  40.817   7.055
 8839POPC   C4B42910  41.044  40.811   7.355
 8840POPC   NC342911  37.655  15.189   5.555
 8840POPC   PO442912  37.670  15.176   5.855
 8840POPC   GL142913  37.701  15.219   6.155
 8840POPC   GL242914  37.558  15.178   6.155
 8840POPC   C1A42915  37.711  15.209   6.455
 8840POPC   D2A42916  37.726  15.140   6.755
 8840POPC   C3A42917  37.691  15.212   7.055
 8840POPC   C4A42918  37.720  15.192   7.355
 8840POPC   C1B42919  37.406  15.190   6.455
 8840POPC   C2B42920  37.452  15.246   6.755
 8840POPC   C3B42921  37.438  15.250   7.055
 8840POPC   C4B42922  37.397  15.225   7.355
 8841POPC   NC342923  35.318  23.717   5.555
 8841POPC   PO442924  35.312  23.674   5.855
 8841POPC   GL142925  35.315  23.678   6.155
 8841POPC   GL242926  35.204  23.764   6.155
 8841POPC   C1A42927  35.372  23.674   6.455
 8841POPC   D2A42928  35.326  23.701   6.755
 8841POPC   C3A42929  35.360  23.666   7.055
 8841POPC   C4A42930  35.327  23.697   7.355
 8841POPC   C1B42931  35.108  23.796   6.455
 8841POPC   C2B42932  35.086  23.828   6.755
 8841POPC   C3B42933  35.091  23.839   7.055
 8841POPC   C4B42934  35.150  23.777   7.355
 8842POPC   NC342935  40.768  16.750   5.555
 8842POPC   PO442936  40.787  16.696   5.855
 8842POPC   GL142937  40.767  16.750   6.155
 8842POPC   GL242938  40.899  16.630   6.155
 8842POPC   C1A42939  40.780  16.763   6.455
 8842POPC   D2A42940  40.760  16.702   6.755
 8842POPC   C3A42941  40.748  16.726   7.055
 8842POPC   C4A42942  40.749  16.760   7.355
 8842POPC   C1B42943  40.923  16.584   6.455
 8842POPC   C2B42944  41.012  16.565   6.755
 8842POPC   C3B42945  40.945  16.567   7.055
 8842POPC   C4B42946  41.007  16.585   7.355
 8843POPC   NC342947  33.777  12.093   5.555
 8843POPC   PO442948  33.849  12.105   5.855
 8843POPC   GL142949  33.785  12.029   6.155
 8843POPC   GL242950  33.899  12.130   6.155
 8843POPC   C1A42951  33.797  12.066   6.455
 8843POPC   D2A42952  33.772  12.039   6.755
 8843POPC   C3A42953  33.838  12.113   7.055
 8843POPC   C4A42954  33.842  12.073   7.355
 8843POPC   C1B42955  34.046  12.039   6.455
 8843POPC   C2B42956  34.069  12.053   6.755
 8843POPC   C3B42957  34.085  12.075   7.055
 8843POPC   C4B42958  34.005  12.120   7.355
 8844POPC   NC342959  42.292   5.097   5.555
 8844POPC   PO442960  42.346   5.104   5.855
 8844POPC   GL142961  42.361   5.131   6.155
 8844POPC   GL242962  42.282   5.264   6.155
 8844POPC   C1A42963  42.302   5.109   6.455
 8844POPC   D2A42964  42.376   5.103   6.755
 8844POPC   C3A42965  42.357   5.094   7.055
 8844POPC   C4A42966  42.341   5.118   7.355
 8844POPC   C1B42967  42.346   5.387   6.455
 8844POPC   C2B42968  42.278   5.351   6.755
 8844POPC   C3B42969  42.307   5.312   7.055
 8844POPC   C4B42970  42.309   5.373   7.355
 8845POPC   NC342971  42.371  22.901   5.555
 8845POPC   PO442972  42.306  22.889   5.855
 8845POPC   GL142973  42.287  22.986   6.155
 8845POPC   GL242974  42.277  22.849   6.155
 8845POPC   C1A42975  42.333  22.914   6.455
 8845POPC   D2A42976  42.365  22.893   6.755
 8845POPC   C3A42977  42.338  22.958   7.055
 8845POPC   C4A42978  42.331  22.942   7.355
 8845POPC   C1B42979  42.144  22.776   6.455
 8845POPC   C2B42980  42.111  22.761   6.755
 8845POPC   C3B42981  42.106  22.778   7.055
 8845POPC   C4B42982  42.086  22.802   7.355
 8846POPC   NC342983  43.884  43.907   5.555
 8846POPC   PO442984  43.917  43.917   5.855
 8846POPC   GL142985  43.849  43.877   6.155
 8846POPC   GL242986  44.013  43.899   6.155
 8846POPC   C1A42987  43.906  43.841   6.455
 8846POPC   D2A42988  43.913  43.892   6.755
 8846POPC   C3A42989  43.859  43.911   7.055
 8846POPC   C4A42990  43.926  43.889   7.355
 8846POPC   C1B42991  44.119  43.859   6.455
 8846POPC   C2B42992  44.148  43.853   6.755
 8846POPC   C3B42993  44.129  43.873   7.055
 8846POPC   C4B42994  44.116  43.890   7.355
 8847POPC   NC342995  30.680   8.182   5.555
 8847POPC   PO442996  30.705   8.156   5.855
 8847POPC   GL142997  30.662   8.214   6.155
 8847POPC   GL242998  30.720   8.283   6.155
 8847POPC   C1A42999  30.698   8.242   6.455
 8847POPC   D2A43000  30.735   8.218   6.755
 8847POPC   C3A43001  30.687   8.217   7.055
 8847POPC   C4A43002  30.692   8.176   7.355
 8847POPC   C1B43003  30.819   8.399   6.455
 8847POPC   C2B43004  30.750   8.387   6.755
 8847POPC   C3B43005  30.816   8.438   7.055
 8847POPC   C4B43006  30.825   8.463   7.355
 8848POPC   NC343007  21.412  43.893   5.555
 8848POPC   PO443008  21.350  43.851   5.855
 8848POPC   GL143009  21.401  43.881   6.155
 8848POPC   GL243010  21.259  43.860   6.155
 8848POPC   C1A43011  21.417  43.893   6.455
 8848POPC   D2A43012  21.420  43.910   6.755
 8848POPC   C3A43013  21.370  43.904   7.055
 8848POPC   C4A43014  21.400  43.909   7.355
 8848POPC   C1B43015  21.137  43.746   6.455
 8848POPC   C2B43016  21.176  43.836   6.755
 8848POPC   C3B43017  21.110  43.780   7.055
 8848POPC   C4B43018  21.198  43.820   7.355
 8849POPC   NC343019   8.978  40.020   5.555
 8849POPC   PO443020   8.928  39.984   5.855
 8849POPC   GL143021   9.014  39.957   6.155
 8849POPC   GL243022   9.059  39.862   6.155
 8849POPC   C1A43023   8.931  39.967   6.455
 8849POPC   D2A43024   8.974  39.965   6.755
 8849POPC   C3A43025   9.016  39.962   7.055
 8849POPC   C4A43026   9.013  39.993   7.355
 8849POPC   C1B43027   9.124  39.756   6.455
 8849POPC   C2B43028   9.101  39.759   6.755
 8849POPC   C3B43029   9.048  39.813   7.055
 8849POPC   C4B43030   9.103  39.749   7.355
 8850POPC   NC343031  35.343  15.218   5.555
 8850POPC   PO443032  35.319  15.157   5.855
 8850POPC   GL143033  35.372  15.142   6.155
 8850POPC   GL243034  35.500  15.281   6.155
 8850POPC   C1A43035  35.326  15.224   6.455
 8850POPC   D2A43036  35.305  15.135   6.755
 8850POPC   C3A43037  35.363  15.186   7.055
 8850POPC   C4A43038  35.393  15.210   7.355
 8850POPC   C1B43039  35.529  15.313   6.455
 8850POPC   C2B43040  35.531  15.318   6.755
 8850POPC   C3B43041  35.554  15.263   7.055
 8850POPC   C4B43042  35.585  15.246   7.355
 8851POPC   NC343043   7.380   2.732   5.555
 8851POPC   PO443044   7.418   2.798   5.855
 8851POPC   GL143045   7.467   2.796   6.155
 8851POPC   GL243046   7.499   2.669   6.155
 8851POPC   C1A43047   7.380   2.784   6.455
 8851POPC   D2A43048   7.390   2.800   6.755
 8851POPC   C3A43049   7.380   2.813   7.055
 8851POPC   C4A43050   7.433   2.794   7.355
 8851POPC   C1B43051   7.658   2.578   6.455
 8851POPC   C2B43052   7.655   2.633   6.755
 8851POPC   C3B43053   7.654   2.647   7.055
 8851POPC   C4B43054   7.637   2.603   7.355
 8852POPC   NC343055   0.409  43.861   5.555
 8852POPC   PO443056   0.441  43.895   5.855
 8852POPC   GL143057   0.464  43.854   6.155
 8852POPC   GL243058   0.543  43.826   6.155
 8852POPC   C1A43059   0.421  43.868   6.455
 8852POPC   D2A43060   0.487  43.861   6.755
 8852POPC   C3A43061   0.403  43.845   7.055
 8852POPC   C4A43062   0.456  43.853   7.355
 8852POPC   C1B43063   0.709  43.771   6.455
 8852POPC   C2B43064   0.653  43.791   6.755
 8852POPC   C3B43065   0.639  43.817   7.055
 8852POPC   C4B43066   0.694  43.817   7.355
 8853POPC   NC343067   7.415  33.756   5.555
 8853POPC   PO443068   7.434  33.849   5.855
 8853POPC   GL143069   7.460  33.803   6.155
 8853POPC   GL243070   7.559  33.722   6.155
 8853POPC   C1A43071   7.434  33.808   6.455
 8853POPC   D2A43072   7.440  33.846   6.755
 8853POPC   C3A43073   7.447  33.838   7.055
 8853POPC   C4A43074   7.403  33.829   7.355
 8853POPC   C1B43075   7.580  33.643   6.455
 8853POPC   C2B43076   7.630  33.672   6.755
 8853POPC   C3B43077   7.640  33.693   7.055
 8853POPC   C4B43078   7.663  33.641   7.355
 8854POPC   NC343079  20.561  29.165   5.555
 8854POPC   PO443080  20.566  29.111   5.855
 8854POPC   GL143081  20.640  29.108   6.155
 8854POPC   GL243082  20.662  29.004   6.155
 8854POPC   C1A43083  20.636  29.098   6.455
 8854POPC   D2A43084  20.607  29.172   6.755
 8854POPC   C3A43085  20.604  29.194   7.055
 8854POPC   C4A43086  20.584  29.171   7.355
 8854POPC   C1B43087  20.734  28.903   6.455
 8854POPC   C2B43088  20.668  28.957   6.755
 8854POPC   C3B43089  20.654  28.863   7.055
 8854POPC   C4B43090  20.685  28.888   7.355
 8855POPC   NC343091  29.145   2.775   5.555
 8855POPC   PO443092  29.155   2.757   5.855
 8855POPC   GL143093  29.159   2.791   6.155
 8855POPC   GL243094  29.034   2.853   6.155
 8855POPC   C1A43095  29.194   2.744   6.455
 8855POPC   D2A43096  29.191   2.814   6.755
 8855POPC   C3A43097  29.159   2.736   7.055
 8855POPC   C4A43098  29.172   2.804   7.355
 8855POPC   C1B43099  28.892   2.925   6.455
 8855POPC   C2B43100  28.928   2.855   6.755
 8855POPC   C3B43101  28.910   2.854   7.055
 8855POPC   C4B43102  28.917   2.899   7.355
 8856POPC   NC343103  39.183  40.741   5.555
 8856POPC   PO443104  39.230  40.776   5.855
 8856POPC   GL143105  39.256  40.747   6.155
 8856POPC   GL243106  39.174  40.915   6.155
 8856POPC   C1A43107  39.193  40.811   6.455
 8856POPC   D2A43108  39.209  40.765   6.755
 8856POPC   C3A43109  39.277  40.748   7.055
 8856POPC   C4A43110  39.185  40.750   7.355
 8856POPC   C1B43111  39.011  40.976   6.455
 8856POPC   C2B43112  39.025  40.933   6.755
 8856POPC   C3B43113  39.009  40.909   7.055
 8856POPC   C4B43114  39.079  40.963   7.355
 8857POPC   NC343115  42.324  18.250   5.555
 8857POPC   PO443116  42.285  18.246   5.855
 8857POPC   GL143117  42.335  18.290   6.155
 8857POPC   GL243118  42.308  18.361   6.155
 8857POPC   C1A43119  42.350  18.314   6.455
 8857POPC   D2A43120  42.318  18.303   6.755
 8857POPC   C3A43121  42.384  18.281   7.055
 8857POPC   C4A43122  42.366  18.253   7.355
 8857POPC   C1B43123  42.231  18.509   6.455
 8857POPC   C2B43124  42.237  18.538   6.755
 8857POPC   C3B43125  42.250  18.557   7.055
 8857POPC   C4B43126  42.248  18.554   7.355
 8858POPC   NC343127   8.162  42.374   5.555
 8858POPC   PO443128   8.215  42.297   5.855
 8858POPC   GL143129   8.235  42.333   6.155
 8858POPC   GL243130   8.111  42.269   6.155
 8858POPC   C1A43131   8.193  42.330   6.455
 8858POPC   D2A43132   8.245  42.381   6.755
 8858POPC   C3A43133   8.246  42.362   7.055
 8858POPC   C4A43134   8.169  42.298   7.355
 8858POPC   C1B43135   8.037  42.148   6.455
 8858POPC   C2B43136   8.074  42.098   6.755
 8858POPC   C3B43137   8.014  42.101   7.055
 8858POPC   C4B43138   8.092  42.161   7.355
 8859POPC   NC343139  41.528  19.822   5.555
 8859POPC   PO443140  41.579  19.836   5.855
 8859POPC   GL143141  41.543  19.831   6.155
 8859POPC   GL243142  41.617  19.735   6.155
 8859POPC   C1A43143  41.576  19.835   6.455
 8859POPC   D2A43144  41.524  19.877   6.755
 8859POPC   C3A43145  41.525  19.801   7.055
 8859POPC   C4A43146  41.581  19.821   7.355
 8859POPC   C1B43147  41.781  19.733   6.455
 8859POPC   C2B43148  41.770  19.669   6.755
 8859POPC   C3B43149  41.713  19.688   7.055
 8859POPC   C4B43150  41.757  19.662   7.355
 8860POPC   NC343151  41.545   8.191   5.555
 8860POPC   PO443152  41.580   8.232   5.855
 8860POPC   GL143153  41.541   8.151   6.155
 8860POPC   GL243154  41.475   8.090   6.155
 8860POPC   C1A43155  41.550   8.147   6.455
 8860POPC   D2A43156  41.600   8.147   6.755
 8860POPC   C3A43157  41.562   8.207   7.055
 8860POPC   C4A43158  41.608   8.195   7.355
 8860POPC   C1B43159  41.419   7.997   6.455
 8860POPC   C2B43160  41.480   7.986   6.755
 8860POPC   C3B43161  41.448   7.993   7.055
 8860POPC   C4B43162  41.466   8.019   7.355
 8861POPC   NC343163  14.422  21.349   5.555
 8861POPC   PO443164  14.393  21.429   5.855
 8861POPC   GL143165  14.386  21.368   6.155
 8861POPC   GL243166  14.292  21.385   6.155
 8861POPC   C1A43167  14.411  21.393   6.455
 8861POPC   D2A43168  14.399  21.364   6.755
 8861POPC   C3A43169  14.449  21.426   7.055
 8861POPC   C4A43170  14.375  21.434   7.355
 8861POPC   C1B43171  14.190  21.423   6.455
 8861POPC   C2B43172  14.189  21.455   6.755
 8861POPC   C3B43173  14.215  21.515   7.055
 8861POPC   C4B43174  14.155  21.422   7.355
 8862POPC   NC343175  21.349  34.561   5.555
 8862POPC   PO443176  21.389  34.579   5.855
 8862POPC   GL143177  21.352  34.620   6.155
 8862POPC   GL243178  21.453  34.489   6.155
 8862POPC   C1A43179  21.425  34.527   6.455
 8862POPC   D2A43180  21.412  34.615   6.755
 8862POPC   C3A43181  21.363  34.559   7.055
 8862POPC   C4A43182  21.389  34.577   7.355
 8862POPC   C1B43183  21.454  34.312   6.455
 8862POPC   C2B43184  21.479  34.324   6.755
 8862POPC   C3B43185  21.450  34.309   7.055
 8862POPC   C4B43186  21.408  34.371   7.355
 8863POPC   NC343187  17.502  30.728   5.555
 8863POPC   PO443188  17.470  30.719   5.855
 8863POPC   GL143189  17.469  30.656   6.155
 8863POPC   GL243190  17.406  30.673   6.155
 8863POPC   C1A43191  17.503  30.706   6.455
 8863POPC   D2A43192  17.552  30.686   6.755
 8863POPC   C3A43193  17.480  30.718   7.055
 8863POPC   C4A43194  17.502  30.685   7.355
 8863POPC   C1B43195  17.244  30.597   6.455
 8863POPC   C2B43196  17.275  30.667   6.755
 8863POPC   C3B43197  17.314  30.636   7.055
 8863POPC   C4B43198  17.244  30.582   7.355
 8864POPC   NC343199  32.298  32.262   5.555
 8864POPC   PO443200  32.278  32.227   5.855
 8864POPC   GL143201  32.199  32.260   6.155
 8864POPC   GL243202  32.173  32.231   6.155
 8864POPC   C1A43203  32.267  32.246   6.455
 8864POPC   D2A43204  32.228  32.226   6.755
 8864POPC   C3A43205  32.280  32.255   7.055
 8864POPC   C4A43206  32.201  32.249   7.355
 8864POPC   C1B43207  32.069  32.139   6.455
 8864POPC   C2B43208  32.062  32.151   6.755
 8864POPC   C3B43209  32.048  32.167   7.055
 8864POPC   C4B43210  32.062  32.107   7.355
 8865POPC   NC343211   1.197  28.363   5.555
 8865POPC   PO443212   1.188  28.339   5.855
 8865POPC   GL143213   1.171  28.336   6.155
 8865POPC   GL243214   1.129  28.234   6.155
 8865POPC   C1A43215   1.177  28.412   6.455
 8865POPC   D2A43216   1.247  28.327   6.755
 8865POPC   C3A43217   1.179  28.417   7.055
 8865POPC   C4A43218   1.236  28.398   7.355
 8865POPC   C1B43219   1.154  28.177   6.455
 8865POPC   C2B43220   1.150  28.101   6.755
 8865POPC   C3B43221   1.145  28.159   7.055
 8865POPC   C4B43222   1.159  28.089   7.355
 8866POPC   NC343223  40.016  16.716   5.555
 8866POPC   PO443224  40.040  16.734   5.855
 8866POPC   GL143225  39.981  16.746   6.155
 8866POPC   GL243226  40.099  16.727   6.155
 8866POPC   C1A43227  40.007  16.692   6.455
 8866POPC   D2A43228  39.994  16.697   6.755
 8866POPC   C3A43229  39.964  16.685   7.055
 8866POPC   C4A43230  39.979  16.719   7.355
 8866POPC   C1B43231  40.269  16.713   6.455
 8866POPC   C2B43232  40.281  16.793   6.755
 8866POPC   C3B43233  40.241  16.751   7.055
 8866POPC   C4B43234  40.279  16.721   7.355
 8867POPC   NC343235  11.335   9.729   5.555
 8867POPC   PO443236  11.346   9.795   5.855
 8867POPC   GL143237  11.288   9.782   6.155
 8867POPC   GL243238  11.311   9.914   6.155
 8867POPC   C1A43239  11.338   9.711   6.455
 8867POPC   D2A43240  11.285   9.701   6.755
 8867POPC   C3A43241  11.257   9.721   7.055
 8867POPC   C4A43242  11.324   9.699   7.355
 8867POPC   C1B43243  11.306   9.987   6.455
 8867POPC   C2B43244  11.273   9.982   6.755
 8867POPC   C3B43245  11.357   9.974   7.055
 8867POPC   C4B43246  11.326  10.013   7.355
 8868POPC   NC343247  29.913  12.118   5.555
 8868POPC   PO443248  29.929  12.026   5.855
 8868POPC   GL143249  29.929  12.109   6.155
 8868POPC   GL243250  30.023  12.205   6.155
 8868POPC   C1A43251  29.929  12.052   6.455
 8868POPC   D2A43252  29.957  12.038   6.755
 8868POPC   C3A43253  29.891  12.093   7.055
 8868POPC   C4A43254  29.943  12.099   7.355
 8868POPC   C1B43255  30.054  12.261   6.455
 8868POPC   C2B43256  30.067  12.283   6.755
 8868POPC   C3B43257  30.094  12.307   7.055
 8868POPC   C4B43258  30.057  12.237   7.355
 8869POPC   NC343259  23.720  31.521   5.555
 8869POPC   PO443260  23.741  31.490   5.855
 8869POPC   GL143261  23.754  31.482   6.155
 8869POPC   GL243262  23.803  31.471   6.155
 8869POPC   C1A43263  23.756  31.424   6.455
 8869POPC   D2A43264  23.675  31.497   6.755
 8869POPC   C3A43265  23.695  31.458   7.055
 8869POPC   C4A43266  23.702  31.468   7.355
 8869POPC   C1B43267  23.946  31.559   6.455
 8869POPC   C2B43268  24.000  31.565   6.755
 8869POPC   C3B43269  23.910  31.559   7.055
 8869POPC   C4B43270  23.924  31.518   7.355
 8870POPC   NC343271   0.465  21.339   5.555
 8870POPC   PO443272   0.431  21.389   5.855
 8870POPC   GL143273   0.466  21.434   6.155
 8870POPC   GL243274   0.489  21.485   6.155
 8870POPC   C1A43275   0.428  21.419   6.455
 8870POPC   D2A43276   0.402  21.413   6.755
 8870POPC   C3A43277   0.410  21.358   7.055
 8870POPC   C4A43278   0.421  21.368   7.355
 8870POPC   C1B43279   0.518  21.609   6.455
 8870POPC   C2B43280   0.517  21.609   6.755
 8870POPC   C3B43281   0.562  21.615   7.055
 8870POPC   C4B43282   0.473  21.574   7.355
 8871POPC   NC343283  35.400  34.531   5.555
 8871POPC   PO443284  35.389  34.573   5.855
 8871POPC   GL143285  35.391  34.590   6.155
 8871POPC   GL243286  35.256  34.448   6.155
 8871POPC   C1A43287  35.313  34.548   6.455
 8871POPC   D2A43288  35.365  34.569   6.755
 8871POPC   C3A43289  35.358  34.602   7.055
 8871POPC   C4A43290  35.346  34.534   7.355
 8871POPC   C1B43291  35.220  34.346   6.455
 8871POPC   C2B43292  35.271  34.362   6.755
 8871POPC   C3B43293  35.243  34.345   7.055
 8871POPC   C4B43294  35.195  34.406   7.355
 8872POPC   NC343295  16.714  15.927   5.555
 8872POPC   PO443296  16.764  15.906   5.855
 8872POPC   GL143297  16.766  15.999   6.155
 8872POPC   GL243298  16.738  16.096   6.155
 8872POPC   C1A43299  16.722  15.969   6.455
 8872POPC   D2A43300  16.775  15.962   6.755
 8872POPC   C3A43301  16.712  15.957   7.055
 8872POPC   C4A43302  16.752  15.931   7.355
 8872POPC   C1B43303  16.878  16.144   6.455
 8872POPC   C2B43304  16.791  16.202   6.755
 8872POPC   C3B43305  16.866  16.156   7.055
 8872POPC   C4B43306  16.832  16.152   7.355
 8873POPC   NC343307   5.890  19.064   5.555
 8873POPC   PO443308   5.865  19.095   5.855
 8873POPC   GL143309   5.826  19.011   6.155
 8873POPC   GL243310   5.759  19.138   6.155
 8873POPC   C1A43311   5.892  19.013   6.455
 8873POPC   D2A43312   5.847  19.031   6.755
 8873POPC   C3A43313   5.909  19.107   7.055
 8873POPC   C4A43314   5.880  19.052   7.355
 8873POPC   C1B43315   5.699  19.189   6.455
 8873POPC   C2B43316   5.611  19.155   6.755
 8873POPC   C3B43317   5.686  19.140   7.055
 8873POPC   C4B43318   5.660  19.144   7.355
 8874POPC   NC343319  36.101  26.084   5.555
 8874POPC   PO443320  36.158  26.002   5.855
 8874POPC   GL143321  36.083  25.996   6.155
 8874POPC   GL243322  36.078  26.180   6.155
 8874POPC   C1A43323  36.133  26.090   6.455
 8874POPC   D2A43324  36.156  26.040   6.755
 8874POPC   C3A43325  36.084  26.007   7.055
 8874POPC   C4A43326  36.106  26.078   7.355
 8874POPC   C1B43327  36.021  26.307   6.455
 8874POPC   C2B43328  36.035  26.316   6.755
 8874POPC   C3B43329  36.023  26.295   7.055
 8874POPC   C4B43330  36.037  26.262   7.355
 8875POPC   NC343331  11.292  28.367   5.555
 8875POPC   PO443332  11.276  28.385   5.855
 8875POPC   GL143333  11.256  28.354   6.155
 8875POPC   GL243334  11.218  28.325   6.155
 8875POPC   C1A43335  11.273  28.361   6.455
 8875POPC   D2A43336  11.287  28.415   6.755
 8875POPC   C3A43337  11.297  28.340   7.055
 8875POPC   C4A43338  11.288  28.399   7.355
 8875POPC   C1B43339  11.032  28.259   6.455
 8875POPC   C2B43340  11.038  28.332   6.755
 8875POPC   C3B43341  11.099  28.297   7.055
 8875POPC   C4B43342  11.023  28.254   7.355
 8876POPC   NC343343  30.681  17.522   5.555
 8876POPC   PO443344  30.720  17.533   5.855
 8876POPC   GL143345  30.671  17.516   6.155
 8876POPC   GL243346  30.790  17.505   6.155
 8876POPC   C1A43347  30.696  17.525   6.455
 8876POPC   D2A43348  30.674  17.541   6.755
 8876POPC   C3A43349  30.708  17.480   7.055
 8876POPC   C4A43350  30.735  17.507   7.355
 8876POPC   C1B43351  30.955  17.499   6.455
 8876POPC   C2B43352  30.950  17.468   6.755
 8876POPC   C3B43353  30.924  17.441   7.055
 8876POPC   C4B43354  30.954  17.505   7.355
 8877POPC   NC343355   9.006  31.504   5.555
 8877POPC   PO443356   8.948  31.459   5.855
 8877POPC   GL143357   8.944  31.512   6.155
 8877POPC   GL243358   8.937  31.383   6.155
 8877POPC   C1A43359   8.941  31.489   6.455
 8877POPC   D2A43360   8.943  31.498   6.755
 8877POPC   C3A43361   8.949  31.450   7.055
 8877POPC   C4A43362   8.941  31.490   7.355
 8877POPC   C1B43363   8.862  31.274   6.455
 8877POPC   C2B43364   8.860  31.272   6.755
 8877POPC   C3B43365   8.805  31.310   7.055
 8877POPC   C4B43366   8.813  31.268   7.355
 8878POPC   NC343367  31.488   8.175   5.555
 8878POPC   PO443368  31.460   8.201   5.855
 8878POPC   GL143369  31.488   8.215   6.155
 8878POPC   GL243370  31.321   8.289   6.155
 8878POPC   C1A43371  31.428   8.228   6.455
 8878POPC   D2A43372  31.477   8.226   6.755
 8878POPC   C3A43373  31.472   8.172   7.055
 8878POPC   C4A43374  31.509   8.150   7.355
 8878POPC   C1B43375  31.261   8.253   6.455
 8878POPC   C2B43376  31.286   8.264   6.755
 8878POPC   C3B43377  31.269   8.253   7.055
 8878POPC   C4B43378  31.275   8.277   7.355
 8879POPC   NC343379  33.790  19.794   5.555
 8879POPC   PO443380  33.822  19.879   5.855
 8879POPC   GL143381  33.810  19.807   6.155
 8879POPC   GL243382  33.812  19.911   6.155
 8879POPC   C1A43383  33.828  19.822   6.455
 8879POPC   D2A43384  33.805  19.816   6.755
 8879POPC   C3A43385  33.761  19.834   7.055
 8879POPC   C4A43386  33.795  19.826   7.355
 8879POPC   C1B43387  33.856  20.073   6.455
 8879POPC   C2B43388  33.853  20.094   6.755
 8879POPC   C3B43389  33.880  20.092   7.055
 8879POPC   C4B43390  33.861  20.023   7.355
 8880POPC   NC343391  21.435  36.155   5.555
 8880POPC   PO443392  21.346  36.089   5.855
 8880POPC   GL143393  21.361  36.099   6.155
 8880POPC   GL243394  21.318  36.092   6.155
 8880POPC   C1A43395  21.424  36.107   6.455
 8880POPC   D2A43396  21.392  36.086   6.755
 8880POPC   C3A43397  21.370  36.094   7.055
 8880POPC   C4A43398  21.403  36.086   7.355
 8880POPC   C1B43399  21.163  36.040   6.455
 8880POPC   C2B43400  21.181  36.047   6.755
 8880POPC   C3B43401  21.129  36.040   7.055
 8880POPC   C4B43402  21.159  35.994   7.355
 8881POPC   NC343403  27.550   7.372   5.555
 8881POPC   PO443404  27.575   7.464   5.855
 8881POPC   GL143405  27.565   7.388   6.155
 8881POPC   GL243406  27.431   7.401   6.155
 8881POPC   C1A43407  27.546   7.425   6.455
 8881POPC   D2A43408  27.620   7.425   6.755
 8881POPC   C3A43409  27.589   7.405   7.055
 8881POPC   C4A43410  27.568   7.461   7.355
 8881POPC   C1B43411  27.391   7.357   6.455
 8881POPC   C2B43412  27.366   7.360   6.755
 8881POPC   C3B43413  27.376   7.390   7.055
 8881POPC   C4B43414  27.317   7.376   7.355
 8882POPC   NC343415  13.671  43.850   5.555
 8882POPC   PO443416  13.653  43.885   5.855
 8882POPC   GL143417  13.662  43.909   6.155
 8882POPC   GL243418  13.652  43.993   6.155
 8882POPC   C1A43419  13.583  43.884   6.455
 8882POPC   D2A43420  13.645  43.900   6.755
 8882POPC   C3A43421  13.676  43.886   7.055
 8882POPC   C4A43422  13.649  43.918   7.355
 8882POPC   C1B43423  13.634  44.109   6.455
 8882POPC   C2B43424  13.673  44.131   6.755
 8882POPC   C3B43425  13.631  44.152   7.055
 8882POPC   C4B43426  13.629  44.154   7.355
 8883POPC   NC343427  19.856  29.969   5.555
 8883POPC   PO443428  19.843  29.918   5.855
 8883POPC   GL143429  19.834  29.901   6.155
 8883POPC   GL243430  19.901  29.876   6.155
 8883POPC   C1A43431  19.809  29.921   6.455
 8883POPC   D2A43432  19.870  29.913   6.755
 8883POPC   C3A43433  19.811  29.939   7.055
 8883POPC   C4A43434  19.812  29.884   7.355
 8883POPC   C1B43435  20.099  29.869   6.455
 8883POPC   C2B43436  20.093  29.800   6.755
 8883POPC   C3B43437  20.037  29.828   7.055
 8883POPC   C4B43438  20.027  29.841   7.355
 8884POPC   NC343439  42.335   8.226   5.555
 8884POPC   PO443440  42.345   8.163   5.855
 8884POPC   GL143441  42.382   8.243   6.155
 8884POPC   GL243442  42.420   8.231   6.155
 8884POPC   C1A43443  42.306   8.214   6.455
 8884POPC   D2A43444  42.330   8.211   6.755
 8884POPC   C3A43445  42.328   8.208   7.055
 8884POPC   C4A43446  42.353   8.162   7.355
 8884POPC   C1B43447  42.623   8.200   6.455
 8884POPC   C2B43448  42.581   8.155   6.755
 8884POPC   C3B43449  42.574   8.199   7.055
 8884POPC   C4B43450  42.596   8.205   7.355
 8885POPC   NC343451  38.466  12.879   5.555
 8885POPC   PO443452  38.431  12.897   5.855
 8885POPC   GL143453  38.494  12.820   6.155
 8885POPC   GL243454  38.597  12.887   6.155
 8885POPC   C1A43455  38.431  12.842   6.455
 8885POPC   D2A43456  38.472  12.888   6.755
 8885POPC   C3A43457  38.496  12.828   7.055
 8885POPC   C4A43458  38.447  12.861   7.355
 8885POPC   C1B43459  38.613  12.965   6.455
 8885POPC   C2B43460  38.633  13.015   6.755
 8885POPC   C3B43461  38.691  13.026   7.055
 8885POPC   C4B43462  38.636  12.979   7.355
 8886POPC   NC343463   2.757  34.588   5.555
 8886POPC   PO443464   2.775  34.562   5.855
 8886POPC   GL143465   2.768  34.537   6.155
 8886POPC   GL243466   2.662  34.628   6.155
 8886POPC   C1A43467   2.724  34.539   6.455
 8886POPC   D2A43468   2.748  34.615   6.755
 8886POPC   C3A43469   2.724  34.583   7.055
 8886POPC   C4A43470   2.810  34.570   7.355
 8886POPC   C1B43471   2.557  34.783   6.455
 8886POPC   C2B43472   2.611  34.738   6.755
 8886POPC   C3B43473   2.553  34.703   7.055
 8886POPC   C4B43474   2.557  34.738   7.355
 8887POPC   NC343475  10.498  24.454   5.555
 8887POPC   PO443476  10.545  24.449   5.855
 8887POPC   GL143477  10.495  24.486   6.155
 8887POPC   GL243478  10.491  24.581   6.155
 8887POPC   C1A43479  10.544  24.443   6.455
 8887POPC   D2A43480  10.546  24.529   6.755
 8887POPC   C3A43481  10.519  24.520   7.055
 8887POPC   C4A43482  10.573  24.502   7.355
 8887POPC   C1B43483  10.513  24.704   6.455
 8887POPC   C2B43484  10.517  24.712   6.755
 8887POPC   C3B43485  10.550  24.737   7.055
 8887POPC   C4B43486  10.546  24.701   7.355
 8888POPC   NC343487  22.956  16.771   5.555
 8888POPC   PO443488  22.908  16.712   5.855
 8888POPC   GL143489  22.966  16.737   6.155
 8888POPC   GL243490  22.945  16.651   6.155
 8888POPC   C1A43491  22.959  16.749   6.455
 8888POPC   D2A43492  22.927  16.731   6.755
 8888POPC   C3A43493  22.892  16.733   7.055
 8888POPC   C4A43494  22.949  16.776   7.355
 8888POPC   C1B43495  22.924  16.438   6.455
 8888POPC   C2B43496  22.909  16.496   6.755
 8888POPC   C3B43497  22.882  16.441   7.055
 8888POPC   C4B43498  22.889  16.437   7.355
 8889POPC   NC343499  33.768   8.160   5.555
 8889POPC   PO443500  33.798   8.182   5.855
 8889POPC   GL143501  33.759   8.192   6.155
 8889POPC   GL243502  33.701   8.084   6.155
 8889POPC   C1A43503  33.841   8.203   6.455
 8889POPC   D2A43504  33.811   8.211   6.755
 8889POPC   C3A43505  33.828   8.243   7.055
 8889POPC   C4A43506  33.813   8.219   7.355
 8889POPC   C1B43507  33.627   7.959   6.455
 8889POPC   C2B43508  33.669   7.963   6.755
 8889POPC   C3B43509  33.641   7.997   7.055
 8889POPC   C4B43510  33.677   7.946   7.355
 8890POPC   NC343511  38.431  38.464   5.555
 8890POPC   PO443512  38.497  38.472   5.855
 8890POPC   GL143513  38.448  38.467   6.155
 8890POPC   GL243514  38.376  38.612   6.155
 8890POPC   C1A43515  38.464  38.498   6.455
 8890POPC   D2A43516  38.422  38.455   6.755
 8890POPC   C3A43517  38.477  38.437   7.055
 8890POPC   C4A43518  38.414  38.429   7.355
 8890POPC   C1B43519  38.393  38.681   6.455
 8890POPC   C2B43520  38.315  38.671   6.755
 8890POPC   C3B43521  38.364  38.662   7.055
 8890POPC   C4B43522  38.313  38.732   7.355
 8891POPC   NC343523  44.708  20.610   5.555
 8891POPC   PO443524  44.619  20.584   5.855
 8891POPC   GL143525  44.686  20.580   6.155
 8891POPC   GL243526  44.612  20.764   6.155
 8891POPC   C1A43527  44.673  20.593   6.455
 8891POPC   D2A43528  44.700  20.644   6.755
 8891POPC   C3A43529  44.673  20.593   7.055
 8891POPC   C4A43530  44.666  20.616   7.355
 8891POPC   C1B43531  44.641  20.848   6.455
 8891POPC   C2B43532  44.580  20.853   6.755
 8891POPC   C3B43533  44.603  20.825   7.055
 8891POPC   C4B43534  44.583  20.874   7.355
 8892POPC   NC343535  22.194  34.576   5.555
 8892POPC   PO443536  22.189  34.548   5.855
 8892POPC   GL143537  22.206  34.587   6.155
 8892POPC   GL243538  22.262  34.511   6.155
 8892POPC   C1A43539  22.136  34.606   6.455
 8892POPC   D2A43540  22.169  34.554   6.755
 8892POPC   C3A43541  22.148  34.574   7.055
 8892POPC   C4A43542  22.163  34.539   7.355
 8892POPC   C1B43543  22.441  34.489   6.455
 8892POPC   C2B43544  22.380  34.491   6.755
 8892POPC   C3B43545  22.373  34.482   7.055
 8892POPC   C4B43546  22.403  34.518   7.355
 8893POPC   NC343547  35.361  43.110   5.555
 8893POPC   PO443548  35.326  43.081   5.855
 8893POPC   GL143549  35.355  43.099   6.155
 8893POPC   GL243550  35.228  43.087   6.155
 8893POPC   C1A43551  35.331  43.132   6.455
 8893POPC   D2A43552  35.354  43.070   6.755
 8893POPC   C3A43553  35.383  43.078   7.055
 8893POPC   C4A43554  35.357  43.147   7.355
 8893POPC   C1B43555  35.128  43.017   6.455
 8893POPC   C2B43556  35.058  43.105   6.755
 8893POPC   C3B43557  35.130  43.033   7.055
 8893POPC   C4B43558  35.113  43.093   7.355
 8894POPC   NC343559  29.128   0.483   5.555
 8894POPC   PO443560  29.148   0.473   5.855
 8894POPC   GL143561  29.147   0.458   6.155
 8894POPC   GL243562  29.068   0.549   6.155
 8894POPC   C1A43563  29.143   0.430   6.455
 8894POPC   D2A43564  29.118   0.410   6.755
 8894POPC   C3A43565  29.186   0.430   7.055
 8894POPC   C4A43566  29.168   0.416   7.355
 8894POPC   C1B43567  29.044   0.599   6.455
 8894POPC   C2B43568  29.004   0.613   6.755
 8894POPC   C3B43569  29.052   0.647   7.055
 8894POPC   C4B43570  28.960   0.605   7.355
 8895POPC   NC343571   7.465   0.454   5.555
 8895POPC   PO443572   7.392   0.448   5.855
 8895POPC   GL143573   7.456   0.458   6.155
 8895POPC   GL243574   7.507   0.503   6.155
 8895POPC   C1A43575   7.376   0.401   6.455
 8895POPC   D2A43576   7.469   0.431   6.755
 8895POPC   C3A43577   7.434   0.484   7.055
 8895POPC   C4A43578   7.422   0.403   7.355
 8895POPC   C1B43579   7.642   0.561   6.455
 8895POPC   C2B43580   7.687   0.519   6.755
 8895POPC   C3B43581   7.697   0.548   7.055
 8895POPC   C4B43582   7.628   0.543   7.355
 8896POPC   NC343583  19.091  36.868   5.555
 8896POPC   PO443584  19.029  36.953   5.855
 8896POPC   GL143585  19.019  36.915   6.155
 8896POPC   GL243586  19.174  36.892   6.155
 8896POPC   C1A43587  19.055  36.869   6.455
 8896POPC   D2A43588  19.040  36.952   6.755
 8896POPC   C3A43589  19.015  36.942   7.055
 8896POPC   C4A43590  19.060  36.949   7.355
 8896POPC   C1B43591  19.314  36.927   6.455
 8896POPC   C2B43592  19.324  36.913   6.755
 8896POPC   C3B43593  19.333  36.923   7.055
 8896POPC   C4B43594  19.319  36.865   7.355
 8897POPC   NC343595  26.002  17.514   5.555
 8897POPC   PO443596  26.078  17.528   5.855
 8897POPC   GL143597  26.000  17.516   6.155
 8897POPC   GL243598  26.062  17.385   6.155
 8897POPC   C1A43599  26.034  17.499   6.455
 8897POPC   D2A43600  26.000  17.510   6.755
 8897POPC   C3A43601  26.039  17.534   7.055
 8897POPC   C4A43602  26.005  17.497   7.355
 8897POPC   C1B43603  26.174  17.253   6.455
 8897POPC   C2B43604  26.141  17.338   6.755
 8897POPC   C3B43605  26.138  17.302   7.055
 8897POPC   C4B43606  26.144  17.317   7.355
 8898POPC   NC343607   4.336  29.880   5.555
 8898POPC   PO443608   4.330  29.939   5.855
 8898POPC   GL143609   4.282  29.955   6.155
 8898POPC   GL243610   4.244  29.805   6.155
 8898POPC   C1A43611   4.362  29.952   6.455
 8898POPC   D2A43612   4.297  29.881   6.755
 8898POPC   C3A43613   4.314  29.970   7.055
 8898POPC   C4A43614   4.295  29.881   7.355
 8898POPC   C1B43615   4.215  29.749   6.455
 8898POPC   C2B43616   4.208  29.731   6.755
 8898POPC   C3B43617   4.185  29.695   7.055
 8898POPC   C4B43618   4.127  29.707   7.355
 8899POPC   NC343619  36.900  44.686   5.555
 8899POPC   PO443620  36.899  44.666   5.855
 8899POPC   GL143621  36.915  44.656   6.155
 8899POPC   GL243622  36.786  44.624   6.155
 8899POPC   C1A43623  36.890  44.673   6.455
 8899POPC   D2A43624  36.864  44.704   6.755
 8899POPC   C3A43625  36.891  44.641   7.055
 8899POPC   C4A43626  36.909  44.617   7.355
 8899POPC   C1B43627  36.659  44.608   6.455
 8899POPC   C2B43628  36.652  44.569   6.755
 8899POPC   C3B43629  36.646  44.593   7.055
 8899POPC   C4B43630  36.680  44.550   7.355
 8900POPC   NC343631  18.251  34.539   5.555
 8900POPC   PO443632  18.242  34.530   5.855
 8900POPC   GL143633  18.262  34.579   6.155
 8900POPC   GL243634  18.390  34.639   6.155
 8900POPC   C1A43635  18.318  34.622   6.455
 8900POPC   D2A43636  18.247  34.554   6.755
 8900POPC   C3A43637  18.235  34.559   7.055
 8900POPC   C4A43638  18.286  34.587   7.355
 8900POPC   C1B43639  18.418  34.734   6.455
 8900POPC   C2B43640  18.464  34.791   6.755
 8900POPC   C3B43641  18.433  34.749   7.055
 8900POPC   C4B43642  18.429  34.803   7.355
 8901POPC   NC343643  11.253   2.751   5.555
 8901POPC   PO443644  11.349   2.792   5.855
 8901POPC   GL143645  11.342   2.783   6.155
 8901POPC   GL243646  11.328   2.871   6.155
 8901POPC   C1A43647  11.263   2.755   6.455
 8901POPC   D2A43648  11.282   2.734   6.755
 8901POPC   C3A43649  11.280   2.772   7.055
 8901POPC   C4A43650  11.331   2.749   7.355
 8901POPC   C1B43651  11.349   3.012   6.455
 8901POPC   C2B43652  11.391   2.999   6.755
 8901POPC   C3B43653  11.310   2.989   7.055
 8901POPC   C4B43654  11.381   3.010   7.355
 8902POPC   NC343655  40.749  29.879   5.555
 8902POPC   PO443656  40.757  29.879   5.855
 8902POPC   GL143657  40.828  29.962   6.155
 8902POPC   GL243658  40.899  29.993   6.155
 8902POPC   C1A43659  40.826  29.948   6.455
 8902POPC   D2A43660  40.760  29.916   6.755
 8902POPC   C3A43661  40.739  29.918   7.055
 8902POPC   C4A43662  40.792  29.911   7.355
 8902POPC   C1B43663  41.001  30.088   6.455
 8902POPC   C2B43664  40.976  30.091   6.755
 8902POPC   C3B43665  41.009  30.025   7.055
 8902POPC   C4B43666  40.966  30.055   7.355
 8903POPC   NC343667  13.619   0.447   5.555
 8903POPC   PO443668  13.589   0.408   5.855
 8903POPC   GL143669  13.584   0.410   6.155
 8903POPC   GL243670  13.514   0.462   6.155
 8903POPC   C1A43671  13.603   0.427   6.455
 8903POPC   D2A43672  13.606   0.450   6.755
 8903POPC   C3A43673  13.578   0.401   7.055
 8903POPC   C4A43674  13.667   0.446   7.355
 8903POPC   C1B43675  13.362   0.411   6.455
 8903POPC   C2B43676  13.418   0.392   6.755
 8903POPC   C3B43677  13.336   0.437   7.055
 8903POPC   C4B43678  13.361   0.369   7.355
 8904POPC   NC343679  23.675  17.515   5.555
 8904POPC   PO443680  23.687  17.501   5.855
 8904POPC   GL143681  23.701  17.486   6.155
 8904POPC   GL243682  23.825  17.518   6.155
 8904POPC   C1A43683  23.742  17.495   6.455
 8904POPC   D2A43684  23.710  17.549   6.755
 8904POPC   C3A43685  23.711  17.460   7.055
 8904POPC   C4A43686  23.691  17.539   7.355
 8904POPC   C1B43687  23.975  17.646   6.455
 8904POPC   C2B43688  23.891  17.642   6.755
 8904POPC   C3B43689  23.965  17.611   7.055
 8904POPC   C4B43690  23.954  17.576   7.355
 8905POPC   NC343691  21.434   3.562   5.555
 8905POPC   PO443692  21.366   3.590   5.855
 8905POPC   GL143693  21.425   3.550   6.155
 8905POPC   GL243694  21.435   3.411   6.155
 8905POPC   C1A43695  21.341   3.553   6.455
 8905POPC   D2A43696  21.398   3.588   6.755
 8905POPC   C3A43697  21.369   3.572   7.055
 8905POPC   C4A43698  21.342   3.560   7.355
 8905POPC   C1B43699  21.486   3.323   6.455
 8905POPC   C2B43700  21.547   3.348   6.755
 8905POPC   C3B43701  21.555   3.293   7.055
 8905POPC   C4B43702  21.546   3.330   7.355
 8906POPC   NC343703   5.904  12.843   5.555
 8906POPC   PO443704   5.825  12.873   5.855
 8906POPC   GL143705   5.899  12.900   6.155
 8906POPC   GL243706   6.001  12.880   6.155
 8906POPC   C1A43707   5.852  12.869   6.455
 8906POPC   D2A43708   5.838  12.887   6.755
 8906POPC   C3A43709   5.840  12.809   7.055
 8906POPC   C4A43710   5.887  12.836   7.355
 8906POPC   C1B43711   6.137  12.898   6.455
 8906POPC   C2B43712   6.132  12.908   6.755
 8906POPC   C3B43713   6.160  12.891   7.055
 8906POPC   C4B43714   6.096  12.887   7.355
 8907POPC   NC343715  33.796   3.554   5.555
 8907POPC   PO443716  33.830   3.510   5.855
 8907POPC   GL143717  33.783   3.577   6.155
 8907POPC   GL243718  33.752   3.440   6.155
 8907POPC   C1A43719  33.847   3.565   6.455
 8907POPC   D2A43720  33.754   3.546   6.755
 8907POPC   C3A43721  33.820   3.525   7.055
 8907POPC   C4A43722  33.777   3.551   7.355
 8907POPC   C1B43723  33.682   3.304   6.455
 8907POPC   C2B43724  33.736   3.266   6.755
 8907POPC   C3B43725  33.688   3.317   7.055
 8907POPC   C4B43726  33.679   3.353   7.355
 8908POPC   NC343727   1.206   2.745   5.555
 8908POPC   PO443728   1.224   2.810   5.855
 8908POPC   GL143729   1.215   2.761   6.155
 8908POPC   GL243730   1.291   2.775   6.155
 8908POPC   C1A43731   1.237   2.792   6.455
 8908POPC   D2A43732   1.186   2.793   6.755
 8908POPC   C3A43733   1.190   2.786   7.055
 8908POPC   C4A43734   1.238   2.792   7.355
 8908POPC   C1B43735   1.504   2.770   6.455
 8908POPC   C2B43736   1.441   2.766   6.755
 8908POPC   C3B43737   1.469   2.779   7.055
 8908POPC   C4B43738   1.471   2.780   7.355
 8909POPC   NC343739  39.280  27.619   5.555
 8909POPC   PO443740  39.195  27.594   5.855
 8909POPC   GL143741  39.192  27.634   6.155
 8909POPC   GL243742  39.222  27.667   6.155
 8909POPC   C1A43743  39.267  27.604   6.455
 8909POPC   D2A43744  39.203  27.594   6.755
 8909POPC   C3A43745  39.193  27.567   7.055
 8909POPC   C4A43746  39.182  27.570   7.355
 8909POPC   C1B43747  39.236  27.834   6.455
 8909POPC   C2B43748  39.300  27.833   6.755
 8909POPC   C3B43749  39.290  27.855   7.055
 8909POPC   C4B43750  39.233  27.874   7.355
 8910POPC   NC343751  41.582  15.942   5.555
 8910POPC   PO443752  41.575  15.943   5.855
 8910POPC   GL143753  41.547  15.979   6.155
 8910POPC   GL243754  41.689  15.952   6.155
 8910POPC   C1A43755  41.538  15.987   6.455
 8910POPC   D2A43756  41.575  15.937   6.755
 8910POPC   C3A43757  41.530  15.969   7.055
 8910POPC   C4A43758  41.515  15.995   7.355
 8910POPC   C1B43759  41.802  15.942   6.455
 8910POPC   C2B43760  41.798  15.851   6.755
 8910POPC   C3B43761  41.828  15.878   7.055
 8910POPC   C4B43762  41.812  15.870   7.355
 8911POPC   NC343763  33.762  27.619   5.555
 8911POPC   PO443764  33.783  27.639   5.855
 8911POPC   GL143765  33.815  27.574   6.155
 8911POPC   GL243766  33.648  27.676   6.155
 8911POPC   C1A43767  33.838  27.547   6.455
 8911POPC   D2A43768  33.778  27.606   6.755
 8911POPC   C3A43769  33.831  27.634   7.055
 8911POPC   C4A43770  33.755  27.552   7.355
 8911POPC   C1B43771  33.579  27.718   6.455
 8911POPC   C2B43772  33.563  27.749   6.755
 8911POPC   C3B43773  33.620  27.716   7.055
 8911POPC   C4B43774  33.585  27.738   7.355
 8912POPC   NC343775  29.183  14.439   5.555
 8912POPC   PO443776  29.118  14.366   5.855
 8912POPC   GL143777  29.113  14.361   6.155
 8912POPC   GL243778  29.270  14.359   6.155
 8912POPC   C1A43779  29.139  14.391   6.455
 8912POPC   D2A43780  29.155  14.365   6.755
 8912POPC   C3A43781  29.122  14.377   7.055
 8912POPC   C4A43782  29.166  14.441   7.355
 8912POPC   C1B43783  29.400  14.229   6.455
 8912POPC   C2B43784  29.385  14.255   6.755
 8912POPC   C3B43785  29.358  14.279   7.055
 8912POPC   C4B43786  29.393  14.261   7.355
 8913POPC   NC343787  43.906  31.459   5.555
 8913POPC   PO443788  43.839  31.503   5.855
 8913POPC   GL143789  43.856  31.447   6.155
 8913POPC   GL243790  43.891  31.379   6.155
 8913POPC   C1A43791  43.871  31.453   6.455
 8913POPC   D2A43792  43.899  31.513   6.755
 8913POPC   C3A43793  43.912  31.425   7.055
 8913POPC   C4A43794  43.869  31.462   7.355
 8913POPC   C1B43795  43.838  31.187   6.455
 8913POPC   C2B43796  43.812  31.240   6.755
 8913POPC   C3B43797  43.858  31.218   7.055
 8913POPC   C4B43798  43.858  31.185   7.355
 8914POPC   NC343799  34.558   3.524   5.555
 8914POPC   PO443800  34.616   3.529   5.855
 8914POPC   GL143801  34.582   3.553   6.155
 8914POPC   GL243802  34.455   3.526   6.155
 8914POPC   C1A43803  34.593   3.503   6.455
 8914POPC   D2A43804  34.600   3.567   6.755
 8914POPC   C3A43805  34.536   3.565   7.055
 8914POPC   C4A43806  34.606   3.547   7.355
 8914POPC   C1B43807  34.373   3.538   6.455
 8914POPC   C2B43808  34.321   3.599   6.755
 8914POPC   C3B43809  34.341   3.581   7.055
 8914POPC   C4B43810  34.375   3.542   7.355
 8915POPC   NC343811  11.305  18.325   5.555
 8915POPC   PO443812  11.278  18.269   5.855
 8915POPC   GL143813  11.259  18.316   6.155
 8915POPC   GL243814  11.381  18.196   6.155
 8915POPC   C1A43815  11.253  18.239   6.455
 8915POPC   D2A43816  11.334  18.239   6.755
 8915POPC   C3A43817  11.278  18.283   7.055
 8915POPC   C4A43818  11.285  18.329   7.355
 8915POPC   C1B43819  11.397  18.094   6.455
 8915POPC   C2B43820  11.387  18.012   6.755
 8915POPC   C3B43821  11.364  18.041   7.055
 8915POPC   C4B43822  11.418  18.059   7.355
 8916POPC   NC343823  11.261  40.775   5.555
 8916POPC   PO443824  11.327  40.809   5.855
 8916POPC   GL143825  11.286  40.785   6.155
 8916POPC   GL243826  11.219  40.659   6.155
 8916POPC   C1A43827  11.256  40.808   6.455
 8916POPC   D2A43828  11.269  40.756   6.755
 8916POPC   C3A43829  11.328  40.831   7.055
 8916POPC   C4A43830  11.314  40.748   7.355
 8916POPC   C1B43831  11.268  40.571   6.455
 8916POPC   C2B43832  11.252  40.554   6.755
 8916POPC   C3B43833  11.215  40.545   7.055
 8916POPC   C4B43834  11.265  40.526   7.355
 8917POPC   NC343835  35.398  19.068   5.555
 8917POPC   PO443836  35.388  19.029   5.855
 8917POPC   GL143837  35.320  19.035   6.155
 8917POPC   GL243838  35.375  18.910   6.155
 8917POPC   C1A43839  35.377  19.012   6.455
 8917POPC   D2A43840  35.350  19.088   6.755
 8917POPC   C3A43841  35.345  19.089   7.055
 8917POPC   C4A43842  35.350  19.077   7.355
 8917POPC   C1B43843  35.499  18.811   6.455
 8917POPC   C2B43844  35.494  18.881   6.755
 8917POPC   C3B43845  35.538  18.822   7.055
 8917POPC   C4B43846  35.446  18.843   7.355
 8918POPC   NC343847   1.259   0.469   5.555
 8918POPC   PO443848   1.186   0.428   5.855
 8918POPC   GL143849   1.261   0.485   6.155
 8918POPC   GL243850   1.137   0.552   6.155
 8918POPC   C1A43851   1.249   0.474   6.455
 8918POPC   D2A43852   1.258   0.486   6.755
 8918POPC   C3A43853   1.238   0.402   7.055
 8918POPC   C4A43854   1.264   0.417   7.355
 8918POPC   C1B43855   1.110   0.638   6.455
 8918POPC   C2B43856   1.076   0.672   6.755
 8918POPC   C3B43857   1.113   0.619   7.055
 8918POPC   C4B43858   1.103   0.631   7.355
 8919POPC   NC343859   9.779  36.126   5.555
 8919POPC   PO443860   9.788  36.116   5.855
 8919POPC   GL143861   9.778  36.096   6.155
 8919POPC   GL243862   9.901  36.103   6.155
 8919POPC   C1A43863   9.699  36.162   6.455
 8919POPC   D2A43864   9.795  36.085   6.755
 8919POPC   C3A43865   9.738  36.150   7.055
 8919POPC   C4A43866   9.705  36.081   7.355
 8919POPC   C1B43867  10.011  36.043   6.455
 8919POPC   C2B43868  10.006  36.062   6.755
 8919POPC   C3B43869   9.973  36.066   7.055
 8919POPC   C4B43870  10.024  36.062   7.355
 8920POPC   NC343871  43.905  13.675   5.555
 8920POPC   PO443872  43.913  13.667   5.855
 8920POPC   GL143873  43.930  13.616   6.155
 8920POPC   GL243874  43.961  13.530   6.155
 8920POPC   C1A43875  43.843  13.668   6.455
 8920POPC   D2A43876  43.911  13.641   6.755
 8920POPC   C3A43877  43.888  13.610   7.055
 8920POPC   C4A43878  43.922  13.643   7.355
 8920POPC   C1B43879  44.156  13.496   6.455
 8920POPC   C2B43880  44.081  13.571   6.755
 8920POPC   C3B43881  44.111  13.575   7.055
 8920POPC   C4B43882  44.118  13.559   7.355
 8921POPC   NC343883  35.399  12.055   5.555
 8921POPC   PO443884  35.392  12.109   5.855
 8921POPC   GL143885  35.400  12.087   6.155
 8921POPC   GL243886  35.310  12.134   6.155
 8921POPC   C1A43887  35.309  12.079   6.455
 8921POPC   D2A43888  35.373  12.030   6.755
 8921POPC   C3A43889  35.364  12.038   7.055
 8921POPC   C4A43890  35.385  12.066   7.355
 8921POPC   C1B43891  35.167  12.269   6.455
 8921POPC   C2B43892  35.166  12.303   6.755
 8921POPC   C3B43893  35.246  12.248   7.055
 8921POPC   C4B43894  35.245  12.330   7.355
 8922POPC   NC343895  42.382  13.673   5.555
 8922POPC   PO443896  42.356  13.614   5.855
 8922POPC   GL143897  42.300  13.618   6.155
 8922POPC   GL243898  42.365  13.500   6.155
 8922POPC   C1A43899  42.330  13.602   6.455
 8922POPC   D2A43900  42.343  13.607   6.755
 8922POPC   C3A43901  42.350  13.637   7.055
 8922POPC   C4A43902  42.293  13.627   7.355
 8922POPC   C1B43903  42.419  13.386   6.455
 8922POPC   C2B43904  42.427  13.439   6.755
 8922POPC   C3B43905  42.472  13.421   7.055
 8922POPC   C4B43906  42.387  13.363   7.355
 8923POPC   NC343907   3.519  23.756   5.555
 8923POPC   PO443908   3.564  23.666   5.855
 8923POPC   GL143909   3.549  23.710   6.155
 8923POPC   GL243910   3.427  23.789   6.155
 8923POPC   C1A43911   3.585  23.697   6.455
 8923POPC   D2A43912   3.551  23.708   6.755
 8923POPC   C3A43913   3.541  23.664   7.055
 8923POPC   C4A43914   3.506  23.721   7.355
 8923POPC   C1B43915   3.329  23.874   6.455
 8923POPC   C2B43916   3.383  23.869   6.755
 8923POPC   C3B43917   3.351  23.946   7.055
 8923POPC   C4B43918   3.398  23.910   7.355
 8924POPC   NC343919   7.383   1.980   5.555
 8924POPC   PO443920   7.388   2.014   5.855
 8924POPC   GL143921   7.378   2.036   6.155
 8924POPC   GL243922   7.498   2.102   6.155
 8924POPC   C1A43923   7.415   1.984   6.455
 8924POPC   D2A43924   7.404   1.944   6.755
 8924POPC   C3A43925   7.450   2.035   7.055
 8924POPC   C4A43926   7.425   2.025   7.355
 8924POPC   C1B43927   7.468   2.253   6.455
 8924POPC   C2B43928   7.478   2.276   6.755
 8924POPC   C3B43929   7.462   2.234   7.055
 8924POPC   C4B43930   7.527   2.219   7.355
 8925POPC   NC343931   8.977   5.829   5.555
 8925POPC   PO443932   9.014   5.826   5.855
 8925POPC   GL143933   9.003   5.869   6.155
 8925POPC   GL243934   9.076   5.820   6.155
 8925POPC   C1A43935   8.942   5.821   6.455
 8925POPC   D2A43936   8.960   5.914   6.755
 8925POPC   C3A43937   8.966   5.852   7.055
 8925POPC   C4A43938   8.967   5.849   7.355
 8925POPC   C1B43939   9.159   5.691   6.455
 8925POPC   C2B43940   9.139   5.727   6.755
 8925POPC   C3B43941   9.174   5.784   7.055
 8925POPC   C4B43942   9.151   5.775   7.355
 8926POPC   NC343943   3.533   8.161   5.555
 8926POPC   PO443944   3.583   8.205   5.855
 8926POPC   GL143945   3.520   8.203   6.155
 8926POPC   GL243946   3.573   8.041   6.155
 8926POPC   C1A43947   3.538   8.228   6.455
 8926POPC   D2A43948   3.540   8.159   6.755
 8926POPC   C3A43949   3.501   8.152   7.055
 8926POPC   C4A43950   3.539   8.200   7.355
 8926POPC   C1B43951   3.519   7.924   6.455
 8926POPC   C2B43952   3.542   7.928   6.755
 8926POPC   C3B43953   3.600   7.979   7.055
 8926POPC   C4B43954   3.532   7.898   7.355
 8927POPC   NC343955  42.306  44.666   5.555
 8927POPC   PO443956  42.331  44.620   5.855
 8927POPC   GL143957  42.381  44.635   6.155
 8927POPC   GL243958  42.295  44.765   6.155
 8927POPC   C1A43959  42.322  44.699   6.455
 8927POPC   D2A43960  42.354  44.653   6.755
 8927POPC   C3A43961  42.348  44.616   7.055
 8927POPC   C4A43962  42.317  44.628   7.355
 8927POPC   C1B43963  42.315  44.912   6.455
 8927POPC   C2B43964  42.268  44.885   6.755
 8927POPC   C3B43965  42.276  44.891   7.055
 8927POPC   C4B43966  42.320  44.898   7.355
 8928POPC   NC343967  32.282   9.712   5.555
 8928POPC   PO443968  32.229   9.724   5.855
 8928POPC   GL143969  32.224   9.741   6.155
 8928POPC   GL243970  32.133   9.723   6.155
 8928POPC   C1A43971  32.260   9.707   6.455
 8928POPC   D2A43972  32.287   9.701   6.755
 8928POPC   C3A43973  32.203   9.717   7.055
 8928POPC   C4A43974  32.276   9.754   7.355
 8928POPC   C1B43975  32.033   9.585   6.455
 8928POPC   C2B43976  32.007   9.592   6.755
 8928POPC   C3B43977  31.996   9.656   7.055
 8928POPC   C4B43978  32.002   9.602   7.355
 8929POPC   NC343979  31.451  19.874   5.555
 8929POPC   PO443980  31.449  19.858   5.855
 8929POPC   GL143981  31.472  19.822   6.155
 8929POPC   GL243982  31.444  19.991   6.155
 8929POPC   C1A43983  31.459  19.806   6.455
 8929POPC   D2A43984  31.491  19.862   6.755
 8929POPC   C3A43985  31.486  19.838   7.055
 8929POPC   C4A43986  31.450  19.833   7.355
 8929POPC   C1B43987  31.416  20.033   6.455
 8929POPC   C2B43988  31.374  20.097   6.755
 8929POPC   C3B43989  31.433  20.103   7.055
 8929POPC   C4B43990  31.394  20.030   7.355
 8930POPC   NC343991  11.308  36.895   5.555
 8930POPC   PO443992  11.346  36.933   5.855
 8930POPC   GL143993  11.338  36.863   6.155
 8930POPC   GL243994  11.193  36.853   6.155
 8930POPC   C1A43995  11.342  36.952   6.455
 8930POPC   D2A43996  11.251  36.940   6.755
 8930POPC   C3A43997  11.259  36.909   7.055
 8930POPC   C4A43998  11.306  36.869   7.355
 8930POPC   C1B43999  11.151  36.697   6.455
 8930POPC   C2B44000  11.130  36.671   6.755
 8930POPC   C3B44001  11.143  36.732   7.055
 8930POPC   C4B44002  11.165  36.745   7.355
 8931POPC   NC344003  39.181  26.062   5.555
 8931POPC   PO444004  39.198  26.027   5.855
 8931POPC   GL144005  39.269  26.036   6.155
 8931POPC   GL244006  39.158  26.014   6.155
 8931POPC   C1A44007  39.253  26.090   6.455
 8931POPC   D2A44008  39.186  26.065   6.755
 8931POPC   C3A44009  39.228  26.027   7.055
 8931POPC   C4A44010  39.186  26.044   7.355
 8931POPC   C1B44011  38.984  25.880   6.455
 8931POPC   C2B44012  39.061  25.934   6.755
 8931POPC   C3B44013  38.990  25.909   7.055
 8931POPC   C4B44014  39.044  25.887   7.355
 8932POPC   NC344015  20.585  28.370   5.555
 8932POPC   PO444016  20.635  28.330   5.855
 8932POPC   GL144017  20.633  28.330   6.155
 8932POPC   GL244018  20.569  28.449   6.155
 8932POPC   C1A44019  20.656  28.332   6.455
 8932POPC   D2A44020  20.573  28.334   6.755
 8932POPC   C3A44021  20.641  28.342   7.055
 8932POPC   C4A44022  20.652  28.346   7.355
 8932POPC   C1B44023  20.661  28.668   6.455
 8932POPC   C2B44024  20.628  28.571   6.755
 8932POPC   C3B44025  20.604  28.594   7.055
 8932POPC   C4B44026  20.658  28.625   7.355
 8933POPC   NC344027  15.910  29.955   5.555
 8933POPC   PO444028  15.963  29.920   5.855
 8933POPC   GL144029  15.928  29.954   6.155
 8933POPC   GL244030  16.096  29.961   6.155
 8933POPC   C1A44031  15.934  29.878   6.455
 8933POPC   D2A44032  15.933  29.872   6.755
 8933POPC   C3A44033  15.923  29.873   7.055
 8933POPC   C4A44034  15.938  29.970   7.355
 8933POPC   C1B44035  16.198  30.034   6.455
 8933POPC   C2B44036  16.207  30.015   6.755
 8933POPC   C3B44037  16.141  29.964   7.055
 8933POPC   C4B44038  16.157  30.050   7.355
 8934POPC   NC344039  35.342  32.206   5.555
 8934POPC   PO444040  35.321  32.224   5.855
 8934POPC   GL144041  35.327  32.281   6.155
 8934POPC   GL244042  35.412  32.136   6.155
 8934POPC   C1A44043  35.350  32.233   6.455
 8934POPC   D2A44044  35.310  32.274   6.755
 8934POPC   C3A44045  35.312  32.277   7.055
 8934POPC   C4A44046  35.380  32.236   7.355
 8934POPC   C1B44047  35.465  32.037   6.455
 8934POPC   C2B44048  35.399  32.027   6.755
 8934POPC   C3B44049  35.432  31.987   7.055
 8934POPC   C4B44050  35.421  32.023   7.355
 8935POPC   NC344051   5.839  33.753   5.555
 8935POPC   PO444052   5.901  33.752   5.855
 8935POPC   GL144053   5.857  33.830   6.155
 8935POPC   GL244054   5.956  33.743   6.155
 8935POPC   C1A44055   5.845  33.821   6.455
 8935POPC   D2A44056   5.852  33.815   6.755
 8935POPC   C3A44057   5.884  33.836   7.055
 8935POPC   C4A44058   5.825  33.788   7.355
 8935POPC   C1B44059   6.093  33.765   6.455
 8935POPC   C2B44060   6.073  33.733   6.755
 8935POPC   C3B44061   6.117  33.725   7.055
 8935POPC   C4B44062   6.081  33.737   7.355
 8936POPC   NC344063  38.444  22.193   5.555
 8936POPC   PO444064  38.421  22.184   5.855
 8936POPC   GL144065  38.468  22.134   6.155
 8936POPC   GL244066  38.353  22.166   6.155
 8936POPC   C1A44067  38.438  22.184   6.455
 8936POPC   D2A44068  38.484  22.210   6.755
 8936POPC   C3A44069  38.469  22.158   7.055
 8936POPC   C4A44070  38.430  22.167   7.355
 8936POPC   C1B44071  38.166  22.108   6.455
 8936POPC   C2B44072  38.243  22.177   6.755
 8936POPC   C3B44073  38.188  22.177   7.055
 8936POPC   C4B44074  38.207  22.140   7.355
 8937POPC   NC344075   8.992   0.407   5.555
 8937POPC   PO444076   8.990   0.486   5.855
 8937POPC   GL144077   8.973   0.450   6.155
 8937POPC   GL244078   8.981   0.346   6.155
 8937POPC   C1A44079   8.995   0.468   6.455
 8937POPC   D2A44080   8.962   0.439   6.755
 8937POPC   C3A44081   8.922   0.403   7.055
 8937POPC   C4A44082   9.017   0.424   7.355
 8937POPC   C1B44083   8.980   0.142   6.455
 8937POPC   C2B44084   8.954   0.181   6.755
 8937POPC   C3B44085   8.945   0.228   7.055
 8937POPC   C4B44086   8.929   0.219   7.355
 8938POPC   NC344087  12.826  11.263   5.555
 8938POPC   PO444088  12.899  11.326   5.855
 8938POPC   GL144089  12.822  11.322   6.155
 8938POPC   GL244090  12.956  11.272   6.155
 8938POPC   C1A44091  12.832  11.256   6.455
 8938POPC   D2A44092  12.868  11.314   6.755
 8938POPC   C3A44093  12.804  11.259   7.055
 8938POPC   C4A44094  12.820  11.330   7.355
 8938POPC   C1B44095  13.096  11.282   6.455
 8938POPC   C2B44096  13.068  11.232   6.755
 8938POPC   C3B44097  13.066  11.235   7.055
 8938POPC   C4B44098  13.077  11.268   7.355
 8939POPC   NC344099  22.904  15.219   5.555
 8939POPC   PO444100  22.922  15.150   5.855
 8939POPC   GL144101  22.897  15.206   6.155
 8939POPC   GL244102  23.034  15.251   6.155
 8939POPC   C1A44103  22.958  15.176   6.455
 8939POPC   D2A44104  22.888  15.173   6.755
 8939POPC   C3A44105  22.941  15.133   7.055
 8939POPC   C4A44106  22.924  15.199   7.355
 8939POPC   C1B44107  23.222  15.276   6.455
 8939POPC   C2B44108  23.193  15.280   6.755
 8939POPC   C3B44109  23.147  15.245   7.055
 8939POPC   C4B44110  23.213  15.213   7.355
 8940POPC   NC344111   8.242  33.832   5.555
 8940POPC   PO444112   8.186  33.842   5.855
 8940POPC   GL144113   8.234  33.846   6.155
 8940POPC   GL244114   8.104  33.940   6.155
 8940POPC   C1A44115   8.203  33.831   6.455
 8940POPC   D2A44116   8.189  33.847   6.755
 8940POPC   C3A44117   8.188  33.780   7.055
 8940POPC   C4A44118   8.147  33.789   7.355
 8940POPC   C1B44119   8.004  33.961   6.455
 8940POPC   C2B44120   8.051  34.017   6.755
 8940POPC   C3B44121   8.049  33.963   7.055
 8940POPC   C4B44122   8.011  33.994   7.355
 8941POPC   NC344123  13.635  25.270   5.555
 8941POPC   PO444124  13.649  25.252   5.855
 8941POPC   GL144125  13.609  25.220   6.155
 8941POPC   GL244126  13.624  25.378   6.155
 8941POPC   C1A44127  13.600  25.301   6.455
 8941POPC   D2A44128  13.646  25.283   6.755
 8941POPC   C3A44129  13.671  25.305   7.055
 8941POPC   C4A44130  13.653  25.297   7.355
 8941POPC   C1B44131  13.514  25.452   6.455
 8941POPC   C2B44132  13.578  25.535   6.755
 8941POPC   C3B44133  13.543  25.472   7.055
 8941POPC   C4B44134  13.503  25.467   7.355
 8942POPC   NC344135  11.332   3.556   5.555
 8942POPC   PO444136  11.299   3.502   5.855
 8942POPC   GL144137  11.340   3.502   6.155
 8942POPC   GL244138  11.469   3.563   6.155
 8942POPC   C1A44139  11.345   3.526   6.455
 8942POPC   D2A44140  11.256   3.577   6.755
 8942POPC   C3A44141  11.311   3.563   7.055
 8942POPC   C4A44142  11.346   3.504   7.355
 8942POPC   C1B44143  11.570   3.583   6.455
 8942POPC   C2B44144  11.503   3.643   6.755
 8942POPC   C3B44145  11.529   3.563   7.055
 8942POPC   C4B44146  11.529   3.558   7.355
 8943POPC   NC344147  14.406  15.139   5.555
 8943POPC   PO444148  14.394  15.156   5.855
 8943POPC   GL144149  14.388  15.158   6.155
 8943POPC   GL244150  14.531  15.220   6.155
 8943POPC   C1A44151  14.412  15.140   6.455
 8943POPC   D2A44152  14.357  15.220   6.755
 8943POPC   C3A44153  14.450  15.150   7.055
 8943POPC   C4A44154  14.407  15.172   7.355
 8943POPC   C1B44155  14.612  15.237   6.455
 8943POPC   C2B44156  14.637  15.263   6.755
 8943POPC   C3B44157  14.685  15.203   7.055
 8943POPC   C4B44158  14.649  15.243   7.355
 8944POPC   NC344159  11.322  41.573   5.555
 8944POPC   PO444160  11.325  41.518   5.855
 8944POPC   GL144161  11.319  41.546   6.155
 8944POPC   GL244162  11.217  41.637   6.155
 8944POPC   C1A44163  11.277  41.599   6.455
 8944POPC   D2A44164  11.282  41.603   6.755
 8944POPC   C3A44165  11.349  41.591   7.055
 8944POPC   C4A44166  11.346  41.541   7.355
 8944POPC   C1B44167  11.090  41.718   6.455
 8944POPC   C2B44168  11.083  41.667   6.755
 8944POPC   C3B44169  11.109  41.654   7.055
 8944POPC   C4B44170  11.053  41.697   7.355
 8945POPC   NC344171  12.039  41.597   5.555
 8945POPC   PO444172  12.076  41.547   5.855
 8945POPC   GL144173  12.089  41.547   6.155
 8945POPC   GL244174  12.016  41.707   6.155
 8945POPC   C1A44175  12.071  41.580   6.455
 8945POPC   D2A44176  12.118  41.607   6.755
 8945POPC   C3A44177  12.100  41.603   7.055
 8945POPC   C4A44178  12.049  41.529   7.355
 8945POPC   C1B44179  11.961  41.744   6.455
 8945POPC   C2B44180  11.910  41.729   6.755
 8945POPC   C3B44181  11.933  41.813   7.055
 8945POPC   C4B44182  11.920  41.762   7.355
 8946POPC   NC344183  40.004  27.583   5.555
 8946POPC   PO444184  39.957  27.628   5.855
 8946POPC   GL144185  40.020  27.637   6.155
 8946POPC   GL244186  40.019  27.485   6.155
 8946POPC   C1A44187  39.963  27.603   6.455
 8946POPC   D2A44188  39.982  27.596   6.755
 8946POPC   C3A44189  40.042  27.586   7.055
 8946POPC   C4A44190  40.027  27.634   7.355
 8946POPC   C1B44191  39.988  27.321   6.455
 8946POPC   C2B44192  39.960  27.375   6.755
 8946POPC   C3B44193  40.012  27.363   7.055
 8946POPC   C4B44194  39.984  27.371   7.355
 8947POPC   NC344195  24.472  19.106   5.555
 8947POPC   PO444196  24.477  19.099   5.855
 8947POPC   GL144197  24.503  19.015   6.155
 8947POPC   GL244198  24.480  19.226   6.155
 8947POPC   C1A44199  24.459  19.025   6.455
 8947POPC   D2A44200  24.537  19.099   6.755
 8947POPC   C3A44201  24.478  19.031   7.055
 8947POPC   C4A44202  24.474  19.063   7.355
 8947POPC   C1B44203  24.506  19.274   6.455
 8947POPC   C2B44204  24.463  19.285   6.755
 8947POPC   C3B44205  24.508  19.333   7.055
 8947POPC   C4B44206  24.545  19.342   7.355
 8948POPC   NC344207  29.193  18.288   5.555
 8948POPC   PO444208  29.120  18.267   5.855
 8948POPC   GL144209  29.193  18.289   6.155
 8948POPC   GL244210  29.078  18.139   6.155
 8948POPC   C1A44211  29.169  18.297   6.455
 8948POPC   D2A44212  29.155  18.241   6.755
 8948POPC   C3A44213  29.171  18.317   7.055
 8948POPC   C4A44214  29.158  18.273   7.355
 8948POPC   C1B44215  29.059  18.047   6.455
 8948POPC   C2B44216  29.023  18.104   6.755
 8948POPC   C3B44217  29.016  18.025   7.055
 8948POPC   C4B44218  28.964  18.100   7.355
 8949POPC   NC344219  39.258  18.260   5.555
 8949POPC   PO444220  39.252  18.290   5.855
 8949POPC   GL144221  39.195  18.270   6.155
 8949POPC   GL244222  39.188  18.187   6.155
 8949POPC   C1A44223  39.267  18.298   6.455
 8949POPC   D2A44224  39.273  18.233   6.755
 8949POPC   C3A44225  39.226  18.312   7.055
 8949POPC   C4A44226  39.271  18.287   7.355
 8949POPC   C1B44227  39.112  18.086   6.455
 8949POPC   C2B44228  39.098  18.070   6.755
 8949POPC   C3B44229  39.154  18.046   7.055
 8949POPC   C4B44230  39.144  18.046   7.355
 8950POPC   NC344231   2.746   9.775   5.555
 8950POPC   PO444232   2.730   9.719   5.855
 8950POPC   GL144233   2.807   9.746   6.155
 8950POPC   GL244234   2.666   9.845   6.155
 8950POPC   C1A44235   2.750   9.790   6.455
 8950POPC   D2A44236   2.758   9.759   6.755
 8950POPC   C3A44237   2.800   9.724   7.055
 8950POPC   C4A44238   2.775   9.746   7.355
 8950POPC   C1B44239   2.504   9.822   6.455
 8950POPC   C2B44240   2.561   9.843   6.755
 8950POPC   C3B44241   2.534   9.846   7.055
 8950POPC   C4B44242   2.548   9.872   7.355
 8951POPC   NC344243  40.813  12.853   5.555
 8951POPC   PO444244  40.802  12.815   5.855
 8951POPC   GL144245  40.772  12.875   6.155
 8951POPC   GL244246  40.674  12.784   6.155
 8951POPC   C1A44247  40.789  12.819   6.455
 8951POPC   D2A44248  40.815  12.870   6.755
 8951POPC   C3A44249  40.772  12.898   7.055
 8951POPC   C4A44250  40.829  12.822   7.355
 8951POPC   C1B44251  40.658  12.668   6.455
 8951POPC   C2B44252  40.633  12.668   6.755
 8951POPC   C3B44253  40.703  12.589   7.055
 8951POPC   C4B44254  40.671  12.639   7.355
 8952POPC   NC344255   2.779  22.921   5.555
 8952POPC   PO444256   2.775  22.962   5.855
 8952POPC   GL144257   2.795  22.900   6.155
 8952POPC   GL244258   2.816  23.018   6.155
 8952POPC   C1A44259   2.736  22.940   6.455
 8952POPC   D2A44260   2.727  22.979   6.755
 8952POPC   C3A44261   2.804  22.946   7.055
 8952POPC   C4A44262   2.734  22.937   7.355
 8952POPC   C1B44263   2.988  23.071   6.455
 8952POPC   C2B44264   2.916  23.117   6.755
 8952POPC   C3B44265   2.912  23.145   7.055
 8952POPC   C4B44266   2.942  23.110   7.355
 8953POPC   NC344267  15.924  19.089   5.555
 8953POPC   PO444268  15.940  19.061   5.855
 8953POPC   GL144269  15.940  19.019   6.155
 8953POPC   GL244270  15.960  19.136   6.155
 8953POPC   C1A44271  16.000  19.103   6.455
 8953POPC   D2A44272  15.978  19.011   6.755
 8953POPC   C3A44273  15.962  19.099   7.055
 8953POPC   C4A44274  15.923  19.072   7.355
 8953POPC   C1B44275  16.007  19.265   6.455
 8953POPC   C2B44276  16.032  19.349   6.755
 8953POPC   C3B44277  15.980  19.272   7.055
 8953POPC   C4B44278  16.034  19.313   7.355
 8954POPC   NC344279   4.275   2.016   5.555
 8954POPC   PO444280   4.355   1.940   5.855
 8954POPC   GL144281   4.319   1.990   6.155
 8954POPC   GL244282   4.308   2.133   6.155
 8954POPC   C1A44283   4.365   1.950   6.455
 8954POPC   D2A44284   4.292   2.039   6.755
 8954POPC   C3A44285   4.346   1.998   7.055
 8954POPC   C4A44286   4.352   2.012   7.355
 8954POPC   C1B44287   4.235   2.236   6.455
 8954POPC   C2B44288   4.233   2.263   6.755
 8954POPC   C3B44289   4.218   2.217   7.055
 8954POPC   C4B44290   4.234   2.268   7.355
 8955POPC   NC344291  33.780  43.854   5.555
 8955POPC   PO444292  33.751  43.934   5.855
 8955POPC   GL144293  33.830  43.892   6.155
 8955POPC   GL244294  33.919  43.801   6.155
 8955POPC   C1A44295  33.756  43.881   6.455
 8955POPC   D2A44296  33.797  43.901   6.755
 8955POPC   C3A44297  33.834  43.933   7.055
 8955POPC   C4A44298  33.752  43.921   7.355
 8955POPC   C1B44299  34.019  43.828   6.455
 8955POPC   C2B44300  34.012  43.761   6.755
 8955POPC   C3B44301  34.076  43.776   7.055
 8955POPC   C4B44302  34.065  43.822   7.355
 8956POPC   NC344303  29.162   5.108   5.555
 8956POPC   PO444304  29.164   5.133   5.855
 8956POPC   GL144305  29.134   5.098   6.155
 8956POPC   GL244306  29.045   5.006   6.155
 8956POPC   C1A44307  29.120   5.139   6.455
 8956POPC   D2A44308  29.170   5.108   6.755
 8956POPC   C3A44309  29.146   5.104   7.055
 8956POPC   C4A44310  29.188   5.058   7.355
 8956POPC   C1B44311  28.965   5.015   6.455
 8956POPC   C2B44312  28.910   4.987   6.755
 8956POPC   C3B44313  28.922   4.984   7.055
 8956POPC   C4B44314  28.922   4.992   7.355
 8957POPC   NC344315  15.225  27.618   5.555
 8957POPC   PO444316  15.163  27.544   5.855
 8957POPC   GL144317  15.175  27.578   6.155
 8957POPC   GL244318  15.094  27.522   6.155
 8957POPC   C1A44319  15.201  27.615   6.455
 8957POPC   D2A44320  15.179  27.631   6.755
 8957POPC   C3A44321  15.154  27.585   7.055
 8957POPC   C4A44322  15.202  27.619   7.355
 8957POPC   C1B44323  14.970  27.518   6.455
 8957POPC   C2B44324  14.916  27.490   6.755
 8957POPC   C3B44325  14.926  27.465   7.055
 8957POPC   C4B44326  14.988  27.468   7.355
 8958POPC   NC344327  25.993  27.605   5.555
 8958POPC   PO444328  26.033  27.599   5.855
 8958POPC   GL144329  26.067  27.581   6.155
 8958POPC   GL244330  26.144  27.553   6.155
 8958POPC   C1A44331  26.036  27.549   6.455
 8958POPC   D2A44332  25.995  27.574   6.755
 8958POPC   C3A44333  26.024  27.629   7.055
 8958POPC   C4A44334  26.027  27.633   7.355
 8958POPC   C1B44335  26.194  27.463   6.455
 8958POPC   C2B44336  26.258  27.432   6.755
 8958POPC   C3B44337  26.258  27.458   7.055
 8958POPC   C4B44338  26.191  27.419   7.355
 8959POPC   NC344339   8.995  22.199   5.555
 8959POPC   PO444340   9.014  22.155   5.855
 8959POPC   GL144341   9.000  22.172   6.155
 8959POPC   GL244342   9.105  22.216   6.155
 8959POPC   C1A44343   9.010  22.133   6.455
 8959POPC   D2A44344   8.997  22.203   6.755
 8959POPC   C3A44345   9.001  22.193   7.055
 8959POPC   C4A44346   8.945  22.152   7.355
 8959POPC   C1B44347   9.189  22.257   6.455
 8959POPC   C2B44348   9.239  22.277   6.755
 8959POPC   C3B44349   9.245  22.281   7.055
 8959POPC   C4B44350   9.197  22.297   7.355
 8960POPC   NC344351  26.783  30.648   5.555
 8960POPC   PO444352  26.770  30.686   5.855
 8960POPC   GL144353  26.777  30.716   6.155
 8960POPC   GL244354  26.812  30.844   6.155
 8960POPC   C1A44355  26.808  30.685   6.455
 8960POPC   D2A44356  26.850  30.688   6.755
 8960POPC   C3A44357  26.814  30.649   7.055
 8960POPC   C4A44358  26.839  30.731   7.355
 8960POPC   C1B44359  26.679  30.899   6.455
 8960POPC   C2B44360  26.678  30.938   6.755
 8960POPC   C3B44361  26.738  30.951   7.055
 8960POPC   C4B44362  26.733  30.888   7.355
 8961POPC   NC344363  40.746  22.952   5.555
 8961POPC   PO444364  40.830  22.944   5.855
 8961POPC   GL144365  40.742  22.890   6.155
 8961POPC   GL244366  40.710  22.924   6.155
 8961POPC   C1A44367  40.768  22.958   6.455
 8961POPC   D2A44368  40.755  22.983   6.755
 8961POPC   C3A44369  40.809  22.919   7.055
 8961POPC   C4A44370  40.743  22.924   7.355
 8961POPC   C1B44371  40.503  22.894   6.455
 8961POPC   C2B44372  40.581  22.851   6.755
 8961POPC   C3B44373  40.501  22.871   7.055
 8961POPC   C4B44374  40.520  22.861   7.355
 8962POPC   NC344375  12.868   4.311   5.555
 8962POPC   PO444376  12.831   4.324   5.855
 8962POPC   GL144377  12.873   4.281   6.155
 8962POPC   GL244378  12.719   4.358   6.155
 8962POPC   C1A44379  12.806   4.301   6.455
 8962POPC   D2A44380  12.871   4.293   6.755
 8962POPC   C3A44381  12.892   4.342   7.055
 8962POPC   C4A44382  12.890   4.303   7.355
 8962POPC   C1B44383  12.647   4.457   6.455
 8962POPC   C2B44384  12.695   4.518   6.755
 8962POPC   C3B44385  12.630   4.454   7.055
 8962POPC   C4B44386  12.658   4.508   7.355
 8963POPC   NC344387  20.658   2.728   5.555
 8963POPC   PO444388  20.659   2.730   5.855
 8963POPC   GL144389  20.592   2.751   6.155
 8963POPC   GL244390  20.468   2.757   6.155
 8963POPC   C1A44391  20.613   2.769   6.455
 8963POPC   D2A44392  20.651   2.785   6.755
 8963POPC   C3A44393  20.620   2.748   7.055
 8963POPC   C4A44394  20.660   2.738   7.355
 8963POPC   C1B44395  20.393   2.830   6.455
 8963POPC   C2B44396  20.346   2.813   6.755
 8963POPC   C3B44397  20.387   2.793   7.055
 8963POPC   C4B44398  20.350   2.844   7.355
 8964POPC   NC344399  38.408  40.030   5.555
 8964POPC   PO444400  38.448  39.989   5.855
 8964POPC   GL144401  38.413  40.017   6.155
 8964POPC   GL244402  38.517  40.094   6.155
 8964POPC   C1A44403  38.464  40.016   6.455
 8964POPC   D2A44404  38.456  39.976   6.755
 8964POPC   C3A44405  38.441  40.025   7.055
 8964POPC   C4A44406  38.474  40.021   7.355
 8964POPC   C1B44407  38.449  40.255   6.455
 8964POPC   C2B44408  38.481  40.288   6.755
 8964POPC   C3B44409  38.446  40.300   7.055
 8964POPC   C4B44410  38.522  40.244   7.355
 8965POPC   NC344411   1.964  17.459   5.555
 8965POPC   PO444412   1.954  17.545   5.855
 8965POPC   GL144413   2.019  17.545   6.155
 8965POPC   GL244414   2.052  17.398   6.155
 8965POPC   C1A44415   2.027  17.546   6.455
 8965POPC   D2A44416   1.988  17.461   6.755
 8965POPC   C3A44417   2.008  17.488   7.055
 8965POPC   C4A44418   1.950  17.554   7.355
 8965POPC   C1B44419   2.182  17.326   6.455
 8965POPC   C2B44420   2.191  17.379   6.755
 8965POPC   C3B44421   2.196  17.367   7.055
 8965POPC   C4B44422   2.176  17.326   7.355
 8966POPC   NC344423  14.357  28.365   5.555
 8966POPC   PO444424  14.445  28.387   5.855
 8966POPC   GL144425  14.424  28.404   6.155
 8966POPC   GL244426  14.366  28.293   6.155
 8966POPC   C1A44427  14.370  28.409   6.455
 8966POPC   D2A44428  14.382  28.324   6.755
 8966POPC   C3A44429  14.405  28.336   7.055
 8966POPC   C4A44430  14.437  28.363   7.355
 8966POPC   C1B44431  14.414  28.087   6.455
 8966POPC   C2B44432  14.430  28.097   6.755
 8966POPC   C3B44433  14.450  28.164   7.055
 8966POPC   C4B44434  14.462  28.154   7.355
 8967POPC   NC344435  29.883  30.663   5.555
 8967POPC   PO444436  29.964  30.714   5.855
 8967POPC   GL144437  29.896  30.711   6.155
 8967POPC   GL244438  30.050  30.746   6.155
 8967POPC   C1A44439  29.968  30.740   6.455
 8967POPC   D2A44440  29.914  30.698   6.755
 8967POPC   C3A44441  29.939  30.719   7.055
 8967POPC   C4A44442  29.932  30.705   7.355
 8967POPC   C1B44443  30.048  30.853   6.455
 8967POPC   C2B44444  30.129  30.902   6.755
 8967POPC   C3B44445  30.049  30.910   7.055
 8967POPC   C4B44446  30.141  30.833   7.355
 8968POPC   NC344447  23.667  16.004   5.555
 8968POPC   PO444448  23.715  15.941   5.855
 8968POPC   GL144449  23.709  15.940   6.155
 8968POPC   GL244450  23.798  15.975   6.155
 8968POPC   C1A44451  23.715  15.938   6.455
 8968POPC   D2A44452  23.755  15.998   6.755
 8968POPC   C3A44453  23.670  15.966   7.055
 8968POPC   C4A44454  23.750  15.921   7.355
 8968POPC   C1B44455  23.975  15.902   6.455
 8968POPC   C2B44456  23.919  15.917   6.755
 8968POPC   C3B44457  23.928  15.951   7.055
 8968POPC   C4B44458  23.998  15.887   7.355
 8969POPC   NC344459  16.004   8.985   5.555
 8969POPC   PO444460  15.919   8.990   5.855
 8969POPC   GL144461  15.959   9.017   6.155
 8969POPC   GL244462  16.058   8.897   6.155
 8969POPC   C1A44463  15.949   8.998   6.455
 8969POPC   D2A44464  15.927   8.999   6.755
 8969POPC   C3A44465  15.932   8.959   7.055
 8969POPC   C4A44466  15.951   8.994   7.355
 8969POPC   C1B44467  16.204   8.867   6.455
 8969POPC   C2B44468  16.205   8.866   6.755
 8969POPC   C3B44469  16.219   8.889   7.055
 8969POPC   C4B44470  16.219   8.868   7.355
 8970POPC   NC344471   8.192  36.146   5.555
 8970POPC   PO444472   8.178  36.108   5.855
 8970POPC   GL144473   8.164  36.118   6.155
 8970POPC   GL244474   8.228  36.035   6.155
 8970POPC   C1A44475   8.209  36.132   6.455
 8970POPC   D2A44476   8.195  36.083   6.755
 8970POPC   C3A44477   8.199  36.154   7.055
 8970POPC   C4A44478   8.231  36.101   7.355
 8970POPC   C1B44479   8.228  35.917   6.455
 8970POPC   C2B44480   8.276  35.884   6.755
 8970POPC   C3B44481   8.240  35.921   7.055
 8970POPC   C4B44482   8.220  35.904   7.355
 8971POPC   NC344483  26.810  31.510   5.555
 8971POPC   PO444484  26.826  31.518   5.855
 8971POPC   GL144485  26.842  31.520   6.155
 8971POPC   GL244486  26.719  31.484   6.155
 8971POPC   C1A44487  26.812  31.512   6.455
 8971POPC   D2A44488  26.777  31.437   6.755
 8971POPC   C3A44489  26.791  31.509   7.055
 8971POPC   C4A44490  26.777  31.499   7.355
 8971POPC   C1B44491  26.539  31.395   6.455
 8971POPC   C2B44492  26.620  31.401   6.755
 8971POPC   C3B44493  26.542  31.405   7.055
 8971POPC   C4B44494  26.527  31.454   7.355
 8972POPC   NC344495  38.440  43.840   5.555
 8972POPC   PO444496  38.456  43.919   5.855
 8972POPC   GL144497  38.472  43.839   6.155
 8972POPC   GL244498  38.550  44.016   6.155
 8972POPC   C1A44499  38.488  43.882   6.455
 8972POPC   D2A44500  38.472  43.838   6.755
 8972POPC   C3A44501  38.459  43.933   7.055
 8972POPC   C4A44502  38.504  43.912   7.355
 8972POPC   C1B44503  38.652  44.079   6.455
 8972POPC   C2B44504  38.653  44.100   6.755
 8972POPC   C3B44505  38.626  44.079   7.055
 8972POPC   C4B44506  38.631  44.094   7.355
 8973POPC   NC344507  19.874   2.014   5.555
 8973POPC   PO444508  19.878   2.012   5.855
 8973POPC   GL144509  19.855   2.034   6.155
 8973POPC   GL244510  19.858   2.152   6.155
 8973POPC   C1A44511  19.881   2.033   6.455
 8973POPC   D2A44512  19.795   1.964   6.755
 8973POPC   C3A44513  19.845   1.943   7.055
 8973POPC   C4A44514  19.877   2.004   7.355
 8973POPC   C1B44515  19.914   2.204   6.455
 8973POPC   C2B44516  19.886   2.283   6.755
 8973POPC   C3B44517  19.866   2.258   7.055
 8973POPC   C4B44518  19.867   2.261   7.355
 8974POPC   NC344519  21.373  35.396   5.555
 8974POPC   PO444520  21.400  35.356   5.855
 8974POPC   GL144521  21.368  35.344   6.155
 8974POPC   GL244522  21.297  35.275   6.155
 8974POPC   C1A44523  21.395  35.394   6.455
 8974POPC   D2A44524  21.350  35.335   6.755
 8974POPC   C3A44525  21.368  35.363   7.055
 8974POPC   C4A44526  21.338  35.359   7.355
 8974POPC   C1B44527  21.283  35.096   6.455
 8974POPC   C2B44528  21.289  35.158   6.755
 8974POPC   C3B44529  21.241  35.127   7.055
 8974POPC   C4B44530  21.285  35.097   7.355
 8975POPC   NC344531  12.870  25.280   5.555
 8975POPC   PO444532  12.819  25.248   5.855
 8975POPC   GL144533  12.823  25.308   6.155
 8975POPC   GL244534  13.010  25.281   6.155
 8975POPC   C1A44535  12.845  25.243   6.455
 8975POPC   D2A44536  12.817  25.262   6.755
 8975POPC   C3A44537  12.840  25.282   7.055
 8975POPC   C4A44538  12.821  25.275   7.355
 8975POPC   C1B44539  13.063  25.333   6.455
 8975POPC   C2B44540  13.033  25.352   6.755
 8975POPC   C3B44541  13.102  25.407   7.055
 8975POPC   C4B44542  13.043  25.394   7.355
 8976POPC   NC344543   4.284  34.564   5.555
 8976POPC   PO444544   4.302  34.586   5.855
 8976POPC   GL144545   4.363  34.615   6.155
 8976POPC   GL244546   4.242  34.544   6.155
 8976POPC   C1A44547   4.323  34.604   6.455
 8976POPC   D2A44548   4.347  34.558   6.755
 8976POPC   C3A44549   4.339  34.549   7.055
 8976POPC   C4A44550   4.291  34.602   7.355
 8976POPC   C1B44551   4.137  34.442   6.455
 8976POPC   C2B44552   4.093  34.417   6.755
 8976POPC   C3B44553   4.062  34.432   7.055
 8976POPC   C4B44554   4.120  34.438   7.355
 8977POPC   NC344555  21.373  42.346   5.555
 8977POPC   PO444556  21.387  42.325   5.855
 8977POPC   GL144557  21.403  42.318   6.155
 8977POPC   GL244558  21.298  42.414   6.155
 8977POPC   C1A44559  21.436  42.317   6.455
 8977POPC   D2A44560  21.347  42.321   6.755
 8977POPC   C3A44561  21.377  42.358   7.055
 8977POPC   C4A44562  21.390  42.383   7.355
 8977POPC   C1B44563  21.219  42.525   6.455
 8977POPC   C2B44564  21.254  42.536   6.755
 8977POPC   C3B44565  21.210  42.566   7.055
 8977POPC   C4B44566  21.197  42.572   7.355
 8978POPC   NC344567  25.303   0.447   5.555
 8978POPC   PO444568  25.308   0.470   5.855
 8978POPC   GL144569  25.296   0.392   6.155
 8978POPC   GL244570  25.399   0.355   6.155
 8978POPC   C1A44571  25.272   0.480   6.455
 8978POPC   D2A44572  25.230   0.400   6.755
 8978POPC   C3A44573  25.263   0.477   7.055
 8978POPC   C4A44574  25.279   0.469   7.355
 8978POPC   C1B44575  25.455   0.239   6.455
 8978POPC   C2B44576  25.470   0.232   6.755
 8978POPC   C3B44577  25.393   0.222   7.055
 8978POPC   C4B44578  25.479   0.249   7.355
 8979POPC   NC344579  15.194  36.873   5.555
 8979POPC   PO444580  15.211  36.949   5.855
 8979POPC   GL144581  15.157  36.882   6.155
 8979POPC   GL244582  15.137  36.811   6.155
 8979POPC   C1A44583  15.143  36.861   6.455
 8979POPC   D2A44584  15.166  36.889   6.755
 8979POPC   C3A44585  15.132  36.859   7.055
 8979POPC   C4A44586  15.151  36.935   7.355
 8979POPC   C1B44587  15.155  36.624   6.455
 8979POPC   C2B44588  15.150  36.611   6.755
 8979POPC   C3B44589  15.166  36.643   7.055
 8979POPC   C4B44590  15.108  36.681   7.355
 8980POPC   NC344591  15.954  27.564   5.555
 8980POPC   PO444592  15.967  27.612   5.855
 8980POPC   GL144593  15.933  27.612   6.155
 8980POPC   GL244594  16.050  27.499   6.155
 8980POPC   C1A44595  15.981  27.577   6.455
 8980POPC   D2A44596  15.929  27.565   6.755
 8980POPC   C3A44597  15.998  27.599   7.055
 8980POPC   C4A44598  15.944  27.580   7.355
 8980POPC   C1B44599  16.168  27.381   6.455
 8980POPC   C2B44600  16.154  27.438   6.755
 8980POPC   C3B44601  16.113  27.423   7.055
 8980POPC   C4B44602  16.080  27.423   7.355
 8981POPC   NC344603  27.617  19.816   5.555
 8981POPC   PO444604  27.603  19.848   5.855
 8981POPC   GL144605  27.636  19.802   6.155
 8981POPC   GL244606  27.548  19.669   6.155
 8981POPC   C1A44607  27.598  19.827   6.455
 8981POPC   D2A44608  27.641  19.843   6.755
 8981POPC   C3A44609  27.591  19.809   7.055
 8981POPC   C4A44610  27.624  19.829   7.355
 8981POPC   C1B44611  27.591  19.607   6.455
 8981POPC   C2B44612  27.520  19.599   6.755
 8981POPC   C3B44613  27.593  19.550   7.055
 8981POPC   C4B44614  27.556  19.627   7.355
 8982POPC   NC344615  39.959  20.577   5.555
 8982POPC   PO444616  40.026  20.603   5.855
 8982POPC   GL144617  39.964  20.637   6.155
 8982POPC   GL244618  40.111  20.677   6.155
 8982POPC   C1A44619  39.969  20.562   6.455
 8982POPC   D2A44620  39.974  20.615   6.755
 8982POPC   C3A44621  39.992  20.649   7.055
 8982POPC   C4A44622  40.012  20.575   7.355
 8982POPC   C1B44623  40.249  20.673   6.455
 8982POPC   C2B44624  40.269  20.621   6.755
 8982POPC   C3B44625  40.273  20.661   7.055
 8982POPC   C4B44626  40.295  20.669   7.355
 8983POPC   NC344627   1.255  29.154   5.555
 8983POPC   PO444628   1.164  29.104   5.855
 8983POPC   GL144629   1.205  29.151   6.155
 8983POPC   GL244630   1.221  29.050   6.155
 8983POPC   C1A44631   1.230  29.124   6.455
 8983POPC   D2A44632   1.206  29.179   6.755
 8983POPC   C3A44633   1.259  29.099   7.055
 8983POPC   C4A44634   1.240  29.096   7.355
 8983POPC   C1B44635   1.257  28.885   6.455
 8983POPC   C2B44636   1.286  28.866   6.755
 8983POPC   C3B44637   1.246  28.918   7.055
 8983POPC   C4B44638   1.227  28.897   7.355
 8984POPC   NC344639  40.055  12.852   5.555
 8984POPC   PO444640  39.983  12.813   5.855
 8984POPC   GL144641  40.019  12.850   6.155
 8984POPC   GL244642  40.065  12.881   6.155
 8984POPC   C1A44643  40.010  12.898   6.455
 8984POPC   D2A44644  40.053  12.901   6.755
 8984POPC   C3A44645  39.990  12.819   7.055
 8984POPC   C4A44646  40.001  12.840   7.355
 8984POPC   C1B44647  40.190  13.014   6.455
 8984POPC   C2B44648  40.156  13.005   6.755
 8984POPC   C3B44649  40.226  12.997   7.055
 8984POPC   C4B44650  40.211  12.964   7.355
 8985POPC   NC344651  35.327  10.554   5.555
 8985POPC   PO444652  35.333  10.476   5.855
 8985POPC   GL144653  35.307  10.501   6.155
 8985POPC   GL244654  35.203  10.547   6.155
 8985POPC   C1A44655  35.303  10.565   6.455
 8985POPC   D2A44656  35.331  10.495   6.755
 8985POPC   C3A44657  35.365  10.549   7.055
 8985POPC   C4A44658  35.373  10.508   7.355
 8985POPC   C1B44659  35.154  10.639   6.455
 8985POPC   C2B44660  35.078  10.622   6.755
 8985POPC   C3B44661  35.118  10.601   7.055
 8985POPC   C4B44662  35.074  10.629   7.355
 8986POPC   NC344663  14.398  33.011   5.555
 8986POPC   PO444664  14.403  33.059   5.855
 8986POPC   GL144665  14.396  33.059   6.155
 8986POPC   GL244666  14.292  33.048   6.155
 8986POPC   C1A44667  14.430  33.037   6.455
 8986POPC   D2A44668  14.417  33.039   6.755
 8986POPC   C3A44669  14.403  32.977   7.055
 8986POPC   C4A44670  14.409  33.011   7.355
 8986POPC   C1B44671  14.188  33.121   6.455
 8986POPC   C2B44672  14.190  33.066   6.755
 8986POPC   C3B44673  14.191  33.091   7.055
 8986POPC   C4B44674  14.210  33.055   7.355
 8987POPC   NC344675  42.329   3.507   5.555
 8987POPC   PO444676  42.327   3.546   5.855
 8987POPC   GL144677  42.333   3.558   6.155
 8987POPC   GL244678  42.307   3.697   6.155
 8987POPC   C1A44679  42.358   3.569   6.455
 8987POPC   D2A44680  42.300   3.521   6.755
 8987POPC   C3A44681  42.315   3.525   7.055
 8987POPC   C4A44682  42.316   3.545   7.355
 8987POPC   C1B44683  42.160   3.799   6.455
 8987POPC   C2B44684  42.192   3.749   6.755
 8987POPC   C3B44685  42.215   3.732   7.055
 8987POPC   C4B44686  42.237   3.713   7.355
 8988POPC   NC344687  25.995   5.113   5.555
 8988POPC   PO444688  26.085   5.118   5.855
 8988POPC   GL144689  26.002   5.067   6.155
 8988POPC   GL244690  26.087   5.188   6.155
 8988POPC   C1A44691  26.045   5.138   6.455
 8988POPC   D2A44692  26.008   5.100   6.755
 8988POPC   C3A44693  26.006   5.055   7.055
 8988POPC   C4A44694  26.005   5.111   7.355
 8988POPC   C1B44695  26.050   5.336   6.455
 8988POPC   C2B44696  26.064   5.349   6.755
 8988POPC   C3B44697  26.139   5.379   7.055
 8988POPC   C4B44698  26.137   5.364   7.355
 8989POPC   NC344699   2.032  20.562   5.555
 8989POPC   PO444700   1.984  20.582   5.855
 8989POPC   GL144701   2.023  20.572   6.155
 8989POPC   GL244702   1.878  20.555   6.155
 8989POPC   C1A44703   1.996  20.657   6.455
 8989POPC   D2A44704   1.948  20.591   6.755
 8989POPC   C3A44705   1.964  20.608   7.055
 8989POPC   C4A44706   1.980  20.605   7.355
 8989POPC   C1B44707   1.887  20.453   6.455
 8989POPC   C2B44708   1.885  20.432   6.755
 8989POPC   C3B44709   1.841  20.368   7.055
 8989POPC   C4B44710   1.799  20.447   7.355
 8990POPC   NC344711  43.126  15.974   5.555
 8990POPC   PO444712  43.136  15.920   5.855
 8990POPC   GL144713  43.156  15.958   6.155
 8990POPC   GL244714  43.057  16.093   6.155
 8990POPC   C1A44715  43.144  15.976   6.455
 8990POPC   D2A44716  43.093  15.950   6.755
 8990POPC   C3A44717  43.128  15.924   7.055
 8990POPC   C4A44718  43.065  15.945   7.355
 8990POPC   C1B44719  42.986  16.126   6.455
 8990POPC   C2B44720  42.937  16.165   6.755
 8990POPC   C3B44721  42.938  16.091   7.055
 8990POPC   C4B44722  42.983  16.096   7.355
 8991POPC   NC344723  20.647   4.312   5.555
 8991POPC   PO444724  20.630   4.330   5.855
 8991POPC   GL144725  20.658   4.315   6.155
 8991POPC   GL244726  20.643   4.426   6.155
 8991POPC   C1A44727  20.622   4.313   6.455
 8991POPC   D2A44728  20.633   4.281   6.755
 8991POPC   C3A44729  20.656   4.302   7.055
 8991POPC   C4A44730  20.583   4.342   7.355
 8991POPC   C1B44731  20.644   4.548   6.455
 8991POPC   C2B44732  20.640   4.505   6.755
 8991POPC   C3B44733  20.720   4.576   7.055
 8991POPC   C4B44734  20.654   4.543   7.355
 8992POPC   NC344735  19.871   3.549   5.555
 8992POPC   PO444736  19.818   3.530   5.855
 8992POPC   GL144737  19.834   3.502   6.155
 8992POPC   GL244738  19.863   3.614   6.155
 8992POPC   C1A44739  19.851   3.542   6.455
 8992POPC   D2A44740  19.848   3.588   6.755
 8992POPC   C3A44741  19.813   3.503   7.055
 8992POPC   C4A44742  19.836   3.540   7.355
 8992POPC   C1B44743  19.957   3.762   6.455
 8992POPC   C2B44744  19.949   3.767   6.755
 8992POPC   C3B44745  19.928   3.786   7.055
 8992POPC   C4B44746  19.982   3.728   7.355
 8993POPC   NC344747  40.780  44.652   5.555
 8993POPC   PO444748  40.738  44.672   5.855
 8993POPC   GL144749  40.750  44.698   6.155
 8993POPC   GL244750  40.698  44.584   6.155
 8993POPC   C1A44751  40.745  44.624   6.455
 8993POPC   D2A44752  40.821  44.631   6.755
 8993POPC   C3A44753  40.769  44.712   7.055
 8993POPC   C4A44754  40.804  44.621   7.355
 8993POPC   C1B44755  40.723  44.457   6.455
 8993POPC   C2B44756  40.737  44.384   6.755
 8993POPC   C3B44757  40.721  44.412   7.055
 8993POPC   C4B44758  40.720  44.411   7.355
 8994POPC   NC344759   9.709  12.053   5.555
 8994POPC   PO444760   9.713  12.034   5.855
 8994POPC   GL144761   9.780  12.051   6.155
 8994POPC   GL244762   9.641  11.949   6.155
 8994POPC   C1A44763   9.795  12.078   6.455
 8994POPC   D2A44764   9.792  12.087   6.755
 8994POPC   C3A44765   9.725  12.083   7.055
 8994POPC   C4A44766   9.709  12.125   7.355
 8994POPC   C1B44767   9.629  11.813   6.455
 8994POPC   C2B44768   9.579  11.846   6.755
 8994POPC   C3B44769   9.636  11.904   7.055
 8994POPC   C4B44770   9.585  11.864   7.355
 8995POPC   NC344771   1.979  31.466   5.555
 8995POPC   PO444772   1.954  31.448   5.855
 8995POPC   GL144773   2.016  31.453   6.155
 8995POPC   GL244774   2.082  31.446   6.155
 8995POPC   C1A44775   2.021  31.452   6.455
 8995POPC   D2A44776   1.962  31.449   6.755
 8995POPC   C3A44777   2.015  31.500   7.055
 8995POPC   C4A44778   2.009  31.512   7.355
 8995POPC   C1B44779   2.205  31.328   6.455
 8995POPC   C2B44780   2.193  31.318   6.755
 8995POPC   C3B44781   2.152  31.336   7.055
 8995POPC   C4B44782   2.225  31.322   7.355
 8996POPC   NC344783  43.146  21.376   5.555
 8996POPC   PO444784  43.100  21.369   5.855
 8996POPC   GL144785  43.088  21.345   6.155
 8996POPC   GL244786  43.021  21.312   6.155
 8996POPC   C1A44787  43.159  21.350   6.455
 8996POPC   D2A44788  43.129  21.390   6.755
 8996POPC   C3A44789  43.100  21.409   7.055
 8996POPC   C4A44790  43.129  21.400   7.355
 8996POPC   C1B44791  42.844  21.312   6.455
 8996POPC   C2B44792  42.892  21.273   6.755
 8996POPC   C3B44793  42.859  21.263   7.055
 8996POPC   C4B44794  42.848  21.259   7.355
 8997POPC   NC344795   0.436   5.848   5.555
 8997POPC   PO444796   0.485   5.894   5.855
 8997POPC   GL144797   0.467   5.907   6.155
 8997POPC   GL244798   0.307   5.942   6.155
 8997POPC   C1A44799   0.420   5.845   6.455
 8997POPC   D2A44800   0.480   5.823   6.755
 8997POPC   C3A44801   0.479   5.876   7.055
 8997POPC   C4A44802   0.430   5.843   7.355
 8997POPC   C1B44803   0.253   5.990   6.455
 8997POPC   C2B44804   0.259   5.999   6.755
 8997POPC   C3B44805   0.229   5.994   7.055
 8997POPC   C4B44806   0.201   6.030   7.355
 8998POPC   NC344807  30.717  36.881   5.555
 8998POPC   PO444808  30.655  36.855   5.855
 8998POPC   GL144809  30.705  36.903   6.155
 8998POPC   GL244810  30.739  36.831   6.155
 8998POPC   C1A44811  30.705  36.940   6.455
 8998POPC   D2A44812  30.705  36.878   6.755
 8998POPC   C3A44813  30.663  36.875   7.055
 8998POPC   C4A44814  30.698  36.900   7.355
 8998POPC   C1B44815  30.820  36.754   6.455
 8998POPC   C2B44816  30.885  36.758   6.755
 8998POPC   C3B44817  30.904  36.683   7.055
 8998POPC   C4B44818  30.852  36.686   7.355
 8999POPC   NC344819  24.504  29.187   5.555
 8999POPC   PO444820  24.458  29.151   5.855
 8999POPC   GL144821  24.490  29.113   6.155
 8999POPC   GL244822  24.504  29.045   6.155
 8999POPC   C1A44823  24.493  29.142   6.455
 8999POPC   D2A44824  24.450  29.108   6.755
 8999POPC   C3A44825  24.470  29.141   7.055
 8999POPC   C4A44826  24.531  29.135   7.355
 8999POPC   C1B44827  24.531  28.927   6.455
 8999POPC   C2B44828  24.491  28.936   6.755
 8999POPC   C3B44829  24.553  28.939   7.055
 8999POPC   C4B44830  24.569  28.894   7.355
 9000POPC   NC344831   5.911   3.492   5.555
 9000POPC   PO444832   5.868   3.506   5.855
 9000POPC   GL144833   5.871   3.586   6.155
 9000POPC   GL244834   6.002   3.574   6.155
 9000POPC   C1A44835   5.876   3.516   6.455
 9000POPC   D2A44836   5.824   3.567   6.755
 9000POPC   C3A44837   5.876   3.496   7.055
 9000POPC   C4A44838   5.855   3.576   7.355
 9000POPC   C1B44839   6.130   3.552   6.455
 9000POPC   C2B44840   6.101   3.561   6.755
 9000POPC   C3B44841   6.127   3.613   7.055
 9000POPC   C4B44842   6.105   3.617   7.355
 9001POPC   NC344843  43.102  18.252   5.555
 9001POPC   PO444844  43.115  18.313   5.855
 9001POPC   GL144845  43.089  18.265   6.155
 9001POPC   GL244846  43.232  18.182   6.155
 9001POPC   C1A44847  43.078  18.235   6.455
 9001POPC   D2A44848  43.127  18.245   6.755
 9001POPC   C3A44849  43.079  18.278   7.055
 9001POPC   C4A44850  43.133  18.244   7.355
 9001POPC   C1B44851  43.271  18.161   6.455
 9001POPC   C2B44852  43.294  18.106   6.755
 9001POPC   C3B44853  43.289  18.178   7.055
 9001POPC   C4B44854  43.330  18.127   7.355
 9002POPC   NC344855  43.065   1.960   5.555
 9002POPC   PO444856  43.085   2.019   5.855
 9002POPC   GL144857  43.144   2.002   6.155
 9002POPC   GL244858  43.098   1.901   6.155
 9002POPC   C1A44859  43.104   2.018   6.455
 9002POPC   D2A44860  43.069   1.945   6.755
 9002POPC   C3A44861  43.124   2.033   7.055
 9002POPC   C4A44862  43.066   2.037   7.355
 9002POPC   C1B44863  43.217   1.708   6.455
 9002POPC   C2B44864  43.179   1.750   6.755
 9002POPC   C3B44865  43.148   1.770   7.055
 9002POPC   C4B44866  43.206   1.784   7.355
 9003POPC   NC344867   8.990  11.280   5.555
 9003POPC   PO444868   8.951  11.344   5.855
 9003POPC   GL144869   9.008  11.253   6.155
 9003POPC   GL244870   9.083  11.403   6.155
 9003POPC   C1A44871   8.998  11.340   6.455
 9003POPC   D2A44872   9.013  11.309   6.755
 9003POPC   C3A44873   9.013  11.322   7.055
 9003POPC   C4A44874   8.995  11.343   7.355
 9003POPC   C1B44875   9.112  11.564   6.455
 9003POPC   C2B44876   9.086  11.521   6.755
 9003POPC   C3B44877   9.069  11.526   7.055
 9003POPC   C4B44878   9.059  11.482   7.355
 9004POPC   NC344879  33.797  15.968   5.555
 9004POPC   PO444880  33.848  15.945   5.855
 9004POPC   GL144881  33.756  15.946   6.155
 9004POPC   GL244882  33.835  15.835   6.155
 9004POPC   C1A44883  33.844  16.000   6.455
 9004POPC   D2A44884  33.805  15.938   6.755
 9004POPC   C3A44885  33.778  15.988   7.055
 9004POPC   C4A44886  33.796  15.911   7.355
 9004POPC   C1B44887  33.907  15.759   6.455
 9004POPC   C2B44888  33.866  15.724   6.755
 9004POPC   C3B44889  33.926  15.747   7.055
 9004POPC   C4B44890  33.922  15.758   7.355
 9005POPC   NC344891  43.159  42.285   5.555
 9005POPC   PO444892  43.152  42.313   5.855
 9005POPC   GL144893  43.128  42.329   6.155
 9005POPC   GL244894  43.157  42.497   6.155
 9005POPC   C1A44895  43.129  42.379   6.455
 9005POPC   D2A44896  43.116  42.355   6.755
 9005POPC   C3A44897  43.110  42.305   7.055
 9005POPC   C4A44898  43.149  42.301   7.355
 9005POPC   C1B44899  43.158  42.615   6.455
 9005POPC   C2B44900  43.204  42.609   6.755
 9005POPC   C3B44901  43.156  42.545   7.055
 9005POPC   C4B44902  43.207  42.586   7.355
 9006POPC   NC344903  10.485  33.798   5.555
 9006POPC   PO444904  10.556  33.790   5.855
 9006POPC   GL144905  10.564  33.781   6.155
 9006POPC   GL244906  10.593  33.934   6.155
 9006POPC   C1A44907  10.572  33.845   6.455
 9006POPC   D2A44908  10.501  33.840   6.755
 9006POPC   C3A44909  10.542  33.780   7.055
 9006POPC   C4A44910  10.498  33.847   7.355
 9006POPC   C1B44911  10.671  33.964   6.455
 9006POPC   C2B44912  10.644  34.035   6.755
 9006POPC   C3B44913  10.693  34.058   7.055
 9006POPC   C4B44914  10.667  34.029   7.355
 9007POPC   NC344915  19.802   6.628   5.555
 9007POPC   PO444916  19.822   6.633   5.855
 9007POPC   GL144917  19.813   6.615   6.155
 9007POPC   GL244918  19.729   6.689   6.155
 9007POPC   C1A44919  19.817   6.613   6.455
 9007POPC   D2A44920  19.787   6.680   6.755
 9007POPC   C3A44921  19.806   6.619   7.055
 9007POPC   C4A44922  19.841   6.624   7.355
 9007POPC   C1B44923  19.555   6.712   6.455
 9007POPC   C2B44924  19.616   6.732   6.755
 9007POPC   C3B44925  19.633   6.732   7.055
 9007POPC   C4B44926  19.613   6.767   7.355
 9008POPC   NC344927   5.125  18.260   5.555
 9008POPC   PO444928   5.049  18.313   5.855
 9008POPC   GL144929   5.094  18.257   6.155
 9008POPC   GL244930   5.046  18.365   6.155
 9008POPC   C1A44931   5.072  18.264   6.455
 9008POPC   D2A44932   5.129  18.318   6.755
 9008POPC   C3A44933   5.043  18.313   7.055
 9008POPC   C4A44934   5.110  18.263   7.355
 9008POPC   C1B44935   4.970  18.465   6.455
 9008POPC   C2B44936   4.971  18.558   6.755
 9008POPC   C3B44937   4.968  18.472   7.055
 9008POPC   C4B44938   4.970  18.504   7.355
 9009POPC   NC344939  32.291  27.580   5.555
 9009POPC   PO444940  32.295  27.632   5.855
 9009POPC   GL144941  32.229  27.610   6.155
 9009POPC   GL244942  32.213  27.488   6.155
 9009POPC   C1A44943  32.258  27.579   6.455
 9009POPC   D2A44944  32.203  27.594   6.755
 9009POPC   C3A44945  32.225  27.624   7.055
 9009POPC   C4A44946  32.223  27.563   7.355
 9009POPC   C1B44947  32.179  27.311   6.455
 9009POPC   C2B44948  32.159  27.396   6.755
 9009POPC   C3B44949  32.154  27.382   7.055
 9009POPC   C4B44950  32.239  27.384   7.355
 9010POPC   NC344951  29.876  39.996   5.555
 9010POPC   PO444952  29.922  39.961   5.855
 9010POPC   GL144953  29.914  40.010   6.155
 9010POPC   GL244954  30.021  39.931   6.155
 9010POPC   C1A44955  29.942  39.981   6.455
 9010POPC   D2A44956  29.879  39.970   6.755
 9010POPC   C3A44957  29.929  40.054   7.055
 9010POPC   C4A44958  29.956  39.968   7.355
 9010POPC   C1B44959  30.045  39.802   6.455
 9010POPC   C2B44960  30.064  39.805   6.755
 9010POPC   C3B44961  30.071  39.809   7.055
 9010POPC   C4B44962  29.978  39.819   7.355
 9011POPC   NC344963   6.635  22.158   5.555
 9011POPC   PO444964   6.690  22.187   5.855
 9011POPC   GL144965   6.615  22.194   6.155
 9011POPC   GL244966   6.521  22.094   6.155
 9011POPC   C1A44967   6.655  22.148   6.455
 9011POPC   D2A44968   6.667  22.193   6.755
 9011POPC   C3A44969   6.642  22.125   7.055
 9011POPC   C4A44970   6.600  22.178   7.355
 9011POPC   C1B44971   6.392  22.032   6.455
 9011POPC   C2B44972   6.402  22.044   6.755
 9011POPC   C3B44973   6.378  22.122   7.055
 9011POPC   C4B44974   6.395  22.117   7.355
 9012POPC   NC344975  42.348  17.505   5.555
 9012POPC   PO444976  42.293  17.515   5.855
 9012POPC   GL144977  42.332  17.537   6.155
 9012POPC   GL244978  42.355  17.344   6.155
 9012POPC   C1A44979  42.367  17.501   6.455
 9012POPC   D2A44980  42.292  17.485   6.755
 9012POPC   C3A44981  42.316  17.550   7.055
 9012POPC   C4A44982  42.371  17.539   7.355
 9012POPC   C1B44983  42.331  17.299   6.455
 9012POPC   C2B44984  42.292  17.222   6.755
 9012POPC   C3B44985  42.341  17.223   7.055
 9012POPC   C4B44986  42.375  17.298   7.355
 9013POPC   NC344987  43.074   1.231   5.555
 9013POPC   PO444988  43.121   1.178   5.855
 9013POPC   GL144989  43.105   1.258   6.155
 9013POPC   GL244990  43.217   1.260   6.155
 9013POPC   C1A44991  43.106   1.235   6.455
 9013POPC   D2A44992  43.079   1.177   6.755
 9013POPC   C3A44993  43.062   1.243   7.055
 9013POPC   C4A44994  43.147   1.252   7.355
 9013POPC   C1B44995  43.330   1.359   6.455
 9013POPC   C2B44996  43.285   1.381   6.755
 9013POPC   C3B44997  43.307   1.330   7.055
 9013POPC   C4B44998  43.308   1.325   7.355
 9014POPC   NC344999  26.837  28.340   5.555
 9014POPC   PO445000  26.772  28.340   5.855
 9014POPC   GL145001  26.802  28.356   6.155
 9014POPC   GL245002  26.658  28.454   6.155
 9014POPC   C1A45003  26.842  28.385   6.455
 9014POPC   D2A45004  26.827  28.332   6.755
 9014POPC   C3A45005  26.799  28.344   7.055
 9014POPC   C4A45006  26.820  28.370   7.355
 9014POPC   C1B45007  26.601  28.450   6.455
 9014POPC   C2B45008  26.614  28.470   6.755
 9014POPC   C3B45009  26.542  28.453   7.055
 9014POPC   C4B45010  26.626  28.497   7.355
 9015POPC   NC345011  12.102  22.952   5.555
 9015POPC   PO445012  12.120  22.946   5.855
 9015POPC   GL145013  12.106  22.888   6.155
 9015POPC   GL245014  12.193  22.846   6.155
 9015POPC   C1A45015  12.076  22.939   6.455
 9015POPC   D2A45016  12.099  22.967   6.755
 9015POPC   C3A45017  12.070  22.944   7.055
 9015POPC   C4A45018  12.040  22.956   7.355
 9015POPC   C1B45019  12.341  22.858   6.455
 9015POPC   C2B45020  12.266  22.804   6.755
 9015POPC   C3B45021  12.288  22.854   7.055
 9015POPC   C4B45022  12.340  22.814   7.355
 9016POPC   NC345023  19.046   1.203   5.555
 9016POPC   PO445024  19.012   1.198   5.855
 9016POPC   GL145025  19.047   1.172   6.155
 9016POPC   GL245026  19.043   1.377   6.155
 9016POPC   C1A45027  19.020   1.261   6.455
 9016POPC   D2A45028  19.022   1.174   6.755
 9016POPC   C3A45029  19.028   1.248   7.055
 9016POPC   C4A45030  19.042   1.228   7.355
 9016POPC   C1B45031  19.110   1.507   6.455
 9016POPC   C2B45032  19.079   1.426   6.755
 9016POPC   C3B45033  19.052   1.503   7.055
 9016POPC   C4B45034  19.113   1.505   7.355
 9017POPC   NC345035  40.018  44.643   5.555
 9017POPC   PO445036  39.994  44.658   5.855
 9017POPC   GL145037  40.038  44.711   6.155
 9017POPC   GL245038  39.992  44.584   6.155
 9017POPC   C1A45039  40.019  44.667   6.455
 9017POPC   D2A45040  40.002  44.677   6.755
 9017POPC   C3A45041  40.009  44.615   7.055
 9017POPC   C4A45042  40.002  44.637   7.355
 9017POPC   C1B45043  40.065  44.415   6.455
 9017POPC   C2B45044  40.037  44.377   6.755
 9017POPC   C3B45045  40.040  44.407   7.055
 9017POPC   C4B45046  40.048  44.432   7.355
 9018POPC   NC345047  36.874  26.810   5.555
 9018POPC   PO445048  36.904  26.783   5.855
 9018POPC   GL145049  36.867  26.813   6.155
 9018POPC   GL245050  36.899  26.894   6.155
 9018POPC   C1A45051  36.948  26.866   6.455
 9018POPC   D2A45052  36.896  26.842   6.755
 9018POPC   C3A45053  36.934  26.797   7.055
 9018POPC   C4A45054  36.873  26.769   7.355
 9018POPC   C1B45055  36.830  27.010   6.455
 9018POPC   C2B45056  36.783  27.019   6.755
 9018POPC   C3B45057  36.805  27.058   7.055
 9018POPC   C4B45058  36.825  27.080   7.355
 9019POPC   NC345059  16.742  32.988   5.555
 9019POPC   PO445060  16.682  33.027   5.855
 9019POPC   GL145061  16.743  33.056   6.155
 9019POPC   GL245062  16.660  33.148   6.155
 9019POPC   C1A45063  16.712  33.018   6.455
 9019POPC   D2A45064  16.736  33.019   6.755
 9019POPC   C3A45065  16.694  33.030   7.055
 9019POPC   C4A45066  16.751  32.991   7.355
 9019POPC   C1B45067  16.582  33.214   6.455
 9019POPC   C2B45068  16.582  33.200   6.755
 9019POPC   C3B45069  16.543  33.166   7.055
 9019POPC   C4B45070  16.537  33.248   7.355
 9020POPC   NC345071  14.395  13.607   5.555
 9020POPC   PO445072  14.372  13.634   5.855
 9020POPC   GL145073  14.385  13.588   6.155
 9020POPC   GL245074  14.464  13.544   6.155
 9020POPC   C1A45075  14.385  13.663   6.455
 9020POPC   D2A45076  14.410  13.646   6.755
 9020POPC   C3A45077  14.405  13.617   7.055
 9020POPC   C4A45078  14.365  13.588   7.355
 9020POPC   C1B45079  14.590  13.434   6.455
 9020POPC   C2B45080  14.531  13.478   6.755
 9020POPC   C3B45081  14.533  13.443   7.055
 9020POPC   C4B45082  14.595  13.406   7.355
 9021POPC   NC345083  33.033  42.295   5.555
 9021POPC   PO445084  32.995  42.380   5.855
 9021POPC   GL145085  33.015  42.328   6.155
 9021POPC   GL245086  33.128  42.247   6.155
 9021POPC   C1A45087  33.061  42.330   6.455
 9021POPC   D2A45088  33.060  42.323   6.755
 9021POPC   C3A45089  32.981  42.323   7.055
 9021POPC   C4A45090  33.003  42.361   7.355
 9021POPC   C1B45091  33.232  42.257   6.455
 9021POPC   C2B45092  33.292  42.259   6.755
 9021POPC   C3B45093  33.236  42.262   7.055
 9021POPC   C4B45094  33.256  42.230   7.355
 9022POPC   NC345095   2.734  26.800   5.555
 9022POPC   PO445096   2.740  26.769   5.855
 9022POPC   GL145097   2.738  26.837   6.155
 9022POPC   GL245098   2.763  26.674   6.155
 9022POPC   C1A45099   2.814  26.820   6.455
 9022POPC   D2A45100   2.810  26.817   6.755
 9022POPC   C3A45101   2.755  26.845   7.055
 9022POPC   C4A45102   2.769  26.817   7.355
 9022POPC   C1B45103   2.839  26.586   6.455
 9022POPC   C2B45104   2.824  26.606   6.755
 9022POPC   C3B45105   2.872  26.549   7.055
 9022POPC   C4B45106   2.892  26.614   7.355
 9023POPC   NC345107  13.642  38.416   5.555
 9023POPC   PO445108  13.634  38.429   5.855
 9023POPC   GL145109  13.633  38.466   6.155
 9023POPC   GL245110  13.694  38.540   6.155
 9023POPC   C1A45111  13.604  38.425   6.455
 9023POPC   D2A45112  13.622  38.430   6.755
 9023POPC   C3A45113  13.655  38.441   7.055
 9023POPC   C4A45114  13.618  38.444   7.355
 9023POPC   C1B45115  13.830  38.640   6.455
 9023POPC   C2B45116  13.782  38.591   6.755
 9023POPC   C3B45117  13.791  38.639   7.055
 9023POPC   C4B45118  13.796  38.567   7.355
 9024POPC   NC345119  33.767  15.208   5.555
 9024POPC   PO445120  33.767  15.138   5.855
 9024POPC   GL145121  33.785  15.157   6.155
 9024POPC   GL245122  33.884  15.321   6.155
 9024POPC   C1A45123  33.774  15.205   6.455
 9024POPC   D2A45124  33.783  15.222   6.755
 9024POPC   C3A45125  33.826  15.163   7.055
 9024POPC   C4A45126  33.840  15.198   7.355
 9024POPC   C1B45127  33.913  15.388   6.455
 9024POPC   C2B45128  33.936  15.334   6.755
 9024POPC   C3B45129  33.952  15.367   7.055
 9024POPC   C4B45130  33.982  15.333   7.355
 9025POPC   NC345131   2.760  32.201   5.555
 9025POPC   PO445132   2.777  32.266   5.855
 9025POPC   GL145133   2.778  32.281   6.155
 9025POPC   GL245134   2.643  32.258   6.155
 9025POPC   C1A45135   2.810  32.213   6.455
 9025POPC   D2A45136   2.727  32.232   6.755
 9025POPC   C3A45137   2.808  32.208   7.055
 9025POPC   C4A45138   2.749  32.298   7.355
 9025POPC   C1B45139   2.485  32.333   6.455
 9025POPC   C2B45140   2.496  32.296   6.755
 9025POPC   C3B45141   2.554  32.260   7.055
 9025POPC   C4B45142   2.476  32.249   7.355
 9026POPC   NC345143  39.965  26.805   5.555
 9026POPC   PO445144  39.982  26.857   5.855
 9026POPC   GL145145  39.980  26.783   6.155
 9026POPC   GL245146  39.989  26.969   6.155
 9026POPC   C1A45147  39.993  26.847   6.455
 9026POPC   D2A45148  39.975  26.845   6.755
 9026POPC   C3A45149  40.031  26.838   7.055
 9026POPC   C4A45150  40.042  26.832   7.355
 9026POPC   C1B45151  39.899  27.092   6.455
 9026POPC   C2B45152  39.918  27.037   6.755
 9026POPC   C3B45153  39.945  27.084   7.055
 9026POPC   C4B45154  39.919  27.031   7.355
 9027POPC   NC345155  33.003  10.547   5.555
 9027POPC   PO445156  33.002  10.547   5.855
 9027POPC   GL145157  33.022  10.529   6.155
 9027POPC   GL245158  32.895  10.623   6.155
 9027POPC   C1A45159  33.028  10.549   6.455
 9027POPC   D2A45160  33.004  10.543   6.755
 9027POPC   C3A45161  33.029  10.495   7.055
 9027POPC   C4A45162  33.015  10.572   7.355
 9027POPC   C1B45163  32.830  10.710   6.455
 9027POPC   C2B45164  32.818  10.738   6.755
 9027POPC   C3B45165  32.837  10.694   7.055
 9027POPC   C4B45166  32.842  10.655   7.355
 9028POPC   NC345167  12.101  36.894   5.555
 9028POPC   PO445168  12.042  36.865   5.855
 9028POPC   GL145169  12.124  36.944   6.155
 9028POPC   GL245170  12.074  36.740   6.155
 9028POPC   C1A45171  12.098  36.934   6.455
 9028POPC   D2A45172  12.124  36.917   6.755
 9028POPC   C3A45173  12.103  36.944   7.055
 9028POPC   C4A45174  12.086  36.893   7.355
 9028POPC   C1B45175  12.066  36.632   6.455
 9028POPC   C2B45176  12.014  36.709   6.755
 9028POPC   C3B45177  12.038  36.629   7.055
 9028POPC   C4B45178  12.037  36.630   7.355
 9029POPC   NC345179   6.660  39.185   5.555
 9029POPC   PO445180   6.607  39.198   5.855
 9029POPC   GL145181   6.662  39.203   6.155
 9029POPC   GL245182   6.691  39.399   6.155
 9029POPC   C1A45183   6.620  39.249   6.455
 9029POPC   D2A45184   6.597  39.251   6.755
 9029POPC   C3A45185   6.647  39.197   7.055
 9029POPC   C4A45186   6.622  39.281   7.355
 9029POPC   C1B45187   6.723  39.490   6.455
 9029POPC   C2B45188   6.709  39.505   6.755
 9029POPC   C3B45189   6.708  39.484   7.055
 9029POPC   C4B45190   6.678  39.468   7.355
 9030POPC   NC345191  43.103  19.882   5.555
 9030POPC   PO445192  43.066  19.809   5.855
 9030POPC   GL145193  43.121  19.810   6.155
 9030POPC   GL245194  43.221  19.865   6.155
 9030POPC   C1A45195  43.097  19.865   6.455
 9030POPC   D2A45196  43.076  19.867   6.755
 9030POPC   C3A45197  43.134  19.800   7.055
 9030POPC   C4A45198  43.153  19.799   7.355
 9030POPC   C1B45199  43.316  19.929   6.455
 9030POPC   C2B45200  43.333  19.986   6.755
 9030POPC   C3B45201  43.307  19.935   7.055
 9030POPC   C4B45202  43.304  19.973   7.355
 9031POPC   NC345203   6.630   0.481   5.555
 9031POPC   PO445204   6.613   0.435   5.855
 9031POPC   GL145205   6.689   0.457   6.155
 9031POPC   GL245206   6.670   0.337   6.155
 9031POPC   C1A45207   6.625   0.391   6.455
 9031POPC   D2A45208   6.645   0.458   6.755
 9031POPC   C3A45209   6.683   0.471   7.055
 9031POPC   C4A45210   6.665   0.436   7.355
 9031POPC   C1B45211   6.776   0.199   6.455
 9031POPC   C2B45212   6.774   0.172   6.755
 9031POPC   C3B45213   6.727   0.180   7.055
 9031POPC   C4B45214   6.697   0.247   7.355
 9032POPC   NC345215   6.638   3.553   5.555
 9032POPC   PO445216   6.610   3.495   5.855
 9032POPC   GL145217   6.631   3.580   6.155
 9032POPC   GL245218   6.719   3.616   6.155
 9032POPC   C1A45219   6.625   3.561   6.455
 9032POPC   D2A45220   6.626   3.499   6.755
 9032POPC   C3A45221   6.662   3.572   7.055
 9032POPC   C4A45222   6.649   3.552   7.355
 9032POPC   C1B45223   6.772   3.688   6.455
 9032POPC   C2B45224   6.802   3.769   6.755
 9032POPC   C3B45225   6.815   3.772   7.055
 9032POPC   C4B45226   6.772   3.727   7.355
 9033POPC   NC345227  31.480  34.555   5.555
 9033POPC   PO445228  31.470  34.559   5.855
 9033POPC   GL145229  31.510  34.552   6.155
 9033POPC   GL245230  31.586  34.604   6.155
 9033POPC   C1A45231  31.494  34.580   6.455
 9033POPC   D2A45232  31.444  34.534   6.755
 9033POPC   C3A45233  31.482  34.614   7.055
 9033POPC   C4A45234  31.522  34.599   7.355
 9033POPC   C1B45235  31.717  34.577   6.455
 9033POPC   C2B45236  31.749  34.566   6.755
 9033POPC   C3B45237  31.768  34.530   7.055
 9033POPC   C4B45238  31.722  34.589   7.355
 9034POPC   NC345239  32.253  14.445   5.555
 9034POPC   PO445240  32.283  14.375   5.855
 9034POPC   GL145241  32.217  14.390   6.155
 9034POPC   GL245242  32.323  14.306   6.155
 9034POPC   C1A45243  32.283  14.441   6.455
 9034POPC   D2A45244  32.270  14.436   6.755
 9034POPC   C3A45245  32.206  14.439   7.055
 9034POPC   C4A45246  32.232  14.378   7.355
 9034POPC   C1B45247  32.426  14.238   6.455
 9034POPC   C2B45248  32.404  14.227   6.755
 9034POPC   C3B45249  32.362  14.160   7.055
 9034POPC   C4B45250  32.363  14.231   7.355
 9035POPC   NC345251  40.037  33.751   5.555
 9035POPC   PO445252  39.966  33.780   5.855
 9035POPC   GL145253  40.029  33.796   6.155
 9035POPC   GL245254  39.988  33.652   6.155
 9035POPC   C1A45255  40.006  33.751   6.455
 9035POPC   D2A45256  40.030  33.847   6.755
 9035POPC   C3A45257  39.986  33.849   7.055
 9035POPC   C4A45258  39.979  33.801   7.355
 9035POPC   C1B45259  40.003  33.541   6.455
 9035POPC   C2B45260  40.045  33.561   6.755
 9035POPC   C3B45261  40.010  33.503   7.055
 9035POPC   C4B45262  39.980  33.591   7.355
 9036POPC   NC345263  15.911  23.692   5.555
 9036POPC   PO445264  15.967  23.676   5.855
 9036POPC   GL145265  15.919  23.756   6.155
 9036POPC   GL245266  15.851  23.804   6.155
 9036POPC   C1A45267  15.916  23.685   6.455
 9036POPC   D2A45268  15.992  23.744   6.755
 9036POPC   C3A45269  15.928  23.709   7.055
 9036POPC   C4A45270  15.937  23.712   7.355
 9036POPC   C1B45271  15.813  23.972   6.455
 9036POPC   C2B45272  15.862  23.945   6.755
 9036POPC   C3B45273  15.847  23.934   7.055
 9036POPC   C4B45274  15.817  23.919   7.355
 9037POPC   NC345275  25.282   5.893   5.555
 9037POPC   PO445276  25.261   5.873   5.855
 9037POPC   GL145277  25.294   5.875   6.155
 9037POPC   GL245278  25.335   5.721   6.155
 9037POPC   C1A45279  25.315   5.857   6.455
 9037POPC   D2A45280  25.242   5.845   6.755
 9037POPC   C3A45281  25.236   5.917   7.055
 9037POPC   C4A45282  25.274   5.838   7.355
 9037POPC   C1B45283  25.342   5.681   6.455
 9037POPC   C2B45284  25.317   5.599   6.755
 9037POPC   C3B45285  25.346   5.636   7.055
 9037POPC   C4B45286  25.374   5.610   7.355
 9038POPC   NC345287  20.577  40.782   5.555
 9038POPC   PO445288  20.576  40.758   5.855
 9038POPC   GL145289  20.574  40.814   6.155
 9038POPC   GL245290  20.485  40.820   6.155
 9038POPC   C1A45291  20.643  40.785   6.455
 9038POPC   D2A45292  20.601  40.760   6.755
 9038POPC   C3A45293  20.594  40.753   7.055
 9038POPC   C4A45294  20.568  40.782   7.355
 9038POPC   C1B45295  20.403  40.925   6.455
 9038POPC   C2B45296  20.448  40.912   6.755
 9038POPC   C3B45297  20.433  40.929   7.055
 9038POPC   C4B45298  20.423  40.920   7.355
 9039POPC   NC345299   8.973  34.565   5.555
 9039POPC   PO445300   8.999  34.562   5.855
 9039POPC   GL145301   9.018  34.532   6.155
 9039POPC   GL245302   9.067  34.711   6.155
 9039POPC   C1A45303   8.963  34.550   6.455
 9039POPC   D2A45304   9.008  34.583   6.755
 9039POPC   C3A45305   8.930  34.567   7.055
 9039POPC   C4A45306   9.017  34.596   7.355
 9039POPC   C1B45307   9.128  34.773   6.455
 9039POPC   C2B45308   9.067  34.791   6.755
 9039POPC   C3B45309   9.107  34.752   7.055
 9039POPC   C4B45310   9.095  34.787   7.355
 9040POPC   NC345311  15.183  23.681   5.555
 9040POPC   PO445312  15.139  23.728   5.855
 9040POPC   GL145313  15.144  23.735   6.155
 9040POPC   GL245314  15.218  23.608   6.155
 9040POPC   C1A45315  15.142  23.689   6.455
 9040POPC   D2A45316  15.193  23.691   6.755
 9040POPC   C3A45317  15.220  23.712   7.055
 9040POPC   C4A45318  15.163  23.750   7.355
 9040POPC   C1B45319  15.363  23.510   6.455
 9040POPC   C2B45320  15.372  23.546   6.755
 9040POPC   C3B45321  15.321  23.543   7.055
 9040POPC   C4B45322  15.314  23.574   7.355
 9041POPC   NC345323  10.499  43.060   5.555
 9041POPC   PO445324  10.512  43.062   5.855
 9041POPC   GL145325  10.515  43.123   6.155
 9041POPC   GL245326  10.621  43.158   6.155
 9041POPC   C1A45327  10.526  43.156   6.455
 9041POPC   D2A45328  10.510  43.148   6.755
 9041POPC   C3A45329  10.496  43.136   7.055
 9041POPC   C4A45330  10.553  43.115   7.355
 9041POPC   C1B45331  10.676  43.278   6.455
 9041POPC   C2B45332  10.705  43.331   6.755
 9041POPC   C3B45333  10.693  43.278   7.055
 9041POPC   C4B45334  10.697  43.260   7.355
 9042POPC   NC345335   8.185  14.425   5.555
 9042POPC   PO445336   8.185  14.431   5.855
 9042POPC   GL145337   8.215  14.420   6.155
 9042POPC   GL245338   8.120  14.372   6.155
 9042POPC   C1A45339   8.222  14.409   6.455
 9042POPC   D2A45340   8.199  14.408   6.755
 9042POPC   C3A45341   8.230  14.412   7.055
 9042POPC   C4A45342   8.217  14.384   7.355
 9042POPC   C1B45343   7.963  14.431   6.455
 9042POPC   C2B45344   7.971  14.409   6.755
 9042POPC   C3B45345   7.950  14.385   7.055
 9042POPC   C4B45346   7.988  14.349   7.355
 9043POPC   NC345347  27.613  25.236   5.555
 9043POPC   PO445348  27.639  25.255   5.855
 9043POPC   GL145349  27.570  25.292   6.155
 9043POPC   GL245350  27.497  25.304   6.155
 9043POPC   C1A45351  27.635  25.306   6.455
 9043POPC   D2A45352  27.628  25.233   6.755
 9043POPC   C3A45353  27.614  25.288   7.055
 9043POPC   C4A45354  27.560  25.314   7.355
 9043POPC   C1B45355  27.361  25.403   6.455
 9043POPC   C2B45356  27.400  25.404   6.755
 9043POPC   C3B45357  27.397  25.318   7.055
 9043POPC   C4B45358  27.353  25.379   7.355
 9044POPC   NC345359  14.359  36.162   5.555
 9044POPC   PO445360  14.367  36.115   5.855
 9044POPC   GL145361  14.440  36.110   6.155
 9044POPC   GL245362  14.519  36.223   6.155
 9044POPC   C1A45363  14.365  36.083   6.455
 9044POPC   D2A45364  14.440  36.116   6.755
 9044POPC   C3A45365  14.363  36.168   7.055
 9044POPC   C4A45366  14.426  36.085   7.355
 9044POPC   C1B45367  14.601  36.270   6.455
 9044POPC   C2B45368  14.575  36.338   6.755
 9044POPC   C3B45369  14.535  36.283   7.055
 9044POPC   C4B45370  14.557  36.305   7.355
 9045POPC   NC345371   1.944  44.662   5.555
 9045POPC   PO445372   1.957  44.687   5.855
 9045POPC   GL145373   1.945  44.630   6.155
 9045POPC   GL245374   2.124  44.633   6.155
 9045POPC   C1A45375   2.008  44.646   6.455
 9045POPC   D2A45376   2.035  44.622   6.755
 9045POPC   C3A45377   1.947  44.662   7.055
 9045POPC   C4A45378   1.977  44.650   7.355
 9045POPC   C1B45379   2.158  44.526   6.455
 9045POPC   C2B45380   2.234  44.527   6.755
 9045POPC   C3B45381   2.220  44.498   7.055
 9045POPC   C4B45382   2.246  44.507   7.355
 9046POPC   NC345383  22.951  42.343   5.555
 9046POPC   PO445384  22.976  42.380   5.855
 9046POPC   GL145385  22.929  42.301   6.155
 9046POPC   GL245386  22.981  42.449   6.155
 9046POPC   C1A45387  22.953  42.363   6.455
 9046POPC   D2A45388  22.929  42.329   6.755
 9046POPC   C3A45389  22.977  42.370   7.055
 9046POPC   C4A45390  22.978  42.336   7.355
 9046POPC   C1B45391  22.987  42.613   6.455
 9046POPC   C2B45392  23.002  42.611   6.755
 9046POPC   C3B45393  22.994  42.594   7.055
 9046POPC   C4B45394  22.997  42.616   7.355
 9047POPC   NC345395  44.624  22.168   5.555
 9047POPC   PO445396  44.642  22.139   5.855
 9047POPC   GL145397  44.617  22.189   6.155
 9047POPC   GL245398  44.554  22.081   6.155
 9047POPC   C1A45399  44.701  22.181   6.455
 9047POPC   D2A45400  44.626  22.184   6.755
 9047POPC   C3A45401  44.652  22.160   7.055
 9047POPC   C4A45402  44.696  22.129   7.355
 9047POPC   C1B45403  44.416  22.068   6.455
 9047POPC   C2B45404  44.383  22.115   6.755
 9047POPC   C3B45405  44.471  22.045   7.055
 9047POPC   C4B45406  44.443  22.062   7.355
 9048POPC   NC345407  19.859  40.749   5.555
 9048POPC   PO445408  19.802  40.817   5.855
 9048POPC   GL145409  19.857  40.810   6.155
 9048POPC   GL245410  19.893  40.819   6.155
 9048POPC   C1A45411  19.789  40.815   6.455
 9048POPC   D2A45412  19.866  40.820   6.755
 9048POPC   C3A45413  19.847  40.782   7.055
 9048POPC   C4A45414  19.871  40.829   7.355
 9048POPC   C1B45415  19.998  40.955   6.455
 9048POPC   C2B45416  20.040  40.943   6.755
 9048POPC   C3B45417  19.988  40.952   7.055
 9048POPC   C4B45418  20.036  40.944   7.355
 9049POPC   NC345419  25.253  30.665   5.555
 9049POPC   PO445420  25.309  30.673   5.855
 9049POPC   GL145421  25.302  30.709   6.155
 9049POPC   GL245422  25.276  30.832   6.155
 9049POPC   C1A45423  25.301  30.655   6.455
 9049POPC   D2A45424  25.223  30.654   6.755
 9049POPC   C3A45425  25.249  30.666   7.055
 9049POPC   C4A45426  25.300  30.648   7.355
 9049POPC   C1B45427  25.357  30.937   6.455
 9049POPC   C2B45428  25.373  30.924   6.755
 9049POPC   C3B45429  25.340  30.913   7.055
 9049POPC   C4B45430  25.341  30.965   7.355
 9050POPC   NC345431  33.057  33.793   5.555
 9050POPC   PO445432  32.999  33.775   5.855
 9050POPC   GL145433  32.999  33.839   6.155
 9050POPC   GL245434  32.989  33.943   6.155
 9050POPC   C1A45435  33.044  33.800   6.455
 9050POPC   D2A45436  32.992  33.768   6.755
 9050POPC   C3A45437  33.008  33.840   7.055
 9050POPC   C4A45438  33.069  33.754   7.355
 9050POPC   C1B45439  32.985  34.045   6.455
 9050POPC   C2B45440  32.992  34.059   6.755
 9050POPC   C3B45441  32.993  34.059   7.055
 9050POPC   C4B45442  32.987  34.033   7.355
 9051POPC   NC345443  29.119  25.218   5.555
 9051POPC   PO445444  29.135  25.309   5.855
 9051POPC   GL145445  29.117  25.283   6.155
 9051POPC   GL245446  29.041  25.143   6.155
 9051POPC   C1A45447  29.169  25.292   6.455
 9051POPC   D2A45448  29.178  25.314   6.755
 9051POPC   C3A45449  29.098  25.231   7.055
 9051POPC   C4A45450  29.179  25.225   7.355
 9051POPC   C1B45451  29.052  25.019   6.455
 9051POPC   C2B45452  28.992  25.046   6.755
 9051POPC   C3B45453  29.043  25.049   7.055
 9051POPC   C4B45454  29.045  25.091   7.355
 9052POPC   NC345455  17.544   5.907   5.555
 9052POPC   PO445456  17.490   5.893   5.855
 9052POPC   GL145457  17.523   5.848   6.155
 9052POPC   GL245458  17.546   5.765   6.155
 9052POPC   C1A45459  17.527   5.837   6.455
 9052POPC   D2A45460  17.501   5.903   6.755
 9052POPC   C3A45461  17.531   5.859   7.055
 9052POPC   C4A45462  17.543   5.916   7.355
 9052POPC   C1B45463  17.604   5.684   6.455
 9052POPC   C2B45464  17.587   5.651   6.755
 9052POPC   C3B45465  17.617   5.639   7.055
 9052POPC   C4B45466  17.669   5.609   7.355
 9053POPC   NC345467  40.749  10.567   5.555
 9053POPC   PO445468  40.818  10.530   5.855
 9053POPC   GL145469  40.767  10.484   6.155
 9053POPC   GL245470  40.678  10.460   6.155
 9053POPC   C1A45471  40.787  10.505   6.455
 9053POPC   D2A45472  40.825  10.512   6.755
 9053POPC   C3A45473  40.830  10.540   7.055
 9053POPC   C4A45474  40.737  10.568   7.355
 9053POPC   C1B45475  40.545  10.513   6.455
 9053POPC   C2B45476  40.587  10.490   6.755
 9053POPC   C3B45477  40.502  10.451   7.055
 9053POPC   C4B45478  40.515  10.492   7.355
 9054POPC   NC345479  40.742   5.056   5.555
 9054POPC   PO445480  40.768   5.131   5.855
 9054POPC   GL145481  40.739   5.069   6.155
 9054POPC   GL245482  40.836   5.187   6.155
 9054POPC   C1A45483  40.817   5.125   6.455
 9054POPC   D2A45484  40.820   5.085   6.755
 9054POPC   C3A45485  40.832   5.085   7.055
 9054POPC   C4A45486  40.747   5.092   7.355
 9054POPC   C1B45487  40.862   5.281   6.455
 9054POPC   C2B45488  40.825   5.369   6.755
 9054POPC   C3B45489  40.893   5.284   7.055
 9054POPC   C4B45490  40.857   5.373   7.355
 9055POPC   NC345491   8.171   4.337   5.555
 9055POPC   PO445492   8.171   4.365   5.855
 9055POPC   GL145493   8.183   4.289   6.155
 9055POPC   GL245494   8.282   4.368   6.155
 9055POPC   C1A45495   8.242   4.323   6.455
 9055POPC   D2A45496   8.182   4.327   6.755
 9055POPC   C3A45497   8.238   4.325   7.055
 9055POPC   C4A45498   8.244   4.277   7.355
 9055POPC   C1B45499   8.386   4.447   6.455
 9055POPC   C2B45500   8.370   4.531   6.755
 9055POPC   C3B45501   8.426   4.494   7.055
 9055POPC   C4B45502   8.368   4.528   7.355
 9056POPC   NC345503  43.068  40.775   5.555
 9056POPC   PO445504  43.101  40.813   5.855
 9056POPC   GL145505  43.071  40.829   6.155
 9056POPC   GL245506  43.086  40.635   6.155
 9056POPC   C1A45507  43.140  40.788   6.455
 9056POPC   D2A45508  43.135  40.768   6.755
 9056POPC   C3A45509  43.158  40.760   7.055
 9056POPC   C4A45510  43.072  40.741   7.355
 9056POPC   C1B45511  42.977  40.597   6.455
 9056POPC   C2B45512  42.999  40.609   6.755
 9056POPC   C3B45513  43.016  40.528   7.055
 9056POPC   C4B45514  42.948  40.589   7.355
 9057POPC   NC345515  19.020  33.802   5.555
 9057POPC   PO445516  19.010  33.801   5.855
 9057POPC   GL145517  19.019  33.779   6.155
 9057POPC   GL245518  19.149  33.757   6.155
 9057POPC   C1A45519  19.076  33.799   6.455
 9057POPC   D2A45520  19.039  33.799   6.755
 9057POPC   C3A45521  19.052  33.795   7.055
 9057POPC   C4A45522  19.010  33.822   7.355
 9057POPC   C1B45523  19.205  33.633   6.455
 9057POPC   C2B45524  19.278  33.648   6.755
 9057POPC   C3B45525  19.270  33.677   7.055
 9057POPC   C4B45526  19.279  33.677   7.355
 9058POPC   NC345527   8.220   8.213   5.555
 9058POPC   PO445528   8.185   8.215   5.855
 9058POPC   GL145529   8.213   8.191   6.155
 9058POPC   GL245530   8.362   8.292   6.155
 9058POPC   C1A45531   8.236   8.200   6.455
 9058POPC   D2A45532   8.208   8.238   6.755
 9058POPC   C3A45533   8.203   8.203   7.055
 9058POPC   C4A45534   8.241   8.201   7.355
 9058POPC   C1B45535   8.452   8.285   6.455
 9058POPC   C2B45536   8.405   8.314   6.755
 9058POPC   C3B45537   8.410   8.302   7.055
 9058POPC   C4B45538   8.463   8.277   7.355
 9059POPC   NC345539  27.581  44.644   5.555
 9059POPC   PO445540  27.612  44.692   5.855
 9059POPC   GL145541  27.634  44.652   6.155
 9059POPC   GL245542  27.533  44.732   6.155
 9059POPC   C1A45543  27.576  44.668   6.455
 9059POPC   D2A45544  27.589  44.629   6.755
 9059POPC   C3A45545  27.613  44.679   7.055
 9059POPC   C4A45546  27.630  44.620   7.355
 9059POPC   C1B45547  27.383  44.764   6.455
 9059POPC   C2B45548  27.349  44.767   6.755
 9059POPC   C3B45549  27.404  44.846   7.055
 9059POPC   C4B45550  27.405  44.777   7.355
 9060POPC   NC345551   1.945   2.804   5.555
 9060POPC   PO445552   1.969   2.805   5.855
 9060POPC   GL145553   1.998   2.726   6.155
 9060POPC   GL245554   1.991   2.883   6.155
 9060POPC   C1A45555   1.995   2.800   6.455
 9060POPC   D2A45556   1.987   2.774   6.755
 9060POPC   C3A45557   1.976   2.813   7.055
 9060POPC   C4A45558   2.030   2.792   7.355
 9060POPC   C1B45559   2.017   3.048   6.455
 9060POPC   C2B45560   2.045   3.048   6.755
 9060POPC   C3B45561   2.060   3.000   7.055
 9060POPC   C4B45562   2.057   2.998   7.355
 9061POPC   NC345563  33.801  32.269   5.555
 9061POPC   PO445564  33.774  32.234   5.855
 9061POPC   GL145565  33.814  32.250   6.155
 9061POPC   GL245566  33.725  32.203   6.155
 9061POPC   C1A45567  33.782  32.223   6.455
 9061POPC   D2A45568  33.752  32.209   6.755
 9061POPC   C3A45569  33.790  32.201   7.055
 9061POPC   C4A45570  33.751  32.237   7.355
 9061POPC   C1B45571  33.514  32.224   6.455
 9061POPC   C2B45572  33.512  32.251   6.755
 9061POPC   C3B45573  33.513  32.250   7.055
 9061POPC   C4B45574  33.517  32.187   7.355
 9062POPC   NC345575  18.318   9.011   5.555
 9062POPC   PO445576  18.298   9.007   5.855
 9062POPC   GL145577  18.299   8.949   6.155
 9062POPC   GL245578  18.436   8.877   6.155
 9062POPC   C1A45579  18.289   8.953   6.455
 9062POPC   D2A45580  18.268   8.971   6.755
 9062POPC   C3A45581  18.265   8.965   7.055
 9062POPC   C4A45582  18.239   8.971   7.355
 9062POPC   C1B45583  18.539   8.865   6.455
 9062POPC   C2B45584  18.544   8.816   6.755
 9062POPC   C3B45585  18.508   8.810   7.055
 9062POPC   C4B45586  18.513   8.809   7.355
 9063POPC   NC345587  37.693  43.879   5.555
 9063POPC   PO445588  37.679  43.855   5.855
 9063POPC   GL145589  37.683  43.871   6.155
 9063POPC   GL245590  37.706  44.030   6.155
 9063POPC   C1A45591  37.635  43.845   6.455
 9063POPC   D2A45592  37.658  43.866   6.755
 9063POPC   C3A45593  37.676  43.886   7.055
 9063POPC   C4A45594  37.671  43.906   7.355
 9063POPC   C1B45595  37.843  44.067   6.455
 9063POPC   C2B45596  37.827  44.054   6.755
 9063POPC   C3B45597  37.856  44.102   7.055
 9063POPC   C4B45598  37.814  44.088   7.355
 9064POPC   NC345599   3.571  44.694   5.555
 9064POPC   PO445600   3.559  44.699   5.855
 9064POPC   GL145601   3.585  44.690   6.155
 9064POPC   GL245602   3.522  44.510   6.155
 9064POPC   C1A45603   3.520  44.695   6.455
 9064POPC   D2A45604   3.549  44.657   6.755
 9064POPC   C3A45605   3.579  44.702   7.055
 9064POPC   C4A45606   3.581  44.665   7.355
 9064POPC   C1B45607   3.536  44.421   6.455
 9064POPC   C2B45608   3.554  44.439   6.755
 9064POPC   C3B45609   3.542  44.418   7.055
 9064POPC   C4B45610   3.505  44.389   7.355
 9065POPC   NC345611  28.320  43.118   5.555
 9065POPC   PO445612  28.386  43.118   5.855
 9065POPC   GL145613  28.380  43.131   6.155
 9065POPC   GL245614  28.356  43.023   6.155
 9065POPC   C1A45615  28.377  43.126   6.455
 9065POPC   D2A45616  28.401  43.071   6.755
 9065POPC   C3A45617  28.325  43.131   7.055
 9065POPC   C4A45618  28.369  43.088   7.355
 9065POPC   C1B45619  28.432  42.873   6.455
 9065POPC   C2B45620  28.466  42.906   6.755
 9065POPC   C3B45621  28.392  42.837   7.055
 9065POPC   C4B45622  28.416  42.878   7.355
 9066POPC   NC345623  40.791   5.905   5.555
 9066POPC   PO445624  40.786   5.885   5.855
 9066POPC   GL145625  40.792   5.891   6.155
 9066POPC   GL245626  40.907   5.758   6.155
 9066POPC   C1A45627  40.818   5.842   6.455
 9066POPC   D2A45628  40.757   5.873   6.755
 9066POPC   C3A45629  40.777   5.854   7.055
 9066POPC   C4A45630  40.751   5.892   7.355
 9066POPC   C1B45631  40.991   5.694   6.455
 9066POPC   C2B45632  40.948   5.654   6.755
 9066POPC   C3B45633  40.978   5.636   7.055
 9066POPC   C4B45634  40.988   5.671   7.355
 9067POPC   NC345635  24.482  32.237   5.555
 9067POPC   PO445636  24.494  32.268   5.855
 9067POPC   GL145637  24.506  32.279   6.155
 9067POPC   GL245638  24.418  32.269   6.155
 9067POPC   C1A45639  24.451  32.297   6.455
 9067POPC   D2A45640  24.484  32.214   6.755
 9067POPC   C3A45641  24.461  32.248   7.055
 9067POPC   C4A45642  24.443  32.266   7.355
 9067POPC   C1B45643  24.235  32.315   6.455
 9067POPC   C2B45644  24.201  32.307   6.755
 9067POPC   C3B45645  24.217  32.323   7.055
 9067POPC   C4B45646  24.267  32.366   7.355
 9068POPC   NC345647   1.166  25.278   5.555
 9068POPC   PO445648   1.208  25.264   5.855
 9068POPC   GL145649   1.263  25.259   6.155
 9068POPC   GL245650   1.373  25.171   6.155
 9068POPC   C1A45651   1.245  25.307   6.455
 9068POPC   D2A45652   1.215  25.274   6.755
 9068POPC   C3A45653   1.218  25.292   7.055
 9068POPC   C4A45654   1.224  25.226   7.355
 9068POPC   C1B45655   1.459  25.152   6.455
 9068POPC   C2B45656   1.472  25.150   6.755
 9068POPC   C3B45657   1.401  25.144   7.055
 9068POPC   C4B45658   1.481  25.198   7.355
 9069POPC   NC345659  32.212  19.809   5.555
 9069POPC   PO445660  32.262  19.824   5.855
 9069POPC   GL145661  32.251  19.837   6.155
 9069POPC   GL245662  32.137  19.906   6.155
 9069POPC   C1A45663  32.262  19.880   6.455
 9069POPC   D2A45664  32.252  19.804   6.755
 9069POPC   C3A45665  32.283  19.831   7.055
 9069POPC   C4A45666  32.224  19.878   7.355
 9069POPC   C1B45667  32.090  20.027   6.455
 9069POPC   C2B45668  32.071  20.037   6.755
 9069POPC   C3B45669  32.055  20.010   7.055
 9069POPC   C4B45670  32.107  20.050   7.355
 9070POPC   NC345671  11.336  24.492   5.555
 9070POPC   PO445672  11.252  24.534   5.855
 9070POPC   GL145673  11.283  24.449   6.155
 9070POPC   GL245674  11.295  24.325   6.155
 9070POPC   C1A45675  11.312  24.487   6.455
 9070POPC   D2A45676  11.336  24.512   6.755
 9070POPC   C3A45677  11.266  24.495   7.055
 9070POPC   C4A45678  11.335  24.445   7.355
 9070POPC   C1B45679  11.305  24.262   6.455
 9070POPC   C2B45680  11.281  24.233   6.755
 9070POPC   C3B45681  11.316  24.262   7.055
 9070POPC   C4B45682  11.336  24.265   7.355
 9071POPC   NC345683  14.397  19.009   5.555
 9071POPC   PO445684  14.380  19.016   5.855
 9071POPC   GL145685  14.404  19.087   6.155
 9071POPC   GL245686  14.507  19.110   6.155
 9071POPC   C1A45687  14.388  19.050   6.455
 9071POPC   D2A45688  14.388  19.075   6.755
 9071POPC   C3A45689  14.415  19.046   7.055
 9071POPC   C4A45690  14.411  19.108   7.355
 9071POPC   C1B45691  14.601  19.200   6.455
 9071POPC   C2B45692  14.536  19.198   6.755
 9071POPC   C3B45693  14.619  19.212   7.055
 9071POPC   C4B45694  14.572  19.215   7.355
 9072POPC   NC345695   9.734   4.299   5.555
 9072POPC   PO445696   9.785   4.324   5.855
 9072POPC   GL145697   9.736   4.359   6.155
 9072POPC   GL245698   9.597   4.329   6.155
 9072POPC   C1A45699   9.757   4.366   6.455
 9072POPC   D2A45700   9.731   4.364   6.755
 9072POPC   C3A45701   9.700   4.276   7.055
 9072POPC   C4A45702   9.750   4.275   7.355
 9072POPC   C1B45703   9.525   4.383   6.455
 9072POPC   C2B45704   9.472   4.373   6.755
 9072POPC   C3B45705   9.509   4.398   7.055
 9072POPC   C4B45706   9.477   4.364   7.355
 9073POPC   NC345707  33.061  18.316   5.555
 9073POPC   PO445708  33.057  18.306   5.855
 9073POPC   GL145709  33.038  18.274   6.155
 9073POPC   GL245710  32.895  18.211   6.155
 9073POPC   C1A45711  32.992  18.251   6.455
 9073POPC   D2A45712  33.011  18.299   6.755
 9073POPC   C3A45713  33.004  18.260   7.055
 9073POPC   C4A45714  32.984  18.248   7.355
 9073POPC   C1B45715  32.811  18.230   6.455
 9073POPC   C2B45716  32.749  18.222   6.755
 9073POPC   C3B45717  32.790  18.207   7.055
 9073POPC   C4B45718  32.786  18.245   7.355
 9074POPC   NC345719   3.580   6.618   5.555
 9074POPC   PO445720   3.543   6.605   5.855
 9074POPC   GL145721   3.586   6.677   6.155
 9074POPC   GL245722   3.444   6.555   6.155
 9074POPC   C1A45723   3.575   6.596   6.455
 9074POPC   D2A45724   3.550   6.636   6.755
 9074POPC   C3A45725   3.495   6.619   7.055
 9074POPC   C4A45726   3.501   6.670   7.355
 9074POPC   C1B45727   3.388   6.457   6.455
 9074POPC   C2B45728   3.303   6.517   6.755
 9074POPC   C3B45729   3.373   6.505   7.055
 9074POPC   C4B45730   3.310   6.489   7.355
 9075POPC   NC345731  20.593  33.804   5.555
 9075POPC   PO445732  20.644  33.787   5.855
 9075POPC   GL145733  20.651  33.786   6.155
 9075POPC   GL245734  20.718  33.855   6.155
 9075POPC   C1A45735  20.566  33.840   6.455
 9075POPC   D2A45736  20.621  33.757   6.755
 9075POPC   C3A45737  20.604  33.817   7.055
 9075POPC   C4A45738  20.616  33.792   7.355
 9075POPC   C1B45739  20.788  33.954   6.455
 9075POPC   C2B45740  20.778  33.950   6.755
 9075POPC   C3B45741  20.828  33.981   7.055
 9075POPC   C4B45742  20.770  33.958   7.355
 9076POPC   NC345743  39.251   6.603   5.555
 9076POPC   PO445744  39.225   6.644   5.855
 9076POPC   GL145745  39.238   6.660   6.155
 9076POPC   GL245746  39.110   6.662   6.155
 9076POPC   C1A45747  39.256   6.643   6.455
 9076POPC   D2A45748  39.273   6.637   6.755
 9076POPC   C3A45749  39.183   6.627   7.055
 9076POPC   C4A45750  39.183   6.603   7.355
 9076POPC   C1B45751  38.984   6.737   6.455
 9076POPC   C2B45752  38.982   6.807   6.755
 9076POPC   C3B45753  39.001   6.787   7.055
 9076POPC   C4B45754  38.981   6.758   7.355
 9077POPC   NC345755  32.291   5.893   5.555
 9077POPC   PO445756  32.266   5.899   5.855
 9077POPC   GL145757  32.247   5.882   6.155
 9077POPC   GL245758  32.342   6.017   6.155
 9077POPC   C1A45759  32.217   5.860   6.455
 9077POPC   D2A45760  32.266   5.833   6.755
 9077POPC   C3A45761  32.295   5.859   7.055
 9077POPC   C4A45762  32.277   5.866   7.355
 9077POPC   C1B45763  32.368   6.027   6.455
 9077POPC   C2B45764  32.376   6.040   6.755
 9077POPC   C3B45765  32.345   6.064   7.055
 9077POPC   C4B45766  32.410   6.067   7.355
 9078POPC   NC345767  38.446  31.505   5.555
 9078POPC   PO445768  38.450  31.470   5.855
 9078POPC   GL145769  38.421  31.487   6.155
 9078POPC   GL245770  38.335  31.374   6.155
 9078POPC   C1A45771  38.425  31.512   6.455
 9078POPC   D2A45772  38.466  31.442   6.755
 9078POPC   C3A45773  38.492  31.514   7.055
 9078POPC   C4A45774  38.427  31.430   7.355
 9078POPC   C1B45775  38.318  31.322   6.455
 9078POPC   C2B45776  38.278  31.272   6.755
 9078POPC   C3B45777  38.312  31.328   7.055
 9078POPC   C4B45778  38.256  31.333   7.355
 9079POPC   NC345779  43.931  18.332   5.555
 9079POPC   PO445780  43.891  18.266   5.855
 9079POPC   GL145781  43.838  18.256   6.155
 9079POPC   GL245782  43.810  18.311   6.155
 9079POPC   C1A45783  43.886  18.320   6.455
 9079POPC   D2A45784  43.873  18.260   6.755
 9079POPC   C3A45785  43.855  18.266   7.055
 9079POPC   C4A45786  43.875  18.316   7.355
 9079POPC   C1B45787  43.697  18.418   6.455
 9079POPC   C2B45788  43.691  18.429   6.755
 9079POPC   C3B45789  43.701  18.459   7.055
 9079POPC   C4B45790  43.624  18.439   7.355
 9080POPC   NC345791   5.850   2.791   5.555
 9080POPC   PO445792   5.904   2.799   5.855
 9080POPC   GL145793   5.851   2.768   6.155
 9080POPC   GL245794   5.796   2.640   6.155
 9080POPC   C1A45795   5.841   2.794   6.455
 9080POPC   D2A45796   5.819   2.764   6.755
 9080POPC   C3A45797   5.821   2.806   7.055
 9080POPC   C4A45798   5.854   2.777   7.355
 9080POPC   C1B45799   5.757   2.562   6.455
 9080POPC   C2B45800   5.815   2.560   6.755
 9080POPC   C3B45801   5.787   2.490   7.055
 9080POPC   C4B45802   5.784   2.513   7.355
 9081POPC   NC345803  43.079  19.089   5.555
 9081POPC   PO445804  43.156  19.082   5.855
 9081POPC   GL145805  43.148  19.058   6.155
 9081POPC   GL245806  43.203  19.088   6.155
 9081POPC   C1A45807  43.095  19.026   6.455
 9081POPC   D2A45808  43.152  19.105   6.755
 9081POPC   C3A45809  43.111  19.015   7.055
 9081POPC   C4A45810  43.090  19.015   7.355
 9081POPC   C1B45811  43.295  19.200   6.455
 9081POPC   C2B45812  43.336  19.228   6.755
 9081POPC   C3B45813  43.367  19.208   7.055
 9081POPC   C4B45814  43.354  19.140   7.355
 9082POPC   NC345815  15.138  29.173   5.555
 9082POPC   PO445816  15.155  29.134   5.855
 9082POPC   GL145817  15.164  29.155   6.155
 9082POPC   GL245818  15.054  29.195   6.155
 9082POPC   C1A45819  15.214  29.098   6.455
 9082POPC   D2A45820  15.218  29.119   6.755
 9082POPC   C3A45821  15.132  29.192   7.055
 9082POPC   C4A45822  15.131  29.157   7.355
 9082POPC   C1B45823  14.959  29.276   6.455
 9082POPC   C2B45824  14.992  29.258   6.755
 9082POPC   C3B45825  14.938  29.304   7.055
 9082POPC   C4B45826  14.998  29.316   7.355
 9083POPC   NC345827  42.296   9.716   5.555
 9083POPC   PO445828  42.289   9.737   5.855
 9083POPC   GL145829  42.291   9.798   6.155
 9083POPC   GL245830  42.223   9.692   6.155
 9083POPC   C1A45831  42.333   9.705   6.455
 9083POPC   D2A45832  42.331   9.732   6.755
 9083POPC   C3A45833  42.338   9.758   7.055
 9083POPC   C4A45834  42.334   9.794   7.355
 9083POPC   C1B45835  42.134   9.571   6.455
 9083POPC   C2B45836  42.156   9.628   6.755
 9083POPC   C3B45837  42.120   9.603   7.055
 9083POPC   C4B45838  42.110   9.585   7.355
 9084POPC   NC345839  37.678  26.010   5.555
 9084POPC   PO445840  37.640  26.032   5.855
 9084POPC   GL145841  37.673  26.042   6.155
 9084POPC   GL245842  37.736  26.193   6.155
 9084POPC   C1A45843  37.672  26.036   6.455
 9084POPC   D2A45844  37.634  26.079   6.755
 9084POPC   C3A45845  37.681  26.045   7.055
 9084POPC   C4A45846  37.658  26.020   7.355
 9084POPC   C1B45847  37.681  26.326   6.455
 9084POPC   C2B45848  37.761  26.319   6.755
 9084POPC   C3B45849  37.738  26.301   7.055
 9084POPC   C4B45850  37.688  26.301   7.355
 9085POPC   NC345851  35.387  42.294   5.555
 9085POPC   PO445852  35.324  42.285   5.855
 9085POPC   GL145853  35.338  42.296   6.155
 9085POPC   GL245854  35.305  42.274   6.155
 9085POPC   C1A45855  35.314  42.378   6.455
 9085POPC   D2A45856  35.327  42.343   6.755
 9085POPC   C3A45857  35.396  42.377   7.055
 9085POPC   C4A45858  35.394  42.332   7.355
 9085POPC   C1B45859  35.231  42.126   6.455
 9085POPC   C2B45860  35.273  42.120   6.755
 9085POPC   C3B45861  35.226  42.160   7.055
 9085POPC   C4B45862  35.203  42.135   7.355
 9086POPC   NC345863  33.833  26.083   5.555
 9086POPC   PO445864  33.827  26.082   5.855
 9086POPC   GL145865  33.764  26.077   6.155
 9086POPC   GL245866  33.785  26.206   6.155
 9086POPC   C1A45867  33.837  26.077   6.455
 9086POPC   D2A45868  33.792  26.088   6.755
 9086POPC   C3A45869  33.827  26.069   7.055
 9086POPC   C4A45870  33.818  26.063   7.355
 9086POPC   C1B45871  33.823  26.274   6.455
 9086POPC   C2B45872  33.781  26.245   6.755
 9086POPC   C3B45873  33.776  26.336   7.055
 9086POPC   C4B45874  33.753  26.245   7.355
 9087POPC   NC345875   9.003  13.594   5.555
 9087POPC   PO445876   9.018  13.668   5.855
 9087POPC   GL145877   8.930  13.638   6.155
 9087POPC   GL245878   8.878  13.713   6.155
 9087POPC   C1A45879   9.010  13.609   6.455
 9087POPC   D2A45880   8.943  13.581   6.755
 9087POPC   C3A45881   8.930  13.598   7.055
 9087POPC   C4A45882   9.017  13.601   7.355
 9087POPC   C1B45883   8.779  13.730   6.455
 9087POPC   C2B45884   8.796  13.731   6.755
 9087POPC   C3B45885   8.736  13.730   7.055
 9087POPC   C4B45886   8.748  13.738   7.355
 9088POPC   NC345887   6.677   5.832   5.555
 9088POPC   PO445888   6.652   5.821   5.855
 9088POPC   GL145889   6.684   5.878   6.155
 9088POPC   GL245890   6.554   5.761   6.155
 9088POPC   C1A45891   6.626   5.840   6.455
 9088POPC   D2A45892   6.617   5.915   6.755
 9088POPC   C3A45893   6.644   5.897   7.055
 9088POPC   C4A45894   6.682   5.835   7.355
 9088POPC   C1B45895   6.585   5.661   6.455
 9088POPC   C2B45896   6.503   5.610   6.755
 9088POPC   C3B45897   6.573   5.636   7.055
 9088POPC   C4B45898   6.538   5.684   7.355
 9089POPC   NC345899  43.906   4.311   5.555
 9089POPC   PO445900  43.910   4.300   5.855
 9089POPC   GL145901  43.875   4.346   6.155
 9089POPC   GL245902  43.978   4.268   6.155
 9089POPC   C1A45903  43.842   4.355   6.455
 9089POPC   D2A45904  43.843   4.273   6.755
 9089POPC   C3A45905  43.877   4.332   7.055
 9089POPC   C4A45906  43.838   4.286   7.355
 9089POPC   C1B45907  44.109   4.211   6.455
 9089POPC   C2B45908  44.131   4.250   6.755
 9089POPC   C3B45909  44.133   4.247   7.055
 9089POPC   C4B45910  44.085   4.180   7.355
 9090POPC   NC345911  18.273  10.543   5.555
 9090POPC   PO445912  18.312  10.527   5.855
 9090POPC   GL145913  18.248  10.555   6.155
 9090POPC   GL245914  18.192  10.462   6.155
 9090POPC   C1A45915  18.261  10.527   6.455
 9090POPC   D2A45916  18.305  10.512   6.755
 9090POPC   C3A45917  18.236  10.539   7.055
 9090POPC   C4A45918  18.237  10.484   7.355
 9090POPC   C1B45919  18.085  10.425   6.455
 9090POPC   C2B45920  18.023  10.507   6.755
 9090POPC   C3B45921  18.048  10.453   7.055
 9090POPC   C4B45922  18.088  10.509   7.355
 9091POPC   NC345923  42.342  27.549   5.555
 9091POPC   PO445924  42.322  27.575   5.855
 9091POPC   GL145925  42.340  27.585   6.155
 9091POPC   GL245926  42.448  27.601   6.155
 9091POPC   C1A45927  42.343  27.581   6.455
 9091POPC   D2A45928  42.382  27.612   6.755
 9091POPC   C3A45929  42.329  27.617   7.055
 9091POPC   C4A45930  42.313  27.547   7.355
 9091POPC   C1B45931  42.613  27.572   6.455
 9091POPC   C2B45932  42.617  27.527   6.755
 9091POPC   C3B45933  42.626  27.492   7.055
 9091POPC   C4B45934  42.617  27.520   7.355
 9092POPC   NC345935  15.215  19.859   5.555
 9092POPC   PO445936  15.221  19.802   5.855
 9092POPC   GL145937  15.226  19.797   6.155
 9092POPC   GL245938  15.018  19.836   6.155
 9092POPC   C1A45939  15.132  19.795   6.455
 9092POPC   D2A45940  15.191  19.847   6.755
 9092POPC   C3A45941  15.156  19.884   7.055
 9092POPC   C4A45942  15.166  19.830   7.355
 9092POPC   C1B45943  14.929  19.926   6.455
 9092POPC   C2B45944  14.930  19.862   6.755
 9092POPC   C3B45945  14.940  19.905   7.055
 9092POPC   C4B45946  14.905  19.885   7.355
 9093POPC   NC345947  37.675  36.169   5.555
 9093POPC   PO445948  37.672  36.090   5.855
 9093POPC   GL145949  37.668  36.155   6.155
 9093POPC   GL245950  37.783  36.232   6.155
 9093POPC   C1A45951  37.655  36.113   6.455
 9093POPC   D2A45952  37.673  36.151   6.755
 9093POPC   C3A45953  37.647  36.100   7.055
 9093POPC   C4A45954  37.693  36.135   7.355
 9093POPC   C1B45955  37.846  36.374   6.455
 9093POPC   C2B45956  37.858  36.305   6.755
 9093POPC   C3B45957  37.781  36.327   7.055
 9093POPC   C4B45958  37.852  36.298   7.355
 9094POPC   NC345959  14.414   1.956   5.555
 9094POPC   PO445960  14.362   2.000   5.855
 9094POPC   GL145961  14.390   2.010   6.155
 9094POPC   GL245962  14.397   2.099   6.155
 9094POPC   C1A45963  14.365   2.032   6.455
 9094POPC   D2A45964  14.442   1.964   6.755
 9094POPC   C3A45965  14.419   1.959   7.055
 9094POPC   C4A45966  14.406   1.945   7.355
 9094POPC   C1B45967  14.293   2.179   6.455
 9094POPC   C2B45968  14.259   2.227   6.755
 9094POPC   C3B45969  14.336   2.183   7.055
 9094POPC   C4B45970  14.285   2.220   7.355
 9095POPC   NC345971  37.631  28.339   5.555
 9095POPC   PO445972  37.721  28.371   5.855
 9095POPC   GL145973  37.693  28.353   6.155
 9095POPC   GL245974  37.557  28.515   6.155
 9095POPC   C1A45975  37.668  28.399   6.455
 9095POPC   D2A45976  37.637  28.401   6.755
 9095POPC   C3A45977  37.672  28.370   7.055
 9095POPC   C4A45978  37.639  28.389   7.355
 9095POPC   C1B45979  37.535  28.561   6.455
 9095POPC   C2B45980  37.479  28.595   6.755
 9095POPC   C3B45981  37.505  28.573   7.055
 9095POPC   C4B45982  37.501  28.575   7.355
 9096POPC   NC345983   1.962  18.294   5.555
 9096POPC   PO445984   1.944  18.276   5.855
 9096POPC   GL145985   1.994  18.258   6.155
 9096POPC   GL245986   2.053  18.381   6.155
 9096POPC   C1A45987   2.025  18.316   6.455
 9096POPC   D2A45988   1.996  18.262   6.755
 9096POPC   C3A45989   1.942  18.270   7.055
 9096POPC   C4A45990   1.990  18.315   7.355
 9096POPC   C1B45991   2.031  18.528   6.455
 9096POPC   C2B45992   2.072  18.553   6.755
 9096POPC   C3B45993   2.096  18.489   7.055
 9096POPC   C4B45994   2.049  18.502   7.355
 9097POPC   NC345995  36.861  35.389   5.555
 9097POPC   PO445996  36.930  35.311   5.855
 9097POPC   GL145997  36.945  35.376   6.155
 9097POPC   GL245998  37.069  35.351   6.155
 9097POPC   C1A45999  36.873  35.346   6.455
 9097POPC   D2A46000  36.910  35.372   6.755
 9097POPC   C3A46001  36.878  35.382   7.055
 9097POPC   C4A46002  36.868  35.371   7.355
 9097POPC   C1B46003  37.161  35.243   6.455
 9097POPC   C2B46004  37.172  35.301   6.755
 9097POPC   C3B46005  37.154  35.275   7.055
 9097POPC   C4B46006  37.091  35.268   7.355
 9098POPC   NC346007  19.873  39.277   5.555
 9098POPC   PO446008  19.821  39.205   5.855
 9098POPC   GL146009  19.871  39.264   6.155
 9098POPC   GL246010  19.938  39.137   6.155
 9098POPC   C1A46011  19.865  39.218   6.455
 9098POPC   D2A46012  19.871  39.223   6.755
 9098POPC   C3A46013  19.813  39.272   7.055
 9098POPC   C4A46014  19.868  39.270   7.355
 9098POPC   C1B46015  19.981  39.019   6.455
 9098POPC   C2B46016  19.924  39.045   6.755
 9098POPC   C3B46017  19.983  38.973   7.055
 9098POPC   C4B46018  19.993  39.017   7.355
 9099POPC   NC346019   2.790  41.607   5.555
 9099POPC   PO446020   2.734  41.557   5.855
 9099POPC   GL146021   2.807  41.523   6.155
 9099POPC   GL246022   2.760  41.441   6.155
 9099POPC   C1A46023   2.784  41.510   6.455
 9099POPC   D2A46024   2.732  41.576   6.755
 9099POPC   C3A46025   2.744  41.567   7.055
 9099POPC   C4A46026   2.730  41.600   7.355
 9099POPC   C1B46027   2.813  41.301   6.455
 9099POPC   C2B46028   2.784  41.316   6.755
 9099POPC   C3B46029   2.809  41.320   7.055
 9099POPC   C4B46030   2.786  41.286   7.355
 9100POPC   NC346031  22.182  29.934   5.555
 9100POPC   PO446032  22.151  29.906   5.855
 9100POPC   GL146033  22.114  29.949   6.155
 9100POPC   GL246034  22.297  29.918   6.155
 9100POPC   C1A46035  22.203  29.889   6.455
 9100POPC   D2A46036  22.193  29.876   6.755
 9100POPC   C3A46037  22.188  29.888   7.055
 9100POPC   C4A46038  22.117  29.912   7.355
 9100POPC   C1B46039  22.449  29.913   6.455
 9100POPC   C2B46040  22.433  29.930   6.755
 9100POPC   C3B46041  22.437  29.922   7.055
 9100POPC   C4B46042  22.458  29.933   7.355
 9101POPC   NC346043  27.642  29.965   5.555
 9101POPC   PO446044  27.638  29.956   5.855
 9101POPC   GL146045  27.625  29.907   6.155
 9101POPC   GL246046  27.762  29.923   6.155
 9101POPC   C1A46047  27.626  29.883   6.455
 9101POPC   D2A46048  27.602  29.966   6.755
 9101POPC   C3A46049  27.627  29.903   7.055
 9101POPC   C4A46050  27.555  29.912   7.355
 9101POPC   C1B46051  27.845  29.908   6.455
 9101POPC   C2B46052  27.855  29.962   6.755
 9101POPC   C3B46053  27.828  29.919   7.055
 9101POPC   C4B46054  27.813  29.902   7.355
 9102POPC   NC346055  44.652   1.995   5.555
 9102POPC   PO446056  44.691   2.032   5.855
 9102POPC   GL146057  44.696   1.959   6.155
 9102POPC   GL246058  44.820   2.017   6.155
 9102POPC   C1A46059  44.640   1.944   6.455
 9102POPC   D2A46060  44.644   2.033   6.755
 9102POPC   C3A46061  44.651   1.956   7.055
 9102POPC   C4A46062  44.678   1.948   7.355
 9102POPC   C1B46063  44.868   1.999   6.455
 9102POPC   C2B46064  44.928   2.036   6.755
 9102POPC   C3B46065  44.887   2.069   7.055
 9102POPC   C4B46066  44.930   2.022   7.355
 9103POPC   NC346067  10.490  12.852   5.555
 9103POPC   PO446068  10.519  12.844   5.855
 9103POPC   GL146069  10.520  12.802   6.155
 9103POPC   GL246070  10.647  12.726   6.155
 9103POPC   C1A46071  10.572  12.810   6.455
 9103POPC   D2A46072  10.545  12.876   6.755
 9103POPC   C3A46073  10.552  12.873   7.055
 9103POPC   C4A46074  10.540  12.855   7.355
 9103POPC   C1B46075  10.660  12.708   6.455
 9103POPC   C2B46076  10.708  12.685   6.755
 9103POPC   C3B46077  10.687  12.616   7.055
 9103POPC   C4B46078  10.705  12.686   7.355
 9104POPC   NC346079   0.455   7.460   5.555
 9104POPC   PO446080   0.418   7.439   5.855
 9104POPC   GL146081   0.486   7.421   6.155
 9104POPC   GL246082   0.344   7.319   6.155
 9104POPC   C1A46083   0.446   7.470   6.455
 9104POPC   D2A46084   0.453   7.470   6.755
 9104POPC   C3A46085   0.432   7.467   7.055
 9104POPC   C4A46086   0.465   7.425   7.355
 9104POPC   C1B46087   0.199   7.260   6.455
 9104POPC   C2B46088   0.239   7.276   6.755
 9104POPC   C3B46089   0.247   7.232   7.055
 9104POPC   C4B46090   0.240   7.226   7.355
 9105POPC   NC346091  26.057   9.709   5.555
 9105POPC   PO446092  26.022   9.716   5.855
 9105POPC   GL146093  26.083   9.709   6.155
 9105POPC   GL246094  25.937   9.706   6.155
 9105POPC   C1A46095  26.090   9.719   6.455
 9105POPC   D2A46096  26.065   9.731   6.755
 9105POPC   C3A46097  26.045   9.708   7.055
 9105POPC   C4A46098  25.996   9.768   7.355
 9105POPC   C1B46099  25.841   9.655   6.455
 9105POPC   C2B46100  25.780   9.669   6.755
 9105POPC   C3B46101  25.801   9.714   7.055
 9105POPC   C4B46102  25.777   9.632   7.355
 9106POPC   NC346103  11.266  31.478   5.555
 9106POPC   PO446104  11.292  31.491   5.855
 9106POPC   GL146105  11.315  31.478   6.155
 9106POPC   GL246106  11.376  31.410   6.155
 9106POPC   C1A46107  11.274  31.516   6.455
 9106POPC   D2A46108  11.293  31.423   6.755
 9106POPC   C3A46109  11.311  31.441   7.055
 9106POPC   C4A46110  11.341  31.449   7.355
 9106POPC   C1B46111  11.558  31.407   6.455
 9106POPC   C2B46112  11.532  31.378   6.755
 9106POPC   C3B46113  11.539  31.361   7.055
 9106POPC   C4B46114  11.498  31.415   7.355
 9107POPC   NC346115  22.917  26.769   5.555
 9107POPC   PO446116  22.935  26.805   5.855
 9107POPC   GL146117  22.951  26.794   6.155
 9107POPC   GL246118  22.825  26.763   6.155
 9107POPC   C1A46119  22.936  26.836   6.455
 9107POPC   D2A46120  22.907  26.785   6.755
 9107POPC   C3A46121  22.948  26.850   7.055
 9107POPC   C4A46122  22.967  26.783   7.355
 9107POPC   C1B46123  22.709  26.796   6.455
 9107POPC   C2B46124  22.656  26.823   6.755
 9107POPC   C3B46125  22.669  26.772   7.055
 9107POPC   C4B46126  22.734  26.818   7.355
 9108POPC   NC346127  26.016  19.871   5.555
 9108POPC   PO446128  26.089  19.802   5.855
 9108POPC   GL146129  26.066  19.806   6.155
 9108POPC   GL246130  26.161  19.766   6.155
 9108POPC   C1A46131  26.024  19.787   6.455
 9108POPC   D2A46132  26.030  19.796   6.755
 9108POPC   C3A46133  26.030  19.867   7.055
 9108POPC   C4A46134  26.020  19.844   7.355
 9108POPC   C1B46135  26.318  19.753   6.455
 9108POPC   C2B46136  26.245  19.811   6.755
 9108POPC   C3B46137  26.264  19.751   7.055
 9108POPC   C4B46138  26.245  19.789   7.355
 9109POPC   NC346139   9.000  42.319   5.555
 9109POPC   PO446140   8.946  42.339   5.855
 9109POPC   GL146141   8.972  42.290   6.155
 9109POPC   GL246142   8.930  42.432   6.155
 9109POPC   C1A46143   8.942  42.347   6.455
 9109POPC   D2A46144   8.980  42.343   6.755
 9109POPC   C3A46145   9.007  42.327   7.055
 9109POPC   C4A46146   9.008  42.309   7.355
 9109POPC   C1B46147   9.007  42.543   6.455
 9109POPC   C2B46148   8.916  42.538   6.755
 9109POPC   C3B46149   8.986  42.567   7.055
 9109POPC   C4B46150   8.923  42.555   7.355
 9110POPC   NC346151   5.088  11.273   5.555
 9110POPC   PO446152   5.099  11.274   5.855
 9110POPC   GL146153   5.121  11.346   6.155
 9110POPC   GL246154   5.180  11.158   6.155
 9110POPC   C1A46155   5.101  11.289   6.455
 9110POPC   D2A46156   5.095  11.284   6.755
 9110POPC   C3A46157   5.090  11.285   7.055
 9110POPC   C4A46158   5.086  11.340   7.355
 9110POPC   C1B46159   5.211  11.115   6.455
 9110POPC   C2B46160   5.242  11.094   6.755
 9110POPC   C3B46161   5.217  11.085   7.055
 9110POPC   C4B46162   5.195  11.092   7.355
 9111POPC   NC346163  21.394  29.177   5.555
 9111POPC   PO446164  21.424  29.171   5.855
 9111POPC   GL146165  21.352  29.102   6.155
 9111POPC   GL246166  21.454  29.045   6.155
 9111POPC   C1A46167  21.366  29.183   6.455
 9111POPC   D2A46168  21.363  29.140   6.755
 9111POPC   C3A46169  21.379  29.141   7.055
 9111POPC   C4A46170  21.402  29.179   7.355
 9111POPC   C1B46171  21.571  29.037   6.455
 9111POPC   C2B46172  21.620  29.029   6.755
 9111POPC   C3B46173  21.606  28.976   7.055
 9111POPC   C4B46174  21.612  29.036   7.355
 9112POPC   NC346175   8.153  12.049   5.555
 9112POPC   PO446176   8.218  12.065   5.855
 9112POPC   GL146177   8.237  12.093   6.155
 9112POPC   GL246178   8.286  12.097   6.155
 9112POPC   C1A46179   8.196  12.102   6.455
 9112POPC   D2A46180   8.190  12.124   6.755
 9112POPC   C3A46181   8.245  12.044   7.055
 9112POPC   C4A46182   8.246  12.035   7.355
 9112POPC   C1B46183   8.467  12.193   6.455
 9112POPC   C2B46184   8.435  12.134   6.755
 9112POPC   C3B46185   8.449  12.125   7.055
 9112POPC   C4B46186   8.423  12.173   7.355
 9113POPC   NC346187  39.222  17.508   5.555
 9113POPC   PO446188  39.242  17.459   5.855
 9113POPC   GL146189  39.260  17.475   6.155
 9113POPC   GL246190  39.222  17.595   6.155
 9113POPC   C1A46191  39.228  17.533   6.455
 9113POPC   D2A46192  39.246  17.527   6.755
 9113POPC   C3A46193  39.194  17.512   7.055
 9113POPC   C4A46194  39.244  17.497   7.355
 9113POPC   C1B46195  39.112  17.772   6.455
 9113POPC   C2B46196  39.105  17.763   6.755
 9113POPC   C3B46197  39.091  17.699   7.055
 9113POPC   C4B46198  39.107  17.714   7.355
 9114POPC   NC346199  20.658   6.612   5.555
 9114POPC   PO446200  20.636   6.632   5.855
 9114POPC   GL146201  20.653   6.604   6.155
 9114POPC   GL246202  20.486   6.630   6.155
 9114POPC   C1A46203  20.598   6.603   6.455
 9114POPC   D2A46204  20.561   6.597   6.755
 9114POPC   C3A46205  20.639   6.640   7.055
 9114POPC   C4A46206  20.594   6.645   7.355
 9114POPC   C1B46207  20.356   6.635   6.455
 9114POPC   C2B46208  20.394   6.574   6.755
 9114POPC   C3B46209  20.347   6.647   7.055
 9114POPC   C4B46210  20.369   6.582   7.355
 9115POPC   NC346211  18.282   9.721   5.555
 9115POPC   PO446212  18.236   9.789   5.855
 9115POPC   GL146213  18.243   9.788   6.155
 9115POPC   GL246214  18.181   9.784   6.155
 9115POPC   C1A46215  18.285   9.755   6.455
 9115POPC   D2A46216  18.249   9.769   6.755
 9115POPC   C3A46217  18.310   9.701   7.055
 9115POPC   C4A46218  18.256   9.773   7.355
 9115POPC   C1B46219  18.084   9.782   6.455
 9115POPC   C2B46220  18.048   9.810   6.755
 9115POPC   C3B46221  18.046   9.729   7.055
 9115POPC   C4B46222  18.034   9.748   7.355
 9116POPC   NC346223   2.785  18.323   5.555
 9116POPC   PO446224   2.739  18.253   5.855
 9116POPC   GL146225   2.743  18.298   6.155
 9116POPC   GL246226   2.710  18.367   6.155
 9116POPC   C1A46227   2.749  18.289   6.455
 9116POPC   D2A46228   2.735  18.307   6.755
 9116POPC   C3A46229   2.774  18.261   7.055
 9116POPC   C4A46230   2.794  18.287   7.355
 9116POPC   C1B46231   2.688  18.491   6.455
 9116POPC   C2B46232   2.726  18.542   6.755
 9116POPC   C3B46233   2.644  18.554   7.055
 9116POPC   C4B46234   2.702  18.505   7.355
 9117POPC   NC346235   4.284   5.843   5.555
 9117POPC   PO446236   4.348   5.829   5.855
 9117POPC   GL146237   4.348   5.864   6.155
 9117POPC   GL246238   4.165   5.887   6.155
 9117POPC   C1A46239   4.342   5.882   6.455
 9117POPC   D2A46240   4.308   5.915   6.755
 9117POPC   C3A46241   4.287   5.893   7.055
 9117POPC   C4A46242   4.312   5.851   7.355
 9117POPC   C1B46243   4.074   5.860   6.455
 9117POPC   C2B46244   4.066   5.795   6.755
 9117POPC   C3B46245   4.057   5.793   7.055
 9117POPC   C4B46246   4.050   5.837   7.355
 9118POPC   NC346247  19.840  12.120   5.555
 9118POPC   PO446248  19.862  12.058   5.855
 9118POPC   GL146249  19.790  12.067   6.155
 9118POPC   GL246250  19.786  12.195   6.155
 9118POPC   C1A46251  19.876  12.125   6.455
 9118POPC   D2A46252  19.814  12.052   6.755
 9118POPC   C3A46253  19.838  12.038   7.055
 9118POPC   C4A46254  19.806  12.123   7.355
 9118POPC   C1B46255  19.692  12.263   6.455
 9118POPC   C2B46256  19.647  12.260   6.755
 9118POPC   C3B46257  19.676  12.286   7.055
 9118POPC   C4B46258  19.661  12.280   7.355
 9119POPC   NC346259   3.564  37.655   5.555
 9119POPC   PO446260   3.535  37.661   5.855
 9119POPC   GL146261   3.576  37.709   6.155
 9119POPC   GL246262   3.493  37.549   6.155
 9119POPC   C1A46263   3.557  37.671   6.455
 9119POPC   D2A46264   3.539  37.703   6.755
 9119POPC   C3A46265   3.550  37.702   7.055
 9119POPC   C4A46266   3.547  37.661   7.355
 9119POPC   C1B46267   3.454  37.440   6.455
 9119POPC   C2B46268   3.359  37.438   6.755
 9119POPC   C3B46269   3.376  37.458   7.055
 9119POPC   C4B46270   3.369  37.466   7.355
 9120POPC   NC346271  24.462  31.477   5.555
 9120POPC   PO446272  24.467  31.514   5.855
 9120POPC   GL146273  24.483  31.522   6.155
 9120POPC   GL246274  24.328  31.428   6.155
 9120POPC   C1A46275  24.460  31.423   6.455
 9120POPC   D2A46276  24.494  31.462   6.755
 9120POPC   C3A46277  24.464  31.458   7.055
 9120POPC   C4A46278  24.528  31.460   7.355
 9120POPC   C1B46279  24.263  31.345   6.455
 9120POPC   C2B46280  24.247  31.436   6.755
 9120POPC   C3B46281  24.289  31.348   7.055
 9120POPC   C4B46282  24.213  31.388   7.355
 9121POPC   NC346283  36.899  11.315   5.555
 9121POPC   PO446284  36.879  11.255   5.855
 9121POPC   GL146285  36.879  11.303   6.155
 9121POPC   GL246286  37.024  11.169   6.155
 9121POPC   C1A46287  36.886  11.274   6.455
 9121POPC   D2A46288  36.937  11.256   6.755
 9121POPC   C3A46289  36.881  11.265   7.055
 9121POPC   C4A46290  36.880  11.266   7.355
 9121POPC   C1B46291  37.038  11.075   6.455
 9121POPC   C2B46292  37.094  11.147   6.755
 9121POPC   C3B46293  37.035  11.086   7.055
 9121POPC   C4B46294  37.104  11.154   7.355
 9122POPC   NC346295  33.837  19.058   5.555
 9122POPC   PO446296  33.816  19.075   5.855
 9122POPC   GL146297  33.806  19.012   6.155
 9122POPC   GL246298  33.838  19.198   6.155
 9122POPC   C1A46299  33.793  19.096   6.455
 9122POPC   D2A46300  33.752  19.066   6.755
 9122POPC   C3A46301  33.822  19.106   7.055
 9122POPC   C4A46302  33.810  19.078   7.355
 9122POPC   C1B46303  33.842  19.340   6.455
 9122POPC   C2B46304  33.910  19.298   6.755
 9122POPC   C3B46305  33.823  19.284   7.055
 9122POPC   C4B46306  33.841  19.282   7.355
 9123POPC   NC346307  10.490   1.945   5.555
 9123POPC   PO446308  10.549   2.018   5.855
 9123POPC   GL146309  10.475   2.018   6.155
 9123POPC   GL246310  10.414   2.138   6.155
 9123POPC   C1A46311  10.513   2.009   6.455
 9123POPC   D2A46312  10.507   2.003   6.755
 9123POPC   C3A46313  10.566   2.011   7.055
 9123POPC   C4A46314  10.527   1.991   7.355
 9123POPC   C1B46315  10.408   2.247   6.455
 9123POPC   C2B46316  10.395   2.209   6.755
 9123POPC   C3B46317  10.395   2.160   7.055
 9123POPC   C4B46318  10.368   2.176   7.355
 9124POPC   NC346319  21.369   9.762   5.555
 9124POPC   PO446320  21.347   9.738   5.855
 9124POPC   GL146321  21.393   9.766   6.155
 9124POPC   GL246322  21.325   9.876   6.155
 9124POPC   C1A46323  21.344   9.782   6.455
 9124POPC   D2A46324  21.398   9.768   6.755
 9124POPC   C3A46325  21.417   9.705   7.055
 9124POPC   C4A46326  21.382   9.708   7.355
 9124POPC   C1B46327  21.217   9.975   6.455
 9124POPC   C2B46328  21.314   9.945   6.755
 9124POPC   C3B46329  21.310   9.981   7.055
 9124POPC   C4B46330  21.259   9.987   7.355
 9125POPC   NC346331   2.798   5.139   5.555
 9125POPC   PO446332   2.776   5.084   5.855
 9125POPC   GL146333   2.764   5.065   6.155
 9125POPC   GL246334   2.686   5.163   6.155
 9125POPC   C1A46335   2.730   5.079   6.455
 9125POPC   D2A46336   2.733   5.117   6.755
 9125POPC   C3A46337   2.793   5.130   7.055
 9125POPC   C4A46338   2.737   5.087   7.355
 9125POPC   C1B46339   2.510   5.120   6.455
 9125POPC   C2B46340   2.505   5.174   6.755
 9125POPC   C3B46341   2.548   5.116   7.055
 9125POPC   C4B46342   2.544   5.166   7.355
 9126POPC   NC346343  32.216  43.876   5.555
 9126POPC   PO446344  32.218  43.877   5.855
 9126POPC   GL146345  32.283  43.907   6.155
 9126POPC   GL246346  32.095  43.868   6.155
 9126POPC   C1A46347  32.263  43.890   6.455
 9126POPC   D2A46348  32.220  43.886   6.755
 9126POPC   C3A46349  32.261  43.901   7.055
 9126POPC   C4A46350  32.292  43.862   7.355
 9126POPC   C1B46351  31.960  43.876   6.455
 9126POPC   C2B46352  32.026  43.943   6.755
 9126POPC   C3B46353  32.022  43.939   7.055
 9126POPC   C4B46354  32.031  43.908   7.355
 9127POPC   NC346355  39.195  12.035   5.555
 9127POPC   PO446356  39.273  12.058   5.855
 9127POPC   GL146357  39.268  12.121   6.155
 9127POPC   GL246358  39.227  11.917   6.155
 9127POPC   C1A46359  39.201  12.037   6.455
 9127POPC   D2A46360  39.221  12.064   6.755
 9127POPC   C3A46361  39.276  12.031   7.055
 9127POPC   C4A46362  39.210  12.050   7.355
 9127POPC   C1B46363  39.274  11.826   6.455
 9127POPC   C2B46364  39.280  11.795   6.755
 9127POPC   C3B46365  39.243  11.791   7.055
 9127POPC   C4B46366  39.254  11.797   7.355
 9128POPC   NC346367  33.755  29.904   5.555
 9128POPC   PO446368  33.808  29.914   5.855
 9128POPC   GL146369  33.786  29.933   6.155
 9128POPC   GL246370  33.678  29.867   6.155
 9128POPC   C1A46371  33.799  29.892   6.455
 9128POPC   D2A46372  33.842  29.951   6.755
 9128POPC   C3A46373  33.803  29.876   7.055
 9128POPC   C4A46374  33.800  29.895   7.355
 9128POPC   C1B46375  33.605  29.819   6.455
 9128POPC   C2B46376  33.586  29.817   6.755
 9128POPC   C3B46377  33.581  29.779   7.055
 9128POPC   C4B46378  33.533  29.806   7.355
 9129POPC   NC346379  22.143  36.926   5.555
 9129POPC   PO446380  22.115  36.873   5.855
 9129POPC   GL146381  22.210  36.859   6.155
 9129POPC   GL246382  22.070  36.849   6.155
 9129POPC   C1A46383  22.128  36.930   6.455
 9129POPC   D2A46384  22.131  36.939   6.755
 9129POPC   C3A46385  22.201  36.913   7.055
 9129POPC   C4A46386  22.210  36.856   7.355
 9129POPC   C1B46387  21.956  36.745   6.455
 9129POPC   C2B46388  22.030  36.749   6.755
 9129POPC   C3B46389  21.964  36.685   7.055
 9129POPC   C4B46390  22.017  36.712   7.355
 9130POPC   NC346391  39.189  22.940   5.555
 9130POPC   PO446392  39.233  22.978   5.855
 9130POPC   GL146393  39.217  22.985   6.155
 9130POPC   GL246394  39.269  22.792   6.155
 9130POPC   C1A46395  39.195  22.916   6.455
 9130POPC   D2A46396  39.270  22.900   6.755
 9130POPC   C3A46397  39.262  22.953   7.055
 9130POPC   C4A46398  39.230  22.939   7.355
 9130POPC   C1B46399  39.414  22.730   6.455
 9130POPC   C2B46400  39.352  22.762   6.755
 9130POPC   C3B46401  39.322  22.698   7.055
 9130POPC   C4B46402  39.396  22.725   7.355
 9131POPC   NC346403  36.142  31.468   5.555
 9131POPC   PO446404  36.084  31.486   5.855
 9131POPC   GL146405  36.145  31.489   6.155
 9131POPC   GL246406  36.185  31.624   6.155
 9131POPC   C1A46407  36.171  31.518   6.455
 9131POPC   D2A46408  36.152  31.484   6.755
 9131POPC   C3A46409  36.147  31.487   7.055
 9131POPC   C4A46410  36.162  31.512   7.355
 9131POPC   C1B46411  36.195  31.722   6.455
 9131POPC   C2B46412  36.242  31.675   6.755
 9131POPC   C3B46413  36.205  31.742   7.055
 9131POPC   C4B46414  36.154  31.731   7.355
 9132POPC   NC346415  34.586  16.768   5.555
 9132POPC   PO446416  34.595  16.781   5.855
 9132POPC   GL146417  34.607  16.687   6.155
 9132POPC   GL246418  34.466  16.743   6.155
 9132POPC   C1A46419  34.526  16.747   6.455
 9132POPC   D2A46420  34.577  16.706   6.755
 9132POPC   C3A46421  34.613  16.741   7.055
 9132POPC   C4A46422  34.587  16.688   7.355
 9132POPC   C1B46423  34.341  16.751   6.455
 9132POPC   C2B46424  34.303  16.753   6.755
 9132POPC   C3B46425  34.294  16.756   7.055
 9132POPC   C4B46426  34.357  16.726   7.355
 9133POPC   NC346427  10.544  33.019   5.555
 9133POPC   PO446428  10.568  33.073   5.855
 9133POPC   GL146429  10.493  32.975   6.155
 9133POPC   GL246430  10.592  32.895   6.155
 9133POPC   C1A46431  10.508  33.019   6.455
 9133POPC   D2A46432  10.485  33.062   6.755
 9133POPC   C3A46433  10.498  33.019   7.055
 9133POPC   C4A46434  10.510  33.074   7.355
 9133POPC   C1B46435  10.607  32.757   6.455
 9133POPC   C2B46436  10.589  32.797   6.755
 9133POPC   C3B46437  10.595  32.807   7.055
 9133POPC   C4B46438  10.615  32.831   7.355
 9134POPC   NC346439   9.790  21.406   5.555
 9134POPC   PO446440   9.707  21.411   5.855
 9134POPC   GL146441   9.770  21.373   6.155
 9134POPC   GL246442   9.830  21.525   6.155
 9134POPC   C1A46443   9.724  21.378   6.455
 9134POPC   D2A46444   9.715  21.394   6.755
 9134POPC   C3A46445   9.739  21.436   7.055
 9134POPC   C4A46446   9.772  21.383   7.355
 9134POPC   C1B46447   9.870  21.626   6.455
 9134POPC   C2B46448   9.904  21.618   6.755
 9134POPC   C3B46449   9.870  21.614   7.055
 9134POPC   C4B46450   9.903  21.572   7.355
 9135POPC   NC346451   8.998  14.363   5.555
 9135POPC   PO446452   8.936  14.396   5.855
 9135POPC   GL146453   9.022  14.379   6.155
 9135POPC   GL246454   8.890  14.395   6.155
 9135POPC   C1A46455   9.012  14.443   6.455
 9135POPC   D2A46456   8.996  14.411   6.755
 9135POPC   C3A46457   8.939  14.382   7.055
 9135POPC   C4A46458   8.926  14.415   7.355
 9135POPC   C1B46459   8.687  14.488   6.455
 9135POPC   C2B46460   8.765  14.430   6.755
 9135POPC   C3B46461   8.725  14.480   7.055
 9135POPC   C4B46462   8.709  14.467   7.355
 9136POPC   NC346463  15.214  29.883   5.555
 9136POPC   PO446464  15.147  29.910   5.855
 9136POPC   GL146465  15.194  29.944   6.155
 9136POPC   GL246466  15.087  29.858   6.155
 9136POPC   C1A46467  15.172  29.920   6.455
 9136POPC   D2A46468  15.216  29.970   6.755
 9136POPC   C3A46469  15.226  29.955   7.055
 9136POPC   C4A46470  15.191  29.944   7.355
 9136POPC   C1B46471  14.933  29.780   6.455
 9136POPC   C2B46472  14.952  29.769   6.755
 9136POPC   C3B46473  14.990  29.779   7.055
 9136POPC   C4B46474  15.001  29.779   7.355
 9137POPC   NC346475  32.988   2.724   5.555
 9137POPC   PO446476  33.018   2.782   5.855
 9137POPC   GL146477  33.053   2.762   6.155
 9137POPC   GL246478  32.956   2.693   6.155
 9137POPC   C1A46479  33.041   2.719   6.455
 9137POPC   D2A46480  33.045   2.760   6.755
 9137POPC   C3A46481  32.975   2.777   7.055
 9137POPC   C4A46482  33.003   2.793   7.355
 9137POPC   C1B46483  32.920   2.493   6.455
 9137POPC   C2B46484  32.955   2.484   6.755
 9137POPC   C3B46485  32.922   2.516   7.055
 9137POPC   C4B46486  32.978   2.561   7.355
 9138POPC   NC346487  12.104  44.654   5.555
 9138POPC   PO446488  12.045  44.632   5.855
 9138POPC   GL146489  12.104  44.654   6.155
 9138POPC   GL246490  11.987  44.743   6.155
 9138POPC   C1A46491  12.079  44.629   6.455
 9138POPC   D2A46492  12.031  44.703   6.755
 9138POPC   C3A46493  12.050  44.674   7.055
 9138POPC   C4A46494  12.120  44.643   7.355
 9138POPC   C1B46495  11.898  44.869   6.455
 9138POPC   C2B46496  11.904  44.848   6.755
 9138POPC   C3B46497  11.899  44.885   7.055
 9138POPC   C4B46498  11.962  44.893   7.355
 9139POPC   NC346499  43.880  24.472   5.555
 9139POPC   PO446500  43.893  24.477   5.855
 9139POPC   GL146501  43.873  24.485   6.155
 9139POPC   GL246502  43.872  24.330   6.155
 9139POPC   C1A46503  43.868  24.475   6.455
 9139POPC   D2A46504  43.921  24.531   6.755
 9139POPC   C3A46505  43.908  24.535   7.055
 9139POPC   C4A46506  43.918  24.524   7.355
 9139POPC   C1B46507  43.780  24.300   6.455
 9139POPC   C2B46508  43.843  24.221   6.755
 9139POPC   C3B46509  43.814  24.271   7.055
 9139POPC   C4B46510  43.796  24.269   7.355
 9140POPC   NC346511  29.969  43.890   5.555
 9140POPC   PO446512  29.920  43.926   5.855
 9140POPC   GL146513  29.907  43.928   6.155
 9140POPC   GL246514  29.934  43.731   6.155
 9140POPC   C1A46515  29.890  43.871   6.455
 9140POPC   D2A46516  29.913  43.838   6.755
 9140POPC   C3A46517  29.954  43.888   7.055
 9140POPC   C4A46518  29.888  43.843   7.355
 9140POPC   C1B46519  29.952  43.596   6.455
 9140POPC   C2B46520  29.998  43.682   6.755
 9140POPC   C3B46521  30.026  43.621   7.055
 9140POPC   C4B46522  30.029  43.607   7.355
 9141POPC   NC346523   6.689  36.928   5.555
 9141POPC   PO446524   6.626  36.865   5.855
 9141POPC   GL146525   6.685  36.874   6.155
 9141POPC   GL246526   6.729  36.843   6.155
 9141POPC   C1A46527   6.631  36.862   6.455
 9141POPC   D2A46528   6.661  36.889   6.755
 9141POPC   C3A46529   6.599  36.854   7.055
 9141POPC   C4A46530   6.618  36.938   7.355
 9141POPC   C1B46531   6.936  36.821   6.455
 9141POPC   C2B46532   6.929  36.872   6.755
 9141POPC   C3B46533   6.847  36.831   7.055
 9141POPC   C4B46534   6.904  36.880   7.355
 9142POPC   NC346535  19.077  10.564   5.555
 9142POPC   PO446536  19.023  10.543   5.855
 9142POPC   GL146537  19.034  10.550   6.155
 9142POPC   GL246538  18.929  10.646   6.155
 9142POPC   C1A46539  19.084  10.531   6.455
 9142POPC   D2A46540  19.081  10.494   6.755
 9142POPC   C3A46541  19.082  10.512   7.055
 9142POPC   C4A46542  19.069  10.483   7.355
 9142POPC   C1B46543  18.836  10.687   6.455
 9142POPC   C2B46544  18.879  10.703   6.755
 9142POPC   C3B46545  18.858  10.669   7.055
 9142POPC   C4B46546  18.863  10.693   7.355
 9143POPC   NC346547  25.273  16.723   5.555
 9143POPC   PO446548  25.288  16.694   5.855
 9143POPC   GL146549  25.227  16.683   6.155
 9143POPC   GL246550  25.363  16.650   6.155
 9143POPC   C1A46551  25.238  16.702   6.455
 9143POPC   D2A46552  25.251  16.744   6.755
 9143POPC   C3A46553  25.294  16.762   7.055
 9143POPC   C4A46554  25.273  16.717   7.355
 9143POPC   C1B46555  25.423  16.477   6.455
 9143POPC   C2B46556  25.339  16.522   6.755
 9143POPC   C3B46557  25.362  16.532   7.055
 9143POPC   C4B46558  25.392  16.507   7.355
 9144POPC   NC346559  15.170  21.375   5.555
 9144POPC   PO446560  15.155  21.342   5.855
 9144POPC   GL146561  15.217  21.409   6.155
 9144POPC   GL246562  15.150  21.493   6.155
 9144POPC   C1A46563  15.152  21.367   6.455
 9144POPC   D2A46564  15.182  21.348   6.755
 9144POPC   C3A46565  15.226  21.385   7.055
 9144POPC   C4A46566  15.157  21.420   7.355
 9144POPC   C1B46567  15.023  21.550   6.455
 9144POPC   C2B46568  15.010  21.579   6.755
 9144POPC   C3B46569  15.046  21.642   7.055
 9144POPC   C4B46570  15.050  21.588   7.355
 9145POPC   NC346571  44.666  11.333   5.555
 9145POPC   PO446572  44.650  11.327   5.855
 9145POPC   GL146573  44.662  11.334   6.155
 9145POPC   GL246574  44.552  11.398   6.155
 9145POPC   C1A46575  44.686  11.266   6.455
 9145POPC   D2A46576  44.712  11.311   6.755
 9145POPC   C3A46577  44.641  11.300   7.055
 9145POPC   C4A46578  44.612  11.278   7.355
 9145POPC   C1B46579  44.516  11.504   6.455
 9145POPC   C2B46580  44.541  11.484   6.755
 9145POPC   C3B46581  44.525  11.513   7.055
 9145POPC   C4B46582  44.561  11.507   7.355
 9146POPC   NC346583   6.652  43.917   5.555
 9146POPC   PO446584   6.687  43.867   5.855
 9146POPC   GL146585   6.648  43.864   6.155
 9146POPC   GL246586   6.604  44.044   6.155
 9146POPC   C1A46587   6.665  43.912   6.455
 9146POPC   D2A46588   6.646  43.922   6.755
 9146POPC   C3A46589   6.639  43.911   7.055
 9146POPC   C4A46590   6.682  43.879   7.355
 9146POPC   C1B46591   6.645  44.133   6.455
 9146POPC   C2B46592   6.704  44.152   6.755
 9146POPC   C3B46593   6.652  44.170   7.055
 9146POPC   C4B46594   6.672  44.142   7.355
 9147POPC   NC346595  10.494   3.511   5.555
 9147POPC   PO446596  10.494   3.554   5.855
 9147POPC   GL146597  10.513   3.548   6.155
 9147POPC   GL246598  10.373   3.624   6.155
 9147POPC   C1A46599  10.540   3.540   6.455
 9147POPC   D2A46600  10.560   3.564   6.755
 9147POPC   C3A46601  10.485   3.550   7.055
 9147POPC   C4A46602  10.540   3.545   7.355
 9147POPC   C1B46603  10.290   3.586   6.455
 9147POPC   C2B46604  10.268   3.571   6.755
 9147POPC   C3B46605  10.282   3.620   7.055
 9147POPC   C4B46606  10.254   3.620   7.355
 9148POPC   NC346607  39.186   2.737   5.555
 9148POPC   PO446608  39.215   2.805   5.855
 9148POPC   GL146609  39.280   2.733   6.155
 9148POPC   GL246610  39.104   2.748   6.155
 9148POPC   C1A46611  39.251   2.769   6.455
 9148POPC   D2A46612  39.218   2.734   6.755
 9148POPC   C3A46613  39.194   2.782   7.055
 9148POPC   C4A46614  39.265   2.716   7.355
 9148POPC   C1B46615  38.970   2.647   6.455
 9148POPC   C2B46616  39.004   2.664   6.755
 9148POPC   C3B46617  39.030   2.637   7.055
 9148POPC   C4B46618  38.956   2.656   7.355
 9149POPC   NC346619  22.210   9.708   5.555
 9149POPC   PO446620  22.124   9.796   5.855
 9149POPC   GL146621  22.202   9.742   6.155
 9149POPC   GL246622  22.060   9.827   6.155
 9149POPC   C1A46623  22.128   9.722   6.455
 9149POPC   D2A46624  22.204   9.767   6.755
 9149POPC   C3A46625  22.182   9.702   7.055
 9149POPC   C4A46626  22.144   9.728   7.355
 9149POPC   C1B46627  22.042   9.960   6.455
 9149POPC   C2B46628  22.044   9.926   6.755
 9149POPC   C3B46629  22.049   9.959   7.055
 9149POPC   C4B46630  22.012   9.948   7.355
 9150POPC   NC346631   6.649  40.034   5.555
 9150POPC   PO446632   6.604  40.045   5.855
 9150POPC   GL146633   6.660  40.034   6.155
 9150POPC   GL246634   6.497  40.051   6.155
 9150POPC   C1A46635   6.685  40.023   6.455
 9150POPC   D2A46636   6.607  39.963   6.755
 9150POPC   C3A46637   6.606  40.037   7.055
 9150POPC   C4A46638   6.667  39.968   7.355
 9150POPC   C1B46639   6.458  40.053   6.455
 9150POPC   C2B46640   6.405  40.054   6.755
 9150POPC   C3B46641   6.380  40.135   7.055
 9150POPC   C4B46642   6.451  40.138   7.355
 9151POPC   NC346643  36.934  34.618   5.555
 9151POPC   PO446644  36.874  34.593   5.855
 9151POPC   GL146645  36.865  34.625   6.155
 9151POPC   GL246646  36.931  34.411   6.155
 9151POPC   C1A46647  36.929  34.616   6.455
 9151POPC   D2A46648  36.870  34.575   6.755
 9151POPC   C3A46649  36.920  34.612   7.055
 9151POPC   C4A46650  36.905  34.540   7.355
 9151POPC   C1B46651  36.983  34.321   6.455
 9151POPC   C2B46652  36.951  34.354   6.755
 9151POPC   C3B46653  37.003  34.391   7.055
 9151POPC   C4B46654  36.982  34.330   7.355
 9152POPC   NC346655  32.978  11.327   5.555
 9152POPC   PO446656  32.976  11.263   5.855
 9152POPC   GL146657  33.026  11.347   6.155
 9152POPC   GL246658  33.043  11.162   6.155
 9152POPC   C1A46659  32.988  11.257   6.455
 9152POPC   D2A46660  33.022  11.347   6.755
 9152POPC   C3A46661  32.977  11.302   7.055
 9152POPC   C4A46662  33.049  11.334   7.355
 9152POPC   C1B46663  33.028  11.065   6.455
 9152POPC   C2B46664  32.991  11.021   6.755
 9152POPC   C3B46665  32.973  11.080   7.055
 9152POPC   C4B46666  32.983  11.039   7.355
 9153POPC   NC346667  16.759   1.216   5.555
 9153POPC   PO446668  16.762   1.184   5.855
 9153POPC   GL146669  16.764   1.183   6.155
 9153POPC   GL246670  16.617   1.173   6.155
 9153POPC   C1A46671  16.744   1.232   6.455
 9153POPC   D2A46672  16.697   1.167   6.755
 9153POPC   C3A46673  16.723   1.256   7.055
 9153POPC   C4A46674  16.781   1.262   7.355
 9153POPC   C1B46675  16.483   1.066   6.455
 9153POPC   C2B46676  16.461   1.121   6.755
 9153POPC   C3B46677  16.497   1.076   7.055
 9153POPC   C4B46678  16.535   1.112   7.355
 9154POPC   NC346679  39.232  25.288   5.555
 9154POPC   PO446680  39.241  25.287   5.855
 9154POPC   GL146681  39.267  25.255   6.155
 9154POPC   GL246682  39.206  25.364   6.155
 9154POPC   C1A46683  39.269  25.235   6.455
 9154POPC   D2A46684  39.237  25.230   6.755
 9154POPC   C3A46685  39.238  25.217   7.055
 9154POPC   C4A46686  39.190  25.232   7.355
 9154POPC   C1B46687  39.181  25.515   6.455
 9154POPC   C2B46688  39.258  25.551   6.755
 9154POPC   C3B46689  39.265  25.514   7.055
 9154POPC   C4B46690  39.253  25.466   7.355
 9155POPC   NC346691  15.225  20.571   5.555
 9155POPC   PO446692  15.206  20.565   5.855
 9155POPC   GL146693  15.136  20.647   6.155
 9155POPC   GL246694  15.213  20.752   6.155
 9155POPC   C1A46695  15.171  20.620   6.455
 9155POPC   D2A46696  15.155  20.653   6.755
 9155POPC   C3A46697  15.151  20.636   7.055
 9155POPC   C4A46698  15.133  20.604   7.355
 9155POPC   C1B46699  15.303  20.857   6.455
 9155POPC   C2B46700  15.278  20.832   6.755
 9155POPC   C3B46701  15.318  20.878   7.055
 9155POPC   C4B46702  15.328  20.853   7.355
 9156POPC   NC346703  24.465  42.338   5.555
 9156POPC   PO446704  24.444  42.382   5.855
 9156POPC   GL146705  24.481  42.380   6.155
 9156POPC   GL246706  24.518  42.457   6.155
 9156POPC   C1A46707  24.466  42.303   6.455
 9156POPC   D2A46708  24.476  42.297   6.755
 9156POPC   C3A46709  24.505  42.316   7.055
 9156POPC   C4A46710  24.526  42.339   7.355
 9156POPC   C1B46711  24.647  42.537   6.455
 9156POPC   C2B46712  24.630  42.556   6.755
 9156POPC   C3B46713  24.602  42.596   7.055
 9156POPC   C4B46714  24.616  42.534   7.355
 9157POPC   NC346715  44.682  26.828   5.555
 9157POPC   PO446716  44.677  26.830   5.855
 9157POPC   GL146717  44.657  26.854   6.155
 9157POPC   GL246718  44.648  26.921   6.155
 9157POPC   C1A46719  44.677  26.853   6.455
 9157POPC   D2A46720  44.629  26.846   6.755
 9157POPC   C3A46721  44.702  26.826   7.055
 9157POPC   C4A46722  44.684  26.768   7.355
 9157POPC   C1B46723  44.569  27.089   6.455
 9157POPC   C2B46724  44.574  27.079   6.755
 9157POPC   C3B46725  44.600  27.059   7.055
 9157POPC   C4B46726  44.618  27.021   7.355
 9158POPC   NC346727  25.257   1.264   5.555
 9158POPC   PO446728  25.251   1.193   5.855
 9158POPC   GL146729  25.252   1.169   6.155
 9158POPC   GL246730  25.250   1.287   6.155
 9158POPC   C1A46731  25.228   1.218   6.455
 9158POPC   D2A46732  25.277   1.224   6.755
 9158POPC   C3A46733  25.307   1.253   7.055
 9158POPC   C4A46734  25.309   1.166   7.355
 9158POPC   C1B46735  25.342   1.445   6.455
 9158POPC   C2B46736  25.300   1.484   6.755
 9158POPC   C3B46737  25.289   1.483   7.055
 9158POPC   C4B46738  25.343   1.503   7.355
 9159POPC   NC346739  16.693  26.822   5.555
 9159POPC   PO446740  16.772  26.785   5.855
 9159POPC   GL146741  16.692  26.772   6.155
 9159POPC   GL246742  16.866  26.766   6.155
 9159POPC   C1A46743  16.725  26.787   6.455
 9159POPC   D2A46744  16.702  26.866   6.755
 9159POPC   C3A46745  16.710  26.811   7.055
 9159POPC   C4A46746  16.707  26.795   7.355
 9159POPC   C1B46747  17.001  26.684   6.455
 9159POPC   C2B46748  16.924  26.685   6.755
 9159POPC   C3B46749  16.917  26.687   7.055
 9159POPC   C4B46750  16.951  26.743   7.355
 9160POPC   NC346751  41.510  10.487   5.555
 9160POPC   PO446752  41.587  10.568   5.855
 9160POPC   GL146753  41.591  10.554   6.155
 9160POPC   GL246754  41.545  10.643   6.155
 9160POPC   C1A46755  41.539  10.543   6.455
 9160POPC   D2A46756  41.603  10.492   6.755
 9160POPC   C3A46757  41.510  10.561   7.055
 9160POPC   C4A46758  41.575  10.498   7.355
 9160POPC   C1B46759  41.506  10.722   6.455
 9160POPC   C2B46760  41.442  10.768   6.755
 9160POPC   C3B46761  41.502  10.799   7.055
 9160POPC   C4B46762  41.437  10.722   7.355
 9161POPC   NC346763  20.575   7.380   5.555
 9161POPC   PO446764  20.655   7.385   5.855
 9161POPC   GL146765  20.646   7.422   6.155
 9161POPC   GL246766  20.540   7.349   6.155
 9161POPC   C1A46767  20.588   7.417   6.455
 9161POPC   D2A46768  20.564   7.466   6.755
 9161POPC   C3A46769  20.656   7.429   7.055
 9161POPC   C4A46770  20.659   7.410   7.355
 9161POPC   C1B46771  20.418   7.331   6.455
 9161POPC   C2B46772  20.407   7.333   6.755
 9161POPC   C3B46773  20.350   7.248   7.055
 9161POPC   C4B46774  20.361   7.289   7.355
 9162POPC   NC346775   9.006  32.252   5.555
 9162POPC   PO446776   9.019  32.290   5.855
 9162POPC   GL146777   9.005  32.280   6.155
 9162POPC   GL246778   9.017  32.100   6.155
 9162POPC   C1A46779   8.986  32.270   6.455
 9162POPC   D2A46780   9.011  32.203   6.755
 9162POPC   C3A46781   8.975  32.254   7.055
 9162POPC   C4A46782   8.993  32.231   7.355
 9162POPC   C1B46783   9.086  32.049   6.455
 9162POPC   C2B46784   9.124  32.027   6.755
 9162POPC   C3B46785   9.090  32.069   7.055
 9162POPC   C4B46786   9.091  32.065   7.355
 9163POPC   NC346787   9.768  33.022   5.555
 9163POPC   PO446788   9.732  33.027   5.855
 9163POPC   GL146789   9.712  33.060   6.155
 9163POPC   GL246790   9.885  32.987   6.155
 9163POPC   C1A46791   9.735  32.990   6.455
 9163POPC   D2A46792   9.783  33.044   6.755
 9163POPC   C3A46793   9.785  32.982   7.055
 9163POPC   C4A46794   9.714  33.005   7.355
 9163POPC   C1B46795  10.019  33.070   6.455
 9163POPC   C2B46796  10.045  32.980   6.755
 9163POPC   C3B46797  10.038  33.020   7.055
 9163POPC   C4B46798  10.014  33.000   7.355
 9164POPC   NC346799   7.410  34.542   5.555
 9164POPC   PO446800   7.455  34.531   5.855
 9164POPC   GL146801   7.426  34.580   6.155
 9164POPC   GL246802   7.265  34.540   6.155
 9164POPC   C1A46803   7.403  34.619   6.455
 9164POPC   D2A46804   7.375  34.604   6.755
 9164POPC   C3A46805   7.395  34.533   7.055
 9164POPC   C4A46806   7.455  34.612   7.355
 9164POPC   C1B46807   7.121  34.569   6.455
 9164POPC   C2B46808   7.209  34.549   6.755
 9164POPC   C3B46809   7.140  34.541   7.055
 9164POPC   C4B46810   7.149  34.615   7.355
 9165POPC   NC346811   8.173  35.341   5.555
 9165POPC   PO446812   8.226  35.360   5.855
 9165POPC   GL146813   8.196  35.325   6.155
 9165POPC   GL246814   8.126  35.443   6.155
 9165POPC   C1A46815   8.153  35.397   6.455
 9165POPC   D2A46816   8.224  35.353   6.755
 9165POPC   C3A46817   8.190  35.304   7.055
 9165POPC   C4A46818   8.163  35.320   7.355
 9165POPC   C1B46819   8.131  35.583   6.455
 9165POPC   C2B46820   8.076  35.620   6.755
 9165POPC   C3B46821   8.090  35.584   7.055
 9165POPC   C4B46822   8.110  35.564   7.355
 9166POPC   NC346823   2.009  21.413   5.555
 9166POPC   PO446824   2.037  21.358   5.855
 9166POPC   GL146825   2.031  21.414   6.155
 9166POPC   GL246826   1.971  21.481   6.155
 9166POPC   C1A46827   1.995  21.355   6.455
 9166POPC   D2A46828   1.987  21.379   6.755
 9166POPC   C3A46829   1.994  21.431   7.055
 9166POPC   C4A46830   2.024  21.373   7.355
 9166POPC   C1B46831   2.021  21.650   6.455
 9166POPC   C2B46832   2.021  21.669   6.755
 9166POPC   C3B46833   2.031  21.592   7.055
 9166POPC   C4B46834   2.014  21.646   7.355
 9167POPC   NC346835  15.972   2.747   5.555
 9167POPC   PO446836  16.000   2.726   5.855
 9167POPC   GL146837  15.946   2.792   6.155
 9167POPC   GL246838  15.857   2.835   6.155
 9167POPC   C1A46839  15.919   2.758   6.455
 9167POPC   D2A46840  15.994   2.784   6.755
 9167POPC   C3A46841  15.953   2.805   7.055
 9167POPC   C4A46842  15.929   2.719   7.355
 9167POPC   C1B46843  15.753   2.906   6.455
 9167POPC   C2B46844  15.774   2.868   6.755
 9167POPC   C3B46845  15.754   2.881   7.055
 9167POPC   C4B46846  15.718   2.908   7.355
 9168POPC   NC346847  25.248  32.221   5.555
 9168POPC   PO446848  25.216  32.259   5.855
 9168POPC   GL146849  25.273  32.291   6.155
 9168POPC   GL246850  25.357  32.406   6.155
 9168POPC   C1A46851  25.296  32.261   6.455
 9168POPC   D2A46852  25.311  32.293   6.755
 9168POPC   C3A46853  25.259  32.225   7.055
 9168POPC   C4A46854  25.233  32.224   7.355
 9168POPC   C1B46855  25.353  32.484   6.455
 9168POPC   C2B46856  25.307  32.447   6.755
 9168POPC   C3B46857  25.398  32.452   7.055
 9168POPC   C4B46858  25.342  32.478   7.355
 9169POPC   NC346859  29.888   4.367   5.555
 9169POPC   PO446860  29.947   4.274   5.855
 9169POPC   GL146861  29.905   4.353   6.155
 9169POPC   GL246862  30.019   4.335   6.155
 9169POPC   C1A46863  29.941   4.326   6.455
 9169POPC   D2A46864  29.881   4.351   6.755
 9169POPC   C3A46865  29.954   4.324   7.055
 9169POPC   C4A46866  29.969   4.353   7.355
 9169POPC   C1B46867  30.178   4.360   6.455
 9169POPC   C2B46868  30.171   4.291   6.755
 9169POPC   C3B46869  30.184   4.287   7.055
 9169POPC   C4B46870  30.167   4.322   7.355
 9170POPC   NC346871  15.227  24.525   5.555
 9170POPC   PO446872  15.135  24.521   5.855
 9170POPC   GL146873  15.160  24.454   6.155
 9170POPC   GL246874  15.090  24.599   6.155
 9170POPC   C1A46875  15.191  24.455   6.455
 9170POPC   D2A46876  15.154  24.472   6.755
 9170POPC   C3A46877  15.172  24.489   7.055
 9170POPC   C4A46878  15.223  24.495   7.355
 9170POPC   C1B46879  14.997  24.647   6.455
 9170POPC   C2B46880  14.936  24.657   6.755
 9170POPC   C3B46881  14.994  24.604   7.055
 9170POPC   C4B46882  14.927  24.604   7.355
 9171POPC   NC346883  18.313  35.367   5.555
 9171POPC   PO446884  18.299  35.377   5.855
 9171POPC   GL146885  18.316  35.313   6.155
 9171POPC   GL246886  18.196  35.490   6.155
 9171POPC   C1A46887  18.277  35.356   6.455
 9171POPC   D2A46888  18.250  35.316   6.755
 9171POPC   C3A46889  18.273  35.393   7.055
 9171POPC   C4A46890  18.241  35.396   7.355
 9171POPC   C1B46891  18.150  35.600   6.455
 9171POPC   C2B46892  18.217  35.534   6.755
 9171POPC   C3B46893  18.215  35.627   7.055
 9171POPC   C4B46894  18.223  35.624   7.355
 9172POPC   NC346895  20.564  22.899   5.555
 9172POPC   PO446896  20.626  22.935   5.855
 9172POPC   GL146897  20.631  22.913   6.155
 9172POPC   GL246898  20.763  22.966   6.155
 9172POPC   C1A46899  20.635  22.900   6.455
 9172POPC   D2A46900  20.618  22.888   6.755
 9172POPC   C3A46901  20.639  22.958   7.055
 9172POPC   C4A46902  20.605  22.985   7.355
 9172POPC   C1B46903  20.904  23.007   6.455
 9172POPC   C2B46904  20.885  22.956   6.755
 9172POPC   C3B46905  20.824  22.999   7.055
 9172POPC   C4B46906  20.814  23.013   7.355
 9173POPC   NC346907  25.272  26.823   5.555
 9173POPC   PO446908  25.265  26.831   5.855
 9173POPC   GL146909  25.282  26.779   6.155
 9173POPC   GL246910  25.238  26.953   6.155
 9173POPC   C1A46911  25.231  26.821   6.455
 9173POPC   D2A46912  25.303  26.771   6.755
 9173POPC   C3A46913  25.313  26.826   7.055
 9173POPC   C4A46914  25.302  26.823   7.355
 9173POPC   C1B46915  25.313  27.084   6.455
 9173POPC   C2B46916  25.332  27.029   6.755
 9173POPC   C3B46917  25.305  27.110   7.055
 9173POPC   C4B46918  25.344  27.078   7.355
 9174POPC   NC346919  16.703  35.315   5.555
 9174POPC   PO446920  16.687  35.342   5.855
 9174POPC   GL146921  16.767  35.390   6.155
 9174POPC   GL246922  16.620  35.328   6.155
 9174POPC   C1A46923  16.755  35.324   6.455
 9174POPC   D2A46924  16.685  35.347   6.755
 9174POPC   C3A46925  16.684  35.311   7.055
 9174POPC   C4A46926  16.685  35.392   7.355
 9174POPC   C1B46927  16.522  35.195   6.455
 9174POPC   C2B46928  16.516  35.203   6.755
 9174POPC   C3B46929  16.498  35.270   7.055
 9174POPC   C4B46930  16.554  35.266   7.355
 9175POPC   NC346931   9.728  26.807   5.555
 9175POPC   PO446932   9.781  26.813   5.855
 9175POPC   GL146933   9.754  26.796   6.155
 9175POPC   GL246934   9.636  26.844   6.155
 9175POPC   C1A46935   9.731  26.810   6.455
 9175POPC   D2A46936   9.763  26.821   6.755
 9175POPC   C3A46937   9.717  26.781   7.055
 9175POPC   C4A46938   9.739  26.835   7.355
 9175POPC   C1B46939   9.515  26.826   6.455
 9175POPC   C2B46940   9.520  26.839   6.755
 9175POPC   C3B46941   9.491  26.862   7.055
 9175POPC   C4B46942   9.534  26.832   7.355
 9176POPC   NC346943  29.137   7.386   5.555
 9176POPC   PO446944  29.141   7.426   5.855
 9176POPC   GL146945  29.191   7.405   6.155
 9176POPC   GL246946  29.236   7.369   6.155
 9176POPC   C1A46947  29.181   7.383   6.455
 9176POPC   D2A46948  29.131   7.462   6.755
 9176POPC   C3A46949  29.181   7.432   7.055
 9176POPC   C4A46950  29.100   7.454   7.355
 9176POPC   C1B46951  29.391   7.349   6.455
 9176POPC   C2B46952  29.349   7.380   6.755
 9176POPC   C3B46953  29.343   7.384   7.055
 9176POPC   C4B46954  29.373   7.369   7.355
 9177POPC   NC346955  38.490   5.903   5.555
 9177POPC   PO446956  38.483   5.822   5.855
 9177POPC   GL146957  38.451   5.852   6.155
 9177POPC   GL246958  38.429   6.016   6.155
 9177POPC   C1A46959  38.430   5.878   6.455
 9177POPC   D2A46960  38.462   5.855   6.755
 9177POPC   C3A46961  38.500   5.907   7.055
 9177POPC   C4A46962  38.415   5.866   7.355
 9177POPC   C1B46963  38.452   6.089   6.455
 9177POPC   C2B46964  38.503   6.152   6.755
 9177POPC   C3B46965  38.430   6.143   7.055
 9177POPC   C4B46966  38.416   6.077   7.355
 9178POPC   NC346967  11.309  35.342   5.555
 9178POPC   PO446968  11.317  35.349   5.855
 9178POPC   GL146969  11.295  35.382   6.155
 9178POPC   GL246970  11.412  35.360   6.155
 9178POPC   C1A46971  11.315  35.358   6.455
 9178POPC   D2A46972  11.275  35.309   6.755
 9178POPC   C3A46973  11.337  35.316   7.055
 9178POPC   C4A46974  11.285  35.321   7.355
 9178POPC   C1B46975  11.545  35.426   6.455
 9178POPC   C2B46976  11.513  35.479   6.755
 9178POPC   C3B46977  11.539  35.407   7.055
 9178POPC   C4B46978  11.538  35.409   7.355
 9179POPC   NC346979   5.062   7.401   5.555
 9179POPC   PO446980   5.125   7.372   5.855
 9179POPC   GL146981   5.118   7.439   6.155
 9179POPC   GL246982   4.996   7.435   6.155
 9179POPC   C1A46983   5.061   7.429   6.455
 9179POPC   D2A46984   5.082   7.388   6.755
 9179POPC   C3A46985   5.043   7.393   7.055
 9179POPC   C4A46986   5.070   7.393   7.355
 9179POPC   C1B46987   4.847   7.350   6.455
 9179POPC   C2B46988   4.815   7.348   6.755
 9179POPC   C3B46989   4.892   7.386   7.055
 9179POPC   C4B46990   4.836   7.341   7.355
 9180POPC   NC346991  31.498   3.512   5.555
 9180POPC   PO446992  31.480   3.542   5.855
 9180POPC   GL146993  31.505   3.567   6.155
 9180POPC   GL246994  31.638   3.474   6.155
 9180POPC   C1A46995  31.427   3.542   6.455
 9180POPC   D2A46996  31.439   3.582   6.755
 9180POPC   C3A46997  31.509   3.522   7.055
 9180POPC   C4A46998  31.432   3.496   7.355
 9180POPC   C1B46999  31.714   3.482   6.455
 9180POPC   C2B47000  31.747   3.456   6.755
 9180POPC   C3B47001  31.706   3.472   7.055
 9180POPC   C4B47002  31.684   3.515   7.355
 9181POPC   NC347003  31.484  11.313   5.555
 9181POPC   PO447004  31.431  11.314   5.855
 9181POPC   GL147005  31.449  11.289   6.155
 9181POPC   GL247006  31.388  11.143   6.155
 9181POPC   C1A47007  31.440  11.334   6.455
 9181POPC   D2A47008  31.488  11.258   6.755
 9181POPC   C3A47009  31.445  11.343   7.055
 9181POPC   C4A47010  31.496  11.273   7.355
 9181POPC   C1B47011  31.373  11.102   6.455
 9181POPC   C2B47012  31.349  11.052   6.755
 9181POPC   C3B47013  31.371  11.084   7.055
 9181POPC   C4B47014  31.384  11.093   7.355
 9182POPC   NC347015   1.952  24.495   5.555
 9182POPC   PO447016   2.002  24.509   5.855
 9182POPC   GL147017   1.954  24.515   6.155
 9182POPC   GL247018   2.118  24.586   6.155
 9182POPC   C1A47019   2.034  24.517   6.455
 9182POPC   D2A47020   1.952  24.524   6.755
 9182POPC   C3A47021   1.940  24.483   7.055
 9182POPC   C4A47022   2.040  24.539   7.355
 9182POPC   C1B47023   2.212  24.678   6.455
 9182POPC   C2B47024   2.208  24.606   6.755
 9182POPC   C3B47025   2.163  24.592   7.055
 9182POPC   C4B47026   2.147  24.661   7.355
 9183POPC   NC347027  11.325  15.937   5.555
 9183POPC   PO447028  11.266  15.918   5.855
 9183POPC   GL147029  11.320  15.939   6.155
 9183POPC   GL247030  11.441  15.996   6.155
 9183POPC   C1A47031  11.291  15.935   6.455
 9183POPC   D2A47032  11.318  15.929   6.755
 9183POPC   C3A47033  11.312  15.980   7.055
 9183POPC   C4A47034  11.288  15.997   7.355
 9183POPC   C1B47035  11.581  15.908   6.455
 9183POPC   C2B47036  11.523  15.984   6.755
 9183POPC   C3B47037  11.546  15.948   7.055
 9183POPC   C4B47038  11.581  15.963   7.355
 9184POPC   NC347039  12.035  21.399   5.555
 9184POPC   PO447040  12.124  21.418   5.855
 9184POPC   GL147041  12.104  21.401   6.155
 9184POPC   GL247042  11.961  21.429   6.155
 9184POPC   C1A47043  12.068  21.346   6.455
 9184POPC   D2A47044  12.107  21.425   6.755
 9184POPC   C3A47045  12.073  21.356   7.055
 9184POPC   C4A47046  12.120  21.345   7.355
 9184POPC   C1B47047  11.888  21.527   6.455
 9184POPC   C2B47048  11.858  21.503   6.755
 9184POPC   C3B47049  11.886  21.477   7.055
 9184POPC   C4B47050  11.846  21.494   7.355
 9185POPC   NC347051  36.134  29.897   5.555
 9185POPC   PO447052  36.146  29.882   5.855
 9185POPC   GL147053  36.087  29.906   6.155
 9185POPC   GL247054  36.104  29.788   6.155
 9185POPC   C1A47055  36.149  29.901   6.455
 9185POPC   D2A47056  36.104  29.873   6.755
 9185POPC   C3A47057  36.173  29.937   7.055
 9185POPC   C4A47058  36.128  29.962   7.355
 9185POPC   C1B47059  36.024  29.708   6.455
 9185POPC   C2B47060  36.052  29.719   6.755
 9185POPC   C3B47061  36.031  29.665   7.055
 9185POPC   C4B47062  36.019  29.719   7.355
 9186POPC   NC347063   3.583  11.316   5.555
 9186POPC   PO447064   3.585  11.331   5.855
 9186POPC   GL147065   3.517  11.336   6.155
 9186POPC   GL247066   3.620  11.342   6.155
 9186POPC   C1A47067   3.556  11.281   6.455
 9186POPC   D2A47068   3.494  11.274   6.755
 9186POPC   C3A47069   3.514  11.348   7.055
 9186POPC   C4A47070   3.533  11.299   7.355
 9186POPC   C1B47071   3.784  11.363   6.455
 9186POPC   C2B47072   3.740  11.320   6.755
 9186POPC   C3B47073   3.766  11.339   7.055
 9186POPC   C4B47074   3.738  11.370   7.355
 9187POPC   NC347075  29.120  29.115   5.555
 9187POPC   PO447076  29.115  29.173   5.855
 9187POPC   GL147077  29.138  29.098   6.155
 9187POPC   GL247078  29.226  29.169   6.155
 9187POPC   C1A47079  29.173  29.187   6.455
 9187POPC   D2A47080  29.109  29.149   6.755
 9187POPC   C3A47081  29.144  29.171   7.055
 9187POPC   C4A47082  29.130  29.159   7.355
 9187POPC   C1B47083  29.363  29.243   6.455
 9187POPC   C2B47084  29.395  29.249   6.755
 9187POPC   C3B47085  29.359  29.247   7.055
 9187POPC   C4B47086  29.365  29.199   7.355
 9188POPC   NC347087   9.798  40.746   5.555
 9188POPC   PO447088   9.714  40.749   5.855
 9188POPC   GL147089   9.795  40.787   6.155
 9188POPC   GL247090   9.676  40.827   6.155
 9188POPC   C1A47091   9.707  40.754   6.455
 9188POPC   D2A47092   9.761  40.804   6.755
 9188POPC   C3A47093   9.754  40.744   7.055
 9188POPC   C4A47094   9.785  40.763   7.355
 9188POPC   C1B47095   9.540  40.900   6.455
 9188POPC   C2B47096   9.550  40.841   6.755
 9188POPC   C3B47097   9.468  40.891   7.055
 9188POPC   C4B47098   9.462  40.874   7.355
 9189POPC   NC347099   5.892  15.934   5.555
 9189POPC   PO447100   5.887  15.997   5.855
 9189POPC   GL147101   5.869  15.938   6.155
 9189POPC   GL247102   5.761  16.004   6.155
 9189POPC   C1A47103   5.890  15.957   6.455
 9189POPC   D2A47104   5.882  15.996   6.755
 9189POPC   C3A47105   5.916  15.991   7.055
 9189POPC   C4A47106   5.848  15.934   7.355
 9189POPC   C1B47107   5.691  16.171   6.455
 9189POPC   C2B47108   5.686  16.145   6.755
 9189POPC   C3B47109   5.648  16.104   7.055
 9189POPC   C4B47110   5.650  16.137   7.355
 9190POPC   NC347111  43.154  25.277   5.555
 9190POPC   PO447112  43.159  25.295   5.855
 9190POPC   GL147113  43.147  25.248   6.155
 9190POPC   GL247114  43.114  25.391   6.155
 9190POPC   C1A47115  43.080  25.284   6.455
 9190POPC   D2A47116  43.107  25.279   6.755
 9190POPC   C3A47117  43.126  25.242   7.055
 9190POPC   C4A47118  43.127  25.287   7.355
 9190POPC   C1B47119  43.227  25.468   6.455
 9190POPC   C2B47120  43.169  25.460   6.755
 9190POPC   C3B47121  43.246  25.513   7.055
 9190POPC   C4B47122  43.225  25.475   7.355
 9191POPC   NC347123   8.215  13.599   5.555
 9191POPC   PO447124   8.174  13.620   5.855
 9191POPC   GL147125   8.244  13.586   6.155
 9191POPC   GL247126   8.266  13.608   6.155
 9191POPC   C1A47127   8.161  13.633   6.455
 9191POPC   D2A47128   8.172  13.596   6.755
 9191POPC   C3A47129   8.224  13.602   7.055
 9191POPC   C4A47130   8.183  13.662   7.355
 9191POPC   C1B47131   8.380  13.571   6.455
 9191POPC   C2B47132   8.388  13.578   6.755
 9191POPC   C3B47133   8.380  13.521   7.055
 9191POPC   C4B47134   8.470  13.537   7.355
 9192POPC   NC347135   0.423  29.117   5.555
 9192POPC   PO447136   0.419  29.191   5.855
 9192POPC   GL147137   0.439  29.143   6.155
 9192POPC   GL247138   0.473  29.305   6.155
 9192POPC   C1A47139   0.487  29.166   6.455
 9192POPC   D2A47140   0.428  29.155   6.755
 9192POPC   C3A47141   0.404  29.160   7.055
 9192POPC   C4A47142   0.471  29.125   7.355
 9192POPC   C1B47143   0.538  29.399   6.455
 9192POPC   C2B47144   0.520  29.395   6.755
 9192POPC   C3B47145   0.496  29.400   7.055
 9192POPC   C4B47146   0.554  29.331   7.355
 9193POPC   NC347147  29.947  29.174   5.555
 9193POPC   PO447148  29.897  29.187   5.855
 9193POPC   GL147149  29.966  29.195   6.155
 9193POPC   GL247150  30.026  29.090   6.155
 9193POPC   C1A47151  29.893  29.161   6.455
 9193POPC   D2A47152  29.913  29.095   6.755
 9193POPC   C3A47153  29.944  29.171   7.055
 9193POPC   C4A47154  29.919  29.157   7.355
 9193POPC   C1B47155  30.111  29.061   6.455
 9193POPC   C2B47156  30.122  29.029   6.755
 9193POPC   C3B47157  30.150  29.017   7.055
 9193POPC   C4B47158  30.092  28.981   7.355
 9194POPC   NC347159   7.400  18.295   5.555
 9194POPC   PO447160   7.444  18.303   5.855
 9194POPC   GL147161   7.453  18.242   6.155
 9194POPC   GL247162   7.482  18.310   6.155
 9194POPC   C1A47163   7.439  18.284   6.455
 9194POPC   D2A47164   7.461  18.256   6.755
 9194POPC   C3A47165   7.377  18.246   7.055
 9194POPC   C4A47166   7.410  18.253   7.355
 9194POPC   C1B47167   7.594  18.412   6.455
 9194POPC   C2B47168   7.666  18.421   6.755
 9194POPC   C3B47169   7.630  18.404   7.055
 9194POPC   C4B47170   7.680  18.430   7.355
 9195POPC   NC347171  42.317   0.427   5.555
 9195POPC   PO447172  42.338   0.447   5.855
 9195POPC   GL147173  42.294   0.419   6.155
 9195POPC   GL247174  42.324   0.330   6.155
 9195POPC   C1A47175  42.352   0.451   6.455
 9195POPC   D2A47176  42.338   0.461   6.755
 9195POPC   C3A47177  42.377   0.436   7.055
 9195POPC   C4A47178  42.368   0.415   7.355
 9195POPC   C1B47179  42.431   0.231   6.455
 9195POPC   C2B47180  42.404   0.221   6.755
 9195POPC   C3B47181  42.408   0.237   7.055
 9195POPC   C4B47182  42.394   0.158   7.355
 9196POPC   NC347183  34.585   7.450   5.555
 9196POPC   PO447184  34.583   7.424   5.855
 9196POPC   GL147185  34.597   7.405   6.155
 9196POPC   GL247186  34.554   7.556   6.155
 9196POPC   C1A47187  34.622   7.381   6.455
 9196POPC   D2A47188  34.580   7.461   6.755
 9196POPC   C3A47189  34.616   7.461   7.055
 9196POPC   C4A47190  34.616   7.413   7.355
 9196POPC   C1B47191  34.631   7.681   6.455
 9196POPC   C2B47192  34.618   7.716   6.755
 9196POPC   C3B47193  34.534   7.715   7.055
 9196POPC   C4B47194  34.579   7.650   7.355
 9197POPC   NC347195  25.287  29.117   5.555
 9197POPC   PO447196  25.257  29.188   5.855
 9197POPC   GL147197  25.239  29.163   6.155
 9197POPC   GL247198  25.366  29.296   6.155
 9197POPC   C1A47199  25.221  29.169   6.455
 9197POPC   D2A47200  25.247  29.143   6.755
 9197POPC   C3A47201  25.308  29.130   7.055
 9197POPC   C4A47202  25.231  29.170   7.355
 9197POPC   C1B47203  25.383  29.351   6.455
 9197POPC   C2B47204  25.381  29.378   6.755
 9197POPC   C3B47205  25.433  29.344   7.055
 9197POPC   C4B47206  25.418  29.327   7.355
 9198POPC   NC347207  26.851  26.017   5.555
 9198POPC   PO447208  26.841  26.000   5.855
 9198POPC   GL147209  26.836  26.054   6.155
 9198POPC   GL247210  26.699  26.113   6.155
 9198POPC   C1A47211  26.864  26.082   6.455
 9198POPC   D2A47212  26.804  26.045   6.755
 9198POPC   C3A47213  26.795  26.016   7.055
 9198POPC   C4A47214  26.787  26.017   7.355
 9198POPC   C1B47215  26.662  26.180   6.455
 9198POPC   C2B47216  26.648  26.183   6.755
 9198POPC   C3B47217  26.607  26.164   7.055
 9198POPC   C4B47218  26.580  26.200   7.355
 9199POPC   NC347219  34.590  35.308   5.555
 9199POPC   PO447220  34.617  35.305   5.855
 9199POPC   GL147221  34.622  35.400   6.155
 9199POPC   GL247222  34.608  35.470   6.155
 9199POPC   C1A47223  34.620  35.311   6.455
 9199POPC   D2A47224  34.607  35.320   6.755
 9199POPC   C3A47225  34.529  35.308   7.055
 9199POPC   C4A47226  34.585  35.362   7.355
 9199POPC   C1B47227  34.726  35.556   6.455
 9199POPC   C2B47228  34.677  35.529   6.755
 9199POPC   C3B47229  34.709  35.536   7.055
 9199POPC   C4B47230  34.696  35.546   7.355
 9200POPC   NC347231  43.074  26.037   5.555
 9200POPC   PO447232  43.067  26.053   5.855
 9200POPC   GL147233  43.148  26.020   6.155
 9200POPC   GL247234  43.213  25.903   6.155
 9200POPC   C1A47235  43.131  26.009   6.455
 9200POPC   D2A47236  43.158  26.057   6.755
 9200POPC   C3A47237  43.092  26.034   7.055
 9200POPC   C4A47238  43.160  26.057   7.355
 9200POPC   C1B47239  43.247  25.827   6.455
 9200POPC   C2B47240  43.238  25.837   6.755
 9200POPC   C3B47241  43.234  25.870   7.055
 9200POPC   C4B47242  43.273  25.812   7.355
 9201POPC   NC347243  17.540  28.322   5.555
 9201POPC   PO447244  17.474  28.414   5.855
 9201POPC   GL147245  17.492  28.322   6.155
 9201POPC   GL247246  17.387  28.392   6.155
 9201POPC   C1A47247  17.482  28.394   6.455
 9201POPC   D2A47248  17.472  28.393   6.755
 9201POPC   C3A47249  17.460  28.346   7.055
 9201POPC   C4A47250  17.472  28.410   7.355
 9201POPC   C1B47251  17.267  28.460   6.455
 9201POPC   C2B47252  17.290  28.396   6.755
 9201POPC   C3B47253  17.250  28.420   7.055
 9201POPC   C4B47254  17.317  28.472   7.355
 9202POPC   NC347255  36.129  18.246   5.555
 9202POPC   PO447256  36.126  18.243   5.855
 9202POPC   GL147257  36.143  18.307   6.155
 9202POPC   GL247258  36.273  18.305   6.155
 9202POPC   C1A47259  36.173  18.328   6.455
 9202POPC   D2A47260  36.163  18.254   6.755
 9202POPC   C3A47261  36.081  18.300   7.055
 9202POPC   C4A47262  36.125  18.319   7.355
 9202POPC   C1B47263  36.375  18.265   6.455
 9202POPC   C2B47264  36.377  18.337   6.755
 9202POPC   C3B47265  36.338  18.277   7.055
 9202POPC   C4B47266  36.424  18.293   7.355
 9203POPC   NC347267  22.189  43.915   5.555
 9203POPC   PO447268  22.155  43.853   5.855
 9203POPC   GL147269  22.187  43.860   6.155
 9203POPC   GL247270  22.306  43.820   6.155
 9203POPC   C1A47271  22.167  43.844   6.455
 9203POPC   D2A47272  22.132  43.889   6.755
 9203POPC   C3A47273  22.207  43.848   7.055
 9203POPC   C4A47274  22.209  43.837   7.355
 9203POPC   C1B47275  22.398  43.741   6.455
 9203POPC   C2B47276  22.380  43.769   6.755
 9203POPC   C3B47277  22.412  43.715   7.055
 9203POPC   C4B47278  22.328  43.720   7.355
 9204POPC   NC347279   0.462   0.459   5.555
 9204POPC   PO447280   0.417   0.483   5.855
 9204POPC   GL147281   0.432   0.487   6.155
 9204POPC   GL247282   0.468   0.347   6.155
 9204POPC   C1A47283   0.478   0.446   6.455
 9204POPC   D2A47284   0.389   0.413   6.755
 9204POPC   C3A47285   0.451   0.407   7.055
 9204POPC   C4A47286   0.473   0.481   7.355
 9204POPC   C1B47287   0.563   0.185   6.455
 9204POPC   C2B47288   0.525   0.196   6.755
 9204POPC   C3B47289   0.502   0.236   7.055
 9204POPC   C4B47290   0.542   0.171   7.355
 9205POPC   NC347291   8.966   9.702   5.555
 9205POPC   PO447292   8.947   9.737   5.855
 9205POPC   GL147293   8.932   9.735   6.155
 9205POPC   GL247294   8.909   9.878   6.155
 9205POPC   C1A47295   8.924   9.768   6.455
 9205POPC   D2A47296   8.958   9.725   6.755
 9205POPC   C3A47297   8.924   9.736   7.055
 9205POPC   C4A47298   8.992   9.726   7.355
 9205POPC   C1B47299   8.943   9.986   6.455
 9205POPC   C2B47300   8.990   9.997   6.755
 9205POPC   C3B47301   8.962  10.026   7.055
 9205POPC   C4B47302   8.939   9.988   7.355
 9206POPC   NC347303   9.775  16.759   5.555
 9206POPC   PO447304   9.723  16.693   5.855
 9206POPC   GL147305   9.797  16.726   6.155
 9206POPC   GL247306   9.701  16.607   6.155
 9206POPC   C1A47307   9.782  16.727   6.455
 9206POPC   D2A47308   9.740  16.762   6.755
 9206POPC   C3A47309   9.703  16.752   7.055
 9206POPC   C4A47310   9.722  16.720   7.355
 9206POPC   C1B47311   9.618  16.528   6.455
 9206POPC   C2B47312   9.636  16.497   6.755
 9206POPC   C3B47313   9.663  16.523   7.055
 9206POPC   C4B47314   9.670  16.520   7.355
 9207POPC   NC347315   6.679  12.071   5.555
 9207POPC   PO447316   6.604  12.076   5.855
 9207POPC   GL147317   6.626  12.047   6.155
 9207POPC   GL247318   6.573  12.186   6.155
 9207POPC   C1A47319   6.637  12.078   6.455
 9207POPC   D2A47320   6.645  12.057   6.755
 9207POPC   C3A47321   6.609  12.063   7.055
 9207POPC   C4A47322   6.676  12.072   7.355
 9207POPC   C1B47323   6.524  12.280   6.455
 9207POPC   C2B47324   6.560  12.348   6.755
 9207POPC   C3B47325   6.532  12.308   7.055
 9207POPC   C4B47326   6.526  12.280   7.355
 9208POPC   NC347327  28.361   1.211   5.555
 9208POPC   PO447328  28.393   1.167   5.855
 9208POPC   GL147329  28.408   1.196   6.155
 9208POPC   GL247330  28.504   1.197   6.155
 9208POPC   C1A47331  28.351   1.177   6.455
 9208POPC   D2A47332  28.401   1.226   6.755
 9208POPC   C3A47333  28.353   1.237   7.055
 9208POPC   C4A47334  28.405   1.195   7.355
 9208POPC   C1B47335  28.570   1.160   6.455
 9208POPC   C2B47336  28.583   1.184   6.755
 9208POPC   C3B47337  28.617   1.237   7.055
 9208POPC   C4B47338  28.584   1.164   7.355
 9209POPC   NC347339   8.949   4.289   5.555
 9209POPC   PO447340   9.013   4.359   5.855
 9209POPC   GL147341   9.016   4.323   6.155
 9209POPC   GL247342   9.047   4.397   6.155
 9209POPC   C1A47343   9.021   4.304   6.455
 9209POPC   D2A47344   9.003   4.278   6.755
 9209POPC   C3A47345   8.993   4.297   7.055
 9209POPC   C4A47346   9.015   4.361   7.355
 9209POPC   C1B47347   9.112   4.568   6.455
 9209POPC   C2B47348   9.127   4.534   6.755
 9209POPC   C3B47349   9.068   4.526   7.055
 9209POPC   C4B47350   9.086   4.539   7.355
 9210POPC   NC347351  14.448   9.734   5.555
 9210POPC   PO447352  14.404   9.751   5.855
 9210POPC   GL147353  14.355   9.729   6.155
 9210POPC   GL247354  14.304   9.795   6.155
 9210POPC   C1A47355  14.374   9.794   6.455
 9210POPC   D2A47356  14.445   9.699   6.755
 9210POPC   C3A47357  14.417   9.710   7.055
 9210POPC   C4A47358  14.427   9.782   7.355
 9210POPC   C1B47359  14.179   9.949   6.455
 9210POPC   C2B47360  14.242   9.883   6.755
 9210POPC   C3B47361  14.268   9.922   7.055
 9210POPC   C4B47362  14.246   9.942   7.355
 9211POPC   NC347363  43.858   5.119   5.555
 9211POPC   PO447364  43.906   5.049   5.855
 9211POPC   GL147365  43.905   5.058   6.155
 9211POPC   GL247366  43.833   4.956   6.155
 9211POPC   C1A47367  43.845   5.062   6.455
 9211POPC   D2A47368  43.884   5.058   6.755
 9211POPC   C3A47369  43.904   5.077   7.055
 9211POPC   C4A47370  43.915   5.098   7.355
 9211POPC   C1B47371  43.733   4.852   6.455
 9211POPC   C2B47372  43.703   4.843   6.755
 9211POPC   C3B47373  43.758   4.891   7.055
 9211POPC   C4B47374  43.708   4.842   7.355
 9212POPC   NC347375   7.469  29.147   5.555
 9212POPC   PO447376   7.375  29.142   5.855
 9212POPC   GL147377   7.385  29.097   6.155
 9212POPC   GL247378   7.406  29.224   6.155
 9212POPC   C1A47379   7.418  29.113   6.455
 9212POPC   D2A47380   7.399  29.121   6.755
 9212POPC   C3A47381   7.447  29.136   7.055
 9212POPC   C4A47382   7.396  29.123   7.355
 9212POPC   C1B47383   7.450  29.415   6.455
 9212POPC   C2B47384   7.444  29.389   6.755
 9212POPC   C3B47385   7.386  29.379   7.055
 9212POPC   C4B47386   7.370  29.374   7.355
 9213POPC   NC347387   5.857   5.073   5.555
 9213POPC   PO447388   5.820   5.119   5.855
 9213POPC   GL147389   5.840   5.132   6.155
 9213POPC   GL247390   5.724   5.014   6.155
 9213POPC   C1A47391   5.909   5.117   6.455
 9213POPC   D2A47392   5.918   5.110   6.755
 9213POPC   C3A47393   5.888   5.086   7.055
 9213POPC   C4A47394   5.917   5.121   7.355
 9213POPC   C1B47395   5.635   4.941   6.455
 9213POPC   C2B47396   5.695   4.958   6.755
 9213POPC   C3B47397   5.686   4.952   7.055
 9213POPC   C4B47398   5.627   4.922   7.355
 9214POPC   NC347399  38.450  21.428   5.555
 9214POPC   PO447400  38.457  21.343   5.855
 9214POPC   GL147401  38.411  21.364   6.155
 9214POPC   GL247402  38.375  21.346   6.155
 9214POPC   C1A47403  38.462  21.422   6.455
 9214POPC   D2A47404  38.406  21.391   6.755
 9214POPC   C3A47405  38.446  21.357   7.055
 9214POPC   C4A47406  38.415  21.384   7.355
 9214POPC   C1B47407  38.257  21.276   6.455
 9214POPC   C2B47408  38.192  21.296   6.755
 9214POPC   C3B47409  38.192  21.275   7.055
 9214POPC   C4B47410  38.228  21.299   7.355
 9215POPC   NC347411   6.602  42.323   5.555
 9215POPC   PO447412   6.676  42.380   5.855
 9215POPC   GL147413   6.672  42.309   6.155
 9215POPC   GL247414   6.727  42.353   6.155
 9215POPC   C1A47415   6.689  42.346   6.455
 9215POPC   D2A47416   6.685  42.318   6.755
 9215POPC   C3A47417   6.656  42.313   7.055
 9215POPC   C4A47418   6.682  42.310   7.355
 9215POPC   C1B47419   6.937  42.274   6.455
 9215POPC   C2B47420   6.935  42.286   6.755
 9215POPC   C3B47421   6.866  42.241   7.055
 9215POPC   C4B47422   6.922  42.300   7.355
 9216POPC   NC347423  26.793  34.589   5.555
 9216POPC   PO447424  26.786  34.575   5.855
 9216POPC   GL147425  26.796  34.540   6.155
 9216POPC   GL247426  26.939  34.497   6.155
 9216POPC   C1A47427  26.832  34.582   6.455
 9216POPC   D2A47428  26.803  34.607   6.755
 9216POPC   C3A47429  26.799  34.592   7.055
 9216POPC   C4A47430  26.807  34.546   7.355
 9216POPC   C1B47431  27.024  34.532   6.455
 9216POPC   C2B47432  27.059  34.528   6.755
 9216POPC   C3B47433  27.095  34.466   7.055
 9216POPC   C4B47434  27.035  34.451   7.355
 9217POPC   NC347435  15.207   5.105   5.555
 9217POPC   PO447436  15.223   5.112   5.855
 9217POPC   GL147437  15.131   5.074   6.155
 9217POPC   GL247438  15.323   5.110   6.155
 9217POPC   C1A47439  15.210   5.087   6.455
 9217POPC   D2A47440  15.178   5.137   6.755
 9217POPC   C3A47441  15.172   5.121   7.055
 9217POPC   C4A47442  15.135   5.074   7.355
 9217POPC   C1B47443  15.458   5.155   6.455
 9217POPC   C2B47444  15.404   5.165   6.755
 9217POPC   C3B47445  15.449   5.209   7.055
 9217POPC   C4B47446  15.406   5.238   7.355
 9218POPC   NC347447   8.943  39.270   5.555
 9218POPC   PO447448   8.933  39.209   5.855
 9218POPC   GL147449   8.973  39.236   6.155
 9218POPC   GL247450   9.125  39.326   6.155
 9218POPC   C1A47451   9.008  39.276   6.455
 9218POPC   D2A47452   8.933  39.189   6.755
 9218POPC   C3A47453   8.963  39.216   7.055
 9218POPC   C4A47454   8.948  39.188   7.355
 9218POPC   C1B47455   9.185  39.351   6.455
 9218POPC   C2B47456   9.147  39.356   6.755
 9218POPC   C3B47457   9.193  39.326   7.055
 9218POPC   C4B47458   9.148  39.391   7.355
 9219POPC   NC347459   2.741   3.564   5.555
 9219POPC   PO447460   2.799   3.509   5.855
 9219POPC   GL147461   2.781   3.503   6.155
 9219POPC   GL247462   2.648   3.544   6.155
 9219POPC   C1A47463   2.792   3.589   6.455
 9219POPC   D2A47464   2.726   3.571   6.755
 9219POPC   C3A47465   2.729   3.586   7.055
 9219POPC   C4A47466   2.743   3.581   7.355
 9219POPC   C1B47467   2.534   3.601   6.455
 9219POPC   C2B47468   2.514   3.598   6.755
 9219POPC   C3B47469   2.502   3.597   7.055
 9219POPC   C4B47470   2.519   3.592   7.355
 9220POPC   NC347471  43.073  24.527   5.555
 9220POPC   PO447472  43.139  24.511   5.855
 9220POPC   GL147473  43.073  24.523   6.155
 9220POPC   GL247474  43.185  24.590   6.155
 9220POPC   C1A47475  43.137  24.523   6.455
 9220POPC   D2A47476  43.136  24.507   6.755
 9220POPC   C3A47477  43.129  24.512   7.055
 9220POPC   C4A47478  43.127  24.476   7.355
 9220POPC   C1B47479  43.251  24.706   6.455
 9220POPC   C2B47480  43.202  24.729   6.755
 9220POPC   C3B47481  43.166  24.694   7.055
 9220POPC   C4B47482  43.196  24.700   7.355
 9221POPC   NC347483  10.506  41.580   5.555
 9221POPC   PO447484  10.538  41.559   5.855
 9221POPC   GL147485  10.560  41.604   6.155
 9221POPC   GL247486  10.507  41.452   6.155
 9221POPC   C1A47487  10.557  41.566   6.455
 9221POPC   D2A47488  10.508  41.560   6.755
 9221POPC   C3A47489  10.530  41.513   7.055
 9221POPC   C4A47490  10.541  41.578   7.355
 9221POPC   C1B47491  10.459  41.305   6.455
 9221POPC   C2B47492  10.412  41.322   6.755
 9221POPC   C3B47493  10.411  41.286   7.055
 9221POPC   C4B47494  10.458  41.379   7.355
 9222POPC   NC347495  39.197  31.424   5.555
 9222POPC   PO447496  39.276  31.448   5.855
 9222POPC   GL147497  39.259  31.506   6.155
 9222POPC   GL247498  39.274  31.379   6.155
 9222POPC   C1A47499  39.241  31.491   6.455
 9222POPC   D2A47500  39.196  31.462   6.755
 9222POPC   C3A47501  39.193  31.513   7.055
 9222POPC   C4A47502  39.247  31.439   7.355
 9222POPC   C1B47503  39.371  31.308   6.455
 9222POPC   C2B47504  39.408  31.267   6.755
 9222POPC   C3B47505  39.398  31.264   7.055
 9222POPC   C4B47506  39.391  31.240   7.355
 9223POPC   NC347507   8.951   8.225   5.555
 9223POPC   PO447508   8.969   8.209   5.855
 9223POPC   GL147509   8.968   8.178   6.155
 9223POPC   GL247510   8.892   8.222   6.155
 9223POPC   C1A47511   9.004   8.169   6.455
 9223POPC   D2A47512   8.996   8.167   6.755
 9223POPC   C3A47513   9.014   8.185   7.055
 9223POPC   C4A47514   8.977   8.197   7.355
 9223POPC   C1B47515   8.808   8.302   6.455
 9223POPC   C2B47516   8.783   8.327   6.755
 9223POPC   C3B47517   8.801   8.354   7.055
 9223POPC   C4B47518   8.809   8.355   7.355
 9224POPC   NC347519  26.069   6.595   5.555
 9224POPC   PO447520  26.004   6.684   5.855
 9224POPC   GL147521  26.074   6.630   6.155
 9224POPC   GL247522  26.122   6.743   6.155
 9224POPC   C1A47523  26.018   6.691   6.455
 9224POPC   D2A47524  26.090   6.661   6.755
 9224POPC   C3A47525  26.012   6.620   7.055
 9224POPC   C4A47526  26.007   6.655   7.355
 9224POPC   C1B47527  26.261   6.866   6.455
 9224POPC   C2B47528  26.217   6.865   6.755
 9224POPC   C3B47529  26.245   6.786   7.055
 9224POPC   C4B47530  26.186   6.822   7.355
 9225POPC   NC347531  20.565  41.523   5.555
 9225POPC   PO447532  20.614  41.579   5.855
 9225POPC   GL147533  20.609  41.534   6.155
 9225POPC   GL247534  20.522  41.554   6.155
 9225POPC   C1A47535  20.625  41.561   6.455
 9225POPC   D2A47536  20.612  41.602   6.755
 9225POPC   C3A47537  20.640  41.543   7.055
 9225POPC   C4A47538  20.632  41.580   7.355
 9225POPC   C1B47539  20.327  41.527   6.455
 9225POPC   C2B47540  20.398  41.564   6.755
 9225POPC   C3B47541  20.332  41.533   7.055
 9225POPC   C4B47542  20.321  41.534   7.355
 9226POPC   NC347543  31.480   6.609   5.555
 9226POPC   PO447544  31.497   6.639   5.855
 9226POPC   GL147545  31.443   6.608   6.155
 9226POPC   GL247546  31.328   6.752   6.155
 9226POPC   C1A47547  31.435   6.685   6.455
 9226POPC   D2A47548  31.465   6.629   6.755
 9226POPC   C3A47549  31.502   6.655   7.055
 9226POPC   C4A47550  31.503   6.666   7.355
 9226POPC   C1B47551  31.257   6.779   6.455
 9226POPC   C2B47552  31.306   6.822   6.755
 9226POPC   C3B47553  31.211   6.813   7.055
 9226POPC   C4B47554  31.235   6.807   7.355
 9227POPC   NC347555  39.198  15.177   5.555
 9227POPC   PO447556  39.192  15.150   5.855
 9227POPC   GL147557  39.271  15.146   6.155
 9227POPC   GL247558  39.375  15.149   6.155
 9227POPC   C1A47559  39.220  15.168   6.455
 9227POPC   D2A47560  39.182  15.149   6.755
 9227POPC   C3A47561  39.209  15.174   7.055
 9227POPC   C4A47562  39.216  15.143   7.355
 9227POPC   C1B47563  39.478  15.009   6.455
 9227POPC   C2B47564  39.400  15.066   6.755
 9227POPC   C3B47565  39.458  14.999   7.055
 9227POPC   C4B47566  39.462  15.059   7.355
 9228POPC   NC347567  41.512   0.431   5.555
 9228POPC   PO447568  41.543   0.445   5.855
 9228POPC   GL147569  41.547   0.434   6.155
 9228POPC   GL247570  41.598   0.524   6.155
 9228POPC   C1A47571  41.545   0.459   6.455
 9228POPC   D2A47572  41.592   0.406   6.755
 9228POPC   C3A47573  41.585   0.407   7.055
 9228POPC   C4A47574  41.537   0.420   7.355
 9228POPC   C1B47575  41.704   0.658   6.455
 9228POPC   C2B47576  41.698   0.607   6.755
 9228POPC   C3B47577  41.694   0.639   7.055
 9228POPC   C4B47578  41.661   0.646   7.355
 9229POPC   NC347579  27.607  43.145   5.555
 9229POPC   PO447580  27.563  43.068   5.855
 9229POPC   GL147581  27.625  43.104   6.155
 9229POPC   GL247582  27.525  43.087   6.155
 9229POPC   C1A47583  27.641  43.111   6.455
 9229POPC   D2A47584  27.586  43.094   6.755
 9229POPC   C3A47585  27.640  43.076   7.055
 9229POPC   C4A47586  27.557  43.132   7.355
 9229POPC   C1B47587  27.342  43.040   6.455
 9229POPC   C2B47588  27.336  42.996   6.755
 9229POPC   C3B47589  27.323  42.985   7.055
 9229POPC   C4B47590  27.375  43.069   7.355
 9230POPC   NC347591  14.365  36.894   5.555
 9230POPC   PO447592  14.391  36.897   5.855
 9230POPC   GL147593  14.430  36.947   6.155
 9230POPC   GL247594  14.354  36.998   6.155
 9230POPC   C1A47595  14.385  36.901   6.455
 9230POPC   D2A47596  14.375  36.913   6.755
 9230POPC   C3A47597  14.452  36.875   7.055
 9230POPC   C4A47598  14.410  36.864   7.355
 9230POPC   C1B47599  14.242  37.115   6.455
 9230POPC   C2B47600  14.327  37.087   6.755
 9230POPC   C3B47601  14.245  37.128   7.055
 9230POPC   C4B47602  14.292  37.121   7.355
 9231POPC   NC347603  19.092  37.711   5.555
 9231POPC   PO447604  19.087  37.650   5.855
 9231POPC   GL147605  19.071  37.655   6.155
 9231POPC   GL247606  18.963  37.705   6.155
 9231POPC   C1A47607  19.098  37.669   6.455
 9231POPC   D2A47608  19.023  37.659   6.755
 9231POPC   C3A47609  19.014  37.724   7.055
 9231POPC   C4A47610  19.079  37.706   7.355
 9231POPC   C1B47611  18.851  37.660   6.455
 9231POPC   C2B47612  18.776  37.731   6.755
 9231POPC   C3B47613  18.812  37.689   7.055
 9231POPC   C4B47614  18.782  37.707   7.355
 9232POPC   NC347615  12.030  12.112   5.555
 9232POPC   PO447616  12.124  12.065   5.855
 9232POPC   GL147617  12.100  12.088   6.155
 9232POPC   GL247618  12.215  12.126   6.155
 9232POPC   C1A47619  12.120  12.090   6.455
 9232POPC   D2A47620  12.048  12.097   6.755
 9232POPC   C3A47621  12.045  12.096   7.055
 9232POPC   C4A47622  12.062  12.112   7.355
 9232POPC   C1B47623  12.260  12.184   6.455
 9232POPC   C2B47624  12.265  12.142   6.755
 9232POPC   C3B47625  12.326  12.163   7.055
 9232POPC   C4B47626  12.326  12.197   7.355
 9233POPC   NC347627  19.034   9.768   5.555
 9233POPC   PO447628  19.105   9.718   5.855
 9233POPC   GL147629  19.055   9.784   6.155
 9233POPC   GL247630  18.931   9.671   6.155
 9233POPC   C1A47631  19.028   9.733   6.455
 9233POPC   D2A47632  19.034   9.745   6.755
 9233POPC   C3A47633  19.082   9.733   7.055
 9233POPC   C4A47634  19.104   9.784   7.355
 9233POPC   C1B47635  18.785   9.733   6.455
 9233POPC   C2B47636  18.838   9.666   6.755
 9233POPC   C3B47637  18.832   9.722   7.055
 9233POPC   C4B47638  18.858   9.652   7.355
 9234POPC   NC347639  29.898  44.701   5.555
 9234POPC   PO447640  29.876  44.692   5.855
 9234POPC   GL147641  29.953  44.616   6.155
 9234POPC   GL247642  29.930  44.497   6.155
 9234POPC   C1A47643  29.939  44.645   6.455
 9234POPC   D2A47644  29.938  44.692   6.755
 9234POPC   C3A47645  29.871  44.649   7.055
 9234POPC   C4A47646  29.965  44.661   7.355
 9234POPC   C1B47647  29.983  44.382   6.455
 9234POPC   C2B47648  29.970  44.418   6.755
 9234POPC   C3B47649  29.946  44.405   7.055
 9234POPC   C4B47650  29.952  44.387   7.355
 9235POPC   NC347651  34.597  27.587   5.555
 9235POPC   PO447652  34.570  27.592   5.855
 9235POPC   GL147653  34.554  27.639   6.155
 9235POPC   GL247654  34.644  27.630   6.155
 9235POPC   C1A47655  34.546  27.602   6.455
 9235POPC   D2A47656  34.606  27.551   6.755
 9235POPC   C3A47657  34.614  27.633   7.055
 9235POPC   C4A47658  34.557  27.600   7.355
 9235POPC   C1B47659  34.791  27.749   6.455
 9235POPC   C2B47660  34.790  27.695   6.755
 9235POPC   C3B47661  34.823  27.706   7.055
 9235POPC   C4B47662  34.778  27.684   7.355
 9236POPC   NC347663  32.208  44.650   5.555
 9236POPC   PO447664  32.278  44.640   5.855
 9236POPC   GL147665  32.234  44.688   6.155
 9236POPC   GL247666  32.355  44.660   6.155
 9236POPC   C1A47667  32.259  44.627   6.455
 9236POPC   D2A47668  32.279  44.617   6.755
 9236POPC   C3A47669  32.227  44.707   7.055
 9236POPC   C4A47670  32.199  44.668   7.355
 9236POPC   C1B47671  32.495  44.649   6.455
 9236POPC   C2B47672  32.531  44.664   6.755
 9236POPC   C3B47673  32.486  44.620   7.055
 9236POPC   C4B47674  32.539  44.675   7.355
 9237POPC   NC347675   6.595  28.382   5.555
 9237POPC   PO447676   6.612  28.400   5.855
 9237POPC   GL147677   6.636  28.393   6.155
 9237POPC   GL247678   6.650  28.233   6.155
 9237POPC   C1A47679   6.642  28.403   6.455
 9237POPC   D2A47680   6.627  28.322   6.755
 9237POPC   C3A47681   6.685  28.323   7.055
 9237POPC   C4A47682   6.692  28.323   7.355
 9237POPC   C1B47683   6.568  28.168   6.455
 9237POPC   C2B47684   6.538  28.088   6.755
 9237POPC   C3B47685   6.558  28.169   7.055
 9237POPC   C4B47686   6.600  28.126   7.355
 9238POPC   NC347687   0.436   6.604   5.555
 9238POPC   PO447688   0.448   6.661   5.855
 9238POPC   GL147689   0.471   6.641   6.155
 9238POPC   GL247690   0.488   6.563   6.155
 9238POPC   C1A47691   0.468   6.644   6.455
 9238POPC   D2A47692   0.437   6.642   6.755
 9238POPC   C3A47693   0.470   6.616   7.055
 9238POPC   C4A47694   0.436   6.684   7.355
 9238POPC   C1B47695   0.560   6.437   6.455
 9238POPC   C2B47696   0.575   6.404   6.755
 9238POPC   C3B47697   0.589   6.440   7.055
 9238POPC   C4B47698   0.554   6.465   7.355
 9239POPC   NC347699  34.548  32.231   5.555
 9239POPC   PO447700  34.571  32.213   5.855
 9239POPC   GL147701  34.563  32.297   6.155
 9239POPC   GL247702  34.446  32.337   6.155
 9239POPC   C1A47703  34.558  32.289   6.455
 9239POPC   D2A47704  34.557  32.273   6.755
 9239POPC   C3A47705  34.582  32.260   7.055
 9239POPC   C4A47706  34.597  32.228   7.355
 9239POPC   C1B47707  34.313  32.339   6.455
 9239POPC   C2B47708  34.406  32.411   6.755
 9239POPC   C3B47709  34.363  32.379   7.055
 9239POPC   C4B47710  34.322  32.392   7.355
 9240POPC   NC347711  36.137   7.421   5.555
 9240POPC   PO447712  36.142   7.463   5.855
 9240POPC   GL147713  36.104   7.420   6.155
 9240POPC   GL247714  36.278   7.418   6.155
 9240POPC   C1A47715  36.178   7.412   6.455
 9240POPC   D2A47716  36.092   7.418   6.755
 9240POPC   C3A47717  36.097   7.452   7.055
 9240POPC   C4A47718  36.088   7.429   7.355
 9240POPC   C1B47719  36.410   7.398   6.455
 9240POPC   C2B47720  36.328   7.420   6.755
 9240POPC   C3B47721  36.349   7.364   7.055
 9240POPC   C4B47722  36.400   7.360   7.355
 9241POPC   NC347723  19.045  22.128   5.555
 9241POPC   PO447724  19.108  22.200   5.855
 9241POPC   GL147725  19.064  22.200   6.155
 9241POPC   GL247726  19.154  22.186   6.155
 9241POPC   C1A47727  19.084  22.203   6.455
 9241POPC   D2A47728  19.036  22.169   6.755
 9241POPC   C3A47729  19.101  22.164   7.055
 9241POPC   C4A47730  19.081  22.210   7.355
 9241POPC   C1B47731  19.255  22.320   6.455
 9241POPC   C2B47732  19.297  22.318   6.755
 9241POPC   C3B47733  19.306  22.250   7.055
 9241POPC   C4B47734  19.250  22.239   7.355
 9242POPC   NC347735  29.931   8.992   5.555
 9242POPC   PO447736  29.966   8.995   5.855
 9242POPC   GL147737  29.872   8.970   6.155
 9242POPC   GL247738  29.877   9.097   6.155
 9242POPC   C1A47739  29.907   8.942   6.455
 9242POPC   D2A47740  29.951   8.972   6.755
 9242POPC   C3A47741  29.912   8.960   7.055
 9242POPC   C4A47742  29.899   8.966   7.355
 9242POPC   C1B47743  29.823   9.147   6.455
 9242POPC   C2B47744  29.755   9.186   6.755
 9242POPC   C3B47745  29.787   9.149   7.055
 9242POPC   C4B47746  29.787   9.175   7.355
 9243POPC   NC347747  30.652  32.206   5.555
 9243POPC   PO447748  30.680  32.259   5.855
 9243POPC   GL147749  30.690  32.217   6.155
 9243POPC   GL247750  30.548  32.243   6.155
 9243POPC   C1A47751  30.648  32.278   6.455
 9243POPC   D2A47752  30.731  32.279   6.755
 9243POPC   C3A47753  30.732  32.240   7.055
 9243POPC   C4A47754  30.718  32.247   7.355
 9243POPC   C1B47755  30.426  32.137   6.455
 9243POPC   C2B47756  30.512  32.179   6.755
 9243POPC   C3B47757  30.488  32.122   7.055
 9243POPC   C4B47758  30.448  32.173   7.355
 9244POPC   NC347759  11.323  34.540   5.555
 9244POPC   PO447760  11.335  34.595   5.855
 9244POPC   GL147761  11.297  34.590   6.155
 9244POPC   GL247762  11.205  34.511   6.155
 9244POPC   C1A47763  11.313  34.541   6.455
 9244POPC   D2A47764  11.288  34.541   6.755
 9244POPC   C3A47765  11.263  34.622   7.055
 9244POPC   C4A47766  11.255  34.595   7.355
 9244POPC   C1B47767  11.146  34.409   6.455
 9244POPC   C2B47768  11.159  34.405   6.755
 9244POPC   C3B47769  11.103  34.455   7.055
 9244POPC   C4B47770  11.111  34.395   7.355
 9245POPC   NC347771  39.995  30.688   5.555
 9245POPC   PO447772  39.996  30.746   5.855
 9245POPC   GL147773  39.997  30.676   6.155
 9245POPC   GL247774  39.984  30.583   6.155
 9245POPC   C1A47775  40.051  30.727   6.455
 9245POPC   D2A47776  39.970  30.670   6.755
 9245POPC   C3A47777  40.013  30.676   7.055
 9245POPC   C4A47778  40.038  30.706   7.355
 9245POPC   C1B47779  39.943  30.460   6.455
 9245POPC   C2B47780  39.863  30.476   6.755
 9245POPC   C3B47781  39.863  30.477   7.055
 9245POPC   C4B47782  39.900  30.433   7.355
 9246POPC   NC347783  29.914  34.551   5.555
 9246POPC   PO447784  29.931  34.528   5.855
 9246POPC   GL147785  29.923  34.596   6.155
 9246POPC   GL247786  29.822  34.634   6.155
 9246POPC   C1A47787  29.880  34.610   6.455
 9246POPC   D2A47788  29.956  34.584   6.755
 9246POPC   C3A47789  29.886  34.573   7.055
 9246POPC   C4A47790  29.876  34.534   7.355
 9246POPC   C1B47791  29.662  34.625   6.455
 9246POPC   C2B47792  29.625  34.648   6.755
 9246POPC   C3B47793  29.667  34.606   7.055
 9246POPC   C4B47794  29.634  34.586   7.355
 9247POPC   NC347795  35.321  11.344   5.555
 9247POPC   PO447796  35.358  11.304   5.855
 9247POPC   GL147797  35.385  11.322   6.155
 9247POPC   GL247798  35.428  11.345   6.155
 9247POPC   C1A47799  35.341  11.310   6.455
 9247POPC   D2A47800  35.359  11.344   6.755
 9247POPC   C3A47801  35.371  11.340   7.055
 9247POPC   C4A47802  35.307  11.335   7.355
 9247POPC   C1B47803  35.576  11.333   6.455
 9247POPC   C2B47804  35.590  11.368   6.755
 9247POPC   C3B47805  35.599  11.336   7.055
 9247POPC   C4B47806  35.636  11.428   7.355
 9248POPC   NC347807  30.734  29.148   5.555
 9248POPC   PO447808  30.739  29.145   5.855
 9248POPC   GL147809  30.661  29.131   6.155
 9248POPC   GL247810  30.757  29.053   6.155
 9248POPC   C1A47811  30.663  29.164   6.455
 9248POPC   D2A47812  30.705  29.103   6.755
 9248POPC   C3A47813  30.725  29.164   7.055
 9248POPC   C4A47814  30.737  29.178   7.355
 9248POPC   C1B47815  30.911  29.006   6.455
 9248POPC   C2B47816  30.909  28.958   6.755
 9248POPC   C3B47817  30.825  28.964   7.055
 9248POPC   C4B47818  30.911  29.006   7.355
 9249POPC   NC347819   0.441  18.286   5.555
 9249POPC   PO447820   0.437  18.318   5.855
 9249POPC   GL147821   0.410  18.328   6.155
 9249POPC   GL247822   0.284  18.244   6.155
 9249POPC   C1A47823   0.442  18.270   6.455
 9249POPC   D2A47824   0.440  18.317   6.755
 9249POPC   C3A47825   0.395  18.326   7.055
 9249POPC   C4A47826   0.453  18.328   7.355
 9249POPC   C1B47827   0.240  18.185   6.455
 9249POPC   C2B47828   0.173  18.205   6.755
 9249POPC   C3B47829   0.234  18.219   7.055
 9249POPC   C4B47830   0.157  18.217   7.355
 9250POPC   NC347831  21.418  37.719   5.555
 9250POPC   PO447832  21.426  37.723   5.855
 9250POPC   GL147833  21.358  37.696   6.155
 9250POPC   GL247834  21.302  37.621   6.155
 9250POPC   C1A47835  21.373  37.634   6.455
 9250POPC   D2A47836  21.370  37.711   6.755
 9250POPC   C3A47837  21.383  37.700   7.055
 9250POPC   C4A47838  21.345  37.667   7.355
 9250POPC   C1B47839  21.171  37.570   6.455
 9250POPC   C2B47840  21.138  37.552   6.755
 9250POPC   C3B47841  21.219  37.583   7.055
 9250POPC   C4B47842  21.204  37.519   7.355
 9251POPC   NC347843  30.726  27.618   5.555
 9251POPC   PO447844  30.744  27.567   5.855
 9251POPC   GL147845  30.662  27.566   6.155
 9251POPC   GL247846  30.830  27.646   6.155
 9251POPC   C1A47847  30.717  27.629   6.455
 9251POPC   D2A47848  30.697  27.639   6.755
 9251POPC   C3A47849  30.685  27.597   7.055
 9251POPC   C4A47850  30.682  27.609   7.355
 9251POPC   C1B47851  30.989  27.689   6.455
 9251POPC   C2B47852  30.928  27.673   6.755
 9251POPC   C3B47853  30.978  27.661   7.055
 9251POPC   C4B47854  30.945  27.668   7.355
 9252POPC   NC347855  38.432  44.711   5.555
 9252POPC   PO447856  38.480  44.690   5.855
 9252POPC   GL147857  38.468  44.692   6.155
 9252POPC   GL247858  38.467  44.746   6.155
 9252POPC   C1A47859  38.417  44.663   6.455
 9252POPC   D2A47860  38.484  44.682   6.755
 9252POPC   C3A47861  38.443  44.614   7.055
 9252POPC   C4A47862  38.427  44.709   7.355
 9252POPC   C1B47863  38.394  44.959   6.455
 9252POPC   C2B47864  38.410  44.880   6.755
 9252POPC   C3B47865  38.462  44.904   7.055
 9252POPC   C4B47866  38.459  44.874   7.355
 9253POPC   NC347867   5.847   0.465   5.555
 9253POPC   PO447868   5.847   0.484   5.855
 9253POPC   GL147869   5.827   0.420   6.155
 9253POPC   GL247870   5.719   0.425   6.155
 9253POPC   C1A47871   5.828   0.421   6.455
 9253POPC   D2A47872   5.903   0.427   6.755
 9253POPC   C3A47873   5.842   0.479   7.055
 9253POPC   C4A47874   5.832   0.482   7.355
 9253POPC   C1B47875   5.644   0.416   6.455
 9253POPC   C2B47876   5.599   0.343   6.755
 9253POPC   C3B47877   5.591   0.386   7.055
 9253POPC   C4B47878   5.629   0.354   7.355
 9254POPC   NC347879  30.688  10.478   5.555
 9254POPC   PO447880  30.668  10.567   5.855
 9254POPC   GL147881  30.653  10.492   6.155
 9254POPC   GL247882  30.803  10.629   6.155
 9254POPC   C1A47883  30.647  10.492   6.455
 9254POPC   D2A47884  30.736  10.507   6.755
 9254POPC   C3A47885  30.724  10.503   7.055
 9254POPC   C4A47886  30.668  10.560   7.355
 9254POPC   C1B47887  30.839  10.735   6.455
 9254POPC   C2B47888  30.856  10.723   6.755
 9254POPC   C3B47889  30.903  10.655   7.055
 9254POPC   C4B47890  30.900  10.707   7.355
 9255POPC   NC347891  41.525  16.720   5.555
 9255POPC   PO447892  41.572  16.771   5.855
 9255POPC   GL147893  41.526  16.770   6.155
 9255POPC   GL247894  41.450  16.810   6.155
 9255POPC   C1A47895  41.537  16.752   6.455
 9255POPC   D2A47896  41.519  16.780   6.755
 9255POPC   C3A47897  41.552  16.741   7.055
 9255POPC   C4A47898  41.509  16.734   7.355
 9255POPC   C1B47899  41.355  16.849   6.455
 9255POPC   C2B47900  41.364  16.853   6.755
 9255POPC   C3B47901  41.379  16.796   7.055
 9255POPC   C4B47902  41.376  16.817   7.355
 9256POPC   NC347903  29.148  31.480   5.555
 9256POPC   PO447904  29.096  31.430   5.855
 9256POPC   GL147905  29.108  31.439   6.155
 9256POPC   GL247906  29.126  31.389   6.155
 9256POPC   C1A47907  29.122  31.490   6.455
 9256POPC   D2A47908  29.120  31.501   6.755
 9256POPC   C3A47909  29.118  31.442   7.055
 9256POPC   C4A47910  29.177  31.498   7.355
 9256POPC   C1B47911  29.158  31.213   6.455
 9256POPC   C2B47912  29.085  31.223   6.755
 9256POPC   C3B47913  29.119  31.274   7.055
 9256POPC   C4B47914  29.068  31.225   7.355
 9257POPC   NC347915  24.460   2.756   5.555
 9257POPC   PO447916  24.451   2.720   5.855
 9257POPC   GL147917  24.497   2.811   6.155
 9257POPC   GL247918  24.553   2.664   6.155
 9257POPC   C1A47919  24.502   2.788   6.455
 9257POPC   D2A47920  24.461   2.771   6.755
 9257POPC   C3A47921  24.442   2.729   7.055
 9257POPC   C4A47922  24.513   2.735   7.355
 9257POPC   C1B47923  24.650   2.516   6.455
 9257POPC   C2B47924  24.591   2.550   6.755
 9257POPC   C3B47925  24.666   2.555   7.055
 9257POPC   C4B47926  24.620   2.540   7.355
 9258POPC   NC347927  41.557  43.854   5.555
 9258POPC   PO447928  41.590  43.929   5.855
 9258POPC   GL147929  41.539  43.839   6.155
 9258POPC   GL247930  41.631  43.821   6.155
 9258POPC   C1A47931  41.548  43.870   6.455
 9258POPC   D2A47932  41.545  43.905   6.755
 9258POPC   C3A47933  41.584  43.847   7.055
 9258POPC   C4A47934  41.517  43.911   7.355
 9258POPC   C1B47935  41.660  43.668   6.455
 9258POPC   C2B47936  41.691  43.671   6.755
 9258POPC   C3B47937  41.704  43.707   7.055
 9258POPC   C4B47938  41.710  43.660   7.355
 9259POPC   NC347939  21.399   2.723   5.555
 9259POPC   PO447940  21.385   2.762   5.855
 9259POPC   GL147941  21.435   2.728   6.155
 9259POPC   GL247942  21.344   2.868   6.155
 9259POPC   C1A47943  21.388   2.720   6.455
 9259POPC   D2A47944  21.426   2.812   6.755
 9259POPC   C3A47945  21.429   2.721   7.055
 9259POPC   C4A47946  21.343   2.804   7.355
 9259POPC   C1B47947  21.301   3.004   6.455
 9259POPC   C2B47948  21.329   2.983   6.755
 9259POPC   C3B47949  21.356   2.970   7.055
 9259POPC   C4B47950  21.353   3.033   7.355
 9260POPC   NC347951  17.552  14.437   5.555
 9260POPC   PO447952  17.546  14.381   5.855
 9260POPC   GL147953  17.538  14.415   6.155
 9260POPC   GL247954  17.397  14.460   6.155
 9260POPC   C1A47955  17.541  14.399   6.455
 9260POPC   D2A47956  17.521  14.409   6.755
 9260POPC   C3A47957  17.522  14.401   7.055
 9260POPC   C4A47958  17.510  14.411   7.355
 9260POPC   C1B47959  17.297  14.409   6.455
 9260POPC   C2B47960  17.263  14.395   6.755
 9260POPC   C3B47961  17.227  14.418   7.055
 9260POPC   C4B47962  17.257  14.438   7.355
 9261POPC   NC347963  14.451  27.547   5.555
 9261POPC   PO447964  14.371  27.625   5.855
 9261POPC   GL147965  14.363  27.555   6.155
 9261POPC   GL247966  14.549  27.632   6.155
 9261POPC   C1A47967  14.410  27.593   6.455
 9261POPC   D2A47968  14.409  27.584   6.755
 9261POPC   C3A47969  14.362  27.589   7.055
 9261POPC   C4A47970  14.446  27.567   7.355
 9261POPC   C1B47971  14.637  27.560   6.455
 9261POPC   C2B47972  14.618  27.567   6.755
 9261POPC   C3B47973  14.697  27.527   7.055
 9261POPC   C4B47974  14.679  27.572   7.355
 9262POPC   NC347975  19.819   0.468   5.555
 9262POPC   PO447976  19.834   0.473   5.855
 9262POPC   GL147977  19.840   0.448   6.155
 9262POPC   GL247978  19.703   0.562   6.155
 9262POPC   C1A47979  19.846   0.405   6.455
 9262POPC   D2A47980  19.847   0.478   6.755
 9262POPC   C3A47981  19.803   0.424   7.055
 9262POPC   C4A47982  19.807   0.485   7.355
 9262POPC   C1B47983  19.650   0.598   6.455
 9262POPC   C2B47984  19.694   0.609   6.755
 9262POPC   C3B47985  19.667   0.661   7.055
 9262POPC   C4B47986  19.676   0.579   7.355
 9263POPC   NC347987  19.843   8.936   5.555
 9263POPC   PO447988  19.822   8.937   5.855
 9263POPC   GL147989  19.797   8.931   6.155
 9263POPC   GL247990  19.721   8.962   6.155
 9263POPC   C1A47991  19.846   8.965   6.455
 9263POPC   D2A47992  19.876   8.991   6.755
 9263POPC   C3A47993  19.866   9.018   7.055
 9263POPC   C4A47994  19.884   8.979   7.355
 9263POPC   C1B47995  19.543   8.954   6.455
 9263POPC   C2B47996  19.622   8.904   6.755
 9263POPC   C3B47997  19.566   8.950   7.055
 9263POPC   C4B47998  19.549   8.940   7.355
 9264POPC   NC347999   7.442  12.884   5.555
 9264POPC   PO448000   7.381  12.853   5.855
 9264POPC   GL148001   7.395  12.819   6.155
 9264POPC   GL248002   7.436  13.017   6.155
 9264POPC   C1A48003   7.452  12.814   6.455
 9264POPC   D2A48004   7.458  12.884   6.755
 9264POPC   C3A48005   7.454  12.821   7.055
 9264POPC   C4A48006   7.382  12.825   7.355
 9264POPC   C1B48007   7.470  13.100   6.455
 9264POPC   C2B48008   7.411  13.100   6.755
 9264POPC   C3B48009   7.395  13.129   7.055
 9264POPC   C4B48010   7.480  13.108   7.355
 9265POPC   NC348011  14.402  19.806   5.555
 9265POPC   PO448012  14.354  19.883   5.855
 9265POPC   GL148013  14.436  19.861   6.155
 9265POPC   GL248014  14.281  19.919   6.155
 9265POPC   C1A48015  14.360  19.823   6.455
 9265POPC   D2A48016  14.417  19.838   6.755
 9265POPC   C3A48017  14.413  19.818   7.055
 9265POPC   C4A48018  14.372  19.799   7.355
 9265POPC   C1B48019  14.190  19.967   6.455
 9265POPC   C2B48020  14.184  19.931   6.755
 9265POPC   C3B48021  14.188  19.944   7.055
 9265POPC   C4B48022  14.166  19.889   7.355
 9266POPC   NC348023  33.784  18.304   5.555
 9266POPC   PO448024  33.755  18.278   5.855
 9266POPC   GL148025  33.800  18.251   6.155
 9266POPC   GL248026  33.712  18.241   6.155
 9266POPC   C1A48027  33.847  18.299   6.455
 9266POPC   D2A48028  33.753  18.294   6.755
 9266POPC   C3A48029  33.843  18.248   7.055
 9266POPC   C4A48030  33.765  18.269   7.355
 9266POPC   C1B48031  33.550  18.238   6.455
 9266POPC   C2B48032  33.523  18.221   6.755
 9266POPC   C3B48033  33.536  18.229   7.055
 9266POPC   C4B48034  33.526  18.166   7.355
 9267POPC   NC348035   8.163  16.746   5.555
 9267POPC   PO448036   8.237  16.691   5.855
 9267POPC   GL148037   8.223  16.716   6.155
 9267POPC   GL248038   8.197  16.615   6.155
 9267POPC   C1A48039   8.170  16.724   6.455
 9267POPC   D2A48040   8.211  16.718   6.755
 9267POPC   C3A48041   8.181  16.735   7.055
 9267POPC   C4A48042   8.229  16.719   7.355
 9267POPC   C1B48043   8.203  16.515   6.455
 9267POPC   C2B48044   8.236  16.455   6.755
 9267POPC   C3B48045   8.181  16.520   7.055
 9267POPC   C4B48046   8.189  16.519   7.355
 9268POPC   NC348047  42.363  42.356   5.555
 9268POPC   PO448048  42.327  42.309   5.855
 9268POPC   GL148049  42.321  42.316   6.155
 9268POPC   GL248050  42.217  42.293   6.155
 9268POPC   C1A48051  42.328  42.375   6.455
 9268POPC   D2A48052  42.378  42.301   6.755
 9268POPC   C3A48053  42.325  42.305   7.055
 9268POPC   C4A48054  42.354  42.320   7.355
 9268POPC   C1B48055  42.101  42.332   6.455
 9268POPC   C2B48056  42.042  42.377   6.755
 9268POPC   C3B48057  42.131  42.300   7.055
 9268POPC   C4B48058  42.115  42.290   7.355
 9269POPC   NC348059  13.646   5.110   5.555
 9269POPC   PO448060  13.645   5.112   5.855
 9269POPC   GL148061  13.631   5.074   6.155
 9269POPC   GL248062  13.509   5.139   6.155
 9269POPC   C1A48063  13.666   5.117   6.455
 9269POPC   D2A48064  13.655   5.086   6.755
 9269POPC   C3A48065  13.659   5.045   7.055
 9269POPC   C4A48066  13.617   5.090   7.355
 9269POPC   C1B48067  13.406   5.249   6.455
 9269POPC   C2B48068  13.452   5.206   6.755
 9269POPC   C3B48069  13.451   5.211   7.055
 9269POPC   C4B48070  13.402   5.240   7.355
 9270POPC   NC348071  24.496  27.604   5.555
 9270POPC   PO448072  24.444  27.642   5.855
 9270POPC   GL148073  24.443  27.600   6.155
 9270POPC   GL248074  24.613  27.642   6.155
 9270POPC   C1A48075  24.533  27.615   6.455
 9270POPC   D2A48076  24.490  27.561   6.755
 9270POPC   C3A48077  24.474  27.592   7.055
 9270POPC   C4A48078  24.457  27.555   7.355
 9270POPC   C1B48079  24.713  27.697   6.455
 9270POPC   C2B48080  24.747  27.719   6.755
 9270POPC   C3B48081  24.736  27.669   7.055
 9270POPC   C4B48082  24.680  27.683   7.355
 9271POPC   NC348083  31.512   2.770   5.555
 9271POPC   PO448084  31.438   2.784   5.855
 9271POPC   GL148085  31.473   2.806   6.155
 9271POPC   GL248086  31.480   2.664   6.155
 9271POPC   C1A48087  31.450   2.749   6.455
 9271POPC   D2A48088  31.507   2.751   6.755
 9271POPC   C3A48089  31.492   2.756   7.055
 9271POPC   C4A48090  31.446   2.735   7.355
 9271POPC   C1B48091  31.441   2.520   6.455
 9271POPC   C2B48092  31.525   2.564   6.755
 9271POPC   C3B48093  31.488   2.467   7.055
 9271POPC   C4B48094  31.507   2.477   7.355
 9272POPC   NC348095  12.857  37.697   5.555
 9272POPC   PO448096  12.884  37.692   5.855
 9272POPC   GL148097  12.870  37.722   6.155
 9272POPC   GL248098  12.733  37.742   6.155
 9272POPC   C1A48099  12.827  37.661   6.455
 9272POPC   D2A48100  12.835  37.711   6.755
 9272POPC   C3A48101  12.814  37.701   7.055
 9272POPC   C4A48102  12.854  37.682   7.355
 9272POPC   C1B48103  12.675  37.843   6.455
 9272POPC   C2B48104  12.705  37.823   6.755
 9272POPC   C3B48105  12.703  37.817   7.055
 9272POPC   C4B48106  12.653  37.827   7.355
 9273POPC   NC348107  31.450  12.071   5.555
 9273POPC   PO448108  31.472  12.065   5.855
 9273POPC   GL148109  31.435  12.125   6.155
 9273POPC   GL248110  31.453  12.219   6.155
 9273POPC   C1A48111  31.516  12.112   6.455
 9273POPC   D2A48112  31.491  12.115   6.755
 9273POPC   C3A48113  31.519  12.044   7.055
 9273POPC   C4A48114  31.480  12.052   7.355
 9273POPC   C1B48115  31.408  12.285   6.455
 9273POPC   C2B48116  31.396  12.291   6.755
 9273POPC   C3B48117  31.441  12.303   7.055
 9273POPC   C4B48118  31.418  12.304   7.355
 9274POPC   NC348119   5.137  32.246   5.555
 9274POPC   PO448120   5.050  32.231   5.855
 9274POPC   GL148121   5.137  32.251   6.155
 9274POPC   GL248122   5.012  32.413   6.155
 9274POPC   C1A48123   5.113  32.255   6.455
 9274POPC   D2A48124   5.090  32.279   6.755
 9274POPC   C3A48125   5.123  32.244   7.055
 9274POPC   C4A48126   5.072  32.234   7.355
 9274POPC   C1B48127   5.024  32.472   6.455
 9274POPC   C2B48128   5.049  32.500   6.755
 9274POPC   C3B48129   5.003  32.494   7.055
 9274POPC   C4B48130   5.044  32.498   7.355
 9275POPC   NC348131  22.951  13.583   5.555
 9275POPC   PO448132  22.899  13.620   5.855
 9275POPC   GL148133  22.984  13.606   6.155
 9275POPC   GL248134  23.041  13.627   6.155
 9275POPC   C1A48135  22.947  13.655   6.455
 9275POPC   D2A48136  22.959  13.663   6.755
 9275POPC   C3A48137  22.955  13.677   7.055
 9275POPC   C4A48138  22.954  13.628   7.355
 9275POPC   C1B48139  23.151  13.591   6.455
 9275POPC   C2B48140  23.179  13.636   6.755
 9275POPC   C3B48141  23.204  13.577   7.055
 9275POPC   C4B48142  23.152  13.548   7.355
 9276POPC   NC348143  42.361  33.807   5.555
 9276POPC   PO448144  42.289  33.769   5.855
 9276POPC   GL148145  42.358  33.821   6.155
 9276POPC   GL248146  42.261  33.790   6.155
 9276POPC   C1A48147  42.369  33.754   6.455
 9276POPC   D2A48148  42.367  33.795   6.755
 9276POPC   C3A48149  42.351  33.794   7.055
 9276POPC   C4A48150  42.339  33.757   7.355
 9276POPC   C1B48151  42.093  33.825   6.455
 9276POPC   C2B48152  42.087  33.866   6.755
 9276POPC   C3B48153  42.091  33.919   7.055
 9276POPC   C4B48154  42.130  33.881   7.355
 9277POPC   NC348155   6.614   1.999   5.555
 9277POPC   PO448156   6.619   1.973   5.855
 9277POPC   GL148157   6.612   2.020   6.155
 9277POPC   GL248158   6.648   1.825   6.155
 9277POPC   C1A48159   6.681   1.949   6.455
 9277POPC   D2A48160   6.641   2.022   6.755
 9277POPC   C3A48161   6.619   1.990   7.055
 9277POPC   C4A48162   6.692   1.993   7.355
 9277POPC   C1B48163   6.755   1.793   6.455
 9277POPC   C2B48164   6.785   1.762   6.755
 9277POPC   C3B48165   6.751   1.711   7.055
 9277POPC   C4B48166   6.719   1.717   7.355
 9278POPC   NC348167   4.351  18.255   5.555
 9278POPC   PO448168   4.323  18.313   5.855
 9278POPC   GL148169   4.326  18.315   6.155
 9278POPC   GL248170   4.207  18.286   6.155
 9278POPC   C1A48171   4.346  18.243   6.455
 9278POPC   D2A48172   4.340  18.291   6.755
 9278POPC   C3A48173   4.275  18.248   7.055
 9278POPC   C4A48174   4.314  18.256   7.355
 9278POPC   C1B48175   4.117  18.363   6.455
 9278POPC   C2B48176   4.081  18.412   6.755
 9278POPC   C3B48177   4.101  18.409   7.055
 9278POPC   C4B48178   4.129  18.353   7.355
 9279POPC   NC348179  10.509  18.308   5.555
 9279POPC   PO448180  10.507  18.296   5.855
 9279POPC   GL148181  10.489  18.271   6.155
 9279POPC   GL248182  10.436  18.199   6.155
 9279POPC   C1A48183  10.527  18.238   6.455
 9279POPC   D2A48184  10.563  18.270   6.755
 9279POPC   C3A48185  10.517  18.287   7.055
 9279POPC   C4A48186  10.511  18.320   7.355
 9279POPC   C1B48187  10.347  18.098   6.455
 9279POPC   C2B48188  10.337  18.098   6.755
 9279POPC   C3B48189  10.417  18.117   7.055
 9279POPC   C4B48190  10.360  18.069   7.355
 9280POPC   NC348191  11.330  29.893   5.555
 9280POPC   PO448192  11.295  29.914   5.855
 9280POPC   GL148193  11.294  29.901   6.155
 9280POPC   GL248194  11.449  29.855   6.155
 9280POPC   C1A48195  11.326  29.878   6.455
 9280POPC   D2A48196  11.303  29.956   6.755
 9280POPC   C3A48197  11.337  29.879   7.055
 9280POPC   C4A48198  11.276  29.876   7.355
 9280POPC   C1B48199  11.480  29.820   6.455
 9280POPC   C2B48200  11.538  29.763   6.755
 9280POPC   C3B48201  11.547  29.822   7.055
 9280POPC   C4B48202  11.537  29.810   7.355
 9281POPC   NC348203  31.460  43.879   5.555
 9281POPC   PO448204  31.448  43.931   5.855
 9281POPC   GL148205  31.435  43.889   6.155
 9281POPC   GL248206  31.560  43.968   6.155
 9281POPC   C1A48207  31.443  43.855   6.455
 9281POPC   D2A48208  31.517  43.877   6.755
 9281POPC   C3A48209  31.468  43.865   7.055
 9281POPC   C4A48210  31.425  43.885   7.355
 9281POPC   C1B48211  31.638  43.972   6.455
 9281POPC   C2B48212  31.638  43.968   6.755
 9281POPC   C3B48213  31.639  43.998   7.055
 9281POPC   C4B48214  31.659  44.033   7.355
 9282POPC   NC348215  37.699  25.295   5.555
 9282POPC   PO448216  37.641  25.295   5.855
 9282POPC   GL148217  37.687  25.218   6.155
 9282POPC   GL248218  37.650  25.187   6.155
 9282POPC   C1A48219  37.669  25.257   6.455
 9282POPC   D2A48220  37.713  25.236   6.755
 9282POPC   C3A48221  37.640  25.266   7.055
 9282POPC   C4A48222  37.661  25.220   7.355
 9282POPC   C1B48223  37.708  24.998   6.455
 9282POPC   C2B48224  37.743  25.009   6.755
 9282POPC   C3B48225  37.707  24.983   7.055
 9282POPC   C4B48226  37.710  25.034   7.355
 9283POPC   NC348227  21.368  30.660   5.555
 9283POPC   PO448228  21.385  30.733   5.855
 9283POPC   GL148229  21.357  30.744   6.155
 9283POPC   GL248230  21.358  30.816   6.155
 9283POPC   C1A48231  21.392  30.709   6.455
 9283POPC   D2A48232  21.405  30.745   6.755
 9283POPC   C3A48233  21.352  30.697   7.055
 9283POPC   C4A48234  21.348  30.708   7.355
 9283POPC   C1B48235  21.394  30.950   6.455
 9283POPC   C2B48236  21.417  30.902   6.755
 9283POPC   C3B48237  21.421  30.959   7.055
 9283POPC   C4B48238  21.352  30.971   7.355
 9284POPC   NC348239  14.354  12.865   5.555
 9284POPC   PO448240  14.448  12.821   5.855
 9284POPC   GL148241  14.433  12.891   6.155
 9284POPC   GL248242  14.402  12.963   6.155
 9284POPC   C1A48243  14.427  12.876   6.455
 9284POPC   D2A48244  14.380  12.864   6.755
 9284POPC   C3A48245  14.427  12.806   7.055
 9284POPC   C4A48246  14.433  12.846   7.355
 9284POPC   C1B48247  14.464  13.101   6.455
 9284POPC   C2B48248  14.473  13.092   6.755
 9284POPC   C3B48249  14.440  13.128   7.055
 9284POPC   C4B48250  14.408  13.073   7.355
 9285POPC   NC348251  14.437  12.088   5.555
 9285POPC   PO448252  14.403  12.068   5.855
 9285POPC   GL148253  14.417  12.089   6.155
 9285POPC   GL248254  14.420  12.192   6.155
 9285POPC   C1A48255  14.392  12.115   6.455
 9285POPC   D2A48256  14.407  12.110   6.755
 9285POPC   C3A48257  14.434  12.068   7.055
 9285POPC   C4A48258  14.420  12.081   7.355
 9285POPC   C1B48259  14.331  12.339   6.455
 9285POPC   C2B48260  14.354  12.322   6.755
 9285POPC   C3B48261  14.336  12.294   7.055
 9285POPC   C4B48262  14.338  12.365   7.355
 9286POPC   NC348263  28.382  32.283   5.555
 9286POPC   PO448264  28.387  32.266   5.855
 9286POPC   GL148265  28.326  32.220   6.155
 9286POPC   GL248266  28.478  32.315   6.155
 9286POPC   C1A48267  28.386  32.287   6.455
 9286POPC   D2A48268  28.338  32.210   6.755
 9286POPC   C3A48269  28.336  32.201   7.055
 9286POPC   C4A48270  28.386  32.285   7.355
 9286POPC   C1B48271  28.614  32.414   6.455
 9286POPC   C2B48272  28.555  32.351   6.755
 9286POPC   C3B48273  28.556  32.434   7.055
 9286POPC   C4B48274  28.544  32.431   7.355
 9287POPC   NC348275  11.338  32.986   5.555
 9287POPC   PO448276  11.309  33.052   5.855
 9287POPC   GL148277  11.293  33.062   6.155
 9287POPC   GL248278  11.218  33.075   6.155
 9287POPC   C1A48279  11.261  33.011   6.455
 9287POPC   D2A48280  11.318  33.049   6.755
 9287POPC   C3A48281  11.336  32.993   7.055
 9287POPC   C4A48282  11.276  33.031   7.355
 9287POPC   C1B48283  11.108  33.186   6.455
 9287POPC   C2B48284  11.193  33.180   6.755
 9287POPC   C3B48285  11.137  33.262   7.055
 9287POPC   C4B48286  11.109  33.210   7.355
 9288POPC   NC348287  33.039  19.815   5.555
 9288POPC   PO448288  33.004  19.853   5.855
 9288POPC   GL148289  32.998  19.850   6.155
 9288POPC   GL248290  32.952  19.757   6.155
 9288POPC   C1A48291  33.047  19.869   6.455
 9288POPC   D2A48292  32.979  19.851   6.755
 9288POPC   C3A48293  33.039  19.795   7.055
 9288POPC   C4A48294  33.013  19.795   7.355
 9288POPC   C1B48295  32.812  19.671   6.455
 9288POPC   C2B48296  32.909  19.663   6.755
 9288POPC   C3B48297  32.848  19.679   7.055
 9288POPC   C4B48298  32.888  19.619   7.355
 9289POPC   NC348299  22.211   7.443   5.555
 9289POPC   PO448300  22.200   7.471   5.855
 9289POPC   GL148301  22.210   7.443   6.155
 9289POPC   GL248302  22.112   7.479   6.155
 9289POPC   C1A48303  22.191   7.395   6.455
 9289POPC   D2A48304  22.154   7.420   6.755
 9289POPC   C3A48305  22.174   7.374   7.055
 9289POPC   C4A48306  22.162   7.436   7.355
 9289POPC   C1B48307  21.991   7.587   6.455
 9289POPC   C2B48308  21.990   7.651   6.755
 9289POPC   C3B48309  22.029   7.614   7.055
 9289POPC   C4B48310  21.997   7.612   7.355
 9290POPC   NC348311  12.058  39.225   5.555
 9290POPC   PO448312  12.100  39.220   5.855
 9290POPC   GL148313  12.065  39.264   6.155
 9290POPC   GL248314  12.083  39.155   6.155
 9290POPC   C1A48315  12.102  39.213   6.455
 9290POPC   D2A48316  12.111  39.274   6.755
 9290POPC   C3A48317  12.072  39.265   7.055
 9290POPC   C4A48318  12.100  39.233   7.355
 9290POPC   C1B48319  12.043  39.012   6.455
 9290POPC   C2B48320  11.989  38.949   6.755
 9290POPC   C3B48321  12.012  39.003   7.055
 9290POPC   C4B48322  12.004  39.030   7.355
 9291POPC   NC348323  10.555   8.209   5.555
 9291POPC   PO448324  10.488   8.182   5.855
 9291POPC   GL148325  10.555   8.196   6.155
 9291POPC   GL248326  10.660   8.165   6.155
 9291POPC   C1A48327  10.562   8.217   6.455
 9291POPC   D2A48328  10.539   8.174   6.755
 9291POPC   C3A48329  10.552   8.242   7.055
 9291POPC   C4A48330  10.571   8.232   7.355
 9291POPC   C1B48331  10.778   8.101   6.455
 9291POPC   C2B48332  10.806   8.099   6.755
 9291POPC   C3B48333  10.791   8.147   7.055
 9291POPC   C4B48334  10.719   8.169   7.355
 9292POPC   NC348335  14.444   5.867   5.555
 9292POPC   PO448336  14.392   5.903   5.855
 9292POPC   GL148337  14.364   5.860   6.155
 9292POPC   GL248338  14.527   5.867   6.155
 9292POPC   C1A48339  14.423   5.903   6.455
 9292POPC   D2A48340  14.419   5.880   6.755
 9292POPC   C3A48341  14.394   5.876   7.055
 9292POPC   C4A48342  14.406   5.819   7.355
 9292POPC   C1B48343  14.609   5.935   6.455
 9292POPC   C2B48344  14.615   5.951   6.755
 9292POPC   C3B48345  14.660   5.909   7.055
 9292POPC   C4B48346  14.692   5.981   7.355
 9293POPC   NC348347  10.484  13.630   5.555
 9293POPC   PO448348  10.475  13.611   5.855
 9293POPC   GL148349  10.532  13.670   6.155
 9293POPC   GL248350  10.618  13.731   6.155
 9293POPC   C1A48351  10.477  13.581   6.455
 9293POPC   D2A48352  10.500  13.623   6.755
 9293POPC   C3A48353  10.493  13.675   7.055
 9293POPC   C4A48354  10.573  13.648   7.355
 9293POPC   C1B48355  10.713  13.821   6.455
 9293POPC   C2B48356  10.709  13.753   6.755
 9293POPC   C3B48357  10.712  13.758   7.055
 9293POPC   C4B48358  10.702  13.774   7.355
 9294POPC   NC348359   8.941  21.353   5.555
 9294POPC   PO448360   8.957  21.400   5.855
 9294POPC   GL148361   8.968  21.434   6.155
 9294POPC   GL248362   9.105  21.411   6.155
 9294POPC   C1A48363   8.968  21.432   6.455
 9294POPC   D2A48364   9.010  21.381   6.755
 9294POPC   C3A48365   8.976  21.421   7.055
 9294POPC   C4A48366   8.929  21.386   7.355
 9294POPC   C1B48367   9.239  21.458   6.455
 9294POPC   C2B48368   9.216  21.445   6.755
 9294POPC   C3B48369   9.176  21.503   7.055
 9294POPC   C4B48370   9.217  21.445   7.355
 9295POPC   NC348371  40.745   9.742   5.555
 9295POPC   PO448372  40.747   9.731   5.855
 9295POPC   GL148373  40.814   9.780   6.155
 9295POPC   GL248374  40.749   9.817   6.155
 9295POPC   C1A48375  40.760   9.795   6.455
 9295POPC   D2A48376  40.757   9.740   6.755
 9295POPC   C3A48377  40.792   9.756   7.055
 9295POPC   C4A48378  40.798   9.753   7.355
 9295POPC   C1B48379  40.663   9.916   6.455
 9295POPC   C2B48380  40.647   9.919   6.755
 9295POPC   C3B48381  40.603   9.915   7.055
 9295POPC   C4B48382  40.656   9.938   7.355
 9296POPC   NC348383  15.963   5.075   5.555
 9296POPC   PO448384  15.983   5.118   5.855
 9296POPC   GL148385  15.963   5.109   6.155
 9296POPC   GL248386  15.861   5.100   6.155
 9296POPC   C1A48387  15.908   5.097   6.455
 9296POPC   D2A48388  15.986   5.084   6.755
 9296POPC   C3A48389  15.930   5.069   7.055
 9296POPC   C4A48390  15.924   5.063   7.355
 9296POPC   C1B48391  15.750   5.136   6.455
 9296POPC   C2B48392  15.730   5.122   6.755
 9296POPC   C3B48393  15.716   5.139   7.055
 9296POPC   C4B48394  15.722   5.051   7.355
 9297POPC   NC348395   8.186   3.587   5.555
 9297POPC   PO448396   8.155   3.521   5.855
 9297POPC   GL148397   8.239   3.515   6.155
 9297POPC   GL248398   8.284   3.526   6.155
 9297POPC   C1A48399   8.182   3.529   6.455
 9297POPC   D2A48400   8.207   3.560   6.755
 9297POPC   C3A48401   8.237   3.511   7.055
 9297POPC   C4A48402   8.227   3.495   7.355
 9297POPC   C1B48403   8.454   3.501   6.455
 9297POPC   C2B48404   8.434   3.498   6.755
 9297POPC   C3B48405   8.482   3.532   7.055
 9297POPC   C4B48406   8.443   3.478   7.355
 9298POPC   NC348407  29.914   7.383   5.555
 9298POPC   PO448408  29.931   7.423   5.855
 9298POPC   GL148409  29.928   7.454   6.155
 9298POPC   GL248410  29.921   7.310   6.155
 9298POPC   C1A48411  29.931   7.426   6.455
 9298POPC   D2A48412  29.892   7.432   6.755
 9298POPC   C3A48413  29.900   7.398   7.055
 9298POPC   C4A48414  29.968   7.407   7.355
 9298POPC   C1B48415  29.943   7.182   6.455
 9298POPC   C2B48416  29.945   7.164   6.755
 9298POPC   C3B48417  29.932   7.222   7.055
 9298POPC   C4B48418  29.940   7.148   7.355
 9299POPC   NC348419  40.042  19.077   5.555
 9299POPC   PO448420  40.036  19.033   5.855
 9299POPC   GL148421  39.958  19.029   6.155
 9299POPC   GL248422  40.098  18.998   6.155
 9299POPC   C1A48423  40.003  19.053   6.455
 9299POPC   D2A48424  40.021  19.023   6.755
 9299POPC   C3A48425  40.017  19.097   7.055
 9299POPC   C4A48426  39.966  19.032   7.355
 9299POPC   C1B48427  40.146  18.872   6.455
 9299POPC   C2B48428  40.196  18.846   6.755
 9299POPC   C3B48429  40.167  18.929   7.055
 9299POPC   C4B48430  40.227  18.890   7.355
 9300POPC   NC348431  30.718  35.342   5.555
 9300POPC   PO448432  30.734  35.384   5.855
 9300POPC   GL148433  30.658  35.351   6.155
 9300POPC   GL248434  30.689  35.264   6.155
 9300POPC   C1A48435  30.709  35.376   6.455
 9300POPC   D2A48436  30.663  35.374   6.755
 9300POPC   C3A48437  30.708  35.396   7.055
 9300POPC   C4A48438  30.733  35.326   7.355
 9300POPC   C1B48439  30.787  35.076   6.455
 9300POPC   C2B48440  30.691  35.129   6.755
 9300POPC   C3B48441  30.696  35.088   7.055
 9300POPC   C4B48442  30.760  35.071   7.355
 9301POPC   NC348443  13.594  34.539   5.555
 9301POPC   PO448444  13.645  34.568   5.855
 9301POPC   GL148445  13.666  34.534   6.155
 9301POPC   GL248446  13.773  34.552   6.155
 9301POPC   C1A48447  13.633  34.588   6.455
 9301POPC   D2A48448  13.647  34.568   6.755
 9301POPC   C3A48449  13.579  34.615   7.055
 9301POPC   C4A48450  13.659  34.552   7.355
 9301POPC   C1B48451  13.882  34.498   6.455
 9301POPC   C2B48452  13.875  34.488   6.755
 9301POPC   C3B48453  13.912  34.458   7.055
 9301POPC   C4B48454  13.827  34.543   7.355
 9302POPC   NC348455   5.847  43.866   5.555
 9302POPC   PO448456   5.828  43.901   5.855
 9302POPC   GL148457   5.843  43.849   6.155
 9302POPC   GL248458   5.951  43.772   6.155
 9302POPC   C1A48459   5.883  43.872   6.455
 9302POPC   D2A48460   5.866  43.855   6.755
 9302POPC   C3A48461   5.847  43.850   7.055
 9302POPC   C4A48462   5.861  43.860   7.355
 9302POPC   C1B48463   6.057  43.765   6.455
 9302POPC   C2B48464   6.064  43.785   6.755
 9302POPC   C3B48465   6.101  43.773   7.055
 9302POPC   C4B48466   6.082  43.729   7.355
 9303POPC   NC348467   2.745  36.153   5.555
 9303POPC   PO448468   2.766  36.080   5.855
 9303POPC   GL148469   2.742  36.097   6.155
 9303POPC   GL248470   2.778  36.253   6.155
 9303POPC   C1A48471   2.794  36.091   6.455
 9303POPC   D2A48472   2.755  36.096   6.755
 9303POPC   C3A48473   2.748  36.175   7.055
 9303POPC   C4A48474   2.725  36.165   7.355
 9303POPC   C1B48475   2.807  36.372   6.455
 9303POPC   C2B48476   2.862  36.348   6.755
 9303POPC   C3B48477   2.779  36.402   7.055
 9303POPC   C4B48478   2.863  36.373   7.355
 9304POPC   NC348479   8.197  32.288   5.555
 9304POPC   PO448480   8.199  32.294   5.855
 9304POPC   GL148481   8.227  32.249   6.155
 9304POPC   GL248482   8.323  32.322   6.155
 9304POPC   C1A48483   8.231  32.215   6.455
 9304POPC   D2A48484   8.243  32.294   6.755
 9304POPC   C3A48485   8.189  32.273   7.055
 9304POPC   C4A48486   8.177  32.210   7.355
 9304POPC   C1B48487   8.404  32.360   6.455
 9304POPC   C2B48488   8.434  32.358   6.755
 9304POPC   C3B48489   8.462  32.349   7.055
 9304POPC   C4B48490   8.441  32.376   7.355
 9305POPC   NC348491  19.876  13.643   5.555
 9305POPC   PO448492  19.868  13.655   5.855
 9305POPC   GL148493  19.846  13.652   6.155
 9305POPC   GL248494  19.832  13.723   6.155
 9305POPC   C1A48495  19.794  13.585   6.455
 9305POPC   D2A48496  19.790  13.648   6.755
 9305POPC   C3A48497  19.786  13.625   7.055
 9305POPC   C4A48498  19.882  13.640   7.355
 9305POPC   C1B48499  19.888  13.874   6.455
 9305POPC   C2B48500  19.960  13.915   6.755
 9305POPC   C3B48501  19.867  13.838   7.055
 9305POPC   C4B48502  19.930  13.816   7.355
 9306POPC   NC348503  36.885   1.954   5.555
 9306POPC   PO448504  36.860   1.986   5.855
 9306POPC   GL148505  36.901   1.977   6.155
 9306POPC   GL248506  36.975   2.077   6.155
 9306POPC   C1A48507  36.900   2.000   6.455
 9306POPC   D2A48508  36.897   2.010   6.755
 9306POPC   C3A48509  36.930   1.968   7.055
 9306POPC   C4A48510  36.907   2.029   7.355
 9306POPC   C1B48511  37.059   2.229   6.455
 9306POPC   C2B48512  37.017   2.171   6.755
 9306POPC   C3B48513  37.063   2.179   7.055
 9306POPC   C4B48514  37.038   2.153   7.355
 9307POPC   NC348515  29.116   6.687   5.555
 9307POPC   PO448516  29.156   6.669   5.855
 9307POPC   GL148517  29.155   6.599   6.155
 9307POPC   GL248518  29.311   6.663   6.155
 9307POPC   C1A48519  29.097   6.675   6.455
 9307POPC   D2A48520  29.155   6.658   6.755
 9307POPC   C3A48521  29.158   6.678   7.055
 9307POPC   C4A48522  29.178   6.606   7.355
 9307POPC   C1B48523  29.352   6.556   6.455
 9307POPC   C2B48524  29.383   6.584   6.755
 9307POPC   C3B48525  29.388   6.619   7.055
 9307POPC   C4B48526  29.346   6.567   7.355
 9308POPC   NC348527  14.441  22.135   5.555
 9308POPC   PO448528  14.365  22.112   5.855
 9308POPC   GL148529  14.444  22.175   6.155
 9308POPC   GL248530  14.488  22.206   6.155
 9308POPC   C1A48531  14.423  22.143   6.455
 9308POPC   D2A48532  14.412  22.166   6.755
 9308POPC   C3A48533  14.442  22.135   7.055
 9308POPC   C4A48534  14.406  22.113   7.355
 9308POPC   C1B48535  14.610  22.232   6.455
 9308POPC   C2B48536  14.691  22.210   6.755
 9308POPC   C3B48537  14.617  22.183   7.055
 9308POPC   C4B48538  14.625  22.204   7.355
 9309POPC   NC348539  15.998  19.833   5.555
 9309POPC   PO448540  15.915  19.875   5.855
 9309POPC   GL148541  15.947  19.844   6.155
 9309POPC   GL248542  16.049  19.929   6.155
 9309POPC   C1A48543  15.947  19.845   6.455
 9309POPC   D2A48544  15.935  19.855   6.755
 9309POPC   C3A48545  15.965  19.829   7.055
 9309POPC   C4A48546  15.941  19.840   7.355
 9309POPC   C1B48547  16.182  19.945   6.455
 9309POPC   C2B48548  16.161  19.963   6.755
 9309POPC   C3B48549  16.178  19.960   7.055
 9309POPC   C4B48550  16.207  19.954   7.355
 9310POPC   NC348551  43.121   5.053   5.555
 9310POPC   PO448552  43.133   5.064   5.855
 9310POPC   GL148553  43.103   5.097   6.155
 9310POPC   GL248554  43.220   5.024   6.155
 9310POPC   C1A48555  43.075   5.068   6.455
 9310POPC   D2A48556  43.081   5.049   6.755
 9310POPC   C3A48557  43.156   5.092   7.055
 9310POPC   C4A48558  43.106   5.118   7.355
 9310POPC   C1B48559  43.266   4.911   6.455
 9310POPC   C2B48560  43.243   4.941   6.755
 9310POPC   C3B48561  43.280   4.873   7.055
 9310POPC   C4B48562  43.333   4.864   7.355
 9311POPC   NC348563  33.826  31.514   5.555
 9311POPC   PO448564  33.761  31.446   5.855
 9311POPC   GL148565  33.834  31.489   6.155
 9311POPC   GL248566  33.667  31.427   6.155
 9311POPC   C1A48567  33.835  31.430   6.455
 9311POPC   D2A48568  33.771  31.488   6.755
 9311POPC   C3A48569  33.842  31.437   7.055
 9311POPC   C4A48570  33.803  31.515   7.355
 9311POPC   C1B48571  33.551  31.367   6.455
 9311POPC   C2B48572  33.531  31.340   6.755
 9311POPC   C3B48573  33.571  31.362   7.055
 9311POPC   C4B48574  33.574  31.369   7.355
 9312POPC   NC348575  19.882   1.197   5.555
 9312POPC   PO448576  19.785   1.171   5.855
 9312POPC   GL148577  19.798   1.188   6.155
 9312POPC   GL248578  19.837   1.292   6.155
 9312POPC   C1A48579  19.859   1.201   6.455
 9312POPC   D2A48580  19.813   1.223   6.755
 9312POPC   C3A48581  19.883   1.210   7.055
 9312POPC   C4A48582  19.823   1.232   7.355
 9312POPC   C1B48583  19.903   1.436   6.455
 9312POPC   C2B48584  19.854   1.477   6.755
 9312POPC   C3B48585  19.920   1.504   7.055
 9312POPC   C4B48586  19.859   1.426   7.355
 9313POPC   NC348587  36.116  11.332   5.555
 9313POPC   PO448588  36.144  11.259   5.855
 9313POPC   GL148589  36.101  11.316   6.155
 9313POPC   GL248590  36.142  11.223   6.155
 9313POPC   C1A48591  36.147  11.253   6.455
 9313POPC   D2A48592  36.140  11.273   6.755
 9313POPC   C3A48593  36.128  11.284   7.055
 9313POPC   C4A48594  36.139  11.252   7.355
 9313POPC   C1B48595  36.181  11.081   6.455
 9313POPC   C2B48596  36.140  11.012   6.755
 9313POPC   C3B48597  36.125  11.051   7.055
 9313POPC   C4B48598  36.208  11.030   7.355
 9314POPC   NC348599  12.123  42.341   5.555
 9314POPC   PO448600  12.032  42.377   5.855
 9314POPC   GL148601  12.046  42.354   6.155
 9314POPC   GL248602  11.986  42.236   6.155
 9314POPC   C1A48603  12.114  42.368   6.455
 9314POPC   D2A48604  12.040  42.319   6.755
 9314POPC   C3A48605  12.105  42.353   7.055
 9314POPC   C4A48606  12.096  42.340   7.355
 9314POPC   C1B48607  11.940  42.121   6.455
 9314POPC   C2B48608  11.968  42.074   6.755
 9314POPC   C3B48609  11.920  42.122   7.055
 9314POPC   C4B48610  11.979  42.134   7.355
 9315POPC   NC348611  12.058  38.456   5.555
 9315POPC   PO448612  12.110  38.483   5.855
 9315POPC   GL148613  12.026  38.479   6.155
 9315POPC   GL248614  12.135  38.551   6.155
 9315POPC   C1A48615  12.074  38.495   6.455
 9315POPC   D2A48616  12.065  38.484   6.755
 9315POPC   C3A48617  12.061  38.489   7.055
 9315POPC   C4A48618  12.059  38.407   7.355
 9315POPC   C1B48619  12.160  38.732   6.455
 9315POPC   C2B48620  12.176  38.669   6.755
 9315POPC   C3B48621  12.154  38.673   7.055
 9315POPC   C4B48622  12.151  38.707   7.355
 9316POPC   NC348623  30.702  36.078   5.555
 9316POPC   PO448624  30.670  36.106   5.855
 9316POPC   GL148625  30.719  36.083   6.155
 9316POPC   GL248626  30.607  36.212   6.155
 9316POPC   C1A48627  30.678  36.159   6.455
 9316POPC   D2A48628  30.694  36.155   6.755
 9316POPC   C3A48629  30.668  36.102   7.055
 9316POPC   C4A48630  30.680  36.162   7.355
 9316POPC   C1B48631  30.470  36.309   6.455
 9316POPC   C2B48632  30.469  36.249   6.755
 9316POPC   C3B48633  30.491  36.307   7.055
 9316POPC   C4B48634  30.477  36.237   7.355
 9317POPC   NC348635  16.730   3.548   5.555
 9317POPC   PO448636  16.775   3.559   5.855
 9317POPC   GL148637  16.769   3.501   6.155
 9317POPC   GL248638  16.693   3.414   6.155
 9317POPC   C1A48639  16.694   3.498   6.455
 9317POPC   D2A48640  16.714   3.493   6.755
 9317POPC   C3A48641  16.717   3.522   7.055
 9317POPC   C4A48642  16.736   3.528   7.355
 9317POPC   C1B48643  16.599   3.356   6.455
 9317POPC   C2B48644  16.577   3.403   6.755
 9317POPC   C3B48645  16.583   3.353   7.055
 9317POPC   C4B48646  16.549   3.387   7.355
 9318POPC   NC348647  34.611   8.184   5.555
 9318POPC   PO448648  34.606   8.155   5.855
 9318POPC   GL148649  34.532   8.149   6.155
 9318POPC   GL248650  34.587   8.037   6.155
 9318POPC   C1A48651  34.535   8.163   6.455
 9318POPC   D2A48652  34.535   8.215   6.755
 9318POPC   C3A48653  34.555   8.238   7.055
 9318POPC   C4A48654  34.594   8.241   7.355
 9318POPC   C1B48655  34.566   7.924   6.455
 9318POPC   C2B48656  34.608   7.977   6.755
 9318POPC   C3B48657  34.577   7.947   7.055
 9318POPC   C4B48658  34.647   7.909   7.355
 9319POPC   NC348659  39.279  36.918   5.555
 9319POPC   PO448660  39.201  36.882   5.855
 9319POPC   GL148661  39.195  36.910   6.155
 9319POPC   GL248662  39.273  36.808   6.155
 9319POPC   C1A48663  39.234  36.950   6.455
 9319POPC   D2A48664  39.195  36.925   6.755
 9319POPC   C3A48665  39.269  36.952   7.055
 9319POPC   C4A48666  39.269  36.945   7.355
 9319POPC   C1B48667  39.275  36.705   6.455
 9319POPC   C2B48668  39.226  36.703   6.755
 9319POPC   C3B48669  39.277  36.669   7.055
 9319POPC   C4B48670  39.241  36.659   7.355
 9320POPC   NC348671   9.700  34.594   5.555
 9320POPC   PO448672   9.726  34.556   5.855
 9320POPC   GL148673   9.735  34.604   6.155
 9320POPC   GL248674   9.738  34.430   6.155
 9320POPC   C1A48675   9.772  34.554   6.455
 9320POPC   D2A48676   9.787  34.530   6.755
 9320POPC   C3A48677   9.747  34.610   7.055
 9320POPC   C4A48678   9.712  34.614   7.355
 9320POPC   C1B48679   9.831  34.299   6.455
 9320POPC   C2B48680   9.821  34.313   6.755
 9320POPC   C3B48681   9.793  34.378   7.055
 9320POPC   C4B48682   9.774  34.360   7.355
 9321POPC   NC348683  21.431   5.878   5.555
 9321POPC   PO448684  21.412   5.841   5.855
 9321POPC   GL148685  21.421   5.867   6.155
 9321POPC   GL248686  21.282   5.820   6.155
 9321POPC   C1A48687  21.436   5.842   6.455
 9321POPC   D2A48688  21.342   5.841   6.755
 9321POPC   C3A48689  21.337   5.889   7.055
 9321POPC   C4A48690  21.411   5.909   7.355
 9321POPC   C1B48691  21.134   5.770   6.455
 9321POPC   C2B48692  21.157   5.861   6.755
 9321POPC   C3B48693  21.137   5.820   7.055
 9321POPC   C4B48694  21.170   5.860   7.355
 9322POPC   NC348695  12.816  41.536   5.555
 9322POPC   PO448696  12.889  41.579   5.855
 9322POPC   GL148697  12.847  41.541   6.155
 9322POPC   GL248698  12.948  41.545   6.155
 9322POPC   C1A48699  12.877  41.534   6.455
 9322POPC   D2A48700  12.859  41.511   6.755
 9322POPC   C3A48701  12.840  41.595   7.055
 9322POPC   C4A48702  12.898  41.537   7.355
 9322POPC   C1B48703  13.082  41.552   6.455
 9322POPC   C2B48704  13.135  41.570   6.755
 9322POPC   C3B48705  13.075  41.510   7.055
 9322POPC   C4B48706  13.075  41.500   7.355
 9323POPC   NC348707  33.066   8.149   5.555
 9323POPC   PO448708  33.006   8.231   5.855
 9323POPC   GL148709  32.993   8.228   6.155
 9323POPC   GL248710  32.876   8.106   6.155
 9323POPC   C1A48711  32.978   8.190   6.455
 9323POPC   D2A48712  33.055   8.165   6.755
 9323POPC   C3A48713  33.044   8.180   7.055
 9323POPC   C4A48714  33.070   8.165   7.355
 9323POPC   C1B48715  32.842   8.102   6.455
 9323POPC   C2B48716  32.842   8.107   6.755
 9323POPC   C3B48717  32.852   8.062   7.055
 9323POPC   C4B48718  32.845   8.083   7.355
 9324POPC   NC348719   8.933  20.612   5.555
 9324POPC   PO448720   9.016  20.600   5.855
 9324POPC   GL148721   8.947  20.599   6.155
 9324POPC   GL248722   8.878  20.770   6.155
 9324POPC   C1A48723   8.981  20.619   6.455
 9324POPC   D2A48724   8.944  20.570   6.755
 9324POPC   C3A48725   8.936  20.568   7.055
 9324POPC   C4A48726   8.945  20.636   7.355
 9324POPC   C1B48727   8.821  20.830   6.455
 9324POPC   C2B48728   8.830  20.789   6.755
 9324POPC   C3B48729   8.857  20.793   7.055
 9324POPC   C4B48730   8.889  20.796   7.355
 9325POPC   NC348731   0.445   5.053   5.555
 9325POPC   PO448732   0.396   5.125   5.855
 9325POPC   GL148733   0.396   5.090   6.155
 9325POPC   GL248734   0.440   5.248   6.155
 9325POPC   C1A48735   0.446   5.058   6.455
 9325POPC   D2A48736   0.470   5.050   6.755
 9325POPC   C3A48737   0.467   5.105   7.055
 9325POPC   C4A48738   0.395   5.058   7.355
 9325POPC   C1B48739   0.486   5.349   6.455
 9325POPC   C2B48740   0.423   5.347   6.755
 9325POPC   C3B48741   0.418   5.365   7.055
 9325POPC   C4B48742   0.457   5.293   7.355
 9326POPC   NC348743   4.272  39.273   5.555
 9326POPC   PO448744   4.333  39.254   5.855
 9326POPC   GL148745   4.364  39.251   6.155
 9326POPC   GL248746   4.259  39.100   6.155
 9326POPC   C1A48747   4.360  39.248   6.455
 9326POPC   D2A48748   4.319  39.255   6.755
 9326POPC   C3A48749   4.334  39.250   7.055
 9326POPC   C4A48750   4.361  39.216   7.355
 9326POPC   C1B48751   4.161  38.994   6.455
 9326POPC   C2B48752   4.148  39.038   6.755
 9326POPC   C3B48753   4.219  38.999   7.055
 9326POPC   C4B48754   4.147  39.065   7.355
 9327POPC   NC348755  42.341  19.062   5.555
 9327POPC   PO448756  42.334  19.076   5.855
 9327POPC   GL148757  42.316  19.024   6.155
 9327POPC   GL248758  42.201  19.130   6.155
 9327POPC   C1A48759  42.331  19.074   6.455
 9327POPC   D2A48760  42.296  19.033   6.755
 9327POPC   C3A48761  42.331  19.013   7.055
 9327POPC   C4A48762  42.361  19.037   7.355
 9327POPC   C1B48763  42.104  19.176   6.455
 9327POPC   C2B48764  42.085  19.178   6.755
 9327POPC   C3B48765  42.146  19.202   7.055
 9327POPC   C4B48766  42.110  19.225   7.355
 9328POPC   NC348767  36.096  26.771   5.555
 9328POPC   PO448768  36.163  26.775   5.855
 9328POPC   GL148769  36.138  26.859   6.155
 9328POPC   GL248770  36.074  26.954   6.155
 9328POPC   C1A48771  36.128  26.788   6.455
 9328POPC   D2A48772  36.159  26.846   6.755
 9328POPC   C3A48773  36.157  26.864   7.055
 9328POPC   C4A48774  36.162  26.783   7.355
 9328POPC   C1B48775  36.021  27.016   6.455
 9328POPC   C2B48776  36.076  27.042   6.755
 9328POPC   C3B48777  36.004  27.050   7.055
 9328POPC   C4B48778  36.069  27.025   7.355
 9329POPC   NC348779  11.323  44.703   5.555
 9329POPC   PO448780  11.259  44.613   5.855
 9329POPC   GL148781  11.278  44.700   6.155
 9329POPC   GL248782  11.235  44.772   6.155
 9329POPC   C1A48783  11.311  44.617   6.455
 9329POPC   D2A48784  11.292  44.702   6.755
 9329POPC   C3A48785  11.328  44.637   7.055
 9329POPC   C4A48786  11.315  44.634   7.355
 9329POPC   C1B48787  11.262  44.944   6.455
 9329POPC   C2B48788  11.249  44.926   6.755
 9329POPC   C3B48789  11.263  44.921   7.055
 9329POPC   C4B48790  11.284  44.903   7.355
 9330POPC   NC348791  42.379   7.384   5.555
 9330POPC   PO448792  42.377   7.398   5.855
 9330POPC   GL148793  42.290   7.461   6.155
 9330POPC   GL248794  42.289   7.503   6.155
 9330POPC   C1A48795  42.383   7.382   6.455
 9330POPC   D2A48796  42.367   7.444   6.755
 9330POPC   C3A48797  42.290   7.398   7.055
 9330POPC   C4A48798  42.332   7.388   7.355
 9330POPC   C1B48799  42.269   7.628   6.455
 9330POPC   C2B48800  42.278   7.706   6.755
 9330POPC   C3B48801  42.295   7.663   7.055
 9330POPC   C4B48802  42.252   7.637   7.355
 9331POPC   NC348803  34.545  33.847   5.555
 9331POPC   PO448804  34.584  33.763   5.855
 9331POPC   GL148805  34.606  33.778   6.155
 9331POPC   GL248806  34.572  33.873   6.155
 9331POPC   C1A48807  34.557  33.766   6.455
 9331POPC   D2A48808  34.569  33.794   6.755
 9331POPC   C3A48809  34.610  33.832   7.055
 9331POPC   C4A48810  34.557  33.792   7.355
 9331POPC   C1B48811  34.671  34.032   6.455
 9331POPC   C2B48812  34.641  34.012   6.755
 9331POPC   C3B48813  34.630  34.027   7.055
 9331POPC   C4B48814  34.623  34.053   7.355
 9332POPC   NC348815  41.523   1.240   5.555
 9332POPC   PO448816  41.554   1.178   5.855
 9332POPC   GL148817  41.597   1.176   6.155
 9332POPC   GL248818  41.733   1.227   6.155
 9332POPC   C1A48819  41.596   1.204   6.455
 9332POPC   D2A48820  41.544   1.175   6.755
 9332POPC   C3A48821  41.535   1.233   7.055
 9332POPC   C4A48822  41.515   1.191   7.355
 9332POPC   C1B48823  41.771   1.229   6.455
 9332POPC   C2B48824  41.791   1.171   6.755
 9332POPC   C3B48825  41.801   1.186   7.055
 9332POPC   C4B48826  41.814   1.195   7.355
 9333POPC   NC348827  27.577   4.318   5.555
 9333POPC   PO448828  27.577   4.287   5.855
 9333POPC   GL148829  27.639   4.303   6.155
 9333POPC   GL248830  27.693   4.461   6.155
 9333POPC   C1A48831  27.612   4.329   6.455
 9333POPC   D2A48832  27.620   4.275   6.755
 9333POPC   C3A48833  27.614   4.309   7.055
 9333POPC   C4A48834  27.584   4.293   7.355
 9333POPC   C1B48835  27.713   4.467   6.455
 9333POPC   C2B48836  27.787   4.546   6.755
 9333POPC   C3B48837  27.724   4.507   7.055
 9333POPC   C4B48838  27.726   4.507   7.355
 9334POPC   NC348839   2.012  28.370   5.555
 9334POPC   PO448840   1.958  28.378   5.855
 9334POPC   GL148841   1.954  28.373   6.155
 9334POPC   GL248842   1.854  28.317   6.155
 9334POPC   C1A48843   1.940  28.360   6.455
 9334POPC   D2A48844   2.017  28.334   6.755
 9334POPC   C3A48845   1.964  28.336   7.055
 9334POPC   C4A48846   1.990  28.418   7.355
 9334POPC   C1B48847   1.786  28.157   6.455
 9334POPC   C2B48848   1.774  28.209   6.755
 9334POPC   C3B48849   1.770  28.200   7.055
 9334POPC   C4B48850   1.798  28.174   7.355
 9335POPC   NC348851  32.251  35.373   5.555
 9335POPC   PO448852  32.235  35.311   5.855
 9335POPC   GL148853  32.272  35.392   6.155
 9335POPC   GL248854  32.350  35.291   6.155
 9335POPC   C1A48855  32.296  35.341   6.455
 9335POPC   D2A48856  32.255  35.319   6.755
 9335POPC   C3A48857  32.253  35.315   7.055
 9335POPC   C4A48858  32.224  35.393   7.355
 9335POPC   C1B48859  32.476  35.280   6.455
 9335POPC   C2B48860  32.518  35.236   6.755
 9335POPC   C3B48861  32.502  35.240   7.055
 9335POPC   C4B48862  32.466  35.236   7.355
 9336POPC   NC348863  20.579  32.231   5.555
 9336POPC   PO448864  20.648  32.232   5.855
 9336POPC   GL148865  20.616  32.244   6.155
 9336POPC   GL248866  20.775  32.319   6.155
 9336POPC   C1A48867  20.567  32.214   6.455
 9336POPC   D2A48868  20.569  32.290   6.755
 9336POPC   C3A48869  20.627  32.291   7.055
 9336POPC   C4A48870  20.599  32.223   7.355
 9336POPC   C1B48871  20.884  32.337   6.455
 9336POPC   C2B48872  20.893  32.366   6.755
 9336POPC   C3B48873  20.892  32.300   7.055
 9336POPC   C4B48874  20.801  32.282   7.355
 9337POPC   NC348875  16.725   5.823   5.555
 9337POPC   PO448876  16.720   5.887   5.855
 9337POPC   GL148877  16.725   5.871   6.155
 9337POPC   GL248878  16.580   5.835   6.155
 9337POPC   C1A48879  16.690   5.868   6.455
 9337POPC   D2A48880  16.761   5.899   6.755
 9337POPC   C3A48881  16.719   5.855   7.055
 9337POPC   C4A48882  16.763   5.913   7.355
 9337POPC   C1B48883  16.551   5.723   6.455
 9337POPC   C2B48884  16.551   5.689   6.755
 9337POPC   C3B48885  16.506   5.781   7.055
 9337POPC   C4B48886  16.516   5.691   7.355
 9338POPC   NC348887  32.998  30.655   5.555
 9338POPC   PO448888  33.013  30.664   5.855
 9338POPC   GL148889  33.067  30.648   6.155
 9338POPC   GL248890  33.134  30.710   6.155
 9338POPC   C1A48891  33.004  30.658   6.455
 9338POPC   D2A48892  33.010  30.680   6.755
 9338POPC   C3A48893  32.976  30.716   7.055
 9338POPC   C4A48894  33.025  30.675   7.355
 9338POPC   C1B48895  33.296  30.629   6.455
 9338POPC   C2B48896  33.259  30.625   6.755
 9338POPC   C3B48897  33.242  30.655   7.055
 9338POPC   C4B48898  33.264  30.664   7.355
 9339POPC   NC348899  32.287  11.321   5.555
 9339POPC   PO448900  32.259  11.328   5.855
 9339POPC   GL148901  32.244  11.311   6.155
 9339POPC   GL248902  32.180  11.142   6.155
 9339POPC   C1A48903  32.248  11.312   6.455
 9339POPC   D2A48904  32.217  11.348   6.755
 9339POPC   C3A48905  32.201  11.350   7.055
 9339POPC   C4A48906  32.200  11.280   7.355
 9339POPC   C1B48907  32.134  11.082   6.455
 9339POPC   C2B48908  32.184  11.027   6.755
 9339POPC   C3B48909  32.214  11.107   7.055
 9339POPC   C4B48910  32.214  11.106   7.355
 9340POPC   NC348911  36.114   1.211   5.555
 9340POPC   PO448912  36.172   1.231   5.855
 9340POPC   GL148913  36.163   1.241   6.155
 9340POPC   GL248914  36.277   1.171   6.155
 9340POPC   C1A48915  36.097   1.180   6.455
 9340POPC   D2A48916  36.162   1.207   6.755
 9340POPC   C3A48917  36.175   1.218   7.055
 9340POPC   C4A48918  36.086   1.212   7.355
 9340POPC   C1B48919  36.339   1.116   6.455
 9340POPC   C2B48920  36.382   1.186   6.755
 9340POPC   C3B48921  36.328   1.197   7.055
 9340POPC   C4B48922  36.392   1.181   7.355
 9341POPC   NC348923  29.161  11.325   5.555
 9341POPC   PO448924  29.143  11.342   5.855
 9341POPC   GL148925  29.178  11.281   6.155
 9341POPC   GL248926  29.184  11.385   6.155
 9341POPC   C1A48927  29.101  11.288   6.455
 9341POPC   D2A48928  29.160  11.286   6.755
 9341POPC   C3A48929  29.158  11.279   7.055
 9341POPC   C4A48930  29.112  11.349   7.355
 9341POPC   C1B48931  29.210  11.542   6.455
 9341POPC   C2B48932  29.215  11.519   6.755
 9341POPC   C3B48933  29.229  11.579   7.055
 9341POPC   C4B48934  29.183  11.500   7.355
 9342POPC   NC348935  18.326   6.655   5.555
 9342POPC   PO448936  18.308   6.695   5.855
 9342POPC   GL148937  18.306   6.661   6.155
 9342POPC   GL248938  18.203   6.582   6.155
 9342POPC   C1A48939  18.289   6.628   6.455
 9342POPC   D2A48940  18.267   6.687   6.755
 9342POPC   C3A48941  18.285   6.623   7.055
 9342POPC   C4A48942  18.333   6.604   7.355
 9342POPC   C1B48943  18.087   6.432   6.455
 9342POPC   C2B48944  18.064   6.492   6.755
 9342POPC   C3B48945  18.123   6.496   7.055
 9342POPC   C4B48946  18.093   6.483   7.355
 9343POPC   NC348947  34.602  15.938   5.555
 9343POPC   PO448948  34.618  15.919   5.855
 9343POPC   GL148949  34.609  15.921   6.155
 9343POPC   GL248950  34.658  15.982   6.155
 9343POPC   C1A48951  34.576  15.986   6.455
 9343POPC   D2A48952  34.603  15.998   6.755
 9343POPC   C3A48953  34.600  15.985   7.055
 9343POPC   C4A48954  34.598  15.922   7.355
 9343POPC   C1B48955  34.817  15.976   6.455
 9343POPC   C2B48956  34.833  15.949   6.755
 9343POPC   C3B48957  34.786  16.007   7.055
 9343POPC   C4B48958  34.799  15.940   7.355
 9344POPC   NC348959   9.713  10.548   5.555
 9344POPC   PO448960   9.767  10.506   5.855
 9344POPC   GL148961   9.711  10.514   6.155
 9344POPC   GL248962   9.882  10.529   6.155
 9344POPC   C1A48963   9.706  10.511   6.455
 9344POPC   D2A48964   9.753  10.549   6.755
 9344POPC   C3A48965   9.705  10.568   7.055
 9344POPC   C4A48966   9.797  10.523   7.355
 9344POPC   C1B48967  10.018  10.464   6.455
 9344POPC   C2B48968   9.958  10.466   6.755
 9344POPC   C3B48969   9.999  10.468   7.055
 9344POPC   C4B48970  10.037  10.506   7.355
 9345POPC   NC348971   2.786  33.850   5.555
 9345POPC   PO448972   2.717  33.831   5.855
 9345POPC   GL148973   2.791  33.849   6.155
 9345POPC   GL248974   2.844  33.682   6.155
 9345POPC   C1A48975   2.800  33.828   6.455
 9345POPC   D2A48976   2.741  33.794   6.755
 9345POPC   C3A48977   2.733  33.754   7.055
 9345POPC   C4A48978   2.740  33.840   7.355
 9345POPC   C1B48979   2.894  33.576   6.455
 9345POPC   C2B48980   2.907  33.605   6.755
 9345POPC   C3B48981   2.841  33.618   7.055
 9345POPC   C4B48982   2.907  33.629   7.355
 9346POPC   NC348983  22.170  16.718   5.555
 9346POPC   PO448984  22.158  16.687   5.855
 9346POPC   GL148985  22.186  16.685   6.155
 9346POPC   GL248986  22.313  16.664   6.155
 9346POPC   C1A48987  22.150  16.708   6.455
 9346POPC   D2A48988  22.189  16.690   6.755
 9346POPC   C3A48989  22.188  16.747   7.055
 9346POPC   C4A48990  22.152  16.739   7.355
 9346POPC   C1B48991  22.386  16.628   6.455
 9346POPC   C2B48992  22.395  16.599   6.755
 9346POPC   C3B48993  22.329  16.598   7.055
 9346POPC   C4B48994  22.413  16.641   7.355
 9347POPC   NC348995  43.897  43.145   5.555
 9347POPC   PO448996  43.893  43.131   5.855
 9347POPC   GL148997  43.919  43.135   6.155
 9347POPC   GL248998  43.867  43.211   6.155
 9347POPC   C1A48999  43.927  43.148   6.455
 9347POPC   D2A49000  43.873  43.124   6.755
 9347POPC   C3A49001  43.905  43.081   7.055
 9347POPC   C4A49002  43.929  43.077   7.355
 9347POPC   C1B49003  43.758  43.393   6.455
 9347POPC   C2B49004  43.778  43.299   6.755
 9347POPC   C3B49005  43.799  43.392   7.055
 9347POPC   C4B49006  43.783  43.328   7.355
 9348POPC   NC349007  35.376  27.606   5.555
 9348POPC   PO449008  35.331  27.623   5.855
 9348POPC   GL149009  35.342  27.627   6.155
 9348POPC   GL249010  35.203  27.597   6.155
 9348POPC   C1A49011  35.338  27.571   6.455
 9348POPC   D2A49012  35.357  27.602   6.755
 9348POPC   C3A49013  35.353  27.602   7.055
 9348POPC   C4A49014  35.394  27.610   7.355
 9348POPC   C1B49015  35.063  27.648   6.455
 9348POPC   C2B49016  35.131  27.667   6.755
 9348POPC   C3B49017  35.146  27.643   7.055
 9348POPC   C4B49018  35.101  27.636   7.355
 9349POPC   NC349019  34.592  44.700   5.555
 9349POPC   PO449020  34.616  44.668   5.855
 9349POPC   GL149021  34.569  44.688   6.155
 9349POPC   GL249022  34.627  44.547   6.155
 9349POPC   C1A49023  34.598  44.668   6.455
 9349POPC   D2A49024  34.534  44.693   6.755
 9349POPC   C3A49025  34.560  44.664   7.055
 9349POPC   C4A49026  34.621  44.707   7.355
 9349POPC   C1B49027  34.602  44.440   6.455
 9349POPC   C2B49028  34.614  44.438   6.755
 9349POPC   C3B49029  34.666  44.403   7.055
 9349POPC   C4B49030  34.601  44.457   7.355
 9350POPC   NC349031  40.736  26.814   5.555
 9350POPC   PO449032  40.765  26.803   5.855
 9350POPC   GL149033  40.746  26.840   6.155
 9350POPC   GL249034  40.623  26.831   6.155
 9350POPC   C1A49035  40.748  26.840   6.455
 9350POPC   D2A49036  40.815  26.848   6.755
 9350POPC   C3A49037  40.818  26.832   7.055
 9350POPC   C4A49038  40.766  26.790   7.355
 9350POPC   C1B49039  40.525  26.806   6.455
 9350POPC   C2B49040  40.567  26.837   6.755
 9350POPC   C3B49041  40.514  26.793   7.055
 9350POPC   C4B49042  40.492  26.858   7.355
 9351POPC   NC349043  31.485  29.963   5.555
 9351POPC   PO449044  31.427  29.926   5.855
 9351POPC   GL149045  31.441  29.917   6.155
 9351POPC   GL249046  31.518  29.779   6.155
 9351POPC   C1A49047  31.497  29.921   6.455
 9351POPC   D2A49048  31.455  29.885   6.755
 9351POPC   C3A49049  31.490  29.944   7.055
 9351POPC   C4A49050  31.444  29.902   7.355
 9351POPC   C1B49051  31.533  29.691   6.455
 9351POPC   C2B49052  31.571  29.732   6.755
 9351POPC   C3B49053  31.575  29.662   7.055
 9351POPC   C4B49054  31.602  29.664   7.355
 9352POPC   NC349055  35.379  29.144   5.555
 9352POPC   PO449056  35.366  29.189   5.855
 9352POPC   GL149057  35.318  29.139   6.155
 9352POPC   GL249058  35.287  29.183   6.155
 9352POPC   C1A49059  35.380  29.096   6.455
 9352POPC   D2A49060  35.320  29.142   6.755
 9352POPC   C3A49061  35.320  29.139   7.055
 9352POPC   C4A49062  35.348  29.144   7.355
 9352POPC   C1B49063  35.202  29.326   6.455
 9352POPC   C2B49064  35.152  29.309   6.755
 9352POPC   C3B49065  35.129  29.338   7.055
 9352POPC   C4B49066  35.185  29.353   7.355
 9353POPC   NC349067  43.136  31.494   5.555
 9353POPC   PO449068  43.096  31.504   5.855
 9353POPC   GL149069  43.096  31.463   6.155
 9353POPC   GL249070  42.999  31.509   6.155
 9353POPC   C1A49071  43.096  31.447   6.455
 9353POPC   D2A49072  43.117  31.463   6.755
 9353POPC   C3A49073  43.097  31.456   7.055
 9353POPC   C4A49074  43.137  31.462   7.355
 9353POPC   C1B49075  42.902  31.648   6.455
 9353POPC   C2B49076  42.920  31.577   6.755
 9353POPC   C3B49077  42.914  31.655   7.055
 9353POPC   C4B49078  42.939  31.600   7.355
 9354POPC   NC349079  33.048   5.894   5.555
 9354POPC   PO449080  33.020   5.831   5.855
 9354POPC   GL149081  33.040   5.895   6.155
 9354POPC   GL249082  32.954   5.783   6.155
 9354POPC   C1A49083  33.059   5.883   6.455
 9354POPC   D2A49084  33.051   5.831   6.755
 9354POPC   C3A49085  32.982   5.907   7.055
 9354POPC   C4A49086  33.059   5.908   7.355
 9354POPC   C1B49087  32.899   5.641   6.455
 9354POPC   C2B49088  32.973   5.624   6.755
 9354POPC   C3B49089  32.935   5.591   7.055
 9354POPC   C4B49090  32.993   5.606   7.355
 9355POPC   NC349091  33.017  29.943   5.555
 9355POPC   PO449092  33.074  29.957   5.855
 9355POPC   GL149093  33.028  29.967   6.155
 9355POPC   GL249094  33.155  30.001   6.155
 9355POPC   C1A49095  33.036  29.907   6.455
 9355POPC   D2A49096  33.032  29.969   6.755
 9355POPC   C3A49097  33.028  29.957   7.055
 9355POPC   C4A49098  33.028  29.944   7.355
 9355POPC   C1B49099  33.220  30.123   6.455
 9355POPC   C2B49100  33.188  30.093   6.755
 9355POPC   C3B49101  33.199  30.151   7.055
 9355POPC   C4B49102  33.241  30.120   7.355
 9356POPC   NC349103  22.142  30.666   5.555
 9356POPC   PO449104  22.165  30.699   5.855
 9356POPC   GL149105  22.185  30.694   6.155
 9356POPC   GL249106  22.009  30.712   6.155
 9356POPC   C1A49107  22.181  30.740   6.455
 9356POPC   D2A49108  22.211  30.710   6.755
 9356POPC   C3A49109  22.153  30.675   7.055
 9356POPC   C4A49110  22.145  30.687   7.355
 9356POPC   C1B49111  21.950  30.658   6.455
 9356POPC   C2B49112  21.933  30.733   6.755
 9356POPC   C3B49113  21.913  30.733   7.055
 9356POPC   C4B49114  21.870  30.743   7.355
 9357POPC   NC349115  13.578  22.204   5.555
 9357POPC   PO449116  13.623  22.154   5.855
 9357POPC   GL149117  13.607  22.179   6.155
 9357POPC   GL249118  13.604  22.323   6.155
 9357POPC   C1A49119  13.578  22.210   6.455
 9357POPC   D2A49120  13.604  22.155   6.755
 9357POPC   C3A49121  13.667  22.200   7.055
 9357POPC   C4A49122  13.650  22.134   7.355
 9357POPC   C1B49123  13.658  22.450   6.455
 9357POPC   C2B49124  13.642  22.417   6.755
 9357POPC   C3B49125  13.673  22.447   7.055
 9357POPC   C4B49126  13.631  22.433   7.355
 9358POPC   NC349127  17.511  12.058   5.555
 9358POPC   PO449128  17.479  12.043   5.855
 9358POPC   GL149129  17.537  12.086   6.155
 9358POPC   GL249130  17.520  12.213   6.155
 9358POPC   C1A49131  17.552  12.030   6.455
 9358POPC   D2A49132  17.522  12.061   6.755
 9358POPC   C3A49133  17.480  12.055   7.055
 9358POPC   C4A49134  17.544  12.074   7.355
 9358POPC   C1B49135  17.513  12.326   6.455
 9358POPC   C2B49136  17.518  12.374   6.755
 9358POPC   C3B49137  17.488  12.301   7.055
 9358POPC   C4B49138  17.539  12.303   7.355
 9359POPC   NC349139   1.183  15.149   5.555
 9359POPC   PO449140   1.176  15.165   5.855
 9359POPC   GL149141   1.203  15.175   6.155
 9359POPC   GL249142   1.293  15.244   6.155
 9359POPC   C1A49143   1.181  15.161   6.455
 9359POPC   D2A49144   1.209  15.205   6.755
 9359POPC   C3A49145   1.223  15.161   7.055
 9359POPC   C4A49146   1.197  15.175   7.355
 9359POPC   C1B49147   1.488  15.251   6.455
 9359POPC   C2B49148   1.463  15.299   6.755
 9359POPC   C3B49149   1.446  15.243   7.055
 9359POPC   C4B49150   1.402  15.334   7.355
 9360POPC   NC349151  36.901  13.589   5.555
 9360POPC   PO449152  36.871  13.601   5.855
 9360POPC   GL149153  36.854  13.604   6.155
 9360POPC   GL249154  36.739  13.632   6.155
 9360POPC   C1A49155  36.913  13.646   6.455
 9360POPC   D2A49156  36.860  13.604   6.755
 9360POPC   C3A49157  36.875  13.619   7.055
 9360POPC   C4A49158  36.934  13.624   7.355
 9360POPC   C1B49159  36.641  13.586   6.455
 9360POPC   C2B49160  36.699  13.659   6.755
 9360POPC   C3B49161  36.633  13.579   7.055
 9360POPC   C4B49162  36.685  13.625   7.355
 9361POPC   NC349163   7.396  20.601   5.555
 9361POPC   PO449164   7.459  20.648   5.855
 9361POPC   GL149165   7.397  20.577   6.155
 9361POPC   GL249166   7.343  20.557   6.155
 9361POPC   C1A49167   7.434  20.594   6.455
 9361POPC   D2A49168   7.460  20.657   6.755
 9361POPC   C3A49169   7.415  20.568   7.055
 9361POPC   C4A49170   7.432  20.575   7.355
 9361POPC   C1B49171   7.221  20.528   6.455
 9361POPC   C2B49172   7.210  20.491   6.755
 9361POPC   C3B49173   7.232  20.533   7.055
 9361POPC   C4B49174   7.184  20.568   7.355
 9362POPC   NC349175  40.028   2.005   5.555
 9362POPC   PO449176  39.976   1.964   5.855
 9362POPC   GL149177  40.014   2.004   6.155
 9362POPC   GL249178  40.059   1.937   6.155
 9362POPC   C1A49179  39.966   2.000   6.455
 9362POPC   D2A49180  39.997   1.960   6.755
 9362POPC   C3A49181  40.012   1.961   7.055
 9362POPC   C4A49182  39.974   1.993   7.355
 9362POPC   C1B49183  40.190   1.810   6.455
 9362POPC   C2B49184  40.180   1.825   6.755
 9362POPC   C3B49185  40.168   1.814   7.055
 9362POPC   C4B49186  40.181   1.805   7.355
 9363POPC   NC349187  29.102  17.461   5.555
 9363POPC   PO449188  29.181  17.545   5.855
 9363POPC   GL149189  29.118  17.459   6.155
 9363POPC   GL249190  29.046  17.614   6.155
 9363POPC   C1A49191  29.165  17.476   6.455
 9363POPC   D2A49192  29.124  17.462   6.755
 9363POPC   C3A49193  29.186  17.464   7.055
 9363POPC   C4A49194  29.104  17.519   7.355
 9363POPC   C1B49195  28.983  17.690   6.455
 9363POPC   C2B49196  28.978  17.648   6.755
 9363POPC   C3B49197  29.015  17.695   7.055
 9363POPC   C4B49198  28.947  17.690   7.355
 9364POPC   NC349199  29.959  14.357   5.555
 9364POPC   PO449200  29.944  14.416   5.855
 9364POPC   GL149201  29.894  14.370   6.155
 9364POPC   GL249202  29.758  14.314   6.155
 9364POPC   C1A49203  29.903  14.398   6.455
 9364POPC   D2A49204  29.944  14.439   6.755
 9364POPC   C3A49205  29.921  14.438   7.055
 9364POPC   C4A49206  29.900  14.428   7.355
 9364POPC   C1B49207  29.733  14.350   6.455
 9364POPC   C2B49208  29.679  14.356   6.755
 9364POPC   C3B49209  29.730  14.287   7.055
 9364POPC   C4B49210  29.642  14.355   7.355
 9365POPC   NC349211  33.060  26.788   5.555
 9365POPC   PO449212  32.982  26.791   5.855
 9365POPC   GL149213  33.071  26.811   6.155
 9365POPC   GL249214  33.091  26.965   6.155
 9365POPC   C1A49215  33.050  26.842   6.455
 9365POPC   D2A49216  33.020  26.823   6.755
 9365POPC   C3A49217  33.048  26.859   7.055
 9365POPC   C4A49218  32.982  26.826   7.355
 9365POPC   C1B49219  33.065  27.084   6.455
 9365POPC   C2B49220  33.112  27.055   6.755
 9365POPC   C3B49221  33.140  27.080   7.055
 9365POPC   C4B49222  33.113  27.028   7.355
 9366POPC   NC349223  13.601  30.723   5.555
 9366POPC   PO449224  13.591  30.692   5.855
 9366POPC   GL149225  13.616  30.658   6.155
 9366POPC   GL249226  13.657  30.572   6.155
 9366POPC   C1A49227  13.648  30.719   6.455
 9366POPC   D2A49228  13.638  30.651   6.755
 9366POPC   C3A49229  13.665  30.717   7.055
 9366POPC   C4A49230  13.643  30.675   7.355
 9366POPC   C1B49231  13.598  30.444   6.455
 9366POPC   C2B49232  13.605  30.427   6.755
 9366POPC   C3B49233  13.606  30.425   7.055
 9366POPC   C4B49234  13.570  30.439   7.355
 9367POPC   NC349235  15.908   3.556   5.555
 9367POPC   PO449236  15.939   3.574   5.855
 9367POPC   GL149237  15.983   3.503   6.155
 9367POPC   GL249238  16.036   3.638   6.155
 9367POPC   C1A49239  15.962   3.511   6.455
 9367POPC   D2A49240  15.931   3.565   6.755
 9367POPC   C3A49241  15.906   3.547   7.055
 9367POPC   C4A49242  15.943   3.514   7.355
 9367POPC   C1B49243  16.135   3.645   6.455
 9367POPC   C2B49244  16.164   3.653   6.755
 9367POPC   C3B49245  16.212   3.685   7.055
 9367POPC   C4B49246  16.143   3.652   7.355
 9368POPC   NC349247  29.898  15.164   5.555
 9368POPC   PO449248  29.924  15.206   5.855
 9368POPC   GL149249  29.906  15.160   6.155
 9368POPC   GL249250  29.810  15.214   6.155
 9368POPC   C1A49251  29.948  15.226   6.455
 9368POPC   D2A49252  29.899  15.153   6.755
 9368POPC   C3A49253  29.893  15.209   7.055
 9368POPC   C4A49254  29.961  15.184   7.355
 9368POPC   C1B49255  29.672  15.187   6.455
 9368POPC   C2B49256  29.657  15.280   6.755
 9368POPC   C3B49257  29.653  15.191   7.055
 9368POPC   C4B49258  29.708  15.234   7.355
 9369POPC   NC349259  44.674   5.918   5.555
 9369POPC   PO449260  44.649   5.828   5.855
 9369POPC   GL149261  44.685   5.865   6.155
 9369POPC   GL249262  44.531   5.794   6.155
 9369POPC   C1A49263  44.656   5.915   6.455
 9369POPC   D2A49264  44.618   5.884   6.755
 9369POPC   C3A49265  44.629   5.871   7.055
 9369POPC   C4A49266  44.706   5.883   7.355
 9369POPC   C1B49267  44.479   5.698   6.455
 9369POPC   C2B49268  44.444   5.727   6.755
 9369POPC   C3B49269  44.453   5.704   7.055
 9369POPC   C4B49270  44.416   5.699   7.355
 9370POPC   NC349271  31.521  44.619   5.555
 9370POPC   PO449272  31.498  44.705   5.855
 9370POPC   GL149273  31.459  44.675   6.155
 9370POPC   GL249274  31.533  44.566   6.155
 9370POPC   C1A49275  31.485  44.664   6.455
 9370POPC   D2A49276  31.434  44.707   6.755
 9370POPC   C3A49277  31.465  44.701   7.055
 9370POPC   C4A49278  31.515  44.630   7.355
 9370POPC   C1B49279  31.666  44.426   6.455
 9370POPC   C2B49280  31.636  44.486   6.755
 9370POPC   C3B49281  31.579  44.469   7.055
 9370POPC   C4B49282  31.667  44.496   7.355
 9371POPC   NC349283   8.988  33.783   5.555
 9371POPC   PO449284   9.019  33.804   5.855
 9371POPC   GL149285   8.938  33.827   6.155
 9371POPC   GL249286   8.863  33.876   6.155
 9371POPC   C1A49287   8.927  33.774   6.455
 9371POPC   D2A49288   8.957  33.832   6.755
 9371POPC   C3A49289   8.955  33.823   7.055
 9371POPC   C4A49290   8.977  33.844   7.355
 9371POPC   C1B49291   8.849  34.057   6.455
 9371POPC   C2B49292   8.886  33.984   6.755
 9371POPC   C3B49293   8.849  34.033   7.055
 9371POPC   C4B49294   8.874  34.060   7.355
 9372POPC   NC349295  17.477  13.641   5.555
 9372POPC   PO449296  17.552  13.632   5.855
 9372POPC   GL149297  17.537  13.635   6.155
 9372POPC   GL249298  17.516  13.753   6.155
 9372POPC   C1A49299  17.473  13.586   6.455
 9372POPC   D2A49300  17.504  13.617   6.755
 9372POPC   C3A49301  17.482  13.669   7.055
 9372POPC   C4A49302  17.541  13.581   7.355
 9372POPC   C1B49303  17.429  13.845   6.455
 9372POPC   C2B49304  17.435  13.880   6.755
 9372POPC   C3B49305  17.491  13.873   7.055
 9372POPC   C4B49306  17.510  13.844   7.355
 9373POPC   NC349307  25.307  19.051   5.555
 9373POPC   PO449308  25.216  19.052   5.855
 9373POPC   GL149309  25.245  19.026   6.155
 9373POPC   GL249310  25.284  19.153   6.155
 9373POPC   C1A49311  25.226  19.073   6.455
 9373POPC   D2A49312  25.264  19.108   6.755
 9373POPC   C3A49313  25.226  19.067   7.055
 9373POPC   C4A49314  25.231  19.041   7.355
 9373POPC   C1B49315  25.412  19.278   6.455
 9373POPC   C2B49316  25.396  19.244   6.755
 9373POPC   C3B49317  25.405  19.293   7.055
 9373POPC   C4B49318  25.341  19.314   7.355
 9374POPC   NC349319   8.184   9.018   5.555
 9374POPC   PO449320   8.174   9.011   5.855
 9374POPC   GL149321   8.242   8.965   6.155
 9374POPC   GL249322   8.203   8.844   6.155
 9374POPC   C1A49323   8.214   9.010   6.455
 9374POPC   D2A49324   8.200   8.950   6.755
 9374POPC   C3A49325   8.228   8.951   7.055
 9374POPC   C4A49326   8.209   8.985   7.355
 9374POPC   C1B49327   8.138   8.699   6.455
 9374POPC   C2B49328   8.139   8.736   6.755
 9374POPC   C3B49329   8.141   8.734   7.055
 9374POPC   C4B49330   8.146   8.705   7.355
 9375POPC   NC349331  41.539  17.497   5.555
 9375POPC   PO449332  41.531  17.495   5.855
 9375POPC   GL149333  41.519  17.503   6.155
 9375POPC   GL249334  41.502  17.672   6.155
 9375POPC   C1A49335  41.561  17.542   6.455
 9375POPC   D2A49336  41.603  17.518   6.755
 9375POPC   C3A49337  41.578  17.534   7.055
 9375POPC   C4A49338  41.581  17.464   7.355
 9375POPC   C1B49339  41.523  17.766   6.455
 9375POPC   C2B49340  41.431  17.784   6.755
 9375POPC   C3B49341  41.500  17.781   7.055
 9375POPC   C4B49342  41.461  17.714   7.355
 9376POPC   NC349343  13.661   2.811   5.555
 9376POPC   PO449344  13.664   2.788   5.855
 9376POPC   GL149345  13.647   2.772   6.155
 9376POPC   GL249346  13.611   2.919   6.155
 9376POPC   C1A49347  13.646   2.785   6.455
 9376POPC   D2A49348  13.620   2.776   6.755
 9376POPC   C3A49349  13.619   2.769   7.055
 9376POPC   C4A49350  13.636   2.750   7.355
 9376POPC   C1B49351  13.479   3.028   6.455
 9376POPC   C2B49352  13.501   2.981   6.755
 9376POPC   C3B49353  13.493   2.986   7.055
 9376POPC   C4B49354  13.493   2.991   7.355
 9377POPC   NC349355  12.088  26.061   5.555
 9377POPC   PO449356  12.083  26.017   5.855
 9377POPC   GL149357  12.124  26.014   6.155
 9377POPC   GL249358  12.180  25.992   6.155
 9377POPC   C1A49359  12.089  26.032   6.455
 9377POPC   D2A49360  12.118  26.058   6.755
 9377POPC   C3A49361  12.105  26.088   7.055
 9377POPC   C4A49362  12.107  26.036   7.355
 9377POPC   C1B49363  12.269  25.936   6.455
 9377POPC   C2B49364  12.284  25.937   6.755
 9377POPC   C3B49365  12.318  25.946   7.055
 9377POPC   C4B49366  12.282  25.965   7.355
 9378POPC   NC349367  13.615  29.166   5.555
 9378POPC   PO449368  13.591  29.099   5.855
 9378POPC   GL149369  13.603  29.173   6.155
 9378POPC   GL249370  13.719  29.223   6.155
 9378POPC   C1A49371  13.606  29.127   6.455
 9378POPC   D2A49372  13.646  29.118   6.755
 9378POPC   C3A49373  13.641  29.166   7.055
 9378POPC   C4A49374  13.579  29.141   7.355
 9378POPC   C1B49375  13.794  29.273   6.455
 9378POPC   C2B49376  13.833  29.330   6.755
 9378POPC   C3B49377  13.828  29.344   7.055
 9378POPC   C4B49378  13.761  29.342   7.355
 9379POPC   NC349379  22.196   2.798   5.555
 9379POPC   PO449380  22.209   2.776   5.855
 9379POPC   GL149381  22.167   2.724   6.155
 9379POPC   GL249382  22.088   2.908   6.155
 9379POPC   C1A49383  22.156   2.720   6.455
 9379POPC   D2A49384  22.160   2.716   6.755
 9379POPC   C3A49385  22.194   2.815   7.055
 9379POPC   C4A49386  22.211   2.772   7.355
 9379POPC   C1B49387  21.946   2.924   6.455
 9379POPC   C2B49388  22.031   2.973   6.755
 9379POPC   C3B49389  22.034   2.912   7.055
 9379POPC   C4B49390  22.014   2.987   7.355
 9380POPC   NC349391  23.696  12.037   5.555
 9380POPC   PO449392  23.753  12.089   5.855
 9380POPC   GL149393  23.749  12.045   6.155
 9380POPC   GL249394  23.642  11.983   6.155
 9380POPC   C1A49395  23.713  12.031   6.455
 9380POPC   D2A49396  23.731  12.067   6.755
 9380POPC   C3A49397  23.761  12.059   7.055
 9380POPC   C4A49398  23.730  12.098   7.355
 9380POPC   C1B49399  23.511  12.004   6.455
 9380POPC   C2B49400  23.477  12.016   6.755
 9380POPC   C3B49401  23.446  11.963   7.055
 9380POPC   C4B49402  23.486  12.026   7.355
 9381POPC   NC349403  40.800  15.197   5.555
 9381POPC   PO449404  40.764  15.158   5.855
 9381POPC   GL149405  40.784  15.193   6.155
 9381POPC   GL249406  40.817  15.283   6.155
 9381POPC   C1A49407  40.780  15.199   6.455
 9381POPC   D2A49408  40.809  15.170   6.755
 9381POPC   C3A49409  40.766  15.158   7.055
 9381POPC   C4A49410  40.739  15.211   7.355
 9381POPC   C1B49411  40.943  15.446   6.455
 9381POPC   C2B49412  40.946  15.382   6.755
 9381POPC   C3B49413  40.943  15.393   7.055
 9381POPC   C4B49414  40.942  15.375   7.355
 9382POPC   NC349415  40.802  39.208   5.555
 9382POPC   PO449416  40.733  39.224   5.855
 9382POPC   GL149417  40.813  39.254   6.155
 9382POPC   GL249418  40.674  39.295   6.155
 9382POPC   C1A49419  40.762  39.277   6.455
 9382POPC   D2A49420  40.742  39.208   6.755
 9382POPC   C3A49421  40.782  39.203   7.055
 9382POPC   C4A49422  40.768  39.250   7.355
 9382POPC   C1B49423  40.507  39.352   6.455
 9382POPC   C2B49424  40.518  39.285   6.755
 9382POPC   C3B49425  40.581  39.275   7.055
 9382POPC   C4B49426  40.513  39.318   7.355
 9383POPC   NC349427  40.814  19.843   5.555
 9383POPC   PO449428  40.736  19.792   5.855
 9383POPC   GL149429  40.783  19.881   6.155
 9383POPC   GL249430  40.679  19.681   6.155
 9383POPC   C1A49431  40.790  19.830   6.455
 9383POPC   D2A49432  40.805  19.877   6.755
 9383POPC   C3A49433  40.770  19.837   7.055
 9383POPC   C4A49434  40.756  19.849   7.355
 9383POPC   C1B49435  40.654  19.648   6.455
 9383POPC   C2B49436  40.636  19.590   6.755
 9383POPC   C3B49437  40.676  19.672   7.055
 9383POPC   C4B49438  40.663  19.595   7.355
 9384POPC   NC349439  36.102  39.269   5.555
 9384POPC   PO449440  36.080  39.229   5.855
 9384POPC   GL149441  36.090  39.270   6.155
 9384POPC   GL249442  35.973  39.238   6.155
 9384POPC   C1A49443  36.134  39.192   6.455
 9384POPC   D2A49444  36.120  39.185   6.755
 9384POPC   C3A49445  36.097  39.196   7.055
 9384POPC   C4A49446  36.092  39.232   7.355
 9384POPC   C1B49447  35.897  39.332   6.455
 9384POPC   C2B49448  35.915  39.290   6.755
 9384POPC   C3B49449  35.842  39.248   7.055
 9384POPC   C4B49450  35.842  39.284   7.355
 9385POPC   NC349451  22.986   1.177   5.555
 9385POPC   PO449452  22.968   1.247   5.855
 9385POPC   GL149453  22.952   1.196   6.155
 9385POPC   GL249454  23.018   1.282   6.155
 9385POPC   C1A49455  22.977   1.229   6.455
 9385POPC   D2A49456  22.976   1.219   6.755
 9385POPC   C3A49457  22.895   1.220   7.055
 9385POPC   C4A49458  22.891   1.225   7.355
 9385POPC   C1B49459  23.048   1.442   6.455
 9385POPC   C2B49460  23.075   1.396   6.755
 9385POPC   C3B49461  23.048   1.399   7.055
 9385POPC   C4B49462  23.052   1.453   7.355
 9386POPC   NC349463  10.561  26.014   5.555
 9386POPC   PO449464  10.496  26.070   5.855
 9386POPC   GL149465  10.540  26.076   6.155
 9386POPC   GL249466  10.543  26.151   6.155
 9386POPC   C1A49467  10.497  26.089   6.455
 9386POPC   D2A49468  10.533  26.027   6.755
 9386POPC   C3A49469  10.494  26.024   7.055
 9386POPC   C4A49470  10.573  26.004   7.355
 9386POPC   C1B49471  10.581  26.258   6.455
 9386POPC   C2B49472  10.568  26.326   6.755
 9386POPC   C3B49473  10.598  26.251   7.055
 9386POPC   C4B49474  10.527  26.271   7.355
 9387POPC   NC349475  44.679  29.891   5.555
 9387POPC   PO449476  44.670  29.947   5.855
 9387POPC   GL149477  44.712  29.937   6.155
 9387POPC   GL249478  44.792  29.959   6.155
 9387POPC   C1A49479  44.703  29.888   6.455
 9387POPC   D2A49480  44.681  29.954   6.755
 9387POPC   C3A49481  44.630  29.932   7.055
 9387POPC   C4A49482  44.633  29.888   7.355
 9387POPC   C1B49483  44.873  29.954   6.455
 9387POPC   C2B49484  44.895  29.876   6.755
 9387POPC   C3B49485  44.900  29.891   7.055
 9387POPC   C4B49486  44.914  29.892   7.355
 9388POPC   NC349487  36.133  43.866   5.555
 9388POPC   PO449488  36.102  43.859   5.855
 9388POPC   GL149489  36.150  43.852   6.155
 9388POPC   GL249490  36.030  43.856   6.155
 9388POPC   C1A49491  36.145  43.850   6.455
 9388POPC   D2A49492  36.163  43.909   6.755
 9388POPC   C3A49493  36.136  43.871   7.055
 9388POPC   C4A49494  36.171  43.892   7.355
 9388POPC   C1B49495  35.842  43.869   6.455
 9388POPC   C2B49496  35.919  43.852   6.755
 9388POPC   C3B49497  35.855  43.902   7.055
 9388POPC   C4B49498  35.898  43.844   7.355
 9389POPC   NC349499  19.058   6.614   5.555
 9389POPC   PO449500  19.067   6.624   5.855
 9389POPC   GL149501  19.057   6.690   6.155
 9389POPC   GL249502  18.981   6.689   6.155
 9389POPC   C1A49503  19.036   6.639   6.455
 9389POPC   D2A49504  19.062   6.669   6.755
 9389POPC   C3A49505  19.072   6.657   7.055
 9389POPC   C4A49506  19.019   6.614   7.355
 9389POPC   C1B49507  18.786   6.650   6.455
 9389POPC   C2B49508  18.830   6.645   6.755
 9389POPC   C3B49509  18.804   6.686   7.055
 9389POPC   C4B49510  18.855   6.671   7.355
 9390POPC   NC349511  11.310   0.394   5.555
 9390POPC   PO449512  11.260   0.436   5.855
 9390POPC   GL149513  11.344   0.478   6.155
 9390POPC   GL249514  11.263   0.351   6.155
 9390POPC   C1A49515  11.341   0.472   6.455
 9390POPC   D2A49516  11.328   0.485   6.755
 9390POPC   C3A49517  11.336   0.470   7.055
 9390POPC   C4A49518  11.302   0.389   7.355
 9390POPC   C1B49519  11.182   0.235   6.455
 9390POPC   C2B49520  11.226   0.200   6.755
 9390POPC   C3B49521  11.256   0.246   7.055
 9390POPC   C4B49522  11.198   0.222   7.355
 9391POPC   NC349523   7.384   7.452   5.555
 9391POPC   PO449524   7.421   7.414   5.855
 9391POPC   GL149525   7.437   7.413   6.155
 9391POPC   GL249526   7.447   7.526   6.155
 9391POPC   C1A49527   7.381   7.443   6.455
 9391POPC   D2A49528   7.406   7.457   6.755
 9391POPC   C3A49529   7.462   7.402   7.055
 9391POPC   C4A49530   7.373   7.449   7.355
 9391POPC   C1B49531   7.468   7.698   6.455
 9391POPC   C2B49532   7.464   7.696   6.755
 9391POPC   C3B49533   7.478   7.692   7.055
 9391POPC   C4B49534   7.496   7.645   7.355
 9392POPC   NC349535   5.126  41.544   5.555
 9392POPC   PO449536   5.141  41.600   5.855
 9392POPC   GL149537   5.056  41.606   6.155
 9392POPC   GL249538   5.154  41.621   6.155
 9392POPC   C1A49539   5.073  41.592   6.455
 9392POPC   D2A49540   5.085  41.533   6.755
 9392POPC   C3A49541   5.048  41.567   7.055
 9392POPC   C4A49542   5.137  41.603   7.355
 9392POPC   C1B49543   5.249  41.752   6.455
 9392POPC   C2B49544   5.218  41.703   6.755
 9392POPC   C3B49545   5.307  41.701   7.055
 9392POPC   C4B49546   5.309  41.724   7.355
 9393POPC   NC349547  40.801  43.115   5.555
 9393POPC   PO449548  40.795  43.079   5.855
 9393POPC   GL149549  40.753  43.133   6.155
 9393POPC   GL249550  40.886  43.102   6.155
 9393POPC   C1A49551  40.751  43.113   6.455
 9393POPC   D2A49552  40.740  43.097   6.755
 9393POPC   C3A49553  40.774  43.097   7.055
 9393POPC   C4A49554  40.783  43.086   7.355
 9393POPC   C1B49555  41.074  43.160   6.455
 9393POPC   C2B49556  41.028  43.171   6.755
 9393POPC   C3B49557  40.988  43.210   7.055
 9393POPC   C4B49558  41.001  43.160   7.355
 9394POPC   NC349559  18.240   5.126   5.555
 9394POPC   PO449560  18.245   5.110   5.855
 9394POPC   GL149561  18.329   5.130   6.155
 9394POPC   GL249562  18.161   5.218   6.155
 9394POPC   C1A49563  18.311   5.073   6.455
 9394POPC   D2A49564  18.307   5.135   6.755
 9394POPC   C3A49565  18.318   5.108   7.055
 9394POPC   C4A49566  18.313   5.076   7.355
 9394POPC   C1B49567  18.126   5.289   6.455
 9394POPC   C2B49568  18.093   5.215   6.755
 9394POPC   C3B49569  18.076   5.229   7.055
 9394POPC   C4B49570  18.069   5.240   7.355
 9395POPC   NC349571  10.476  36.855   5.555
 9395POPC   PO449572  10.548  36.922   5.855
 9395POPC   GL149573  10.490  36.876   6.155
 9395POPC   GL249574  10.693  36.833   6.155
 9395POPC   C1A49575  10.474  36.881   6.455
 9395POPC   D2A49576  10.549  36.905   6.755
 9395POPC   C3A49577  10.541  36.935   7.055
 9395POPC   C4A49578  10.532  36.918   7.355
 9395POPC   C1B49579  10.758  36.820   6.455
 9395POPC   C2B49580  10.811  36.800   6.755
 9395POPC   C3B49581  10.782  36.865   7.055
 9395POPC   C4B49582  10.765  36.829   7.355
 9396POPC   NC349583  15.201  36.120   5.555
 9396POPC   PO449584  15.194  36.128   5.855
 9396POPC   GL149585  15.207  36.109   6.155
 9396POPC   GL249586  15.312  36.115   6.155
 9396POPC   C1A49587  15.199  36.164   6.455
 9396POPC   D2A49588  15.214  36.104   6.755
 9396POPC   C3A49589  15.133  36.133   7.055
 9396POPC   C4A49590  15.216  36.078   7.355
 9396POPC   C1B49591  15.474  36.181   6.455
 9396POPC   C2B49592  15.406  36.179   6.755
 9396POPC   C3B49593  15.438  36.114   7.055
 9396POPC   C4B49594  15.475  36.154   7.355
 9397POPC   NC349595  19.808  36.132   5.555
 9397POPC   PO449596  19.875  36.111   5.855
 9397POPC   GL149597  19.835  36.090   6.155
 9397POPC   GL249598  19.885  36.177   6.155
 9397POPC   C1A49599  19.787  36.084   6.455
 9397POPC   D2A49600  19.862  36.124   6.755
 9397POPC   C3A49601  19.838  36.099   7.055
 9397POPC   C4A49602  19.854  36.136   7.355
 9397POPC   C1B49603  20.035  36.243   6.455
 9397POPC   C2B49604  19.994  36.273   6.755
 9397POPC   C3B49605  20.024  36.287   7.055
 9397POPC   C4B49606  20.039  36.234   7.355
 9398POPC   NC349607  30.699  15.142   5.555
 9398POPC   PO449608  30.674  15.211   5.855
 9398POPC   GL149609  30.704  15.134   6.155
 9398POPC   GL249610  30.602  15.288   6.155
 9398POPC   C1A49611  30.683  15.218   6.455
 9398POPC   D2A49612  30.710  15.209   6.755
 9398POPC   C3A49613  30.660  15.221   7.055
 9398POPC   C4A49614  30.735  15.174   7.355
 9398POPC   C1B49615  30.550  15.395   6.455
 9398POPC   C2B49616  30.605  15.410   6.755
 9398POPC   C3B49617  30.567  15.365   7.055
 9398POPC   C4B49618  30.599  15.353   7.355
 9399POPC   NC349619  36.131  28.320   5.555
 9399POPC   PO449620  36.135  28.366   5.855
 9399POPC   GL149621  36.163  28.370   6.155
 9399POPC   GL249622  35.983  28.355   6.155
 9399POPC   C1A49623  36.152  28.364   6.455
 9399POPC   D2A49624  36.119  28.407   6.755
 9399POPC   C3A49625  36.083  28.359   7.055
 9399POPC   C4A49626  36.103  28.349   7.355
 9399POPC   C1B49627  35.897  28.353   6.455
 9399POPC   C2B49628  35.906  28.395   6.755
 9399POPC   C3B49629  35.883  28.383   7.055
 9399POPC   C4B49630  35.870  28.320   7.355
 9400POPC   NC349631  15.925  20.600   5.555
 9400POPC   PO449632  15.961  20.617   5.855
 9400POPC   GL149633  15.919  20.649   6.155
 9400POPC   GL249634  16.090  20.665   6.155
 9400POPC   C1A49635  15.989  20.646   6.455
 9400POPC   D2A49636  15.972  20.593   6.755
 9400POPC   C3A49637  15.912  20.564   7.055
 9400POPC   C4A49638  15.937  20.633   7.355
 9400POPC   C1B49639  16.221  20.719   6.455
 9400POPC   C2B49640  16.152  20.680   6.755
 9400POPC   C3B49641  16.167  20.729   7.055
 9400POPC   C4B49642  16.178  20.665   7.355
 9401POPC   NC349643  39.983  35.351   5.555
 9401POPC   PO449644  40.037  35.330   5.855
 9401POPC   GL149645  39.986  35.315   6.155
 9401POPC   GL249646  40.167  35.352   6.155
 9401POPC   C1A49647  39.983  35.379   6.455
 9401POPC   D2A49648  39.965  35.314   6.755
 9401POPC   C3A49649  40.015  35.318   7.055
 9401POPC   C4A49650  40.040  35.328   7.355
 9401POPC   C1B49651  40.239  35.305   6.455
 9401POPC   C2B49652  40.229  35.312   6.755
 9401POPC   C3B49653  40.214  35.379   7.055
 9401POPC   C4B49654  40.225  35.370   7.355
 9402POPC   NC349655  19.085  44.661   5.555
 9402POPC   PO449656  19.030  44.695   5.855
 9402POPC   GL149657  19.059  44.684   6.155
 9402POPC   GL249658  19.056  44.541   6.155
 9402POPC   C1A49659  19.082  44.701   6.455
 9402POPC   D2A49660  19.052  44.663   6.755
 9402POPC   C3A49661  19.085  44.615   7.055
 9402POPC   C4A49662  19.067  44.619   7.355
 9402POPC   C1B49663  18.970  44.438   6.455
 9402POPC   C2B49664  18.969  44.462   6.755
 9402POPC   C3B49665  19.026  44.449   7.055
 9402POPC   C4B49666  18.990  44.377   7.355
 9403POPC   NC349667  10.534  25.236   5.555
 9403POPC   PO449668  10.511  25.259   5.855
 9403POPC   GL149669  10.564  25.236   6.155
 9403POPC   GL249670  10.533  25.190   6.155
 9403POPC   C1A49671  10.536  25.263   6.455
 9403POPC   D2A49672  10.540  25.235   6.755
 9403POPC   C3A49673  10.558  25.287   7.055
 9403POPC   C4A49674  10.481  25.306   7.355
 9403POPC   C1B49675  10.499  25.032   6.455
 9403POPC   C2B49676  10.507  25.012   6.755
 9403POPC   C3B49677  10.456  24.988   7.055
 9403POPC   C4B49678  10.475  25.057   7.355
 9404POPC   NC349679  36.128  35.376   5.555
 9404POPC   PO449680  36.090  35.358   5.855
 9404POPC   GL149681  36.100  35.321   6.155
 9404POPC   GL249682  36.223  35.464   6.155
 9404POPC   C1A49683  36.177  35.371   6.455
 9404POPC   D2A49684  36.096  35.331   6.755
 9404POPC   C3A49685  36.103  35.351   7.055
 9404POPC   C4A49686  36.156  35.326   7.355
 9404POPC   C1B49687  36.238  35.532   6.455
 9404POPC   C2B49688  36.327  35.545   6.755
 9404POPC   C3B49689  36.238  35.570   7.055
 9404POPC   C4B49690  36.299  35.549   7.355
 9405POPC   NC349691  23.738   2.776   5.555
 9405POPC   PO449692  23.747   2.741   5.855
 9405POPC   GL149693  23.676   2.775   6.155
 9405POPC   GL249694  23.685   2.884   6.155
 9405POPC   C1A49695  23.671   2.803   6.455
 9405POPC   D2A49696  23.764   2.728   6.755
 9405POPC   C3A49697  23.748   2.720   7.055
 9405POPC   C4A49698  23.762   2.807   7.355
 9405POPC   C1B49699  23.723   2.967   6.455
 9405POPC   C2B49700  23.709   2.965   6.755
 9405POPC   C3B49701  23.701   3.029   7.055
 9405POPC   C4B49702  23.645   2.997   7.355
 9406POPC   NC349703   1.261  18.263   5.555
 9406POPC   PO449704   1.257  18.301   5.855
 9406POPC   GL149705   1.172  18.318   6.155
 9406POPC   GL249706   1.123  18.312   6.155
 9406POPC   C1A49707   1.185  18.278   6.455
 9406POPC   D2A49708   1.184  18.270   6.755
 9406POPC   C3A49709   1.217  18.302   7.055
 9406POPC   C4A49710   1.250  18.290   7.355
 9406POPC   C1B49711   0.980  18.438   6.455
 9406POPC   C2B49712   0.991  18.397   6.755
 9406POPC   C3B49713   1.030  18.434   7.055
 9406POPC   C4B49714   1.044  18.438   7.355
 9407POPC   NC349715  24.473   6.684   5.555
 9407POPC   PO449716  24.516   6.625   5.855
 9407POPC   GL149717  24.490   6.648   6.155
 9407POPC   GL249718  24.492   6.772   6.155
 9407POPC   C1A49719  24.526   6.666   6.455
 9407POPC   D2A49720  24.525   6.599   6.755
 9407POPC   C3A49721  24.494   6.618   7.055
 9407POPC   C4A49722  24.505   6.658   7.355
 9407POPC   C1B49723  24.550   6.922   6.455
 9407POPC   C2B49724  24.499   6.899   6.755
 9407POPC   C3B49725  24.484   6.937   7.055
 9407POPC   C4B49726  24.483   6.879   7.355
 9408POPC   NC349727  38.496   2.033   5.555
 9408POPC   PO449728  38.490   1.962   5.855
 9408POPC   GL149729  38.443   1.988   6.155
 9408POPC   GL249730  38.476   2.158   6.155
 9408POPC   C1A49731  38.452   2.008   6.455
 9408POPC   D2A49732  38.458   1.990   6.755
 9408POPC   C3A49733  38.478   2.004   7.055
 9408POPC   C4A49734  38.444   1.985   7.355
 9408POPC   C1B49735  38.399   2.241   6.455
 9408POPC   C2B49736  38.417   2.249   6.755
 9408POPC   C3B49737  38.371   2.241   7.055
 9408POPC   C4B49738  38.419   2.201   7.355
 9409POPC   NC349739  36.856  26.038   5.555
 9409POPC   PO449740  36.880  26.015   5.855
 9409POPC   GL149741  36.897  26.005   6.155
 9409POPC   GL249742  36.756  26.032   6.155
 9409POPC   C1A49743  36.867  26.059   6.455
 9409POPC   D2A49744  36.896  26.039   6.755
 9409POPC   C3A49745  36.913  26.078   7.055
 9409POPC   C4A49746  36.863  26.002   7.355
 9409POPC   C1B49747  36.612  26.020   6.455
 9409POPC   C2B49748  36.671  26.071   6.755
 9409POPC   C3B49749  36.680  26.004   7.055
 9409POPC   C4B49750  36.617  26.067   7.355
 9410POPC   NC349751  12.822  14.364   5.555
 9410POPC   PO449752  12.873  14.355   5.855
 9410POPC   GL149753  12.888  14.418   6.155
 9410POPC   GL249754  12.869  14.265   6.155
 9410POPC   C1A49755  12.840  14.366   6.455
 9410POPC   D2A49756  12.867  14.380   6.755
 9410POPC   C3A49757  12.834  14.354   7.055
 9410POPC   C4A49758  12.849  14.399   7.355
 9410POPC   C1B49759  12.939  14.143   6.455
 9410POPC   C2B49760  12.937  14.116   6.755
 9410POPC   C3B49761  12.957  14.197   7.055
 9410POPC   C4B49762  12.959  14.199   7.355
 9411POPC   NC349763  40.002  22.162   5.555
 9411POPC   PO449764  39.962  22.186   5.855
 9411POPC   GL149765  39.978  22.132   6.155
 9411POPC   GL249766  39.888  22.195   6.155
 9411POPC   C1A49767  39.998  22.149   6.455
 9411POPC   D2A49768  40.002  22.141   6.755
 9411POPC   C3A49769  39.958  22.149   7.055
 9411POPC   C4A49770  40.017  22.175   7.355
 9411POPC   C1B49771  39.747  22.235   6.455
 9411POPC   C2B49772  39.818  22.229   6.755
 9411POPC   C3B49773  39.743  22.230   7.055
 9411POPC   C4B49774  39.789  22.266   7.355
 9412POPC   NC349775  32.210   1.975   5.555
 9412POPC   PO449776  32.293   2.015   5.855
 9412POPC   GL149777  32.215   1.971   6.155
 9412POPC   GL249778  32.423   2.028   6.155
 9412POPC   C1A49779  32.214   1.952   6.455
 9412POPC   D2A49780  32.202   2.033   6.755
 9412POPC   C3A49781  32.254   2.014   7.055
 9412POPC   C4A49782  32.291   2.028   7.355
 9412POPC   C1B49783  32.524   2.047   6.455
 9412POPC   C2B49784  32.486   2.018   6.755
 9412POPC   C3B49785  32.484   2.025   7.055
 9412POPC   C4B49786  32.479   1.998   7.355
 9413POPC   NC349787  39.217  12.858   5.555
 9413POPC   PO449788  39.246  12.890   5.855
 9413POPC   GL149789  39.256  12.890   6.155
 9413POPC   GL249790  39.403  12.785   6.155
 9413POPC   C1A49791  39.230  12.860   6.455
 9413POPC   D2A49792  39.275  12.878   6.755
 9413POPC   C3A49793  39.202  12.851   7.055
 9413POPC   C4A49794  39.185  12.812   7.355
 9413POPC   C1B49795  39.520  12.802   6.455
 9413POPC   C2B49796  39.456  12.835   6.755
 9413POPC   C3B49797  39.496  12.846   7.055
 9413POPC   C4B49798  39.431  12.764   7.355
 9414POPC   NC349799  41.515  29.188   5.555
 9414POPC   PO449800  41.556  29.138   5.855
 9414POPC   GL149801  41.534  29.191   6.155
 9414POPC   GL249802  41.681  29.121   6.155
 9414POPC   C1A49803  41.580  29.168   6.455
 9414POPC   D2A49804  41.526  29.157   6.755
 9414POPC   C3A49805  41.561  29.159   7.055
 9414POPC   C4A49806  41.595  29.123   7.355
 9414POPC   C1B49807  41.756  29.159   6.455
 9414POPC   C2B49808  41.818  29.144   6.755
 9414POPC   C3B49809  41.849  29.226   7.055
 9414POPC   C4B49810  41.826  29.173   7.355
 9415POPC   NC349811  11.282  43.134   5.555
 9415POPC   PO449812  11.257  43.085   5.855
 9415POPC   GL149813  11.303  43.136   6.155
 9415POPC   GL249814  11.197  43.027   6.155
 9415POPC   C1A49815  11.296  43.114   6.455
 9415POPC   D2A49816  11.289  43.107   6.755
 9415POPC   C3A49817  11.346  43.157   7.055
 9415POPC   C4A49818  11.280  43.077   7.355
 9415POPC   C1B49819  11.156  42.947   6.455
 9415POPC   C2B49820  11.072  42.955   6.755
 9415POPC   C3B49821  11.100  42.929   7.055
 9415POPC   C4B49822  11.080  42.992   7.355
 9416POPC   NC349823  22.122  39.262   5.555
 9416POPC   PO449824  22.201  39.223   5.855
 9416POPC   GL149825  22.123  39.221   6.155
 9416POPC   GL249826  22.046  39.175   6.155
 9416POPC   C1A49827  22.123  39.182   6.455
 9416POPC   D2A49828  22.183  39.237   6.755
 9416POPC   C3A49829  22.155  39.244   7.055
 9416POPC   C4A49830  22.210  39.269   7.355
 9416POPC   C1B49831  21.941  39.040   6.455
 9416POPC   C2B49832  22.028  39.055   6.755
 9416POPC   C3B49833  22.002  39.090   7.055
 9416POPC   C4B49834  21.972  39.090   7.355
 9417POPC   NC349835   3.590  38.411   5.555
 9417POPC   PO449836   3.572  38.500   5.855
 9417POPC   GL149837   3.515  38.413   6.155
 9417POPC   GL249838   3.647  38.569   6.155
 9417POPC   C1A49839   3.502  38.433   6.455
 9417POPC   D2A49840   3.531  38.438   6.755
 9417POPC   C3A49841   3.513  38.495   7.055
 9417POPC   C4A49842   3.575  38.429   7.355
 9417POPC   C1B49843   3.737  38.590   6.455
 9417POPC   C2B49844   3.733  38.637   6.755
 9417POPC   C3B49845   3.729  38.605   7.055
 9417POPC   C4B49846   3.745  38.641   7.355
 9418POPC   NC349847   3.563   7.432   5.555
 9418POPC   PO449848   3.549   7.371   5.855
 9418POPC   GL149849   3.500   7.469   6.155
 9418POPC   GL249850   3.528   7.589   6.155
 9418POPC   C1A49851   3.520   7.445   6.455
 9418POPC   D2A49852   3.506   7.386   6.755
 9418POPC   C3A49853   3.506   7.448   7.055
 9418POPC   C4A49854   3.580   7.411   7.355
 9418POPC   C1B49855   3.468   7.673   6.455
 9418POPC   C2B49856   3.430   7.651   6.755
 9418POPC   C3B49857   3.516   7.676   7.055
 9418POPC   C4B49858   3.446   7.644   7.355
 9419POPC   NC349859  30.698   4.273   5.555
 9419POPC   PO449860  30.660   4.269   5.855
 9419POPC   GL149861  30.676   4.367   6.155
 9419POPC   GL249862  30.605   4.300   6.155
 9419POPC   C1A49863  30.656   4.353   6.455
 9419POPC   D2A49864  30.713   4.301   6.755
 9419POPC   C3A49865  30.685   4.340   7.055
 9419POPC   C4A49866  30.653   4.321   7.355
 9419POPC   C1B49867  30.465   4.290   6.455
 9419POPC   C2B49868  30.441   4.297   6.755
 9419POPC   C3B49869  30.416   4.223   7.055
 9419POPC   C4B49870  30.481   4.285   7.355
 9420POPC   NC349871   9.738   0.456   5.555
 9420POPC   PO449872   9.795   0.430   5.855
 9420POPC   GL149873   9.699   0.418   6.155
 9420POPC   GL249874   9.828   0.396   6.155
 9420POPC   C1A49875   9.768   0.485   6.455
 9420POPC   D2A49876   9.741   0.487   6.755
 9420POPC   C3A49877   9.793   0.414   7.055
 9420POPC   C4A49878   9.790   0.400   7.355
 9420POPC   C1B49879   9.971   0.333   6.455
 9420POPC   C2B49880   9.942   0.380   6.755
 9420POPC   C3B49881   9.946   0.384   7.055
 9420POPC   C4B49882   9.997   0.340   7.355
 9421POPC   NC349883  12.056  28.381   5.555
 9421POPC   PO449884  12.116  28.399   5.855
 9421POPC   GL149885  12.045  28.371   6.155
 9421POPC   GL249886  12.199  28.280   6.155
 9421POPC   C1A49887  12.100  28.384   6.455
 9421POPC   D2A49888  12.042  28.381   6.755
 9421POPC   C3A49889  12.036  28.369   7.055
 9421POPC   C4A49890  12.056  28.387   7.355
 9421POPC   C1B49891  12.270  28.181   6.455
 9421POPC   C2B49892  12.237  28.227   6.755
 9421POPC   C3B49893  12.237  28.170   7.055
 9421POPC   C4B49894  12.236  28.204   7.355
 9422POPC   NC349895  38.451  10.525   5.555
 9422POPC   PO449896  38.478  10.501   5.855
 9422POPC   GL149897  38.458  10.478   6.155
 9422POPC   GL249898  38.412  10.391   6.155
 9422POPC   C1A49899  38.408  10.527   6.455
 9422POPC   D2A49900  38.456  10.544   6.755
 9422POPC   C3A49901  38.481  10.499   7.055
 9422POPC   C4A49902  38.490  10.477   7.355
 9422POPC   C1B49903  38.437  10.312   6.455
 9422POPC   C2B49904  38.384  10.300   6.755
 9422POPC   C3B49905  38.375  10.231   7.055
 9422POPC   C4B49906  38.384  10.297   7.355
 9423POPC   NC349907  11.253  23.689   5.555
 9423POPC   PO449908  11.274  23.699   5.855
 9423POPC   GL149909  11.338  23.693   6.155
 9423POPC   GL249910  11.280  23.876   6.155
 9423POPC   C1A49911  11.336  23.759   6.455
 9423POPC   D2A49912  11.309  23.715   6.755
 9423POPC   C3A49913  11.321  23.727   7.055
 9423POPC   C4A49914  11.276  23.673   7.355
 9423POPC   C1B49915  11.318  23.988   6.455
 9423POPC   C2B49916  11.279  24.011   6.755
 9423POPC   C3B49917  11.268  23.946   7.055
 9423POPC   C4B49918  11.324  23.962   7.355
 9424POPC   NC349919  18.320   7.396   5.555
 9424POPC   PO449920  18.275   7.416   5.855
 9424POPC   GL149921  18.236   7.421   6.155
 9424POPC   GL249922  18.382   7.511   6.155
 9424POPC   C1A49923  18.264   7.444   6.455
 9424POPC   D2A49924  18.302   7.464   6.755
 9424POPC   C3A49925  18.282   7.428   7.055
 9424POPC   C4A49926  18.320   7.392   7.355
 9424POPC   C1B49927  18.426   7.606   6.455
 9424POPC   C2B49928  18.424   7.624   6.755
 9424POPC   C3B49929  18.439   7.613   7.055
 9424POPC   C4B49930  18.370   7.668   7.355
 9425POPC   NC349931  38.476  27.561   5.555
 9425POPC   PO449932  38.496  27.584   5.855
 9425POPC   GL149933  38.438  27.557   6.155
 9425POPC   GL249934  38.316  27.517   6.155
 9425POPC   C1A49935  38.478  27.616   6.455
 9425POPC   D2A49936  38.487  27.551   6.755
 9425POPC   C3A49937  38.456  27.582   7.055
 9425POPC   C4A49938  38.443  27.566   7.355
 9425POPC   C1B49939  38.264  27.422   6.455
 9425POPC   C2B49940  38.278  27.448   6.755
 9425POPC   C3B49941  38.294  27.448   7.055
 9425POPC   C4B49942  38.242  27.427   7.355
 9426POPC   NC349943  12.853   1.997   5.555
 9426POPC   PO449944  12.816   2.034   5.855
 9426POPC   GL149945  12.881   1.993   6.155
 9426POPC   GL249946  12.762   1.920   6.155
 9426POPC   C1A49947  12.852   1.940   6.455
 9426POPC   D2A49948  12.839   2.039   6.755
 9426POPC   C3A49949  12.857   2.038   7.055
 9426POPC   C4A49950  12.886   1.976   7.355
 9426POPC   C1B49951  12.720   1.719   6.455
 9426POPC   C2B49952  12.741   1.728   6.755
 9426POPC   C3B49953  12.708   1.803   7.055
 9426POPC   C4B49954  12.714   1.802   7.355
 9427POPC   NC349955  30.647  34.549   5.555
 9427POPC   PO449956  30.677  34.533   5.855
 9427POPC   GL149957  30.732  34.585   6.155
 9427POPC   GL249958  30.787  34.613   6.155
 9427POPC   C1A49959  30.648  34.536   6.455
 9427POPC   D2A49960  30.718  34.571   6.755
 9427POPC   C3A49961  30.659  34.574   7.055
 9427POPC   C4A49962  30.713  34.554   7.355
 9427POPC   C1B49963  30.893  34.666   6.455
 9427POPC   C2B49964  30.972  34.610   6.755
 9427POPC   C3B49965  30.946  34.605   7.055
 9427POPC   C4B49966  30.941  34.638   7.355
 9428POPC   NC349967  32.267  31.457   5.555
 9428POPC   PO449968  32.286  31.505   5.855
 9428POPC   GL149969  32.202  31.432   6.155
 9428POPC   GL249970  32.247  31.383   6.155
 9428POPC   C1A49971  32.205  31.499   6.455
 9428POPC   D2A49972  32.226  31.454   6.755
 9428POPC   C3A49973  32.216  31.425   7.055
 9428POPC   C4A49974  32.294  31.503   7.355
 9428POPC   C1B49975  32.209  31.263   6.455
 9428POPC   C2B49976  32.121  31.203   6.755
 9428POPC   C3B49977  32.132  31.236   7.055
 9428POPC   C4B49978  32.124  31.226   7.355
 9429POPC   NC349979  12.851  24.514   5.555
 9429POPC   PO449980  12.854  24.532   5.855
 9429POPC   GL149981  12.831  24.529   6.155
 9429POPC   GL249982  12.985  24.516   6.155
 9429POPC   C1A49983  12.861  24.457   6.455
 9429POPC   D2A49984  12.893  24.526   6.755
 9429POPC   C3A49985  12.813  24.442   7.055
 9429POPC   C4A49986  12.873  24.521   7.355
 9429POPC   C1B49987  13.103  24.516   6.455
 9429POPC   C2B49988  13.063  24.504   6.755
 9429POPC   C3B49989  13.074  24.551   7.055
 9429POPC   C4B49990  13.078  24.509   7.355
 9430POPC   NC349991  11.263  38.448   5.555
 9430POPC   PO449992  11.296  38.484   5.855
 9430POPC   GL149993  11.260  38.463   6.155
 9430POPC   GL249994  11.180  38.373   6.155
 9430POPC   C1A49995  11.293  38.424   6.455
 9430POPC   D2A49996  11.323  38.491   6.755
 9430POPC   C3A49997  11.331  38.475   7.055
 9430POPC   C4A49998  11.280  38.440   7.355
 9430POPC   C1B49999  11.127  38.316   6.455
 9430POPC   C2B50000  11.090  38.242   6.755
 9430POPC   C3B50001  11.134  38.297   7.055
 9430POPC   C4B50002  11.154  38.284   7.355
 9431POPC   NC350003  40.051  32.259   5.555
 9431POPC   PO450004  40.044  32.226   5.855
 9431POPC   GL150005  40.047  32.221   6.155
 9431POPC   GL250006  39.936  32.157   6.155
 9431POPC   C1A50007  39.980  32.279   6.455
 9431POPC   D2A50008  39.989  32.208   6.755
 9431POPC   C3A50009  40.016  32.236   7.055
 9431POPC   C4A50010  40.031  32.244   7.355
 9431POPC   C1B50011  39.788  32.130   6.455
 9431POPC   C2B50012  39.807  32.124   6.755
 9431POPC   C3B50013  39.733  32.113   7.055
 9431POPC   C4B50014  39.820  32.130   7.355
 9432POPC   NC350015  10.516   1.192   5.555
 9432POPC   PO450016  10.506   1.208   5.855
 9432POPC   GL150017  10.488   1.243   6.155
 9432POPC   GL250018  10.524   1.331   6.155
 9432POPC   C1A50019  10.554   1.165   6.455
 9432POPC   D2A50020  10.484   1.252   6.755
 9432POPC   C3A50021  10.521   1.248   7.055
 9432POPC   C4A50022  10.545   1.228   7.355
 9432POPC   C1B50023  10.577   1.480   6.455
 9432POPC   C2B50024  10.625   1.503   6.755
 9432POPC   C3B50025  10.605   1.462   7.055
 9432POPC   C4B50026  10.596   1.466   7.355
 9433POPC   NC350027   1.200  32.984   5.555
 9433POPC   PO450028   1.256  33.009   5.855
 9433POPC   GL150029   1.234  32.989   6.155
 9433POPC   GL250030   1.123  33.021   6.155
 9433POPC   C1A50031   1.204  32.975   6.455
 9433POPC   D2A50032   1.263  33.024   6.755
 9433POPC   C3A50033   1.259  32.990   7.055
 9433POPC   C4A50034   1.251  33.040   7.355
 9433POPC   C1B50035   0.930  33.059   6.455
 9433POPC   C2B50036   0.999  33.107   6.755
 9433POPC   C3B50037   0.921  33.052   7.055
 9433POPC   C4B50038   0.940  33.118   7.355
 9434POPC   NC350039  40.733  27.600   5.555
 9434POPC   PO450040  40.810  27.564   5.855
 9434POPC   GL150041  40.741  27.592   6.155
 9434POPC   GL250042  40.693  27.614   6.155
 9434POPC   C1A50043  40.833  27.558   6.455
 9434POPC   D2A50044  40.788  27.560   6.755
 9434POPC   C3A50045  40.774  27.566   7.055
 9434POPC   C4A50046  40.747  27.635   7.355
 9434POPC   C1B50047  40.495  27.600   6.455
 9434POPC   C2B50048  40.575  27.531   6.755
 9434POPC   C3B50049  40.548  27.559   7.055
 9434POPC   C4B50050  40.510  27.556   7.355
 9435POPC   NC350051  37.632  33.839   5.555
 9435POPC   PO450052  37.659  33.849   5.855
 9435POPC   GL150053  37.691  33.778   6.155
 9435POPC   GL250054  37.510  33.773   6.155
 9435POPC   C1A50055  37.644  33.760   6.455
 9435POPC   D2A50056  37.649  33.781   6.755
 9435POPC   C3A50057  37.630  33.754   7.055
 9435POPC   C4A50058  37.704  33.830   7.355
 9435POPC   C1B50059  37.443  33.868   6.455
 9435POPC   C2B50060  37.412  33.842   6.755
 9435POPC   C3B50061  37.470  33.858   7.055
 9435POPC   C4B50062  37.428  33.807   7.355
 9436POPC   NC350063   5.844  12.052   5.555
 9436POPC   PO450064   5.907  12.048   5.855
 9436POPC   GL150065   5.905  12.121   6.155
 9436POPC   GL250066   5.761  11.942   6.155
 9436POPC   C1A50067   5.919  12.059   6.455
 9436POPC   D2A50068   5.894  12.029   6.755
 9436POPC   C3A50069   5.821  12.027   7.055
 9436POPC   C4A50070   5.863  12.055   7.355
 9436POPC   C1B50071   5.715  11.858   6.455
 9436POPC   C2B50072   5.727  11.811   6.755
 9436POPC   C3B50073   5.695  11.847   7.055
 9436POPC   C4B50074   5.788  11.813   7.355
 9437POPC   NC350075   8.967  40.820   5.555
 9437POPC   PO450076   9.019  40.809   5.855
 9437POPC   GL150077   8.947  40.742   6.155
 9437POPC   GL250078   9.050  40.722   6.155
 9437POPC   C1A50079   8.958  40.738   6.455
 9437POPC   D2A50080   8.937  40.831   6.755
 9437POPC   C3A50081   9.008  40.777   7.055
 9437POPC   C4A50082   8.971  40.787   7.355
 9437POPC   C1B50083   9.206  40.639   6.455
 9437POPC   C2B50084   9.201  40.699   6.755
 9437POPC   C3B50085   9.195  40.623   7.055
 9437POPC   C4B50086   9.240  40.652   7.355
 9438POPC   NC350087  16.005  35.343   5.555
 9438POPC   PO450088  15.925  35.369   5.855
 9438POPC   GL150089  15.989  35.306   6.155
 9438POPC   GL250090  15.799  35.389   6.155
 9438POPC   C1A50091  15.926  35.374   6.455
 9438POPC   D2A50092  15.907  35.338   6.755
 9438POPC   C3A50093  15.911  35.330   7.055
 9438POPC   C4A50094  15.934  35.398   7.355
 9438POPC   C1B50095  15.740  35.326   6.455
 9438POPC   C2B50096  15.694  35.309   6.755
 9438POPC   C3B50097  15.733  35.365   7.055
 9438POPC   C4B50098  15.676  35.338   7.355
 9439POPC   NC350099  39.196  21.424   5.555
 9439POPC   PO450100  39.262  21.397   5.855
 9439POPC   GL150101  39.240  21.381   6.155
 9439POPC   GL250102  39.317  21.328   6.155
 9439POPC   C1A50103  39.204  21.374   6.455
 9439POPC   D2A50104  39.214  21.363   6.755
 9439POPC   C3A50105  39.189  21.399   7.055
 9439POPC   C4A50106  39.223  21.402   7.355
 9439POPC   C1B50107  39.469  21.324   6.455
 9439POPC   C2B50108  39.456  21.257   6.755
 9439POPC   C3B50109  39.420  21.299   7.055
 9439POPC   C4B50110  39.478  21.261   7.355
 9440POPC   NC350111  29.970   5.859   5.555
 9440POPC   PO450112  29.913   5.822   5.855
 9440POPC   GL150113  29.954   5.903   6.155
 9440POPC   GL250114  30.075   5.878   6.155
 9440POPC   C1A50115  29.894   5.890   6.455
 9440POPC   D2A50116  29.901   5.836   6.755
 9440POPC   C3A50117  29.895   5.901   7.055
 9440POPC   C4A50118  29.909   5.910   7.355
 9440POPC   C1B50119  30.219   5.887   6.455
 9440POPC   C2B50120  30.165   5.886   6.755
 9440POPC   C3B50121  30.196   5.859   7.055
 9440POPC   C4B50122  30.176   5.901   7.355
 9441POPC   NC350123   9.000   8.951   5.555
 9441POPC   PO450124   8.923   8.963   5.855
 9441POPC   GL150125   8.969   8.961   6.155
 9441POPC   GL250126   8.897   8.927   6.155
 9441POPC   C1A50127   8.928   8.939   6.455
 9441POPC   D2A50128   9.018   8.999   6.755
 9441POPC   C3A50129   8.937   9.003   7.055
 9441POPC   C4A50130   8.966   8.955   7.355
 9441POPC   C1B50131   8.758   8.812   6.455
 9441POPC   C2B50132   8.756   8.808   6.755
 9441POPC   C3B50133   8.713   8.903   7.055
 9441POPC   C4B50134   8.731   8.892   7.355
 9442POPC   NC350135   8.187  30.741   5.555
 9442POPC   PO450136   8.235  30.693   5.855
 9442POPC   GL150137   8.198  30.669   6.155
 9442POPC   GL250138   8.068  30.773   6.155
 9442POPC   C1A50139   8.244  30.716   6.455
 9442POPC   D2A50140   8.159  30.659   6.755
 9442POPC   C3A50141   8.169  30.667   7.055
 9442POPC   C4A50142   8.228  30.704   7.355
 9442POPC   C1B50143   7.968  30.793   6.455
 9442POPC   C2B50144   7.993  30.809   6.755
 9442POPC   C3B50145   7.995  30.787   7.055
 9442POPC   C4B50146   7.967  30.782   7.355
 9443POPC   NC350147  40.752  23.685   5.555
 9443POPC   PO450148  40.743  23.702   5.855
 9443POPC   GL150149  40.763  23.761   6.155
 9443POPC   GL250150  40.626  23.686   6.155
 9443POPC   C1A50151  40.769  23.720   6.455
 9443POPC   D2A50152  40.794  23.718   6.755
 9443POPC   C3A50153  40.752  23.718   7.055
 9443POPC   C4A50154  40.745  23.726   7.355
 9443POPC   C1B50155  40.548  23.694   6.455
 9443POPC   C2B50156  40.532  23.715   6.755
 9443POPC   C3B50157  40.578  23.702   7.055
 9443POPC   C4B50158  40.519  23.731   7.355
 9444POPC   NC350159  43.861   9.798   5.555
 9444POPC   PO450160  43.890   9.785   5.855
 9444POPC   GL150161  43.898   9.797   6.155
 9444POPC   GL250162  43.937   9.642   6.155
 9444POPC   C1A50163  43.914   9.771   6.455
 9444POPC   D2A50164  43.917   9.750   6.755
 9444POPC   C3A50165  43.844   9.787   7.055
 9444POPC   C4A50166  43.913   9.720   7.355
 9444POPC   C1B50167  44.081   9.550   6.455
 9444POPC   C2B50168  44.085   9.504   6.755
 9444POPC   C3B50169  44.039   9.502   7.055
 9444POPC   C4B50170  44.013   9.576   7.355
 9445POPC   NC350171  12.803  20.621   5.555
 9445POPC   PO450172  12.883  20.580   5.855
 9445POPC   GL150173  12.827  20.602   6.155
 9445POPC   GL250174  12.759  20.475   6.155
 9445POPC   C1A50175  12.863  20.630   6.455
 9445POPC   D2A50176  12.861  20.646   6.755
 9445POPC   C3A50177  12.890  20.584   7.055
 9445POPC   C4A50178  12.880  20.599   7.355
 9445POPC   C1B50179  12.706  20.420   6.455
 9445POPC   C2B50180  12.712  20.442   6.755
 9445POPC   C3B50181  12.699  20.392   7.055
 9445POPC   C4B50182  12.707  20.482   7.355
 9446POPC   NC350183  20.641   5.062   5.555
 9446POPC   PO450184  20.578   5.056   5.855
 9446POPC   GL150185  20.606   5.052   6.155
 9446POPC   GL250186  20.674   5.137   6.155
 9446POPC   C1A50187  20.656   5.103   6.455
 9446POPC   D2A50188  20.590   5.119   6.755
 9446POPC   C3A50189  20.596   5.073   7.055
 9446POPC   C4A50190  20.572   5.072   7.355
 9446POPC   C1B50191  20.739   5.259   6.455
 9446POPC   C2B50192  20.754   5.252   6.755
 9446POPC   C3B50193  20.809   5.312   7.055
 9446POPC   C4B50194  20.750   5.273   7.355
 9447POPC   NC350195  38.487  12.030   5.555
 9447POPC   PO450196  38.461  12.101   5.855
 9447POPC   GL150197  38.447  12.100   6.155
 9447POPC   GL250198  38.626  12.068   6.155
 9447POPC   C1A50199  38.484  12.045   6.455
 9447POPC   D2A50200  38.461  12.087   6.755
 9447POPC   C3A50201  38.440  12.095   7.055
 9447POPC   C4A50202  38.459  12.043   7.355
 9447POPC   C1B50203  38.655  12.002   6.455
 9447POPC   C2B50204  38.732  12.069   6.755
 9447POPC   C3B50205  38.711  12.036   7.055
 9447POPC   C4B50206  38.744  12.041   7.355
 9448POPC   NC350207   0.443  16.682   5.555
 9448POPC   PO450208   0.445  16.771   5.855
 9448POPC   GL150209   0.402  16.688   6.155
 9448POPC   GL250210   0.545  16.698   6.155
 9448POPC   C1A50211   0.467  16.754   6.455
 9448POPC   D2A50212   0.398  16.698   6.755
 9448POPC   C3A50213   0.451  16.779   7.055
 9448POPC   C4A50214   0.444  16.774   7.355
 9448POPC   C1B50215   0.600  16.552   6.455
 9448POPC   C2B50216   0.669  16.549   6.755
 9448POPC   C3B50217   0.630  16.570   7.055
 9448POPC   C4B50218   0.640  16.550   7.355
 9449POPC   NC350219  26.049  23.681   5.555
 9449POPC   PO450220  26.063  23.676   5.855
 9449POPC   GL150221  26.045  23.711   6.155
 9449POPC   GL250222  25.982  23.567   6.155
 9449POPC   C1A50223  26.052  23.738   6.455
 9449POPC   D2A50224  26.090  23.685   6.755
 9449POPC   C3A50225  26.006  23.729   7.055
 9449POPC   C4A50226  26.031  23.716   7.355
 9449POPC   C1B50227  26.021  23.450   6.455
 9449POPC   C2B50228  25.959  23.509   6.755
 9449POPC   C3B50229  26.001  23.439   7.055
 9449POPC   C4B50230  25.987  23.512   7.355
 9450POPC   NC350231   8.990  33.013   5.555
 9450POPC   PO450232   9.013  32.981   5.855
 9450POPC   GL150233   8.954  32.994   6.155
 9450POPC   GL250234   8.937  32.925   6.155
 9450POPC   C1A50235   8.963  32.996   6.455
 9450POPC   D2A50236   8.954  32.984   6.755
 9450POPC   C3A50237   8.949  33.043   7.055
 9450POPC   C4A50238   8.964  33.061   7.355
 9450POPC   C1B50239   8.767  32.876   6.455
 9450POPC   C2B50240   8.800  32.863   6.755
 9450POPC   C3B50241   8.853  32.842   7.055
 9450POPC   C4B50242   8.761  32.851   7.355
 9451POPC   NC350243   0.474  22.975   5.555
 9451POPC   PO450244   0.481  22.915   5.855
 9451POPC   GL150245   0.426  22.904   6.155
 9451POPC   GL250246   0.359  22.889   6.155
 9451POPC   C1A50247   0.465  22.966   6.455
 9451POPC   D2A50248   0.431  22.936   6.755
 9451POPC   C3A50249   0.474  22.908   7.055
 9451POPC   C4A50250   0.430  22.931   7.355
 9451POPC   C1B50251   0.253  22.723   6.455
 9451POPC   C2B50252   0.264  22.740   6.755
 9451POPC   C3B50253   0.241  22.722   7.055
 9451POPC   C4B50254   0.330  22.734   7.355
 9452POPC   NC350255  43.079  22.203   5.555
 9452POPC   PO450256  43.114  22.125   5.855
 9452POPC   GL150257  43.126  22.174   6.155
 9452POPC   GL250258  43.189  22.155   6.155
 9452POPC   C1A50259  43.118  22.131   6.455
 9452POPC   D2A50260  43.070  22.157   6.755
 9452POPC   C3A50261  43.073  22.200   7.055
 9452POPC   C4A50262  43.145  22.128   7.355
 9452POPC   C1B50263  43.320  22.182   6.455
 9452POPC   C2B50264  43.385  22.231   6.755
 9452POPC   C3B50265  43.326  22.168   7.055
 9452POPC   C4B50266  43.382  22.223   7.355
 9453POPC   NC350267  24.515   4.321   5.555
 9453POPC   PO450268  24.504   4.308   5.855
 9453POPC   GL150269  24.495   4.272   6.155
 9453POPC   GL250270  24.568   4.342   6.155
 9453POPC   C1A50271  24.479   4.290   6.455
 9453POPC   D2A50272  24.513   4.353   6.755
 9453POPC   C3A50273  24.467   4.338   7.055
 9453POPC   C4A50274  24.511   4.337   7.355
 9453POPC   C1B50275  24.764   4.378   6.455
 9453POPC   C2B50276  24.769   4.284   6.755
 9453POPC   C3B50277  24.699   4.352   7.055
 9453POPC   C4B50278  24.752   4.324   7.355
 9454POPC   NC350279  20.568   9.727   5.555
 9454POPC   PO450280  20.624   9.721   5.855
 9454POPC   GL150281  20.653   9.767   6.155
 9454POPC   GL250282  20.550   9.643   6.155
 9454POPC   C1A50283  20.561   9.762   6.455
 9454POPC   D2A50284  20.659   9.795   6.755
 9454POPC   C3A50285  20.611   9.739   7.055
 9454POPC   C4A50286  20.593   9.747   7.355
 9454POPC   C1B50287  20.507   9.534   6.455
 9454POPC   C2B50288  20.579   9.544   6.755
 9454POPC   C3B50289  20.531   9.463   7.055
 9454POPC   C4B50290  20.503   9.465   7.355
 9455POPC   NC350291  34.534  25.251   5.555
 9455POPC   PO450292  34.581  25.266   5.855
 9455POPC   GL150293  34.589  25.217   6.155
 9455POPC   GL250294  34.455  25.231   6.155
 9455POPC   C1A50295  34.573  25.225   6.455
 9455POPC   D2A50296  34.586  25.224   6.755
 9455POPC   C3A50297  34.588  25.315   7.055
 9455POPC   C4A50298  34.560  25.228   7.355
 9455POPC   C1B50299  34.340  25.070   6.455
 9455POPC   C2B50300  34.408  25.126   6.755
 9455POPC   C3B50301  34.397  25.107   7.055
 9455POPC   C4B50302  34.413  25.142   7.355
 9456POPC   NC350303  42.285  29.915   5.555
 9456POPC   PO450304  42.321  29.913   5.855
 9456POPC   GL150305  42.294  29.968   6.155
 9456POPC   GL250306  42.482  30.039   6.155
 9456POPC   C1A50307  42.295  29.875   6.455
 9456POPC   D2A50308  42.327  29.881   6.755
 9456POPC   C3A50309  42.331  29.957   7.055
 9456POPC   C4A50310  42.348  29.902   7.355
 9456POPC   C1B50311  42.510  30.087   6.455
 9456POPC   C2B50312  42.568  30.110   6.755
 9456POPC   C3B50313  42.570  30.088   7.055
 9456POPC   C4B50314  42.517  30.117   7.355
 9457POPC   NC350315   5.895  11.300   5.555
 9457POPC   PO450316   5.905  11.275   5.855
 9457POPC   GL150317   5.859  11.280   6.155
 9457POPC   GL250318   5.726  11.316   6.155
 9457POPC   C1A50319   5.905  11.270   6.455
 9457POPC   D2A50320   5.873  11.300   6.755
 9457POPC   C3A50321   5.896  11.288   7.055
 9457POPC   C4A50322   5.871  11.295   7.355
 9457POPC   C1B50323   5.644  11.380   6.455
 9457POPC   C2B50324   5.587  11.355   6.755
 9457POPC   C3B50325   5.655  11.409   7.055
 9457POPC   C4B50326   5.617  11.323   7.355
 9458POPC   NC350327  34.596  30.695   5.555
 9458POPC   PO450328  34.566  30.706   5.855
 9458POPC   GL150329  34.608  30.710   6.155
 9458POPC   GL250330  34.478  30.713   6.155
 9458POPC   C1A50331  34.563  30.701   6.455
 9458POPC   D2A50332  34.536  30.742   6.755
 9458POPC   C3A50333  34.559  30.662   7.055
 9458POPC   C4A50334  34.527  30.658   7.355
 9458POPC   C1B50335  34.350  30.770   6.455
 9458POPC   C2B50336  34.366  30.716   6.755
 9458POPC   C3B50337  34.378  30.762   7.055
 9458POPC   C4B50338  34.308  30.728   7.355
 9459POPC   NC350339  26.052  22.138   5.555
 9459POPC   PO450340  26.031  22.195   5.855
 9459POPC   GL150341  25.998  22.124   6.155
 9459POPC   GL250342  26.033  22.256   6.155
 9459POPC   C1A50343  25.992  22.161   6.455
 9459POPC   D2A50344  26.006  22.116   6.755
 9459POPC   C3A50345  26.014  22.185   7.055
 9459POPC   C4A50346  25.997  22.168   7.355
 9459POPC   C1B50347  25.937  22.434   6.455
 9459POPC   C2B50348  25.947  22.437   6.755
 9459POPC   C3B50349  25.969  22.389   7.055
 9459POPC   C4B50350  25.929  22.445   7.355
 9460POPC   NC350351  33.065  17.470   5.555
 9460POPC   PO450352  33.041  17.469   5.855
 9460POPC   GL150353  33.051  17.524   6.155
 9460POPC   GL250354  32.917  17.519   6.155
 9460POPC   C1A50355  32.975  17.531   6.455
 9460POPC   D2A50356  33.014  17.527   6.755
 9460POPC   C3A50357  32.989  17.495   7.055
 9460POPC   C4A50358  33.018  17.553   7.355
 9460POPC   C1B50359  32.810  17.432   6.455
 9460POPC   C2B50360  32.826  17.475   6.755
 9460POPC   C3B50361  32.825  17.439   7.055
 9460POPC   C4B50362  32.824  17.439   7.355
 9461POPC   NC350363  37.637  18.237   5.555
 9461POPC   PO450364  37.664  18.254   5.855
 9461POPC   GL150365  37.719  18.325   6.155
 9461POPC   GL250366  37.593  18.274   6.155
 9461POPC   C1A50367  37.687  18.266   6.455
 9461POPC   D2A50368  37.726  18.298   6.755
 9461POPC   C3A50369  37.668  18.254   7.055
 9461POPC   C4A50370  37.671  18.267   7.355
 9461POPC   C1B50371  37.410  18.217   6.455
 9461POPC   C2B50372  37.446  18.214   6.755
 9461POPC   C3B50373  37.421  18.183   7.055
 9461POPC   C4B50374  37.485  18.144   7.355
 9462POPC   NC350375  23.676   9.000   5.555
 9462POPC   PO450376  23.709   8.954   5.855
 9462POPC   GL150377  23.692   8.998   6.155
 9462POPC   GL250378  23.760   8.898   6.155
 9462POPC   C1A50379  23.763   8.953   6.455
 9462POPC   D2A50380  23.707   8.979   6.755
 9462POPC   C3A50381  23.744   8.973   7.055
 9462POPC   C4A50382  23.669   8.997   7.355
 9462POPC   C1B50383  23.818   8.729   6.455
 9462POPC   C2B50384  23.878   8.723   6.755
 9462POPC   C3B50385  23.901   8.747   7.055
 9462POPC   C4B50386  23.827   8.741   7.355
 9463POPC   NC350387   3.553   4.354   5.555
 9463POPC   PO450388   3.573   4.312   5.855
 9463POPC   GL150389   3.495   4.344   6.155
 9463POPC   GL250390   3.647   4.391   6.155
 9463POPC   C1A50391   3.586   4.338   6.455
 9463POPC   D2A50392   3.568   4.332   6.755
 9463POPC   C3A50393   3.498   4.272   7.055
 9463POPC   C4A50394   3.539   4.322   7.355
 9463POPC   C1B50395   3.711   4.456   6.455
 9463POPC   C2B50396   3.712   4.501   6.755
 9463POPC   C3B50397   3.740   4.471   7.055
 9463POPC   C4B50398   3.770   4.511   7.355
 9464POPC   NC350399  29.120  32.260   5.555
 9464POPC   PO450400  29.136  32.285   5.855
 9464POPC   GL150401  29.179  32.284   6.155
 9464POPC   GL250402  29.274  32.204   6.155
 9464POPC   C1A50403  29.123  32.210   6.455
 9464POPC   D2A50404  29.101  32.244   6.755
 9464POPC   C3A50405  29.118  32.224   7.055
 9464POPC   C4A50406  29.098  32.271   7.355
 9464POPC   C1B50407  29.416  32.098   6.455
 9464POPC   C2B50408  29.338  32.159   6.755
 9464POPC   C3B50409  29.379  32.163   7.055
 9464POPC   C4B50410  29.368  32.165   7.355
 9465POPC   NC350411  28.388   0.476   5.555
 9465POPC   PO450412  28.371   0.392   5.855
 9465POPC   GL150413  28.340   0.438   6.155
 9465POPC   GL250414  28.456   0.446   6.155
 9465POPC   C1A50415  28.366   0.456   6.455
 9465POPC   D2A50416  28.348   0.416   6.755
 9465POPC   C3A50417  28.379   0.459   7.055
 9465POPC   C4A50418  28.388   0.410   7.355
 9465POPC   C1B50419  28.659   0.441   6.455
 9465POPC   C2B50420  28.661   0.460   6.755
 9465POPC   C3B50421  28.608   0.452   7.055
 9465POPC   C4B50422  28.593   0.463   7.355
 9466POPC   NC350423  43.874  26.037   5.555
 9466POPC   PO450424  43.841  26.090   5.855
 9466POPC   GL150425  43.897  26.084   6.155
 9466POPC   GL250426  43.852  25.938   6.155
 9466POPC   C1A50427  43.870  26.016   6.455
 9466POPC   D2A50428  43.901  26.006   6.755
 9466POPC   C3A50429  43.866  26.081   7.055
 9466POPC   C4A50430  43.873  26.046   7.355
 9466POPC   C1B50431  43.836  25.789   6.455
 9466POPC   C2B50432  43.902  25.763   6.755
 9466POPC   C3B50433  43.847  25.794   7.055
 9466POPC   C4B50434  43.855  25.786   7.355
 9467POPC   NC350435  20.631  34.624   5.555
 9467POPC   PO450436  20.638  34.535   5.855
 9467POPC   GL150437  20.603  34.582   6.155
 9467POPC   GL250438  20.668  34.709   6.155
 9467POPC   C1A50439  20.634  34.608   6.455
 9467POPC   D2A50440  20.617  34.549   6.755
 9467POPC   C3A50441  20.578  34.548   7.055
 9467POPC   C4A50442  20.643  34.537   7.355
 9467POPC   C1B50443  20.806  34.788   6.455
 9467POPC   C2B50444  20.741  34.744   6.755
 9467POPC   C3B50445  20.755  34.757   7.055
 9467POPC   C4B50446  20.753  34.775   7.355
 9468POPC   NC350447  29.104  39.193   5.555
 9468POPC   PO450448  29.108  39.263   5.855
 9468POPC   GL150449  29.111  39.246   6.155
 9468POPC   GL250450  29.030  39.204   6.155
 9468POPC   C1A50451  29.164  39.276   6.455
 9468POPC   D2A50452  29.173  39.258   6.755
 9468POPC   C3A50453  29.187  39.274   7.055
 9468POPC   C4A50454  29.124  39.191   7.355
 9468POPC   C1B50455  28.886  39.179   6.455
 9468POPC   C2B50456  28.863  39.130   6.755
 9468POPC   C3B50457  28.893  39.220   7.055
 9468POPC   C4B50458  28.925  39.155   7.355
 9469POPC   NC350459  39.213  37.659   5.555
 9469POPC   PO450460  39.197  37.656   5.855
 9469POPC   GL150461  39.199  37.708   6.155
 9469POPC   GL250462  39.166  37.532   6.155
 9469POPC   C1A50463  39.226  37.633   6.455
 9469POPC   D2A50464  39.234  37.720   6.755
 9469POPC   C3A50465  39.221  37.659   7.055
 9469POPC   C4A50466  39.278  37.649   7.355
 9469POPC   C1B50467  39.196  37.399   6.455
 9469POPC   C2B50468  39.193  37.398   6.755
 9469POPC   C3B50469  39.210  37.425   7.055
 9469POPC   C4B50470  39.114  37.438   7.355
 9470POPC   NC350471   5.133  33.813   5.555
 9470POPC   PO450472   5.137  33.811   5.855
 9470POPC   GL150473   5.141  33.814   6.155
 9470POPC   GL250474   5.203  33.881   6.155
 9470POPC   C1A50475   5.118  33.778   6.455
 9470POPC   D2A50476   5.071  33.781   6.755
 9470POPC   C3A50477   5.137  33.811   7.055
 9470POPC   C4A50478   5.046  33.847   7.355
 9470POPC   C1B50479   5.267  33.931   6.455
 9470POPC   C2B50480   5.342  33.947   6.755
 9470POPC   C3B50481   5.281  33.925   7.055
 9470POPC   C4B50482   5.316  33.985   7.355
 9471POPC   NC350483  19.105  31.476   5.555
 9471POPC   PO450484  19.101  31.521   5.855
 9471POPC   GL150485  19.069  31.509   6.155
 9471POPC   GL250486  19.157  31.599   6.155
 9471POPC   C1A50487  19.074  31.514   6.455
 9471POPC   D2A50488  19.093  31.503   6.755
 9471POPC   C3A50489  19.050  31.491   7.055
 9471POPC   C4A50490  19.094  31.504   7.355
 9471POPC   C1B50491  19.214  31.641   6.455
 9471POPC   C2B50492  19.237  31.651   6.755
 9471POPC   C3B50493  19.228  31.621   7.055
 9471POPC   C4B50494  19.214  31.667   7.355
 9472POPC   NC350495  22.940  33.825   5.555
 9472POPC   PO450496  22.963  33.843   5.855
 9472POPC   GL150497  22.980  33.785   6.155
 9472POPC   GL250498  23.050  33.790   6.155
 9472POPC   C1A50499  22.921  33.753   6.455
 9472POPC   D2A50500  22.977  33.757   6.755
 9472POPC   C3A50501  22.946  33.765   7.055
 9472POPC   C4A50502  22.932  33.795   7.355
 9472POPC   C1B50503  23.207  33.851   6.455
 9472POPC   C2B50504  23.211  33.828   6.755
 9472POPC   C3B50505  23.149  33.854   7.055
 9472POPC   C4B50506  23.205  33.798   7.355
 9473POPC   NC350507  17.543  31.451   5.555
 9473POPC   PO450508  17.511  31.467   5.855
 9473POPC   GL150509  17.534  31.482   6.155
 9473POPC   GL250510  17.396  31.437   6.155
 9473POPC   C1A50511  17.526  31.482   6.455
 9473POPC   D2A50512  17.500  31.501   6.755
 9473POPC   C3A50513  17.468  31.463   7.055
 9473POPC   C4A50514  17.499  31.467   7.355
 9473POPC   C1B50515  17.258  31.515   6.455
 9473POPC   C2B50516  17.288  31.492   6.755
 9473POPC   C3B50517  17.263  31.441   7.055
 9473POPC   C4B50518  17.245  31.513   7.355
 9474POPC   NC350519  37.645  31.485   5.555
 9474POPC   PO450520  37.669  31.449   5.855
 9474POPC   GL150521  37.690  31.463   6.155
 9474POPC   GL250522  37.600  31.404   6.155
 9474POPC   C1A50523  37.635  31.430   6.455
 9474POPC   D2A50524  37.633  31.432   6.755
 9474POPC   C3A50525  37.674  31.441   7.055
 9474POPC   C4A50526  37.689  31.450   7.355
 9474POPC   C1B50527  37.440  31.366   6.455
 9474POPC   C2B50528  37.434  31.389   6.755
 9474POPC   C3B50529  37.469  31.369   7.055
 9474POPC   C4B50530  37.413  31.323   7.355
 9475POPC   NC350531  14.452  15.981   5.555
 9475POPC   PO450532  14.422  15.907   5.855
 9475POPC   GL150533  14.430  15.995   6.155
 9475POPC   GL250534  14.534  15.936   6.155
 9475POPC   C1A50535  14.411  15.938   6.455
 9475POPC   D2A50536  14.360  15.979   6.755
 9475POPC   C3A50537  14.403  15.914   7.055
 9475POPC   C4A50538  14.382  15.988   7.355
 9475POPC   C1B50539  14.655  15.926   6.455
 9475POPC   C2B50540  14.613  15.972   6.755
 9475POPC   C3B50541  14.679  15.912   7.055
 9475POPC   C4B50542  14.636  15.947   7.355
 9476POPC   NC350543  12.035  43.928   5.555
 9476POPC   PO450544  12.088  43.854   5.855
 9476POPC   GL150545  12.103  43.839   6.155
 9476POPC   GL250546  12.206  43.931   6.155
 9476POPC   C1A50547  12.072  43.901   6.455
 9476POPC   D2A50548  12.048  43.905   6.755
 9476POPC   C3A50549  12.036  43.929   7.055
 9476POPC   C4A50550  12.037  43.862   7.355
 9476POPC   C1B50551  12.258  44.003   6.455
 9476POPC   C2B50552  12.333  43.964   6.755
 9476POPC   C3B50553  12.284  44.046   7.055
 9476POPC   C4B50554  12.344  43.966   7.355
 9477POPC   NC350555  38.422  42.324   5.555
 9477POPC   PO450556  38.479  42.369   5.855
 9477POPC   GL150557  38.480  42.327   6.155
 9477POPC   GL250558  38.583  42.337   6.155
 9477POPC   C1A50559  38.429  42.367   6.455
 9477POPC   D2A50560  38.469  42.361   6.755
 9477POPC   C3A50561  38.441  42.367   7.055
 9477POPC   C4A50562  38.474  42.325   7.355
 9477POPC   C1B50563  38.669  42.253   6.455
 9477POPC   C2B50564  38.725  42.299   6.755
 9477POPC   C3B50565  38.715  42.332   7.055
 9477POPC   C4B50566  38.703  42.307   7.355
 9478POPC   NC350567  43.918  15.164   5.555
 9478POPC   PO450568  43.906  15.228   5.855
 9478POPC   GL150569  43.861  15.166   6.155
 9478POPC   GL250570  43.986  15.264   6.155
 9478POPC   C1A50571  43.852  15.216   6.455
 9478POPC   D2A50572  43.915  15.211   6.755
 9478POPC   C3A50573  43.909  15.155   7.055
 9478POPC   C4A50574  43.865  15.204   7.355
 9478POPC   C1B50575  44.038  15.382   6.455
 9478POPC   C2B50576  44.083  15.308   6.755
 9478POPC   C3B50577  44.066  15.363   7.055
 9478POPC   C4B50578  44.028  15.341   7.355
 9479POPC   NC350579   6.670  40.746   5.555
 9479POPC   PO450580   6.681  40.744   5.855
 9479POPC   GL150581   6.640  40.789   6.155
 9479POPC   GL250582   6.543  40.761   6.155
 9479POPC   C1A50583   6.646  40.791   6.455
 9479POPC   D2A50584   6.596  40.819   6.755
 9479POPC   C3A50585   6.642  40.802   7.055
 9479POPC   C4A50586   6.634  40.778   7.355
 9479POPC   C1B50587   6.414  40.802   6.455
 9479POPC   C2B50588   6.410  40.777   6.755
 9479POPC   C3B50589   6.370  40.844   7.055
 9479POPC   C4B50590   6.401  40.822   7.355
 9480POPC   NC350591  19.040  40.745   5.555
 9480POPC   PO450592  19.052  40.754   5.855
 9480POPC   GL150593  19.055  40.784   6.155
 9480POPC   GL250594  19.119  40.857   6.155
 9480POPC   C1A50595  19.047  40.795   6.455
 9480POPC   D2A50596  19.015  40.787   6.755
 9480POPC   C3A50597  19.068  40.802   7.055
 9480POPC   C4A50598  19.054  40.764   7.355
 9480POPC   C1B50599  19.244  40.994   6.455
 9480POPC   C2B50600  19.231  40.992   6.755
 9480POPC   C3B50601  19.199  40.997   7.055
 9480POPC   C4B50602  19.254  41.017   7.355
 9481POPC   NC350603  38.486   1.164   5.555
 9481POPC   PO450604  38.452   1.217   5.855
 9481POPC   GL150605  38.437   1.240   6.155
 9481POPC   GL250606  38.361   1.285   6.155
 9481POPC   C1A50607  38.473   1.178   6.455
 9481POPC   D2A50608  38.451   1.188   6.755
 9481POPC   C3A50609  38.426   1.214   7.055
 9481POPC   C4A50610  38.407   1.169   7.355
 9481POPC   C1B50611  38.270   1.361   6.455
 9481POPC   C2B50612  38.261   1.356   6.755
 9481POPC   C3B50613  38.282   1.377   7.055
 9481POPC   C4B50614  38.269   1.390   7.355
 9482POPC   NC350615   8.953  22.959   5.555
 9482POPC   PO450616   8.992  22.955   5.855
 9482POPC   GL150617   8.994  22.942   6.155
 9482POPC   GL250618   8.884  22.923   6.155
 9482POPC   C1A50619   8.977  22.904   6.455
 9482POPC   D2A50620   8.988  22.916   6.755
 9482POPC   C3A50621   8.935  22.987   7.055
 9482POPC   C4A50622   9.007  22.927   7.355
 9482POPC   C1B50623   8.719  22.922   6.455
 9482POPC   C2B50624   8.757  22.982   6.755
 9482POPC   C3B50625   8.710  22.919   7.055
 9482POPC   C4B50626   8.721  22.911   7.355
 9483POPC   NC350627  25.285   1.964   5.555
 9483POPC   PO450628  25.296   1.968   5.855
 9483POPC   GL150629  25.283   1.995   6.155
 9483POPC   GL250630  25.289   2.156   6.155
 9483POPC   C1A50631  25.233   1.971   6.455
 9483POPC   D2A50632  25.305   2.013   6.755
 9483POPC   C3A50633  25.244   1.971   7.055
 9483POPC   C4A50634  25.296   1.967   7.355
 9483POPC   C1B50635  25.335   2.209   6.455
 9483POPC   C2B50636  25.335   2.200   6.755
 9483POPC   C3B50637  25.317   2.247   7.055
 9483POPC   C4B50638  25.301   2.209   7.355
 9484POPC   NC350639  39.214   4.353   5.555
 9484POPC   PO450640  39.223   4.304   5.855
 9484POPC   GL150641  39.243   4.315   6.155
 9484POPC   GL250642  39.122   4.292   6.155
 9484POPC   C1A50643  39.198   4.327   6.455
 9484POPC   D2A50644  39.270   4.277   6.755
 9484POPC   C3A50645  39.245   4.282   7.055
 9484POPC   C4A50646  39.251   4.325   7.355
 9484POPC   C1B50647  38.958   4.252   6.455
 9484POPC   C2B50648  38.965   4.240   6.755
 9484POPC   C3B50649  38.964   4.271   7.055
 9484POPC   C4B50650  38.965   4.290   7.355
 9485POPC   NC350651   5.094  13.588   5.555
 9485POPC   PO450652   5.048  13.643   5.855
 9485POPC   GL150653   5.048  13.673   6.155
 9485POPC   GL250654   4.990  13.533   6.155
 9485POPC   C1A50655   5.066  13.648   6.455
 9485POPC   D2A50656   5.112  13.605   6.755
 9485POPC   C3A50657   5.122  13.652   7.055
 9485POPC   C4A50658   5.095  13.622   7.355
 9485POPC   C1B50659   4.907  13.539   6.455
 9485POPC   C2B50660   4.875  13.519   6.755
 9485POPC   C3B50661   4.842  13.497   7.055
 9485POPC   C4B50662   4.863  13.506   7.355
 9486POPC   NC350663  32.201   0.465   5.555
 9486POPC   PO450664  32.252   0.473   5.855
 9486POPC   GL150665  32.201   0.429   6.155
 9486POPC   GL250666  32.128   0.514   6.155
 9486POPC   C1A50667  32.247   0.487   6.455
 9486POPC   D2A50668  32.199   0.419   6.755
 9486POPC   C3A50669  32.266   0.457   7.055
 9486POPC   C4A50670  32.232   0.432   7.355
 9486POPC   C1B50671  32.040   0.518   6.455
 9486POPC   C2B50672  32.005   0.461   6.755
 9486POPC   C3B50673  31.993   0.472   7.055
 9486POPC   C4B50674  32.011   0.457   7.355
 9487POPC   NC350675  35.307  14.429   5.555
 9487POPC   PO450676  35.385  14.449   5.855
 9487POPC   GL150677  35.374  14.362   6.155
 9487POPC   GL250678  35.353  14.257   6.155
 9487POPC   C1A50679  35.383  14.373   6.455
 9487POPC   D2A50680  35.386  14.443   6.755
 9487POPC   C3A50681  35.361  14.430   7.055
 9487POPC   C4A50682  35.329  14.383   7.355
 9487POPC   C1B50683  35.334  14.117   6.455
 9487POPC   C2B50684  35.259  14.117   6.755
 9487POPC   C3B50685  35.337  14.127   7.055
 9487POPC   C4B50686  35.285  14.190   7.355
 9488POPC   NC350687  26.847  43.846   5.555
 9488POPC   PO450688  26.859  43.902   5.855
 9488POPC   GL150689  26.769  43.882   6.155
 9488POPC   GL250690  26.917  43.802   6.155
 9488POPC   C1A50691  26.811  43.923   6.455
 9488POPC   D2A50692  26.843  43.873   6.755
 9488POPC   C3A50693  26.802  43.879   7.055
 9488POPC   C4A50694  26.833  43.884   7.355
 9488POPC   C1B50695  26.954  43.611   6.455
 9488POPC   C2B50696  26.926  43.627   6.755
 9488POPC   C3B50697  26.959  43.664   7.055
 9488POPC   C4B50698  26.924  43.613   7.355
 9489POPC   NC350699   2.033   5.828   5.555
 9489POPC   PO450700   1.999   5.844   5.855
 9489POPC   GL150701   1.994   5.881   6.155
 9489POPC   GL250702   2.019   5.960   6.155
 9489POPC   C1A50703   1.980   5.907   6.455
 9489POPC   D2A50704   1.950   5.884   6.755
 9489POPC   C3A50705   2.036   5.858   7.055
 9489POPC   C4A50706   1.959   5.862   7.355
 9489POPC   C1B50707   2.128   6.052   6.455
 9489POPC   C2B50708   2.090   6.120   6.755
 9489POPC   C3B50709   2.119   6.124   7.055
 9489POPC   C4B50710   2.096   6.087   7.355
 9490POPC   NC350711  33.039  32.985   5.555
 9490POPC   PO450712  33.031  33.024   5.855
 9490POPC   GL150713  33.001  33.036   6.155
 9490POPC   GL250714  33.078  33.188   6.155
 9490POPC   C1A50715  33.063  32.999   6.455
 9490POPC   D2A50716  33.062  33.007   6.755
 9490POPC   C3A50717  33.018  32.989   7.055
 9490POPC   C4A50718  33.014  33.025   7.355
 9490POPC   C1B50719  33.025  33.266   6.455
 9490POPC   C2B50720  33.086  33.262   6.755
 9490POPC   C3B50721  33.025  33.277   7.055
 9490POPC   C4B50722  33.026  33.252   7.355
 9491POPC   NC350723  37.704  35.329   5.555
 9491POPC   PO450724  37.721  35.311   5.855
 9491POPC   GL150725  37.711  35.395   6.155
 9491POPC   GL250726  37.817  35.401   6.155
 9491POPC   C1A50727  37.671  35.388   6.455
 9491POPC   D2A50728  37.725  35.386   6.755
 9491POPC   C3A50729  37.691  35.365   7.055
 9491POPC   C4A50730  37.726  35.362   7.355
 9491POPC   C1B50731  37.922  35.431   6.455
 9491POPC   C2B50732  37.918  35.473   6.755
 9491POPC   C3B50733  37.946  35.441   7.055
 9491POPC   C4B50734  37.892  35.425   7.355
 9492POPC   NC350735   9.781  23.743   5.555
 9492POPC   PO450736   9.717  23.706   5.855
 9492POPC   GL150737   9.728  23.732   6.155
 9492POPC   GL250738   9.811  23.637   6.155
 9492POPC   C1A50739   9.729  23.725   6.455
 9492POPC   D2A50740   9.722  23.731   6.755
 9492POPC   C3A50741   9.773  23.672   7.055
 9492POPC   C4A50742   9.779  23.750   7.355
 9492POPC   C1B50743   9.917  23.531   6.455
 9492POPC   C2B50744   9.874  23.473   6.755
 9492POPC   C3B50745   9.864  23.505   7.055
 9492POPC   C4B50746   9.867  23.547   7.355
 9493POPC   NC350747  34.577  23.692   5.555
 9493POPC   PO450748  34.610  23.673   5.855
 9493POPC   GL150749  34.599  23.691   6.155
 9493POPC   GL250750  34.549  23.631   6.155
 9493POPC   C1A50751  34.595  23.688   6.455
 9493POPC   D2A50752  34.567  23.745   6.755
 9493POPC   C3A50753  34.603  23.721   7.055
 9493POPC   C4A50754  34.553  23.685   7.355
 9493POPC   C1B50755  34.588  23.510   6.455
 9493POPC   C2B50756  34.608  23.485   6.755
 9493POPC   C3B50757  34.593  23.472   7.055
 9493POPC   C4B50758  34.538  23.486   7.355
 9494POPC   NC350759  26.002   5.906   5.555
 9494POPC   PO450760  26.002   5.834   5.855
 9494POPC   GL150761  26.043   5.839   6.155
 9494POPC   GL250762  25.953   5.908   6.155
 9494POPC   C1A50763  26.086   5.847   6.455
 9494POPC   D2A50764  26.080   5.874   6.755
 9494POPC   C3A50765  26.044   5.837   7.055
 9494POPC   C4A50766  26.038   5.858   7.355
 9494POPC   C1B50767  25.831   5.901   6.455
 9494POPC   C2B50768  25.751   5.843   6.755
 9494POPC   C3B50769  25.764   5.835   7.055
 9494POPC   C4B50770  25.767   5.900   7.355
 9495POPC   NC350771  31.508  31.507   5.555
 9495POPC   PO450772  31.509  31.488   5.855
 9495POPC   GL150773  31.424  31.499   6.155
 9495POPC   GL250774  31.496  31.609   6.155
 9495POPC   C1A50775  31.515  31.493   6.455
 9495POPC   D2A50776  31.497  31.490   6.755
 9495POPC   C3A50777  31.481  31.509   7.055
 9495POPC   C4A50778  31.462  31.509   7.355
 9495POPC   C1B50779  31.593  31.676   6.455
 9495POPC   C2B50780  31.552  31.676   6.755
 9495POPC   C3B50781  31.625  31.723   7.055
 9495POPC   C4B50782  31.565  31.660   7.355
 9496POPC   NC350783  28.368  41.510   5.555
 9496POPC   PO450784  28.344  41.600   5.855
 9496POPC   GL150785  28.396  41.564   6.155
 9496POPC   GL250786  28.528  41.604   6.155
 9496POPC   C1A50787  28.364  41.585   6.455
 9496POPC   D2A50788  28.382  41.577   6.755
 9496POPC   C3A50789  28.415  41.543   7.055
 9496POPC   C4A50790  28.373  41.517   7.355
 9496POPC   C1B50791  28.620  41.576   6.455
 9496POPC   C2B50792  28.653  41.586   6.755
 9496POPC   C3B50793  28.637  41.604   7.055
 9496POPC   C4B50794  28.612  41.546   7.355
 9497POPC   NC350795   9.750   5.099   5.555
 9497POPC   PO450796   9.711   5.127   5.855
 9497POPC   GL150797   9.733   5.087   6.155
 9497POPC   GL250798   9.829   5.201   6.155
 9497POPC   C1A50799   9.748   5.081   6.455
 9497POPC   D2A50800   9.788   5.100   6.755
 9497POPC   C3A50801   9.782   5.132   7.055
 9497POPC   C4A50802   9.740   5.049   7.355
 9497POPC   C1B50803   9.796   5.369   6.455
 9497POPC   C2B50804   9.815   5.320   6.755
 9497POPC   C3B50805   9.831   5.286   7.055
 9497POPC   C4B50806   9.827   5.320   7.355
 9498POPC   NC350807  29.916  18.301   5.555
 9498POPC   PO450808  29.930  18.317   5.855
 9498POPC   GL150809  29.915  18.235   6.155
 9498POPC   GL250810  29.963  18.173   6.155
 9498POPC   C1A50811  29.913  18.267   6.455
 9498POPC   D2A50812  29.910  18.305   6.755
 9498POPC   C3A50813  29.913  18.311   7.055
 9498POPC   C4A50814  29.963  18.256   7.355
 9498POPC   C1B50815  30.150  18.075   6.455
 9498POPC   C2B50816  30.135  18.067   6.755
 9498POPC   C3B50817  30.064  18.091   7.055
 9498POPC   C4B50818  30.061  18.069   7.355
 9499POPC   NC350819  14.379  30.707   5.555
 9499POPC   PO450820  14.394  30.649   5.855
 9499POPC   GL150821  14.364  30.735   6.155
 9499POPC   GL250822  14.545  30.767   6.155
 9499POPC   C1A50823  14.422  30.694   6.455
 9499POPC   D2A50824  14.418  30.692   6.755
 9499POPC   C3A50825  14.371  30.675   7.055
 9499POPC   C4A50826  14.440  30.664   7.355
 9499POPC   C1B50827  14.587  30.801   6.455
 9499POPC   C2B50828  14.638  30.843   6.755
 9499POPC   C3B50829  14.578  30.805   7.055
 9499POPC   C4B50830  14.625  30.873   7.355
 9500POPC   NC350831  42.384  24.445   5.555
 9500POPC   PO450832  42.344  24.518   5.855
 9500POPC   GL150833  42.316  24.496   6.155
 9500POPC   GL250834  42.223  24.532   6.155
 9500POPC   C1A50835  42.288  24.488   6.455
 9500POPC   D2A50836  42.323  24.517   6.755
 9500POPC   C3A50837  42.345  24.498   7.055
 9500POPC   C4A50838  42.328  24.454   7.355
 9500POPC   C1B50839  42.114  24.695   6.455
 9500POPC   C2B50840  42.166  24.623   6.755
 9500POPC   C3B50841  42.171  24.631   7.055
 9500POPC   C4B50842  42.194  24.638   7.355
 9501POPC   NC350843  17.478  12.855   5.555
 9501POPC   PO450844  17.499  12.821   5.855
 9501POPC   GL150845  17.537  12.843   6.155
 9501POPC   GL250846  17.470  12.999   6.155
 9501POPC   C1A50847  17.500  12.852   6.455
 9501POPC   D2A50848  17.543  12.828   6.755
 9501POPC   C3A50849  17.500  12.875   7.055
 9501POPC   C4A50850  17.494  12.824   7.355
 9501POPC   C1B50851  17.470  13.097   6.455
 9501POPC   C2B50852  17.428  13.108   6.755
 9501POPC   C3B50853  17.407  13.052   7.055
 9501POPC   C4B50854  17.423  13.088   7.355
 9502POPC   NC350855   6.633  19.031   5.555
 9502POPC   PO450856   6.639  19.096   5.855
 9502POPC   GL150857   6.643  19.014   6.155
 9502POPC   GL250858   6.690  18.943   6.155
 9502POPC   C1A50859   6.679  19.077   6.455
 9502POPC   D2A50860   6.620  19.073   6.755
 9502POPC   C3A50861   6.641  19.058   7.055
 9502POPC   C4A50862   6.654  19.031   7.355
 9502POPC   C1B50863   6.709  18.771   6.455
 9502POPC   C2B50864   6.668  18.795   6.755
 9502POPC   C3B50865   6.695  18.797   7.055
 9502POPC   C4B50866   6.707  18.784   7.355
 9503POPC   NC350867  28.320  11.275   5.555
 9503POPC   PO450868  28.346  11.338   5.855
 9503POPC   GL150869  28.372  11.288   6.155
 9503POPC   GL250870  28.325  11.165   6.155
 9503POPC   C1A50871  28.326  11.312   6.455
 9503POPC   D2A50872  28.367  11.344   6.755
 9503POPC   C3A50873  28.402  11.313   7.055
 9503POPC   C4A50874  28.349  11.326   7.355
 9503POPC   C1B50875  28.317  11.091   6.455
 9503POPC   C2B50876  28.357  11.024   6.755
 9503POPC   C3B50877  28.368  11.006   7.055
 9503POPC   C4B50878  28.367  11.065   7.355
 9504POPC   NC350879  44.613  27.576   5.555
 9504POPC   PO450880  44.663  27.561   5.855
 9504POPC   GL150881  44.655  27.628   6.155
 9504POPC   GL250882  44.805  27.618   6.155
 9504POPC   C1A50883  44.711  27.607   6.455
 9504POPC   D2A50884  44.649  27.622   6.755
 9504POPC   C3A50885  44.689  27.575   7.055
 9504POPC   C4A50886  44.620  27.622   7.355
 9504POPC   C1B50887  44.903  27.711   6.455
 9504POPC   C2B50888  44.934  27.642   6.755
 9504POPC   C3B50889  44.916  27.644   7.055
 9504POPC   C4B50890  44.920  27.711   7.355
 9505POPC   NC350891  17.554  24.442   5.555
 9505POPC   PO450892  17.483  24.453   5.855
 9505POPC   GL150893  17.540  24.481   6.155
 9505POPC   GL250894  17.469  24.622   6.155
 9505POPC   C1A50895  17.516  24.468   6.455
 9505POPC   D2A50896  17.491  24.482   6.755
 9505POPC   C3A50897  17.528  24.538   7.055
 9505POPC   C4A50898  17.520  24.490   7.355
 9505POPC   C1B50899  17.458  24.728   6.455
 9505POPC   C2B50900  17.421  24.687   6.755
 9505POPC   C3B50901  17.394  24.733   7.055
 9505POPC   C4B50902  17.481  24.761   7.355
 9506POPC   NC350903  22.197  35.400   5.555
 9506POPC   PO450904  22.164  35.312   5.855
 9506POPC   GL150905  22.125  35.349   6.155
 9506POPC   GL250906  22.103  35.430   6.155
 9506POPC   C1A50907  22.163  35.330   6.455
 9506POPC   D2A50908  22.157  35.303   6.755
 9506POPC   C3A50909  22.145  35.384   7.055
 9506POPC   C4A50910  22.166  35.305   7.355
 9506POPC   C1B50911  21.953  35.529   6.455
 9506POPC   C2B50912  22.011  35.568   6.755
 9506POPC   C3B50913  22.041  35.578   7.055
 9506POPC   C4B50914  21.991  35.503   7.355
 9507POPC   NC350915  43.900  29.147   5.555
 9507POPC   PO450916  43.888  29.151   5.855
 9507POPC   GL150917  43.887  29.141   6.155
 9507POPC   GL250918  43.964  29.102   6.155
 9507POPC   C1A50919  43.911  29.160   6.455
 9507POPC   D2A50920  43.888  29.134   6.755
 9507POPC   C3A50921  43.852  29.192   7.055
 9507POPC   C4A50922  43.838  29.131   7.355
 9507POPC   C1B50923  44.088  29.103   6.455
 9507POPC   C2B50924  44.166  29.104   6.755
 9507POPC   C3B50925  44.120  29.175   7.055
 9507POPC   C4B50926  44.110  29.101   7.355
 9508POPC   NC350927  36.859  16.701   5.555
 9508POPC   PO450928  36.898  16.729   5.855
 9508POPC   GL150929  36.858  16.772   6.155
 9508POPC   GL250930  36.737  16.781   6.155
 9508POPC   C1A50931  36.953  16.707   6.455
 9508POPC   D2A50932  36.898  16.730   6.755
 9508POPC   C3A50933  36.916  16.778   7.055
 9508POPC   C4A50934  36.904  16.704   7.355
 9508POPC   C1B50935  36.681  16.771   6.455
 9508POPC   C2B50936  36.668  16.756   6.755
 9508POPC   C3B50937  36.654  16.789   7.055
 9508POPC   C4B50938  36.698  16.725   7.355
 9509POPC   NC350939   8.242  31.495   5.555
 9509POPC   PO450940   8.172  31.522   5.855
 9509POPC   GL150941   8.226  31.490   6.155
 9509POPC   GL250942   8.181  31.613   6.155
 9509POPC   C1A50943   8.169  31.449   6.455
 9509POPC   D2A50944   8.212  31.506   6.755
 9509POPC   C3A50945   8.238  31.485   7.055
 9509POPC   C4A50946   8.231  31.508   7.355
 9509POPC   C1B50947   8.092  31.743   6.455
 9509POPC   C2B50948   8.049  31.717   6.755
 9509POPC   C3B50949   8.079  31.668   7.055
 9509POPC   C4B50950   8.064  31.700   7.355
 9510POPC   NC350951   8.958   3.558   5.555
 9510POPC   PO450952   8.927   3.542   5.855
 9510POPC   GL150953   8.984   3.496   6.155
 9510POPC   GL250954   9.003   3.428   6.155
 9510POPC   C1A50955   9.021   3.541   6.455
 9510POPC   D2A50956   8.953   3.494   6.755
 9510POPC   C3A50957   9.000   3.538   7.055
 9510POPC   C4A50958   8.968   3.522   7.355
 9510POPC   C1B50959   8.999   3.320   6.455
 9510POPC   C2B50960   9.042   3.262   6.755
 9510POPC   C3B50961   9.044   3.341   7.055
 9510POPC   C4B50962   9.006   3.286   7.355
 9511POPC   NC350963  40.826   6.621   5.555
 9511POPC   PO450964  40.825   6.678   5.855
 9511POPC   GL150965  40.743   6.686   6.155
 9511POPC   GL250966  40.659   6.567   6.155
 9511POPC   C1A50967  40.827   6.682   6.455
 9511POPC   D2A50968  40.833   6.659   6.755
 9511POPC   C3A50969  40.777   6.666   7.055
 9511POPC   C4A50970  40.801   6.689   7.355
 9511POPC   C1B50971  40.611   6.555   6.455
 9511POPC   C2B50972  40.537   6.498   6.755
 9511POPC   C3B50973  40.612   6.527   7.055
 9511POPC   C4B50974  40.603   6.468   7.355
 9512POPC   NC350975  22.168  43.075   5.555
 9512POPC   PO450976  22.163  43.070   5.855
 9512POPC   GL150977  22.127  43.106   6.155
 9512POPC   GL250978  22.187  42.952   6.155
 9512POPC   C1A50979  22.119  43.138   6.455
 9512POPC   D2A50980  22.176  43.070   6.755
 9512POPC   C3A50981  22.120  43.147   7.055
 9512POPC   C4A50982  22.122  43.124   7.355
 9512POPC   C1B50983  22.189  42.886   6.455
 9512POPC   C2B50984  22.149  42.819   6.755
 9512POPC   C3B50985  22.176  42.843   7.055
 9512POPC   C4B50986  22.171  42.826   7.355
 9513POPC   NC350987  21.432  44.690   5.555
 9513POPC   PO450988  21.402  44.661   5.855
 9513POPC   GL150989  21.366  44.618   6.155
 9513POPC   GL250990  21.469  44.650   6.155
 9513POPC   C1A50991  21.423  44.652   6.455
 9513POPC   D2A50992  21.354  44.665   6.755
 9513POPC   C3A50993  21.396  44.640   7.055
 9513POPC   C4A50994  21.429  44.649   7.355
 9513POPC   C1B50995  21.615  44.499   6.455
 9513POPC   C2B50996  21.624  44.515   6.755
 9513POPC   C3B50997  21.623  44.586   7.055
 9513POPC   C4B50998  21.658  44.554   7.355
 9514POPC   NC350999  30.694   1.959   5.555
 9514POPC   PO451000  30.668   1.956   5.855
 9514POPC   GL151001  30.652   1.944   6.155
 9514POPC   GL251002  30.610   2.133   6.155
 9514POPC   C1A51003  30.704   1.960   6.455
 9514POPC   D2A51004  30.672   2.039   6.755
 9514POPC   C3A51005  30.647   1.942   7.055
 9514POPC   C4A51006  30.739   1.987   7.355
 9514POPC   C1B51007  30.599   2.214   6.455
 9514POPC   C2B51008  30.586   2.227   6.755
 9514POPC   C3B51009  30.549   2.199   7.055
 9514POPC   C4B51010  30.551   2.240   7.355
 9515POPC   NC351011  30.697   9.717   5.555
 9515POPC   PO451012  30.745   9.753   5.855
 9515POPC   GL151013  30.653   9.750   6.155
 9515POPC   GL251014  30.734   9.663   6.155
 9515POPC   C1A51015  30.722   9.755   6.455
 9515POPC   D2A51016  30.668   9.796   6.755
 9515POPC   C3A51017  30.685   9.729   7.055
 9515POPC   C4A51018  30.736   9.711   7.355
 9515POPC   C1B51019  30.852   9.587   6.455
 9515POPC   C2B51020  30.792   9.508   6.755
 9515POPC   C3B51021  30.849   9.584   7.055
 9515POPC   C4B51022  30.826   9.567   7.355
 9516POPC   NC351023  23.671  16.757   5.555
 9516POPC   PO451024  23.685  16.707   5.855
 9516POPC   GL151025  23.665  16.742   6.155
 9516POPC   GL251026  23.767  16.784   6.155
 9516POPC   C1A51027  23.748  16.731   6.455
 9516POPC   D2A51028  23.736  16.746   6.755
 9516POPC   C3A51029  23.723  16.751   7.055
 9516POPC   C4A51030  23.677  16.777   7.355
 9516POPC   C1B51031  23.874  16.916   6.455
 9516POPC   C2B51032  23.885  16.886   6.755
 9516POPC   C3B51033  23.860  16.910   7.055
 9516POPC   C4B51034  23.863  16.904   7.355
 9517POPC   NC351035   7.386  36.917   5.555
 9517POPC   PO451036   7.410  36.952   5.855
 9517POPC   GL151037   7.449  36.905   6.155
 9517POPC   GL251038   7.407  36.741   6.155
 9517POPC   C1A51039   7.469  36.919   6.455
 9517POPC   D2A51040   7.417  36.875   6.755
 9517POPC   C3A51041   7.383  36.919   7.055
 9517POPC   C4A51042   7.378  36.950   7.355
 9517POPC   C1B51043   7.401  36.606   6.455
 9517POPC   C2B51044   7.468  36.694   6.755
 9517POPC   C3B51045   7.471  36.665   7.055
 9517POPC   C4B51046   7.422  36.658   7.355
 9518POPC   NC351047  43.867   1.213   5.555
 9518POPC   PO451048  43.912   1.202   5.855
 9518POPC   GL151049  43.851   1.180   6.155
 9518POPC   GL251050  43.944   1.270   6.155
 9518POPC   C1A51051  43.846   1.215   6.455
 9518POPC   D2A51052  43.887   1.209   6.755
 9518POPC   C3A51053  43.871   1.181   7.055
 9518POPC   C4A51054  43.870   1.167   7.355
 9518POPC   C1B51055  44.080   1.426   6.455
 9518POPC   C2B51056  44.032   1.364   6.755
 9518POPC   C3B51057  44.025   1.443   7.055
 9518POPC   C4B51058  44.037   1.401   7.355
 9519POPC   NC351059  33.764  10.532   5.555
 9519POPC   PO451060  33.790  10.497   5.855
 9519POPC   GL151061  33.823  10.561   6.155
 9519POPC   GL251062  33.845  10.612   6.155
 9519POPC   C1A51063  33.751  10.549   6.455
 9519POPC   D2A51064  33.773  10.560   6.755
 9519POPC   C3A51065  33.809  10.556   7.055
 9519POPC   C4A51066  33.774  10.507   7.355
 9519POPC   C1B51067  33.880  10.786   6.455
 9519POPC   C2B51068  33.877  10.777   6.755
 9519POPC   C3B51069  33.876  10.715   7.055
 9519POPC   C4B51070  33.876  10.731   7.355
 9520POPC   NC351071   1.263   1.940   5.555
 9520POPC   PO451072   1.175   1.992   5.855
 9520POPC   GL151073   1.251   1.972   6.155
 9520POPC   GL251074   1.317   1.859   6.155
 9520POPC   C1A51075   1.240   1.976   6.455
 9520POPC   D2A51076   1.185   2.007   6.755
 9520POPC   C3A51077   1.177   1.946   7.055
 9520POPC   C4A51078   1.170   2.025   7.355
 9520POPC   C1B51079   1.359   1.730   6.455
 9520POPC   C2B51080   1.298   1.732   6.755
 9520POPC   C3B51081   1.370   1.784   7.055
 9520POPC   C4B51082   1.363   1.722   7.355
 9521POPC   NC351083  15.946  25.221   5.555
 9521POPC   PO451084  15.986  25.292   5.855
 9521POPC   GL151085  15.952  25.285   6.155
 9521POPC   GL251086  15.934  25.107   6.155
 9521POPC   C1A51087  15.965  25.286   6.455
 9521POPC   D2A51088  15.988  25.281   6.755
 9521POPC   C3A51089  15.910  25.251   7.055
 9521POPC   C4A51090  16.002  25.226   7.355
 9521POPC   C1B51091  16.018  24.990   6.455
 9521POPC   C2B51092  15.927  25.036   6.755
 9521POPC   C3B51093  15.947  25.040   7.055
 9521POPC   C4B51094  15.957  25.018   7.355
 9522POPC   NC351095   8.179   5.863   5.555
 9522POPC   PO451096   8.156   5.903   5.855
 9522POPC   GL151097   8.174   5.907   6.155
 9522POPC   GL251098   8.123   5.778   6.155
 9522POPC   C1A51099   8.180   5.859   6.455
 9522POPC   D2A51100   8.242   5.897   6.755
 9522POPC   C3A51101   8.177   5.913   7.055
 9522POPC   C4A51102   8.212   5.910   7.355
 9522POPC   C1B51103   8.100   5.692   6.455
 9522POPC   C2B51104   8.043   5.687   6.755
 9522POPC   C3B51105   8.032   5.679   7.055
 9522POPC   C4B51106   8.094   5.624   7.355
 9523POPC   NC351107  41.573   5.091   5.555
 9523POPC   PO451108  41.510   5.141   5.855
 9523POPC   GL151109  41.569   5.143   6.155
 9523POPC   GL251110  41.673   5.228   6.155
 9523POPC   C1A51111  41.594   5.127   6.455
 9523POPC   D2A51112  41.592   5.103   6.755
 9523POPC   C3A51113  41.531   5.105   7.055
 9523POPC   C4A51114  41.600   5.106   7.355
 9523POPC   C1B51115  41.756   5.272   6.455
 9523POPC   C2B51116  41.728   5.307   6.755
 9523POPC   C3B51117  41.691   5.293   7.055
 9523POPC   C4B51118  41.687   5.307   7.355
 9524POPC   NC351119  34.552  17.552   5.555
 9524POPC   PO451120  34.593  17.494   5.855
 9524POPC   GL151121  34.566  17.535   6.155
 9524POPC   GL251122  34.624  17.426   6.155
 9524POPC   C1A51123  34.580  17.528   6.455
 9524POPC   D2A51124  34.560  17.512   6.755
 9524POPC   C3A51125  34.558  17.549   7.055
 9524POPC   C4A51126  34.602  17.529   7.355
 9524POPC   C1B51127  34.547  17.245   6.455
 9524POPC   C2B51128  34.564  17.269   6.755
 9524POPC   C3B51129  34.591  17.211   7.055
 9524POPC   C4B51130  34.570  17.224   7.355
 9525POPC   NC351131  28.400   8.220   5.555
 9525POPC   PO451132  28.344   8.175   5.855
 9525POPC   GL151133  28.338   8.197   6.155
 9525POPC   GL251134  28.386   8.077   6.155
 9525POPC   C1A51135  28.386   8.153   6.455
 9525POPC   D2A51136  28.368   8.158   6.755
 9525POPC   C3A51137  28.411   8.219   7.055
 9525POPC   C4A51138  28.414   8.244   7.355
 9525POPC   C1B51139  28.406   7.992   6.455
 9525POPC   C2B51140  28.417   7.984   6.755
 9525POPC   C3B51141  28.381   7.984   7.055
 9525POPC   C4B51142  28.331   7.909   7.355
 9526POPC   NC351143  12.066   9.783   5.555
 9526POPC   PO451144  12.092   9.758   5.855
 9526POPC   GL151145  12.048   9.763   6.155
 9526POPC   GL251146  12.174   9.658   6.155
 9526POPC   C1A51147  12.098   9.737   6.455
 9526POPC   D2A51148  12.125   9.757   6.755
 9526POPC   C3A51149  12.091   9.731   7.055
 9526POPC   C4A51150  12.048   9.716   7.355
 9526POPC   C1B51151  12.263   9.616   6.455
 9526POPC   C2B51152  12.322   9.584   6.755
 9526POPC   C3B51153  12.331   9.657   7.055
 9526POPC   C4B51154  12.346   9.650   7.355
 9527POPC   NC351155   5.092   4.284   5.555
 9527POPC   PO451156   5.070   4.351   5.855
 9527POPC   GL151157   5.063   4.332   6.155
 9527POPC   GL251158   5.267   4.326   6.155
 9527POPC   C1A51159   5.071   4.282   6.455
 9527POPC   D2A51160   5.110   4.321   6.755
 9527POPC   C3A51161   5.044   4.344   7.055
 9527POPC   C4A51162   5.081   4.307   7.355
 9527POPC   C1B51163   5.385   4.354   6.455
 9527POPC   C2B51164   5.348   4.354   6.755
 9527POPC   C3B51165   5.364   4.366   7.055
 9527POPC   C4B51166   5.323   4.342   7.355
 9528POPC   NC351167  24.481  24.457   5.555
 9528POPC   PO451168  24.459  24.513   5.855
 9528POPC   GL151169  24.531  24.476   6.155
 9528POPC   GL251170  24.456  24.372   6.155
 9528POPC   C1A51171  24.453  24.529   6.455
 9528POPC   D2A51172  24.511  24.443   6.755
 9528POPC   C3A51173  24.482  24.459   7.055
 9528POPC   C4A51174  24.488  24.531   7.355
 9528POPC   C1B51175  24.424  24.308   6.455
 9528POPC   C2B51176  24.383  24.224   6.755
 9528POPC   C3B51177  24.375  24.241   7.055
 9528POPC   C4B51178  24.372  24.275   7.355
 9529POPC   NC351179  29.927   8.163   5.555
 9529POPC   PO451180  29.937   8.177   5.855
 9529POPC   GL151181  29.933   8.161   6.155
 9529POPC   GL251182  29.991   8.342   6.155
 9529POPC   C1A51183  29.882   8.187   6.455
 9529POPC   D2A51184  29.901   8.153   6.755
 9529POPC   C3A51185  29.922   8.202   7.055
 9529POPC   C4A51186  29.935   8.226   7.355
 9529POPC   C1B51187  29.981   8.400   6.455
 9529POPC   C2B51188  29.986   8.403   6.755
 9529POPC   C3B51189  30.055   8.406   7.055
 9529POPC   C4B51190  29.963   8.478   7.355
 9530POPC   NC351191  40.762  24.448   5.555
 9530POPC   PO451192  40.793  24.440   5.855
 9530POPC   GL151193  40.737  24.465   6.155
 9530POPC   GL251194  40.698  24.650   6.155
 9530POPC   C1A51195  40.777  24.493   6.455
 9530POPC   D2A51196  40.819  24.505   6.755
 9530POPC   C3A51197  40.779  24.457   7.055
 9530POPC   C4A51198  40.749  24.509   7.355
 9530POPC   C1B51199  40.730  24.746   6.455
 9530POPC   C2B51200  40.721  24.732   6.755
 9530POPC   C3B51201  40.685  24.766   7.055
 9530POPC   C4B51202  40.714  24.696   7.355
 9531POPC   NC351203   1.230  22.121   5.555
 9531POPC   PO451204   1.172  22.121   5.855
 9531POPC   GL151205   1.259  22.146   6.155
 9531POPC   GL251206   1.194  22.071   6.155
 9531POPC   C1A51207   1.243  22.210   6.455
 9531POPC   D2A51208   1.263  22.142   6.755
 9531POPC   C3A51209   1.210  22.120   7.055
 9531POPC   C4A51210   1.197  22.178   7.355
 9531POPC   C1B51211   1.241  21.922   6.455
 9531POPC   C2B51212   1.277  21.905   6.755
 9531POPC   C3B51213   1.264  21.881   7.055
 9531POPC   C4B51214   1.273  21.961   7.355
 9532POPC   NC351215  17.531   0.417   5.555
 9532POPC   PO451216  17.526   0.458   5.855
 9532POPC   GL151217  17.506   0.438   6.155
 9532POPC   GL251218  17.607   0.409   6.155
 9532POPC   C1A51219  17.533   0.427   6.455
 9532POPC   D2A51220  17.539   0.480   6.755
 9532POPC   C3A51221  17.491   0.418   7.055
 9532POPC   C4A51222  17.491   0.426   7.355
 9532POPC   C1B51223  17.753   0.473   6.455
 9532POPC   C2B51224  17.792   0.480   6.755
 9532POPC   C3B51225  17.760   0.459   7.055
 9532POPC   C4B51226  17.802   0.433   7.355
 9533POPC   NC351227   0.470  26.771   5.555
 9533POPC   PO451228   0.418  26.771   5.855
 9533POPC   GL151229   0.397  26.815   6.155
 9533POPC   GL251230   0.312  26.847   6.155
 9533POPC   C1A51231   0.420  26.831   6.455
 9533POPC   D2A51232   0.412  26.806   6.755
 9533POPC   C3A51233   0.455  26.786   7.055
 9533POPC   C4A51234   0.421  26.798   7.355
 9533POPC   C1B51235   0.174  26.935   6.455
 9533POPC   C2B51236   0.239  26.919   6.755
 9533POPC   C3B51237   0.244  26.944   7.055
 9533POPC   C4B51238   0.239  26.938   7.355
 9534POPC   NC351239   2.017  42.319   5.555
 9534POPC   PO451240   2.001  42.347   5.855
 9534POPC   GL151241   1.949  42.309   6.155
 9534POPC   GL251242   1.998  42.418   6.155
 9534POPC   C1A51243   1.948  42.344   6.455
 9534POPC   D2A51244   1.974  42.314   6.755
 9534POPC   C3A51245   1.969  42.316   7.055
 9534POPC   C4A51246   1.952  42.360   7.355
 9534POPC   C1B51247   2.059  42.538   6.455
 9534POPC   C2B51248   2.055  42.625   6.755
 9534POPC   C3B51249   2.056  42.583   7.055
 9534POPC   C4B51250   2.068  42.586   7.355
 9535POPC   NC351251  14.364  44.675   5.555
 9535POPC   PO451252  14.354  44.645   5.855
 9535POPC   GL151253  14.402  44.626   6.155
 9535POPC   GL251254  14.483  44.746   6.155
 9535POPC   C1A51255  14.408  44.644   6.455
 9535POPC   D2A51256  14.422  44.658   6.755
 9535POPC   C3A51257  14.414  44.620   7.055
 9535POPC   C4A51258  14.404  44.656   7.355
 9535POPC   C1B51259  14.577  44.801   6.455
 9535POPC   C2B51260  14.565  44.794   6.755
 9535POPC   C3B51261  14.591  44.820   7.055
 9535POPC   C4B51262  14.596  44.792   7.355
 9536POPC   NC351263  36.106  21.406   5.555
 9536POPC   PO451264  36.156  21.382   5.855
 9536POPC   GL151265  36.091  21.413   6.155
 9536POPC   GL251266  36.108  21.279   6.155
 9536POPC   C1A51267  36.100  21.372   6.455
 9536POPC   D2A51268  36.157  21.362   6.755
 9536POPC   C3A51269  36.159  21.401   7.055
 9536POPC   C4A51270  36.109  21.372   7.355
 9536POPC   C1B51271  36.047  21.157   6.455
 9536POPC   C2B51272  35.966  21.139   6.755
 9536POPC   C3B51273  35.995  21.144   7.055
 9536POPC   C4B51274  36.023  21.136   7.355
 9537POPC   NC351275  44.643   5.077   5.555
 9537POPC   PO451276  44.708   5.089   5.855
 9537POPC   GL151277  44.638   5.086   6.155
 9537POPC   GL251278  44.751   5.018   6.155
 9537POPC   C1A51279  44.658   5.085   6.455
 9537POPC   D2A51280  44.654   5.055   6.755
 9537POPC   C3A51281  44.698   5.051   7.055
 9537POPC   C4A51282  44.648   5.073   7.355
 9537POPC   C1B51283  44.856   4.922   6.455
 9537POPC   C2B51284  44.897   4.889   6.755
 9537POPC   C3B51285  44.840   4.886   7.055
 9537POPC   C4B51286  44.844   4.944   7.355
 9538POPC   NC351287  40.003   5.111   5.555
 9538POPC   PO451288  40.003   5.064   5.855
 9538POPC   GL151289  40.029   5.075   6.155
 9538POPC   GL251290  39.910   5.106   6.155
 9538POPC   C1A51291  39.998   5.066   6.455
 9538POPC   D2A51292  40.042   5.122   6.755
 9538POPC   C3A51293  40.032   5.077   7.055
 9538POPC   C4A51294  40.022   5.138   7.355
 9538POPC   C1B51295  39.714   5.129   6.455
 9538POPC   C2B51296  39.734   5.123   6.755
 9538POPC   C3B51297  39.758   5.162   7.055
 9538POPC   C4B51298  39.757   5.162   7.355
 9539POPC   NC351299  36.154  36.111   5.555
 9539POPC   PO451300  36.138  36.145   5.855
 9539POPC   GL151301  36.087  36.099   6.155
 9539POPC   GL251302  36.096  36.200   6.155
 9539POPC   C1A51303  36.167  36.174   6.455
 9539POPC   D2A51304  36.093  36.081   6.755
 9539POPC   C3A51305  36.151  36.090   7.055
 9539POPC   C4A51306  36.097  36.143   7.355
 9539POPC   C1B51307  36.081  36.409   6.455
 9539POPC   C2B51308  36.073  36.342   6.755
 9539POPC   C3B51309  36.068  36.376   7.055
 9539POPC   C4B51310  36.046  36.334   7.355
 9540POPC   NC351311  23.684  40.830   5.555
 9540POPC   PO451312  23.706  40.757   5.855
 9540POPC   GL151313  23.674  40.794   6.155
 9540POPC   GL251314  23.808  40.901   6.155
 9540POPC   C1A51315  23.746  40.739   6.455
 9540POPC   D2A51316  23.734  40.826   6.755
 9540POPC   C3A51317  23.730  40.773   7.055
 9540POPC   C4A51318  23.731  40.739   7.355
 9540POPC   C1B51319  23.949  40.954   6.455
 9540POPC   C2B51320  23.896  40.967   6.755
 9540POPC   C3B51321  23.941  40.994   7.055
 9540POPC   C4B51322  23.953  40.944   7.355
 9541POPC   NC351323  26.039  43.853   5.555
 9541POPC   PO451324  26.039  43.926   5.855
 9541POPC   GL151325  26.059  43.910   6.155
 9541POPC   GL251326  26.141  43.888   6.155
 9541POPC   C1A51327  26.037  43.876   6.455
 9541POPC   D2A51328  26.071  43.841   6.755
 9541POPC   C3A51329  26.022  43.888   7.055
 9541POPC   C4A51330  26.002  43.841   7.355
 9541POPC   C1B51331  26.243  43.852   6.455
 9541POPC   C2B51332  26.319  43.926   6.755
 9541POPC   C3B51333  26.271  43.907   7.055
 9541POPC   C4B51334  26.324  43.906   7.355
 9542POPC   NC351335   8.925  15.956   5.555
 9542POPC   PO451336   8.962  15.941   5.855
 9542POPC   GL151337   9.016  15.966   6.155
 9542POPC   GL251338   9.139  15.919   6.155
 9542POPC   C1A51339   8.956  15.927   6.455
 9542POPC   D2A51340   8.928  15.948   6.755
 9542POPC   C3A51341   8.971  15.918   7.055
 9542POPC   C4A51342   8.983  15.934   7.355
 9542POPC   C1B51343   9.237  15.858   6.455
 9542POPC   C2B51344   9.240  15.933   6.755
 9542POPC   C3B51345   9.177  15.865   7.055
 9542POPC   C4B51346   9.230  15.868   7.355
 9543POPC   NC351347   8.168  15.952   5.555
 9543POPC   PO451348   8.204  15.951   5.855
 9543POPC   GL151349   8.179  16.000   6.155
 9543POPC   GL251350   8.244  15.876   6.155
 9543POPC   C1A51351   8.175  15.942   6.455
 9543POPC   D2A51352   8.170  15.921   6.755
 9543POPC   C3A51353   8.220  15.906   7.055
 9543POPC   C4A51354   8.216  16.004   7.355
 9543POPC   C1B51355   8.229  15.735   6.455
 9543POPC   C2B51356   8.239  15.749   6.755
 9543POPC   C3B51357   8.239  15.711   7.055
 9543POPC   C4B51358   8.223  15.749   7.355
 9544POPC   NC351359  30.724  28.361   5.555
 9544POPC   PO451360  30.712  28.414   5.855
 9544POPC   GL151361  30.707  28.361   6.155
 9544POPC   GL251362  30.604  28.275   6.155
 9544POPC   C1A51363  30.690  28.339   6.455
 9544POPC   D2A51364  30.716  28.409   6.755
 9544POPC   C3A51365  30.655  28.345   7.055
 9544POPC   C4A51366  30.667  28.357   7.355
 9544POPC   C1B51367  30.431  28.225   6.455
 9544POPC   C2B51368  30.437  28.274   6.755
 9544POPC   C3B51369  30.455  28.258   7.055
 9544POPC   C4B51370  30.473  28.301   7.355
 9545POPC   NC351371   6.624  11.347   5.555
 9545POPC   PO451372   6.607  11.251   5.855
 9545POPC   GL151373   6.615  11.350   6.155
 9545POPC   GL251374   6.623  11.427   6.155
 9545POPC   C1A51375   6.596  11.282   6.455
 9545POPC   D2A51376   6.631  11.297   6.755
 9545POPC   C3A51377   6.664  11.309   7.055
 9545POPC   C4A51378   6.596  11.333   7.355
 9545POPC   C1B51379   6.526  11.566   6.455
 9545POPC   C2B51380   6.607  11.575   6.755
 9545POPC   C3B51381   6.604  11.526   7.055
 9545POPC   C4B51382   6.521  11.491   7.355
 9546POPC   NC351383  23.745  35.310   5.555
 9546POPC   PO451384  23.734  35.376   5.855
 9546POPC   GL151385  23.685  35.307   6.155
 9546POPC   GL251386  23.849  35.380   6.155
 9546POPC   C1A51387  23.697  35.338   6.455
 9546POPC   D2A51388  23.688  35.337   6.755
 9546POPC   C3A51389  23.675  35.349   7.055
 9546POPC   C4A51390  23.758  35.375   7.355
 9546POPC   C1B51391  23.914  35.387   6.455
 9546POPC   C2B51392  23.930  35.451   6.755
 9546POPC   C3B51393  23.927  35.435   7.055
 9546POPC   C4B51394  24.000  35.399   7.355
 9547POPC   NC351395  19.106  30.722   5.555
 9547POPC   PO451396  19.071  30.653   5.855
 9547POPC   GL151397  19.033  30.693   6.155
 9547POPC   GL251398  19.051  30.856   6.155
 9547POPC   C1A51399  19.056  30.696   6.455
 9547POPC   D2A51400  19.052  30.734   6.755
 9547POPC   C3A51401  19.017  30.689   7.055
 9547POPC   C4A51402  19.033  30.658   7.355
 9547POPC   C1B51403  19.048  30.921   6.455
 9547POPC   C2B51404  19.023  30.955   6.755
 9547POPC   C3B51405  19.007  30.982   7.055
 9547POPC   C4B51406  19.066  30.958   7.355
 9548POPC   NC351407  22.907   0.464   5.555
 9548POPC   PO451408  22.927   0.423   5.855
 9548POPC   GL151409  22.889   0.483   6.155
 9548POPC   GL251410  23.045   0.486   6.155
 9548POPC   C1A51411  22.964   0.403   6.455
 9548POPC   D2A51412  22.952   0.443   6.755
 9548POPC   C3A51413  22.890   0.475   7.055
 9548POPC   C4A51414  22.972   0.405   7.355
 9548POPC   C1B51415  23.170   0.475   6.455
 9548POPC   C2B51416  23.215   0.509   6.755
 9548POPC   C3B51417  23.220   0.533   7.055
 9548POPC   C4B51418  23.134   0.472   7.355
 9549POPC   NC351419   5.122  33.048   5.555
 9549POPC   PO451420   5.115  33.055   5.855
 9549POPC   GL151421   5.084  33.021   6.155
 9549POPC   GL251422   5.143  32.961   6.155
 9549POPC   C1A51423   5.083  33.005   6.455
 9549POPC   D2A51424   5.049  32.997   6.755
 9549POPC   C3A51425   5.085  33.043   7.055
 9549POPC   C4A51426   5.095  33.066   7.355
 9549POPC   C1B51427   5.274  32.839   6.455
 9549POPC   C2B51428   5.274  32.832   6.755
 9549POPC   C3B51429   5.275  32.850   7.055
 9549POPC   C4B51430   5.267  32.810   7.355
 9550POPC   NC351431  11.276  14.449   5.555
 9550POPC   PO451432  11.270  14.378   5.855
 9550POPC   GL151433  11.288  14.422   6.155
 9550POPC   GL251434  11.431  14.325   6.155
 9550POPC   C1A51435  11.284  14.402   6.455
 9550POPC   D2A51436  11.254  14.448   6.755
 9550POPC   C3A51437  11.343  14.377   7.055
 9550POPC   C4A51438  11.292  14.400   7.355
 9550POPC   C1B51439  11.442  14.209   6.455
 9550POPC   C2B51440  11.459  14.210   6.755
 9550POPC   C3B51441  11.474  14.188   7.055
 9550POPC   C4B51442  11.470  14.211   7.355
 9551POPC   NC351443  40.794  33.794   5.555
 9551POPC   PO451444  40.736  33.809   5.855
 9551POPC   GL151445  40.800  33.849   6.155
 9551POPC   GL251446  40.840  33.688   6.155
 9551POPC   C1A51447  40.800  33.847   6.455
 9551POPC   D2A51448  40.812  33.835   6.755
 9551POPC   C3A51449  40.767  33.769   7.055
 9551POPC   C4A51450  40.826  33.817   7.355
 9551POPC   C1B51451  40.902  33.525   6.455
 9551POPC   C2B51452  40.870  33.551   6.755
 9551POPC   C3B51453  40.861  33.558   7.055
 9551POPC   C4B51454  40.888  33.587   7.355
 9552POPC   NC351455  14.375  17.507   5.555
 9552POPC   PO451456  14.374  17.492   5.855
 9552POPC   GL151457  14.424  17.480   6.155
 9552POPC   GL251458  14.330  17.564   6.155
 9552POPC   C1A51459  14.410  17.499   6.455
 9552POPC   D2A51460  14.403  17.464   6.755
 9552POPC   C3A51461  14.444  17.513   7.055
 9552POPC   C4A51462  14.406  17.484   7.355
 9552POPC   C1B51463  14.261  17.724   6.455
 9552POPC   C2B51464  14.290  17.742   6.755
 9552POPC   C3B51465  14.293  17.676   7.055
 9552POPC   C4B51466  14.282  17.757   7.355
 9553POPC   NC351467  30.732  18.287   5.555
 9553POPC   PO451468  30.658  18.323   5.855
 9553POPC   GL151469  30.722  18.306   6.155
 9553POPC   GL251470  30.757  18.361   6.155
 9553POPC   C1A51471  30.686  18.287   6.455
 9553POPC   D2A51472  30.732  18.236   6.755
 9553POPC   C3A51473  30.691  18.259   7.055
 9553POPC   C4A51474  30.714  18.250   7.355
 9553POPC   C1B51475  30.890  18.487   6.455
 9553POPC   C2B51476  30.853  18.488   6.755
 9553POPC   C3B51477  30.847  18.424   7.055
 9553POPC   C4B51478  30.836  18.442   7.355
 9554POPC   NC351479  37.678   3.506   5.555
 9554POPC   PO451480  37.671   3.572   5.855
 9554POPC   GL151481  37.708   3.546   6.155
 9554POPC   GL251482  37.643   3.641   6.155
 9554POPC   C1A51483  37.642   3.499   6.455
 9554POPC   D2A51484  37.700   3.538   6.755
 9554POPC   C3A51485  37.712   3.505   7.055
 9554POPC   C4A51486  37.674   3.577   7.355
 9554POPC   C1B51487  37.505   3.739   6.455
 9554POPC   C2B51488  37.556   3.748   6.755
 9554POPC   C3B51489  37.511   3.716   7.055
 9554POPC   C4B51490  37.471   3.685   7.355
 9555POPC   NC351491  38.496  26.009   5.555
 9555POPC   PO451492  38.441  26.055   5.855
 9555POPC   GL151493  38.439  26.002   6.155
 9555POPC   GL251494  38.543  25.885   6.155
 9555POPC   C1A51495  38.495  26.046   6.455
 9555POPC   D2A51496  38.433  26.055   6.755
 9555POPC   C3A51497  38.414  26.050   7.055
 9555POPC   C4A51498  38.406  26.086   7.355
 9555POPC   C1B51499  38.605  25.858   6.455
 9555POPC   C2B51500  38.611  25.779   6.755
 9555POPC   C3B51501  38.581  25.814   7.055
 9555POPC   C4B51502  38.568  25.816   7.355
 9556POPC   NC351503   2.762  38.414   5.555
 9556POPC   PO451504   2.716  38.423   5.855
 9556POPC   GL151505   2.747  38.501   6.155
 9556POPC   GL251506   2.666  38.469   6.155
 9556POPC   C1A51507   2.815  38.473   6.455
 9556POPC   D2A51508   2.810  38.487   6.755
 9556POPC   C3A51509   2.810  38.498   7.055
 9556POPC   C4A51510   2.738  38.479   7.355
 9556POPC   C1B51511   2.562  38.562   6.455
 9556POPC   C2B51512   2.565  38.479   6.755
 9556POPC   C3B51513   2.521  38.555   7.055
 9556POPC   C4B51514   2.543  38.532   7.355
 9557POPC   NC351515  43.850   3.552   5.555
 9557POPC   PO451516  43.912   3.500   5.855
 9557POPC   GL151517  43.905   3.551   6.155
 9557POPC   GL251518  43.814   3.628   6.155
 9557POPC   C1A51519  43.902   3.508   6.455
 9557POPC   D2A51520  43.903   3.532   6.755
 9557POPC   C3A51521  43.885   3.563   7.055
 9557POPC   C4A51522  43.850   3.549   7.355
 9557POPC   C1B51523  43.710   3.677   6.455
 9557POPC   C2B51524  43.646   3.707   6.755
 9557POPC   C3B51525  43.706   3.700   7.055
 9557POPC   C4B51526  43.703   3.714   7.355
 9558POPC   NC351527   5.873  14.374   5.555
 9558POPC   PO451528   5.821  14.432   5.855
 9558POPC   GL151529   5.856  14.449   6.155
 9558POPC   GL251530   5.962  14.497   6.155
 9558POPC   C1A51531   5.888  14.377   6.455
 9558POPC   D2A51532   5.912  14.403   6.755
 9558POPC   C3A51533   5.869  14.419   7.055
 9558POPC   C4A51534   5.856  14.444   7.355
 9558POPC   C1B51535   5.965  14.575   6.455
 9558POPC   C2B51536   5.994  14.629   6.755
 9558POPC   C3B51537   5.969  14.651   7.055
 9558POPC   C4B51538   6.013  14.653   7.355
 9559POPC   NC351539  16.707  22.210   5.555
 9559POPC   PO451540  16.769  22.114   5.855
 9559POPC   GL151541  16.740  22.205   6.155
 9559POPC   GL251542  16.575  22.050   6.155
 9559POPC   C1A51543  16.693  22.187   6.455
 9559POPC   D2A51544  16.770  22.127   6.755
 9559POPC   C3A51545  16.747  22.185   7.055
 9559POPC   C4A51546  16.712  22.129   7.355
 9559POPC   C1B51547  16.535  22.080   6.455
 9559POPC   C2B51548  16.537  22.030   6.755
 9559POPC   C3B51549  16.554  22.001   7.055
 9559POPC   C4B51550  16.559  22.060   7.355
 9560POPC   NC351551   6.657   6.648   5.555
 9560POPC   PO451552   6.683   6.602   5.855
 9560POPC   GL151553   6.602   6.618   6.155
 9560POPC   GL251554   6.684   6.733   6.155
 9560POPC   C1A51555   6.601   6.668   6.455
 9560POPC   D2A51556   6.692   6.618   6.755
 9560POPC   C3A51557   6.616   6.601   7.055
 9560POPC   C4A51558   6.602   6.603   7.355
 9560POPC   C1B51559   6.783   6.918   6.455
 9560POPC   C2B51560   6.765   6.856   6.755
 9560POPC   C3B51561   6.735   6.891   7.055
 9560POPC   C4B51562   6.718   6.882   7.355
 9561POPC   NC351563  11.292   5.909   5.555
 9561POPC   PO451564  11.338   5.900   5.855
 9561POPC   GL151565  11.277   5.865   6.155
 9561POPC   GL251566  11.213   5.931   6.155
 9561POPC   C1A51567  11.292   5.822   6.455
 9561POPC   D2A51568  11.310   5.827   6.755
 9561POPC   C3A51569  11.288   5.835   7.055
 9561POPC   C4A51570  11.325   5.881   7.355
 9561POPC   C1B51571  11.080   5.904   6.455
 9561POPC   C2B51572  11.107   5.941   6.755
 9561POPC   C3B51573  11.020   5.977   7.055
 9561POPC   C4B51574  11.087   5.988   7.355
 9562POPC   NC351575  26.042  15.930   5.555
 9562POPC   PO451576  26.001  15.940   5.855
 9562POPC   GL151577  26.047  15.934   6.155
 9562POPC   GL251578  26.023  16.052   6.155
 9562POPC   C1A51579  26.027  15.911   6.455
 9562POPC   D2A51580  26.043  15.921   6.755
 9562POPC   C3A51581  26.053  15.979   7.055
 9562POPC   C4A51582  26.001  15.978   7.355
 9562POPC   C1B51583  25.941  16.222   6.455
 9562POPC   C2B51584  25.999  16.204   6.755
 9562POPC   C3B51585  25.953  16.232   7.055
 9562POPC   C4B51586  25.940  16.233   7.355
 9563POPC   NC351587  10.486   6.665   5.555
 9563POPC   PO451588  10.474   6.600   5.855
 9563POPC   GL151589  10.560   6.596   6.155
 9563POPC   GL251590  10.533   6.567   6.155
 9563POPC   C1A51591  10.483   6.615   6.455
 9563POPC   D2A51592  10.526   6.659   6.755
 9563POPC   C3A51593  10.516   6.609   7.055
 9563POPC   C4A51594  10.535   6.633   7.355
 9563POPC   C1B51595  10.649   6.362   6.455
 9563POPC   C2B51596  10.652   6.431   6.755
 9563POPC   C3B51597  10.646   6.376   7.055
 9563POPC   C4B51598  10.567   6.441   7.355
 9564POPC   NC351599  19.101  26.023   5.555
 9564POPC   PO451600  19.046  26.065   5.855
 9564POPC   GL151601  19.104  26.053   6.155
 9564POPC   GL251602  18.981  26.063   6.155
 9564POPC   C1A51603  19.024  25.999   6.455
 9564POPC   D2A51604  19.012  26.025   6.755
 9564POPC   C3A51605  19.048  26.010   7.055
 9564POPC   C4A51606  19.054  26.042   7.355
 9564POPC   C1B51607  18.865  26.100   6.455
 9564POPC   C2B51608  18.846  26.093   6.755
 9564POPC   C3B51609  18.845  26.083   7.055
 9564POPC   C4B51610  18.838  26.095   7.355
 9565POPC   NC351611  40.036  13.585   5.555
 9565POPC   PO451612  40.050  13.604   5.855
 9565POPC   GL151613  39.967  13.664   6.155
 9565POPC   GL251614  40.117  13.604   6.155
 9565POPC   C1A51615  39.992  13.676   6.455
 9565POPC   D2A51616  40.040  13.654   6.755
 9565POPC   C3A51617  40.009  13.598   7.055
 9565POPC   C4A51618  40.002  13.630   7.355
 9565POPC   C1B51619  40.210  13.582   6.455
 9565POPC   C2B51620  40.260  13.628   6.755
 9565POPC   C3B51621  40.259  13.658   7.055
 9565POPC   C4B51622  40.278  13.615   7.355
 9566POPC   NC351623  33.065   5.126   5.555
 9566POPC   PO451624  33.022   5.113   5.855
 9566POPC   GL151625  33.024   5.140   6.155
 9566POPC   GL251626  32.991   4.983   6.155
 9566POPC   C1A51627  33.030   5.060   6.455
 9566POPC   D2A51628  33.047   5.136   6.755
 9566POPC   C3A51629  33.050   5.133   7.055
 9566POPC   C4A51630  32.985   5.085   7.355
 9566POPC   C1B51631  33.008   4.800   6.455
 9566POPC   C2B51632  33.030   4.850   6.755
 9566POPC   C3B51633  33.074   4.832   7.055
 9566POPC   C4B51634  33.031   4.867   7.355
 9567POPC   NC351635  23.723  36.131   5.555
 9567POPC   PO451636  23.764  36.147   5.855
 9567POPC   GL151637  23.704  36.160   6.155
 9567POPC   GL251638  23.828  36.043   6.155
 9567POPC   C1A51639  23.697  36.083   6.455
 9567POPC   D2A51640  23.683  36.120   6.755
 9567POPC   C3A51641  23.763  36.160   7.055
 9567POPC   C4A51642  23.745  36.152   7.355
 9567POPC   C1B51643  23.928  36.005   6.455
 9567POPC   C2B51644  23.956  36.011   6.755
 9567POPC   C3B51645  23.893  35.961   7.055
 9567POPC   C4B51646  23.888  35.999   7.355
 9568POPC   NC351647   4.332   5.088   5.555
 9568POPC   PO451648   4.313   5.117   5.855
 9568POPC   GL151649   4.325   5.081   6.155
 9568POPC   GL251650   4.173   5.126   6.155
 9568POPC   C1A51651   4.340   5.089   6.455
 9568POPC   D2A51652   4.340   5.126   6.755
 9568POPC   C3A51653   4.325   5.116   7.055
 9568POPC   C4A51654   4.307   5.122   7.355
 9568POPC   C1B51655   4.041   5.142   6.455
 9568POPC   C2B51656   4.071   5.164   6.755
 9568POPC   C3B51657   4.108   5.174   7.055
 9568POPC   C4B51658   4.104   5.215   7.355
 9569POPC   NC351659  30.740  11.289   5.555
 9569POPC   PO451660  30.689  11.275   5.855
 9569POPC   GL151661  30.700  11.347   6.155
 9569POPC   GL251662  30.609  11.408   6.155
 9569POPC   C1A51663  30.685  11.326   6.455
 9569POPC   D2A51664  30.666  11.264   6.755
 9569POPC   C3A51665  30.669  11.286   7.055
 9569POPC   C4A51666  30.676  11.310   7.355
 9569POPC   C1B51667  30.633  11.507   6.455
 9569POPC   C2B51668  30.597  11.559   6.755
 9569POPC   C3B51669  30.582  11.510   7.055
 9569POPC   C4B51670  30.613  11.572   7.355
 9570POPC   NC351671  34.601  36.945   5.555
 9570POPC   PO451672  34.536  36.881   5.855
 9570POPC   GL151673  34.605  36.854   6.155
 9570POPC   GL251674  34.699  36.863   6.155
 9570POPC   C1A51675  34.555  36.945   6.455
 9570POPC   D2A51676  34.597  36.869   6.755
 9570POPC   C3A51677  34.593  36.866   7.055
 9570POPC   C4A51678  34.602  36.917   7.355
 9570POPC   C1B51679  34.794  36.791   6.455
 9570POPC   C2B51680  34.824  36.841   6.755
 9570POPC   C3B51681  34.806  36.799   7.055
 9570POPC   C4B51682  34.767  36.861   7.355
 9571POPC   NC351683   2.021  43.125   5.555
 9571POPC   PO451684   1.967  43.114   5.855
 9571POPC   GL151685   1.979  43.149   6.155
 9571POPC   GL251686   1.935  43.003   6.155
 9571POPC   C1A51687   2.011  43.081   6.455
 9571POPC   D2A51688   1.964  43.069   6.755
 9571POPC   C3A51689   1.951  43.124   7.055
 9571POPC   C4A51690   1.951  43.063   7.355
 9571POPC   C1B51691   1.801  42.951   6.455
 9571POPC   C2B51692   1.769  42.952   6.755
 9571POPC   C3B51693   1.788  42.984   7.055
 9571POPC   C4B51694   1.829  42.923   7.355
 9572POPC   NC351695  38.455  34.624   5.555
 9572POPC   PO451696  38.440  34.623   5.855
 9572POPC   GL151697  38.409  34.622   6.155
 9572POPC   GL251698  38.311  34.543   6.155
 9572POPC   C1A51699  38.407  34.587   6.455
 9572POPC   D2A51700  38.498  34.550   6.755
 9572POPC   C3A51701  38.447  34.614   7.055
 9572POPC   C4A51702  38.411  34.548   7.355
 9572POPC   C1B51703  38.291  34.397   6.455
 9572POPC   C2B51704  38.261  34.387   6.755
 9572POPC   C3B51705  38.216  34.441   7.055
 9572POPC   C4B51706  38.289  34.468   7.355
 9573POPC   NC351707  17.469  26.016   5.555
 9573POPC   PO451708  17.475  26.065   5.855
 9573POPC   GL151709  17.547  26.031   6.155
 9573POPC   GL251710  17.574  26.156   6.155
 9573POPC   C1A51711  17.523  26.010   6.455
 9573POPC   D2A51712  17.461  26.052   6.755
 9573POPC   C3A51713  17.503  26.028   7.055
 9573POPC   C4A51714  17.516  26.021   7.355
 9573POPC   C1B51715  17.632  26.228   6.455
 9573POPC   C2B51716  17.631  26.193   6.755
 9573POPC   C3B51717  17.651  26.200   7.055
 9573POPC   C4B51718  17.704  26.257   7.355
 9574POPC   NC351719  13.644  21.422   5.555
 9574POPC   PO451720  13.585  21.341   5.855
 9574POPC   GL151721  13.632  21.382   6.155
 9574POPC   GL251722  13.583  21.525   6.155
 9574POPC   C1A51723  13.616  21.407   6.455
 9574POPC   D2A51724  13.599  21.338   6.755
 9574POPC   C3A51725  13.615  21.398   7.055
 9574POPC   C4A51726  13.589  21.354   7.355
 9574POPC   C1B51727  13.575  21.668   6.455
 9574POPC   C2B51728  13.560  21.661   6.755
 9574POPC   C3B51729  13.586  21.598   7.055
 9574POPC   C4B51730  13.552  21.618   7.355
 9575POPC   NC351731   5.081  42.356   5.555
 9575POPC   PO451732   5.077  42.300   5.855
 9575POPC   GL151733   5.056  42.354   6.155
 9575POPC   GL251734   5.039  42.488   6.155
 9575POPC   C1A51735   5.076  42.311   6.455
 9575POPC   D2A51736   5.043  42.365   6.755
 9575POPC   C3A51737   5.111  42.296   7.055
 9575POPC   C4A51738   5.062  42.354   7.355
 9575POPC   C1B51739   4.980  42.552   6.455
 9575POPC   C2B51740   4.972  42.569   6.755
 9575POPC   C3B51741   4.941  42.518   7.055
 9575POPC   C4B51742   5.003  42.559   7.355
 9576POPC   NC351743   2.785  19.850   5.555
 9576POPC   PO451744   2.759  19.807   5.855
 9576POPC   GL151745   2.774  19.789   6.155
 9576POPC   GL251746   2.609  19.857   6.155
 9576POPC   C1A51747   2.779  19.839   6.455
 9576POPC   D2A51748   2.773  19.879   6.755
 9576POPC   C3A51749   2.750  19.844   7.055
 9576POPC   C4A51750   2.803  19.792   7.355
 9576POPC   C1B51751   2.541  19.983   6.455
 9576POPC   C2B51752   2.577  19.955   6.755
 9576POPC   C3B51753   2.579  19.991   7.055
 9576POPC   C4B51754   2.591  20.002   7.355
 9577POPC   NC351755  27.615  19.104   5.555
 9577POPC   PO451756  27.544  19.050   5.855
 9577POPC   GL151757  27.619  19.032   6.155
 9577POPC   GL251758  27.654  18.991   6.155
 9577POPC   C1A51759  27.565  19.058   6.455
 9577POPC   D2A51760  27.636  19.073   6.755
 9577POPC   C3A51761  27.547  19.039   7.055
 9577POPC   C4A51762  27.588  19.035   7.355
 9577POPC   C1B51763  27.651  18.782   6.455
 9577POPC   C2B51764  27.687  18.865   6.755
 9577POPC   C3B51765  27.731  18.830   7.055
 9577POPC   C4B51766  27.668  18.844   7.355
 9578POPC   NC351767  33.803  12.825   5.555
 9578POPC   PO451768  33.833  12.868   5.855
 9578POPC   GL151769  33.831  12.831   6.155
 9578POPC   GL251770  33.867  12.758   6.155
 9578POPC   C1A51771  33.807  12.899   6.455
 9578POPC   D2A51772  33.845  12.876   6.755
 9578POPC   C3A51773  33.819  12.810   7.055
 9578POPC   C4A51774  33.827  12.891   7.355
 9578POPC   C1B51775  34.034  12.751   6.455
 9578POPC   C2B51776  34.031  12.740   6.755
 9578POPC   C3B51777  34.063  12.752   7.055
 9578POPC   C4B51778  34.066  12.704   7.355
 9579POPC   NC351779  29.885  42.348   5.555
 9579POPC   PO451780  29.936  42.309   5.855
 9579POPC   GL151781  29.970  42.362   6.155
 9579POPC   GL251782  29.853  42.406   6.155
 9579POPC   C1A51783  29.881  42.345   6.455
 9579POPC   D2A51784  29.920  42.376   6.755
 9579POPC   C3A51785  29.955  42.287   7.055
 9579POPC   C4A51786  29.969  42.310   7.355
 9579POPC   C1B51787  29.707  42.535   6.455
 9579POPC   C2B51788  29.731  42.461   6.755
 9579POPC   C3B51789  29.732  42.469   7.055
 9579POPC   C4B51790  29.699  42.471   7.355
 9580POPC   NC351791  10.500  44.679   5.555
 9580POPC   PO451792  10.488  44.658   5.855
 9580POPC   GL151793  10.529  44.642   6.155
 9580POPC   GL251794  10.597  44.672   6.155
 9580POPC   C1A51795  10.557  44.662   6.455
 9580POPC   D2A51796  10.510  44.669   6.755
 9580POPC   C3A51797  10.475  44.683   7.055
 9580POPC   C4A51798  10.500  44.629   7.355
 9580POPC   C1B51799  10.754  44.742   6.455
 9580POPC   C2B51800  10.727  44.791   6.755
 9580POPC   C3B51801  10.717  44.718   7.055
 9580POPC   C4B51802  10.757  44.738   7.355
 9581POPC   NC351803   2.756  10.555   5.555
 9581POPC   PO451804   2.790  10.490   5.855
 9581POPC   GL151805   2.807  10.535   6.155
 9581POPC   GL251806   2.674  10.579   6.155
 9581POPC   C1A51807   2.768  10.510   6.455
 9581POPC   D2A51808   2.805  10.562   6.755
 9581POPC   C3A51809   2.765  10.547   7.055
 9581POPC   C4A51810   2.728  10.545   7.355
 9581POPC   C1B51811   2.584  10.736   6.455
 9581POPC   C2B51812   2.602  10.666   6.755
 9581POPC   C3B51813   2.579  10.754   7.055
 9581POPC   C4B51814   2.610  10.656   7.355
 9582POPC   NC351815  43.156  17.484   5.555
 9582POPC   PO451816  43.153  17.494   5.855
 9582POPC   GL151817  43.139  17.554   6.155
 9582POPC   GL251818  43.220  17.418   6.155
 9582POPC   C1A51819  43.065  17.500   6.455
 9582POPC   D2A51820  43.138  17.462   6.755
 9582POPC   C3A51821  43.084  17.520   7.055
 9582POPC   C4A51822  43.119  17.547   7.355
 9582POPC   C1B51823  43.289  17.438   6.455
 9582POPC   C2B51824  43.286  17.385   6.755
 9582POPC   C3B51825  43.350  17.439   7.055
 9582POPC   C4B51826  43.372  17.358   7.355
 9583POPC   NC351827  43.930  23.716   5.555
 9583POPC   PO451828  43.838  23.723   5.855
 9583POPC   GL151829  43.882  23.762   6.155
 9583POPC   GL251830  43.716  23.740   6.155
 9583POPC   C1A51831  43.874  23.717   6.455
 9583POPC   D2A51832  43.842  23.697   6.755
 9583POPC   C3A51833  43.935  23.721   7.055
 9583POPC   C4A51834  43.843  23.677   7.355
 9583POPC   C1B51835  43.671  23.753   6.455
 9583POPC   C2B51836  43.611  23.757   6.755
 9583POPC   C3B51837  43.598  23.746   7.055
 9583POPC   C4B51838  43.655  23.754   7.355
 9584POPC   NC351839   6.619  44.621   5.555
 9584POPC   PO451840   6.631  44.646   5.855
 9584POPC   GL151841   6.670  44.664   6.155
 9584POPC   GL251842   6.780  44.655   6.155
 9584POPC   C1A51843   6.600  44.635   6.455
 9584POPC   D2A51844   6.660  44.676   6.755
 9584POPC   C3A51845   6.668  44.661   7.055
 9584POPC   C4A51846   6.656  44.671   7.355
 9584POPC   C1B51847   6.874  44.621   6.455
 9584POPC   C2B51848   6.880  44.621   6.755
 9584POPC   C3B51849   6.845  44.673   7.055
 9584POPC   C4B51850   6.863  44.623   7.355
 9585POPC   NC351851  34.570  18.303   5.555
 9585POPC   PO451852  34.563  18.271   5.855
 9585POPC   GL151853  34.623  18.305   6.155
 9585POPC   GL251854  34.629  18.388   6.155
 9585POPC   C1A51855  34.558  18.255   6.455
 9585POPC   D2A51856  34.611  18.277   6.755
 9585POPC   C3A51857  34.530  18.311   7.055
 9585POPC   C4A51858  34.606  18.243   7.355
 9585POPC   C1B51859  34.679  18.544   6.455
 9585POPC   C2B51860  34.720  18.496   6.755
 9585POPC   C3B51861  34.700  18.497   7.055
 9585POPC   C4B51862  34.721  18.542   7.355
 9586POPC   NC351863  27.631  28.322   5.555
 9586POPC   PO451864  27.633  28.412   5.855
 9586POPC   GL151865  27.577  28.358   6.155
 9586POPC   GL251866  27.658  28.261   6.155
 9586POPC   C1A51867  27.605  28.399   6.455
 9586POPC   D2A51868  27.562  28.361   6.755
 9586POPC   C3A51869  27.614  28.372   7.055
 9586POPC   C4A51870  27.639  28.384   7.355
 9586POPC   C1B51871  27.638  28.164   6.455
 9586POPC   C2B51872  27.637  28.159   6.755
 9586POPC   C3B51873  27.597  28.127   7.055
 9586POPC   C4B51874  27.669  28.149   7.355
 9587POPC   NC351875  10.483  29.877   5.555
 9587POPC   PO451876  10.513  29.949   5.855
 9587POPC   GL151877  10.552  29.888   6.155
 9587POPC   GL251878  10.402  29.900   6.155
 9587POPC   C1A51879  10.477  29.889   6.455
 9587POPC   D2A51880  10.550  29.915   6.755
 9587POPC   C3A51881  10.563  29.947   7.055
 9587POPC   C4A51882  10.565  29.900   7.355
 9587POPC   C1B51883  10.316  29.825   6.455
 9587POPC   C2B51884  10.327  29.760   6.755
 9587POPC   C3B51885  10.346  29.804   7.055
 9587POPC   C4B51886  10.348  29.779   7.355
 9588POPC   NC351887  43.106  10.490   5.555
 9588POPC   PO451888  43.148  10.546   5.855
 9588POPC   GL151889  43.119  10.516   6.155
 9588POPC   GL251890  42.997  10.579   6.155
 9588POPC   C1A51891  43.138  10.514   6.455
 9588POPC   D2A51892  43.127  10.494   6.755
 9588POPC   C3A51893  43.131  10.478   7.055
 9588POPC   C4A51894  43.088  10.503   7.355
 9588POPC   C1B51895  42.908  10.517   6.455
 9588POPC   C2B51896  42.846  10.542   6.755
 9588POPC   C3B51897  42.842  10.545   7.055
 9588POPC   C4B51898  42.888  10.499   7.355
 9589POPC   NC351899  39.278  22.165   5.555
 9589POPC   PO451900  39.219  22.118   5.855
 9589POPC   GL151901  39.190  22.163   6.155
 9589POPC   GL251902  39.338  22.172   6.155
 9589POPC   C1A51903  39.217  22.121   6.455
 9589POPC   D2A51904  39.203  22.203   6.755
 9589POPC   C3A51905  39.235  22.131   7.055
 9589POPC   C4A51906  39.214  22.116   7.355
 9589POPC   C1B51907  39.448  22.245   6.455
 9589POPC   C2B51908  39.429  22.223   6.755
 9589POPC   C3B51909  39.436  22.270   7.055
 9589POPC   C4B51910  39.506  22.304   7.355
 9590POPC   NC351911  34.619  21.346   5.555
 9590POPC   PO451912  34.615  21.386   5.855
 9590POPC   GL151913  34.537  21.372   6.155
 9590POPC   GL251914  34.578  21.489   6.155
 9590POPC   C1A51915  34.613  21.373   6.455
 9590POPC   D2A51916  34.556  21.420   6.755
 9590POPC   C3A51917  34.624  21.399   7.055
 9590POPC   C4A51918  34.578  21.354   7.355
 9590POPC   C1B51919  34.516  21.629   6.455
 9590POPC   C2B51920  34.524  21.682   6.755
 9590POPC   C3B51921  34.581  21.654   7.055
 9590POPC   C4B51922  34.522  21.586   7.355
 9591POPC   NC351923  32.981  44.691   5.555
 9591POPC   PO451924  33.020  44.677   5.855
 9591POPC   GL151925  33.004  44.655   6.155
 9591POPC   GL251926  32.995  44.803   6.155
 9591POPC   C1A51927  33.061  44.704   6.455
 9591POPC   D2A51928  33.047  44.621   6.755
 9591POPC   C3A51929  33.010  44.684   7.055
 9591POPC   C4A51930  33.022  44.632   7.355
 9591POPC   C1B51931  32.952  44.918   6.455
 9591POPC   C2B51932  32.945  44.875   6.755
 9591POPC   C3B51933  32.933  44.909   7.055
 9591POPC   C4B51934  32.936  44.911   7.355
 9592POPC   NC351935   2.723  30.708   5.555
 9592POPC   PO451936   2.719  30.687   5.855
 9592POPC   GL151937   2.730  30.652   6.155
 9592POPC   GL251938   2.806  30.573   6.155
 9592POPC   C1A51939   2.760  30.728   6.455
 9592POPC   D2A51940   2.731  30.697   6.755
 9592POPC   C3A51941   2.777  30.706   7.055
 9592POPC   C4A51942   2.716  30.686   7.355
 9592POPC   C1B51943   2.913  30.524   6.455
 9592POPC   C2B51944   2.933  30.512   6.755
 9592POPC   C3B51945   2.888  30.447   7.055
 9592POPC   C4B51946   2.938  30.514   7.355
 9593POPC   NC351947   7.380  21.422   5.555
 9593POPC   PO451948   7.382  21.361   5.855
 9593POPC   GL151949   7.381  21.360   6.155
 9593POPC   GL251950   7.498  21.295   6.155
 9593POPC   C1A51951   7.394  21.396   6.455
 9593POPC   D2A51952   7.451  21.346   6.755
 9593POPC   C3A51953   7.439  21.415   7.055
 9593POPC   C4A51954   7.373  21.385   7.355
 9593POPC   C1B51955   7.567  21.242   6.455
 9593POPC   C2B51956   7.582  21.236   6.755
 9593POPC   C3B51957   7.634  21.240   7.055
 9593POPC   C4B51958   7.632  21.263   7.355
 9594POPC   NC351959  30.742  14.425   5.555
 9594POPC   PO451960  30.728  14.367   5.855
 9594POPC   GL151961  30.653  14.381   6.155
 9594POPC   GL251962  30.591  14.300   6.155
 9594POPC   C1A51963  30.731  14.450   6.455
 9594POPC   D2A51964  30.687  14.429   6.755
 9594POPC   C3A51965  30.699  14.356   7.055
 9594POPC   C4A51966  30.656  14.428   7.355
 9594POPC   C1B51967  30.550  14.214   6.455
 9594POPC   C2B51968  30.525  14.259   6.755
 9594POPC   C3B51969  30.479  14.279   7.055
 9594POPC   C4B51970  30.521  14.237   7.355
 9595POPC   NC351971   9.741  29.169   5.555
 9595POPC   PO451972   9.782  29.115   5.855
 9595POPC   GL151973   9.792  29.156   6.155
 9595POPC   GL251974   9.878  29.178   6.155
 9595POPC   C1A51975   9.713  29.141   6.455
 9595POPC   D2A51976   9.735  29.108   6.755
 9595POPC   C3A51977   9.699  29.132   7.055
 9595POPC   C4A51978   9.737  29.100   7.355
 9595POPC   C1B51979   9.971  29.208   6.455
 9595POPC   C2B51980  10.008  29.230   6.755
 9595POPC   C3B51981  10.022  29.178   7.055
 9595POPC   C4B51982   9.996  29.186   7.355
 9596POPC   NC351983  10.564  10.527   5.555
 9596POPC   PO451984  10.568  10.520   5.855
 9596POPC   GL151985  10.530  10.532   6.155
 9596POPC   GL251986  10.620  10.550   6.155
 9596POPC   C1A51987  10.529  10.538   6.455
 9596POPC   D2A51988  10.475  10.495   6.755
 9596POPC   C3A51989  10.541  10.484   7.055
 9596POPC   C4A51990  10.520  10.555   7.355
 9596POPC   C1B51991  10.727  10.516   6.455
 9596POPC   C2B51992  10.775  10.528   6.755
 9596POPC   C3B51993  10.799  10.473   7.055
 9596POPC   C4B51994  10.817  10.500   7.355
 9597POPC   NC351995  39.989  25.992   5.555
 9597POPC   PO451996  39.996  26.065   5.855
 9597POPC   GL151997  40.054  25.999   6.155
 9597POPC   GL251998  40.087  26.165   6.155
 9597POPC   C1A51999  39.985  25.993   6.455
 9597POPC   D2A52000  40.031  25.994   6.755
 9597POPC   C3A52001  39.998  26.001   7.055
 9597POPC   C4A52002  40.011  26.017   7.355
 9597POPC   C1B52003  40.161  26.205   6.455
 9597POPC   C2B52004  40.227  26.231   6.755
 9597POPC   C3B52005  40.156  26.222   7.055
 9597POPC   C4B52006  40.149  26.214   7.355
 9598POPC   NC352007  22.212  29.116   5.555
 9598POPC   PO452008  22.185  29.144   5.855
 9598POPC   GL152009  22.178  29.187   6.155
 9598POPC   GL252010  22.087  29.067   6.155
 9598POPC   C1A52011  22.135  29.194   6.455
 9598POPC   D2A52012  22.189  29.190   6.755
 9598POPC   C3A52013  22.122  29.101   7.055
 9598POPC   C4A52014  22.118  29.154   7.355
 9598POPC   C1B52015  22.063  28.901   6.455
 9598POPC   C2B52016  21.971  28.981   6.755
 9598POPC   C3B52017  22.000  28.922   7.055
 9598POPC   C4B52018  22.055  28.915   7.355
 9599POPC   NC352019  32.279  26.829   5.555
 9599POPC   PO452020  32.225  26.861   5.855
 9599POPC   GL152021  32.251  26.823   6.155
 9599POPC   GL252022  32.221  26.693   6.155
 9599POPC   C1A52023  32.293  26.812   6.455
 9599POPC   D2A52024  32.204  26.795   6.755
 9599POPC   C3A52025  32.259  26.804   7.055
 9599POPC   C4A52026  32.259  26.805   7.355
 9599POPC   C1B52027  32.201  26.568   6.455
 9599POPC   C2B52028  32.200  26.576   6.755
 9599POPC   C3B52029  32.160  26.610   7.055
 9599POPC   C4B52030  32.211  26.551   7.355
 9600POPC   NC352031  40.804  19.046   5.555
 9600POPC   PO452032  40.799  19.094   5.855
 9600POPC   GL152033  40.800  19.041   6.155
 9600POPC   GL252034  40.712  19.218   6.155
 9600POPC   C1A52035  40.831  19.031   6.455
 9600POPC   D2A52036  40.821  19.093   6.755
 9600POPC   C3A52037  40.804  19.050   7.055
 9600POPC   C4A52038  40.795  19.041   7.355
 9600POPC   C1B52039  40.719  19.304   6.455
 9600POPC   C2B52040  40.728  19.283   6.755
 9600POPC   C3B52041  40.754  19.280   7.055
 9600POPC   C4B52042  40.722  19.338   7.355
 9601POPC   NC352043  31.433  30.673   5.555
 9601POPC   PO452044  31.450  30.681   5.855
 9601POPC   GL152045  31.433  30.693   6.155
 9601POPC   GL252046  31.386  30.762   6.155
 9601POPC   C1A52047  31.467  30.673   6.455
 9601POPC   D2A52048  31.514  30.704   6.755
 9601POPC   C3A52049  31.475  30.706   7.055
 9601POPC   C4A52050  31.477  30.733   7.355
 9601POPC   C1B52051  31.283  30.849   6.455
 9601POPC   C2B52052  31.321  30.881   6.755
 9601POPC   C3B52053  31.312  30.919   7.055
 9601POPC   C4B52054  31.307  30.869   7.355
 9602POPC   NC352055  12.046  31.518   5.555
 9602POPC   PO452056  12.089  31.508   5.855
 9602POPC   GL152057  12.052  31.423   6.155
 9602POPC   GL252058  11.947  31.374   6.155
 9602POPC   C1A52059  12.097  31.473   6.455
 9602POPC   D2A52060  12.115  31.424   6.755
 9602POPC   C3A52061  12.074  31.486   7.055
 9602POPC   C4A52062  12.030  31.478   7.355
 9602POPC   C1B52063  11.870  31.353   6.455
 9602POPC   C2B52064  11.914  31.331   6.755
 9602POPC   C3B52065  11.857  31.335   7.055
 9602POPC   C4B52066  11.848  31.357   7.355
 9603POPC   NC352067  12.104   5.108   5.555
 9603POPC   PO452068  12.043   5.068   5.855
 9603POPC   GL152069  12.044   5.108   6.155
 9603POPC   GL252070  11.995   5.051   6.155
 9603POPC   C1A52071  12.034   5.130   6.455
 9603POPC   D2A52072  12.093   5.119   6.755
 9603POPC   C3A52073  12.106   5.107   7.055
 9603POPC   C4A52074  12.113   5.090   7.355
 9603POPC   C1B52075  11.853   5.067   6.455
 9603POPC   C2B52076  11.786   4.998   6.755
 9603POPC   C3B52077  11.801   5.066   7.055
 9603POPC   C4B52078  11.872   5.044   7.355
 9604POPC   NC352079  43.915  21.400   5.555
 9604POPC   PO452080  43.932  21.412   5.855
 9604POPC   GL152081  43.907  21.391   6.155
 9604POPC   GL252082  43.766  21.479   6.155
 9604POPC   C1A52083  43.923  21.356   6.455
 9604POPC   D2A52084  43.848  21.424   6.755
 9604POPC   C3A52085  43.854  21.386   7.055
 9604POPC   C4A52086  43.907  21.373   7.355
 9604POPC   C1B52087  43.678  21.513   6.455
 9604POPC   C2B52088  43.701  21.501   6.755
 9604POPC   C3B52089  43.718  21.509   7.055
 9604POPC   C4B52090  43.642  21.506   7.355
 9605POPC   NC352091  20.592   1.211   5.555
 9605POPC   PO452092  20.581   1.220   5.855
 9605POPC   GL152093  20.646   1.250   6.155
 9605POPC   GL252094  20.742   1.189   6.155
 9605POPC   C1A52095  20.618   1.257   6.455
 9605POPC   D2A52096  20.567   1.189   6.755
 9605POPC   C3A52097  20.580   1.202   7.055
 9605POPC   C4A52098  20.646   1.200   7.355
 9605POPC   C1B52099  20.849   1.229   6.455
 9605POPC   C2B52100  20.891   1.194   6.755
 9605POPC   C3B52101  20.878   1.211   7.055
 9605POPC   C4B52102  20.835   1.172   7.355
 9606POPC   NC352103  37.635   5.063   5.555
 9606POPC   PO452104  37.635   5.111   5.855
 9606POPC   GL152105  37.630   5.092   6.155
 9606POPC   GL252106  37.597   4.957   6.155
 9606POPC   C1A52107  37.655   5.118   6.455
 9606POPC   D2A52108  37.662   5.059   6.755
 9606POPC   C3A52109  37.680   5.055   7.055
 9606POPC   C4A52110  37.718   5.094   7.355
 9606POPC   C1B52111  37.554   4.892   6.455
 9606POPC   C2B52112  37.560   4.892   6.755
 9606POPC   C3B52113  37.549   4.877   7.055
 9606POPC   C4B52114  37.506   4.867   7.355
 9607POPC   NC352115  22.165  27.553   5.555
 9607POPC   PO452116  22.201  27.546   5.855
 9607POPC   GL152117  22.208  27.548   6.155
 9607POPC   GL252118  22.125  27.529   6.155
 9607POPC   C1A52119  22.200  27.546   6.455
 9607POPC   D2A52120  22.155  27.635   6.755
 9607POPC   C3A52121  22.126  27.607   7.055
 9607POPC   C4A52122  22.177  27.619   7.355
 9607POPC   C1B52123  22.045  27.363   6.455
 9607POPC   C2B52124  21.967  27.442   6.755
 9607POPC   C3B52125  21.983  27.353   7.055
 9607POPC   C4B52126  22.041  27.389   7.355
 9608POPC   NC352127  29.145  33.030   5.555
 9608POPC   PO452128  29.136  32.996   5.855
 9608POPC   GL152129  29.101  33.031   6.155
 9608POPC   GL252130  28.981  33.073   6.155
 9608POPC   C1A52131  29.126  32.999   6.455
 9608POPC   D2A52132  29.191  33.063   6.755
 9608POPC   C3A52133  29.098  32.976   7.055
 9608POPC   C4A52134  29.141  32.989   7.355
 9608POPC   C1B52135  28.861  33.008   6.455
 9608POPC   C2B52136  28.894  33.036   6.755
 9608POPC   C3B52137  28.857  33.061   7.055
 9608POPC   C4B52138  28.891  33.037   7.355
 9609POPC   NC352139  29.918  37.641   5.555
 9609POPC   PO452140  29.877  37.718   5.855
 9609POPC   GL152141  29.945  37.653   6.155
 9609POPC   GL252142  29.774  37.723   6.155
 9609POPC   C1A52143  29.888  37.639   6.455
 9609POPC   D2A52144  29.872  37.713   6.755
 9609POPC   C3A52145  29.911  37.697   7.055
 9609POPC   C4A52146  29.891  37.660   7.355
 9609POPC   C1B52147  29.646  37.746   6.455
 9609POPC   C2B52148  29.722  37.722   6.755
 9609POPC   C3B52149  29.730  37.747   7.055
 9609POPC   C4B52150  29.659  37.738   7.355
 9610POPC   NC352151   8.179   2.726   5.555
 9610POPC   PO452152   8.238   2.799   5.855
 9610POPC   GL152153   8.163   2.790   6.155
 9610POPC   GL252154   8.196   2.640   6.155
 9610POPC   C1A52155   8.177   2.753   6.455
 9610POPC   D2A52156   8.213   2.788   6.755
 9610POPC   C3A52157   8.177   2.806   7.055
 9610POPC   C4A52158   8.200   2.769   7.355
 9610POPC   C1B52159   8.161   2.555   6.455
 9610POPC   C2B52160   8.224   2.475   6.755
 9610POPC   C3B52161   8.138   2.555   7.055
 9610POPC   C4B52162   8.140   2.529   7.355
 9611POPC   NC352163  36.896  23.703   5.555
 9611POPC   PO452164  36.931  23.727   5.855
 9611POPC   GL152165  36.922  23.717   6.155
 9611POPC   GL252166  36.897  23.801   6.155
 9611POPC   C1A52167  36.888  23.709   6.455
 9611POPC   D2A52168  36.866  23.732   6.755
 9611POPC   C3A52169  36.889  23.749   7.055
 9611POPC   C4A52170  36.897  23.727   7.355
 9611POPC   C1B52171  36.911  23.991   6.455
 9611POPC   C2B52172  36.854  23.919   6.755
 9611POPC   C3B52173  36.829  23.962   7.055
 9611POPC   C4B52174  36.839  23.955   7.355
 9612POPC   NC352175   2.740  22.142   5.555
 9612POPC   PO452176   2.762  22.137   5.855
 9612POPC   GL152177   2.779  22.183   6.155
 9612POPC   GL252178   2.687  22.176   6.155
 9612POPC   C1A52179   2.764  22.120   6.455
 9612POPC   D2A52180   2.754  22.194   6.755
 9612POPC   C3A52181   2.753  22.155   7.055
 9612POPC   C4A52182   2.789  22.149   7.355
 9612POPC   C1B52183   2.511  22.114   6.455
 9612POPC   C2B52184   2.563  22.110   6.755
 9612POPC   C3B52185   2.556  22.107   7.055
 9612POPC   C4B52186   2.556  22.108   7.355
 9613POPC   NC352187   5.908   9.750   5.555
 9613POPC   PO452188   5.830   9.734   5.855
 9613POPC   GL152189   5.911   9.753   6.155
 9613POPC   GL252190   5.972   9.859   6.155
 9613POPC   C1A52191   5.846   9.764   6.455
 9613POPC   D2A52192   5.881   9.764   6.755
 9613POPC   C3A52193   5.876   9.717   7.055
 9613POPC   C4A52194   5.865   9.738   7.355
 9613POPC   C1B52195   6.010   9.939   6.455
 9613POPC   C2B52196   5.954  10.012   6.755
 9613POPC   C3B52197   6.025   9.928   7.055
 9613POPC   C4B52198   5.950   9.969   7.355
 9614POPC   NC352199  27.620   1.246   5.555
 9614POPC   PO452200  27.559   1.177   5.855
 9614POPC   GL152201  27.638   1.207   6.155
 9614POPC   GL252202  27.435   1.177   6.155
 9614POPC   C1A52203  27.617   1.223   6.455
 9614POPC   D2A52204  27.546   1.258   6.755
 9614POPC   C3A52205  27.643   1.230   7.055
 9614POPC   C4A52206  27.569   1.222   7.355
 9614POPC   C1B52207  27.296   1.249   6.455
 9614POPC   C2B52208  27.296   1.222   6.755
 9614POPC   C3B52209  27.365   1.220   7.055
 9614POPC   C4B52210  27.381   1.208   7.355
 9615POPC   NC352211  19.869  44.689   5.555
 9615POPC   PO452212  19.860  44.701   5.855
 9615POPC   GL152213  19.814  44.631   6.155
 9615POPC   GL252214  19.786  44.547   6.155
 9615POPC   C1A52215  19.875  44.712   6.455
 9615POPC   D2A52216  19.876  44.639   6.755
 9615POPC   C3A52217  19.883  44.682   7.055
 9615POPC   C4A52218  19.846  44.639   7.355
 9615POPC   C1B52219  19.774  44.456   6.455
 9615POPC   C2B52220  19.791  44.425   6.755
 9615POPC   C3B52221  19.853  44.407   7.055
 9615POPC   C4B52222  19.819  44.388   7.355
 9616POPC   NC352223  18.325  36.154   5.555
 9616POPC   PO452224  18.297  36.127   5.855
 9616POPC   GL152225  18.331  36.093   6.155
 9616POPC   GL252226  18.188  36.265   6.155
 9616POPC   C1A52227  18.276  36.146   6.455
 9616POPC   D2A52228  18.236  36.093   6.755
 9616POPC   C3A52229  18.269  36.087   7.055
 9616POPC   C4A52230  18.276  36.167   7.355
 9616POPC   C1B52231  18.145  36.292   6.455
 9616POPC   C2B52232  18.178  36.308   6.755
 9616POPC   C3B52233  18.159  36.352   7.055
 9616POPC   C4B52234  18.159  36.349   7.355
 9617POPC   NC352235   5.136  28.353   5.555
 9617POPC   PO452236   5.107  28.351   5.855
 9617POPC   GL152237   5.107  28.380   6.155
 9617POPC   GL252238   4.985  28.321   6.155
 9617POPC   C1A52239   5.134  28.410   6.455
 9617POPC   D2A52240   5.109  28.358   6.755
 9617POPC   C3A52241   5.097  28.375   7.055
 9617POPC   C4A52242   5.077  28.346   7.355
 9617POPC   C1B52243   4.954  28.193   6.455
 9617POPC   C2B52244   4.934  28.186   6.755
 9617POPC   C3B52245   4.916  28.232   7.055
 9617POPC   C4B52246   4.909  28.174   7.355
 9618POPC   NC352247  25.224   4.304   5.555
 9618POPC   PO452248  25.271   4.293   5.855
 9618POPC   GL152249  25.271   4.308   6.155
 9618POPC   GL252250  25.161   4.250   6.155
 9618POPC   C1A52251  25.241   4.327   6.455
 9618POPC   D2A52252  25.277   4.351   6.755
 9618POPC   C3A52253  25.227   4.359   7.055
 9618POPC   C4A52254  25.246   4.285   7.355
 9618POPC   C1B52255  25.015   4.300   6.455
 9618POPC   C2B52256  25.068   4.277   6.755
 9618POPC   C3B52257  24.994   4.300   7.055
 9618POPC   C4B52258  24.987   4.260   7.355
 9619POPC   NC352259  11.333  15.210   5.555
 9619POPC   PO452260  11.326  15.133   5.855
 9619POPC   GL152261  11.325  15.221   6.155
 9619POPC   GL252262  11.379  15.134   6.155
 9619POPC   C1A52263  11.330  15.131   6.455
 9619POPC   D2A52264  11.342  15.206   6.755
 9619POPC   C3A52265  11.307  15.208   7.055
 9619POPC   C4A52266  11.347  15.175   7.355
 9619POPC   C1B52267  11.563  15.068   6.455
 9619POPC   C2B52268  11.546  15.088   6.755
 9619POPC   C3B52269  11.496  15.132   7.055
 9619POPC   C4B52270  11.512  15.078   7.355
 9620POPC   NC352271  22.941   2.774   5.555
 9620POPC   PO452272  22.924   2.789   5.855
 9620POPC   GL152273  22.957   2.738   6.155
 9620POPC   GL252274  23.053   2.729   6.155
 9620POPC   C1A52275  22.901   2.756   6.455
 9620POPC   D2A52276  22.971   2.734   6.755
 9620POPC   C3A52277  22.975   2.728   7.055
 9620POPC   C4A52278  22.892   2.770   7.355
 9620POPC   C1B52279  23.207   2.696   6.455
 9620POPC   C2B52280  23.210   2.626   6.755
 9620POPC   C3B52281  23.138   2.626   7.055
 9620POPC   C4B52282  23.155   2.690   7.355
 9621POPC   NC352283  32.266  15.214   5.555
 9621POPC   PO452284  32.223  15.148   5.855
 9621POPC   GL152285  32.280  15.181   6.155
 9621POPC   GL252286  32.192  15.151   6.155
 9621POPC   C1A52287  32.215  15.137   6.455
 9621POPC   D2A52288  32.264  15.198   6.755
 9621POPC   C3A52289  32.231  15.194   7.055
 9621POPC   C4A52290  32.217  15.150   7.355
 9621POPC   C1B52291  32.048  15.019   6.455
 9621POPC   C2B52292  32.066  14.992   6.755
 9621POPC   C3B52293  32.083  15.043   7.055
 9621POPC   C4B52294  32.050  15.050   7.355
 9622POPC   NC352295  11.286  20.563   5.555
 9622POPC   PO452296  11.257  20.603   5.855
 9622POPC   GL152297  11.263  20.563   6.155
 9622POPC   GL252298  11.170  20.585   6.155
 9622POPC   C1A52299  11.281  20.630   6.455
 9622POPC   D2A52300  11.290  20.620   6.755
 9622POPC   C3A52301  11.256  20.632   7.055
 9622POPC   C4A52302  11.253  20.608   7.355
 9622POPC   C1B52303  11.056  20.527   6.455
 9622POPC   C2B52304  11.088  20.491   6.755
 9622POPC   C3B52305  11.025  20.507   7.055
 9622POPC   C4B52306  11.057  20.488   7.355
 9623POPC   NC352307   5.890  18.284   5.555
 9623POPC   PO452308   5.889  18.297   5.855
 9623POPC   GL152309   5.851  18.325   6.155
 9623POPC   GL252310   5.700  18.293   6.155
 9623POPC   C1A52311   5.873  18.322   6.455
 9623POPC   D2A52312   5.872  18.288   6.755
 9623POPC   C3A52313   5.910  18.279   7.055
 9623POPC   C4A52314   5.873  18.306   7.355
 9623POPC   C1B52315   5.592  18.343   6.455
 9623POPC   C2B52316   5.660  18.378   6.755
 9623POPC   C3B52317   5.612  18.379   7.055
 9623POPC   C4B52318   5.610  18.383   7.355
 9624POPC   NC352319  36.168  27.564   5.555
 9624POPC   PO452320  36.158  27.578   5.855
 9624POPC   GL152321  36.173  27.580   6.155
 9624POPC   GL252322  36.014  27.623   6.155
 9624POPC   C1A52323  36.139  27.575   6.455
 9624POPC   D2A52324  36.133  27.606   6.755
 9624POPC   C3A52325  36.103  27.609   7.055
 9624POPC   C4A52326  36.078  27.594   7.355
 9624POPC   C1B52327  35.923  27.593   6.455
 9624POPC   C2B52328  35.892  27.621   6.755
 9624POPC   C3B52329  35.870  27.638   7.055
 9624POPC   C4B52330  35.918  27.605   7.355
 9625POPC   NC352331  23.735  43.121   5.555
 9625POPC   PO452332  23.753  43.104   5.855
 9625POPC   GL152333  23.733  43.148   6.155
 9625POPC   GL252334  23.790  43.195   6.155
 9625POPC   C1A52335  23.707  43.156   6.455
 9625POPC   D2A52336  23.692  43.136   6.755
 9625POPC   C3A52337  23.736  43.123   7.055
 9625POPC   C4A52338  23.745  43.085   7.355
 9625POPC   C1B52339  23.814  43.309   6.455
 9625POPC   C2B52340  23.845  43.325   6.755
 9625POPC   C3B52341  23.828  43.318   7.055
 9625POPC   C4B52342  23.900  43.274   7.355
 9626POPC   NC352343  14.411  31.468   5.555
 9626POPC   PO452344  14.439  31.475   5.855
 9626POPC   GL152345  14.432  31.445   6.155
 9626POPC   GL252346  14.533  31.387   6.155
 9626POPC   C1A52347  14.399  31.458   6.455
 9626POPC   D2A52348  14.437  31.487   6.755
 9626POPC   C3A52349  14.363  31.434   7.055
 9626POPC   C4A52350  14.375  31.504   7.355
 9626POPC   C1B52351  14.593  31.310   6.455
 9626POPC   C2B52352  14.652  31.330   6.755
 9626POPC   C3B52353  14.645  31.367   7.055
 9626POPC   C4B52354  14.611  31.318   7.355
 9627POPC   NC352355  15.228  44.660   5.555
 9627POPC   PO452356  15.213  44.632   5.855
 9627POPC   GL152357  15.229  44.628   6.155
 9627POPC   GL252358  15.204  44.770   6.155
 9627POPC   C1A52359  15.220  44.630   6.455
 9627POPC   D2A52360  15.132  44.639   6.755
 9627POPC   C3A52361  15.139  44.660   7.055
 9627POPC   C4A52362  15.160  44.692   7.355
 9627POPC   C1B52363  15.294  44.940   6.455
 9627POPC   C2B52364  15.276  44.942   6.755
 9627POPC   C3B52365  15.224  44.916   7.055
 9627POPC   C4B52366  15.287  44.913   7.355
 9628POPC   NC352367  26.804  41.530   5.555
 9628POPC   PO452368  26.795  41.605   5.855
 9628POPC   GL152369  26.771  41.574   6.155
 9628POPC   GL252370  26.761  41.472   6.155
 9628POPC   C1A52371  26.811  41.578   6.455
 9628POPC   D2A52372  26.798  41.572   6.755
 9628POPC   C3A52373  26.793  41.513   7.055
 9628POPC   C4A52374  26.850  41.513   7.355
 9628POPC   C1B52375  26.758  41.358   6.455
 9628POPC   C2B52376  26.722  41.367   6.755
 9628POPC   C3B52377  26.691  41.275   7.055
 9628POPC   C4B52378  26.776  41.341   7.355
 9629POPC   NC352379  27.634  15.212   5.555
 9629POPC   PO452380  27.591  15.149   5.855
 9629POPC   GL152381  27.603  15.153   6.155
 9629POPC   GL252382  27.518  15.221   6.155
 9629POPC   C1A52383  27.625  15.162   6.455
 9629POPC   D2A52384  27.558  15.157   6.755
 9629POPC   C3A52385  27.632  15.201   7.055
 9629POPC   C4A52386  27.575  15.137   7.355
 9629POPC   C1B52387  27.345  15.218   6.455
 9629POPC   C2B52388  27.363  15.214   6.755
 9629POPC   C3B52389  27.365  15.273   7.055
 9629POPC   C4B52390  27.375  15.225   7.355
 9630POPC   NC352391  39.972  38.452   5.555
 9630POPC   PO452392  40.003  38.452   5.855
 9630POPC   GL152393  39.963  38.429   6.155
 9630POPC   GL252394  40.010  38.576   6.155
 9630POPC   C1A52395  39.984  38.415   6.455
 9630POPC   D2A52396  39.962  38.476   6.755
 9630POPC   C3A52397  39.996  38.410   7.055
 9630POPC   C4A52398  40.038  38.442   7.355
 9630POPC   C1B52399  40.048  38.722   6.455
 9630POPC   C2B52400  40.070  38.735   6.755
 9630POPC   C3B52401  40.047  38.698   7.055
 9630POPC   C4B52402  40.079  38.701   7.355
 9631POPC   NC352403   6.686  43.105   5.555
 9631POPC   PO452404   6.689  43.092   5.855
 9631POPC   GL152405   6.678  43.130   6.155
 9631POPC   GL252406   6.755  43.046   6.155
 9631POPC   C1A52407   6.605  43.146   6.455
 9631POPC   D2A52408   6.671  43.119   6.755
 9631POPC   C3A52409   6.621  43.067   7.055
 9631POPC   C4A52410   6.613  43.120   7.355
 9631POPC   C1B52411   6.878  42.913   6.455
 9631POPC   C2B52412   6.804  42.901   6.755
 9631POPC   C3B52413   6.834  42.946   7.055
 9631POPC   C4B52414   6.797  42.913   7.355
 9632POPC   NC352415  31.506  12.846   5.555
 9632POPC   PO452416  31.470  12.820   5.855
 9632POPC   GL152417  31.454  12.889   6.155
 9632POPC   GL252418  31.347  12.911   6.155
 9632POPC   C1A52419  31.457  12.897   6.455
 9632POPC   D2A52420  31.455  12.892   6.755
 9632POPC   C3A52421  31.504  12.808   7.055
 9632POPC   C4A52422  31.466  12.881   7.355
 9632POPC   C1B52423  31.257  13.003   6.455
 9632POPC   C2B52424  31.249  13.004   6.755
 9632POPC   C3B52425  31.290  13.028   7.055
 9632POPC   C4B52426  31.325  13.024   7.355
 9633POPC   NC352427  13.657  43.108   5.555
 9633POPC   PO452428  13.613  43.111   5.855
 9633POPC   GL152429  13.605  43.075   6.155
 9633POPC   GL252430  13.719  43.015   6.155
 9633POPC   C1A52431  13.675  43.067   6.455
 9633POPC   D2A52432  13.673  43.103   6.755
 9633POPC   C3A52433  13.596  43.107   7.055
 9633POPC   C4A52434  13.663  43.139   7.355
 9633POPC   C1B52435  13.806  42.941   6.455
 9633POPC   C2B52436  13.794  42.922   6.755
 9633POPC   C3B52437  13.771  42.884   7.055
 9633POPC   C4B52438  13.788  42.862   7.355
 9634POPC   NC352439   9.774  29.948   5.555
 9634POPC   PO452440   9.789  29.917   5.855
 9634POPC   GL152441   9.791  29.925   6.155
 9634POPC   GL252442   9.887  29.853   6.155
 9634POPC   C1A52443   9.792  29.949   6.455
 9634POPC   D2A52444   9.708  29.962   6.755
 9634POPC   C3A52445   9.719  29.913   7.055
 9634POPC   C4A52446   9.718  29.889   7.355
 9634POPC   C1B52447   9.959  29.745   6.455
 9634POPC   C2B52448   9.903  29.719   6.755
 9634POPC   C3B52449   9.968  29.776   7.055
 9634POPC   C4B52450   9.889  29.747   7.355
 9635POPC   NC352451  40.017  18.321   5.555
 9635POPC   PO452452  39.976  18.287   5.855
 9635POPC   GL152453  40.029  18.320   6.155
 9635POPC   GL252454  40.132  18.380   6.155
 9635POPC   C1A52455  39.981  18.290   6.455
 9635POPC   D2A52456  40.042  18.332   6.755
 9635POPC   C3A52457  40.012  18.294   7.055
 9635POPC   C4A52458  39.997  18.241   7.355
 9635POPC   C1B52459  40.238  18.429   6.455
 9635POPC   C2B52460  40.229  18.495   6.755
 9635POPC   C3B52461  40.154  18.449   7.055
 9635POPC   C4B52462  40.197  18.405   7.355
 9636POPC   NC352463  33.816  13.635   5.555
 9636POPC   PO452464  33.809  13.640   5.855
 9636POPC   GL152465  33.751  13.649   6.155
 9636POPC   GL252466  33.649  13.644   6.155
 9636POPC   C1A52467  33.835  13.644   6.455
 9636POPC   D2A52468  33.754  13.609   6.755
 9636POPC   C3A52469  33.815  13.613   7.055
 9636POPC   C4A52470  33.794  13.595   7.355
 9636POPC   C1B52471  33.592  13.566   6.455
 9636POPC   C2B52472  33.588  13.621   6.755
 9636POPC   C3B52473  33.522  13.616   7.055
 9636POPC   C4B52474  33.521  13.589   7.355
 9637POPC   NC352475  39.266  38.422   5.555
 9637POPC   PO452476  39.205  38.414   5.855
 9637POPC   GL152477  39.230  38.443   6.155
 9637POPC   GL252478  39.082  38.540   6.155
 9637POPC   C1A52479  39.226  38.427   6.455
 9637POPC   D2A52480  39.232  38.498   6.755
 9637POPC   C3A52481  39.221  38.457   7.055
 9637POPC   C4A52482  39.226  38.446   7.355
 9637POPC   C1B52483  39.011  38.513   6.455
 9637POPC   C2B52484  39.044  38.517   6.755
 9637POPC   C3B52485  39.012  38.521   7.055
 9637POPC   C4B52486  38.971  38.536   7.355
 9638POPC   NC352487   4.275  12.874   5.555
 9638POPC   PO452488   4.318  12.900   5.855
 9638POPC   GL152489   4.315  12.890   6.155
 9638POPC   GL252490   4.264  12.988   6.155
 9638POPC   C1A52491   4.363  12.829   6.455
 9638POPC   D2A52492   4.303  12.869   6.755
 9638POPC   C3A52493   4.303  12.895   7.055
 9638POPC   C4A52494   4.314  12.836   7.355
 9638POPC   C1B52495   4.161  13.103   6.455
 9638POPC   C2B52496   4.133  13.048   6.755
 9638POPC   C3B52497   4.198  13.016   7.055
 9638POPC   C4B52498   4.153  13.040   7.355
 9639POPC   NC352499  40.031  28.363   5.555
 9639POPC   PO452500  40.038  28.405   5.855
 9639POPC   GL152501  40.046  28.327   6.155
 9639POPC   GL252502  39.911  28.418   6.155
 9639POPC   C1A52503  40.000  28.335   6.455
 9639POPC   D2A52504  40.010  28.334   6.755
 9639POPC   C3A52505  40.019  28.384   7.055
 9639POPC   C4A52506  40.023  28.327   7.355
 9639POPC   C1B52507  39.751  28.449   6.455
 9639POPC   C2B52508  39.768  28.435   6.755
 9639POPC   C3B52509  39.767  28.473   7.055
 9639POPC   C4B52510  39.780  28.510   7.355
 9640POPC   NC352511   4.293  33.779   5.555
 9640POPC   PO452512   4.327  33.773   5.855
 9640POPC   GL152513   4.302  33.819   6.155
 9640POPC   GL252514   4.365  33.927   6.155
 9640POPC   C1A52515   4.349  33.806   6.455
 9640POPC   D2A52516   4.364  33.843   6.755
 9640POPC   C3A52517   4.337  33.814   7.055
 9640POPC   C4A52518   4.310  33.850   7.355
 9640POPC   C1B52519   4.376  34.049   6.455
 9640POPC   C2B52520   4.344  34.096   6.755
 9640POPC   C3B52521   4.361  34.017   7.055
 9640POPC   C4B52522   4.318  34.031   7.355
 9641POPC   NC352523  12.079   3.496   5.555
 9641POPC   PO452524  12.117   3.548   5.855
 9641POPC   GL152525  12.094   3.589   6.155
 9641POPC   GL252526  12.152   3.436   6.155
 9641POPC   C1A52527  12.049   3.567   6.455
 9641POPC   D2A52528  12.085   3.514   6.755
 9641POPC   C3A52529  12.038   3.553   7.055
 9641POPC   C4A52530  12.054   3.573   7.355
 9641POPC   C1B52531  12.329   3.388   6.455
 9641POPC   C2B52532  12.247   3.411   6.755
 9641POPC   C3B52533  12.297   3.400   7.055
 9641POPC   C4B52534  12.283   3.421   7.355
 9642POPC   NC352535   4.321  21.422   5.555
 9642POPC   PO452536   4.294  21.364   5.855
 9642POPC   GL152537   4.292  21.380   6.155
 9642POPC   GL252538   4.443  21.328   6.155
 9642POPC   C1A52539   4.345  21.372   6.455
 9642POPC   D2A52540   4.280  21.362   6.755
 9642POPC   C3A52541   4.349  21.404   7.055
 9642POPC   C4A52542   4.327  21.395   7.355
 9642POPC   C1B52543   4.499  21.206   6.455
 9642POPC   C2B52544   4.515  21.210   6.755
 9642POPC   C3B52545   4.538  21.250   7.055
 9642POPC   C4B52546   4.505  21.277   7.355
 9643POPC   NC352547  21.344  33.795   5.555
 9643POPC   PO452548  21.426  33.791   5.855
 9643POPC   GL152549  21.422  33.828   6.155
 9643POPC   GL252550  21.255  33.776   6.155
 9643POPC   C1A52551  21.401  33.847   6.455
 9643POPC   D2A52552  21.383  33.846   6.755
 9643POPC   C3A52553  21.377  33.779   7.055
 9643POPC   C4A52554  21.380  33.765   7.355
 9643POPC   C1B52555  21.129  33.733   6.455
 9643POPC   C2B52556  21.175  33.765   6.755
 9643POPC   C3B52557  21.115  33.741   7.055
 9643POPC   C4B52558  21.167  33.761   7.355
 9644POPC   NC352559  40.022  24.483   5.555
 9644POPC   PO452560  39.967  24.485   5.855
 9644POPC   GL152561  39.962  24.536   6.155
 9644POPC   GL252562  40.023  24.601   6.155
 9644POPC   C1A52563  39.996  24.445   6.455
 9644POPC   D2A52564  40.043  24.493   6.755
 9644POPC   C3A52565  40.029  24.475   7.055
 9644POPC   C4A52566  39.968  24.498   7.355
 9644POPC   C1B52567  39.894  24.731   6.455
 9644POPC   C2B52568  39.955  24.731   6.755
 9644POPC   C3B52569  39.931  24.758   7.055
 9644POPC   C4B52570  39.981  24.739   7.355
 9645POPC   NC352571  34.559  11.316   5.555
 9645POPC   PO452572  34.571  11.318   5.855
 9645POPC   GL152573  34.618  11.332   6.155
 9645POPC   GL252574  34.459  11.178   6.155
 9645POPC   C1A52575  34.613  11.267   6.455
 9645POPC   D2A52576  34.541  11.334   6.755
 9645POPC   C3A52577  34.539  11.332   7.055
 9645POPC   C4A52578  34.592  11.308   7.355
 9645POPC   C1B52579  34.360  11.113   6.455
 9645POPC   C2B52580  34.401  11.160   6.755
 9645POPC   C3B52581  34.402  11.138   7.055
 9645POPC   C4B52582  34.404  11.192   7.355
 9646POPC   NC352583   6.613  41.601   5.555
 9646POPC   PO452584   6.623  41.543   5.855
 9646POPC   GL152585   6.598  41.568   6.155
 9646POPC   GL252586   6.553  41.664   6.155
 9646POPC   C1A52587   6.666  41.571   6.455
 9646POPC   D2A52588   6.597  41.527   6.755
 9646POPC   C3A52589   6.695  41.558   7.055
 9646POPC   C4A52590   6.666  41.568   7.355
 9646POPC   C1B52591   6.532  41.798   6.455
 9646POPC   C2B52592   6.472  41.771   6.755
 9646POPC   C3B52593   6.552  41.814   7.055
 9646POPC   C4B52594   6.467  41.739   7.355
 9647POPC   NC352595   6.607  35.338   5.555
 9647POPC   PO452596   6.619  35.341   5.855
 9647POPC   GL152597   6.607  35.354   6.155
 9647POPC   GL252598   6.562  35.204   6.155
 9647POPC   C1A52599   6.646  35.382   6.455
 9647POPC   D2A52600   6.616  35.329   6.755
 9647POPC   C3A52601   6.627  35.316   7.055
 9647POPC   C4A52602   6.655  35.399   7.355
 9647POPC   C1B52603   6.575  35.100   6.455
 9647POPC   C2B52604   6.530  35.139   6.755
 9647POPC   C3B52605   6.570  35.158   7.055
 9647POPC   C4B52606   6.491  35.124   7.355
 9648POPC   NC352607   1.940  36.163   5.555
 9648POPC   PO452608   1.996  36.130   5.855
 9648POPC   GL152609   1.941  36.152   6.155
 9648POPC   GL252610   2.044  36.055   6.155
 9648POPC   C1A52611   1.953  36.084   6.455
 9648POPC   D2A52612   1.947  36.150   6.755
 9648POPC   C3A52613   1.986  36.150   7.055
 9648POPC   C4A52614   2.014  36.095   7.355
 9648POPC   C1B52615   2.183  35.980   6.455
 9648POPC   C2B52616   2.145  35.929   6.755
 9648POPC   C3B52617   2.167  35.999   7.055
 9648POPC   C4B52618   2.149  36.006   7.355
 9649POPC   NC352619  36.120   8.976   5.555
 9649POPC   PO452620  36.142   8.953   5.855
 9649POPC   GL152621  36.132   8.996   6.155
 9649POPC   GL252622  36.047   8.882   6.155
 9649POPC   C1A52623  36.170   8.983   6.455
 9649POPC   D2A52624  36.116   8.953   6.755
 9649POPC   C3A52625  36.078   8.997   7.055
 9649POPC   C4A52626  36.152   8.978   7.355
 9649POPC   C1B52627  35.974   8.754   6.455
 9649POPC   C2B52628  36.057   8.773   6.755
 9649POPC   C3B52629  35.965   8.732   7.055
 9649POPC   C4B52630  36.001   8.726   7.355
 9650POPC   NC352631   2.790  36.866   5.555
 9650POPC   PO452632   2.766  36.863   5.855
 9650POPC   GL152633   2.734  36.916   6.155
 9650POPC   GL252634   2.695  36.970   6.155
 9650POPC   C1A52635   2.730  36.914   6.455
 9650POPC   D2A52636   2.742  36.862   6.755
 9650POPC   C3A52637   2.756  36.901   7.055
 9650POPC   C4A52638   2.765  36.906   7.355
 9650POPC   C1B52639   2.577  37.029   6.455
 9650POPC   C2B52640   2.557  36.997   6.755
 9650POPC   C3B52641   2.562  37.017   7.055
 9650POPC   C4B52642   2.516  37.016   7.355
 9651POPC   NC352643  38.413  43.135   5.555
 9651POPC   PO452644  38.502  43.131   5.855
 9651POPC   GL152645  38.483  43.148   6.155
 9651POPC   GL252646  38.561  43.015   6.155
 9651POPC   C1A52647  38.473  43.135   6.455
 9651POPC   D2A52648  38.488  43.064   6.755
 9651POPC   C3A52649  38.415  43.072   7.055
 9651POPC   C4A52650  38.450  43.150   7.355
 9651POPC   C1B52651  38.642  42.931   6.455
 9651POPC   C2B52652  38.619  42.907   6.755
 9651POPC   C3B52653  38.613  42.931   7.055
 9651POPC   C4B52654  38.597  42.915   7.355
 9652POPC   NC352655  29.959  15.932   5.555
 9652POPC   PO452656  29.944  15.913   5.855
 9652POPC   GL152657  29.937  15.997   6.155
 9652POPC   GL252658  29.854  15.800   6.155
 9652POPC   C1A52659  29.886  15.920   6.455
 9652POPC   D2A52660  29.917  15.916   6.755
 9652POPC   C3A52661  29.932  15.977   7.055
 9652POPC   C4A52662  29.891  15.906   7.355
 9652POPC   C1B52663  29.810  15.767   6.455
 9652POPC   C2B52664  29.848  15.726   6.755
 9652POPC   C3B52665  29.816  15.680   7.055
 9652POPC   C4B52666  29.779  15.732   7.355
 9653POPC   NC352667  25.305   6.671   5.555
 9653POPC   PO452668  25.309   6.679   5.855
 9653POPC   GL152669  25.216   6.626   6.155
 9653POPC   GL252670  25.218   6.785   6.155
 9653POPC   C1A52671  25.260   6.641   6.455
 9653POPC   D2A52672  25.219   6.694   6.755
 9653POPC   C3A52673  25.303   6.651   7.055
 9653POPC   C4A52674  25.290   6.662   7.355
 9653POPC   C1B52675  25.105   6.844   6.455
 9653POPC   C2B52676  25.098   6.894   6.755
 9653POPC   C3B52677  25.100   6.875   7.055
 9653POPC   C4B52678  25.106   6.899   7.355
 9654POPC   NC352679   9.779   1.246   5.555
 9654POPC   PO452680   9.757   1.178   5.855
 9654POPC   GL152681   9.767   1.226   6.155
 9654POPC   GL252682   9.824   1.166   6.155
 9654POPC   C1A52683   9.728   1.172   6.455
 9654POPC   D2A52684   9.755   1.261   6.755
 9654POPC   C3A52685   9.737   1.212   7.055
 9654POPC   C4A52686   9.728   1.238   7.355
 9654POPC   C1B52687   9.960   1.082   6.455
 9654POPC   C2B52688  10.016   1.075   6.755
 9654POPC   C3B52689   9.980   1.085   7.055
 9654POPC   C4B52690  10.002   1.061   7.355
 9655POPC   NC352691  14.422  34.554   5.555
 9655POPC   PO452692  14.420  34.537   5.855
 9655POPC   GL152693  14.406  34.545   6.155
 9655POPC   GL252694  14.328  34.635   6.155
 9655POPC   C1A52695  14.363  34.562   6.455
 9655POPC   D2A52696  14.379  34.552   6.755
 9655POPC   C3A52697  14.403  34.564   7.055
 9655POPC   C4A52698  14.439  34.610   7.355
 9655POPC   C1B52699  14.117  34.655   6.455
 9655POPC   C2B52700  14.140  34.600   6.755
 9655POPC   C3B52701  14.178  34.587   7.055
 9655POPC   C4B52702  14.119  34.657   7.355
 9656POPC   NC352703  41.518  15.176   5.555
 9656POPC   PO452704  41.589  15.202   5.855
 9656POPC   GL152705  41.566  15.195   6.155
 9656POPC   GL252706  41.623  15.084   6.155
 9656POPC   C1A52707  41.518  15.208   6.455
 9656POPC   D2A52708  41.542  15.153   6.755
 9656POPC   C3A52709  41.589  15.187   7.055
 9656POPC   C4A52710  41.559  15.198   7.355
 9656POPC   C1B52711  41.691  14.940   6.455
 9656POPC   C2B52712  41.650  14.985   6.755
 9656POPC   C3B52713  41.635  14.972   7.055
 9656POPC   C4B52714  41.640  14.965   7.355
 9657POPC   NC352715  32.294  29.156   5.555
 9657POPC   PO452716  32.239  29.159   5.855
 9657POPC   GL152717  32.292  29.132   6.155
 9657POPC   GL252718  32.285  29.242   6.155
 9657POPC   C1A52719  32.270  29.143   6.455
 9657POPC   D2A52720  32.285  29.172   6.755
 9657POPC   C3A52721  32.234  29.145   7.055
 9657POPC   C4A52722  32.213  29.100   7.355
 9657POPC   C1B52723  32.222  29.368   6.455
 9657POPC   C2B52724  32.258  29.369   6.755
 9657POPC   C3B52725  32.300  29.394   7.055
 9657POPC   C4B52726  32.217  29.443   7.355
 9658POPC   NC352727  35.383  30.653   5.555
 9658POPC   PO452728  35.342  30.715   5.855
 9658POPC   GL152729  35.330  30.659   6.155
 9658POPC   GL252730  35.456  30.707   6.155
 9658POPC   C1A52731  35.370  30.702   6.455
 9658POPC   D2A52732  35.379  30.731   6.755
 9658POPC   C3A52733  35.358  30.683   7.055
 9658POPC   C4A52734  35.391  30.650   7.355
 9658POPC   C1B52735  35.581  30.775   6.455
 9658POPC   C2B52736  35.535  30.779   6.755
 9658POPC   C3B52737  35.553  30.787   7.055
 9658POPC   C4B52738  35.563  30.836   7.355
 9659POPC   NC352739  41.560   2.770   5.555
 9659POPC   PO452740  41.560   2.814   5.855
 9659POPC   GL152741  41.574   2.770   6.155
 9659POPC   GL252742  41.464   2.911   6.155
 9659POPC   C1A52743  41.584   2.727   6.455
 9659POPC   D2A52744  41.529   2.792   6.755
 9659POPC   C3A52745  41.543   2.780   7.055
 9659POPC   C4A52746  41.601   2.733   7.355
 9659POPC   C1B52747  41.453   2.996   6.455
 9659POPC   C2B52748  41.397   3.011   6.755
 9659POPC   C3B52749  41.395   3.013   7.055
 9659POPC   C4B52750  41.396   3.026   7.355
 9660POPC   NC352751  29.914  12.808   5.555
 9660POPC   PO452752  29.956  12.841   5.855
 9660POPC   GL152753  29.934  12.824   6.155
 9660POPC   GL252754  30.045  12.863   6.155
 9660POPC   C1A52755  29.891  12.808   6.455
 9660POPC   D2A52756  29.959  12.839   6.755
 9660POPC   C3A52757  29.949  12.824   7.055
 9660POPC   C4A52758  29.964  12.879   7.355
 9660POPC   C1B52759  30.140  12.785   6.455
 9660POPC   C2B52760  30.192  12.830   6.755
 9660POPC   C3B52761  30.160  12.798   7.055
 9660POPC   C4B52762  30.119  12.822   7.355
 9661POPC   NC352763  40.035   9.783   5.555
 9661POPC   PO452764  40.030   9.775   5.855
 9661POPC   GL152765  39.973   9.716   6.155
 9661POPC   GL252766  40.053   9.875   6.155
 9661POPC   C1A52767  39.998   9.782   6.455
 9661POPC   D2A52768  40.027   9.781   6.755
 9661POPC   C3A52769  40.045   9.771   7.055
 9661POPC   C4A52770  40.025   9.757   7.355
 9661POPC   C1B52771  40.195   9.950   6.455
 9661POPC   C2B52772  40.190   9.881   6.755
 9661POPC   C3B52773  40.169   9.918   7.055
 9661POPC   C4B52774  40.197   9.916   7.355
 9662POPC   NC352775   3.507  19.100   5.555
 9662POPC   PO452776   3.540  19.097   5.855
 9662POPC   GL152777   3.561  19.070   6.155
 9662POPC   GL252778   3.370  18.997   6.155
 9662POPC   C1A52779   3.583  19.081   6.455
 9662POPC   D2A52780   3.578  19.107   6.755
 9662POPC   C3A52781   3.531  19.044   7.055
 9662POPC   C4A52782   3.496  19.026   7.355
 9662POPC   C1B52783   3.275  19.030   6.455
 9662POPC   C2B52784   3.337  18.967   6.755
 9662POPC   C3B52785   3.318  18.965   7.055
 9662POPC   C4B52786   3.314  18.998   7.355
 9663POPC   NC352787  42.300  16.696   5.555
 9663POPC   PO452788  42.362  16.764   5.855
 9663POPC   GL152789  42.339  16.726   6.155
 9663POPC   GL252790  42.274  16.669   6.155
 9663POPC   C1A52791  42.333  16.747   6.455
 9663POPC   D2A52792  42.350  16.776   6.755
 9663POPC   C3A52793  42.341  16.724   7.055
 9663POPC   C4A52794  42.305  16.758   7.355
 9663POPC   C1B52795  42.136  16.587   6.455
 9663POPC   C2B52796  42.107  16.600   6.755
 9663POPC   C3B52797  42.140  16.620   7.055
 9663POPC   C4B52798  42.105  16.534   7.355
 9664POPC   NC352799  15.209  11.287   5.555
 9664POPC   PO452800  15.167  11.336   5.855
 9664POPC   GL152801  15.146  11.252   6.155
 9664POPC   GL252802  15.278  11.354   6.155
 9664POPC   C1A52803  15.214  11.287   6.455
 9664POPC   D2A52804  15.154  11.266   6.755
 9664POPC   C3A52805  15.150  11.334   7.055
 9664POPC   C4A52806  15.150  11.344   7.355
 9664POPC   C1B52807  15.312  11.510   6.455
 9664POPC   C2B52808  15.393  11.477   6.755
 9664POPC   C3B52809  15.374  11.525   7.055
 9664POPC   C4B52810  15.326  11.507   7.355
 9665POPC   NC352811  25.313  43.907   5.555
 9665POPC   PO452812  25.254  43.934   5.855
 9665POPC   GL152813  25.303  43.859   6.155
 9665POPC   GL252814  25.193  43.942   6.155
 9665POPC   C1A52815  25.290  43.860   6.455
 9665POPC   D2A52816  25.229  43.894   6.755
 9665POPC   C3A52817  25.264  43.890   7.055
 9665POPC   C4A52818  25.271  43.881   7.355
 9665POPC   C1B52819  24.993  44.010   6.455
 9665POPC   C2B52820  25.034  44.008   6.755
 9665POPC   C3B52821  25.016  44.028   7.055
 9665POPC   C4B52822  25.027  43.973   7.355
 9666POPC   NC352823  36.931  31.484   5.555
 9666POPC   PO452824  36.889  31.460   5.855
 9666POPC   GL152825  36.935  31.434   6.155
 9666POPC   GL252826  37.025  31.383   6.155
 9666POPC   C1A52827  36.915  31.500   6.455
 9666POPC   D2A52828  36.926  31.491   6.755
 9666POPC   C3A52829  36.875  31.520   7.055
 9666POPC   C4A52830  36.945  31.471   7.355
 9666POPC   C1B52831  37.133  31.336   6.455
 9666POPC   C2B52832  37.078  31.326   6.755
 9666POPC   C3B52833  37.106  31.376   7.055
 9666POPC   C4B52834  37.143  31.353   7.355
 9667POPC   NC352835  38.473  20.567   5.555
 9667POPC   PO452836  38.428  20.565   5.855
 9667POPC   GL152837  38.471  20.594   6.155
 9667POPC   GL252838  38.407  20.720   6.155
 9667POPC   C1A52839  38.474  20.613   6.455
 9667POPC   D2A52840  38.418  20.622   6.755
 9667POPC   C3A52841  38.467  20.634   7.055
 9667POPC   C4A52842  38.423  20.620   7.355
 9667POPC   C1B52843  38.298  20.854   6.455
 9667POPC   C2B52844  38.389  20.870   6.755
 9667POPC   C3B52845  38.338  20.877   7.055
 9667POPC   C4B52846  38.386  20.878   7.355
 9668POPC   NC352847  19.104  35.383   5.555
 9668POPC   PO452848  19.052  35.331   5.855
 9668POPC   GL152849  19.024  35.315   6.155
 9668POPC   GL252850  19.084  35.461   6.155
 9668POPC   C1A52851  19.034  35.396   6.455
 9668POPC   D2A52852  19.011  35.377   6.755
 9668POPC   C3A52853  19.090  35.373   7.055
 9668POPC   C4A52854  19.060  35.323   7.355
 9668POPC   C1B52855  19.091  35.627   6.455
 9668POPC   C2B52856  19.018  35.591   6.755
 9668POPC   C3B52857  19.086  35.603   7.055
 9668POPC   C4B52858  19.067  35.558   7.355
 9669POPC   NC352859  43.082  30.676   5.555
 9669POPC   PO452860  43.095  30.716   5.855
 9669POPC   GL152861  43.132  30.677   6.155
 9669POPC   GL252862  43.077  30.550   6.155
 9669POPC   C1A52863  43.154  30.708   6.455
 9669POPC   D2A52864  43.127  30.704   6.755
 9669POPC   C3A52865  43.154  30.688   7.055
 9669POPC   C4A52866  43.093  30.674   7.355
 9669POPC   C1B52867  43.025  30.446   6.455
 9669POPC   C2B52868  43.040  30.489   6.755
 9669POPC   C3B52869  43.093  30.445   7.055
 9669POPC   C4B52870  43.068  30.465   7.355
 9670POPC   NC352871  40.773  42.383   5.555
 9670POPC   PO452872  40.806  42.353   5.855
 9670POPC   GL152873  40.817  42.372   6.155
 9670POPC   GL252874  40.825  42.484   6.155
 9670POPC   C1A52875  40.785  42.310   6.455
 9670POPC   D2A52876  40.795  42.358   6.755
 9670POPC   C3A52877  40.737  42.365   7.055
 9670POPC   C4A52878  40.785  42.378   7.355
 9670POPC   C1B52879  40.898  42.602   6.455
 9670POPC   C2B52880  40.931  42.558   6.755
 9670POPC   C3B52881  40.893  42.533   7.055
 9670POPC   C4B52882  40.844  42.573   7.355
 9671POPC   NC352883  36.146  14.408   5.555
 9671POPC   PO452884  36.140  14.404   5.855
 9671POPC   GL152885  36.090  14.399   6.155
 9671POPC   GL252886  35.988  14.349   6.155
 9671POPC   C1A52887  36.078  14.366   6.455
 9671POPC   D2A52888  36.107  14.419   6.755
 9671POPC   C3A52889  36.113  14.421   7.055
 9671POPC   C4A52890  36.087  14.376   7.355
 9671POPC   C1B52891  35.889  14.399   6.455
 9671POPC   C2B52892  35.919  14.314   6.755
 9671POPC   C3B52893  35.884  14.368   7.055
 9671POPC   C4B52894  35.846  14.320   7.355
 9672POPC   NC352895  21.353  33.062   5.555
 9672POPC   PO452896  21.394  33.046   5.855
 9672POPC   GL152897  21.369  33.015   6.155
 9672POPC   GL252898  21.428  33.155   6.155
 9672POPC   C1A52899  21.410  33.018   6.455
 9672POPC   D2A52900  21.403  32.990   6.755
 9672POPC   C3A52901  21.342  32.979   7.055
 9672POPC   C4A52902  21.359  33.041   7.355
 9672POPC   C1B52903  21.520  33.276   6.455
 9672POPC   C2B52904  21.447  33.276   6.755
 9672POPC   C3B52905  21.524  33.266   7.055
 9672POPC   C4B52906  21.492  33.294   7.355
 9673POPC   NC352907  14.361  25.294   5.555
 9673POPC   PO452908  14.446  25.237   5.855
 9673POPC   GL152909  14.444  25.236   6.155
 9673POPC   GL252910  14.281  25.402   6.155
 9673POPC   C1A52911  14.386  25.231   6.455
 9673POPC   D2A52912  14.363  25.273   6.755
 9673POPC   C3A52913  14.422  25.301   7.055
 9673POPC   C4A52914  14.362  25.233   7.355
 9673POPC   C1B52915  14.267  25.421   6.455
 9673POPC   C2B52916  14.181  25.469   6.755
 9673POPC   C3B52917  14.237  25.418   7.055
 9673POPC   C4B52918  14.255  25.458   7.355
 9674POPC   NC352919  12.096   7.389   5.555
 9674POPC   PO452920  12.031   7.398   5.855
 9674POPC   GL152921  12.031   7.409   6.155
 9674POPC   GL252922  12.026   7.289   6.155
 9674POPC   C1A52923  12.089   7.377   6.455
 9674POPC   D2A52924  12.043   7.467   6.755
 9674POPC   C3A52925  12.084   7.389   7.055
 9674POPC   C4A52926  12.126   7.451   7.355
 9674POPC   C1B52927  12.021   7.196   6.455
 9674POPC   C2B52928  12.045   7.161   6.755
 9674POPC   C3B52929  12.034   7.157   7.055
 9674POPC   C4B52930  12.032   7.169   7.355
 9675POPC   NC352931  43.857   6.670   5.555
 9675POPC   PO452932  43.871   6.685   5.855
 9675POPC   GL152933  43.913   6.677   6.155
 9675POPC   GL252934  43.764   6.693   6.155
 9675POPC   C1A52935  43.893   6.667   6.455
 9675POPC   D2A52936  43.902   6.659   6.755
 9675POPC   C3A52937  43.922   6.665   7.055
 9675POPC   C4A52938  43.903   6.643   7.355
 9675POPC   C1B52939  43.682   6.695   6.455
 9675POPC   C2B52940  43.592   6.696   6.755
 9675POPC   C3B52941  43.607   6.703   7.055
 9675POPC   C4B52942  43.669   6.731   7.355
 9676POPC   NC352943  34.566  34.601   5.555
 9676POPC   PO452944  34.610  34.585   5.855
 9676POPC   GL152945  34.552  34.576   6.155
 9676POPC   GL252946  34.462  34.710   6.155
 9676POPC   C1A52947  34.558  34.582   6.455
 9676POPC   D2A52948  34.540  34.579   6.755
 9676POPC   C3A52949  34.574  34.541   7.055
 9676POPC   C4A52950  34.611  34.598   7.355
 9676POPC   C1B52951  34.453  34.740   6.455
 9676POPC   C2B52952  34.403  34.773   6.755
 9676POPC   C3B52953  34.456  34.772   7.055
 9676POPC   C4B52954  34.362  34.789   7.355
 9677POPC   NC352955  26.057  29.917   5.555
 9677POPC   PO452956  26.060  29.925   5.855
 9677POPC   GL152957  26.013  29.923   6.155
 9677POPC   GL252958  25.965  29.916   6.155
 9677POPC   C1A52959  26.049  29.928   6.455
 9677POPC   D2A52960  26.081  29.930   6.755
 9677POPC   C3A52961  26.060  29.905   7.055
 9677POPC   C4A52962  26.007  29.891   7.355
 9677POPC   C1B52963  25.779  30.003   6.455
 9677POPC   C2B52964  25.803  29.947   6.755
 9677POPC   C3B52965  25.828  30.027   7.055
 9677POPC   C4B52966  25.802  29.966   7.355
 9678POPC   NC352967  22.977  33.044   5.555
 9678POPC   PO452968  22.960  33.013   5.855
 9678POPC   GL152969  22.975  32.977   6.155
 9678POPC   GL252970  23.026  33.055   6.155
 9678POPC   C1A52971  22.974  33.031   6.455
 9678POPC   D2A52972  22.974  33.000   6.755
 9678POPC   C3A52973  22.947  33.040   7.055
 9678POPC   C4A52974  22.977  33.007   7.355
 9678POPC   C1B52975  23.164  33.199   6.455
 9678POPC   C2B52976  23.165  33.144   6.755
 9678POPC   C3B52977  23.170  33.133   7.055
 9678POPC   C4B52978  23.178  33.220   7.355
 9679POPC   NC352979   1.960   0.485   5.555
 9679POPC   PO452980   2.008   0.462   5.855
 9679POPC   GL152981   1.947   0.449   6.155
 9679POPC   GL252982   1.855   0.465   6.155
 9679POPC   C1A52983   1.944   0.467   6.455
 9679POPC   D2A52984   1.962   0.453   6.755
 9679POPC   C3A52985   1.968   0.481   7.055
 9679POPC   C4A52986   1.953   0.398   7.355
 9679POPC   C1B52987   1.771   0.424   6.455
 9679POPC   C2B52988   1.702   0.387   6.755
 9679POPC   C3B52989   1.766   0.425   7.055
 9679POPC   C4B52990   1.761   0.450   7.355
 9680POPC   NC352991  41.601  21.339   5.555
 9680POPC   PO452992  41.569  21.354   5.855
 9680POPC   GL152993  41.552  21.348   6.155
 9680POPC   GL252994  41.397  21.319   6.155
 9680POPC   C1A52995  41.546  21.348   6.455
 9680POPC   D2A52996  41.592  21.396   6.755
 9680POPC   C3A52997  41.558  21.355   7.055
 9680POPC   C4A52998  41.513  21.393   7.355
 9680POPC   C1B52999  41.285  21.343   6.455
 9680POPC   C2B53000  41.373  21.279   6.755
 9680POPC   C3B53001  41.333  21.346   7.055
 9680POPC   C4B53002  41.326  21.259   7.355
 9681POPC   NC353003  26.007  30.685   5.555
 9681POPC   PO453004  26.069  30.667   5.855
 9681POPC   GL153005  26.088  30.678   6.155
 9681POPC   GL253006  26.032  30.791   6.155
 9681POPC   C1A53007  26.060  30.718   6.455
 9681POPC   D2A53008  26.057  30.653   6.755
 9681POPC   C3A53009  26.088  30.652   7.055
 9681POPC   C4A53010  26.036  30.726   7.355
 9681POPC   C1B53011  26.076  30.899   6.455
 9681POPC   C2B53012  26.048  30.925   6.755
 9681POPC   C3B53013  26.106  30.936   7.055
 9681POPC   C4B53014  26.098  30.966   7.355
 9682POPC   NC353015  39.224  42.296   5.555
 9682POPC   PO453016  39.253  42.366   5.855
 9682POPC   GL153017  39.267  42.366   6.155
 9682POPC   GL253018  39.083  42.337   6.155
 9682POPC   C1A53019  39.250  42.288   6.455
 9682POPC   D2A53020  39.242  42.346   6.755
 9682POPC   C3A53021  39.217  42.316   7.055
 9682POPC   C4A53022  39.266  42.347   7.355
 9682POPC   C1B53023  38.971  42.436   6.455
 9682POPC   C2B53024  39.020  42.436   6.755
 9682POPC   C3B53025  38.971  42.391   7.055
 9682POPC   C4B53026  38.994  42.401   7.355
 9683POPC   NC353027  22.192  37.697   5.555
 9683POPC   PO453028  22.114  37.637   5.855
 9683POPC   GL153029  22.197  37.657   6.155
 9683POPC   GL253030  22.050  37.667   6.155
 9683POPC   C1A53031  22.179  37.638   6.455
 9683POPC   D2A53032  22.148  37.644   6.755
 9683POPC   C3A53033  22.169  37.668   7.055
 9683POPC   C4A53034  22.145  37.710   7.355
 9683POPC   C1B53035  21.900  37.726   6.455
 9683POPC   C2B53036  21.942  37.719   6.755
 9683POPC   C3B53037  21.878  37.770   7.055
 9683POPC   C4B53038  21.938  37.733   7.355
 9684POPC   NC353039  16.745  31.452   5.555
 9684POPC   PO453040  16.687  31.453   5.855
 9684POPC   GL153041  16.729  31.492   6.155
 9684POPC   GL253042  16.686  31.303   6.155
 9684POPC   C1A53043  16.750  31.513   6.455
 9684POPC   D2A53044  16.705  31.455   6.755
 9684POPC   C3A53045  16.715  31.501   7.055
 9684POPC   C4A53046  16.704  31.452   7.355
 9684POPC   C1B53047  16.718  31.213   6.455
 9684POPC   C2B53048  16.715  31.179   6.755
 9684POPC   C3B53049  16.676  31.257   7.055
 9684POPC   C4B53050  16.705  31.266   7.355
 9685POPC   NC353051  11.271  29.106   5.555
 9685POPC   PO453052  11.306  29.116   5.855
 9685POPC   GL153053  11.344  29.101   6.155
 9685POPC   GL253054  11.371  29.245   6.155
 9685POPC   C1A53055  11.287  29.189   6.455
 9685POPC   D2A53056  11.311  29.147   6.755
 9685POPC   C3A53057  11.306  29.143   7.055
 9685POPC   C4A53058  11.283  29.161   7.355
 9685POPC   C1B53059  11.471  29.266   6.455
 9685POPC   C2B53060  11.492  29.256   6.755
 9685POPC   C3B53061  11.507  29.323   7.055
 9685POPC   C4B53062  11.545  29.237   7.355
 9686POPC   NC353063  14.404  43.110   5.555
 9686POPC   PO453064  14.359  43.135   5.855
 9686POPC   GL153065  14.441  43.114   6.155
 9686POPC   GL253066  14.329  43.248   6.155
 9686POPC   C1A53067  14.357  43.061   6.455
 9686POPC   D2A53068  14.362  43.121   6.755
 9686POPC   C3A53069  14.443  43.127   7.055
 9686POPC   C4A53070  14.390  43.082   7.355
 9686POPC   C1B53071  14.211  43.255   6.455
 9686POPC   C2B53072  14.259  43.324   6.755
 9686POPC   C3B53073  14.206  43.340   7.055
 9686POPC   C4B53074  14.257  43.260   7.355
 9687POPC   NC353075  10.533  38.425   5.555
 9687POPC   PO453076  10.561  38.497   5.855
 9687POPC   GL153077  10.485  38.435   6.155
 9687POPC   GL253078  10.626  38.402   6.155
 9687POPC   C1A53079  10.538  38.476   6.455
 9687POPC   D2A53080  10.528  38.499   6.755
 9687POPC   C3A53081  10.506  38.478   7.055
 9687POPC   C4A53082  10.502  38.443   7.355
 9687POPC   C1B53083  10.761  38.361   6.455
 9687POPC   C2B53084  10.736  38.340   6.755
 9687POPC   C3B53085  10.738  38.342   7.055
 9687POPC   C4B53086  10.748  38.368   7.355
 9688POPC   NC353087  43.149  43.153   5.555
 9688POPC   PO453088  43.090  43.065   5.855
 9688POPC   GL153089  43.123  43.130   6.155
 9688POPC   GL253090  42.957  43.172   6.155
 9688POPC   C1A53091  43.144  43.093   6.455
 9688POPC   D2A53092  43.115  43.106   6.755
 9688POPC   C3A53093  43.158  43.138   7.055
 9688POPC   C4A53094  43.133  43.137   7.355
 9688POPC   C1B53095  42.904  43.196   6.455
 9688POPC   C2B53096  42.823  43.147   6.755
 9688POPC   C3B53097  42.881  43.150   7.055
 9688POPC   C4B53098  42.826  43.182   7.355
 9689POPC   NC353099  35.372   2.014   5.555
 9689POPC   PO453100  35.376   1.972   5.855
 9689POPC   GL153101  35.338   1.959   6.155
 9689POPC   GL253102  35.407   1.909   6.155
 9689POPC   C1A53103  35.330   1.940   6.455
 9689POPC   D2A53104  35.378   2.040   6.755
 9689POPC   C3A53105  35.391   2.016   7.055
 9689POPC   C4A53106  35.357   2.038   7.355
 9689POPC   C1B53107  35.508   1.757   6.455
 9689POPC   C2B53108  35.545   1.833   6.755
 9689POPC   C3B53109  35.475   1.781   7.055
 9689POPC   C4B53110  35.479   1.820   7.355
 9690POPC   NC353111  34.602   1.233   5.555
 9690POPC   PO453112  34.540   1.217   5.855
 9690POPC   GL153113  34.562   1.214   6.155
 9690POPC   GL253114  34.614   1.323   6.155
 9690POPC   C1A53115  34.547   1.171   6.455
 9690POPC   D2A53116  34.609   1.191   6.755
 9690POPC   C3A53117  34.541   1.255   7.055
 9690POPC   C4A53118  34.565   1.221   7.355
 9690POPC   C1B53119  34.733   1.436   6.455
 9690POPC   C2B53120  34.694   1.353   6.755
 9690POPC   C3B53121  34.695   1.447   7.055
 9690POPC   C4B53122  34.719   1.360   7.355
 9691POPC   NC353123  12.873  44.642   5.555
 9691POPC   PO453124  12.841  44.665   5.855
 9691POPC   GL153125  12.819  44.681   6.155
 9691POPC   GL253126  12.718  44.546   6.155
 9691POPC   C1A53127  12.878  44.690   6.455
 9691POPC   D2A53128  12.847  44.644   6.755
 9691POPC   C3A53129  12.841  44.675   7.055
 9691POPC   C4A53130  12.833  44.646   7.355
 9691POPC   C1B53131  12.688  44.460   6.455
 9691POPC   C2B53132  12.691  44.486   6.755
 9691POPC   C3B53133  12.646  44.453   7.055
 9691POPC   C4B53134  12.691  44.512   7.355
 9692POPC   NC353135  19.107  24.514   5.555
 9692POPC   PO453136  19.014  24.451   5.855
 9692POPC   GL153137  19.086  24.539   6.155
 9692POPC   GL253138  19.162  24.596   6.155
 9692POPC   C1A53139  19.058  24.534   6.455
 9692POPC   D2A53140  19.079  24.454   6.755
 9692POPC   C3A53141  19.098  24.457   7.055
 9692POPC   C4A53142  19.012  24.496   7.355
 9692POPC   C1B53143  19.243  24.579   6.455
 9692POPC   C2B53144  19.301  24.626   6.755
 9692POPC   C3B53145  19.278  24.614   7.055
 9692POPC   C4B53146  19.252  24.600   7.355
 9693POPC   NC353147  16.723  36.078   5.555
 9693POPC   PO453148  16.760  36.174   5.855
 9693POPC   GL153149  16.763  36.171   6.155
 9693POPC   GL253150  16.873  36.113   6.155
 9693POPC   C1A53151  16.744  36.093   6.455
 9693POPC   D2A53152  16.758  36.110   6.755
 9693POPC   C3A53153  16.745  36.160   7.055
 9693POPC   C4A53154  16.725  36.152   7.355
 9693POPC   C1B53155  16.943  36.078   6.455
 9693POPC   C2B53156  16.958  36.015   6.755
 9693POPC   C3B53157  16.940  36.036   7.055
 9693POPC   C4B53158  16.966  36.087   7.355
 9694POPC   NC353159  12.848  28.358   5.555
 9694POPC   PO453160  12.854  28.364   5.855
 9694POPC   GL153161  12.858  28.401   6.155
 9694POPC   GL253162  12.733  28.473   6.155
 9694POPC   C1A53163  12.842  28.332   6.455
 9694POPC   D2A53164  12.813  28.327   6.755
 9694POPC   C3A53165  12.815  28.388   7.055
 9694POPC   C4A53166  12.888  28.402   7.355
 9694POPC   C1B53167  12.634  28.526   6.455
 9694POPC   C2B53168  12.604  28.522   6.755
 9694POPC   C3B53169  12.682  28.545   7.055
 9694POPC   C4B53170  12.612  28.539   7.355
 9695POPC   NC353171  40.003  17.489   5.555
 9695POPC   PO453172  40.042  17.519   5.855
 9695POPC   GL153173  40.037  17.548   6.155
 9695POPC   GL253174  40.007  17.408   6.155
 9695POPC   C1A53175  39.984  17.468   6.455
 9695POPC   D2A53176  40.007  17.532   6.755
 9695POPC   C3A53177  40.038  17.498   7.055
 9695POPC   C4A53178  40.040  17.478   7.355
 9695POPC   C1B53179  39.979  17.249   6.455
 9695POPC   C2B53180  39.918  17.240   6.755
 9695POPC   C3B53181  39.965  17.242   7.055
 9695POPC   C4B53182  39.990  17.238   7.355
 9696POPC   NC353183  26.857   9.004   5.555
 9696POPC   PO453184  26.816   8.980   5.855
 9696POPC   GL153185  26.831   9.000   6.155
 9696POPC   GL253186  26.963   9.023   6.155
 9696POPC   C1A53187  26.805   8.934   6.455
 9696POPC   D2A53188  26.791   9.011   6.755
 9696POPC   C3A53189  26.844   8.931   7.055
 9696POPC   C4A53190  26.810   9.013   7.355
 9696POPC   C1B53191  27.026   9.010   6.455
 9696POPC   C2B53192  27.102   8.963   6.755
 9696POPC   C3B53193  27.089   8.990   7.055
 9696POPC   C4B53194  27.044   8.956   7.355
 9697POPC   NC353195  28.383   4.268   5.555
 9697POPC   PO453196  28.371   4.344   5.855
 9697POPC   GL153197  28.344   4.304   6.155
 9697POPC   GL253198  28.485   4.344   6.155
 9697POPC   C1A53199  28.352   4.311   6.455
 9697POPC   D2A53200  28.381   4.364   6.755
 9697POPC   C3A53201  28.403   4.298   7.055
 9697POPC   C4A53202  28.342   4.357   7.355
 9697POPC   C1B53203  28.597   4.308   6.455
 9697POPC   C2B53204  28.618   4.340   6.755
 9697POPC   C3B53205  28.599   4.317   7.055
 9697POPC   C4B53206  28.593   4.353   7.355
 9698POPC   NC353207  19.849  29.162   5.555
 9698POPC   PO453208  19.789  29.107   5.855
 9698POPC   GL153209  19.825  29.163   6.155
 9698POPC   GL253210  19.787  29.262   6.155
 9698POPC   C1A53211  19.821  29.138   6.455
 9698POPC   D2A53212  19.792  29.149   6.755
 9698POPC   C3A53213  19.857  29.156   7.055
 9698POPC   C4A53214  19.803  29.102   7.355
 9698POPC   C1B53215  19.604  29.356   6.455
 9698POPC   C2B53216  19.631  29.313   6.755
 9698POPC   C3B53217  19.653  29.298   7.055
 9698POPC   C4B53218  19.630  29.300   7.355
 9699POPC   NC353219  31.424  39.992   5.555
 9699POPC   PO453220  31.433  40.046   5.855
 9699POPC   GL153221  31.441  40.049   6.155
 9699POPC   GL253222  31.609  39.943   6.155
 9699POPC   C1A53223  31.434  39.979   6.455
 9699POPC   D2A53224  31.488  39.984   6.755
 9699POPC   C3A53225  31.505  40.031   7.055
 9699POPC   C4A53226  31.520  39.961   7.355
 9699POPC   C1B53227  31.667  39.966   6.455
 9699POPC   C2B53228  31.749  39.898   6.755
 9699POPC   C3B53229  31.696  39.922   7.055
 9699POPC   C4B53230  31.716  39.898   7.355
 9700POPC   NC353231  38.424  39.229   5.555
 9700POPC   PO453232  38.438  39.186   5.855
 9700POPC   GL153233  38.450  39.244   6.155
 9700POPC   GL253234  38.533  39.170   6.155
 9700POPC   C1A53235  38.465  39.236   6.455
 9700POPC   D2A53236  38.407  39.244   6.755
 9700POPC   C3A53237  38.493  39.209   7.055
 9700POPC   C4A53238  38.473  39.207   7.355
 9700POPC   C1B53239  38.585  39.047   6.455
 9700POPC   C2B53240  38.654  39.078   6.755
 9700POPC   C3B53241  38.606  39.080   7.055
 9700POPC   C4B53242  38.594  39.092   7.355
 9701POPC   NC353243  10.481  23.759   5.555
 9701POPC   PO453244  10.566  23.721   5.855
 9701POPC   GL153245  10.479  23.753   6.155
 9701POPC   GL253246  10.603  23.857   6.155
 9701POPC   C1A53247  10.545  23.700   6.455
 9701POPC   D2A53248  10.528  23.683   6.755
 9701POPC   C3A53249  10.511  23.675   7.055
 9701POPC   C4A53250  10.488  23.715   7.355
 9701POPC   C1B53251  10.638  23.915   6.455
 9701POPC   C2B53252  10.720  23.867   6.755
 9701POPC   C3B53253  10.644  23.946   7.055
 9701POPC   C4B53254  10.702  23.916   7.355
 9702POPC   NC353255   9.723  17.494   5.555
 9702POPC   PO453256   9.757  17.535   5.855
 9702POPC   GL153257   9.707  17.465   6.155
 9702POPC   GL253258   9.685  17.449   6.155
 9702POPC   C1A53259   9.736  17.485   6.455
 9702POPC   D2A53260   9.759  17.512   6.755
 9702POPC   C3A53261   9.759  17.494   7.055
 9702POPC   C4A53262   9.769  17.505   7.355
 9702POPC   C1B53263   9.560  17.318   6.455
 9702POPC   C2B53264   9.578  17.327   6.755
 9702POPC   C3B53265   9.589  17.321   7.055
 9702POPC   C4B53266   9.586  17.362   7.355
 9703POPC   NC353267  22.933  43.124   5.555
 9703POPC   PO453268  22.958  43.146   5.855
 9703POPC   GL153269  22.948  43.104   6.155
 9703POPC   GL253270  22.863  43.141   6.155
 9703POPC   C1A53271  22.968  43.115   6.455
 9703POPC   D2A53272  22.985  43.134   6.755
 9703POPC   C3A53273  22.983  43.146   7.055
 9703POPC   C4A53274  22.906  43.093   7.355
 9703POPC   C1B53275  22.666  43.112   6.455
 9703POPC   C2B53276  22.719  43.118   6.755
 9703POPC   C3B53277  22.641  43.096   7.055
 9703POPC   C4B53278  22.684  43.115   7.355
 9704POPC   NC353279  43.919  17.525   5.555
 9704POPC   PO453280  43.886  17.548   5.855
 9704POPC   GL153281  43.905  17.549   6.155
 9704POPC   GL253282  43.913  17.419   6.155
 9704POPC   C1A53283  43.870  17.489   6.455
 9704POPC   D2A53284  43.926  17.519   6.755
 9704POPC   C3A53285  43.901  17.460   7.055
 9704POPC   C4A53286  43.846  17.499   7.355
 9704POPC   C1B53287  44.076  17.287   6.455
 9704POPC   C2B53288  44.025  17.339   6.755
 9704POPC   C3B53289  44.059  17.311   7.055
 9704POPC   C4B53290  44.017  17.315   7.355
 9705POPC   NC353291  12.053  37.647   5.555
 9705POPC   PO453292  12.111  37.648   5.855
 9705POPC   GL153293  12.054  37.715   6.155
 9705POPC   GL253294  12.167  37.765   6.155
 9705POPC   C1A53295  12.104  37.699   6.455
 9705POPC   D2A53296  12.095  37.662   6.755
 9705POPC   C3A53297  12.056  37.727   7.055
 9705POPC   C4A53298  12.114  37.727   7.355
 9705POPC   C1B53299  12.239  37.872   6.455
 9705POPC   C2B53300  12.275  37.820   6.755
 9705POPC   C3B53301  12.273  37.875   7.055
 9705POPC   C4B53302  12.282  37.838   7.355
 9706POPC   NC353303  15.177  30.681   5.555
 9706POPC   PO453304  15.220  30.716   5.855
 9706POPC   GL153305  15.181  30.697   6.155
 9706POPC   GL253306  15.248  30.665   6.155
 9706POPC   C1A53307  15.204  30.659   6.455
 9706POPC   D2A53308  15.149  30.687   6.755
 9706POPC   C3A53309  15.150  30.664   7.055
 9706POPC   C4A53310  15.153  30.719   7.355
 9706POPC   C1B53311  15.442  30.616   6.455
 9706POPC   C2B53312  15.384  30.553   6.755
 9706POPC   C3B53313  15.420  30.592   7.055
 9706POPC   C4B53314  15.365  30.539   7.355
 9707POPC   NC353315  37.723  12.838   5.555
 9707POPC   PO453316  37.661  12.899   5.855
 9707POPC   GL153317  37.724  12.802   6.155
 9707POPC   GL253318  37.561  12.965   6.155
 9707POPC   C1A53319  37.699  12.806   6.455
 9707POPC   D2A53320  37.719  12.868   6.755
 9707POPC   C3A53321  37.685  12.846   7.055
 9707POPC   C4A53322  37.691  12.898   7.355
 9707POPC   C1B53323  37.491  13.049   6.455
 9707POPC   C2B53324  37.492  13.057   6.755
 9707POPC   C3B53325  37.525  12.987   7.055
 9707POPC   C4B53326  37.484  13.043   7.355
 9708POPC   NC353327  42.377  19.811   5.555
 9708POPC   PO453328  42.368  19.817   5.855
 9708POPC   GL153329  42.368  19.840   6.155
 9708POPC   GL253330  42.177  19.934   6.155
 9708POPC   C1A53331  42.376  19.831   6.455
 9708POPC   D2A53332  42.376  19.818   6.755
 9708POPC   C3A53333  42.288  19.840   7.055
 9708POPC   C4A53334  42.287  19.865   7.355
 9708POPC   C1B53335  42.132  19.975   6.455
 9708POPC   C2B53336  42.098  19.923   6.755
 9708POPC   C3B53337  42.130  19.968   7.055
 9708POPC   C4B53338  42.145  19.942   7.355
 9709POPC   NC353339  29.891  31.469   5.555
 9709POPC   PO453340  29.927  31.473   5.855
 9709POPC   GL153341  29.925  31.424   6.155
 9709POPC   GL253342  29.792  31.582   6.155
 9709POPC   C1A53343  29.885  31.432   6.455
 9709POPC   D2A53344  29.957  31.464   6.755
 9709POPC   C3A53345  29.959  31.464   7.055
 9709POPC   C4A53346  29.908  31.462   7.355
 9709POPC   C1B53347  29.719  31.630   6.455
 9709POPC   C2B53348  29.756  31.589   6.755
 9709POPC   C3B53349  29.741  31.577   7.055
 9709POPC   C4B53350  29.707  31.662   7.355
 9710POPC   NC353351  29.161  19.048   5.555
 9710POPC   PO453352  29.098  19.090   5.855
 9710POPC   GL153353  29.096  19.092   6.155
 9710POPC   GL253354  29.249  19.009   6.155
 9710POPC   C1A53355  29.183  19.071   6.455
 9710POPC   D2A53356  29.143  19.025   6.755
 9710POPC   C3A53357  29.138  19.093   7.055
 9710POPC   C4A53358  29.096  19.054   7.355
 9710POPC   C1B53359  29.357  18.930   6.455
 9710POPC   C2B53360  29.358  18.922   6.755
 9710POPC   C3B53361  29.379  18.897   7.055
 9710POPC   C4B53362  29.351  18.933   7.355
 9711POPC   NC353363  30.716  12.830   5.555
 9711POPC   PO453364  30.653  12.816   5.855
 9711POPC   GL153365  30.728  12.846   6.155
 9711POPC   GL253366  30.776  12.973   6.155
 9711POPC   C1A53367  30.723  12.831   6.455
 9711POPC   D2A53368  30.731  12.835   6.755
 9711POPC   C3A53369  30.718  12.888   7.055
 9711POPC   C4A53370  30.739  12.836   7.355
 9711POPC   C1B53371  30.847  13.019   6.455
 9711POPC   C2B53372  30.851  13.011   6.755
 9711POPC   C3B53373  30.831  13.021   7.055
 9711POPC   C4B53374  30.819  13.019   7.355
 9712POPC   NC353375  16.685  28.388   5.555
 9712POPC   PO453376  16.689  28.338   5.855
 9712POPC   GL153377  16.771  28.362   6.155
 9712POPC   GL253378  16.651  28.217   6.155
 9712POPC   C1A53379  16.684  28.368   6.455
 9712POPC   D2A53380  16.683  28.365   6.755
 9712POPC   C3A53381  16.763  28.389   7.055
 9712POPC   C4A53382  16.726  28.394   7.355
 9712POPC   C1B53383  16.676  28.174   6.455
 9712POPC   C2B53384  16.629  28.146   6.755
 9712POPC   C3B53385  16.686  28.165   7.055
 9712POPC   C4B53386  16.649  28.176   7.355
 9713POPC   NC353387  13.650   9.722   5.555
 9713POPC   PO453388  13.662   9.761   5.855
 9713POPC   GL153389  13.673   9.752   6.155
 9713POPC   GL253390  13.552   9.735   6.155
 9713POPC   C1A53391  13.632   9.704   6.455
 9713POPC   D2A53392  13.667   9.752   6.755
 9713POPC   C3A53393  13.648   9.757   7.055
 9713POPC   C4A53394  13.655   9.706   7.355
 9713POPC   C1B53395  13.350   9.718   6.455
 9713POPC   C2B53396  13.426   9.727   6.755
 9713POPC   C3B53397  13.378   9.739   7.055
 9713POPC   C4B53398  13.426   9.686   7.355
 9714POPC   NC353399  43.078  43.866   5.555
 9714POPC   PO453400  43.143  43.878   5.855
 9714POPC   GL153401  43.150  43.911   6.155
 9714POPC   GL253402  43.098  43.765   6.155
 9714POPC   C1A53403  43.084  43.862   6.455
 9714POPC   D2A53404  43.106  43.924   6.755
 9714POPC   C3A53405  43.113  43.843   7.055
 9714POPC   C4A53406  43.075  43.903   7.355
 9714POPC   C1B53407  43.136  43.591   6.455
 9714POPC   C2B53408  43.082  43.653   6.755
 9714POPC   C3B53409  43.158  43.604   7.055
 9714POPC   C4B53410  43.154  43.621   7.355
 9715POPC   NC353411  12.880  30.729   5.555
 9715POPC   PO453412  12.803  30.719   5.855
 9715POPC   GL153413  12.845  30.729   6.155
 9715POPC   GL253414  12.840  30.867   6.155
 9715POPC   C1A53415  12.855  30.688   6.455
 9715POPC   D2A53416  12.868  30.657   6.755
 9715POPC   C3A53417  12.822  30.741   7.055
 9715POPC   C4A53418  12.869  30.708   7.355
 9715POPC   C1B53419  12.822  30.976   6.455
 9715POPC   C2B53420  12.841  30.918   6.755
 9715POPC   C3B53421  12.823  30.914   7.055
 9715POPC   C4B53422  12.904  30.988   7.355
 9716POPC   NC353423  11.332   5.125   5.555
 9716POPC   PO453424  11.267   5.136   5.855
 9716POPC   GL153425  11.272   5.072   6.155
 9716POPC   GL253426  11.332   5.167   6.155
 9716POPC   C1A53427  11.256   5.058   6.455
 9716POPC   D2A53428  11.298   5.049   6.755
 9716POPC   C3A53429  11.328   5.127   7.055
 9716POPC   C4A53430  11.335   5.116   7.355
 9716POPC   C1B53431  11.334   5.323   6.455
 9716POPC   C2B53432  11.358   5.351   6.755
 9716POPC   C3B53433  11.367   5.299   7.055
 9716POPC   C4B53434  11.411   5.299   7.355
 9717POPC   NC353435  15.963  43.876   5.555
 9717POPC   PO453436  15.915  43.918   5.855
 9717POPC   GL153437  15.980  43.909   6.155
 9717POPC   GL253438  15.990  43.752   6.155
 9717POPC   C1A53439  15.934  43.888   6.455
 9717POPC   D2A53440  15.934  43.916   6.755
 9717POPC   C3A53441  15.983  43.883   7.055
 9717POPC   C4A53442  15.994  43.846   7.355
 9717POPC   C1B53443  15.960  43.614   6.455
 9717POPC   C2B53444  16.005  43.659   6.755
 9717POPC   C3B53445  15.952  43.651   7.055
 9717POPC   C4B53446  15.996  43.595   7.355
 9718POPC   NC353447  17.490  23.725   5.555
 9718POPC   PO453448  17.546  23.718   5.855
 9718POPC   GL153449  17.483  23.729   6.155
 9718POPC   GL253450  17.468  23.628   6.155
 9718POPC   C1A53451  17.482  23.734   6.455
 9718POPC   D2A53452  17.462  23.699   6.755
 9718POPC   C3A53453  17.468  23.668   7.055
 9718POPC   C4A53454  17.556  23.687   7.355
 9718POPC   C1B53455  17.494  23.490   6.455
 9718POPC   C2B53456  17.451  23.505   6.755
 9718POPC   C3B53457  17.498  23.462   7.055
 9718POPC   C4B53458  17.438  23.428   7.355
 9719POPC   NC353459  12.891  15.186   5.555
 9719POPC   PO453460  12.891  15.130   5.855
 9719POPC   GL153461  12.803  15.147   6.155
 9719POPC   GL253462  12.926  15.324   6.155
 9719POPC   C1A53463  12.810  15.206   6.455
 9719POPC   D2A53464  12.856  15.208   6.755
 9719POPC   C3A53465  12.860  15.195   7.055
 9719POPC   C4A53466  12.865  15.167   7.355
 9719POPC   C1B53467  12.961  15.363   6.455
 9719POPC   C2B53468  13.017  15.351   6.755
 9719POPC   C3B53469  12.962  15.429   7.055
 9719POPC   C4B53470  12.949  15.374   7.355
 9720POPC   NC353471  31.424  15.215   5.555
 9720POPC   PO453472  31.443  15.168   5.855
 9720POPC   GL153473  31.478  15.169   6.155
 9720POPC   GL253474  31.616  15.247   6.155
 9720POPC   C1A53475  31.429  15.219   6.455
 9720POPC   D2A53476  31.468  15.190   6.755
 9720POPC   C3A53477  31.509  15.206   7.055
 9720POPC   C4A53478  31.448  15.141   7.355
 9720POPC   C1B53479  31.633  15.323   6.455
 9720POPC   C2B53480  31.707  15.284   6.755
 9720POPC   C3B53481  31.651  15.316   7.055
 9720POPC   C4B53482  31.666  15.329   7.355
 9721POPC   NC353483   0.451  42.334   5.555
 9721POPC   PO453484   0.428  42.377   5.855
 9721POPC   GL153485   0.455  42.354   6.155
 9721POPC   GL253486   0.455  42.205   6.155
 9721POPC   C1A53487   0.446  42.367   6.455
 9721POPC   D2A53488   0.389  42.377   6.755
 9721POPC   C3A53489   0.449  42.378   7.055
 9721POPC   C4A53490   0.407  42.302   7.355
 9721POPC   C1B53491   0.411  42.051   6.455
 9721POPC   C2B53492   0.373  42.073   6.755
 9721POPC   C3B53493   0.395  42.052   7.055
 9721POPC   C4B53494   0.369  42.064   7.355
 9722POPC   NC353495   6.646   8.177   5.555
 9722POPC   PO453496   6.606   8.197   5.855
 9722POPC   GL153497   6.613   8.180   6.155
 9722POPC   GL253498   6.610   8.041   6.155
 9722POPC   C1A53499   6.600   8.192   6.455
 9722POPC   D2A53500   6.623   8.186   6.755
 9722POPC   C3A53501   6.649   8.232   7.055
 9722POPC   C4A53502   6.688   8.198   7.355
 9722POPC   C1B53503   6.586   7.951   6.455
 9722POPC   C2B53504   6.541   7.939   6.755
 9722POPC   C3B53505   6.547   8.014   7.055
 9722POPC   C4B53506   6.498   7.974   7.355
 9723POPC   NC353507  31.423  15.924   5.555
 9723POPC   PO453508  31.460  15.943   5.855
 9723POPC   GL153509  31.501  15.961   6.155
 9723POPC   GL253510  31.512  16.094   6.155
 9723POPC   C1A53511  31.491  16.000   6.455
 9723POPC   D2A53512  31.477  15.937   6.755
 9723POPC   C3A53513  31.423  15.977   7.055
 9723POPC   C4A53514  31.428  15.912   7.355
 9723POPC   C1B53515  31.559  16.163   6.455
 9723POPC   C2B53516  31.558  16.147   6.755
 9723POPC   C3B53517  31.532  16.214   7.055
 9723POPC   C4B53518  31.562  16.240   7.355
 9724POPC   NC353519  11.322   4.280   5.555
 9724POPC   PO453520  11.307   4.306   5.855
 9724POPC   GL153521  11.337   4.347   6.155
 9724POPC   GL253522  11.383   4.193   6.155
 9724POPC   C1A53523  11.261   4.352   6.455
 9724POPC   D2A53524  11.313   4.320   6.755
 9724POPC   C3A53525  11.301   4.367   7.055
 9724POPC   C4A53526  11.336   4.278   7.355
 9724POPC   C1B53527  11.453   4.159   6.455
 9724POPC   C2B53528  11.465   4.130   6.755
 9724POPC   C3B53529  11.464   4.197   7.055
 9724POPC   C4B53530  11.455   4.151   7.355
 9725POPC   NC353531   1.968  43.902   5.555
 9725POPC   PO453532   1.955  43.935   5.855
 9725POPC   GL153533   2.037  43.838   6.155
 9725POPC   GL253534   2.006  43.777   6.155
 9725POPC   C1A53535   1.943  43.907   6.455
 9725POPC   D2A53536   1.995  43.886   6.755
 9725POPC   C3A53537   2.022  43.868   7.055
 9725POPC   C4A53538   2.000  43.914   7.355
 9725POPC   C1B53539   2.020  43.626   6.455
 9725POPC   C2B53540   2.061  43.671   6.755
 9725POPC   C3B53541   2.009  43.619   7.055
 9725POPC   C4B53542   2.072  43.648   7.355
 9726POPC   NC353543   1.953  33.784   5.555
 9726POPC   PO453544   2.035  33.819   5.855
 9726POPC   GL153545   2.011  33.761   6.155
 9726POPC   GL253546   2.139  33.780   6.155
 9726POPC   C1A53547   1.981  33.778   6.455
 9726POPC   D2A53548   1.988  33.820   6.755
 9726POPC   C3A53549   1.947  33.814   7.055
 9726POPC   C4A53550   1.974  33.757   7.355
 9726POPC   C1B53551   2.194  33.733   6.455
 9726POPC   C2B53552   2.191  33.684   6.755
 9726POPC   C3B53553   2.262  33.660   7.055
 9726POPC   C4B53554   2.221  33.705   7.355
 9727POPC   NC353555  10.543  22.906   5.555
 9727POPC   PO453556  10.550  22.967   5.855
 9727POPC   GL153557  10.510  22.908   6.155
 9727POPC   GL253558  10.521  22.787   6.155
 9727POPC   C1A53559  10.547  22.912   6.455
 9727POPC   D2A53560  10.572  22.986   6.755
 9727POPC   C3A53561  10.549  22.890   7.055
 9727POPC   C4A53562  10.561  22.941   7.355
 9727POPC   C1B53563  10.658  22.702   6.455
 9727POPC   C2B53564  10.563  22.699   6.755
 9727POPC   C3B53565  10.590  22.706   7.055
 9727POPC   C4B53566  10.582  22.687   7.355
 9728POPC   NC353567  20.613  36.882   5.555
 9728POPC   PO453568  20.644  36.869   5.855
 9728POPC   GL153569  20.647  36.925   6.155
 9728POPC   GL253570  20.656  37.014   6.155
 9728POPC   C1A53571  20.584  36.941   6.455
 9728POPC   D2A53572  20.601  36.944   6.755
 9728POPC   C3A53573  20.654  36.888   7.055
 9728POPC   C4A53574  20.626  36.894   7.355
 9728POPC   C1B53575  20.759  37.075   6.455
 9728POPC   C2B53576  20.747  37.146   6.755
 9728POPC   C3B53577  20.774  37.131   7.055
 9728POPC   C4B53578  20.806  37.103   7.355
 9729POPC   NC353579   3.542  36.135   5.555
 9729POPC   PO453580   3.550  36.131   5.855
 9729POPC   GL153581   3.573  36.126   6.155
 9729POPC   GL253582   3.420  36.116   6.155
 9729POPC   C1A53583   3.528  36.169   6.455
 9729POPC   D2A53584   3.575  36.168   6.755
 9729POPC   C3A53585   3.590  36.109   7.055
 9729POPC   C4A53586   3.556  36.115   7.355
 9729POPC   C1B53587   3.332  36.137   6.455
 9729POPC   C2B53588   3.287  36.165   6.755
 9729POPC   C3B53589   3.341  36.188   7.055
 9729POPC   C4B53590   3.333  36.112   7.355
 9730POPC   NC353591   3.520  31.453   5.555
 9730POPC   PO453592   3.584  31.447   5.855
 9730POPC   GL153593   3.549  31.456   6.155
 9730POPC   GL253594   3.453  31.531   6.155
 9730POPC   C1A53595   3.540  31.481   6.455
 9730POPC   D2A53596   3.528  31.452   6.755
 9730POPC   C3A53597   3.528  31.462   7.055
 9730POPC   C4A53598   3.585  31.459   7.355
 9730POPC   C1B53599   3.309  31.553   6.455
 9730POPC   C2B53600   3.314  31.600   6.755
 9730POPC   C3B53601   3.279  31.555   7.055
 9730POPC   C4B53602   3.320  31.631   7.355
 9731POPC   NC353603   8.171  19.871   5.555
 9731POPC   PO453604   8.241  19.806   5.855
 9731POPC   GL153605   8.229  19.839   6.155
 9731POPC   GL253606   8.066  19.803   6.155
 9731POPC   C1A53607   8.165  19.841   6.455
 9731POPC   D2A53608   8.243  19.880   6.755
 9731POPC   C3A53609   8.192  19.870   7.055
 9731POPC   C4A53610   8.203  19.814   7.355
 9731POPC   C1B53611   7.974  19.790   6.455
 9731POPC   C2B53612   7.971  19.715   6.755
 9731POPC   C3B53613   7.959  19.729   7.055
 9731POPC   C4B53614   7.955  19.785   7.355
 9732POPC   NC353615   3.556  39.969   5.555
 9732POPC   PO453616   3.506  40.048   5.855
 9732POPC   GL153617   3.513  39.965   6.155
 9732POPC   GL253618   3.461  39.982   6.155
 9732POPC   C1A53619   3.496  39.960   6.455
 9732POPC   D2A53620   3.570  40.018   6.755
 9732POPC   C3A53621   3.499  39.997   7.055
 9732POPC   C4A53622   3.558  40.037   7.355
 9732POPC   C1B53623   3.344  39.944   6.455
 9732POPC   C2B53624   3.322  39.941   6.755
 9732POPC   C3B53625   3.324  40.004   7.055
 9732POPC   C4B53626   3.288  39.923   7.355
 9733POPC   NC353627   9.759  19.081   5.555
 9733POPC   PO453628   9.728  19.108   5.855
 9733POPC   GL153629   9.733  19.023   6.155
 9733POPC   GL253630   9.604  19.080   6.155
 9733POPC   C1A53631   9.784  19.016   6.455
 9733POPC   D2A53632   9.752  19.050   6.755
 9733POPC   C3A53633   9.781  19.076   7.055
 9733POPC   C4A53634   9.724  19.080   7.355
 9733POPC   C1B53635   9.505  19.067   6.455
 9733POPC   C2B53636   9.528  19.078   6.755
 9733POPC   C3B53637   9.540  19.098   7.055
 9733POPC   C4B53638   9.483  19.045   7.355
 9734POPC   NC353639   5.094  22.119   5.555
 9734POPC   PO453640   5.092  22.129   5.855
 9734POPC   GL153641   5.078  22.149   6.155
 9734POPC   GL253642   5.032  21.993   6.155
 9734POPC   C1A53643   5.133  22.149   6.455
 9734POPC   D2A53644   5.073  22.155   6.755
 9734POPC   C3A53645   5.064  22.170   7.055
 9734POPC   C4A53646   5.053  22.153   7.355
 9734POPC   C1B53647   5.011  21.873   6.455
 9734POPC   C2B53648   5.079  21.951   6.755
 9734POPC   C3B53649   5.022  21.870   7.055
 9734POPC   C4B53650   5.031  21.882   7.355
 9735POPC   NC353651  35.320  17.503   5.555
 9735POPC   PO453652  35.363  17.477   5.855
 9735POPC   GL153653  35.393  17.531   6.155
 9735POPC   GL253654  35.189  17.523   6.155
 9735POPC   C1A53655  35.376  17.549   6.455
 9735POPC   D2A53656  35.354  17.519   6.755
 9735POPC   C3A53657  35.381  17.550   7.055
 9735POPC   C4A53658  35.389  17.527   7.355
 9735POPC   C1B53659  35.071  17.586   6.455
 9735POPC   C2B53660  35.073  17.612   6.755
 9735POPC   C3B53661  35.089  17.622   7.055
 9735POPC   C4B53662  35.135  17.625   7.355
 9736POPC   NC353663  13.606  36.094   5.555
 9736POPC   PO453664  13.578  36.119   5.855
 9736POPC   GL153665  13.596  36.099   6.155
 9736POPC   GL253666  13.749  36.087   6.155
 9736POPC   C1A53667  13.650  36.169   6.455
 9736POPC   D2A53668  13.642  36.111   6.755
 9736POPC   C3A53669  13.641  36.177   7.055
 9736POPC   C4A53670  13.587  36.097   7.355
 9736POPC   C1B53671  13.885  36.128   6.455
 9736POPC   C2B53672  13.844  36.098   6.755
 9736POPC   C3B53673  13.884  36.144   7.055
 9736POPC   C4B53674  13.838  36.058   7.355
 9737POPC   NC353675   4.320  33.017   5.555
 9737POPC   PO453676   4.317  33.023   5.855
 9737POPC   GL153677   4.295  33.059   6.155
 9737POPC   GL253678   4.195  33.164   6.155
 9737POPC   C1A53679   4.349  33.015   6.455
 9737POPC   D2A53680   4.362  32.978   6.755
 9737POPC   C3A53681   4.307  33.007   7.055
 9737POPC   C4A53682   4.277  33.047   7.355
 9737POPC   C1B53683   4.171  33.246   6.455
 9737POPC   C2B53684   4.193  33.263   6.755
 9737POPC   C3B53685   4.141  33.180   7.055
 9737POPC   C4B53686   4.161  33.188   7.355
 9738POPC   NC353687  34.540   5.853   5.555
 9738POPC   PO453688  34.617   5.899   5.855
 9738POPC   GL153689  34.550   5.871   6.155
 9738POPC   GL253690  34.619   5.955   6.155
 9738POPC   C1A53691  34.567   5.868   6.455
 9738POPC   D2A53692  34.582   5.888   6.755
 9738POPC   C3A53693  34.613   5.835   7.055
 9738POPC   C4A53694  34.526   5.895   7.355
 9738POPC   C1B53695  34.718   6.124   6.455
 9738POPC   C2B53696  34.759   6.033   6.755
 9738POPC   C3B53697  34.734   6.062   7.055
 9738POPC   C4B53698  34.686   6.101   7.355
 9739POPC   NC353699  38.442  19.880   5.555
 9739POPC   PO453700  38.446  19.834   5.855
 9739POPC   GL153701  38.410  19.861   6.155
 9739POPC   GL253702  38.338  19.819   6.155
 9739POPC   C1A53703  38.476  19.814   6.455
 9739POPC   D2A53704  38.428  19.786   6.755
 9739POPC   C3A53705  38.460  19.828   7.055
 9739POPC   C4A53706  38.466  19.801   7.355
 9739POPC   C1B53707  38.238  19.781   6.455
 9739POPC   C2B53708  38.219  19.770   6.755
 9739POPC   C3B53709  38.240  19.842   7.055
 9739POPC   C4B53710  38.247  19.788   7.355
 9740POPC   NC353711   5.094   0.426   5.555
 9740POPC   PO453712   5.125   0.443   5.855
 9740POPC   GL153713   5.133   0.435   6.155
 9740POPC   GL253714   5.072   0.333   6.155
 9740POPC   C1A53715   5.060   0.438   6.455
 9740POPC   D2A53716   5.076   0.450   6.755
 9740POPC   C3A53717   5.126   0.458   7.055
 9740POPC   C4A53718   5.081   0.396   7.355
 9740POPC   C1B53719   4.948   0.263   6.455
 9740POPC   C2B53720   5.009   0.173   6.755
 9740POPC   C3B53721   5.015   0.194   7.055
 9740POPC   C4B53722   4.940   0.256   7.355
 9741POPC   NC353723  19.862  26.861   5.555
 9741POPC   PO453724  19.810  26.793   5.855
 9741POPC   GL153725  19.793  26.779   6.155
 9741POPC   GL253726  19.904  26.902   6.155
 9741POPC   C1A53727  19.815  26.785   6.455
 9741POPC   D2A53728  19.846  26.783   6.755
 9741POPC   C3A53729  19.875  26.832   7.055
 9741POPC   C4A53730  19.856  26.865   7.355
 9741POPC   C1B53731  19.951  27.077   6.455
 9741POPC   C2B53732  19.932  27.065   6.755
 9741POPC   C3B53733  19.972  27.089   7.055
 9741POPC   C4B53734  19.952  27.024   7.355
 9742POPC   NC353735   5.828  32.979   5.555
 9742POPC   PO453736   5.832  33.060   5.855
 9742POPC   GL153737   5.828  33.069   6.155
 9742POPC   GL253738   5.916  32.861   6.155
 9742POPC   C1A53739   5.861  33.017   6.455
 9742POPC   D2A53740   5.824  33.006   6.755
 9742POPC   C3A53741   5.871  33.024   7.055
 9742POPC   C4A53742   5.904  33.002   7.355
 9742POPC   C1B53743   5.903  32.780   6.455
 9742POPC   C2B53744   5.951  32.769   6.755
 9742POPC   C3B53745   5.943  32.792   7.055
 9742POPC   C4B53746   5.939  32.767   7.355
 9743POPC   NC353747  43.870   7.454   5.555
 9743POPC   PO453748  43.886   7.382   5.855
 9743POPC   GL153749  43.888   7.430   6.155
 9743POPC   GL253750  43.957   7.338   6.155
 9743POPC   C1A53751  43.850   7.378   6.455
 9743POPC   D2A53752  43.854   7.436   6.755
 9743POPC   C3A53753  43.898   7.404   7.055
 9743POPC   C4A53754  43.858   7.407   7.355
 9743POPC   C1B53755  44.120   7.314   6.455
 9743POPC   C2B53756  44.100   7.262   6.755
 9743POPC   C3B53757  44.087   7.300   7.055
 9743POPC   C4B53758  44.055   7.274   7.355
 9744POPC   NC353759  13.599   4.367   5.555
 9744POPC   PO453760  13.640   4.291   5.855
 9744POPC   GL153761  13.592   4.361   6.155
 9744POPC   GL253762  13.701   4.444   6.155
 9744POPC   C1A53763  13.623   4.272   6.455
 9744POPC   D2A53764  13.616   4.282   6.755
 9744POPC   C3A53765  13.615   4.329   7.055
 9744POPC   C4A53766  13.591   4.361   7.355
 9744POPC   C1B53767  13.786   4.466   6.455
 9744POPC   C2B53768  13.827   4.495   6.755
 9744POPC   C3B53769  13.838   4.451   7.055
 9744POPC   C4B53770  13.777   4.459   7.355
 9745POPC   NC353771   1.221  24.473   5.555
 9745POPC   PO453772   1.254  24.459   5.855
 9745POPC   GL153773   1.180  24.513   6.155
 9745POPC   GL253774   1.125  24.564   6.155
 9745POPC   C1A53775   1.178  24.520   6.455
 9745POPC   D2A53776   1.257  24.483   6.755
 9745POPC   C3A53777   1.191  24.537   7.055
 9745POPC   C4A53778   1.249  24.461   7.355
 9745POPC   C1B53779   1.009  24.639   6.455
 9745POPC   C2B53780   1.063  24.677   6.755
 9745POPC   C3B53781   0.989  24.689   7.055
 9745POPC   C4B53782   0.979  24.610   7.355
 9746POPC   NC353783  12.902  13.590   5.555
 9746POPC   PO453784  12.829  13.622   5.855
 9746POPC   GL153785  12.884  13.578   6.155
 9746POPC   GL253786  12.997  13.641   6.155
 9746POPC   C1A53787  12.882  13.580   6.455
 9746POPC   D2A53788  12.846  13.620   6.755
 9746POPC   C3A53789  12.852  13.580   7.055
 9746POPC   C4A53790  12.883  13.640   7.355
 9746POPC   C1B53791  13.094  13.619   6.455
 9746POPC   C2B53792  13.100  13.627   6.755
 9746POPC   C3B53793  13.055  13.665   7.055
 9746POPC   C4B53794  13.057  13.653   7.355
 9747POPC   NC353795  29.147  34.543   5.555
 9747POPC   PO453796  29.120  34.619   5.855
 9747POPC   GL153797  29.179  34.555   6.155
 9747POPC   GL253798  29.201  34.637   6.155
 9747POPC   C1A53799  29.177  34.619   6.455
 9747POPC   D2A53800  29.131  34.541   6.755
 9747POPC   C3A53801  29.180  34.606   7.055
 9747POPC   C4A53802  29.129  34.546   7.355
 9747POPC   C1B53803  29.380  34.703   6.455
 9747POPC   C2B53804  29.325  34.707   6.755
 9747POPC   C3B53805  29.370  34.780   7.055
 9747POPC   C4B53806  29.303  34.769   7.355
 9748POPC   NC353807  37.662  17.546   5.555
 9748POPC   PO453808  37.723  17.516   5.855
 9748POPC   GL153809  37.701  17.503   6.155
 9748POPC   GL253810  37.792  17.642   6.155
 9748POPC   C1A53811  37.667  17.472   6.455
 9748POPC   D2A53812  37.706  17.511   6.755
 9748POPC   C3A53813  37.656  17.541   7.055
 9748POPC   C4A53814  37.656  17.528   7.355
 9748POPC   C1B53815  37.874  17.730   6.455
 9748POPC   C2B53816  37.830  17.722   6.755
 9748POPC   C3B53817  37.830  17.713   7.055
 9748POPC   C4B53818  37.829  17.710   7.355
 9749POPC   NC353819   0.399   3.541   5.555
 9749POPC   PO453820   0.468   3.498   5.855
 9749POPC   GL153821   0.466   3.533   6.155
 9749POPC   GL253822   0.483   3.702   6.155
 9749POPC   C1A53823   0.449   3.583   6.455
 9749POPC   D2A53824   0.411   3.547   6.755
 9749POPC   C3A53825   0.475   3.505   7.055
 9749POPC   C4A53826   0.449   3.570   7.355
 9749POPC   C1B53827   0.522   3.780   6.455
 9749POPC   C2B53828   0.455   3.791   6.755
 9749POPC   C3B53829   0.494   3.741   7.055
 9749POPC   C4B53830   0.524   3.738   7.355
 9750POPC   NC353831   8.923  23.705   5.555
 9750POPC   PO453832   8.967  23.693   5.855
 9750POPC   GL153833   8.927  23.671   6.155
 9750POPC   GL253834   9.032  23.780   6.155
 9750POPC   C1A53835   8.963  23.705   6.455
 9750POPC   D2A53836   8.944  23.701   6.755
 9750POPC   C3A53837   8.932  23.734   7.055
 9750POPC   C4A53838   8.932  23.740   7.355
 9750POPC   C1B53839   9.203  23.857   6.455
 9750POPC   C2B53840   9.207  23.854   6.755
 9750POPC   C3B53841   9.179  23.887   7.055
 9750POPC   C4B53842   9.210  23.903   7.355
 9751POPC   NC353843  40.045   8.935   5.555
 9751POPC   PO453844  39.976   8.932   5.855
 9751POPC   GL153845  39.988   8.991   6.155
 9751POPC   GL253846  39.940   9.100   6.155
 9751POPC   C1A53847  39.964   8.932   6.455
 9751POPC   D2A53848  40.039   8.975   6.755
 9751POPC   C3A53849  40.024   8.937   7.055
 9751POPC   C4A53850  40.052   9.009   7.355
 9751POPC   C1B53851  39.883   9.222   6.455
 9751POPC   C2B53852  39.942   9.203   6.755
 9751POPC   C3B53853  39.970   9.188   7.055
 9751POPC   C4B53854  39.978   9.227   7.355
 9752POPC   NC353855  33.068  43.884   5.555
 9752POPC   PO453856  33.043  43.845   5.855
 9752POPC   GL153857  33.030  43.936   6.155
 9752POPC   GL253858  33.089  43.752   6.155
 9752POPC   C1A53859  33.065  43.920   6.455
 9752POPC   D2A53860  33.013  43.880   6.755
 9752POPC   C3A53861  33.026  43.871   7.055
 9752POPC   C4A53862  33.055  43.914   7.355
 9752POPC   C1B53863  33.155  43.649   6.455
 9752POPC   C2B53864  33.174  43.692   6.755
 9752POPC   C3B53865  33.115  43.709   7.055
 9752POPC   C4B53866  33.111  43.625   7.355
 9753POPC   NC353867  14.365   7.439   5.555
 9753POPC   PO453868  14.447   7.432   5.855
 9753POPC   GL153869  14.406   7.456   6.155
 9753POPC   GL253870  14.437   7.492   6.155
 9753POPC   C1A53871  14.395   7.419   6.455
 9753POPC   D2A53872  14.367   7.458   6.755
 9753POPC   C3A53873  14.393   7.470   7.055
 9753POPC   C4A53874  14.410   7.401   7.355
 9753POPC   C1B53875  14.454   7.708   6.455
 9753POPC   C2B53876  14.451   7.684   6.755
 9753POPC   C3B53877  14.465   7.621   7.055
 9753POPC   C4B53878  14.462   7.636   7.355
 9754POPC   NC353879  38.464   9.730   5.555
 9754POPC   PO453880  38.411   9.740   5.855
 9754POPC   GL153881  38.412   9.765   6.155
 9754POPC   GL253882  38.623   9.798   6.155
 9754POPC   C1A53883  38.477   9.714   6.455
 9754POPC   D2A53884  38.419   9.761   6.755
 9754POPC   C3A53885  38.443   9.758   7.055
 9754POPC   C4A53886  38.424   9.715   7.355
 9754POPC   C1B53887  38.690   9.724   6.455
 9754POPC   C2B53888  38.668   9.813   6.755
 9754POPC   C3B53889  38.735   9.769   7.055
 9754POPC   C4B53890  38.663   9.724   7.355
 9755POPC   NC353891  39.260  26.797   5.555
 9755POPC   PO453892  39.239  26.802   5.855
 9755POPC   GL153893  39.276  26.797   6.155
 9755POPC   GL253894  39.349  26.754   6.155
 9755POPC   C1A53895  39.196  26.845   6.455
 9755POPC   D2A53896  39.253  26.771   6.755
 9755POPC   C3A53897  39.265  26.820   7.055
 9755POPC   C4A53898  39.224  26.846   7.355
 9755POPC   C1B53899  39.447  26.655   6.455
 9755POPC   C2B53900  39.471  26.649   6.755
 9755POPC   C3B53901  39.399  26.654   7.055
 9755POPC   C4B53902  39.391  26.679   7.355
 9756POPC   NC353903  37.682  39.985   5.555
 9756POPC   PO453904  37.633  39.980   5.855
 9756POPC   GL153905  37.668  40.030   6.155
 9756POPC   GL253906  37.719  40.114   6.155
 9756POPC   C1A53907  37.689  39.958   6.455
 9756POPC   D2A53908  37.660  40.029   6.755
 9756POPC   C3A53909  37.688  39.991   7.055
 9756POPC   C4A53910  37.722  40.023   7.355
 9756POPC   C1B53911  37.811  40.181   6.455
 9756POPC   C2B53912  37.816  40.182   6.755
 9756POPC   C3B53913  37.822  40.204   7.055
 9756POPC   C4B53914  37.826  40.191   7.355
 9757POPC   NC353915   0.473  32.288   5.555
 9757POPC   PO453916   0.486  32.209   5.855
 9757POPC   GL153917   0.457  32.239   6.155
 9757POPC   GL253918   0.334  32.384   6.155
 9757POPC   C1A53919   0.479  32.248   6.455
 9757POPC   D2A53920   0.441  32.254   6.755
 9757POPC   C3A53921   0.406  32.262   7.055
 9757POPC   C4A53922   0.442  32.273   7.355
 9757POPC   C1B53923   0.269  32.440   6.455
 9757POPC   C2B53924   0.307  32.485   6.755
 9757POPC   C3B53925   0.339  32.429   7.055
 9757POPC   C4B53926   0.266  32.402   7.355
 9758POPC   NC353927   6.642  23.728   5.555
 9758POPC   PO453928   6.641  23.666   5.855
 9758POPC   GL153929   6.620  23.673   6.155
 9758POPC   GL253930   6.594  23.604   6.155
 9758POPC   C1A53931   6.654  23.736   6.455
 9758POPC   D2A53932   6.614  23.701   6.755
 9758POPC   C3A53933   6.618  23.685   7.055
 9758POPC   C4A53934   6.607  23.726   7.355
 9758POPC   C1B53935   6.470  23.482   6.455
 9758POPC   C2B53936   6.502  23.546   6.755
 9758POPC   C3B53937   6.506  23.562   7.055
 9758POPC   C4B53938   6.528  23.476   7.355
 9759POPC   NC353939   1.171   1.180   5.555
 9759POPC   PO453940   1.166   1.233   5.855
 9759POPC   GL153941   1.180   1.216   6.155
 9759POPC   GL253942   1.127   1.090   6.155
 9759POPC   C1A53943   1.195   1.216   6.455
 9759POPC   D2A53944   1.252   1.211   6.755
 9759POPC   C3A53945   1.242   1.167   7.055
 9759POPC   C4A53946   1.250   1.258   7.355
 9759POPC   C1B53947   0.986   1.019   6.455
 9759POPC   C2B53948   1.043   1.090   6.755
 9759POPC   C3B53949   0.988   1.028   7.055
 9759POPC   C4B53950   0.968   1.084   7.355
 9760POPC   NC353951   1.980  22.956   5.555
 9760POPC   PO453952   1.991  22.962   5.855
 9760POPC   GL153953   2.035  22.967   6.155
 9760POPC   GL253954   1.900  23.086   6.155
 9760POPC   C1A53955   1.973  22.955   6.455
 9760POPC   D2A53956   1.985  22.953   6.755
 9760POPC   C3A53957   2.000  22.913   7.055
 9760POPC   C4A53958   1.945  22.903   7.355
 9760POPC   C1B53959   1.858  23.154   6.455
 9760POPC   C2B53960   1.862  23.185   6.755
 9760POPC   C3B53961   1.881  23.180   7.055
 9760POPC   C4B53962   1.867  23.192   7.355
 9761POPC   NC353963  39.991  39.219   5.555
 9761POPC   PO453964  40.022  39.235   5.855
 9761POPC   GL153965  39.961  39.235   6.155
 9761POPC   GL253966  39.869  39.179   6.155
 9761POPC   C1A53967  40.009  39.269   6.455
 9761POPC   D2A53968  39.991  39.220   6.755
 9761POPC   C3A53969  39.977  39.253   7.055
 9761POPC   C4A53970  39.966  39.233   7.355
 9761POPC   C1B53971  39.742  39.219   6.455
 9761POPC   C2B53972  39.780  39.238   6.755
 9761POPC   C3B53973  39.719  39.183   7.055
 9761POPC   C4B53974  39.720  39.256   7.355
 9762POPC   NC353975  15.225  12.080   5.555
 9762POPC   PO453976  15.130  12.094   5.855
 9762POPC   GL153977  15.147  12.030   6.155
 9762POPC   GL253978  15.175  12.229   6.155
 9762POPC   C1A53979  15.178  12.093   6.455
 9762POPC   D2A53980  15.171  12.085   6.755
 9762POPC   C3A53981  15.162  12.085   7.055
 9762POPC   C4A53982  15.205  12.120   7.355
 9762POPC   C1B53983  15.245  12.282   6.455
 9762POPC   C2B53984  15.235  12.311   6.755
 9762POPC   C3B53985  15.206  12.356   7.055
 9762POPC   C4B53986  15.223  12.328   7.355
 9763POPC   NC353987  24.459   5.851   5.555
 9763POPC   PO453988  24.531   5.911   5.855
 9763POPC   GL153989  24.447   5.832   6.155
 9763POPC   GL253990  24.558   5.794   6.155
 9763POPC   C1A53991  24.477   5.824   6.455
 9763POPC   D2A53992  24.446   5.829   6.755
 9763POPC   C3A53993  24.509   5.892   7.055
 9763POPC   C4A53994  24.492   5.912   7.355
 9763POPC   C1B53995  24.673   5.689   6.455
 9763POPC   C2B53996  24.605   5.709   6.755
 9763POPC   C3B53997  24.684   5.696   7.055
 9763POPC   C4B53998  24.621   5.713   7.355
 9764POPC   NC353999  25.294  27.596   5.555
 9764POPC   PO454000  25.221  27.579   5.855
 9764POPC   GL154001  25.305  27.602   6.155
 9764POPC   GL254002  25.142  27.618   6.155
 9764POPC   C1A54003  25.224  27.565   6.455
 9764POPC   D2A54004  25.310  27.635   6.755
 9764POPC   C3A54005  25.270  27.600   7.055
 9764POPC   C4A54006  25.271  27.563   7.355
 9764POPC   C1B54007  24.982  27.641   6.455
 9764POPC   C2B54008  25.054  27.555   6.755
 9764POPC   C3B54009  24.987  27.564   7.055
 9764POPC   C4B54010  25.010  27.572   7.355
 9765POPC   NC354011   5.071  16.764   5.555
 9765POPC   PO454012   5.128  16.691   5.855
 9765POPC   GL154013   5.112  16.689   6.155
 9765POPC   GL254014   5.179  16.883   6.155
 9765POPC   C1A54015   5.131  16.779   6.455
 9765POPC   D2A54016   5.104  16.708   6.755
 9765POPC   C3A54017   5.054  16.713   7.055
 9765POPC   C4A54018   5.113  16.738   7.355
 9765POPC   C1B54019   5.259  16.964   6.455
 9765POPC   C2B54020   5.256  16.932   6.755
 9765POPC   C3B54021   5.250  16.900   7.055
 9765POPC   C4B54022   5.265  16.971   7.355
 9766POPC   NC354023  13.611  29.952   5.555
 9766POPC   PO454024  13.619  29.904   5.855
 9766POPC   GL154025  13.642  29.908   6.155
 9766POPC   GL254026  13.666  29.822   6.155
 9766POPC   C1A54027  13.623  29.935   6.455
 9766POPC   D2A54028  13.615  29.893   6.755
 9766POPC   C3A54029  13.635  29.897   7.055
 9766POPC   C4A54030  13.677  29.954   7.355
 9766POPC   C1B54031  13.825  29.695   6.455
 9766POPC   C2B54032  13.794  29.729   6.755
 9766POPC   C3B54033  13.848  29.771   7.055
 9766POPC   C4B54034  13.785  29.756   7.355
 9767POPC   NC354035   5.050   9.786   5.555
 9767POPC   PO454036   5.128   9.718   5.855
 9767POPC   GL154037   5.068   9.797   6.155
 9767POPC   GL254038   5.154   9.675   6.155
 9767POPC   C1A54039   5.091   9.747   6.455
 9767POPC   D2A54040   5.075   9.758   6.755
 9767POPC   C3A54041   5.126   9.700   7.055
 9767POPC   C4A54042   5.119   9.737   7.355
 9767POPC   C1B54043   5.239   9.538   6.455
 9767POPC   C2B54044   5.186   9.503   6.755
 9767POPC   C3B54045   5.246   9.527   7.055
 9767POPC   C4B54046   5.257   9.524   7.355
 9768POPC   NC354047  36.110  16.746   5.555
 9768POPC   PO454048  36.132  16.700   5.855
 9768POPC   GL154049  36.104  16.686   6.155
 9768POPC   GL254050  36.196  16.614   6.155
 9768POPC   C1A54051  36.085  16.762   6.455
 9768POPC   D2A54052  36.105  16.780   6.755
 9768POPC   C3A54053  36.157  16.689   7.055
 9768POPC   C4A54054  36.173  16.764   7.355
 9768POPC   C1B54055  36.294  16.531   6.455
 9768POPC   C2B54056  36.299  16.477   6.755
 9768POPC   C3B54057  36.251  16.469   7.055
 9768POPC   C4B54058  36.279  16.469   7.355
 9769POPC   NC354059  18.294  21.421   5.555
 9769POPC   PO454060  18.297  21.372   5.855
 9769POPC   GL154061  18.270  21.360   6.155
 9769POPC   GL254062  18.223  21.537   6.155
 9769POPC   C1A54063  18.314  21.394   6.455
 9769POPC   D2A54064  18.260  21.410   6.755
 9769POPC   C3A54065  18.315  21.435   7.055
 9769POPC   C4A54066  18.262  21.433   7.355
 9769POPC   C1B54067  18.167  21.621   6.455
 9769POPC   C2B54068  18.220  21.585   6.755
 9769POPC   C3B54069  18.190  21.635   7.055
 9769POPC   C4B54070  18.217  21.578   7.355
 9770POPC   NC354071  23.681  43.881   5.555
 9770POPC   PO454072  23.685  43.884   5.855
 9770POPC   GL154073  23.757  43.867   6.155
 9770POPC   GL254074  23.551  43.887   6.155
 9770POPC   C1A54075  23.675  43.881   6.455
 9770POPC   D2A54076  23.763  43.846   6.755
 9770POPC   C3A54077  23.722  43.860   7.055
 9770POPC   C4A54078  23.697  43.880   7.355
 9770POPC   C1B54079  23.471  43.813   6.455
 9770POPC   C2B54080  23.498  43.828   6.755
 9770POPC   C3B54081  23.514  43.816   7.055
 9770POPC   C4B54082  23.424  43.885   7.355
 9771POPC   NC354083  12.124  35.331   5.555
 9771POPC   PO454084  12.106  35.322   5.855
 9771POPC   GL154085  12.063  35.316   6.155
 9771POPC   GL254086  11.917  35.320   6.155
 9771POPC   C1A54087  12.108  35.358   6.455
 9771POPC   D2A54088  12.044  35.318   6.755
 9771POPC   C3A54089  12.050  35.335   7.055
 9771POPC   C4A54090  12.027  35.358   7.355
 9771POPC   C1B54091  11.870  35.376   6.455
 9771POPC   C2B54092  11.819  35.317   6.755
 9771POPC   C3B54093  11.777  35.365   7.055
 9771POPC   C4B54094  11.873  35.301   7.355
 9772POPC   NC354095  12.107  29.108   5.555
 9772POPC   PO454096  12.039  29.184   5.855
 9772POPC   GL154097  12.045  29.165   6.155
 9772POPC   GL254098  11.996  29.016   6.155
 9772POPC   C1A54099  12.041  29.154   6.455
 9772POPC   D2A54100  12.058  29.123   6.755
 9772POPC   C3A54101  12.030  29.153   7.055
 9772POPC   C4A54102  12.095  29.167   7.355
 9772POPC   C1B54103  11.870  28.939   6.455
 9772POPC   C2B54104  11.869  28.987   6.755
 9772POPC   C3B54105  11.911  28.938   7.055
 9772POPC   C4B54106  11.934  29.009   7.355
 9773POPC   NC354107  44.625   0.428   5.555
 9773POPC   PO454108  44.647   0.418   5.855
 9773POPC   GL154109  44.667   0.441   6.155
 9773POPC   GL254110  44.771   0.366   6.155
 9773POPC   C1A54111  44.692   0.424   6.455
 9773POPC   D2A54112  44.638   0.437   6.755
 9773POPC   C3A54113  44.655   0.427   7.055
 9773POPC   C4A54114  44.696   0.471   7.355
 9773POPC   C1B54115  44.945   0.428   6.455
 9773POPC   C2B54116  44.909   0.334   6.755
 9773POPC   C3B54117  44.924   0.392   7.055
 9773POPC   C4B54118  44.953   0.337   7.355
 9774POPC   NC354119  26.081   1.204   5.555
 9774POPC   PO454120  26.091   1.240   5.855
 9774POPC   GL154121  26.023   1.227   6.155
 9774POPC   GL254122  26.037   1.145   6.155
 9774POPC   C1A54123  25.992   1.228   6.455
 9774POPC   D2A54124  26.066   1.229   6.755
 9774POPC   C3A54125  26.048   1.213   7.055
 9774POPC   C4A54126  26.080   1.182   7.355
 9774POPC   C1B54127  25.942   0.939   6.455
 9774POPC   C2B54128  25.918   1.026   6.755
 9774POPC   C3B54129  25.905   1.026   7.055
 9774POPC   C4B54130  25.957   1.023   7.355
 9775POPC   NC354131  36.146  10.535   5.555
 9775POPC   PO454132  36.127  10.503   5.855
 9775POPC   GL154133  36.174  10.513   6.155
 9775POPC   GL254134  36.206  10.441   6.155
 9775POPC   C1A54135  36.145  10.570   6.455
 9775POPC   D2A54136  36.127  10.504   6.755
 9775POPC   C3A54137  36.090  10.514   7.055
 9775POPC   C4A54138  36.143  10.478   7.355
 9775POPC   C1B54139  36.362  10.458   6.455
 9775POPC   C2B54140  36.401  10.463   6.755
 9775POPC   C3B54141  36.398  10.463   7.055
 9775POPC   C4B54142  36.311  10.422   7.355
 9776POPC   NC354143  16.726  22.986   5.555
 9776POPC   PO454144  16.717  22.973   5.855
 9776POPC   GL154145  16.727  22.924   6.155
 9776POPC   GL254146  16.796  23.052   6.155
 9776POPC   C1A54147  16.746  22.940   6.455
 9776POPC   D2A54148  16.768  22.951   6.755
 9776POPC   C3A54149  16.686  22.901   7.055
 9776POPC   C4A54150  16.701  22.892   7.355
 9776POPC   C1B54151  16.927  23.062   6.455
 9776POPC   C2B54152  16.946  23.112   6.755
 9776POPC   C3B54153  16.966  23.092   7.055
 9776POPC   C4B54154  16.925  23.044   7.355
 9777POPC   NC354155  42.309  26.007   5.555
 9777POPC   PO454156  42.358  26.055   5.855
 9777POPC   GL154157  42.362  26.004   6.155
 9777POPC   GL254158  42.381  26.085   6.155
 9777POPC   C1A54159  42.304  26.050   6.455
 9777POPC   D2A54160  42.311  26.056   6.755
 9777POPC   C3A54161  42.344  26.045   7.055
 9777POPC   C4A54162  42.337  26.032   7.355
 9777POPC   C1B54163  42.485  26.191   6.455
 9777POPC   C2B54164  42.527  26.162   6.755
 9777POPC   C3B54165  42.553  26.214   7.055
 9777POPC   C4B54166  42.537  26.237   7.355
 9778POPC   NC354167  17.515  25.299   5.555
 9778POPC   PO454168  17.542  25.311   5.855
 9778POPC   GL154169  17.506  25.234   6.155
 9778POPC   GL254170  17.579  25.169   6.155
 9778POPC   C1A54171  17.462  25.230   6.455
 9778POPC   D2A54172  17.470  25.283   6.755
 9778POPC   C3A54173  17.556  25.223   7.055
 9778POPC   C4A54174  17.526  25.310   7.355
 9778POPC   C1B54175  17.709  25.080   6.455
 9778POPC   C2B54176  17.711  25.127   6.755
 9778POPC   C3B54177  17.633  25.086   7.055
 9778POPC   C4B54178  17.668  25.102   7.355
 9779POPC   NC354179  36.861  19.857   5.555
 9779POPC   PO454180  36.899  19.786   5.855
 9779POPC   GL154181  36.948  19.883   6.155
 9779POPC   GL254182  36.793  19.870   6.155
 9779POPC   C1A54183  36.893  19.865   6.455
 9779POPC   D2A54184  36.913  19.868   6.755
 9779POPC   C3A54185  36.926  19.867   7.055
 9779POPC   C4A54186  36.877  19.786   7.355
 9779POPC   C1B54187  36.689  19.955   6.455
 9779POPC   C2B54188  36.731  19.937   6.755
 9779POPC   C3B54189  36.701  19.980   7.055
 9779POPC   C4B54190  36.687  19.940   7.355
 9780POPC   NC354191   8.211  18.276   5.555
 9780POPC   PO454192   8.148  18.255   5.855
 9780POPC   GL154193   8.151  18.298   6.155
 9780POPC   GL254194   8.324  18.271   6.155
 9780POPC   C1A54195   8.172  18.305   6.455
 9780POPC   D2A54196   8.201  18.282   6.755
 9780POPC   C3A54197   8.148  18.240   7.055
 9780POPC   C4A54198   8.227  18.291   7.355
 9780POPC   C1B54199   8.461  18.335   6.455
 9780POPC   C2B54200   8.404  18.283   6.755
 9780POPC   C3B54201   8.439  18.313   7.055
 9780POPC   C4B54202   8.473  18.279   7.355
 9781POPC   NC354203  32.272  20.638   5.555
 9781POPC   PO454204  32.217  20.564   5.855
 9781POPC   GL154205  32.212  20.596   6.155
 9781POPC   GL254206  32.354  20.679   6.155
 9781POPC   C1A54207  32.208  20.603   6.455
 9781POPC   D2A54208  32.198  20.600   6.755
 9781POPC   C3A54209  32.281  20.602   7.055
 9781POPC   C4A54210  32.248  20.629   7.355
 9781POPC   C1B54211  32.489  20.696   6.455
 9781POPC   C2B54212  32.479  20.756   6.755
 9781POPC   C3B54213  32.501  20.726   7.055
 9781POPC   C4B54214  32.492  20.743   7.355
 9782POPC   NC354215  44.702  31.454   5.555
 9782POPC   PO454216  44.668  31.450   5.855
 9782POPC   GL154217  44.671  31.522   6.155
 9782POPC   GL254218  44.591  31.386   6.155
 9782POPC   C1A54219  44.695  31.517   6.455
 9782POPC   D2A54220  44.686  31.472   6.755
 9782POPC   C3A54221  44.658  31.503   7.055
 9782POPC   C4A54222  44.707  31.471   7.355
 9782POPC   C1B54223  44.599  31.228   6.455
 9782POPC   C2B54224  44.571  31.283   6.755
 9782POPC   C3B54225  44.592  31.212   7.055
 9782POPC   C4B54226  44.520  31.290   7.355
 9783POPC   NC354227  18.298  24.460   5.555
 9783POPC   PO454228  18.312  24.503   5.855
 9783POPC   GL154229  18.237  24.496   6.155
 9783POPC   GL254230  18.200  24.550   6.155
 9783POPC   C1A54231  18.268  24.535   6.455
 9783POPC   D2A54232  18.286  24.471   6.755
 9783POPC   C3A54233  18.265  24.498   7.055
 9783POPC   C4A54234  18.315  24.458   7.355
 9783POPC   C1B54235  18.076  24.597   6.455
 9783POPC   C2B54236  18.081  24.614   6.755
 9783POPC   C3B54237  18.074  24.588   7.055
 9783POPC   C4B54238  18.059  24.649   7.355
 9784POPC   NC354239  43.147  14.415   5.555
 9784POPC   PO454240  43.121  14.367   5.855
 9784POPC   GL154241  43.072  14.398   6.155
 9784POPC   GL254242  43.161  14.492   6.155
 9784POPC   C1A54243  43.071  14.385   6.455
 9784POPC   D2A54244  43.126  14.365   6.755
 9784POPC   C3A54245  43.096  14.402   7.055
 9784POPC   C4A54246  43.080  14.360   7.355
 9784POPC   C1B54247  43.211  14.631   6.455
 9784POPC   C2B54248  43.187  14.606   6.755
 9784POPC   C3B54249  43.186  14.596   7.055
 9784POPC   C4B54250  43.205  14.617   7.355
 9785POPC   NC354251  24.535  28.401   5.555
 9785POPC   PO454252  24.454  28.395   5.855
 9785POPC   GL154253  24.473  28.384   6.155
 9785POPC   GL254254  24.497  28.272   6.155
 9785POPC   C1A54255  24.468  28.356   6.455
 9785POPC   D2A54256  24.501  28.347   6.755
 9785POPC   C3A54257  24.531  28.370   7.055
 9785POPC   C4A54258  24.451  28.411   7.355
 9785POPC   C1B54259  24.447  28.121   6.455
 9785POPC   C2B54260  24.395  28.122   6.755
 9785POPC   C3B54261  24.383  28.094   7.055
 9785POPC   C4B54262  24.380  28.156   7.355
 9786POPC   NC354263  27.584  38.482   5.555
 9786POPC   PO454264  27.589  38.500   5.855
 9786POPC   GL154265  27.564  38.422   6.155
 9786POPC   GL254266  27.765  38.420   6.155
 9786POPC   C1A54267  27.555  38.464   6.455
 9786POPC   D2A54268  27.635  38.423   6.755
 9786POPC   C3A54269  27.614  38.440   7.055
 9786POPC   C4A54270  27.642  38.480   7.355
 9786POPC   C1B54271  27.811  38.414   6.455
 9786POPC   C2B54272  27.802  38.451   6.755
 9786POPC   C3B54273  27.811  38.461   7.055
 9786POPC   C4B54274  27.854  38.362   7.355
 9787POPC   NC354275  26.772  44.687   5.555
 9787POPC   PO454276  26.807  44.692   5.855
 9787POPC   GL154277  26.829  44.619   6.155
 9787POPC   GL254278  26.821  44.576   6.155
 9787POPC   C1A54279  26.793  44.674   6.455
 9787POPC   D2A54280  26.849  44.665   6.755
 9787POPC   C3A54281  26.800  44.664   7.055
 9787POPC   C4A54282  26.803  44.695   7.355
 9787POPC   C1B54283  26.786  44.453   6.455
 9787POPC   C2B54284  26.796  44.455   6.755
 9787POPC   C3B54285  26.786  44.372   7.055
 9787POPC   C4B54286  26.802  44.460   7.355
 9788POPC   NC354287   1.978   6.615   5.555
 9788POPC   PO454288   1.961   6.635   5.855
 9788POPC   GL154289   2.021   6.650   6.155
 9788POPC   GL254290   1.909   6.508   6.155
 9788POPC   C1A54291   2.002   6.638   6.455
 9788POPC   D2A54292   1.962   6.628   6.755
 9788POPC   C3A54293   2.019   6.626   7.055
 9788POPC   C4A54294   1.963   6.662   7.355
 9788POPC   C1B54295   1.789   6.432   6.455
 9788POPC   C2B54296   1.779   6.479   6.755
 9788POPC   C3B54297   1.850   6.507   7.055
 9788POPC   C4B54298   1.855   6.421   7.355
 9789POPC   NC354299  36.079   5.840   5.555
 9789POPC   PO454300  36.124   5.904   5.855
 9789POPC   GL154301  36.174   5.910   6.155
 9789POPC   GL254302  36.116   5.736   6.155
 9789POPC   C1A54303  36.148   5.868   6.455
 9789POPC   D2A54304  36.094   5.902   6.755
 9789POPC   C3A54305  36.082   5.906   7.055
 9789POPC   C4A54306  36.176   5.875   7.355
 9789POPC   C1B54307  36.153   5.656   6.455
 9789POPC   C2B54308  36.204   5.609   6.755
 9789POPC   C3B54309  36.166   5.654   7.055
 9789POPC   C4B54310  36.199   5.610   7.355
 9790POPC   NC354311  21.433   0.480   5.555
 9790POPC   PO454312  21.340   0.452   5.855
 9790POPC   GL154313  21.366   0.463   6.155
 9790POPC   GL254314  21.298   0.554   6.155
 9790POPC   C1A54315  21.345   0.440   6.455
 9790POPC   D2A54316  21.432   0.413   6.755
 9790POPC   C3A54317  21.363   0.483   7.055
 9790POPC   C4A54318  21.347   0.441   7.355
 9790POPC   C1B54319  21.167   0.564   6.455
 9790POPC   C2B54320  21.145   0.635   6.755
 9790POPC   C3B54321  21.183   0.602   7.055
 9790POPC   C4B54322  21.176   0.577   7.355
 9791POPC   NC354323  12.886  38.467   5.555
 9791POPC   PO454324  12.850  38.480   5.855
 9791POPC   GL154325  12.818  38.487   6.155
 9791POPC   GL254326  12.753  38.341   6.155
 9791POPC   C1A54327  12.806  38.496   6.455
 9791POPC   D2A54328  12.817  38.439   6.755
 9791POPC   C3A54329  12.863  38.465   7.055
 9791POPC   C4A54330  12.829  38.434   7.355
 9791POPC   C1B54331  12.677  38.213   6.455
 9791POPC   C2B54332  12.689  38.197   6.755
 9791POPC   C3B54333  12.759  38.237   7.055
 9791POPC   C4B54334  12.680  38.224   7.355
 9792POPC   NC354335  15.917   0.441   5.555
 9792POPC   PO454336  15.985   0.438   5.855
 9792POPC   GL154337  15.965   0.422   6.155
 9792POPC   GL254338  15.866   0.463   6.155
 9792POPC   C1A54339  15.996   0.475   6.455
 9792POPC   D2A54340  15.937   0.481   6.755
 9792POPC   C3A54341  15.973   0.435   7.055
 9792POPC   C4A54342  15.984   0.415   7.355
 9792POPC   C1B54343  15.741   0.454   6.455
 9792POPC   C2B54344  15.762   0.532   6.755
 9792POPC   C3B54345  15.694   0.520   7.055
 9792POPC   C4B54346  15.676   0.503   7.355
 9793POPC   NC354347  42.334  40.752   5.555
 9793POPC   PO454348  42.323  40.810   5.855
 9793POPC   GL154349  42.376  40.749   6.155
 9793POPC   GL254350  42.246  40.849   6.155
 9793POPC   C1A54351  42.354  40.762   6.455
 9793POPC   D2A54352  42.323  40.784   6.755
 9793POPC   C3A54353  42.301  40.812   7.055
 9793POPC   C4A54354  42.350  40.818   7.355
 9793POPC   C1B54355  42.059  40.929   6.455
 9793POPC   C2B54356  42.090  40.837   6.755
 9793POPC   C3B54357  42.073  40.872   7.055
 9793POPC   C4B54358  42.128  40.884   7.355
 9794POPC   NC354359  18.285  20.563   5.555
 9794POPC   PO454360  18.314  20.564   5.855
 9794POPC   GL154361  18.287  20.606   6.155
 9794POPC   GL254362  18.204  20.571   6.155
 9794POPC   C1A54363  18.310  20.562   6.455
 9794POPC   D2A54364  18.314  20.595   6.755
 9794POPC   C3A54365  18.283  20.621   7.055
 9794POPC   C4A54366  18.246  20.583   7.355
 9794POPC   C1B54367  18.079  20.483   6.455
 9794POPC   C2B54368  18.086  20.551   6.755
 9794POPC   C3B54369  18.102  20.535   7.055
 9794POPC   C4B54370  18.035  20.473   7.355
 9795POPC   NC354371   0.485  20.595   5.555
 9795POPC   PO454372   0.417  20.568   5.855
 9795POPC   GL154373   0.462  20.654   6.155
 9795POPC   GL254374   0.425  20.687   6.155
 9795POPC   C1A54375   0.458  20.634   6.455
 9795POPC   D2A54376   0.471  20.659   6.755
 9795POPC   C3A54377   0.484  20.621   7.055
 9795POPC   C4A54378   0.484  20.565   7.355
 9795POPC   C1B54379   0.530  20.868   6.455
 9795POPC   C2B54380   0.502  20.878   6.755
 9795POPC   C3B54381   0.508  20.860   7.055
 9795POPC   C4B54382   0.458  20.873   7.355
 9796POPC   NC354383  16.763  32.221   5.555
 9796POPC   PO454384  16.693  32.213   5.855
 9796POPC   GL154385  16.698  32.248   6.155
 9796POPC   GL254386  16.844  32.330   6.155
 9796POPC   C1A54387  16.776  32.295   6.455
 9796POPC   D2A54388  16.727  32.224   6.755
 9796POPC   C3A54389  16.700  32.249   7.055
 9796POPC   C4A54390  16.733  32.235   7.355
 9796POPC   C1B54391  16.947  32.347   6.455
 9796POPC   C2B54392  16.957  32.312   6.755
 9796POPC   C3B54393  16.923  32.378   7.055
 9796POPC   C4B54394  16.970  32.365   7.355
 9797POPC   NC354395  34.599  33.055   5.555
 9797POPC   PO454396  34.595  33.013   5.855
 9797POPC   GL154397  34.582  32.994   6.155
 9797POPC   GL254398  34.524  32.926   6.155
 9797POPC   C1A54399  34.569  33.060   6.455
 9797POPC   D2A54400  34.620  33.053   6.755
 9797POPC   C3A54401  34.617  33.041   7.055
 9797POPC   C4A54402  34.621  33.058   7.355
 9797POPC   C1B54403  34.555  32.822   6.455
 9797POPC   C2B54404  34.563  32.772   6.755
 9797POPC   C3B54405  34.508  32.729   7.055
 9797POPC   C4B54406  34.573  32.821   7.355
 9798POPC   NC354407  22.948   5.120   5.555
 9798POPC   PO454408  22.952   5.057   5.855
 9798POPC   GL154409  22.894   5.126   6.155
 9798POPC   GL254410  23.004   5.047   6.155
 9798POPC   C1A54411  22.981   5.064   6.455
 9798POPC   D2A54412  22.932   5.043   6.755
 9798POPC   C3A54413  22.891   5.111   7.055
 9798POPC   C4A54414  22.943   5.108   7.355
 9798POPC   C1B54415  23.154   4.911   6.455
 9798POPC   C2B54416  23.165   4.919   6.755
 9798POPC   C3B54417  23.097   4.915   7.055
 9798POPC   C4B54418  23.094   4.892   7.355
 9799POPC   NC354419  15.196  34.564   5.555
 9799POPC   PO454420  15.167  34.571   5.855
 9799POPC   GL154421  15.199  34.560   6.155
 9799POPC   GL254422  15.234  34.420   6.155
 9799POPC   C1A54423  15.218  34.539   6.455
 9799POPC   D2A54424  15.216  34.605   6.755
 9799POPC   C3A54425  15.168  34.610   7.055
 9799POPC   C4A54426  15.170  34.597   7.355
 9799POPC   C1B54427  15.309  34.385   6.455
 9799POPC   C2B54428  15.255  34.377   6.755
 9799POPC   C3B54429  15.226  34.367   7.055
 9799POPC   C4B54430  15.302  34.353   7.355
 9800POPC   NC354431  20.589  44.663   5.555
 9800POPC   PO454432  20.602  44.622   5.855
 9800POPC   GL154433  20.577  44.698   6.155
 9800POPC   GL254434  20.685  44.624   6.155
 9800POPC   C1A54435  20.637  44.641   6.455
 9800POPC   D2A54436  20.594  44.686   6.755
 9800POPC   C3A54437  20.598  44.680   7.055
 9800POPC   C4A54438  20.576  44.671   7.355
 9800POPC   C1B54439  20.883  44.537   6.455
 9800POPC   C2B54440  20.813  44.576   6.755
 9800POPC   C3B54441  20.812  44.609   7.055
 9800POPC   C4B54442  20.832  44.545   7.355
 9801POPC   NC354443  38.499  30.680   5.555
 9801POPC   PO454444  38.478  30.712   5.855
 9801POPC   GL154445  38.437  30.647   6.155
 9801POPC   GL254446  38.454  30.857   6.155
 9801POPC   C1A54447  38.444  30.702   6.455
 9801POPC   D2A54448  38.461  30.708   6.755
 9801POPC   C3A54449  38.488  30.675   7.055
 9801POPC   C4A54450  38.502  30.668   7.355
 9801POPC   C1B54451  38.563  30.933   6.455
 9801POPC   C2B54452  38.553  30.957   6.755
 9801POPC   C3B54453  38.504  30.957   7.055
 9801POPC   C4B54454  38.575  30.939   7.355
 9802POPC   NC354455  10.481  15.198   5.555
 9802POPC   PO454456  10.523  15.130   5.855
 9802POPC   GL154457  10.526  15.148   6.155
 9802POPC   GL254458  10.439  15.200   6.155
 9802POPC   C1A54459  10.548  15.178   6.455
 9802POPC   D2A54460  10.519  15.207   6.755
 9802POPC   C3A54461  10.549  15.139   7.055
 9802POPC   C4A54462  10.521  15.191   7.355
 9802POPC   C1B54463  10.269  15.118   6.455
 9802POPC   C2B54464  10.248  15.118   6.755
 9802POPC   C3B54465  10.301  15.207   7.055
 9802POPC   C4B54466  10.282  15.157   7.355
 9803POPC   NC354467   7.468  32.993   5.555
 9803POPC   PO454468   7.421  33.055   5.855
 9803POPC   GL154469   7.396  33.033   6.155
 9803POPC   GL254470   7.354  33.087   6.155
 9803POPC   C1A54471   7.457  33.017   6.455
 9803POPC   D2A54472   7.435  33.018   6.755
 9803POPC   C3A54473   7.437  32.979   7.055
 9803POPC   C4A54474   7.430  33.035   7.355
 9803POPC   C1B54475   7.207  33.170   6.455
 9803POPC   C2B54476   7.209  33.199   6.755
 9803POPC   C3B54477   7.213  33.161   7.055
 9803POPC   C4B54478   7.198  33.221   7.355
 9804POPC   NC354479  12.081  23.692   5.555
 9804POPC   PO454480  12.112  23.701   5.855
 9804POPC   GL154481  12.086  23.683   6.155
 9804POPC   GL254482  12.165  23.565   6.155
 9804POPC   C1A54483  12.050  23.740   6.455
 9804POPC   D2A54484  12.034  23.730   6.755
 9804POPC   C3A54485  12.087  23.712   7.055
 9804POPC   C4A54486  12.110  23.668   7.355
 9804POPC   C1B54487  12.226  23.498   6.455
 9804POPC   C2B54488  12.148  23.456   6.755
 9804POPC   C3B54489  12.217  23.465   7.055
 9804POPC   C4B54490  12.165  23.540   7.355
 9805POPC   NC354491   5.856   5.869   5.555
 9805POPC   PO454492   5.903   5.866   5.855
 9805POPC   GL154493   5.911   5.889   6.155
 9805POPC   GL254494   5.942   5.752   6.155
 9805POPC   C1A54495   5.900   5.852   6.455
 9805POPC   D2A54496   5.847   5.829   6.755
 9805POPC   C3A54497   5.840   5.915   7.055
 9805POPC   C4A54498   5.821   5.889   7.355
 9805POPC   C1B54499   5.964   5.698   6.455
 9805POPC   C2B54500   5.971   5.634   6.755
 9805POPC   C3B54501   6.015   5.659   7.055
 9805POPC   C4B54502   6.003   5.663   7.355
 9806POPC   NC354503  35.365  18.328   5.555
 9806POPC   PO454504  35.328  18.251   5.855
 9806POPC   GL154505  35.305  18.324   6.155
 9806POPC   GL254506  35.363  18.148   6.155
 9806POPC   C1A54507  35.388  18.248   6.455
 9806POPC   D2A54508  35.327  18.238   6.755
 9806POPC   C3A54509  35.352  18.281   7.055
 9806POPC   C4A54510  35.349  18.327   7.355
 9806POPC   C1B54511  35.429  18.011   6.455
 9806POPC   C2B54512  35.453  18.024   6.755
 9806POPC   C3B54513  35.459  18.059   7.055
 9806POPC   C4B54514  35.511  18.074   7.355
 9807POPC   NC354515   8.932  41.521   5.555
 9807POPC   PO454516   8.963  41.567   5.855
 9807POPC   GL154517   8.962  41.519   6.155
 9807POPC   GL254518   9.010  41.695   6.155
 9807POPC   C1A54519   8.995  41.555   6.455
 9807POPC   D2A54520   8.947  41.598   6.755
 9807POPC   C3A54521   8.958  41.605   7.055
 9807POPC   C4A54522   9.003  41.532   7.355
 9807POPC   C1B54523   9.038  41.827   6.455
 9807POPC   C2B54524   9.022  41.830   6.755
 9807POPC   C3B54525   9.057  41.776   7.055
 9807POPC   C4B54526   9.026  41.837   7.355
 9808POPC   NC354527  16.741   4.347   5.555
 9808POPC   PO454528  16.708   4.346   5.855
 9808POPC   GL154529  16.756   4.315   6.155
 9808POPC   GL254530  16.704   4.245   6.155
 9808POPC   C1A54531  16.761   4.296   6.455
 9808POPC   D2A54532  16.750   4.293   6.755
 9808POPC   C3A54533  16.713   4.307   7.055
 9808POPC   C4A54534  16.774   4.319   7.355
 9808POPC   C1B54535  16.592   4.094   6.455
 9808POPC   C2B54536  16.556   4.112   6.755
 9808POPC   C3B54537  16.611   4.125   7.055
 9808POPC   C4B54538  16.551   4.127   7.355
 9809POPC   NC354539   9.757  31.458   5.555
 9809POPC   PO454540   9.720  31.423   5.855
 9809POPC   GL154541   9.764  31.446   6.155
 9809POPC   GL254542   9.850  31.497   6.155
 9809POPC   C1A54543   9.788  31.497   6.455
 9809POPC   D2A54544   9.721  31.441   6.755
 9809POPC   C3A54545   9.713  31.477   7.055
 9809POPC   C4A54546   9.722  31.491   7.355
 9809POPC   C1B54547   9.974  31.536   6.455
 9809POPC   C2B54548  10.002  31.596   6.755
 9809POPC   C3B54549   9.986  31.519   7.055
 9809POPC   C4B54550  10.026  31.556   7.355
 9810POPC   NC354551  36.908  12.830   5.555
 9810POPC   PO454552  36.907  12.855   5.855
 9810POPC   GL154553  36.929  12.828   6.155
 9810POPC   GL254554  36.858  12.733   6.155
 9810POPC   C1A54555  36.929  12.901   6.455
 9810POPC   D2A54556  36.862  12.882   6.755
 9810POPC   C3A54557  36.899  12.898   7.055
 9810POPC   C4A54558  36.860  12.864   7.355
 9810POPC   C1B54559  36.769  12.639   6.455
 9810POPC   C2B54560  36.732  12.624   6.755
 9810POPC   C3B54561  36.755  12.625   7.055
 9810POPC   C4B54562  36.723  12.650   7.355
 9811POPC   NC354563  42.290  33.050   5.555
 9811POPC   PO454564  42.346  33.025   5.855
 9811POPC   GL154565  42.295  33.061   6.155
 9811POPC   GL254566  42.200  33.125   6.155
 9811POPC   C1A54567  42.305  33.058   6.455
 9811POPC   D2A54568  42.290  33.006   6.755
 9811POPC   C3A54569  42.321  33.020   7.055
 9811POPC   C4A54570  42.359  33.042   7.355
 9811POPC   C1B54571  42.115  33.164   6.455
 9811POPC   C2B54572  42.122  33.212   6.755
 9811POPC   C3B54573  42.143  33.241   7.055
 9811POPC   C4B54574  42.206  33.253   7.355
 9812POPC   NC354575  15.193  26.014   5.555
 9812POPC   PO454576  15.167  26.010   5.855
 9812POPC   GL154577  15.139  26.060   6.155
 9812POPC   GL254578  15.272  26.156   6.155
 9812POPC   C1A54579  15.198  26.031   6.455
 9812POPC   D2A54580  15.203  26.025   6.755
 9812POPC   C3A54581  15.223  26.020   7.055
 9812POPC   C4A54582  15.219  26.023   7.355
 9812POPC   C1B54583  15.312  26.206   6.455
 9812POPC   C2B54584  15.361  26.201   6.755
 9812POPC   C3B54585  15.326  26.255   7.055
 9812POPC   C4B54586  15.322  26.262   7.355
 9813POPC   NC354587  12.897  34.609   5.555
 9813POPC   PO454588  12.817  34.588   5.855
 9813POPC   GL154589  12.863  34.587   6.155
 9813POPC   GL254590  12.847  34.696   6.155
 9813POPC   C1A54591  12.856  34.577   6.455
 9813POPC   D2A54592  12.837  34.529   6.755
 9813POPC   C3A54593  12.810  34.570   7.055
 9813POPC   C4A54594  12.813  34.621   7.355
 9813POPC   C1B54595  12.880  34.871   6.455
 9813POPC   C2B54596  12.869  34.869   6.755
 9813POPC   C3B54597  12.928  34.838   7.055
 9813POPC   C4B54598  12.848  34.780   7.355
 9814POPC   NC354599  12.083  19.803   5.555
 9814POPC   PO454600  12.115  19.825   5.855
 9814POPC   GL154601  12.107  19.831   6.155
 9814POPC   GL254602  12.225  19.936   6.155
 9814POPC   C1A54603  12.094  19.801   6.455
 9814POPC   D2A54604  12.096  19.819   6.755
 9814POPC   C3A54605  12.074  19.859   7.055
 9814POPC   C4A54606  12.037  19.884   7.355
 9814POPC   C1B54607  12.273  19.928   6.455
 9814POPC   C2B54608  12.263  20.008   6.755
 9814POPC   C3B54609  12.305  19.956   7.055
 9814POPC   C4B54610  12.306  19.969   7.355
 9815POPC   NC354611  36.873  15.991   5.555
 9815POPC   PO454612  36.922  15.977   5.855
 9815POPC   GL154613  36.921  15.935   6.155
 9815POPC   GL254614  37.015  15.901   6.155
 9815POPC   C1A54615  36.944  16.004   6.455
 9815POPC   D2A54616  36.937  15.952   6.755
 9815POPC   C3A54617  36.917  15.994   7.055
 9815POPC   C4A54618  36.868  15.952   7.355
 9815POPC   C1B54619  37.168  15.868   6.455
 9815POPC   C2B54620  37.091  15.822   6.755
 9815POPC   C3B54621  37.168  15.817   7.055
 9815POPC   C4B54622  37.118  15.845   7.355
 9816POPC   NC354623  33.046  21.377   5.555
 9816POPC   PO454624  32.988  21.411   5.855
 9816POPC   GL154625  33.069  21.350   6.155
 9816POPC   GL254626  32.940  21.455   6.155
 9816POPC   C1A54627  32.981  21.380   6.455
 9816POPC   D2A54628  33.008  21.376   6.755
 9816POPC   C3A54629  33.031  21.417   7.055
 9816POPC   C4A54630  32.991  21.358   7.355
 9816POPC   C1B54631  32.931  21.559   6.455
 9816POPC   C2B54632  32.888  21.619   6.755
 9816POPC   C3B54633  32.874  21.613   7.055
 9816POPC   C4B54634  32.890  21.598   7.355
 9817POPC   NC354635  33.755   7.380   5.555
 9817POPC   PO454636  33.763   7.451   5.855
 9817POPC   GL154637  33.771   7.393   6.155
 9817POPC   GL254638  33.887   7.394   6.155
 9817POPC   C1A54639  33.836   7.463   6.455
 9817POPC   D2A54640  33.757   7.441   6.755
 9817POPC   C3A54641  33.791   7.422   7.055
 9817POPC   C4A54642  33.765   7.380   7.355
 9817POPC   C1B54643  34.048   7.435   6.455
 9817POPC   C2B54644  34.041   7.434   6.755
 9817POPC   C3B54645  34.089   7.433   7.055
 9817POPC   C4B54646  34.015   7.437   7.355
 9818POPC   NC354647  32.986  28.393   5.555
 9818POPC   PO454648  33.046  28.410   5.855
 9818POPC   GL154649  33.009  28.364   6.155
 9818POPC   GL254650  33.191  28.370   6.155
 9818POPC   C1A54651  33.024  28.350   6.455
 9818POPC   D2A54652  33.065  28.378   6.755
 9818POPC   C3A54653  33.041  28.402   7.055
 9818POPC   C4A54654  33.044  28.389   7.355
 9818POPC   C1B54655  33.292  28.285   6.455
 9818POPC   C2B54656  33.225  28.272   6.755
 9818POPC   C3B54657  33.299  28.308   7.055
 9818POPC   C4B54658  33.274  28.355   7.355
 9819POPC   NC354659   8.177  23.738   5.555
 9819POPC   PO454660   8.151  23.735   5.855
 9819POPC   GL154661   8.177  23.720   6.155
 9819POPC   GL254662   8.128  23.765   6.155
 9819POPC   C1A54663   8.169  23.751   6.455
 9819POPC   D2A54664   8.170  23.673   6.755
 9819POPC   C3A54665   8.174  23.705   7.055
 9819POPC   C4A54666   8.242  23.729   7.355
 9819POPC   C1B54667   8.036  23.833   6.455
 9819POPC   C2B54668   7.998  23.828   6.755
 9819POPC   C3B54669   8.034  23.840   7.055
 9819POPC   C4B54670   7.971  23.850   7.355
 9820POPC   NC354671  40.778   1.949   5.555
 9820POPC   PO454672  40.759   1.942   5.855
 9820POPC   GL154673  40.819   1.992   6.155
 9820POPC   GL254674  40.785   2.077   6.155
 9820POPC   C1A54675  40.804   1.975   6.455
 9820POPC   D2A54676  40.757   2.029   6.755
 9820POPC   C3A54677  40.820   2.028   7.055
 9820POPC   C4A54678  40.820   1.956   7.355
 9820POPC   C1B54679  40.790   2.215   6.455
 9820POPC   C2B54680  40.760   2.286   6.755
 9820POPC   C3B54681  40.725   2.263   7.055
 9820POPC   C4B54682  40.766   2.254   7.355
 9821POPC   NC354683  35.303  31.512   5.555
 9821POPC   PO454684  35.388  31.508   5.855
 9821POPC   GL154685  35.370  31.437   6.155
 9821POPC   GL254686  35.410  31.579   6.155
 9821POPC   C1A54687  35.310  31.488   6.455
 9821POPC   D2A54688  35.396  31.433   6.755
 9821POPC   C3A54689  35.336  31.423   7.055
 9821POPC   C4A54690  35.333  31.521   7.355
 9821POPC   C1B54691  35.534  31.666   6.455
 9821POPC   C2B54692  35.495  31.688   6.755
 9821POPC   C3B54693  35.518  31.725   7.055
 9821POPC   C4B54694  35.459  31.641   7.355
 9822POPC   NC354695  24.474  14.364   5.555
 9822POPC   PO454696  24.466  14.373   5.855
 9822POPC   GL154697  24.511  14.354   6.155
 9822POPC   GL254698  24.351  14.428   6.155
 9822POPC   C1A54699  24.533  14.383   6.455
 9822POPC   D2A54700  24.454  14.431   6.755
 9822POPC   C3A54701  24.540  14.378   7.055
 9822POPC   C4A54702  24.511  14.433   7.355
 9822POPC   C1B54703  24.218  14.432   6.455
 9822POPC   C2B54704  24.221  14.454   6.755
 9822POPC   C3B54705  24.215  14.418   7.055
 9822POPC   C4B54706  24.238  14.394   7.355
 9823POPC   NC354707  29.108  15.172   5.555
 9823POPC   PO454708  29.113  15.171   5.855
 9823POPC   GL154709  29.112  15.208   6.155
 9823POPC   GL254710  29.124  15.337   6.155
 9823POPC   C1A54711  29.124  15.189   6.455
 9823POPC   D2A54712  29.172  15.136   6.755
 9823POPC   C3A54713  29.122  15.165   7.055
 9823POPC   C4A54714  29.166  15.160   7.355
 9823POPC   C1B54715  29.236  15.465   6.455
 9823POPC   C2B54716  29.224  15.425   6.755
 9823POPC   C3B54717  29.235  15.373   7.055
 9823POPC   C4B54718  29.165  15.379   7.355
 9824POPC   NC354719  39.976   8.166   5.555
 9824POPC   PO454720  39.974   8.194   5.855
 9824POPC   GL154721  39.988   8.195   6.155
 9824POPC   GL254722  39.851   8.199   6.155
 9824POPC   C1A54723  39.986   8.205   6.455
 9824POPC   D2A54724  40.006   8.213   6.755
 9824POPC   C3A54725  40.024   8.200   7.055
 9824POPC   C4A54726  40.049   8.159   7.355
 9824POPC   C1B54727  39.760   8.154   6.455
 9824POPC   C2B54728  39.789   8.103   6.755
 9824POPC   C3B54729  39.779   8.182   7.055
 9824POPC   C4B54730  39.791   8.159   7.355
 9825POPC   NC354731  41.600  40.044   5.555
 9825POPC   PO454732  41.535  40.004   5.855
 9825POPC   GL154733  41.602  39.973   6.155
 9825POPC   GL254734  41.475  40.146   6.155
 9825POPC   C1A54735  41.578  39.997   6.455
 9825POPC   D2A54736  41.515  40.055   6.755
 9825POPC   C3A54737  41.586  39.971   7.055
 9825POPC   C4A54738  41.604  40.009   7.355
 9825POPC   C1B54739  41.362  40.257   6.455
 9825POPC   C2B54740  41.436  40.244   6.755
 9825POPC   C3B54741  41.406  40.209   7.055
 9825POPC   C4B54742  41.453  40.252   7.355
 9826POPC   NC354743  40.792  11.289   5.555
 9826POPC   PO454744  40.741  11.259   5.855
 9826POPC   GL154745  40.778  11.349   6.155
 9826POPC   GL254746  40.841  11.428   6.155
 9826POPC   C1A54747  40.780  11.269   6.455
 9826POPC   D2A54748  40.743  11.289   6.755
 9826POPC   C3A54749  40.823  11.306   7.055
 9826POPC   C4A54750  40.759  11.273   7.355
 9826POPC   C1B54751  40.941  11.451   6.455
 9826POPC   C2B54752  40.945  11.440   6.755
 9826POPC   C3B54753  40.908  11.482   7.055
 9826POPC   C4B54754  40.908  11.530   7.355
 9827POPC   NC354755  17.476  22.184   5.555
 9827POPC   PO454756  17.486  22.138   5.855
 9827POPC   GL154757  17.517  22.174   6.155
 9827POPC   GL254758  17.672  22.206   6.155
 9827POPC   C1A54759  17.491  22.124   6.455
 9827POPC   D2A54760  17.492  22.144   6.755
 9827POPC   C3A54761  17.529  22.201   7.055
 9827POPC   C4A54762  17.532  22.166   7.355
 9827POPC   C1B54763  17.792  22.253   6.455
 9827POPC   C2B54764  17.714  22.238   6.755
 9827POPC   C3B54765  17.731  22.224   7.055
 9827POPC   C4B54766  17.720  22.208   7.355
 9828POPC   NC354767  32.217  18.328   5.555
 9828POPC   PO454768  32.234  18.277   5.855
 9828POPC   GL154769  32.235  18.313   6.155
 9828POPC   GL254770  32.318  18.353   6.155
 9828POPC   C1A54771  32.222  18.240   6.455
 9828POPC   D2A54772  32.282  18.267   6.755
 9828POPC   C3A54773  32.262  18.332   7.055
 9828POPC   C4A54774  32.229  18.292   7.355
 9828POPC   C1B54775  32.310  18.512   6.455
 9828POPC   C2B54776  32.301  18.532   6.755
 9828POPC   C3B54777  32.377  18.493   7.055
 9828POPC   C4B54778  32.310  18.491   7.355
 9829POPC   NC354779  18.272  28.328   5.555
 9829POPC   PO454780  18.261  28.383   5.855
 9829POPC   GL154781  18.306  28.346   6.155
 9829POPC   GL254782  18.121  28.448   6.155
 9829POPC   C1A54783  18.271  28.390   6.455
 9829POPC   D2A54784  18.283  28.395   6.755
 9829POPC   C3A54785  18.308  28.330   7.055
 9829POPC   C4A54786  18.332  28.334   7.355
 9829POPC   C1B54787  18.046  28.463   6.455
 9829POPC   C2B54788  18.036  28.508   6.755
 9829POPC   C3B54789  18.019  28.429   7.055
 9829POPC   C4B54790  18.035  28.422   7.355
 9830POPC   NC354791  39.996  29.886   5.555
 9830POPC   PO454792  39.992  29.917   5.855
 9830POPC   GL154793  40.002  29.878   6.155
 9830POPC   GL254794  39.971  30.023   6.155
 9830POPC   C1A54795  39.963  29.903   6.455
 9830POPC   D2A54796  39.963  29.951   6.755
 9830POPC   C3A54797  39.978  29.957   7.055
 9830POPC   C4A54798  40.021  29.945   7.355
 9830POPC   C1B54799  40.048  30.149   6.455
 9830POPC   C2B54800  39.973  30.213   6.755
 9830POPC   C3B54801  39.999  30.168   7.055
 9830POPC   C4B54802  39.960  30.175   7.355
 9831POPC   NC354803  21.406  10.564   5.555
 9831POPC   PO454804  21.378  10.478   5.855
 9831POPC   GL154805  21.371  10.554   6.155
 9831POPC   GL254806  21.234  10.520   6.155
 9831POPC   C1A54807  21.401  10.504   6.455
 9831POPC   D2A54808  21.354  10.491   6.755
 9831POPC   C3A54809  21.382  10.499   7.055
 9831POPC   C4A54810  21.420  10.547   7.355
 9831POPC   C1B54811  21.190  10.440   6.455
 9831POPC   C2B54812  21.185  10.385   6.755
 9831POPC   C3B54813  21.116  10.418   7.055
 9831POPC   C4B54814  21.169  10.409   7.355
 9832POPC   NC354815  38.415  17.468   5.555
 9832POPC   PO454816  38.471  17.516   5.855
 9832POPC   GL154817  38.433  17.520   6.155
 9832POPC   GL254818  38.330  17.443   6.155
 9832POPC   C1A54819  38.436  17.514   6.455
 9832POPC   D2A54820  38.455  17.519   6.755
 9832POPC   C3A54821  38.483  17.476   7.055
 9832POPC   C4A54822  38.442  17.496   7.355
 9832POPC   C1B54823  38.231  17.331   6.455
 9832POPC   C2B54824  38.293  17.413   6.755
 9832POPC   C3B54825  38.274  17.388   7.055
 9832POPC   C4B54826  38.255  17.368   7.355
 9833POPC   NC354827  11.330  25.314   5.555
 9833POPC   PO454828  11.328  25.240   5.855
 9833POPC   GL154829  11.349  25.244   6.155
 9833POPC   GL254830  11.468  25.247   6.155
 9833POPC   C1A54831  11.269  25.255   6.455
 9833POPC   D2A54832  11.317  25.271   6.755
 9833POPC   C3A54833  11.250  25.246   7.055
 9833POPC   C4A54834  11.337  25.268   7.355
 9833POPC   C1B54835  11.531  25.166   6.455
 9833POPC   C2B54836  11.550  25.152   6.755
 9833POPC   C3B54837  11.551  25.162   7.055
 9833POPC   C4B54838  11.586  25.236   7.355
 9834POPC   NC354839  37.711  37.688   5.555
 9834POPC   PO454840  37.711  37.655   5.855
 9834POPC   GL154841  37.704  37.701   6.155
 9834POPC   GL254842  37.580  37.661   6.155
 9834POPC   C1A54843  37.656  37.728   6.455
 9834POPC   D2A54844  37.669  37.669   6.755
 9834POPC   C3A54845  37.644  37.664   7.055
 9834POPC   C4A54846  37.679  37.672   7.355
 9834POPC   C1B54847  37.460  37.724   6.455
 9834POPC   C2B54848  37.422  37.702   6.755
 9834POPC   C3B54849  37.474  37.723   7.055
 9834POPC   C4B54850  37.481  37.750   7.355
 9835POPC   NC354851  37.683  43.099   5.555
 9835POPC   PO454852  37.631  43.073   5.855
 9835POPC   GL154853  37.676  43.085   6.155
 9835POPC   GL254854  37.581  43.180   6.155
 9835POPC   C1A54855  37.702  43.073   6.455
 9835POPC   D2A54856  37.634  43.125   6.755
 9835POPC   C3A54857  37.649  43.144   7.055
 9835POPC   C4A54858  37.703  43.136   7.355
 9835POPC   C1B54859  37.498  43.229   6.455
 9835POPC   C2B54860  37.424  43.261   6.755
 9835POPC   C3B54861  37.444  43.273   7.055
 9835POPC   C4B54862  37.417  43.229   7.355
 9836POPC   NC354863  42.306  31.459   5.555
 9836POPC   PO454864  42.299  31.445   5.855
 9836POPC   GL154865  42.361  31.470   6.155
 9836POPC   GL254866  42.466  31.495   6.155
 9836POPC   C1A54867  42.372  31.436   6.455
 9836POPC   D2A54868  42.286  31.444   6.755
 9836POPC   C3A54869  42.360  31.435   7.055
 9836POPC   C4A54870  42.291  31.444   7.355
 9836POPC   C1B54871  42.559  31.541   6.455
 9836POPC   C2B54872  42.585  31.550   6.755
 9836POPC   C3B54873  42.555  31.563   7.055
 9836POPC   C4B54874  42.588  31.559   7.355
 9837POPC   NC354875  41.539  41.549   5.555
 9837POPC   PO454876  41.535  41.519   5.855
 9837POPC   GL154877  41.588  41.585   6.155
 9837POPC   GL254878  41.447  41.565   6.155
 9837POPC   C1A54879  41.522  41.544   6.455
 9837POPC   D2A54880  41.529  41.589   6.755
 9837POPC   C3A54881  41.590  41.598   7.055
 9837POPC   C4A54882  41.573  41.522   7.355
 9837POPC   C1B54883  41.295  41.435   6.455
 9837POPC   C2B54884  41.330  41.438   6.755
 9837POPC   C3B54885  41.372  41.427   7.055
 9837POPC   C4B54886  41.324  41.466   7.355
 9838POPC   NC354887  36.114   3.503   5.555
 9838POPC   PO454888  36.095   3.566   5.855
 9838POPC   GL154889  36.160   3.521   6.155
 9838POPC   GL254890  36.244   3.528   6.155
 9838POPC   C1A54891  36.127   3.591   6.455
 9838POPC   D2A54892  36.132   3.574   6.755
 9838POPC   C3A54893  36.154   3.532   7.055
 9838POPC   C4A54894  36.102   3.535   7.355
 9838POPC   C1B54895  36.325   3.529   6.455
 9838POPC   C2B54896  36.398   3.540   6.755
 9838POPC   C3B54897  36.380   3.474   7.055
 9838POPC   C4B54898  36.417   3.464   7.355
 9839POPC   NC354899  22.134   6.694   5.555
 9839POPC   PO454900  22.162   6.692   5.855
 9839POPC   GL154901  22.197   6.644   6.155
 9839POPC   GL254902  22.154   6.520   6.155
 9839POPC   C1A54903  22.140   6.655   6.455
 9839POPC   D2A54904  22.138   6.648   6.755
 9839POPC   C3A54905  22.182   6.675   7.055
 9839POPC   C4A54906  22.185   6.615   7.355
 9839POPC   C1B54907  22.125   6.381   6.455
 9839POPC   C2B54908  22.187   6.396   6.755
 9839POPC   C3B54909  22.184   6.442   7.055
 9839POPC   C4B54910  22.135   6.358   7.355
 9840POPC   NC354911  40.803  35.398   5.555
 9840POPC   PO454912  40.825  35.341   5.855
 9840POPC   GL154913  40.765  35.346   6.155
 9840POPC   GL254914  40.767  35.265   6.155
 9840POPC   C1A54915  40.792  35.321   6.455
 9840POPC   D2A54916  40.787  35.304   6.755
 9840POPC   C3A54917  40.798  35.370   7.055
 9840POPC   C4A54918  40.811  35.348   7.355
 9840POPC   C1B54919  40.706  35.151   6.455
 9840POPC   C2B54920  40.653  35.120   6.755
 9840POPC   C3B54921  40.634  35.157   7.055
 9840POPC   C4B54922  40.678  35.140   7.355
 9841POPC   NC354923   8.225  21.342   5.555
 9841POPC   PO454924   8.207  21.375   5.855
 9841POPC   GL154925   8.202  21.360   6.155
 9841POPC   GL254926   8.203  21.310   6.155
 9841POPC   C1A54927   8.148  21.422   6.455
 9841POPC   D2A54928   8.208  21.430   6.755
 9841POPC   C3A54929   8.213  21.343   7.055
 9841POPC   C4A54930   8.179  21.384   7.355
 9841POPC   C1B54931   8.309  21.188   6.455
 9841POPC   C2B54932   8.266  21.199   6.755
 9841POPC   C3B54933   8.263  21.159   7.055
 9841POPC   C4B54934   8.315  21.188   7.355
 9842POPC   NC354935  12.057  26.831   5.555
 9842POPC   PO454936  12.105  26.835   5.855
 9842POPC   GL154937  12.094  26.799   6.155
 9842POPC   GL254938  11.994  26.680   6.155
 9842POPC   C1A54939  12.106  26.769   6.455
 9842POPC   D2A54940  12.060  26.772   6.755
 9842POPC   C3A54941  12.094  26.789   7.055
 9842POPC   C4A54942  12.093  26.818   7.355
 9842POPC   C1B54943  11.945  26.579   6.455
 9842POPC   C2B54944  11.887  26.604   6.755
 9842POPC   C3B54945  11.886  26.630   7.055
 9842POPC   C4B54946  11.878  26.623   7.355
 9843POPC   NC354947   8.231   5.044   5.555
 9843POPC   PO454948   8.214   5.121   5.855
 9843POPC   GL154949   8.239   5.070   6.155
 9843POPC   GL254950   8.220   4.998   6.155
 9843POPC   C1A54951   8.160   5.062   6.455
 9843POPC   D2A54952   8.246   5.096   6.755
 9843POPC   C3A54953   8.160   5.068   7.055
 9843POPC   C4A54954   8.234   5.137   7.355
 9843POPC   C1B54955   8.231   4.881   6.455
 9843POPC   C2B54956   8.162   4.826   6.755
 9843POPC   C3B54957   8.230   4.822   7.055
 9843POPC   C4B54958   8.226   4.838   7.355
 9844POPC   NC354959  26.006  19.022   5.555
 9844POPC   PO454960  26.077  19.082   5.855
 9844POPC   GL154961  26.032  19.023   6.155
 9844POPC   GL254962  26.185  19.007   6.155
 9844POPC   C1A54963  26.042  19.104   6.455
 9844POPC   D2A54964  26.061  19.035   6.755
 9844POPC   C3A54965  26.058  19.091   7.055
 9844POPC   C4A54966  26.002  19.081   7.355
 9844POPC   C1B54967  26.295  18.929   6.455
 9844POPC   C2B54968  26.208  18.878   6.755
 9844POPC   C3B54969  26.239  18.915   7.055
 9844POPC   C4B54970  26.213  18.947   7.355
 9845POPC   NC354971  13.657  11.289   5.555
 9845POPC   PO454972  13.669  11.251   5.855
 9845POPC   GL154973  13.663  11.264   6.155
 9845POPC   GL254974  13.656  11.450   6.155
 9845POPC   C1A54975  13.633  11.346   6.455
 9845POPC   D2A54976  13.664  11.312   6.755
 9845POPC   C3A54977  13.605  11.278   7.055
 9845POPC   C4A54978  13.595  11.291   7.355
 9845POPC   C1B54979  13.748  11.493   6.455
 9845POPC   C2B54980  13.723  11.531   6.755
 9845POPC   C3B54981  13.712  11.498   7.055
 9845POPC   C4B54982  13.740  11.504   7.355
 9846POPC   NC354983   9.003  10.515   5.555
 9846POPC   PO454984   8.981  10.502   5.855
 9846POPC   GL154985   8.985  10.522   6.155
 9846POPC   GL254986   9.108  10.469   6.155
 9846POPC   C1A54987   8.979  10.480   6.455
 9846POPC   D2A54988   8.985  10.526   6.755
 9846POPC   C3A54989   8.986  10.476   7.055
 9846POPC   C4A54990   9.008  10.500   7.355
 9846POPC   C1B54991   9.138  10.395   6.455
 9846POPC   C2B54992   9.133  10.368   6.755
 9846POPC   C3B54993   9.202  10.374   7.055
 9846POPC   C4B54994   9.117  10.326   7.355
 9847POPC   NC354995   7.427  22.178   5.555
 9847POPC   PO454996   7.386  22.147   5.855
 9847POPC   GL154997   7.422  22.140   6.155
 9847POPC   GL254998   7.513  22.150   6.155
 9847POPC   C1A54999   7.404  22.153   6.455
 9847POPC   D2A55000   7.431  22.159   6.755
 9847POPC   C3A55001   7.374  22.200   7.055
 9847POPC   C4A55002   7.460  22.130   7.355
 9847POPC   C1B55003   7.688  22.106   6.455
 9847POPC   C2B55004   7.706  22.143   6.755
 9847POPC   C3B55005   7.715  22.112   7.055
 9847POPC   C4B55006   7.686  22.136   7.355
 9848POPC   NC355007  35.304  33.044   5.555
 9848POPC   PO455008  35.376  33.038   5.855
 9848POPC   GL155009  35.340  33.010   6.155
 9848POPC   GL255010  35.447  32.957   6.155
 9848POPC   C1A55011  35.356  33.040   6.455
 9848POPC   D2A55012  35.323  33.006   6.755
 9848POPC   C3A55013  35.320  33.018   7.055
 9848POPC   C4A55014  35.341  33.052   7.355
 9848POPC   C1B55015  35.551  32.838   6.455
 9848POPC   C2B55016  35.536  32.826   6.755
 9848POPC   C3B55017  35.570  32.823   7.055
 9848POPC   C4B55018  35.568  32.872   7.355
 9849POPC   NC355019  43.897  19.800   5.555
 9849POPC   PO455020  43.855  19.797   5.855
 9849POPC   GL155021  43.850  19.790   6.155
 9849POPC   GL255022  43.926  19.696   6.155
 9849POPC   C1A55023  43.845  19.837   6.455
 9849POPC   D2A55024  43.888  19.806   6.755
 9849POPC   C3A55025  43.895  19.808   7.055
 9849POPC   C4A55026  43.906  19.811   7.355
 9849POPC   C1B55027  43.952  19.616   6.455
 9849POPC   C2B55028  43.939  19.577   6.755
 9849POPC   C3B55029  43.949  19.584   7.055
 9849POPC   C4B55030  43.978  19.597   7.355
 9850POPC   NC355031  39.259  11.291   5.555
 9850POPC   PO455032  39.267  11.270   5.855
 9850POPC   GL155033  39.214  11.262   6.155
 9850POPC   GL255034  39.106  11.178   6.155
 9850POPC   C1A55035  39.272  11.318   6.455
 9850POPC   D2A55036  39.279  11.265   6.755
 9850POPC   C3A55037  39.193  11.282   7.055
 9850POPC   C4A55038  39.231  11.326   7.355
 9850POPC   C1B55039  39.080  11.142   6.455
 9850POPC   C2B55040  39.061  11.108   6.755
 9850POPC   C3B55041  39.036  11.111   7.055
 9850POPC   C4B55042  39.040  11.124   7.355
 9851POPC   NC355043   9.774  42.304   5.555
 9851POPC   PO455044   9.700  42.298   5.855
 9851POPC   GL155045   9.775  42.312   6.155
 9851POPC   GL255046   9.849  42.258   6.155
 9851POPC   C1A55047   9.719  42.312   6.455
 9851POPC   D2A55048   9.754  42.360   6.755
 9851POPC   C3A55049   9.714  42.364   7.055
 9851POPC   C4A55050   9.702  42.286   7.355
 9851POPC   C1B55051   9.944  42.179   6.455
 9851POPC   C2B55052   9.859  42.154   6.755
 9851POPC   C3B55053   9.897  42.098   7.055
 9851POPC   C4B55054   9.895  42.102   7.355
 9852POPC   NC355055  36.152   0.411   5.555
 9852POPC   PO455056  36.102   0.434   5.855
 9852POPC   GL155057  36.078   0.449   6.155
 9852POPC   GL255058  36.069   0.340   6.155
 9852POPC   C1A55059  36.087   0.446   6.455
 9852POPC   D2A55060  36.100   0.488   6.755
 9852POPC   C3A55061  36.147   0.478   7.055
 9852POPC   C4A55062  36.127   0.444   7.355
 9852POPC   C1B55063  35.866   0.290   6.455
 9852POPC   C2B55064  35.918   0.275   6.755
 9852POPC   C3B55065  35.954   0.307   7.055
 9852POPC   C4B55066  35.949   0.321   7.355
 9853POPC   NC355067  37.681  41.556   5.555
 9853POPC   PO455068  37.707  41.549   5.855
 9853POPC   GL155069  37.659  41.561   6.155
 9853POPC   GL255070  37.577  41.683   6.155
 9853POPC   C1A55071  37.650  41.530   6.455
 9853POPC   D2A55072  37.689  41.517   6.755
 9853POPC   C3A55073  37.698  41.596   7.055
 9853POPC   C4A55074  37.646  41.600   7.355
 9853POPC   C1B55075  37.444  41.672   6.455
 9853POPC   C2B55076  37.434  41.704   6.755
 9853POPC   C3B55077  37.515  41.717   7.055
 9853POPC   C4B55078  37.484  41.753   7.355
 9854POPC   NC355079  10.558  40.745   5.555
 9854POPC   PO455080  10.492  40.816   5.855
 9854POPC   GL155081  10.503  40.826   6.155
 9854POPC   GL255082  10.533  40.954   6.155
 9854POPC   C1A55083  10.535  40.739   6.455
 9854POPC   D2A55084  10.534  40.791   6.755
 9854POPC   C3A55085  10.520  40.771   7.055
 9854POPC   C4A55086  10.510  40.735   7.355
 9854POPC   C1B55087  10.462  41.020   6.455
 9854POPC   C2B55088  10.477  41.047   6.755
 9854POPC   C3B55089  10.544  41.010   7.055
 9854POPC   C4B55090  10.519  41.001   7.355
 9855POPC   NC355091  34.532   8.954   5.555
 9855POPC   PO455092  34.600   8.945   5.855
 9855POPC   GL155093  34.553   8.924   6.155
 9855POPC   GL255094  34.625   8.914   6.155
 9855POPC   C1A55095  34.550   8.987   6.455
 9855POPC   D2A55096  34.564   8.998   6.755
 9855POPC   C3A55097  34.608   8.968   7.055
 9855POPC   C4A55098  34.603   9.003   7.355
 9855POPC   C1B55099  34.792   8.807   6.455
 9855POPC   C2B55100  34.749   8.819   6.755
 9855POPC   C3B55101  34.786   8.844   7.055
 9855POPC   C4B55102  34.742   8.818   7.355
 9856POPC   NC355103  40.737   8.159   5.555
 9856POPC   PO455104  40.800   8.197   5.855
 9856POPC   GL155105  40.808   8.237   6.155
 9856POPC   GL255106  40.813   8.346   6.155
 9856POPC   C1A55107  40.831   8.239   6.455
 9856POPC   D2A55108  40.784   8.197   6.755
 9856POPC   C3A55109  40.809   8.212   7.055
 9856POPC   C4A55110  40.832   8.152   7.355
 9856POPC   C1B55111  40.709   8.408   6.455
 9856POPC   C2B55112  40.761   8.457   6.755
 9856POPC   C3B55113  40.750   8.493   7.055
 9856POPC   C4B55114  40.794   8.495   7.355
 9857POPC   NC355115  22.897   5.909   5.555
 9857POPC   PO455116  22.977   5.835   5.855
 9857POPC   GL155117  22.937   5.890   6.155
 9857POPC   GL255118  22.870   5.977   6.155
 9857POPC   C1A55119  22.890   5.835   6.455
 9857POPC   D2A55120  22.934   5.906   6.755
 9857POPC   C3A55121  22.964   5.852   7.055
 9857POPC   C4A55122  22.935   5.821   7.355
 9857POPC   C1B55123  22.830   6.082   6.455
 9857POPC   C2B55124  22.855   6.114   6.755
 9857POPC   C3B55125  22.832   6.062   7.055
 9857POPC   C4B55126  22.880   6.140   7.355
 9858POPC   NC355127   5.866  23.739   5.555
 9858POPC   PO455128   5.865  23.680   5.855
 9858POPC   GL155129   5.903  23.748   6.155
 9858POPC   GL255130   5.730  23.706   6.155
 9858POPC   C1A55131   5.835  23.676   6.455
 9858POPC   D2A55132   5.917  23.694   6.755
 9858POPC   C3A55133   5.914  23.694   7.055
 9858POPC   C4A55134   5.825  23.755   7.355
 9858POPC   C1B55135   5.670  23.622   6.455
 9858POPC   C2B55136   5.615  23.676   6.755
 9858POPC   C3B55137   5.598  23.648   7.055
 9858POPC   C4B55138   5.614  23.622   7.355
 9859POPC   NC355139   0.437  31.464   5.555
 9859POPC   PO455140   0.414  31.481   5.855
 9859POPC   GL155141   0.423  31.439   6.155
 9859POPC   GL255142   0.280  31.480   6.155
 9859POPC   C1A55143   0.435  31.438   6.455
 9859POPC   D2A55144   0.404  31.502   6.755
 9859POPC   C3A55145   0.439  31.446   7.055
 9859POPC   C4A55146   0.415  31.439   7.355
 9859POPC   C1B55147   0.162  31.465   6.455
 9859POPC   C2B55148   0.208  31.449   6.755
 9859POPC   C3B55149   0.197  31.462   7.055
 9859POPC   C4B55150   0.163  31.389   7.355
 9860POPC   NC355151  14.453  10.533   5.555
 9860POPC   PO455152  14.388  10.537   5.855
 9860POPC   GL155153  14.397  10.556   6.155
 9860POPC   GL255154  14.255  10.590   6.155
 9860POPC   C1A55155  14.412  10.522   6.455
 9860POPC   D2A55156  14.415  10.560   6.755
 9860POPC   C3A55157  14.371  10.566   7.055
 9860POPC   C4A55158  14.413  10.562   7.355
 9860POPC   C1B55159  14.189  10.581   6.455
 9860POPC   C2B55160  14.208  10.594   6.755
 9860POPC   C3B55161  14.171  10.637   7.055
 9860POPC   C4B55162  14.126  10.639   7.355
 9861POPC   NC355163  22.919   7.403   5.555
 9861POPC   PO455164  22.910   7.373   5.855
 9861POPC   GL155165  22.931   7.468   6.155
 9861POPC   GL255166  22.990   7.496   6.155
 9861POPC   C1A55167  22.956   7.439   6.455
 9861POPC   D2A55168  22.900   7.457   6.755
 9861POPC   C3A55169  22.925   7.469   7.055
 9861POPC   C4A55170  22.946   7.443   7.355
 9861POPC   C1B55171  22.924   7.679   6.455
 9861POPC   C2B55172  22.972   7.622   6.755
 9861POPC   C3B55173  22.988   7.660   7.055
 9861POPC   C4B55174  22.932   7.697   7.355
 9862POPC   NC355175  11.335  36.177   5.555
 9862POPC   PO455176  11.314  36.106   5.855
 9862POPC   GL155177  11.269  36.147   6.155
 9862POPC   GL255178  11.254  35.979   6.155
 9862POPC   C1A55179  11.309  36.160   6.455
 9862POPC   D2A55180  11.306  36.082   6.755
 9862POPC   C3A55181  11.279  36.162   7.055
 9862POPC   C4A55182  11.282  36.080   7.355
 9862POPC   C1B55183  11.217  35.939   6.455
 9862POPC   C2B55184  11.212  35.868   6.755
 9862POPC   C3B55185  11.250  35.915   7.055
 9862POPC   C4B55186  11.189  35.920   7.355
 9863POPC   NC355187  13.649  33.073   5.555
 9863POPC   PO455188  13.618  32.999   5.855
 9863POPC   GL155189  13.592  33.073   6.155
 9863POPC   GL255190  13.756  33.121   6.155
 9863POPC   C1A55191  13.620  33.056   6.455
 9863POPC   D2A55192  13.650  33.048   6.755
 9863POPC   C3A55193  13.629  32.988   7.055
 9863POPC   C4A55194  13.661  33.061   7.355
 9863POPC   C1B55195  13.844  33.107   6.455
 9863POPC   C2B55196  13.849  33.141   6.755
 9863POPC   C3B55197  13.862  33.157   7.055
 9863POPC   C4B55198  13.833  33.146   7.355
 9864POPC   NC355199  29.904  17.464   5.555
 9864POPC   PO455200  29.903  17.509   5.855
 9864POPC   GL155201  29.928  17.528   6.155
 9864POPC   GL255202  29.814  17.411   6.155
 9864POPC   C1A55203  29.902  17.510   6.455
 9864POPC   D2A55204  29.934  17.467   6.755
 9864POPC   C3A55205  29.934  17.534   7.055
 9864POPC   C4A55206  29.955  17.552   7.355
 9864POPC   C1B55207  29.724  17.330   6.455
 9864POPC   C2B55208  29.706  17.318   6.755
 9864POPC   C3B55209  29.768  17.324   7.055
 9864POPC   C4B55210  29.704  17.359   7.355
 9865POPC   NC355211  37.642  21.344   5.555
 9865POPC   PO455212  37.671  21.417   5.855
 9865POPC   GL155213  37.631  21.377   6.155
 9865POPC   GL255214  37.701  21.484   6.155
 9865POPC   C1A55215  37.719  21.428   6.455
 9865POPC   D2A55216  37.652  21.341   6.755
 9865POPC   C3A55217  37.647  21.339   7.055
 9865POPC   C4A55218  37.632  21.396   7.355
 9865POPC   C1B55219  37.666  21.599   6.455
 9865POPC   C2B55220  37.727  21.600   6.755
 9865POPC   C3B55221  37.643  21.625   7.055
 9865POPC   C4B55222  37.640  21.643   7.355
 9866POPC   NC355223   3.535  34.554   5.555
 9866POPC   PO455224   3.521  34.603   5.855
 9866POPC   GL155225   3.496  34.550   6.155
 9866POPC   GL255226   3.462  34.624   6.155
 9866POPC   C1A55227   3.572  34.541   6.455
 9866POPC   D2A55228   3.527  34.600   6.755
 9866POPC   C3A55229   3.545  34.539   7.055
 9866POPC   C4A55230   3.536  34.554   7.355
 9866POPC   C1B55231   3.295  34.705   6.455
 9866POPC   C2B55232   3.332  34.620   6.755
 9866POPC   C3B55233   3.324  34.686   7.055
 9866POPC   C4B55234   3.310  34.670   7.355
 9867POPC   NC355235  39.207  34.541   5.555
 9867POPC   PO455236  39.280  34.526   5.855
 9867POPC   GL155237  39.277  34.530   6.155
 9867POPC   GL255238  39.286  34.650   6.155
 9867POPC   C1A55239  39.187  34.548   6.455
 9867POPC   D2A55240  39.276  34.533   6.755
 9867POPC   C3A55241  39.220  34.620   7.055
 9867POPC   C4A55242  39.191  34.547   7.355
 9867POPC   C1B55243  39.313  34.836   6.455
 9867POPC   C2B55244  39.227  34.844   6.755
 9867POPC   C3B55245  39.278  34.864   7.055
 9867POPC   C4B55246  39.251  34.776   7.355
 9868POPC   NC355247  28.370   5.846   5.555
 9868POPC   PO455248  28.397   5.897   5.855
 9868POPC   GL155249  28.331   5.834   6.155
 9868POPC   GL255250  28.463   5.913   6.155
 9868POPC   C1A55251  28.364   5.909   6.455
 9868POPC   D2A55252  28.412   5.861   6.755
 9868POPC   C3A55253  28.415   5.879   7.055
 9868POPC   C4A55254  28.321   5.853   7.355
 9868POPC   C1B55255  28.584   5.911   6.455
 9868POPC   C2B55256  28.621   5.844   6.755
 9868POPC   C3B55257  28.569   5.862   7.055
 9868POPC   C4B55258  28.574   5.891   7.355
 9869POPC   NC355259  29.873  26.008   5.555
 9869POPC   PO455260  29.875  26.015   5.855
 9869POPC   GL155261  29.890  26.016   6.155
 9869POPC   GL255262  29.974  26.160   6.155
 9869POPC   C1A55263  29.923  26.089   6.455
 9869POPC   D2A55264  29.947  26.032   6.755
 9869POPC   C3A55265  29.948  26.026   7.055
 9869POPC   C4A55266  29.934  26.021   7.355
 9869POPC   C1B55267  29.903  26.270   6.455
 9869POPC   C2B55268  29.962  26.273   6.755
 9869POPC   C3B55269  29.911  26.288   7.055
 9869POPC   C4B55270  29.950  26.275   7.355
 9870POPC   NC355271  20.655  37.686   5.555
 9870POPC   PO455272  20.582  37.672   5.855
 9870POPC   GL155273  20.567  37.634   6.155
 9870POPC   GL255274  20.481  37.732   6.155
 9870POPC   C1A55275  20.643  37.633   6.455
 9870POPC   D2A55276  20.586  37.663   6.755
 9870POPC   C3A55277  20.575  37.728   7.055
 9870POPC   C4A55278  20.567  37.679   7.355
 9870POPC   C1B55279  20.332  37.722   6.455
 9870POPC   C2B55280  20.403  37.753   6.755
 9870POPC   C3B55281  20.368  37.768   7.055
 9870POPC   C4B55282  20.341  37.785   7.355
 9871POPC   NC355283   5.061   6.640   5.555
 9871POPC   PO455284   5.111   6.595   5.855
 9871POPC   GL155285   5.067   6.630   6.155
 9871POPC   GL255286   5.055   6.555   6.155
 9871POPC   C1A55287   5.126   6.644   6.455
 9871POPC   D2A55288   5.125   6.685   6.755
 9871POPC   C3A55289   5.141   6.688   7.055
 9871POPC   C4A55290   5.062   6.641   7.355
 9871POPC   C1B55291   5.056   6.446   6.455
 9871POPC   C2B55292   5.048   6.444   6.755
 9871POPC   C3B55293   4.984   6.450   7.055
 9871POPC   C4B55294   4.996   6.415   7.355
 9872POPC   NC355295  39.195  29.964   5.555
 9872POPC   PO455296  39.218  29.899   5.855
 9872POPC   GL155297  39.225  29.966   6.155
 9872POPC   GL255298  39.337  29.962   6.155
 9872POPC   C1A55299  39.194  29.904   6.455
 9872POPC   D2A55300  39.241  29.897   6.755
 9872POPC   C3A55301  39.258  29.931   7.055
 9872POPC   C4A55302  39.253  29.936   7.355
 9872POPC   C1B55303  39.504  29.887   6.455
 9872POPC   C2B55304  39.522  29.887   6.755
 9872POPC   C3B55305  39.516  29.966   7.055
 9872POPC   C4B55306  39.470  29.939   7.355
 9873POPC   NC355307   3.526   3.545   5.555
 9873POPC   PO455308   3.561   3.547   5.855
 9873POPC   GL155309   3.585   3.542   6.155
 9873POPC   GL255310   3.401   3.615   6.155
 9873POPC   C1A55311   3.573   3.518   6.455
 9873POPC   D2A55312   3.552   3.502   6.755
 9873POPC   C3A55313   3.584   3.572   7.055
 9873POPC   C4A55314   3.567   3.514   7.355
 9873POPC   C1B55315   3.359   3.667   6.455
 9873POPC   C2B55316   3.373   3.649   6.755
 9873POPC   C3B55317   3.301   3.720   7.055
 9873POPC   C4B55318   3.371   3.708   7.355
 9874POPC   NC355319  10.481  28.353   5.555
 9874POPC   PO455320  10.560  28.341   5.855
 9874POPC   GL155321  10.541  28.383   6.155
 9874POPC   GL255322  10.616  28.311   6.155
 9874POPC   C1A55323  10.526  28.418   6.455
 9874POPC   D2A55324  10.534  28.324   6.755
 9874POPC   C3A55325  10.573  28.334   7.055
 9874POPC   C4A55326  10.519  28.370   7.355
 9874POPC   C1B55327  10.757  28.273   6.455
 9874POPC   C2B55328  10.730  28.253   6.755
 9874POPC   C3B55329  10.776  28.278   7.055
 9874POPC   C4B55330  10.734  28.257   7.355
 9875POPC   NC355331  33.767  17.457   5.555
 9875POPC   PO455332  33.812  17.471   5.855
 9875POPC   GL155333  33.806  17.520   6.155
 9875POPC   GL255334  33.912  17.462   6.155
 9875POPC   C1A55335  33.817  17.546   6.455
 9875POPC   D2A55336  33.821  17.523   6.755
 9875POPC   C3A55337  33.822  17.500   7.055
 9875POPC   C4A55338  33.840  17.472   7.355
 9875POPC   C1B55339  33.944  17.374   6.455
 9875POPC   C2B55340  33.949  17.299   6.755
 9875POPC   C3B55341  34.008  17.327   7.055
 9875POPC   C4B55342  33.943  17.307   7.355
 9876POPC   NC355343  12.812   1.227   5.555
 9876POPC   PO455344  12.846   1.243   5.855
 9876POPC   GL155345  12.821   1.206   6.155
 9876POPC   GL255346  12.934   1.098   6.155
 9876POPC   C1A55347  12.842   1.253   6.455
 9876POPC   D2A55348  12.808   1.251   6.755
 9876POPC   C3A55349  12.836   1.209   7.055
 9876POPC   C4A55350  12.859   1.237   7.355
 9876POPC   C1B55351  12.910   0.936   6.455
 9876POPC   C2B55352  12.940   1.017   6.755
 9876POPC   C3B55353  12.938   0.989   7.055
 9876POPC   C4B55354  12.932   0.972   7.355
 9877POPC   NC355355   2.775  29.888   5.555
 9877POPC   PO455356   2.756  29.882   5.855
 9877POPC   GL155357   2.810  29.943   6.155
 9877POPC   GL255358   2.619  30.014   6.155
 9877POPC   C1A55359   2.760  29.954   6.455
 9877POPC   D2A55360   2.752  29.937   6.755
 9877POPC   C3A55361   2.750  29.922   7.055
 9877POPC   C4A55362   2.791  29.891   7.355
 9877POPC   C1B55363   2.587  30.058   6.455
 9877POPC   C2B55364   2.564  30.020   6.755
 9877POPC   C3B55365   2.590  30.025   7.055
 9877POPC   C4B55366   2.583  30.091   7.355
 9878POPC   NC355367  43.905   0.407   5.555
 9878POPC   PO455368  43.904   0.481   5.855
 9878POPC   GL155369  43.855   0.453   6.155
 9878POPC   GL255370  43.862   0.303   6.155
 9878POPC   C1A55371  43.866   0.406   6.455
 9878POPC   D2A55372  43.875   0.450   6.755
 9878POPC   C3A55373  43.922   0.410   7.055
 9878POPC   C4A55374  43.915   0.413   7.355
 9878POPC   C1B55375  43.763   0.234   6.455
 9878POPC   C2B55376  43.776   0.258   6.755
 9878POPC   C3B55377  43.717   0.282   7.055
 9878POPC   C4B55378  43.791   0.259   7.355
 9879POPC   NC355379  33.757   5.917   5.555
 9879POPC   PO455380  33.760   5.889   5.855
 9879POPC   GL155381  33.821   5.859   6.155
 9879POPC   GL255382  33.877   5.764   6.155
 9879POPC   C1A55383  33.793   5.859   6.455
 9879POPC   D2A55384  33.764   5.916   6.755
 9879POPC   C3A55385  33.844   5.891   7.055
 9879POPC   C4A55386  33.750   5.832   7.355
 9879POPC   C1B55387  33.868   5.646   6.455
 9879POPC   C2B55388  33.920   5.599   6.755
 9879POPC   C3B55389  33.916   5.621   7.055
 9879POPC   C4B55390  33.867   5.668   7.355
 9880POPC   NC355391  12.102   2.806   5.555
 9880POPC   PO455392  12.098   2.720   5.855
 9880POPC   GL155393  12.119   2.751   6.155
 9880POPC   GL255394  12.034   2.648   6.155
 9880POPC   C1A55395  12.074   2.810   6.455
 9880POPC   D2A55396  12.074   2.747   6.755
 9880POPC   C3A55397  12.062   2.762   7.055
 9880POPC   C4A55398  12.048   2.728   7.355
 9880POPC   C1B55399  12.066   2.485   6.455
 9880POPC   C2B55400  12.092   2.476   6.755
 9880POPC   C3B55401  12.086   2.532   7.055
 9880POPC   C4B55402  12.038   2.499   7.355
 9881POPC   NC355403  21.400   8.946   5.555
 9881POPC   PO455404  21.341   8.934   5.855
 9881POPC   GL155405  21.381   9.000   6.155
 9881POPC   GL255406  21.377   9.136   6.155
 9881POPC   C1A55407  21.344   8.978   6.455
 9881POPC   D2A55408  21.417   8.964   6.755
 9881POPC   C3A55409  21.428   8.946   7.055
 9881POPC   C4A55410  21.356   9.002   7.355
 9881POPC   C1B55411  21.371   9.199   6.455
 9881POPC   C2B55412  21.374   9.242   6.755
 9881POPC   C3B55413  21.401   9.241   7.055
 9881POPC   C4B55414  21.434   9.202   7.355
 9882POPC   NC355415  44.658  19.812   5.555
 9882POPC   PO455416  44.653  19.823   5.855
 9882POPC   GL155417  44.624  19.866   6.155
 9882POPC   GL255418  44.746  19.737   6.155
 9882POPC   C1A55419  44.643  19.862   6.455
 9882POPC   D2A55420  44.707  19.818   6.755
 9882POPC   C3A55421  44.712  19.799   7.055
 9882POPC   C4A55422  44.692  19.817   7.355
 9882POPC   C1B55423  44.859  19.668   6.455
 9882POPC   C2B55424  44.869  19.646   6.755
 9882POPC   C3B55425  44.808  19.637   7.055
 9882POPC   C4B55426  44.840  19.700   7.355
 9883POPC   NC355427  19.852   9.782   5.555
 9883POPC   PO455428  19.859   9.732   5.855
 9883POPC   GL155429  19.851   9.726   6.155
 9883POPC   GL255430  19.910   9.704   6.155
 9883POPC   C1A55431  19.868   9.737   6.455
 9883POPC   D2A55432  19.869   9.754   6.755
 9883POPC   C3A55433  19.824   9.774   7.055
 9883POPC   C4A55434  19.849   9.705   7.355
 9883POPC   C1B55435  20.032   9.686   6.455
 9883POPC   C2B55436  20.034   9.740   6.755
 9883POPC   C3B55437  20.090   9.732   7.055
 9883POPC   C4B55438  20.099   9.643   7.355
 9884POPC   NC355439  24.479  25.306   5.555
 9884POPC   PO455440  24.488  25.216   5.855
 9884POPC   GL155441  24.450  25.301   6.155
 9884POPC   GL255442  24.408  25.351   6.155
 9884POPC   C1A55443  24.539  25.271   6.455
 9884POPC   D2A55444  24.505  25.237   6.755
 9884POPC   C3A55445  24.462  25.266   7.055
 9884POPC   C4A55446  24.453  25.227   7.355
 9884POPC   C1B55447  24.248  25.379   6.455
 9884POPC   C2B55448  24.308  25.409   6.755
 9884POPC   C3B55449  24.308  25.423   7.055
 9884POPC   C4B55450  24.284  25.375   7.355
 9885POPC   NC355451  19.798  10.494   5.555
 9885POPC   PO455452  19.813  10.514   5.855
 9885POPC   GL155453  19.789  10.568   6.155
 9885POPC   GL255454  19.737  10.439   6.155
 9885POPC   C1A55455  19.864  10.534   6.455
 9885POPC   D2A55456  19.861  10.540   6.755
 9885POPC   C3A55457  19.796  10.524   7.055
 9885POPC   C4A55458  19.838  10.491   7.355
 9885POPC   C1B55459  19.667  10.318   6.455
 9885POPC   C2B55460  19.684  10.390   6.755
 9885POPC   C3B55461  19.665  10.408   7.055
 9885POPC   C4B55462  19.622  10.383   7.355
 9886POPC   NC355463  21.393  43.069   5.555
 9886POPC   PO455464  21.351  43.156   5.855
 9886POPC   GL155465  21.348  43.149   6.155
 9886POPC   GL255466  21.371  43.267   6.155
 9886POPC   C1A55467  21.338  43.065   6.455
 9886POPC   D2A55468  21.428  43.147   6.755
 9886POPC   C3A55469  21.386  43.102   7.055
 9886POPC   C4A55470  21.365  43.076   7.355
 9886POPC   C1B55471  21.330  43.371   6.455
 9886POPC   C2B55472  21.331  43.388   6.755
 9886POPC   C3B55473  21.317  43.305   7.055
 9886POPC   C4B55474  21.303  43.395   7.355
 9887POPC   NC355475  14.409  26.015   5.555
 9887POPC   PO455476  14.390  25.998   5.855
 9887POPC   GL155477  14.447  26.033   6.155
 9887POPC   GL255478  14.541  26.038   6.155
 9887POPC   C1A55479  14.384  26.027   6.455
 9887POPC   D2A55480  14.393  26.067   6.755
 9887POPC   C3A55481  14.365  26.027   7.055
 9887POPC   C4A55482  14.424  26.084   7.355
 9887POPC   C1B55483  14.658  26.111   6.455
 9887POPC   C2B55484  14.603  26.101   6.755
 9887POPC   C3B55485  14.648  26.116   7.055
 9887POPC   C4B55486  14.630  26.116   7.355
 9888POPC   NC355487  12.868   5.049   5.555
 9888POPC   PO455488  12.847   5.112   5.855
 9888POPC   GL155489  12.836   5.126   6.155
 9888POPC   GL255490  12.753   5.062   6.155
 9888POPC   C1A55491  12.844   5.121   6.455
 9888POPC   D2A55492  12.829   5.082   6.755
 9888POPC   C3A55493  12.894   5.043   7.055
 9888POPC   C4A55494  12.861   5.056   7.355
 9888POPC   C1B55495  12.603   4.941   6.455
 9888POPC   C2B55496  12.696   4.955   6.755
 9888POPC   C3B55497  12.625   4.944   7.055
 9888POPC   C4B55498  12.677   4.947   7.355
 9889POPC   NC355499   5.124  34.546   5.555
 9889POPC   PO455500   5.089  34.562   5.855
 9889POPC   GL155501   5.064  34.528   6.155
 9889POPC   GL255502   5.227  34.485   6.155
 9889POPC   C1A55503   5.099  34.548   6.455
 9889POPC   D2A55504   5.049  34.564   6.755
 9889POPC   C3A55505   5.070  34.536   7.055
 9889POPC   C4A55506   5.085  34.546   7.355
 9889POPC   C1B55507   5.283  34.415   6.455
 9889POPC   C2B55508   5.283  34.413   6.755
 9889POPC   C3B55509   5.258  34.434   7.055
 9889POPC   C4B55510   5.331  34.472   7.355
 9890POPC   NC355511  12.810  43.855   5.555
 9890POPC   PO455512  12.873  43.878   5.855
 9890POPC   GL155513  12.889  43.876   6.155
 9890POPC   GL255514  12.761  43.957   6.155
 9890POPC   C1A55515  12.840  43.843   6.455
 9890POPC   D2A55516  12.844  43.851   6.755
 9890POPC   C3A55517  12.860  43.878   7.055
 9890POPC   C4A55518  12.813  43.930   7.355
 9890POPC   C1B55519  12.723  44.085   6.455
 9890POPC   C2B55520  12.767  44.103   6.755
 9890POPC   C3B55521  12.718  44.087   7.055
 9890POPC   C4B55522  12.743  44.098   7.355
 9891POPC   NC355523  26.786   3.578   5.555
 9891POPC   PO455524  26.828   3.506   5.855
 9891POPC   GL155525  26.843   3.523   6.155
 9891POPC   GL255526  26.765   3.668   6.155
 9891POPC   C1A55527  26.779   3.495   6.455
 9891POPC   D2A55528  26.836   3.549   6.755
 9891POPC   C3A55529  26.837   3.507   7.055
 9891POPC   C4A55530  26.785   3.543   7.355
 9891POPC   C1B55531  26.763   3.740   6.455
 9891POPC   C2B55532  26.801   3.804   6.755
 9891POPC   C3B55533  26.757   3.755   7.055
 9891POPC   C4B55534  26.733   3.768   7.355
 9892POPC   NC355535  39.237  44.631   5.555
 9892POPC   PO455536  39.248  44.665   5.855
 9892POPC   GL155537  39.254  44.624   6.155
 9892POPC   GL255538  39.254  44.493   6.155
 9892POPC   C1A55539  39.222  44.652   6.455
 9892POPC   D2A55540  39.187  44.696   6.755
 9892POPC   C3A55541  39.250  44.631   7.055
 9892POPC   C4A55542  39.213  44.708   7.355
 9892POPC   C1B55543  39.195  44.431   6.455
 9892POPC   C2B55544  39.243  44.432   6.755
 9892POPC   C3B55545  39.207  44.423   7.055
 9892POPC   C4B55546  39.195  44.459   7.355
 9893POPC   NC355547   5.087  15.935   5.555
 9893POPC   PO455548   5.120  15.925   5.855
 9893POPC   GL155549   5.118  15.957   6.155
 9893POPC   GL255550   4.992  15.964   6.155
 9893POPC   C1A55551   5.083  15.976   6.455
 9893POPC   D2A55552   5.123  15.922   6.755
 9893POPC   C3A55553   5.116  15.967   7.055
 9893POPC   C4A55554   5.115  15.930   7.355
 9893POPC   C1B55555   4.831  16.062   6.455
 9893POPC   C2B55556   4.859  16.097   6.755
 9893POPC   C3B55557   4.904  16.074   7.055
 9893POPC   C4B55558   4.862  16.069   7.355
 9894POPC   NC355559  32.251   3.540   5.555
 9894POPC   PO455560  32.283   3.507   5.855
 9894POPC   GL155561  32.247   3.510   6.155
 9894POPC   GL255562  32.149   3.666   6.155
 9894POPC   C1A55563  32.275   3.499   6.455
 9894POPC   D2A55564  32.256   3.512   6.755
 9894POPC   C3A55565  32.265   3.566   7.055
 9894POPC   C4A55566  32.267   3.561   7.355
 9894POPC   C1B55567  32.091   3.719   6.455
 9894POPC   C2B55568  32.142   3.755   6.755
 9894POPC   C3B55569  32.116   3.732   7.055
 9894POPC   C4B55570  32.084   3.780   7.355
 9895POPC   NC355571  36.930   3.570   5.555
 9895POPC   PO455572  36.888   3.551   5.855
 9895POPC   GL155573  36.888   3.587   6.155
 9895POPC   GL255574  36.857   3.462   6.155
 9895POPC   C1A55575  36.932   3.545   6.455
 9895POPC   D2A55576  36.908   3.574   6.755
 9895POPC   C3A55577  36.937   3.565   7.055
 9895POPC   C4A55578  36.912   3.535   7.355
 9895POPC   C1B55579  36.708   3.323   6.455
 9895POPC   C2B55580  36.731   3.381   6.755
 9895POPC   C3B55581  36.700   3.363   7.055
 9895POPC   C4B55582  36.742   3.346   7.355
 9896POPC   NC355583  44.655  30.697   5.555
 9896POPC   PO455584  44.695  30.724   5.855
 9896POPC   GL155585  44.706  30.701   6.155
 9896POPC   GL255586  44.799  30.655   6.155
 9896POPC   C1A55587  44.706  30.660   6.455
 9896POPC   D2A55588  44.677  30.709   6.755
 9896POPC   C3A55589  44.648  30.666   7.055
 9896POPC   C4A55590  44.650  30.658   7.355
 9896POPC   C1B55591  44.959  30.717   6.455
 9896POPC   C2B55592  44.903  30.757   6.755
 9896POPC   C3B55593  44.949  30.724   7.055
 9896POPC   C4B55594  44.888  30.688   7.355
 9897POPC   NC355595  37.674  44.697   5.555
 9897POPC   PO455596  37.724  44.652   5.855
 9897POPC   GL155597  37.697  44.688   6.155
 9897POPC   GL255598  37.604  44.598   6.155
 9897POPC   C1A55599  37.692  44.680   6.455
 9897POPC   D2A55600  37.682  44.665   6.755
 9897POPC   C3A55601  37.685  44.695   7.055
 9897POPC   C4A55602  37.675  44.628   7.355
 9897POPC   C1B55603  37.426  44.575   6.455
 9897POPC   C2B55604  37.415  44.572   6.755
 9897POPC   C3B55605  37.428  44.572   7.055
 9897POPC   C4B55606  37.452  44.607   7.355
 9898POPC   NC355607  28.390  35.390   5.555
 9898POPC   PO455608  28.323  35.379   5.855
 9898POPC   GL155609  28.366  35.386   6.155
 9898POPC   GL255610  28.373  35.193   6.155
 9898POPC   C1A55611  28.345  35.321   6.455
 9898POPC   D2A55612  28.378  35.402   6.755
 9898POPC   C3A55613  28.333  35.308   7.055
 9898POPC   C4A55614  28.404  35.320   7.355
 9898POPC   C1B55615  28.349  35.111   6.455
 9898POPC   C2B55616  28.397  35.135   6.755
 9898POPC   C3B55617  28.368  35.077   7.055
 9898POPC   C4B55618  28.343  35.114   7.355
 9899POPC   NC355619  41.539  24.465   5.555
 9899POPC   PO455620  41.522  24.465   5.855
 9899POPC   GL155621  41.532  24.487   6.155
 9899POPC   GL255622  41.641  24.567   6.155
 9899POPC   C1A55623  41.512  24.535   6.455
 9899POPC   D2A55624  41.603  24.530   6.755
 9899POPC   C3A55625  41.521  24.471   7.055
 9899POPC   C4A55626  41.515  24.516   7.355
 9899POPC   C1B55627  41.839  24.593   6.455
 9899POPC   C2B55628  41.800  24.541   6.755
 9899POPC   C3B55629  41.815  24.511   7.055
 9899POPC   C4B55630  41.846  24.505   7.355
 9900POPC   NC355631   5.075  38.432   5.555
 9900POPC   PO455632   5.100  38.487   5.855
 9900POPC   GL155633   5.072  38.443   6.155
 9900POPC   GL255634   5.007  38.388   6.155
 9900POPC   C1A55635   5.069  38.437   6.455
 9900POPC   D2A55636   5.097  38.484   6.755
 9900POPC   C3A55637   5.138  38.440   7.055
 9900POPC   C4A55638   5.063  38.502   7.355
 9900POPC   C1B55639   4.852  38.428   6.455
 9900POPC   C2B55640   4.832  38.376   6.755
 9900POPC   C3B55641   4.841  38.411   7.055
 9900POPC   C4B55642   4.823  38.443   7.355
 9901POPC   NC355643  36.140  19.793   5.555
 9901POPC   PO455644  36.111  19.858   5.855
 9901POPC   GL155645  36.114  19.868   6.155
 9901POPC   GL255646  36.029  19.717   6.155
 9901POPC   C1A55647  36.091  19.835   6.455
 9901POPC   D2A55648  36.110  19.883   6.755
 9901POPC   C3A55649  36.127  19.859   7.055
 9901POPC   C4A55650  36.157  19.826   7.355
 9901POPC   C1B55651  36.004  19.625   6.455
 9901POPC   C2B55652  36.040  19.587   6.755
 9901POPC   C3B55653  36.039  19.579   7.055
 9901POPC   C4B55654  36.039  19.635   7.355
 9902POPC   NC355655   4.295   7.394   5.555
 9902POPC   PO455656   4.355   7.380   5.855
 9902POPC   GL155657   4.277   7.425   6.155
 9902POPC   GL255658   4.462   7.459   6.155
 9902POPC   C1A55659   4.297   7.408   6.455
 9902POPC   D2A55660   4.329   7.440   6.755
 9902POPC   C3A55661   4.359   7.394   7.055
 9902POPC   C4A55662   4.268   7.446   7.355
 9902POPC   C1B55663   4.558   7.550   6.455
 9902POPC   C2B55664   4.544   7.534   6.755
 9902POPC   C3B55665   4.532   7.589   7.055
 9902POPC   C4B55666   4.567   7.547   7.355
 9903POPC   NC355667   7.404  30.668   5.555
 9903POPC   PO455668   7.424  30.679   5.855
 9903POPC   GL155669   7.380  30.743   6.155
 9903POPC   GL255670   7.407  30.841   6.155
 9903POPC   C1A55671   7.386  30.659   6.455
 9903POPC   D2A55672   7.464  30.731   6.755
 9903POPC   C3A55673   7.436  30.697   7.055
 9903POPC   C4A55674   7.410  30.677   7.355
 9903POPC   C1B55675   7.455  30.978   6.455
 9903POPC   C2B55676   7.391  30.905   6.755
 9903POPC   C3B55677   7.411  30.949   7.055
 9903POPC   C4B55678   7.457  30.977   7.355
 9904POPC   NC355679  39.254   8.172   5.555
 9904POPC   PO455680  39.249   8.171   5.855
 9904POPC   GL155681  39.232   8.172   6.155
 9904POPC   GL255682  39.324   8.301   6.155
 9904POPC   C1A55683  39.181   8.152   6.455
 9904POPC   D2A55684  39.276   8.174   6.755
 9904POPC   C3A55685  39.195   8.224   7.055
 9904POPC   C4A55686  39.254   8.192   7.355
 9904POPC   C1B55687  39.427   8.335   6.455
 9904POPC   C2B55688  39.386   8.421   6.755
 9904POPC   C3B55689  39.393   8.330   7.055
 9904POPC   C4B55690  39.441   8.366   7.355
 9905POPC   NC355691  13.610  10.487   5.555
 9905POPC   PO455692  13.669  10.565   5.855
 9905POPC   GL155693  13.660  10.516   6.155
 9905POPC   GL255694  13.761  10.558   6.155
 9905POPC   C1A55695  13.586  10.534   6.455
 9905POPC   D2A55696  13.594  10.500   6.755
 9905POPC   C3A55697  13.580  10.501   7.055
 9905POPC   C4A55698  13.637  10.521   7.355
 9905POPC   C1B55699  13.841  10.654   6.455
 9905POPC   C2B55700  13.840  10.640   6.755
 9905POPC   C3B55701  13.814  10.649   7.055
 9905POPC   C4B55702  13.855  10.584   7.355
 9906POPC   NC355703  29.100  19.853   5.555
 9906POPC   PO455704  29.108  19.812   5.855
 9906POPC   GL155705  29.145  19.820   6.155
 9906POPC   GL255706  29.043  19.933   6.155
 9906POPC   C1A55707  29.167  19.809   6.455
 9906POPC   D2A55708  29.106  19.797   6.755
 9906POPC   C3A55709  29.148  19.835   7.055
 9906POPC   C4A55710  29.113  19.806   7.355
 9906POPC   C1B55711  29.018  20.029   6.455
 9906POPC   C2B55712  28.952  20.040   6.755
 9906POPC   C3B55713  28.934  20.054   7.055
 9906POPC   C4B55714  28.998  20.016   7.355
 9907POPC   NC355715  43.103   2.793   5.555
 9907POPC   PO455716  43.137   2.734   5.855
 9907POPC   GL155717  43.158   2.776   6.155
 9907POPC   GL255718  43.090   2.934   6.155
 9907POPC   C1A55719  43.119   2.720   6.455
 9907POPC   D2A55720  43.072   2.759   6.755
 9907POPC   C3A55721  43.116   2.740   7.055
 9907POPC   C4A55722  43.136   2.755   7.355
 9907POPC   C1B55723  43.078   3.042   6.455
 9907POPC   C2B55724  43.069   2.988   6.755
 9907POPC   C3B55725  43.081   3.052   7.055
 9907POPC   C4B55726  43.080   3.002   7.355
 9908POPC   NC355727  29.106  29.883   5.555
 9908POPC   PO455728  29.141  29.942   5.855
 9908POPC   GL155729  29.179  29.891   6.155
 9908POPC   GL255730  29.047  29.817   6.155
 9908POPC   C1A55731  29.132  29.899   6.455
 9908POPC   D2A55732  29.114  29.910   6.755
 9908POPC   C3A55733  29.161  29.871   7.055
 9908POPC   C4A55734  29.127  29.936   7.355
 9908POPC   C1B55735  28.899  29.813   6.455
 9908POPC   C2B55736  28.920  29.795   6.755
 9908POPC   C3B55737  28.893  29.777   7.055
 9908POPC   C4B55738  28.987  29.769   7.355
 9909POPC   NC355739  27.557  32.214   5.555
 9909POPC   PO455740  27.594  32.271   5.855
 9909POPC   GL155741  27.549  32.254   6.155
 9909POPC   GL255742  27.605  32.088   6.155
 9909POPC   C1A55743  27.598  32.231   6.455
 9909POPC   D2A55744  27.640  32.218   6.755
 9909POPC   C3A55745  27.553  32.253   7.055
 9909POPC   C4A55746  27.548  32.213   7.355
 9909POPC   C1B55747  27.590  31.995   6.455
 9909POPC   C2B55748  27.622  32.034   6.755
 9909POPC   C3B55749  27.588  32.029   7.055
 9909POPC   C4B55750  27.579  31.955   7.355
 9910POPC   NC355751  23.763  30.658   5.555
 9910POPC   PO455752  23.682  30.676   5.855
 9910POPC   GL155753  23.675  30.720   6.155
 9910POPC   GL255754  23.839  30.790   6.155
 9910POPC   C1A55755  23.666  30.695   6.455
 9910POPC   D2A55756  23.667  30.656   6.755
 9910POPC   C3A55757  23.761  30.709   7.055
 9910POPC   C4A55758  23.763  30.702   7.355
 9910POPC   C1B55759  23.888  30.815   6.455
 9910POPC   C2B55760  23.923  30.844   6.755
 9910POPC   C3B55761  23.910  30.779   7.055
 9910POPC   C4B55762  23.932  30.816   7.355
 9911POPC   NC355763  13.587  24.502   5.555
 9911POPC   PO455764  13.660  24.495   5.855
 9911POPC   GL155765  13.602  24.465   6.155
 9911POPC   GL255766  13.753  24.477   6.155
 9911POPC   C1A55767  13.580  24.474   6.455
 9911POPC   D2A55768  13.636  24.514   6.755
 9911POPC   C3A55769  13.648  24.498   7.055
 9911POPC   C4A55770  13.588  24.517   7.355
 9911POPC   C1B55771  13.870  24.552   6.455
 9911POPC   C2B55772  13.884  24.580   6.755
 9911POPC   C3B55773  13.838  24.555   7.055
 9911POPC   C4B55774  13.908  24.593   7.355
 9912POPC   NC355775  24.503   1.995   5.555
 9912POPC   PO455776  24.512   2.027   5.855
 9912POPC   GL155777  24.536   1.947   6.155
 9912POPC   GL255778  24.471   1.846   6.155
 9912POPC   C1A55779  24.523   1.961   6.455
 9912POPC   D2A55780  24.446   1.957   6.755
 9912POPC   C3A55781  24.483   1.947   7.055
 9912POPC   C4A55782  24.490   1.959   7.355
 9912POPC   C1B55783  24.396   1.735   6.455
 9912POPC   C2B55784  24.392   1.795   6.755
 9912POPC   C3B55785  24.433   1.761   7.055
 9912POPC   C4B55786  24.374   1.734   7.355
 9913POPC   NC355787  26.838  42.307   5.555
 9913POPC   PO455788  26.814  42.350   5.855
 9913POPC   GL155789  26.824  42.305   6.155
 9913POPC   GL255790  26.739  42.353   6.155
 9913POPC   C1A55791  26.824  42.342   6.455
 9913POPC   D2A55792  26.847  42.374   6.755
 9913POPC   C3A55793  26.784  42.292   7.055
 9913POPC   C4A55794  26.812  42.337   7.355
 9913POPC   C1B55795  26.576  42.261   6.455
 9913POPC   C2B55796  26.573  42.250   6.755
 9913POPC   C3B55797  26.592  42.284   7.055
 9913POPC   C4B55798  26.564  42.241   7.355
 9914POPC   NC355799  32.203  33.032   5.555
 9914POPC   PO455800  32.285  32.978   5.855
 9914POPC   GL155801  32.215  33.005   6.155
 9914POPC   GL255802  32.290  32.904   6.155
 9914POPC   C1A55803  32.219  33.005   6.455
 9914POPC   D2A55804  32.251  33.002   6.755
 9914POPC   C3A55805  32.288  33.026   7.055
 9914POPC   C4A55806  32.224  32.986   7.355
 9914POPC   C1B55807  32.276  32.753   6.455
 9914POPC   C2B55808  32.308  32.779   6.755
 9914POPC   C3B55809  32.287  32.818   7.055
 9914POPC   C4B55810  32.286  32.816   7.355
 9915POPC   NC355811   7.452  29.970   5.555
 9915POPC   PO455812   7.446  29.954   5.855
 9915POPC   GL155813   7.433  29.946   6.155
 9915POPC   GL255814   7.350  29.854   6.155
 9915POPC   C1A55815   7.389  29.956   6.455
 9915POPC   D2A55816   7.422  29.952   6.755
 9915POPC   C3A55817   7.453  29.887   7.055
 9915POPC   C4A55818   7.434  29.957   7.355
 9915POPC   C1B55819   7.278  29.707   6.455
 9915POPC   C2B55820   7.308  29.704   6.755
 9915POPC   C3B55821   7.345  29.645   7.055
 9915POPC   C4B55822   7.304  29.699   7.355
 9916POPC   NC355823  26.792  43.073   5.555
 9916POPC   PO455824  26.853  43.120   5.855
 9916POPC   GL155825  26.783  43.130   6.155
 9916POPC   GL255826  26.743  43.119   6.155
 9916POPC   C1A55827  26.791  43.076   6.455
 9916POPC   D2A55828  26.777  43.073   6.755
 9916POPC   C3A55829  26.857  43.150   7.055
 9916POPC   C4A55830  26.772  43.098   7.355
 9916POPC   C1B55831  26.614  43.157   6.455
 9916POPC   C2B55832  26.598  43.144   6.755
 9916POPC   C3B55833  26.618  43.173   7.055
 9916POPC   C4B55834  26.544  43.132   7.355
 9917POPC   NC355835  27.554  27.563   5.555
 9917POPC   PO455836  27.598  27.577   5.855
 9917POPC   GL155837  27.603  27.610   6.155
 9917POPC   GL255838  27.460  27.512   6.155
 9917POPC   C1A55839  27.583  27.559   6.455
 9917POPC   D2A55840  27.627  27.635   6.755
 9917POPC   C3A55841  27.585  27.556   7.055
 9917POPC   C4A55842  27.602  27.599   7.355
 9917POPC   C1B55843  27.366  27.423   6.455
 9917POPC   C2B55844  27.424  27.506   6.755
 9917POPC   C3B55845  27.330  27.434   7.055
 9917POPC   C4B55846  27.333  27.476   7.355
 9918POPC   NC355847  24.446  44.657   5.555
 9918POPC   PO455848  24.488  44.700   5.855
 9918POPC   GL155849  24.475  44.630   6.155
 9918POPC   GL255850  24.472  44.540   6.155
 9918POPC   C1A55851  24.500  44.693   6.455
 9918POPC   D2A55852  24.500  44.671   6.755
 9918POPC   C3A55853  24.473  44.679   7.055
 9918POPC   C4A55854  24.488  44.664   7.355
 9918POPC   C1B55855  24.383  44.444   6.455
 9918POPC   C2B55856  24.327  44.488   6.755
 9918POPC   C3B55857  24.407  44.477   7.055
 9918POPC   C4B55858  24.402  44.464   7.355
 9919POPC   NC355859  33.010  15.923   5.555
 9919POPC   PO455860  32.997  15.967   5.855
 9919POPC   GL155861  33.007  15.996   6.155
 9919POPC   GL255862  33.012  15.826   6.155
 9919POPC   C1A55863  33.067  15.930   6.455
 9919POPC   D2A55864  33.067  15.941   6.755
 9919POPC   C3A55865  32.978  15.976   7.055
 9919POPC   C4A55866  33.047  15.935   7.355
 9919POPC   C1B55867  33.015  15.679   6.455
 9919POPC   C2B55868  33.060  15.745   6.755
 9919POPC   C3B55869  32.998  15.718   7.055
 9919POPC   C4B55870  33.076  15.710   7.355
 9920POPC   NC355871  19.061   4.348   5.555
 9920POPC   PO455872  19.049   4.333   5.855
 9920POPC   GL155873  19.053   4.361   6.155
 9920POPC   GL255874  18.952   4.219   6.155
 9920POPC   C1A55875  19.096   4.297   6.455
 9920POPC   D2A55876  19.080   4.273   6.755
 9920POPC   C3A55877  19.033   4.303   7.055
 9920POPC   C4A55878  19.041   4.361   7.355
 9920POPC   C1B55879  18.880   4.143   6.455
 9920POPC   C2B55880  18.881   4.186   6.755
 9920POPC   C3B55881  18.867   4.164   7.055
 9920POPC   C4B55882  18.902   4.168   7.355
 9921POPC   NC355883  43.899  28.387   5.555
 9921POPC   PO455884  43.889  28.412   5.855
 9921POPC   GL155885  43.842  28.400   6.155
 9921POPC   GL255886  44.030  28.358   6.155
 9921POPC   C1A55887  43.859  28.366   6.455
 9921POPC   D2A55888  43.849  28.346   6.755
 9921POPC   C3A55889  43.881  28.375   7.055
 9921POPC   C4A55890  43.853  28.369   7.355
 9921POPC   C1B55891  44.105  28.454   6.455
 9921POPC   C2B55892  44.097  28.433   6.755
 9921POPC   C3B55893  44.102  28.436   7.055
 9921POPC   C4B55894  44.159  28.426   7.355
 9922POPC   NC355895  34.601   9.783   5.555
 9922POPC   PO455896  34.552   9.792   5.855
 9922POPC   GL155897  34.622   9.732   6.155
 9922POPC   GL255898  34.659   9.627   6.155
 9922POPC   C1A55899  34.621   9.782   6.455
 9922POPC   D2A55900  34.542   9.781   6.755
 9922POPC   C3A55901  34.539   9.711   7.055
 9922POPC   C4A55902  34.593   9.733   7.355
 9922POPC   C1B55903  34.778   9.582   6.455
 9922POPC   C2B55904  34.776   9.599   6.755
 9922POPC   C3B55905  34.776   9.646   7.055
 9922POPC   C4B55906  34.736   9.631   7.355
 9923POPC   NC355907   5.866  42.379   5.555
 9923POPC   PO455908   5.901  42.371   5.855
 9923POPC   GL155909   5.892  42.359   6.155
 9923POPC   GL255910   5.983  42.392   6.155
 9923POPC   C1A55911   5.901  42.357   6.455
 9923POPC   D2A55912   5.881  42.352   6.755
 9923POPC   C3A55913   5.832  42.304   7.055
 9923POPC   C4A55914   5.878  42.365   7.355
 9923POPC   C1B55915   5.986  42.551   6.455
 9923POPC   C2B55916   6.017  42.579   6.755
 9923POPC   C3B55917   6.055  42.586   7.055
 9923POPC   C4B55918   6.027  42.515   7.355
 9924POPC   NC355919   8.980  19.828   5.555
 9924POPC   PO455920   8.932  19.788   5.855
 9924POPC   GL155921   8.983  19.798   6.155
 9924POPC   GL255922   9.053  19.894   6.155
 9924POPC   C1A55923   9.001  19.803   6.455
 9924POPC   D2A55924   8.998  19.864   6.755
 9924POPC   C3A55925   9.012  19.871   7.055
 9924POPC   C4A55926   9.010  19.883   7.355
 9924POPC   C1B55927   9.190  19.997   6.455
 9924POPC   C2B55928   9.156  20.008   6.755
 9924POPC   C3B55929   9.172  19.998   7.055
 9924POPC   C4B55930   9.167  20.003   7.355
 9925POPC   NC355931   7.443  19.074   5.555
 9925POPC   PO455932   7.383  19.024   5.855
 9925POPC   GL155933   7.392  19.073   6.155
 9925POPC   GL255934   7.391  18.923   6.155
 9925POPC   C1A55935   7.460  19.053   6.455
 9925POPC   D2A55936   7.400  19.106   6.755
 9925POPC   C3A55937   7.468  19.029   7.055
 9925POPC   C4A55938   7.467  19.052   7.355
 9925POPC   C1B55939   7.416  18.780   6.455
 9925POPC   C2B55940   7.414  18.805   6.755
 9925POPC   C3B55941   7.422  18.838   7.055
 9925POPC   C4B55942   7.472  18.789   7.355
 9926POPC   NC355943  43.109   6.604   5.555
 9926POPC   PO455944  43.113   6.645   5.855
 9926POPC   GL155945  43.097   6.675   6.155
 9926POPC   GL255946  43.068   6.491   6.155
 9926POPC   C1A55947  43.103   6.605   6.455
 9926POPC   D2A55948  43.132   6.599   6.755
 9926POPC   C3A55949  43.113   6.600   7.055
 9926POPC   C4A55950  43.065   6.687   7.355
 9926POPC   C1B55951  43.016   6.379   6.455
 9926POPC   C2B55952  42.971   6.387   6.755
 9926POPC   C3B55953  42.944   6.398   7.055
 9926POPC   C4B55954  42.974   6.441   7.355
 9927POPC   NC355955  21.377  26.087   5.555
 9927POPC   PO455956  21.433  26.091   5.855
 9927POPC   GL155957  21.356  26.022   6.155
 9927POPC   GL255958  21.461  26.049   6.155
 9927POPC   C1A55959  21.401  26.034   6.455
 9927POPC   D2A55960  21.413  26.009   6.755
 9927POPC   C3A55961  21.368  26.084   7.055
 9927POPC   C4A55962  21.368  26.000   7.355
 9927POPC   C1B55963  21.652  26.039   6.455
 9927POPC   C2B55964  21.615  26.024   6.755
 9927POPC   C3B55965  21.640  26.009   7.055
 9927POPC   C4B55966  21.609  25.957   7.355
 9928POPC   NC355967   0.451  43.091   5.555
 9928POPC   PO455968   0.427  43.134   5.855
 9928POPC   GL155969   0.467  43.069   6.155
 9928POPC   GL255970   0.322  43.064   6.155
 9928POPC   C1A55971   0.415  43.094   6.455
 9928POPC   D2A55972   0.446  43.087   6.755
 9928POPC   C3A55973   0.471  43.130   7.055
 9928POPC   C4A55974   0.482  43.154   7.355
 9928POPC   C1B55975   0.182  42.992   6.455
 9928POPC   C2B55976   0.196  42.985   6.755
 9928POPC   C3B55977   0.185  43.063   7.055
 9928POPC   C4B55978   0.237  42.994   7.355
 9929POPC   NC355979   2.008   1.262   5.555
 9929POPC   PO455980   1.947   1.211   5.855
 9929POPC   GL155981   2.002   1.207   6.155
 9929POPC   GL255982   1.915   1.299   6.155
 9929POPC   C1A55983   2.022   1.199   6.455
 9929POPC   D2A55984   1.972   1.198   6.755
 9929POPC   C3A55985   2.025   1.212   7.055
 9929POPC   C4A55986   1.942   1.177   7.355
 9929POPC   C1B55987   1.782   1.311   6.455
 9929POPC   C2B55988   1.786   1.304   6.755
 9929POPC   C3B55989   1.769   1.248   7.055
 9929POPC   C4B55990   1.782   1.329   7.355
 9930POPC   NC355991  34.601  43.858   5.555
 9930POPC   PO455992  34.609  43.914   5.855
 9930POPC   GL155993  34.533  43.866   6.155
 9930POPC   GL255994  34.661  43.991   6.155
 9930POPC   C1A55995  34.621  43.898   6.455
 9930POPC   D2A55996  34.609  43.885   6.755
 9930POPC   C3A55997  34.545  43.879   7.055
 9930POPC   C4A55998  34.594  43.839   7.355
 9930POPC   C1B55999  34.701  44.121   6.455
 9930POPC   C2B56000  34.735  44.114   6.755
 9930POPC   C3B56001  34.684  44.157   7.055
 9930POPC   C4B56002  34.697  44.099   7.355
 9931POPC   NC356003  26.860  20.613   5.555
 9931POPC   PO456004  26.810  20.608   5.855
 9931POPC   GL156005  26.778  20.607   6.155
 9931POPC   GL256006  26.819  20.689   6.155
 9931POPC   C1A56007  26.797  20.579   6.455
 9931POPC   D2A56008  26.768  20.590   6.755
 9931POPC   C3A56009  26.790  20.653   7.055
 9931POPC   C4A56010  26.831  20.624   7.355
 9931POPC   C1B56011  26.850  20.878   6.455
 9931POPC   C2B56012  26.864  20.819   6.755
 9931POPC   C3B56013  26.928  20.828   7.055
 9931POPC   C4B56014  26.928  20.829   7.355
 9932POPC   NC356015  40.046  34.625   5.555
 9932POPC   PO456016  40.051  34.586   5.855
 9932POPC   GL156017  39.996  34.551   6.155
 9932POPC   GL256018  39.985  34.489   6.155
 9932POPC   C1A56019  39.964  34.610   6.455
 9932POPC   D2A56020  39.963  34.548   6.755
 9932POPC   C3A56021  39.959  34.611   7.055
 9932POPC   C4A56022  40.008  34.602   7.355
 9932POPC   C1B56023  39.986  34.355   6.455
 9932POPC   C2B56024  39.971  34.346   6.755
 9932POPC   C3B56025  39.939  34.350   7.055
 9932POPC   C4B56026  39.951  34.334   7.355
 9933POPC   NC356027  27.598  33.845   5.555
 9933POPC   PO456028  27.621  33.829   5.855
 9933POPC   GL156029  27.613  33.799   6.155
 9933POPC   GL256030  27.680  33.742   6.155
 9933POPC   C1A56031  27.574  33.806   6.455
 9933POPC   D2A56032  27.552  33.817   6.755
 9933POPC   C3A56033  27.617  33.791   7.055
 9933POPC   C4A56034  27.617  33.803   7.355
 9933POPC   C1B56035  27.826  33.747   6.455
 9933POPC   C2B56036  27.789  33.698   6.755
 9933POPC   C3B56037  27.786  33.699   7.055
 9933POPC   C4B56038  27.792  33.670   7.355
 9934POPC   NC356039  28.356  19.041   5.555
 9934POPC   PO456040  28.320  19.018   5.855
 9934POPC   GL156041  28.341  19.009   6.155
 9934POPC   GL256042  28.291  19.163   6.155
 9934POPC   C1A56043  28.336  19.055   6.455
 9934POPC   D2A56044  28.372  19.009   6.755
 9934POPC   C3A56045  28.360  19.037   7.055
 9934POPC   C4A56046  28.389  19.101   7.355
 9934POPC   C1B56047  28.336  19.278   6.455
 9934POPC   C2B56048  28.312  19.296   6.755
 9934POPC   C3B56049  28.255  19.284   7.055
 9934POPC   C4B56050  28.254  19.328   7.355
 9935POPC   NC356051  22.122  32.215   5.555
 9935POPC   PO456052  22.204  32.283   5.855
 9935POPC   GL156053  22.115  32.246   6.155
 9935POPC   GL256054  22.227  32.174   6.155
 9935POPC   C1A56055  22.200  32.276   6.455
 9935POPC   D2A56056  22.129  32.261   6.755
 9935POPC   C3A56057  22.132  32.236   7.055
 9935POPC   C4A56058  22.124  32.254   7.355
 9935POPC   C1B56059  22.288  32.059   6.455
 9935POPC   C2B56060  22.226  31.964   6.755
 9935POPC   C3B56061  22.266  31.973   7.055
 9935POPC   C4B56062  22.277  31.965   7.355
 9936POPC   NC356063  44.642  28.393   5.555
 9936POPC   PO456064  44.688  28.326   5.855
 9936POPC   GL156065  44.703  28.338   6.155
 9936POPC   GL256066  44.732  28.438   6.155
 9936POPC   C1A56067  44.666  28.404   6.455
 9936POPC   D2A56068  44.673  28.338   6.755
 9936POPC   C3A56069  44.711  28.403   7.055
 9936POPC   C4A56070  44.668  28.364   7.355
 9936POPC   C1B56071  44.893  28.440   6.455
 9936POPC   C2B56072  44.927  28.410   6.755
 9936POPC   C3B56073  44.902  28.452   7.055
 9936POPC   C4B56074  44.946  28.448   7.355
 9937POPC   NC356075  27.592  29.145   5.555
 9937POPC   PO456076  27.591  29.125   5.855
 9937POPC   GL156077  27.607  29.120   6.155
 9937POPC   GL256078  27.718  29.066   6.155
 9937POPC   C1A56079  27.598  29.153   6.455
 9937POPC   D2A56080  27.627  29.100   6.755
 9937POPC   C3A56081  27.604  29.159   7.055
 9937POPC   C4A56082  27.641  29.113   7.355
 9937POPC   C1B56083  27.774  29.053   6.455
 9937POPC   C2B56084  27.817  29.001   6.755
 9937POPC   C3B56085  27.783  28.960   7.055
 9937POPC   C4B56086  27.770  29.000   7.355
 9938POPC   NC356087  20.641  27.616   5.555
 9938POPC   PO456088  20.597  27.606   5.855
 9938POPC   GL156089  20.660  27.603   6.155
 9938POPC   GL256090  20.533  27.504   6.155
 9938POPC   C1A56091  20.563  27.628   6.455
 9938POPC   D2A56092  20.597  27.615   6.755
 9938POPC   C3A56093  20.582  27.598   7.055
 9938POPC   C4A56094  20.568  27.572   7.355
 9938POPC   C1B56095  20.353  27.469   6.455
 9938POPC   C2B56096  20.358  27.455   6.755
 9938POPC   C3B56097  20.372  27.459   7.055
 9938POPC   C4B56098  20.382  27.452   7.355
 9939POPC   NC356099   9.755  43.097   5.555
 9939POPC   PO456100   9.743  43.144   5.855
 9939POPC   GL156101   9.753  43.096   6.155
 9939POPC   GL256102   9.815  42.991   6.155
 9939POPC   C1A56103   9.726  43.061   6.455
 9939POPC   D2A56104   9.741  43.074   6.755
 9939POPC   C3A56105   9.748  43.097   7.055
 9939POPC   C4A56106   9.781  43.145   7.355
 9939POPC   C1B56107   9.920  43.008   6.455
 9939POPC   C2B56108   9.941  42.961   6.755
 9939POPC   C3B56109   9.998  42.933   7.055
 9939POPC   C4B56110   9.932  42.921   7.355
 9940POPC   NC356111   9.010  43.873   5.555
 9940POPC   PO456112   9.016  43.936   5.855
 9940POPC   GL156113   8.986  43.842   6.155
 9940POPC   GL256114   9.126  43.935   6.155
 9940POPC   C1A56115   8.983  43.867   6.455
 9940POPC   D2A56116   8.977  43.856   6.755
 9940POPC   C3A56117   8.931  43.876   7.055
 9940POPC   C4A56118   8.992  43.901   7.355
 9940POPC   C1B56119   9.197  44.007   6.455
 9940POPC   C2B56120   9.250  44.036   6.755
 9940POPC   C3B56121   9.188  44.001   7.055
 9940POPC   C4B56122   9.159  43.993   7.355
 9941POPC   NC356123   5.057   1.201   5.555
 9941POPC   PO456124   5.068   1.172   5.855
 9941POPC   GL156125   5.059   1.177   6.155
 9941POPC   GL256126   5.146   1.162   6.155
 9941POPC   C1A56127   5.136   1.196   6.455
 9941POPC   D2A56128   5.086   1.258   6.755
 9941POPC   C3A56129   5.093   1.219   7.055
 9941POPC   C4A56130   5.047   1.169   7.355
 9941POPC   C1B56131   5.324   1.022   6.455
 9941POPC   C2B56132   5.292   1.096   6.755
 9941POPC   C3B56133   5.285   1.088   7.055
 9941POPC   C4B56134   5.234   1.049   7.355
 9942POPC   NC356135  18.264  33.007   5.555
 9942POPC   PO456136  18.288  33.070   5.855
 9942POPC   GL156137  18.265  32.976   6.155
 9942POPC   GL256138  18.203  33.109   6.155
 9942POPC   C1A56139  18.262  33.046   6.455
 9942POPC   D2A56140  18.289  33.024   6.755
 9942POPC   C3A56141  18.322  32.977   7.055
 9942POPC   C4A56142  18.256  33.002   7.355
 9942POPC   C1B56143  18.052  33.116   6.455
 9942POPC   C2B56144  18.095  33.121   6.755
 9942POPC   C3B56145  18.017  33.093   7.055
 9942POPC   C4B56146  18.012  33.160   7.355
 9943POPC   NC356147  37.647  29.134   5.555
 9943POPC   PO456148  37.726  29.098   5.855
 9943POPC   GL156149  37.695  29.114   6.155
 9943POPC   GL256150  37.672  28.984   6.155
 9943POPC   C1A56151  37.705  29.165   6.455
 9943POPC   D2A56152  37.727  29.126   6.755
 9943POPC   C3A56153  37.655  29.135   7.055
 9943POPC   C4A56154  37.722  29.105   7.355
 9943POPC   C1B56155  37.677  28.872   6.455
 9943POPC   C2B56156  37.719  28.873   6.755
 9943POPC   C3B56157  37.686  28.917   7.055
 9943POPC   C4B56158  37.674  28.920   7.355
 9944POPC   NC356159  13.653  13.592   5.555
 9944POPC   PO456160  13.619  13.671   5.855
 9944POPC   GL156161  13.670  13.593   6.155
 9944POPC   GL256162  13.542  13.525   6.155
 9944POPC   C1A56163  13.611  13.582   6.455
 9944POPC   D2A56164  13.616  13.600   6.755
 9944POPC   C3A56165  13.598  13.628   7.055
 9944POPC   C4A56166  13.673  13.610   7.355
 9944POPC   C1B56167  13.375  13.468   6.455
 9944POPC   C2B56168  13.446  13.515   6.755
 9944POPC   C3B56169  13.408  13.474   7.055
 9944POPC   C4B56170  13.456  13.517   7.355
 9945POPC   NC356171  40.055  36.103   5.555
 9945POPC   PO456172  40.011  36.116   5.855
 9945POPC   GL156173  39.976  36.156   6.155
 9945POPC   GL256174  40.150  36.036   6.155
 9945POPC   C1A56175  39.972  36.125   6.455
 9945POPC   D2A56176  40.039  36.088   6.755
 9945POPC   C3A56177  40.029  36.104   7.055
 9945POPC   C4A56178  39.983  36.170   7.355
 9945POPC   C1B56179  40.219  36.007   6.455
 9945POPC   C2B56180  40.243  35.928   6.755
 9945POPC   C3B56181  40.207  36.003   7.055
 9945POPC   C4B56182  40.239  35.934   7.355
 9946POPC   NC356183  33.773   4.338   5.555
 9946POPC   PO456184  33.792   4.294   5.855
 9946POPC   GL156185  33.793   4.338   6.155
 9946POPC   GL256186  33.643   4.344   6.155
 9946POPC   C1A56187  33.756   4.308   6.455
 9946POPC   D2A56188  33.763   4.291   6.755
 9946POPC   C3A56189  33.769   4.316   7.055
 9946POPC   C4A56190  33.795   4.295   7.355
 9946POPC   C1B56191  33.610   4.423   6.455
 9946POPC   C2B56192  33.561   4.405   6.755
 9946POPC   C3B56193  33.545   4.412   7.055
 9946POPC   C4B56194  33.582   4.454   7.355
 9947POPC   NC356195  27.624  16.685   5.555
 9947POPC   PO456196  27.597  16.689   5.855
 9947POPC   GL156197  27.632  16.718   6.155
 9947POPC   GL256198  27.646  16.781   6.155
 9947POPC   C1A56199  27.562  16.709   6.455
 9947POPC   D2A56200  27.567  16.711   6.755
 9947POPC   C3A56201  27.619  16.706   7.055
 9947POPC   C4A56202  27.605  16.732   7.355
 9947POPC   C1B56203  27.719  16.943   6.455
 9947POPC   C2B56204  27.761  16.890   6.755
 9947POPC   C3B56205  27.736  16.980   7.055
 9947POPC   C4B56206  27.778  16.892   7.355
 9948POPC   NC356207  19.832  22.898   5.555
 9948POPC   PO456208  19.820  22.984   5.855
 9948POPC   GL156209  19.820  22.970   6.155
 9948POPC   GL256210  19.796  23.025   6.155
 9948POPC   C1A56211  19.806  22.918   6.455
 9948POPC   D2A56212  19.867  22.946   6.755
 9948POPC   C3A56213  19.796  22.928   7.055
 9948POPC   C4A56214  19.883  22.909   7.355
 9948POPC   C1B56215  19.844  23.205   6.455
 9948POPC   C2B56216  19.816  23.220   6.755
 9948POPC   C3B56217  19.873  23.198   7.055
 9948POPC   C4B56218  19.857  23.179   7.355
 9949POPC   NC356219  25.255  18.233   5.555
 9949POPC   PO456220  25.258  18.290   5.855
 9949POPC   GL156221  25.236  18.316   6.155
 9949POPC   GL256222  25.403  18.252   6.155
 9949POPC   C1A56223  25.285  18.262   6.455
 9949POPC   D2A56224  25.254  18.312   6.755
 9949POPC   C3A56225  25.219  18.324   7.055
 9949POPC   C4A56226  25.260  18.317   7.355
 9949POPC   C1B56227  25.487  18.239   6.455
 9949POPC   C2B56228  25.544  18.252   6.755
 9949POPC   C3B56229  25.538  18.227   7.055
 9949POPC   C4B56230  25.536  18.282   7.355
 9950POPC   NC356231  37.707  16.731   5.555
 9950POPC   PO456232  37.687  16.755   5.855
 9950POPC   GL156233  37.727  16.743   6.155
 9950POPC   GL256234  37.650  16.870   6.155
 9950POPC   C1A56235  37.680  16.698   6.455
 9950POPC   D2A56236  37.656  16.720   6.755
 9950POPC   C3A56237  37.663  16.779   7.055
 9950POPC   C4A56238  37.715  16.744   7.355
 9950POPC   C1B56239  37.635  16.981   6.455
 9950POPC   C2B56240  37.584  16.956   6.755
 9950POPC   C3B56241  37.594  17.008   7.055
 9950POPC   C4B56242  37.581  16.967   7.355
 9951POPC   NC356243  43.839   8.193   5.555
 9951POPC   PO456244  43.849   8.165   5.855
 9951POPC   GL156245  43.866   8.178   6.155
 9951POPC   GL256246  44.007   8.331   6.155
 9951POPC   C1A56247  43.868   8.212   6.455
 9951POPC   D2A56248  43.902   8.148   6.755
 9951POPC   C3A56249  43.860   8.181   7.055
 9951POPC   C4A56250  43.862   8.227   7.355
 9951POPC   C1B56251  44.024   8.434   6.455
 9951POPC   C2B56252  44.011   8.378   6.755
 9951POPC   C3B56253  44.053   8.352   7.055
 9951POPC   C4B56254  44.037   8.390   7.355
 9952POPC   NC356255  38.420  16.762   5.555
 9952POPC   PO456256  38.496  16.748   5.855
 9952POPC   GL156257  38.505  16.692   6.155
 9952POPC   GL256258  38.454  16.879   6.155
 9952POPC   C1A56259  38.505  16.760   6.455
 9952POPC   D2A56260  38.490  16.726   6.755
 9952POPC   C3A56261  38.448  16.756   7.055
 9952POPC   C4A56262  38.416  16.711   7.355
 9952POPC   C1B56263  38.339  16.937   6.455
 9952POPC   C2B56264  38.406  16.974   6.755
 9952POPC   C3B56265  38.418  16.948   7.055
 9952POPC   C4B56266  38.349  16.950   7.355
 9953POPC   NC356267  36.864  21.374   5.555
 9953POPC   PO456268  36.938  21.373   5.855
 9953POPC   GL156269  36.929  21.423   6.155
 9953POPC   GL256270  36.861  21.542   6.155
 9953POPC   C1A56271  36.893  21.381   6.455
 9953POPC   D2A56272  36.860  21.390   6.755
 9953POPC   C3A56273  36.865  21.387   7.055
 9953POPC   C4A56274  36.948  21.345   7.355
 9953POPC   C1B56275  36.870  21.641   6.455
 9953POPC   C2B56276  36.823  21.662   6.755
 9953POPC   C3B56277  36.833  21.663   7.055
 9953POPC   C4B56278  36.851  21.650   7.355
 9954POPC   NC356279   6.595  18.278   5.555
 9954POPC   PO456280   6.695  18.252   5.855
 9954POPC   GL156281   6.634  18.301   6.155
 9954POPC   GL256282   6.532  18.254   6.155
 9954POPC   C1A56283   6.674  18.288   6.455
 9954POPC   D2A56284   6.652  18.277   6.755
 9954POPC   C3A56285   6.679  18.237   7.055
 9954POPC   C4A56286   6.618  18.319   7.355
 9954POPC   C1B56287   6.371  18.319   6.455
 9954POPC   C2B56288   6.410  18.324   6.755
 9954POPC   C3B56289   6.444  18.277   7.055
 9954POPC   C4B56290   6.375  18.331   7.355
 9955POPC   NC356291  43.847  11.283   5.555
 9955POPC   PO456292  43.873  11.343   5.855
 9955POPC   GL156293  43.905  11.309   6.155
 9955POPC   GL256294  43.988  11.355   6.155
 9955POPC   C1A56295  43.874  11.281   6.455
 9955POPC   D2A56296  43.839  11.278   6.755
 9955POPC   C3A56297  43.915  11.342   7.055
 9955POPC   C4A56298  43.911  11.322   7.355
 9955POPC   C1B56299  44.100  11.422   6.455
 9955POPC   C2B56300  44.086  11.375   6.755
 9955POPC   C3B56301  44.120  11.378   7.055
 9955POPC   C4B56302  44.106  11.403   7.355
 9956POPC   NC356303  13.648  26.044   5.555
 9956POPC   PO456304  13.625  26.063   5.855
 9956POPC   GL156305  13.583  26.073   6.155
 9956POPC   GL256306  13.562  25.974   6.155
 9956POPC   C1A56307  13.620  26.082   6.455
 9956POPC   D2A56308  13.595  26.071   6.755
 9956POPC   C3A56309  13.662  26.040   7.055
 9956POPC   C4A56310  13.658  26.025   7.355
 9956POPC   C1B56311  13.476  25.812   6.455
 9956POPC   C2B56312  13.505  25.870   6.755
 9956POPC   C3B56313  13.447  25.832   7.055
 9956POPC   C4B56314  13.512  25.884   7.355
 9957POPC   NC356315  40.808  34.536   5.555
 9957POPC   PO456316  40.791  34.600   5.855
 9957POPC   GL156317  40.740  34.585   6.155
 9957POPC   GL256318  40.766  34.506   6.155
 9957POPC   C1A56319  40.740  34.614   6.455
 9957POPC   D2A56320  40.830  34.600   6.755
 9957POPC   C3A56321  40.747  34.618   7.055
 9957POPC   C4A56322  40.748  34.585   7.355
 9957POPC   C1B56323  40.642  34.402   6.455
 9957POPC   C2B56324  40.652  34.406   6.755
 9957POPC   C3B56325  40.662  34.387   7.055
 9957POPC   C4B56326  40.636  34.325   7.355
 9958POPC   NC356327  22.972  34.587   5.555
 9958POPC   PO456328  22.948  34.602   5.855
 9958POPC   GL156329  22.898  34.537   6.155
 9958POPC   GL256330  22.888  34.412   6.155
 9958POPC   C1A56331  22.939  34.607   6.455
 9958POPC   D2A56332  22.986  34.553   6.755
 9958POPC   C3A56333  22.968  34.540   7.055
 9958POPC   C4A56334  22.956  34.533   7.355
 9958POPC   C1B56335  22.886  34.327   6.455
 9958POPC   C2B56336  22.881  34.374   6.755
 9958POPC   C3B56337  22.849  34.330   7.055
 9958POPC   C4B56338  22.834  34.328   7.355
 9959POPC   NC356339  26.016   3.576   5.555
 9959POPC   PO456340  26.016   3.569   5.855
 9959POPC   GL156341  26.038   3.499   6.155
 9959POPC   GL256342  26.197   3.475   6.155
 9959POPC   C1A56343  26.018   3.504   6.455
 9959POPC   D2A56344  26.011   3.571   6.755
 9959POPC   C3A56345  26.086   3.498   7.055
 9959POPC   C4A56346  26.052   3.508   7.355
 9959POPC   C1B56347  26.279   3.404   6.455
 9959POPC   C2B56348  26.239   3.374   6.755
 9959POPC   C3B56349  26.290   3.410   7.055
 9959POPC   C4B56350  26.246   3.438   7.355
 9960POPC   NC356351  41.579  30.726   5.555
 9960POPC   PO456352  41.584  30.701   5.855
 9960POPC   GL156353  41.567  30.670   6.155
 9960POPC   GL256354  41.646  30.726   6.155
 9960POPC   C1A56355  41.544  30.664   6.455
 9960POPC   D2A56356  41.518  30.672   6.755
 9960POPC   C3A56357  41.567  30.671   7.055
 9960POPC   C4A56358  41.554  30.691   7.355
 9960POPC   C1B56359  41.784  30.694   6.455
 9960POPC   C2B56360  41.800  30.714   6.755
 9960POPC   C3B56361  41.774  30.656   7.055
 9960POPC   C4B56362  41.761  30.694   7.355
 9961POPC   NC356363   1.193  26.798   5.555
 9961POPC   PO456364   1.190  26.832   5.855
 9961POPC   GL156365   1.234  26.857   6.155
 9961POPC   GL256366   1.273  26.700   6.155
 9961POPC   C1A56367   1.255  26.795   6.455
 9961POPC   D2A56368   1.260  26.851   6.755
 9961POPC   C3A56369   1.222  26.846   7.055
 9961POPC   C4A56370   1.194  26.812   7.355
 9961POPC   C1B56371   1.236  26.556   6.455
 9961POPC   C2B56372   1.253  26.528   6.755
 9961POPC   C3B56373   1.222  26.536   7.055
 9961POPC   C4B56374   1.304  26.558   7.355
 9962POPC   NC356375  43.154   4.296   5.555
 9962POPC   PO456376  43.142   4.335   5.855
 9962POPC   GL156377  43.108   4.313   6.155
 9962POPC   GL256378  43.161   4.362   6.155
 9962POPC   C1A56379  43.090   4.336   6.455
 9962POPC   D2A56380  43.106   4.308   6.755
 9962POPC   C3A56381  43.145   4.328   7.055
 9962POPC   C4A56382  43.090   4.355   7.355
 9962POPC   C1B56383  43.266   4.472   6.455
 9962POPC   C2B56384  43.255   4.510   6.755
 9962POPC   C3B56385  43.291   4.517   7.055
 9962POPC   C4B56386  43.282   4.443   7.355
 9963POPC   NC356387  33.814   5.104   5.555
 9963POPC   PO456388  33.769   5.133   5.855
 9963POPC   GL156389  33.767   5.057   6.155
 9963POPC   GL256390  33.753   5.165   6.155
 9963POPC   C1A56391  33.822   5.091   6.455
 9963POPC   D2A56392  33.750   5.092   6.755
 9963POPC   C3A56393  33.783   5.107   7.055
 9963POPC   C4A56394  33.840   5.135   7.355
 9963POPC   C1B56395  33.671   5.368   6.455
 9963POPC   C2B56396  33.728   5.330   6.755
 9963POPC   C3B56397  33.726   5.320   7.055
 9963POPC   C4B56398  33.683   5.279   7.355
 9964POPC   NC356399  20.659  36.108   5.555
 9964POPC   PO456400  20.616  36.106   5.855
 9964POPC   GL156401  20.623  36.156   6.155
 9964POPC   GL256402  20.646  36.052   6.155
 9964POPC   C1A56403  20.580  36.153   6.455
 9964POPC   D2A56404  20.614  36.087   6.755
 9964POPC   C3A56405  20.617  36.097   7.055
 9964POPC   C4A56406  20.648  36.142   7.355
 9964POPC   C1B56407  20.697  35.894   6.455
 9964POPC   C2B56408  20.742  35.896   6.755
 9964POPC   C3B56409  20.708  35.886   7.055
 9964POPC   C4B56410  20.695  35.919   7.355
 9965POPC   NC356411   3.515   9.787   5.555
 9965POPC   PO456412   3.499   9.780   5.855
 9965POPC   GL156413   3.549   9.760   6.155
 9965POPC   GL256414   3.636   9.836   6.155
 9965POPC   C1A56415   3.555   9.761   6.455
 9965POPC   D2A56416   3.509   9.721   6.755
 9965POPC   C3A56417   3.511   9.712   7.055
 9965POPC   C4A56418   3.517   9.714   7.355
 9965POPC   C1B56419   3.776   9.787   6.455
 9965POPC   C2B56420   3.763   9.882   6.755
 9965POPC   C3B56421   3.785   9.880   7.055
 9965POPC   C4B56422   3.729   9.809   7.355
 9966POPC   NC356423  42.378  22.186   5.555
 9966POPC   PO456424  42.336  22.201   5.855
 9966POPC   GL156425  42.339  22.159   6.155
 9966POPC   GL256426  42.461  22.137   6.155
 9966POPC   C1A56427  42.302  22.169   6.455
 9966POPC   D2A56428  42.311  22.195   6.755
 9966POPC   C3A56429  42.345  22.131   7.055
 9966POPC   C4A56430  42.286  22.168   7.355
 9966POPC   C1B56431  42.540  22.067   6.455
 9966POPC   C2B56432  42.586  22.056   6.755
 9966POPC   C3B56433  42.611  22.037   7.055
 9966POPC   C4B56434  42.573  22.050   7.355
 9967POPC   NC356435   7.377  17.539   5.555
 9967POPC   PO456436   7.431  17.498   5.855
 9967POPC   GL156437   7.392  17.536   6.155
 9967POPC   GL256438   7.414  17.417   6.155
 9967POPC   C1A56439   7.411  17.537   6.455
 9967POPC   D2A56440   7.440  17.512   6.755
 9967POPC   C3A56441   7.401  17.553   7.055
 9967POPC   C4A56442   7.469  17.532   7.355
 9967POPC   C1B56443   7.346  17.247   6.455
 9967POPC   C2B56444   7.305  17.286   6.755
 9967POPC   C3B56445   7.337  17.282   7.055
 9967POPC   C4B56446   7.290  17.316   7.355
 9968POPC   NC356447  20.619  30.647   5.555
 9968POPC   PO456448  20.577  30.682   5.855
 9968POPC   GL156449  20.613  30.706   6.155
 9968POPC   GL256450  20.734  30.706   6.155
 9968POPC   C1A56451  20.648  30.664   6.455
 9968POPC   D2A56452  20.652  30.671   6.755
 9968POPC   C3A56453  20.574  30.724   7.055
 9968POPC   C4A56454  20.564  30.720   7.355
 9968POPC   C1B56455  20.826  30.720   6.455
 9968POPC   C2B56456  20.839  30.725   6.755
 9968POPC   C3B56457  20.879  30.786   7.055
 9968POPC   C4B56458  20.807  30.740   7.355
 9969POPC   NC356459  13.677   7.416   5.555
 9969POPC   PO456460  13.635   7.469   5.855
 9969POPC   GL156461  13.632   7.391   6.155
 9969POPC   GL256462  13.618   7.303   6.155
 9969POPC   C1A56463  13.597   7.421   6.455
 9969POPC   D2A56464  13.585   7.462   6.755
 9969POPC   C3A56465  13.626   7.431   7.055
 9969POPC   C4A56466  13.601   7.396   7.355
 9969POPC   C1B56467  13.628   7.145   6.455
 9969POPC   C2B56468  13.595   7.190   6.755
 9969POPC   C3B56469  13.552   7.140   7.055
 9969POPC   C4B56470  13.592   7.154   7.355
 9970POPC   NC356471  20.570  33.069   5.555
 9970POPC   PO456472  20.565  33.031   5.855
 9970POPC   GL156473  20.649  33.017   6.155
 9970POPC   GL256474  20.470  33.061   6.155
 9970POPC   C1A56475  20.590  33.051   6.455
 9970POPC   D2A56476  20.610  32.983   6.755
 9970POPC   C3A56477  20.607  33.059   7.055
 9970POPC   C4A56478  20.649  33.009   7.355
 9970POPC   C1B56479  20.352  32.983   6.455
 9970POPC   C2B56480  20.373  33.017   6.755
 9970POPC   C3B56481  20.410  33.012   7.055
 9970POPC   C4B56482  20.351  33.028   7.355
 9971POPC   NC356483   1.190  19.797   5.555
 9971POPC   PO456484   1.262  19.866   5.855
 9971POPC   GL156485   1.203  19.794   6.155
 9971POPC   GL256486   1.163  19.923   6.155
 9971POPC   C1A56487   1.196  19.800   6.455
 9971POPC   D2A56488   1.264  19.869   6.755
 9971POPC   C3A56489   1.229  19.835   7.055
 9971POPC   C4A56490   1.184  19.820   7.355
 9971POPC   C1B56491   1.073  19.988   6.455
 9971POPC   C2B56492   1.068  19.989   6.755
 9971POPC   C3B56493   1.098  20.021   7.055
 9971POPC   C4B56494   1.015  20.010   7.355
 9972POPC   NC356495  15.197  16.715   5.555
 9972POPC   PO456496  15.207  16.758   5.855
 9972POPC   GL156497  15.156  16.741   6.155
 9972POPC   GL256498  15.188  16.579   6.155
 9972POPC   C1A56499  15.167  16.688   6.455
 9972POPC   D2A56500  15.157  16.760   6.755
 9972POPC   C3A56501  15.140  16.718   7.055
 9972POPC   C4A56502  15.200  16.768   7.355
 9972POPC   C1B56503  15.072  16.510   6.455
 9972POPC   C2B56504  15.056  16.489   6.755
 9972POPC   C3B56505  15.060  16.533   7.055
 9972POPC   C4B56506  15.127  16.516   7.355
 9973POPC   NC356507  23.746   0.486   5.555
 9973POPC   PO456508  23.733   0.456   5.855
 9973POPC   GL156509  23.735   0.483   6.155
 9973POPC   GL256510  23.867   0.470   6.155
 9973POPC   C1A56511  23.718   0.405   6.455
 9973POPC   D2A56512  23.761   0.451   6.755
 9973POPC   C3A56513  23.684   0.390   7.055
 9973POPC   C4A56514  23.721   0.455   7.355
 9973POPC   C1B56515  23.927   0.518   6.455
 9973POPC   C2B56516  23.942   0.464   6.755
 9973POPC   C3B56517  23.990   0.520   7.055
 9973POPC   C4B56518  23.922   0.500   7.355
 9974POPC   NC356519  29.882  29.924   5.555
 9974POPC   PO456520  29.902  29.950   5.855
 9974POPC   GL156521  29.933  29.936   6.155
 9974POPC   GL256522  29.763  29.861   6.155
 9974POPC   C1A56523  29.922  29.926   6.455
 9974POPC   D2A56524  29.914  29.909   6.755
 9974POPC   C3A56525  29.970  29.945   7.055
 9974POPC   C4A56526  29.962  29.907   7.355
 9974POPC   C1B56527  29.682  29.829   6.455
 9974POPC   C2B56528  29.686  29.819   6.755
 9974POPC   C3B56529  29.722  29.821   7.055
 9974POPC   C4B56530  29.633  29.873   7.355
 9975POPC   NC356531   9.709   3.536   5.555
 9975POPC   PO456532   9.766   3.555   5.855
 9975POPC   GL156533   9.720   3.554   6.155
 9975POPC   GL256534   9.802   3.677   6.155
 9975POPC   C1A56535   9.766   3.513   6.455
 9975POPC   D2A56536   9.704   3.531   6.755
 9975POPC   C3A56537   9.712   3.508   7.055
 9975POPC   C4A56538   9.797   3.574   7.355
 9975POPC   C1B56539   9.950   3.752   6.455
 9975POPC   C2B56540   9.925   3.726   6.755
 9975POPC   C3B56541   9.897   3.688   7.055
 9975POPC   C4B56542   9.887   3.726   7.355
 9976POPC   NC356543  22.985  32.248   5.555
 9976POPC   PO456544  22.967  32.253   5.855
 9976POPC   GL156545  22.914  32.293   6.155
 9976POPC   GL256546  22.991  32.325   6.155
 9976POPC   C1A56547  22.892  32.257   6.455
 9976POPC   D2A56548  22.917  32.200   6.755
 9976POPC   C3A56549  22.919  32.249   7.055
 9976POPC   C4A56550  22.944  32.288   7.355
 9976POPC   C1B56551  22.987  32.509   6.455
 9976POPC   C2B56552  23.043  32.531   6.755
 9976POPC   C3B56553  22.992  32.540   7.055
 9976POPC   C4B56554  23.002  32.539   7.355
 9977POPC   NC356555  42.316   5.865   5.555
 9977POPC   PO456556  42.371   5.864   5.855
 9977POPC   GL156557  42.288   5.912   6.155
 9977POPC   GL256558  42.273   5.791   6.155
 9977POPC   C1A56559  42.383   5.889   6.455
 9977POPC   D2A56560  42.303   5.893   6.755
 9977POPC   C3A56561  42.354   5.819   7.055
 9977POPC   C4A56562  42.346   5.839   7.355
 9977POPC   C1B56563  42.198   5.705   6.455
 9977POPC   C2B56564  42.168   5.675   6.755
 9977POPC   C3B56565  42.142   5.707   7.055
 9977POPC   C4B56566  42.168   5.658   7.355
 9978POPC   NC356567  42.324  15.934   5.555
 9978POPC   PO456568  42.329  15.906   5.855
 9978POPC   GL156569  42.346  15.930   6.155
 9978POPC   GL256570  42.248  15.867   6.155
 9978POPC   C1A56571  42.319  15.966   6.455
 9978POPC   D2A56572  42.380  15.966   6.755
 9978POPC   C3A56573  42.308  15.962   7.055
 9978POPC   C4A56574  42.340  15.987   7.355
 9978POPC   C1B56575  42.109  15.836   6.455
 9978POPC   C2B56576  42.143  15.841   6.755
 9978POPC   C3B56577  42.096  15.847   7.055
 9978POPC   C4B56578  42.122  15.818   7.355
 9979POPC   NC356579  10.549  29.146   5.555
 9979POPC   PO456580  10.547  29.193   5.855
 9979POPC   GL156581  10.553  29.151   6.155
 9979POPC   GL256582  10.451  29.070   6.155
 9979POPC   C1A56583  10.521  29.180   6.455
 9979POPC   D2A56584  10.538  29.190   6.755
 9979POPC   C3A56585  10.535  29.168   7.055
 9979POPC   C4A56586  10.527  29.179   7.355
 9979POPC   C1B56587  10.415  28.940   6.455
 9979POPC   C2B56588  10.411  28.882   6.755
 9979POPC   C3B56589  10.479  28.946   7.055
 9979POPC   C4B56590  10.418  28.914   7.355
 9980POPC   NC356591  35.352  26.780   5.555
 9980POPC   PO456592  35.371  26.778   5.855
 9980POPC   GL156593  35.352  26.854   6.155
 9980POPC   GL256594  35.474  26.918   6.155
 9980POPC   C1A56595  35.385  26.821   6.455
 9980POPC   D2A56596  35.383  26.780   6.755
 9980POPC   C3A56597  35.397  26.815   7.055
 9980POPC   C4A56598  35.321  26.826   7.355
 9980POPC   C1B56599  35.505  26.979   6.455
 9980POPC   C2B56600  35.463  26.970   6.755
 9980POPC   C3B56601  35.542  26.973   7.055
 9980POPC   C4B56602  35.536  27.006   7.355
 9981POPC   NC356603  26.805  25.286   5.555
 9981POPC   PO456604  26.780  25.243   5.855
 9981POPC   GL156605  26.852  25.219   6.155
 9981POPC   GL256606  26.697  25.306   6.155
 9981POPC   C1A56607  26.815  25.294   6.455
 9981POPC   D2A56608  26.849  25.241   6.755
 9981POPC   C3A56609  26.790  25.242   7.055
 9981POPC   C4A56610  26.779  25.306   7.355
 9981POPC   C1B56611  26.648  25.458   6.455
 9981POPC   C2B56612  26.640  25.370   6.755
 9981POPC   C3B56613  26.645  25.400   7.055
 9981POPC   C4B56614  26.629  25.443   7.355
 9982POPC   NC356615  33.051  27.580   5.555
 9982POPC   PO456616  33.063  27.573   5.855
 9982POPC   GL156617  33.018  27.607   6.155
 9982POPC   GL256618  32.949  27.463   6.155
 9982POPC   C1A56619  32.988  27.553   6.455
 9982POPC   D2A56620  33.042  27.592   6.755
 9982POPC   C3A56621  33.067  27.581   7.055
 9982POPC   C4A56622  33.039  27.607   7.355
 9982POPC   C1B56623  32.966  27.400   6.455
 9982POPC   C2B56624  32.936  27.397   6.755
 9982POPC   C3B56625  32.878  27.352   7.055
 9982POPC   C4B56626  32.879  27.391   7.355
 9983POPC   NC356627  10.496  42.371   5.555
 9983POPC   PO456628  10.559  42.314   5.855
 9983POPC   GL156629  10.518  42.288   6.155
 9983POPC   GL256630  10.397  42.445   6.155
 9983POPC   C1A56631  10.478  42.383   6.455
 9983POPC   D2A56632  10.542  42.285   6.755
 9983POPC   C3A56633  10.515  42.332   7.055
 9983POPC   C4A56634  10.478  42.334   7.355
 9983POPC   C1B56635  10.287  42.417   6.455
 9983POPC   C2B56636  10.348  42.474   6.755
 9983POPC   C3B56637  10.268  42.477   7.055
 9983POPC   C4B56638  10.290  42.422   7.355
 9984POPC   NC356639  39.272  24.442   5.555
 9984POPC   PO456640  39.206  24.473   5.855
 9984POPC   GL156641  39.182  24.449   6.155
 9984POPC   GL256642  39.121  24.628   6.155
 9984POPC   C1A56643  39.200  24.476   6.455
 9984POPC   D2A56644  39.211  24.524   6.755
 9984POPC   C3A56645  39.214  24.442   7.055
 9984POPC   C4A56646  39.189  24.446   7.355
 9984POPC   C1B56647  39.092  24.682   6.455
 9984POPC   C2B56648  39.140  24.663   6.755
 9984POPC   C3B56649  39.108  24.716   7.055
 9984POPC   C4B56650  39.126  24.697   7.355
 9985POPC   NC356651   3.498  17.531   5.555
 9985POPC   PO456652   3.568  17.539   5.855
 9985POPC   GL156653   3.544  17.534   6.155
 9985POPC   GL256654   3.440  17.565   6.155
 9985POPC   C1A56655   3.507  17.514   6.455
 9985POPC   D2A56656   3.531  17.529   6.755
 9985POPC   C3A56657   3.541  17.487   7.055
 9985POPC   C4A56658   3.549  17.473   7.355
 9985POPC   C1B56659   3.291  17.542   6.455
 9985POPC   C2B56660   3.252  17.545   6.755
 9985POPC   C3B56661   3.248  17.566   7.055
 9985POPC   C4B56662   3.303  17.524   7.355
 9986POPC   NC356663  14.424  26.826   5.555
 9986POPC   PO456664  14.441  26.847   5.855
 9986POPC   GL156665  14.364  26.852   6.155
 9986POPC   GL256666  14.421  26.656   6.155
 9986POPC   C1A56667  14.411  26.862   6.455
 9986POPC   D2A56668  14.379  26.791   6.755
 9986POPC   C3A56669  14.419  26.864   7.055
 9986POPC   C4A56670  14.440  26.799   7.355
 9986POPC   C1B56671  14.478  26.603   6.455
 9986POPC   C2B56672  14.468  26.593   6.755
 9986POPC   C3B56673  14.451  26.582   7.055
 9986POPC   C4B56674  14.468  26.536   7.355
 9987POPC   NC356675   5.068   9.017   5.555
 9987POPC   PO456676   5.108   8.980   5.855
 9987POPC   GL156677   5.090   8.983   6.155
 9987POPC   GL256678   5.233   9.015   6.155
 9987POPC   C1A56679   5.141   8.976   6.455
 9987POPC   D2A56680   5.141   9.018   6.755
 9987POPC   C3A56681   5.075   8.962   7.055
 9987POPC   C4A56682   5.093   8.985   7.355
 9987POPC   C1B56683   5.317   8.920   6.455
 9987POPC   C2B56684   5.320   9.006   6.755
 9987POPC   C3B56685   5.363   8.979   7.055
 9987POPC   C4B56686   5.340   8.952   7.355
 9988POPC   NC356687  23.758  15.155   5.555
 9988POPC   PO456688  23.721  15.158   5.855
 9988POPC   GL156689  23.739  15.212   6.155
 9988POPC   GL256690  23.779  15.303   6.155
 9988POPC   C1A56691  23.723  15.198   6.455
 9988POPC   D2A56692  23.689  15.143   6.755
 9988POPC   C3A56693  23.744  15.169   7.055
 9988POPC   C4A56694  23.751  15.147   7.355
 9988POPC   C1B56695  23.940  15.337   6.455
 9988POPC   C2B56696  23.926  15.328   6.755
 9988POPC   C3B56697  23.906  15.336   7.055
 9988POPC   C4B56698  23.932  15.364   7.355
 9989POPC   NC356699  26.851   1.238   5.555
 9989POPC   PO456700  26.822   1.190   5.855
 9989POPC   GL156701  26.770   1.243   6.155
 9989POPC   GL256702  26.966   1.203   6.155
 9989POPC   C1A56703  26.800   1.242   6.455
 9989POPC   D2A56704  26.864   1.182   6.755
 9989POPC   C3A56705  26.805   1.193   7.055
 9989POPC   C4A56706  26.828   1.225   7.355
 9989POPC   C1B56707  27.034   1.282   6.455
 9989POPC   C2B56708  27.040   1.221   6.755
 9989POPC   C3B56709  27.093   1.244   7.055
 9989POPC   C4B56710  27.108   1.266   7.355
 9990POPC   NC356711  39.281  41.600   5.555
 9990POPC   PO456712  39.236  41.561   5.855
 9990POPC   GL156713  39.259  41.585   6.155
 9990POPC   GL256714  39.338  41.477   6.155
 9990POPC   C1A56715  39.231  41.544   6.455
 9990POPC   D2A56716  39.226  41.588   6.755
 9990POPC   C3A56717  39.275  41.569   7.055
 9990POPC   C4A56718  39.213  41.598   7.355
 9990POPC   C1B56719  39.412  41.408   6.455
 9990POPC   C2B56720  39.426  41.439   6.755
 9990POPC   C3B56721  39.381  41.372   7.055
 9990POPC   C4B56722  39.387  41.434   7.355
 9991POPC   NC356723  42.304  12.038   5.555
 9991POPC   PO456724  42.306  12.107   5.855
 9991POPC   GL156725  42.335  12.037   6.155
 9991POPC   GL256726  42.462  12.090   6.155
 9991POPC   C1A56727  42.329  12.031   6.455
 9991POPC   D2A56728  42.341  12.091   6.755
 9991POPC   C3A56729  42.346  12.064   7.055
 9991POPC   C4A56730  42.323  12.066   7.355
 9991POPC   C1B56731  42.586  12.042   6.455
 9991POPC   C2B56732  42.586  12.009   6.755
 9991POPC   C3B56733  42.553  12.031   7.055
 9991POPC   C4B56734  42.538  12.065   7.355
 9992POPC   NC356735  29.176  43.924   5.555
 9992POPC   PO456736  29.130  43.890   5.855
 9992POPC   GL156737  29.102  43.922   6.155
 9992POPC   GL256738  29.055  43.945   6.155
 9992POPC   C1A56739  29.186  43.862   6.455
 9992POPC   D2A56740  29.189  43.855   6.755
 9992POPC   C3A56741  29.164  43.853   7.055
 9992POPC   C4A56742  29.122  43.839   7.355
 9992POPC   C1B56743  28.894  43.979   6.455
 9992POPC   C2B56744  28.887  43.977   6.755
 9992POPC   C3B56745  28.936  44.000   7.055
 9992POPC   C4B56746  28.935  43.945   7.355
 9993POPC   NC356747  32.216  36.103   5.555
 9993POPC   PO456748  32.217  36.091   5.855
 9993POPC   GL156749  32.219  36.154   6.155
 9993POPC   GL256750  32.234  36.040   6.155
 9993POPC   C1A56751  32.250  36.081   6.455
 9993POPC   D2A56752  32.285  36.123   6.755
 9993POPC   C3A56753  32.292  36.081   7.055
 9993POPC   C4A56754  32.217  36.088   7.355
 9993POPC   C1B56755  32.214  35.879   6.455
 9993POPC   C2B56756  32.156  35.878   6.755
 9993POPC   C3B56757  32.157  35.918   7.055
 9993POPC   C4B56758  32.196  35.909   7.355
 9994POPC   NC356759  10.506  43.909   5.555
 9994POPC   PO456760  10.537  43.862   5.855
 9994POPC   GL156761  10.501  43.864   6.155
 9994POPC   GL256762  10.644  43.996   6.155
 9994POPC   C1A56763  10.559  43.867   6.455
 9994POPC   D2A56764  10.515  43.841   6.755
 9994POPC   C3A56765  10.557  43.917   7.055
 9994POPC   C4A56766  10.557  43.868   7.355
 9994POPC   C1B56767  10.683  44.087   6.455
 9994POPC   C2B56768  10.709  44.074   6.755
 9994POPC   C3B56769  10.679  44.093   7.055
 9994POPC   C4B56770  10.708  44.020   7.355
 9995POPC   NC356771   6.669  17.500   5.555
 9995POPC   PO456772   6.643  17.519   5.855
 9995POPC   GL156773   6.635  17.552   6.155
 9995POPC   GL256774   6.569  17.580   6.155
 9995POPC   C1A56775   6.646  17.517   6.455
 9995POPC   D2A56776   6.663  17.507   6.755
 9995POPC   C3A56777   6.620  17.497   7.055
 9995POPC   C4A56778   6.609  17.535   7.355
 9995POPC   C1B56779   6.441  17.613   6.455
 9995POPC   C2B56780   6.384  17.603   6.755
 9995POPC   C3B56781   6.454  17.580   7.055
 9995POPC   C4B56782   6.393  17.604   7.355
 9996POPC   NC356783  20.641   5.875   5.555
 9996POPC   PO456784  20.618   5.864   5.855
 9996POPC   GL156785  20.590   5.866   6.155
 9996POPC   GL256786  20.597   5.759   6.155
 9996POPC   C1A56787  20.607   5.899   6.455
 9996POPC   D2A56788  20.567   5.824   6.755
 9996POPC   C3A56789  20.593   5.880   7.055
 9996POPC   C4A56790  20.606   5.867   7.355
 9996POPC   C1B56791  20.632   5.664   6.455
 9996POPC   C2B56792  20.637   5.591   6.755
 9996POPC   C3B56793  20.639   5.592   7.055
 9996POPC   C4B56794  20.683   5.667   7.355
 9997POPC   NC356795  37.673  39.280   5.555
 9997POPC   PO456796  37.671  39.193   5.855
 9997POPC   GL156797  37.659  39.271   6.155
 9997POPC   GL256798  37.515  39.148   6.155
 9997POPC   C1A56799  37.644  39.256   6.455
 9997POPC   D2A56800  37.720  39.239   6.755
 9997POPC   C3A56801  37.667  39.266   7.055
 9997POPC   C4A56802  37.687  39.193   7.355
 9997POPC   C1B56803  37.480  39.116   6.455
 9997POPC   C2B56804  37.478  39.135   6.755
 9997POPC   C3B56805  37.469  39.125   7.055
 9997POPC   C4B56806  37.400  39.151   7.355
 9998POPC   NC356807  40.044   4.282   5.555
 9998POPC   PO456808  39.966   4.284   5.855
 9998POPC   GL156809  39.967   4.358   6.155
 9998POPC   GL256810  40.161   4.379   6.155
 9998POPC   C1A56811  39.989   4.292   6.455
 9998POPC   D2A56812  40.026   4.271   6.755
 9998POPC   C3A56813  39.959   4.270   7.055
 9998POPC   C4A56814  40.008   4.321   7.355
 9998POPC   C1B56815  40.254   4.481   6.455
 9998POPC   C2B56816  40.202   4.459   6.755
 9998POPC   C3B56817  40.190   4.435   7.055
 9998POPC   C4B56818  40.176   4.427   7.355
 9999POPC   NC356819  26.863  35.368   5.555
 9999POPC   PO456820  26.793  35.384   5.855
 9999POPC   GL156821  26.803  35.319   6.155
 9999POPC   GL256822  26.678  35.427   6.155
 9999POPC   C1A56823  26.778  35.379   6.455
 9999POPC   D2A56824  26.853  35.393   6.755
 9999POPC   C3A56825  26.865  35.370   7.055
 9999POPC   C4A56826  26.821  35.386   7.355
 9999POPC   C1B56827  26.553  35.378   6.455
 9999POPC   C2B56828  26.578  35.439   6.755
 9999POPC   C3B56829  26.550  35.449   7.055
 9999POPC   C4B56830  26.540  35.421   7.355
10000POPC   NC356831   2.733  31.493   5.555
10000POPC   PO456832   2.764  31.480   5.855
10000POPC   GL156833   2.773  31.425   6.155
10000POPC   GL256834   2.705  31.431   6.155
10000POPC   C1A56835   2.747  31.454   6.455
10000POPC   D2A56836   2.755  31.491   6.755
10000POPC   C3A56837   2.743  31.488   7.055
10000POPC   C4A56838   2.726  31.464   7.355
10000POPC   C1B56839   2.563  31.308   6.455
10000POPC   C2B56840   2.591  31.327   6.755
10000POPC   C3B56841   2.580  31.281   7.055
10000POPC   C4B56842   2.614  31.289   7.355
10001POPC   NC356843  14.356  22.987   5.555
10001POPC   PO456844  14.430  22.922   5.855
10001POPC   GL156845  14.424  22.906   6.155
10001POPC   GL256846  14.292  23.008   6.155
10001POPC   C1A56847  14.436  22.932   6.455
10001POPC   D2A56848  14.371  22.983   6.755
10001POPC   C3A56849  14.383  22.941   7.055
10001POPC   C4A56850  14.452  22.959   7.355
10001POPC   C1B56851  14.218  23.046   6.455
10001POPC   C2B56852  14.175  23.014   6.755
10001POPC   C3B56853  14.135  23.089   7.055
10001POPC   C4B56854  14.166  23.069   7.355
10002POPC   NC356855  38.481  36.147   5.555
10002POPC   PO456856  38.427  36.106   5.855
10002POPC   GL156857  38.465  36.151   6.155
10002POPC   GL256858  38.595  36.036   6.155
10002POPC   C1A56859  38.432  36.100   6.455
10002POPC   D2A56860  38.414  36.169   6.755
10002POPC   C3A56861  38.497  36.123   7.055
10002POPC   C4A56862  38.433  36.154   7.355
10002POPC   C1B56863  38.717  35.994   6.455
10002POPC   C2B56864  38.643  35.969   6.755
10002POPC   C3B56865  38.652  35.980   7.055
10002POPC   C4B56866  38.692  35.973   7.355
10003POPC   NC356867  26.777   0.392   5.555
10003POPC   PO456868  26.819   0.408   5.855
10003POPC   GL156869  26.857   0.482   6.155
10003POPC   GL256870  26.778   0.332   6.155
10003POPC   C1A56871  26.797   0.487   6.455
10003POPC   D2A56872  26.775   0.483   6.755
10003POPC   C3A56873  26.790   0.392   7.055
10003POPC   C4A56874  26.809   0.479   7.355
10003POPC   C1B56875  26.728   0.229   6.455
10003POPC   C2B56876  26.672   0.174   6.755
10003POPC   C3B56877  26.674   0.217   7.055
10003POPC   C4B56878  26.656   0.224   7.355
10004POPC   NC356879  43.892  25.222   5.555
10004POPC   PO456880  43.893  25.307   5.855
10004POPC   GL156881  43.926  25.236   6.155
10004POPC   GL256882  43.844  25.406   6.155
10004POPC   C1A56883  43.911  25.271   6.455
10004POPC   D2A56884  43.904  25.280   6.755
10004POPC   C3A56885  43.873  25.261   7.055
10004POPC   C4A56886  43.872  25.296   7.355
10004POPC   C1B56887  43.878  25.520   6.455
10004POPC   C2B56888  43.815  25.494   6.755
10004POPC   C3B56889  43.885  25.462   7.055
10004POPC   C4B56890  43.882  25.520   7.355
10005POPC   NC356891  27.621   6.637   5.555
10005POPC   PO456892  27.584   6.659   5.855
10005POPC   GL156893  27.585   6.651   6.155
10005POPC   GL256894  27.506   6.701   6.155
10005POPC   C1A56895  27.553   6.614   6.455
10005POPC   D2A56896  27.591   6.621   6.755
10005POPC   C3A56897  27.580   6.606   7.055
10005POPC   C4A56898  27.568   6.683   7.355
10005POPC   C1B56899  27.402   6.851   6.455
10005POPC   C2B56900  27.418   6.829   6.755
10005POPC   C3B56901  27.453   6.795   7.055
10005POPC   C4B56902  27.462   6.806   7.355
10006POPC   NC356903  33.795   1.253   5.555
10006POPC   PO456904  33.827   1.222   5.855
10006POPC   GL156905  33.831   1.233   6.155
10006POPC   GL256906  33.805   1.061   6.155
10006POPC   C1A56907  33.753   1.223   6.455
10006POPC   D2A56908  33.785   1.171   6.755
10006POPC   C3A56909  33.754   1.242   7.055
10006POPC   C4A56910  33.766   1.232   7.355
10006POPC   C1B56911  33.815   0.966   6.455
10006POPC   C2B56912  33.855   0.979   6.755
10006POPC   C3B56913  33.826   0.982   7.055
10006POPC   C4B56914  33.888   1.004   7.355
10007POPC   NC356915  37.675  10.511   5.555
10007POPC   PO456916  37.687  10.532   5.855
10007POPC   GL156917  37.691  10.497   6.155
10007POPC   GL256918  37.681  10.453   6.155
10007POPC   C1A56919  37.641  10.500   6.455
10007POPC   D2A56920  37.683  10.534   6.755
10007POPC   C3A56921  37.659  10.486   7.055
10007POPC   C4A56922  37.663  10.518   7.355
10007POPC   C1B56923  37.629  10.323   6.455
10007POPC   C2B56924  37.602  10.293   6.755
10007POPC   C3B56925  37.627  10.246   7.055
10007POPC   C4B56926  37.609  10.319   7.355
10008POPC   NC356927  12.898  18.263   5.555
10008POPC   PO456928  12.831  18.272   5.855
10008POPC   GL156929  12.831  18.299   6.155
10008POPC   GL256930  12.912  18.192   6.155
10008POPC   C1A56931  12.819  18.268   6.455
10008POPC   D2A56932  12.828  18.286   6.755
10008POPC   C3A56933  12.878  18.312   7.055
10008POPC   C4A56934  12.839  18.296   7.355
10008POPC   C1B56935  12.867  18.056   6.455
10008POPC   C2B56936  12.930  17.999   6.755
10008POPC   C3B56937  12.901  18.061   7.055
10008POPC   C4B56938  12.911  18.026   7.355
10009POPC   NC356939  29.881   1.983   5.555
10009POPC   PO456940  29.936   1.982   5.855
10009POPC   GL156941  29.909   1.985   6.155
10009POPC   GL256942  29.835   2.113   6.155
10009POPC   C1A56943  29.914   2.002   6.455
10009POPC   D2A56944  29.935   1.970   6.755
10009POPC   C3A56945  29.965   2.039   7.055
10009POPC   C4A56946  29.947   2.016   7.355
10009POPC   C1B56947  29.799   2.262   6.455
10009POPC   C2B56948  29.785   2.247   6.755
10009POPC   C3B56949  29.849   2.245   7.055
10009POPC   C4B56950  29.800   2.259   7.355
10010POPC   NC356951  29.181  27.605   5.555
10010POPC   PO456952  29.166  27.640   5.855
10010POPC   GL156953  29.170  27.546   6.155
10010POPC   GL256954  29.080  27.490   6.155
10010POPC   C1A56955  29.169  27.578   6.455
10010POPC   D2A56956  29.183  27.638   6.755
10010POPC   C3A56957  29.183  27.546   7.055
10010POPC   C4A56958  29.172  27.592   7.355
10010POPC   C1B56959  29.048  27.381   6.455
10010POPC   C2B56960  29.037  27.331   6.755
10010POPC   C3B56961  28.987  27.415   7.055
10010POPC   C4B56962  28.997  27.393   7.355
10011POPC   NC356963  41.574  43.074   5.555
10011POPC   PO456964  41.552  43.145   5.855
10011POPC   GL156965  41.567  43.096   6.155
10011POPC   GL256966  41.429  43.013   6.155
10011POPC   C1A56967  41.547  43.091   6.455
10011POPC   D2A56968  41.598  43.107   6.755
10011POPC   C3A56969  41.534  43.134   7.055
10011POPC   C4A56970  41.590  43.076   7.355
10011POPC   C1B56971  41.349  42.923   6.455
10011POPC   C2B56972  41.381  42.908   6.755
10011POPC   C3B56973  41.371  42.876   7.055
10011POPC   C4B56974  41.418  42.928   7.355
10012POPC   NC356975   8.950  36.159   5.555
10012POPC   PO456976   8.978  36.153   5.855
10012POPC   GL156977   8.967  36.108   6.155
10012POPC   GL256978   9.077  36.103   6.155
10012POPC   C1A56979   8.936  36.133   6.455
10012POPC   D2A56980   8.977  36.082   6.755
10012POPC   C3A56981   8.952  36.113   7.055
10012POPC   C4A56982   8.947  36.150   7.355
10012POPC   C1B56983   9.229  36.052   6.455
10012POPC   C2B56984   9.222  36.053   6.755
10012POPC   C3B56985   9.245  36.038   7.055
10012POPC   C4B56986   9.251  36.084   7.355
10013POPC   NC356987  33.752  29.183   5.555
10013POPC   PO456988  33.846  29.179   5.855
10013POPC   GL156989  33.848  29.114   6.155
10013POPC   GL256990  33.924  29.178   6.155
10013POPC   C1A56991  33.819  29.133   6.455
10013POPC   D2A56992  33.753  29.114   6.755
10013POPC   C3A56993  33.797  29.181   7.055
10013POPC   C4A56994  33.759  29.177   7.355
10013POPC   C1B56995  34.088  29.189   6.455
10013POPC   C2B56996  34.067  29.235   6.755
10013POPC   C3B56997  34.008  29.235   7.055
10013POPC   C4B56998  34.055  29.227   7.355
10014POPC   NC356999  28.406  29.138   5.555
10014POPC   PO457000  28.398  29.097   5.855
10014POPC   GL157001  28.338  29.175   6.155
10014POPC   GL257002  28.209  29.210   6.155
10014POPC   C1A57003  28.350  29.142   6.455
10014POPC   D2A57004  28.379  29.182   6.755
10014POPC   C3A57005  28.362  29.108   7.055
10014POPC   C4A57006  28.375  29.104   7.355
10014POPC   C1B57007  28.164  29.234   6.455
10014POPC   C2B57008  28.125  29.244   6.755
10014POPC   C3B57009  28.133  29.235   7.055
10014POPC   C4B57010  28.174  29.224   7.355
10015POPC   NC357011   6.657  19.869   5.555
10015POPC   PO457012   6.664  19.838   5.855
10015POPC   GL157013   6.682  19.806   6.155
10015POPC   GL257014   6.782  19.840   6.155
10015POPC   C1A57015   6.682  19.824   6.455
10015POPC   D2A57016   6.660  19.866   6.755
10015POPC   C3A57017   6.640  19.832   7.055
10015POPC   C4A57018   6.684  19.873   7.355
10015POPC   C1B57019   6.909  19.780   6.455
10015POPC   C2B57020   6.902  19.817   6.755
10015POPC   C3B57021   6.890  19.742   7.055
10015POPC   C4B57022   6.925  19.819   7.355
10016POPC   NC357023  11.334  43.856   5.555
10016POPC   PO457024  11.275  43.928   5.855
10016POPC   GL157025  11.331  43.907   6.155
10016POPC   GL257026  11.352  43.738   6.155
10016POPC   C1A57027  11.335  43.870   6.455
10016POPC   D2A57028  11.330  43.894   6.755
10016POPC   C3A57029  11.280  43.881   7.055
10016POPC   C4A57030  11.295  43.927   7.355
10016POPC   C1B57031  11.387  43.680   6.455
10016POPC   C2B57032  11.393  43.685   6.755
10016POPC   C3B57033  11.454  43.676   7.055
10016POPC   C4B57034  11.438  43.705   7.355
10017POPC   NC357035   5.843  38.467   5.555
10017POPC   PO457036   5.909  38.406   5.855
10017POPC   GL157037   5.900  38.433   6.155
10017POPC   GL257038   5.834  38.319   6.155
10017POPC   C1A57039   5.871  38.452   6.455
10017POPC   D2A57040   5.875  38.500   6.755
10017POPC   C3A57041   5.845  38.478   7.055
10017POPC   C4A57042   5.868  38.426   7.355
10017POPC   C1B57043   5.698  38.285   6.455
10017POPC   C2B57044   5.740  38.256   6.755
10017POPC   C3B57045   5.663  38.282   7.055
10017POPC   C4B57046   5.682  38.248   7.355
10018POPC   NC357047  40.776   3.553   5.555
10018POPC   PO457048  40.771   3.556   5.855
10018POPC   GL157049  40.806   3.585   6.155
10018POPC   GL257050  40.812   3.396   6.155
10018POPC   C1A57051  40.829   3.523   6.455
10018POPC   D2A57052  40.746   3.539   6.755
10018POPC   C3A57053  40.817   3.547   7.055
10018POPC   C4A57054  40.816   3.591   7.355
10018POPC   C1B57055  40.837   3.297   6.455
10018POPC   C2B57056  40.803   3.295   6.755
10018POPC   C3B57057  40.777   3.296   7.055
10018POPC   C4B57058  40.843   3.343   7.355
10019POPC   NC357059  29.131  42.356   5.555
10019POPC   PO457060  29.110  42.384   5.855
10019POPC   GL157061  29.186  42.300   6.155
10019POPC   GL257062  29.049  42.432   6.155
10019POPC   C1A57063  29.186  42.289   6.455
10019POPC   D2A57064  29.178  42.358   6.755
10019POPC   C3A57065  29.113  42.361   7.055
10019POPC   C4A57066  29.105  42.301   7.355
10019POPC   C1B57067  29.023  42.586   6.455
10019POPC   C2B57068  29.042  42.520   6.755
10019POPC   C3B57069  29.007  42.493   7.055
10019POPC   C4B57070  29.026  42.503   7.355
10020POPC   NC357071   8.147  40.821   5.555
10020POPC   PO457072   8.156  40.808   5.855
10020POPC   GL157073   8.158  40.811   6.155
10020POPC   GL257074   8.208  40.899   6.155
10020POPC   C1A57075   8.181  40.807   6.455
10020POPC   D2A57076   8.220  40.819   6.755
10020POPC   C3A57077   8.191  40.824   7.055
10020POPC   C4A57078   8.203  40.736   7.355
10020POPC   C1B57079   8.126  41.005   6.455
10020POPC   C2B57080   8.205  41.042   6.755
10020POPC   C3B57081   8.191  41.026   7.055
10020POPC   C4B57082   8.207  41.052   7.355
10021POPC   NC357083  13.645   1.243   5.555
10021POPC   PO457084  13.592   1.231   5.855
10021POPC   GL157085  13.672   1.255   6.155
10021POPC   GL257086  13.664   1.148   6.155
10021POPC   C1A57087  13.639   1.186   6.455
10021POPC   D2A57088  13.651   1.200   6.755
10021POPC   C3A57089  13.624   1.251   7.055
10021POPC   C4A57090  13.649   1.223   7.355
10021POPC   C1B57091  13.759   1.002   6.455
10021POPC   C2B57092  13.741   0.958   6.755
10021POPC   C3B57093  13.771   1.021   7.055
10021POPC   C4B57094  13.737   0.945   7.355
10022POPC   NC357095  36.084  15.940   5.555
10022POPC   PO457096  36.138  15.956   5.855
10022POPC   GL157097  36.098  15.912   6.155
10022POPC   GL257098  36.009  16.003   6.155
10022POPC   C1A57099  36.122  15.938   6.455
10022POPC   D2A57100  36.164  15.913   6.755
10022POPC   C3A57101  36.137  15.953   7.055
10022POPC   C4A57102  36.177  15.909   7.355
10022POPC   C1B57103  35.949  16.148   6.455
10022POPC   C2B57104  36.020  16.178   6.755
10022POPC   C3B57105  35.968  16.198   7.055
10022POPC   C4B57106  35.979  16.135   7.355
10023POPC   NC357107  32.978  12.055   5.555
10023POPC   PO457108  33.013  12.030   5.855
10023POPC   GL157109  33.074  12.038   6.155
10023POPC   GL257110  33.027  11.991   6.155
10023POPC   C1A57111  33.030  12.071   6.455
10023POPC   D2A57112  33.040  12.060   6.755
10023POPC   C3A57113  33.011  12.091   7.055
10023POPC   C4A57114  33.037  12.052   7.355
10023POPC   C1B57115  32.985  11.874   6.455
10023POPC   C2B57116  32.988  11.798   6.755
10023POPC   C3B57117  33.059  11.792   7.055
10023POPC   C4B57118  33.070  11.862   7.355
10024POPC   NC357119  33.000  15.228   5.555
10024POPC   PO457120  33.029  15.143   5.855
10024POPC   GL157121  33.022  15.175   6.155
10024POPC   GL257122  33.084  15.087   6.155
10024POPC   C1A57123  32.993  15.159   6.455
10024POPC   D2A57124  33.024  15.215   6.755
10024POPC   C3A57125  33.051  15.220   7.055
10024POPC   C4A57126  33.016  15.178   7.355
10024POPC   C1B57127  33.107  14.981   6.455
10024POPC   C2B57128  33.097  14.970   6.755
10024POPC   C3B57129  33.117  14.951   7.055
10024POPC   C4B57130  33.102  14.927   7.355
10025POPC   NC357131   1.940   5.128   5.555
10025POPC   PO457132   1.987   5.130   5.855
10025POPC   GL157133   1.946   5.092   6.155
10025POPC   GL257134   2.117   5.076   6.155
10025POPC   C1A57135   1.968   5.107   6.455
10025POPC   D2A57136   1.974   5.125   6.755
10025POPC   C3A57137   1.956   5.074   7.055
10025POPC   C4A57138   1.968   5.098   7.355
10025POPC   C1B57139   2.181   5.019   6.455
10025POPC   C2B57140   2.245   5.001   6.755
10025POPC   C3B57141   2.197   5.007   7.055
10025POPC   C4B57142   2.189   5.077   7.355
10026POPC   NC357143  33.822  16.714   5.555
10026POPC   PO457144  33.758  16.749   5.855
10026POPC   GL157145  33.838  16.757   6.155
10026POPC   GL257146  33.679  16.852   6.155
10026POPC   C1A57147  33.800  16.702   6.455
10026POPC   D2A57148  33.820  16.774   6.755
10026POPC   C3A57149  33.829  16.776   7.055
10026POPC   C4A57150  33.781  16.765   7.355
10026POPC   C1B57151  33.657  16.896   6.455
10026POPC   C2B57152  33.642  16.891   6.755
10026POPC   C3B57153  33.677  16.922   7.055
10026POPC   C4B57154  33.599  16.919   7.355
10027POPC   NC357155  41.526  22.125   5.555
10027POPC   PO457156  41.528  22.208   5.855
10027POPC   GL157157  41.541  22.117   6.155
10027POPC   GL257158  41.465  22.105   6.155
10027POPC   C1A57159  41.554  22.172   6.455
10027POPC   D2A57160  41.554  22.149   6.755
10027POPC   C3A57161  41.525  22.191   7.055
10027POPC   C4A57162  41.548  22.190   7.355
10027POPC   C1B57163  41.311  22.111   6.455
10027POPC   C2B57164  41.313  22.068   6.755
10027POPC   C3B57165  41.279  22.131   7.055
10027POPC   C4B57166  41.357  22.098   7.355
10028POPC   NC357167  19.873  33.055   5.555
10028POPC   PO457168  19.794  33.070   5.855
10028POPC   GL157169  19.869  33.067   6.155
10028POPC   GL257170  19.753  32.946   6.155
10028POPC   C1A57171  19.881  32.975   6.455
10028POPC   D2A57172  19.837  33.035   6.755
10028POPC   C3A57173  19.863  32.976   7.055
10028POPC   C4A57174  19.822  33.053   7.355
10028POPC   C1B57175  19.676  32.871   6.455
10028POPC   C2B57176  19.623  32.796   6.755
10028POPC   C3B57177  19.658  32.866   7.055
10028POPC   C4B57178  19.653  32.806   7.355
10029POPC   NC357179  22.142   5.824   5.555
10029POPC   PO457180  22.126   5.880   5.855
10029POPC   GL157181  22.136   5.907   6.155
10029POPC   GL257182  22.323   5.922   6.155
10029POPC   C1A57183  22.154   5.819   6.455
10029POPC   D2A57184  22.117   5.853   6.755
10029POPC   C3A57185  22.180   5.826   7.055
10029POPC   C4A57186  22.147   5.869   7.355
10029POPC   C1B57187  22.428   5.905   6.455
10029POPC   C2B57188  22.394   5.930   6.755
10029POPC   C3B57189  22.369   5.897   7.055
10029POPC   C4B57190  22.414   5.905   7.355
10030POPC   NC357191  11.333  30.737   5.555
10030POPC   PO457192  11.268  30.655   5.855
10030POPC   GL157193  11.285  30.669   6.155
10030POPC   GL257194  11.437  30.608   6.155
10030POPC   C1A57195  11.343  30.669   6.455
10030POPC   D2A57196  11.339  30.654   6.755
10030POPC   C3A57197  11.285  30.654   7.055
10030POPC   C4A57198  11.343  30.741   7.355
10030POPC   C1B57199  11.524  30.518   6.455
10030POPC   C2B57200  11.498  30.481   6.755
10030POPC   C3B57201  11.437  30.490   7.055
10030POPC   C4B57202  11.525  30.539   7.355
10031POPC   NC357203   1.202  44.673   5.555
10031POPC   PO457204   1.262  44.641   5.855
10031POPC   GL157205   1.206  44.629   6.155
10031POPC   GL257206   1.094  44.605   6.155
10031POPC   C1A57207   1.175  44.690   6.455
10031POPC   D2A57208   1.222  44.637   6.755
10031POPC   C3A57209   1.219  44.672   7.055
10031POPC   C4A57210   1.186  44.627   7.355
10031POPC   C1B57211   1.007  44.509   6.455
10031POPC   C2B57212   1.062  44.472   6.755
10031POPC   C3B57213   1.021  44.472   7.055
10031POPC   C4B57214   1.088  44.499   7.355
10032POPC   NC357215  16.768  26.029   5.555
10032POPC   PO457216  16.714  25.994   5.855
10032POPC   GL157217  16.711  26.064   6.155
10032POPC   GL257218  16.768  25.909   6.155
10032POPC   C1A57219  16.742  26.019   6.455
10032POPC   D2A57220  16.746  26.065   6.755
10032POPC   C3A57221  16.694  26.058   7.055
10032POPC   C4A57222  16.718  26.004   7.355
10032POPC   C1B57223  16.704  25.798   6.455
10032POPC   C2B57224  16.729  25.814   6.755
10032POPC   C3B57225  16.665  25.773   7.055
10032POPC   C4B57226  16.700  25.772   7.355
10033POPC   NC357227  21.363   1.986   5.555
10033POPC   PO457228  21.374   2.023   5.855
10033POPC   GL157229  21.385   1.957   6.155
10033POPC   GL257230  21.474   1.889   6.155
10033POPC   C1A57231  21.369   1.975   6.455
10033POPC   D2A57232  21.405   1.985   6.755
10033POPC   C3A57233  21.433   1.949   7.055
10033POPC   C4A57234  21.408   2.002   7.355
10033POPC   C1B57235  21.507   1.760   6.455
10033POPC   C2B57236  21.510   1.813   6.755
10033POPC   C3B57237  21.542   1.768   7.055
10033POPC   C4B57238  21.528   1.744   7.355
10034POPC   NC357239  40.814  25.234   5.555
10034POPC   PO457240  40.799  25.248   5.855
10034POPC   GL157241  40.824  25.284   6.155
10034POPC   GL257242  40.674  25.285   6.155
10034POPC   C1A57243  40.747  25.242   6.455
10034POPC   D2A57244  40.818  25.286   6.755
10034POPC   C3A57245  40.763  25.302   7.055
10034POPC   C4A57246  40.802  25.254   7.355
10034POPC   C1B57247  40.538  25.267   6.455
10034POPC   C2B57248  40.516  25.246   6.755
10034POPC   C3B57249  40.548  25.206   7.055
10034POPC   C4B57250  40.536  25.223   7.355
10035POPC   NC357251  29.190   5.854   5.555
10035POPC   PO457252  29.171   5.886   5.855
10035POPC   GL157253  29.153   5.876   6.155
10035POPC   GL257254  29.131   5.711   6.155
10035POPC   C1A57255  29.175   5.838   6.455
10035POPC   D2A57256  29.101   5.909   6.755
10035POPC   C3A57257  29.097   5.889   7.055
10035POPC   C4A57258  29.191   5.892   7.355
10035POPC   C1B57259  29.180   5.667   6.455
10035POPC   C2B57260  29.232   5.671   6.755
10035POPC   C3B57261  29.153   5.641   7.055
10035POPC   C4B57262  29.178   5.660   7.355
10036POPC   NC357263  11.259  33.755   5.555
10036POPC   PO457264  11.284  33.836   5.855
10036POPC   GL157265  11.330  33.754   6.155
10036POPC   GL257266  11.234  33.858   6.155
10036POPC   C1A57267  11.266  33.771   6.455
10036POPC   D2A57268  11.251  33.813   6.755
10036POPC   C3A57269  11.322  33.758   7.055
10036POPC   C4A57270  11.289  33.833   7.355
10036POPC   C1B57271  11.104  34.010   6.455
10036POPC   C2B57272  11.120  34.005   6.755
10036POPC   C3B57273  11.081  33.951   7.055
10036POPC   C4B57274  11.131  33.956   7.355
10037POPC   NC357275  40.799  29.158   5.555
10037POPC   PO457276  40.765  29.108   5.855
10037POPC   GL157277  40.738  29.171   6.155
10037POPC   GL257278  40.723  29.270   6.155
10037POPC   C1A57279  40.778  29.152   6.455
10037POPC   D2A57280  40.803  29.159   6.755
10037POPC   C3A57281  40.816  29.150   7.055
10037POPC   C4A57282  40.758  29.194   7.355
10037POPC   C1B57283  40.784  29.349   6.455
10037POPC   C2B57284  40.782  29.393   6.755
10037POPC   C3B57285  40.724  29.345   7.055
10037POPC   C4B57286  40.724  29.394   7.355
10038POPC   NC357287  29.156  36.131   5.555
10038POPC   PO457288  29.128  36.093   5.855
10038POPC   GL157289  29.154  36.131   6.155
10038POPC   GL257290  29.072  36.216   6.155
10038POPC   C1A57291  29.112  36.088   6.455
10038POPC   D2A57292  29.186  36.136   6.755
10038POPC   C3A57293  29.107  36.095   7.055
10038POPC   C4A57294  29.108  36.160   7.355
10038POPC   C1B57295  28.908  36.278   6.455
10038POPC   C2B57296  28.896  36.231   6.755
10038POPC   C3B57297  28.925  36.237   7.055
10038POPC   C4B57298  28.923  36.260   7.355
10039POPC   NC357299   3.498  43.871   5.555
10039POPC   PO457300   3.499  43.863   5.855
10039POPC   GL157301   3.576  43.866   6.155
10039POPC   GL257302   3.682  43.969   6.155
10039POPC   C1A57303   3.524  43.891   6.455
10039POPC   D2A57304   3.494  43.882   6.755
10039POPC   C3A57305   3.545  43.907   7.055
10039POPC   C4A57306   3.520  43.911   7.355
10039POPC   C1B57307   3.715  44.004   6.455
10039POPC   C2B57308   3.739  44.013   6.755
10039POPC   C3B57309   3.761  43.977   7.055
10039POPC   C4B57310   3.771  43.989   7.355
10040POPC   NC357311   2.751   7.463   5.555
10040POPC   PO457312   2.795   7.375   5.855
10040POPC   GL157313   2.797   7.461   6.155
10040POPC   GL257314   2.803   7.510   6.155
10040POPC   C1A57315   2.794   7.434   6.455
10040POPC   D2A57316   2.759   7.387   6.755
10040POPC   C3A57317   2.718   7.450   7.055
10040POPC   C4A57318   2.735   7.386   7.355
10040POPC   C1B57319   2.800   7.655   6.455
10040POPC   C2B57320   2.842   7.658   6.755
10040POPC   C3B57321   2.846   7.713   7.055
10040POPC   C4B57322   2.756   7.628   7.355
10041POPC   NC357323  15.956   1.176   5.555
10041POPC   PO457324  15.993   1.212   5.855
10041POPC   GL157325  15.958   1.232   6.155
10041POPC   GL257326  16.028   1.259   6.155
10041POPC   C1A57327  15.974   1.193   6.455
10041POPC   D2A57328  15.905   1.232   6.755
10041POPC   C3A57329  15.914   1.214   7.055
10041POPC   C4A57330  15.969   1.186   7.355
10041POPC   C1B57331  16.135   1.353   6.455
10041POPC   C2B57332  16.179   1.350   6.755
10041POPC   C3B57333  16.125   1.437   7.055
10041POPC   C4B57334  16.148   1.408   7.355
10042POPC   NC357335  33.046   9.707   5.555
10042POPC   PO457336  33.018   9.780   5.855
10042POPC   GL157337  32.988   9.796   6.155
10042POPC   GL257338  33.105   9.755   6.155
10042POPC   C1A57339  32.999   9.744   6.455
10042POPC   D2A57340  33.043   9.782   6.755
10042POPC   C3A57341  33.061   9.782   7.055
10042POPC   C4A57342  33.042   9.752   7.355
10042POPC   C1B57343  33.312   9.816   6.455
10042POPC   C2B57344  33.221   9.813   6.755
10042POPC   C3B57345  33.293   9.812   7.055
10042POPC   C4B57346  33.239   9.791   7.355
10043POPC   NC357347   6.638  37.658   5.555
10043POPC   PO457348   6.656  37.719   5.855
10043POPC   GL157349   6.667  37.655   6.155
10043POPC   GL257350   6.803  37.726   6.155
10043POPC   C1A57351   6.651  37.710   6.455
10043POPC   D2A57352   6.689  37.705   6.755
10043POPC   C3A57353   6.609  37.703   7.055
10043POPC   C4A57354   6.617  37.664   7.355
10043POPC   C1B57355   6.878  37.805   6.455
10043POPC   C2B57356   6.921  37.782   6.755
10043POPC   C3B57357   6.899  37.741   7.055
10043POPC   C4B57358   6.864  37.732   7.355
10044POPC   NC357359  34.617  10.530   5.555
10044POPC   PO457360  34.550  10.559   5.855
10044POPC   GL157361  34.622  10.528   6.155
10044POPC   GL257362  34.420  10.551   6.155
10044POPC   C1A57363  34.558  10.565   6.455
10044POPC   D2A57364  34.561  10.566   6.755
10044POPC   C3A57365  34.622  10.547   7.055
10044POPC   C4A57366  34.560  10.521   7.355
10044POPC   C1B57367  34.303  10.620   6.455
10044POPC   C2B57368  34.342  10.666   6.755
10044POPC   C3B57369  34.322  10.676   7.055
10044POPC   C4B57370  34.386  10.652   7.355
10045POPC   NC357371   2.022   9.013   5.555
10045POPC   PO457372   1.979   9.000   5.855
10045POPC   GL157373   1.956   8.976   6.155
10045POPC   GL257374   2.059   9.051   6.155
10045POPC   C1A57375   1.992   8.929   6.455
10045POPC   D2A57376   1.960   8.948   6.755
10045POPC   C3A57377   2.017   9.019   7.055
10045POPC   C4A57378   2.027   8.928   7.355
10045POPC   C1B57379   2.184   9.110   6.455
10045POPC   C2B57380   2.192   9.119   6.755
10045POPC   C3B57381   2.242   9.124   7.055
10045POPC   C4B57382   2.173   9.160   7.355
10046POPC   NC357383  33.846  26.781   5.555
10046POPC   PO457384  33.783  26.794   5.855
10046POPC   GL157385  33.836  26.768   6.155
10046POPC   GL257386  33.925  26.841   6.155
10046POPC   C1A57387  33.826  26.834   6.455
10046POPC   D2A57388  33.849  26.861   6.755
10046POPC   C3A57389  33.818  26.858   7.055
10046POPC   C4A57390  33.786  26.804   7.355
10046POPC   C1B57391  34.049  26.848   6.455
10046POPC   C2B57392  34.015  26.754   6.755
10046POPC   C3B57393  34.007  26.834   7.055
10046POPC   C4B57394  34.025  26.801   7.355
10047POPC   NC357395  19.849  43.115   5.555
10047POPC   PO457396  19.877  43.112   5.855
10047POPC   GL157397  19.830  43.080   6.155
10047POPC   GL257398  19.838  42.941   6.155
10047POPC   C1A57399  19.841  43.096   6.455
10047POPC   D2A57400  19.801  43.097   6.755
10047POPC   C3A57401  19.785  43.139   7.055
10047POPC   C4A57402  19.863  43.125   7.355
10047POPC   C1B57403  19.852  42.824   6.455
10047POPC   C2B57404  19.910  42.819   6.755
10047POPC   C3B57405  19.843  42.881   7.055
10047POPC   C4B57406  19.908  42.852   7.355
10048POPC   NC357407  30.673  42.299   5.555
10048POPC   PO457408  30.730  42.291   5.855
10048POPC   GL157409  30.722  42.381   6.155
10048POPC   GL257410  30.709  42.241   6.155
10048POPC   C1A57411  30.703  42.358   6.455
10048POPC   D2A57412  30.696  42.362   6.755
10048POPC   C3A57413  30.689  42.286   7.055
10048POPC   C4A57414  30.651  42.360   7.355
10048POPC   C1B57415  30.794  42.087   6.455
10048POPC   C2B57416  30.744  42.058   6.755
10048POPC   C3B57417  30.736  42.074   7.055
10048POPC   C4B57418  30.764  42.081   7.355
10049POPC   NC357419  42.326   2.719   5.555
10049POPC   PO457420  42.373   2.765   5.855
10049POPC   GL157421  42.356   2.772   6.155
10049POPC   GL257422  42.289   2.846   6.155
10049POPC   C1A57423  42.382   2.752   6.455
10049POPC   D2A57424  42.327   2.716   6.755
10049POPC   C3A57425  42.341   2.810   7.055
10049POPC   C4A57426  42.348   2.792   7.355
10049POPC   C1B57427  42.342   2.991   6.455
10049POPC   C2B57428  42.340   2.967   6.755
10049POPC   C3B57429  42.319   2.974   7.055
10049POPC   C4B57430  42.281   2.973   7.355
10050POPC   NC357431  32.233  28.367   5.555
10050POPC   PO457432  32.231  28.416   5.855
10050POPC   GL157433  32.271  28.339   6.155
10050POPC   GL257434  32.272  28.456   6.155
10050POPC   C1A57435  32.281  28.349   6.455
10050POPC   D2A57436  32.277  28.349   6.755
10050POPC   C3A57437  32.257  28.363   7.055
10050POPC   C4A57438  32.220  28.343   7.355
10050POPC   C1B57439  32.252  28.665   6.455
10050POPC   C2B57440  32.341  28.632   6.755
10050POPC   C3B57441  32.315  28.567   7.055
10050POPC   C4B57442  32.267  28.583   7.355
10051POPC   NC357443  33.021   7.387   5.555
10051POPC   PO457444  32.983   7.463   5.855
10051POPC   GL157445  33.051   7.448   6.155
10051POPC   GL257446  32.936   7.556   6.155
10051POPC   C1A57447  32.996   7.437   6.455
10051POPC   D2A57448  33.074   7.424   6.755
10051POPC   C3A57449  33.015   7.423   7.055
10051POPC   C4A57450  32.986   7.391   7.355
10051POPC   C1B57451  32.871   7.582   6.455
10051POPC   C2B57452  32.839   7.644   6.755
10051POPC   C3B57453  32.881   7.648   7.055
10051POPC   C4B57454  32.820   7.617   7.355
10052POPC   NC357455  36.951  22.891   5.555
10052POPC   PO457456  36.855  22.945   5.855
10052POPC   GL157457  36.861  22.968   6.155
10052POPC   GL257458  36.889  22.774   6.155
10052POPC   C1A57459  36.874  22.979   6.455
10052POPC   D2A57460  36.900  22.907   6.755
10052POPC   C3A57461  36.919  22.973   7.055
10052POPC   C4A57462  36.884  22.927   7.355
10052POPC   C1B57463  36.848  22.719   6.455
10052POPC   C2B57464  36.765  22.685   6.755
10052POPC   C3B57465  36.778  22.695   7.055
10052POPC   C4B57466  36.854  22.689   7.355
10053POPC   NC357467  33.065   4.361   5.555
10053POPC   PO457468  33.072   4.277   5.855
10053POPC   GL157469  32.983   4.271   6.155
10053POPC   GL257470  33.063   4.393   6.155
10053POPC   C1A57471  33.026   4.286   6.455
10053POPC   D2A57472  33.043   4.339   6.755
10053POPC   C3A57473  33.027   4.364   7.055
10053POPC   C4A57474  32.992   4.288   7.355
10053POPC   C1B57475  32.988   4.529   6.455
10053POPC   C2B57476  33.023   4.586   6.755
10053POPC   C3B57477  33.048   4.570   7.055
10053POPC   C4B57478  32.984   4.588   7.355
10054POPC   NC357479  17.480  38.421   5.555
10054POPC   PO457480  17.520  38.457   5.855
10054POPC   GL157481  17.532  38.470   6.155
10054POPC   GL257482  17.526  38.307   6.155
10054POPC   C1A57483  17.508  38.481   6.455
10054POPC   D2A57484  17.466  38.486   6.755
10054POPC   C3A57485  17.518  38.461   7.055
10054POPC   C4A57486  17.553  38.467   7.355
10054POPC   C1B57487  17.642  38.227   6.455
10054POPC   C2B57488  17.662  38.252   6.755
10054POPC   C3B57489  17.627  38.274   7.055
10054POPC   C4B57490  17.641  38.208   7.355
10055POPC   NC357491  33.836  21.419   5.555
10055POPC   PO457492  33.783  21.359   5.855
10055POPC   GL157493  33.788  21.389   6.155
10055POPC   GL257494  33.721  21.505   6.155
10055POPC   C1A57495  33.754  21.353   6.455
10055POPC   D2A57496  33.822  21.362   6.755
10055POPC   C3A57497  33.820  21.389   7.055
10055POPC   C4A57498  33.809  21.398   7.355
10055POPC   C1B57499  33.780  21.618   6.455
10055POPC   C2B57500  33.702  21.603   6.755
10055POPC   C3B57501  33.741  21.656   7.055
10055POPC   C4B57502  33.710  21.583   7.355
10056POPC   NC357503  32.239  16.004   5.555
10056POPC   PO457504  32.256  15.939   5.855
10056POPC   GL157505  32.278  15.920   6.155
10056POPC   GL257506  32.166  16.026   6.155
10056POPC   C1A57507  32.285  15.949   6.455
10056POPC   D2A57508  32.278  15.978   6.755
10056POPC   C3A57509  32.231  15.959   7.055
10056POPC   C4A57510  32.250  15.984   7.355
10056POPC   C1B57511  32.056  16.005   6.455
10056POPC   C2B57512  32.031  15.981   6.755
10056POPC   C3B57513  31.996  16.065   7.055
10056POPC   C4B57514  31.982  16.001   7.355
10057POPC   NC357515   6.692  13.608   5.555
10057POPC   PO457516   6.673  13.588   5.855
10057POPC   GL157517   6.645  13.630   6.155
10057POPC   GL257518   6.727  13.767   6.155
10057POPC   C1A57519   6.673  13.604   6.455
10057POPC   D2A57520   6.616  13.583   6.755
10057POPC   C3A57521   6.643  13.598   7.055
10057POPC   C4A57522   6.621  13.591   7.355
10057POPC   C1B57523   6.746  13.829   6.455
10057POPC   C2B57524   6.826  13.882   6.755
10057POPC   C3B57525   6.808  13.812   7.055
10057POPC   C4B57526   6.774  13.854   7.355
10058POPC   NC357527  43.837  22.203   5.555
10058POPC   PO457528  43.838  22.159   5.855
10058POPC   GL157529  43.879  22.198   6.155
10058POPC   GL257530  43.814  22.073   6.155
10058POPC   C1A57531  43.896  22.208   6.455
10058POPC   D2A57532  43.867  22.168   6.755
10058POPC   C3A57533  43.904  22.188   7.055
10058POPC   C4A57534  43.923  22.113   7.355
10058POPC   C1B57535  43.758  22.002   6.455
10058POPC   C2B57536  43.684  21.947   6.755
10058POPC   C3B57537  43.760  21.948   7.055
10058POPC   C4B57538  43.722  21.950   7.355
10059POPC   NC357539  23.720   7.371   5.555
10059POPC   PO457540  23.754   7.376   5.855
10059POPC   GL157541  23.689   7.396   6.155
10059POPC   GL257542  23.612   7.359   6.155
10059POPC   C1A57543  23.733   7.463   6.455
10059POPC   D2A57544  23.748   7.457   6.755
10059POPC   C3A57545  23.696   7.455   7.055
10059POPC   C4A57546  23.762   7.441   7.355
10059POPC   C1B57547  23.446   7.391   6.455
10059POPC   C2B57548  23.457   7.352   6.755
10059POPC   C3B57549  23.505   7.441   7.055
10059POPC   C4B57550  23.443   7.369   7.355
10060POPC   NC357551  15.132   5.908   5.555
10060POPC   PO457552  15.198   5.833   5.855
10060POPC   GL157553  15.131   5.833   6.155
10060POPC   GL257554  15.180   6.043   6.155
10060POPC   C1A57555  15.188   5.884   6.455
10060POPC   D2A57556  15.170   5.849   6.755
10060POPC   C3A57557  15.182   5.904   7.055
10060POPC   C4A57558  15.149   5.864   7.355
10060POPC   C1B57559  15.150   6.111   6.455
10060POPC   C2B57560  15.197   6.082   6.755
10060POPC   C3B57561  15.216   6.107   7.055
10060POPC   C4B57562  15.158   6.095   7.355
10061POPC   NC357563  28.332   1.961   5.555
10061POPC   PO457564  28.373   1.943   5.855
10061POPC   GL157565  28.357   1.991   6.155
10061POPC   GL257566  28.504   2.062   6.155
10061POPC   C1A57567  28.378   1.973   6.455
10061POPC   D2A57568  28.355   1.952   6.755
10061POPC   C3A57569  28.346   2.010   7.055
10061POPC   C4A57570  28.346   2.027   7.355
10061POPC   C1B57571  28.589   2.148   6.455
10061POPC   C2B57572  28.596   2.201   6.755
10061POPC   C3B57573  28.570   2.152   7.055
10061POPC   C4B57574  28.557   2.197   7.355
10062POPC   NC357575  16.749  19.107   5.555
10062POPC   PO457576  16.682  19.077   5.855
10062POPC   GL157577  16.686  19.080   6.155
10062POPC   GL257578  16.624  19.059   6.155
10062POPC   C1A57579  16.768  19.023   6.455
10062POPC   D2A57580  16.774  19.034   6.755
10062POPC   C3A57581  16.779  19.023   7.055
10062POPC   C4A57582  16.706  19.101   7.355
10062POPC   C1B57583  16.549  19.130   6.455
10062POPC   C2B57584  16.532  19.175   6.755
10062POPC   C3B57585  16.461  19.152   7.055
10062POPC   C4B57586  16.546  19.140   7.355
10063POPC   NC357587   3.578  43.156   5.555
10063POPC   PO457588   3.544  43.130   5.855
10063POPC   GL157589   3.581  43.125   6.155
10063POPC   GL257590   3.480  42.991   6.155
10063POPC   C1A57591   3.516  43.076   6.455
10063POPC   D2A57592   3.525  43.146   6.755
10063POPC   C3A57593   3.502  43.091   7.055
10063POPC   C4A57594   3.504  43.064   7.355
10063POPC   C1B57595   3.393  42.922   6.455
10063POPC   C2B57596   3.318  42.961   6.755
10063POPC   C3B57597   3.371  42.999   7.055
10063POPC   C4B57598   3.339  42.963   7.355
10064POPC   NC357599  22.896  29.155   5.555
10064POPC   PO457600  22.896  29.124   5.855
10064POPC   GL157601  22.896  29.192   6.155
10064POPC   GL257602  22.958  29.227   6.155
10064POPC   C1A57603  22.935  29.166   6.455
10064POPC   D2A57604  22.946  29.164   6.755
10064POPC   C3A57605  22.978  29.139   7.055
10064POPC   C4A57606  22.963  29.161   7.355
10064POPC   C1B57607  23.000  29.423   6.455
10064POPC   C2B57608  23.044  29.327   6.755
10064POPC   C3B57609  23.076  29.359   7.055
10064POPC   C4B57610  23.036  29.358   7.355
10065POPC   NC357611  17.522   8.938   5.555
10065POPC   PO457612  17.541   8.934   5.855
10065POPC   GL157613  17.543   8.929   6.155
10065POPC   GL257614  17.604   9.072   6.155
10065POPC   C1A57615  17.469   9.017   6.455
10065POPC   D2A57616  17.469   9.019   6.755
10065POPC   C3A57617  17.505   8.941   7.055
10065POPC   C4A57618  17.546   9.000   7.355
10065POPC   C1B57619  17.729   9.130   6.455
10065POPC   C2B57620  17.723   9.172   6.755
10065POPC   C3B57621  17.656   9.177   7.055
10065POPC   C4B57622  17.735   9.105   7.355
10066POPC   NC357623  20.645  26.835   5.555
10066POPC   PO457624  20.598  26.799   5.855
10066POPC   GL157625  20.592  26.846   6.155
10066POPC   GL257626  20.662  26.936   6.155
10066POPC   C1A57627  20.601  26.819   6.455
10066POPC   D2A57628  20.633  26.810   6.755
10066POPC   C3A57629  20.644  26.782   7.055
10066POPC   C4A57630  20.648  26.834   7.355
10066POPC   C1B57631  20.736  26.974   6.455
10066POPC   C2B57632  20.722  27.008   6.755
10066POPC   C3B57633  20.743  27.059   7.055
10066POPC   C4B57634  20.787  27.063   7.355
10067POPC   NC357635  44.630   8.185   5.555
10067POPC   PO457636  44.708   8.221   5.855
10067POPC   GL157637  44.636   8.194   6.155
10067POPC   GL257638  44.574   8.107   6.155
10067POPC   C1A57639  44.644   8.155   6.455
10067POPC   D2A57640  44.691   8.182   6.755
10067POPC   C3A57641  44.630   8.228   7.055
10067POPC   C4A57642  44.711   8.171   7.355
10067POPC   C1B57643  44.464   8.119   6.455
10067POPC   C2B57644  44.462   8.071   6.755
10067POPC   C3B57645  44.392   8.131   7.055
10067POPC   C4B57646  44.466   8.085   7.355
10068POPC   NC357647  13.603  22.916   5.555
10068POPC   PO457648  13.602  22.919   5.855
10068POPC   GL157649  13.583  22.908   6.155
10068POPC   GL257650  13.721  23.031   6.155
10068POPC   C1A57651  13.610  22.936   6.455
10068POPC   D2A57652  13.584  22.953   6.755
10068POPC   C3A57653  13.672  22.909   7.055
10068POPC   C4A57654  13.585  22.965   7.355
10068POPC   C1B57655  13.736  23.118   6.455
10068POPC   C2B57656  13.758  23.094   6.755
10068POPC   C3B57657  13.813  23.167   7.055
10068POPC   C4B57658  13.729  23.094   7.355
10069POPC   NC357659   9.718  30.700   5.555
10069POPC   PO457660   9.779  30.720   5.855
10069POPC   GL157661   9.746  30.718   6.155
10069POPC   GL257662   9.655  30.608   6.155
10069POPC   C1A57663   9.726  30.677   6.455
10069POPC   D2A57664   9.705  30.741   6.755
10069POPC   C3A57665   9.712  30.675   7.055
10069POPC   C4A57666   9.756  30.715   7.355
10069POPC   C1B57667   9.540  30.551   6.455
10069POPC   C2B57668   9.489  30.567   6.755
10069POPC   C3B57669   9.492  30.585   7.055
10069POPC   C4B57670   9.537  30.574   7.355
10070POPC   NC357671  41.548  33.780   5.555
10070POPC   PO457672  41.560  33.765   5.855
10070POPC   GL157673  41.579  33.823   6.155
10070POPC   GL257674  41.680  33.937   6.155
10070POPC   C1A57675  41.599  33.830   6.455
10070POPC   D2A57676  41.568  33.831   6.755
10070POPC   C3A57677  41.557  33.815   7.055
10070POPC   C4A57678  41.601  33.754   7.355
10070POPC   C1B57679  41.690  34.018   6.455
10070POPC   C2B57680  41.730  34.008   6.755
10070POPC   C3B57681  41.689  34.044   7.055
10070POPC   C4B57682  41.679  33.955   7.355
10071POPC   NC357683  28.327  19.874   5.555
10071POPC   PO457684  28.347  19.832   5.855
10071POPC   GL157685  28.325  19.832   6.155
10071POPC   GL257686  28.290  19.738   6.155
10071POPC   C1A57687  28.339  19.837   6.455
10071POPC   D2A57688  28.404  19.854   6.755
10071POPC   C3A57689  28.383  19.865   7.055
10071POPC   C4A57690  28.393  19.847   7.355
10071POPC   C1B57691  28.158  19.687   6.455
10071POPC   C2B57692  28.193  19.722   6.755
10071POPC   C3B57693  28.192  19.743   7.055
10071POPC   C4B57694  28.191  19.745   7.355
10072POPC   NC357695  29.889  11.315   5.555
10072POPC   PO457696  29.936  11.346   5.855
10072POPC   GL157697  29.947  11.336   6.155
10072POPC   GL257698  29.803  11.265   6.155
10072POPC   C1A57699  29.881  11.320   6.455
10072POPC   D2A57700  29.958  11.285   6.755
10072POPC   C3A57701  29.942  11.264   7.055
10072POPC   C4A57702  29.942  11.261   7.355
10072POPC   C1B57703  29.699  11.228   6.455
10072POPC   C2B57704  29.702  11.145   6.755
10072POPC   C3B57705  29.713  11.239   7.055
10072POPC   C4B57706  29.741  11.204   7.355
10073POPC   NC357707  31.456  20.658   5.555
10073POPC   PO457708  31.436  20.585   5.855
10073POPC   GL157709  31.463  20.583   6.155
10073POPC   GL257710  31.482  20.470   6.155
10073POPC   C1A57711  31.452  20.592   6.455
10073POPC   D2A57712  31.429  20.571   6.755
10073POPC   C3A57713  31.472  20.635   7.055
10073POPC   C4A57714  31.487  20.654   7.355
10073POPC   C1B57715  31.550  20.432   6.455
10073POPC   C2B57716  31.600  20.379   6.755
10073POPC   C3B57717  31.610  20.353   7.055
10073POPC   C4B57718  31.533  20.419   7.355
10074POPC   NC357719  16.772  13.625   5.555
10074POPC   PO457720  16.749  13.582   5.855
10074POPC   GL157721  16.682  13.623   6.155
10074POPC   GL257722  16.684  13.791   6.155
10074POPC   C1A57723  16.750  13.658   6.455
10074POPC   D2A57724  16.719  13.585   6.755
10074POPC   C3A57725  16.703  13.611   7.055
10074POPC   C4A57726  16.731  13.645   7.355
10074POPC   C1B57727  16.627  13.880   6.455
10074POPC   C2B57728  16.592  13.898   6.755
10074POPC   C3B57729  16.668  13.844   7.055
10074POPC   C4B57730  16.642  13.815   7.355
10075POPC   NC357731  33.755  28.390   5.555
10075POPC   PO457732  33.759  28.380   5.855
10075POPC   GL157733  33.794  28.331   6.155
10075POPC   GL257734  33.726  28.468   6.155
10075POPC   C1A57735  33.816  28.375   6.455
10075POPC   D2A57736  33.791  28.357   6.755
10075POPC   C3A57737  33.803  28.402   7.055
10075POPC   C4A57738  33.786  28.382   7.355
10075POPC   C1B57739  33.641  28.572   6.455
10075POPC   C2B57740  33.628  28.527   6.755
10075POPC   C3B57741  33.608  28.541   7.055
10075POPC   C4B57742  33.610  28.557   7.355
10076POPC   NC357743   5.065  29.188   5.555
10076POPC   PO457744   5.054  29.107   5.855
10076POPC   GL157745   5.066  29.100   6.155
10076POPC   GL257746   5.103  29.233   6.155
10076POPC   C1A57747   5.084  29.159   6.455
10076POPC   D2A57748   5.132  29.108   6.755
10076POPC   C3A57749   5.117  29.179   7.055
10076POPC   C4A57750   5.140  29.113   7.355
10076POPC   C1B57751   5.211  29.333   6.455
10076POPC   C2B57752   5.234  29.368   6.755
10076POPC   C3B57753   5.216  29.392   7.055
10076POPC   C4B57754   5.248  29.412   7.355
10077POPC   NC357755  19.880   7.399   5.555
10077POPC   PO457756  19.825   7.468   5.855
10077POPC   GL157757  19.835   7.444   6.155
10077POPC   GL257758  19.696   7.548   6.155
10077POPC   C1A57759  19.797   7.407   6.455
10077POPC   D2A57760  19.848   7.416   6.755
10077POPC   C3A57761  19.849   7.399   7.055
10077POPC   C4A57762  19.854   7.459   7.355
10077POPC   C1B57763  19.693   7.626   6.455
10077POPC   C2B57764  19.626   7.620   6.755
10077POPC   C3B57765  19.654   7.580   7.055
10077POPC   C4B57766  19.645   7.586   7.355
10078POPC   NC357767  33.070   1.952   5.555
10078POPC   PO457768  32.979   1.985   5.855
10078POPC   GL157769  33.047   2.030   6.155
10078POPC   GL257770  33.058   2.084   6.155
10078POPC   C1A57771  33.043   2.034   6.455
10078POPC   D2A57772  33.020   1.941   6.755
10078POPC   C3A57773  33.028   1.959   7.055
10078POPC   C4A57774  33.021   1.988   7.355
10078POPC   C1B57775  33.065   2.226   6.455
10078POPC   C2B57776  33.122   2.229   6.755
10078POPC   C3B57777  33.133   2.264   7.055
10078POPC   C4B57778  33.104   2.271   7.355
10079POPC   NC357779  29.133  33.806   5.555
10079POPC   PO457780  29.111  33.776   5.855
10079POPC   GL157781  29.175  33.811   6.155
10079POPC   GL257782  29.108  33.712   6.155
10079POPC   C1A57783  29.124  33.759   6.455
10079POPC   D2A57784  29.186  33.764   6.755
10079POPC   C3A57785  29.112  33.764   7.055
10079POPC   C4A57786  29.153  33.815   7.355
10079POPC   C1B57787  29.080  33.575   6.455
10079POPC   C2B57788  29.135  33.588   6.755
10079POPC   C3B57789  29.111  33.560   7.055
10079POPC   C4B57790  29.126  33.533   7.355
10080POPC   NC357791  42.286  12.887   5.555
10080POPC   PO457792  42.334  12.866   5.855
10080POPC   GL157793  42.335  12.864   6.155
10080POPC   GL257794  42.264  12.921   6.155
10080POPC   C1A57795  42.353  12.831   6.455
10080POPC   D2A57796  42.304  12.812   6.755
10080POPC   C3A57797  42.304  12.862   7.055
10080POPC   C4A57798  42.351  12.810   7.355
10080POPC   C1B57799  42.076  12.974   6.455
10080POPC   C2B57800  42.086  12.932   6.755
10080POPC   C3B57801  42.065  12.901   7.055
10080POPC   C4B57802  42.072  12.976   7.355
10081POPC   NC357803  37.712  30.657   5.555
10081POPC   PO457804  37.650  30.690   5.855
10081POPC   GL157805  37.666  30.659   6.155
10081POPC   GL257806  37.829  30.795   6.155
10081POPC   C1A57807  37.684  30.742   6.455
10081POPC   D2A57808  37.711  30.700   6.755
10081POPC   C3A57809  37.706  30.664   7.055
10081POPC   C4A57810  37.706  30.738   7.355
10081POPC   C1B57811  37.870  30.778   6.455
10081POPC   C2B57812  37.944  30.802   6.755
10081POPC   C3B57813  37.859  30.862   7.055
10081POPC   C4B57814  37.908  30.817   7.355
10082POPC   NC357815   9.732  43.837   5.555
10082POPC   PO457816   9.758  43.921   5.855
10082POPC   GL157817   9.755  43.867   6.155
10082POPC   GL257818   9.887  43.845   6.155
10082POPC   C1A57819   9.701  43.838   6.455
10082POPC   D2A57820   9.730  43.870   6.755
10082POPC   C3A57821   9.795  43.876   7.055
10082POPC   C4A57822   9.794  43.854   7.355
10082POPC   C1B57823   9.983  43.809   6.455
10082POPC   C2B57824   9.983  43.738   6.755
10082POPC   C3B57825   9.959  43.769   7.055
10082POPC   C4B57826   9.924  43.773   7.355
10083POPC   NC357827  30.733  12.086   5.555
10083POPC   PO457828  30.661  12.029   5.855
10083POPC   GL157829  30.708  12.119   6.155
10083POPC   GL257830  30.685  11.996   6.155
10083POPC   C1A57831  30.672  12.063   6.455
10083POPC   D2A57832  30.650  12.074   6.755
10083POPC   C3A57833  30.730  12.047   7.055
10083POPC   C4A57834  30.672  12.082   7.355
10083POPC   C1B57835  30.697  11.831   6.455
10083POPC   C2B57836  30.698  11.791   6.755
10083POPC   C3B57837  30.697  11.783   7.055
10083POPC   C4B57838  30.705  11.858   7.355
10084POPC   NC357839   2.758  29.155   5.555
10084POPC   PO457840   2.757  29.104   5.855
10084POPC   GL157841   2.718  29.106   6.155
10084POPC   GL257842   2.857  29.227   6.155
10084POPC   C1A57843   2.720  29.134   6.455
10084POPC   D2A57844   2.763  29.155   6.755
10084POPC   C3A57845   2.758  29.148   7.055
10084POPC   C4A57846   2.732  29.143   7.355
10084POPC   C1B57847   2.919  29.256   6.455
10084POPC   C2B57848   2.980  29.267   6.755
10084POPC   C3B57849   2.938  29.268   7.055
10084POPC   C4B57850   2.916  29.263   7.355
10085POPC   NC357851  35.308  22.935   5.555
10085POPC   PO457852  35.388  22.890   5.855
10085POPC   GL157853  35.308  22.945   6.155
10085POPC   GL257854  35.486  22.983   6.155
10085POPC   C1A57855  35.370  22.936   6.455
10085POPC   D2A57856  35.341  22.950   6.755
10085POPC   C3A57857  35.332  22.910   7.055
10085POPC   C4A57858  35.325  22.960   7.355
10085POPC   C1B57859  35.515  23.137   6.455
10085POPC   C2B57860  35.584  23.115   6.755
10085POPC   C3B57861  35.572  23.117   7.055
10085POPC   C4B57862  35.573  23.086   7.355
10086POPC   NC357863  22.986  27.548   5.555
10086POPC   PO457864  22.915  27.571   5.855
10086POPC   GL157865  22.950  27.547   6.155
10086POPC   GL257866  22.835  27.521   6.155
10086POPC   C1A57867  22.987  27.605   6.455
10086POPC   D2A57868  22.895  27.643   6.755
10086POPC   C3A57869  22.902  27.577   7.055
10086POPC   C4A57870  22.954  27.610   7.355
10086POPC   C1B57871  22.740  27.532   6.455
10086POPC   C2B57872  22.711  27.526   6.755
10086POPC   C3B57873  22.684  27.476   7.055
10086POPC   C4B57874  22.690  27.549   7.355
10087POPC   NC357875  10.521  15.935   5.555
10087POPC   PO457876  10.532  15.914   5.855
10087POPC   GL157877  10.474  15.953   6.155
10087POPC   GL257878  10.498  16.098   6.155
10087POPC   C1A57879  10.546  15.918   6.455
10087POPC   D2A57880  10.481  15.923   6.755
10087POPC   C3A57881  10.527  15.927   7.055
10087POPC   C4A57882  10.569  15.962   7.355
10087POPC   C1B57883  10.465  16.177   6.455
10087POPC   C2B57884  10.511  16.229   6.755
10087POPC   C3B57885  10.540  16.212   7.055
10087POPC   C4B57886  10.547  16.207   7.355
10088POPC   NC357887  24.494  43.935   5.555
10088POPC   PO457888  24.481  43.916   5.855
10088POPC   GL157889  24.442  43.870   6.155
10088POPC   GL257890  24.546  43.984   6.155
10088POPC   C1A57891  24.441  43.871   6.455
10088POPC   D2A57892  24.530  43.845   6.755
10088POPC   C3A57893  24.468  43.881   7.055
10088POPC   C4A57894  24.457  43.924   7.355
10088POPC   C1B57895  24.566  44.111   6.455
10088POPC   C2B57896  24.495  44.158   6.755
10088POPC   C3B57897  24.475  44.154   7.055
10088POPC   C4B57898  24.487  44.105   7.355
10089POPC   NC357899  26.851  16.690   5.555
10089POPC   PO457900  26.833  16.711   5.855
10089POPC   GL157901  26.779  16.717   6.155
10089POPC   GL257902  26.931  16.771   6.155
10089POPC   C1A57903  26.774  16.719   6.455
10089POPC   D2A57904  26.782  16.773   6.755
10089POPC   C3A57905  26.844  16.778   7.055
10089POPC   C4A57906  26.847  16.717   7.355
10089POPC   C1B57907  26.997  16.848   6.455
10089POPC   C2B57908  27.018  16.901   6.755
10089POPC   C3B57909  26.995  16.920   7.055
10089POPC   C4B57910  27.024  16.916   7.355
10090POPC   NC357911  22.129   4.286   5.555
10090POPC   PO457912  22.117   4.333   5.855
10090POPC   GL157913  22.135   4.331   6.155
10090POPC   GL257914  22.298   4.210   6.155
10090POPC   C1A57915  22.140   4.348   6.455
10090POPC   D2A57916  22.158   4.301   6.755
10090POPC   C3A57917  22.132   4.354   7.055
10090POPC   C4A57918  22.182   4.323   7.355
10090POPC   C1B57919  22.386   4.198   6.455
10090POPC   C2B57920  22.329   4.176   6.755
10090POPC   C3B57921  22.337   4.161   7.055
10090POPC   C4B57922  22.398   4.221   7.355
10091POPC   NC357923  40.004  42.358   5.555
10091POPC   PO457924  39.995  42.366   5.855
10091POPC   GL157925  40.020  42.355   6.155
10091POPC   GL257926  40.141  42.303   6.155
10091POPC   C1A57927  40.008  42.381   6.455
10091POPC   D2A57928  40.025  42.297   6.755
10091POPC   C3A57929  40.015  42.356   7.055
10091POPC   C4A57930  40.026  42.364   7.355
10091POPC   C1B57931  40.220  42.347   6.455
10091POPC   C2B57932  40.210  42.331   6.755
10091POPC   C3B57933  40.236  42.311   7.055
10091POPC   C4B57934  40.239  42.344   7.355
10092POPC   NC357935  14.403  37.711   5.555
10092POPC   PO457936  14.423  37.721   5.855
10092POPC   GL157937  14.371  37.659   6.155
10092POPC   GL257938  14.467  37.582   6.155
10092POPC   C1A57939  14.386  37.728   6.455
10092POPC   D2A57940  14.363  37.653   6.755
10092POPC   C3A57941  14.427  37.683   7.055
10092POPC   C4A57942  14.375  37.703   7.355
10092POPC   C1B57943  14.537  37.501   6.455
10092POPC   C2B57944  14.504  37.489   6.755
10092POPC   C3B57945  14.568  37.509   7.055
10092POPC   C4B57946  14.481  37.508   7.355
10093POPC   NC357947   8.176  17.555   5.555
10093POPC   PO457948   8.187  17.481   5.855
10093POPC   GL157949   8.216  17.489   6.155
10093POPC   GL257950   8.139  17.583   6.155
10093POPC   C1A57951   8.242  17.539   6.455
10093POPC   D2A57952   8.208  17.536   6.755
10093POPC   C3A57953   8.232  17.492   7.055
10093POPC   C4A57954   8.198  17.489   7.355
10093POPC   C1B57955   8.150  17.746   6.455
10093POPC   C2B57956   8.093  17.744   6.755
10093POPC   C3B57957   8.179  17.743   7.055
10093POPC   C4B57958   8.162  17.762   7.355
10094POPC   NC357959  30.666  41.518   5.555
10094POPC   PO457960  30.700  41.577   5.855
10094POPC   GL157961  30.740  41.542   6.155
10094POPC   GL257962  30.834  41.521   6.155
10094POPC   C1A57963  30.670  41.601   6.455
10094POPC   D2A57964  30.673  41.579   6.755
10094POPC   C3A57965  30.734  41.535   7.055
10094POPC   C4A57966  30.715  41.517   7.355
10094POPC   C1B57967  30.977  41.487   6.455
10094POPC   C2B57968  30.951  41.541   6.755
10094POPC   C3B57969  30.970  41.490   7.055
10094POPC   C4B57970  30.951  41.494   7.355
10095POPC   NC357971  11.290  17.545   5.555
10095POPC   PO457972  11.270  17.511   5.855
10095POPC   GL157973  11.294  17.512   6.155
10095POPC   GL257974  11.165  17.501   6.155
10095POPC   C1A57975  11.342  17.515   6.455
10095POPC   D2A57976  11.275  17.511   6.755
10095POPC   C3A57977  11.317  17.490   7.055
10095POPC   C4A57978  11.309  17.543   7.355
10095POPC   C1B57979  11.034  17.517   6.455
10095POPC   C2B57980  11.073  17.472   6.755
10095POPC   C3B57981  11.053  17.472   7.055
10095POPC   C4B57982  11.096  17.484   7.355
10096POPC   NC357983  44.712  26.037   5.555
10096POPC   PO457984  44.636  26.058   5.855
10096POPC   GL157985  44.680  26.058   6.155
10096POPC   GL257986  44.635  25.950   6.155
10096POPC   C1A57987  44.695  26.050   6.455
10096POPC   D2A57988  44.703  26.057   6.755
10096POPC   C3A57989  44.695  26.038   7.055
10096POPC   C4A57990  44.617  26.048   7.355
10096POPC   C1B57991  44.476  25.847   6.455
10096POPC   C2B57992  44.483  25.889   6.755
10096POPC   C3B57993  44.549  25.873   7.055
10096POPC   C4B57994  44.488  25.877   7.355
10097POPC   NC357995  22.168  36.094   5.555
10097POPC   PO457996  22.155  36.139   5.855
10097POPC   GL157997  22.195  36.123   6.155
10097POPC   GL257998  22.228  36.091   6.155
10097POPC   C1A57999  22.201  36.158   6.455
10097POPC   D2A58000  22.150  36.158   6.755
10097POPC   C3A58001  22.202  36.172   7.055
10097POPC   C4A58002  22.207  36.095   7.355
10097POPC   C1B58003  22.388  36.012   6.455
10097POPC   C2B58004  22.375  35.971   6.755
10097POPC   C3B58005  22.344  36.017   7.055
10097POPC   C4B58006  22.325  35.944   7.355
10098POPC   NC358007  25.250   7.430   5.555
10098POPC   PO458008  25.253   7.463   5.855
10098POPC   GL158009  25.305   7.465   6.155
10098POPC   GL258010  25.176   7.551   6.155
10098POPC   C1A58011  25.281   7.406   6.455
10098POPC   D2A58012  25.230   7.440   6.755
10098POPC   C3A58013  25.221   7.465   7.055
10098POPC   C4A58014  25.297   7.435   7.355
10098POPC   C1B58015  25.088   7.631   6.455
10098POPC   C2B58016  25.076   7.646   6.755
10098POPC   C3B58017  25.064   7.605   7.055
10098POPC   C4B58018  25.131   7.614   7.355
10099POPC   NC358019  15.923  26.834   5.555
10099POPC   PO458020  15.959  26.818   5.855
10099POPC   GL158021  15.944  26.845   6.155
10099POPC   GL258022  15.904  26.860   6.155
10099POPC   C1A58023  15.980  26.864   6.455
10099POPC   D2A58024  15.993  26.850   6.755
10099POPC   C3A58025  15.927  26.835   7.055
10099POPC   C4A58026  15.942  26.832   7.355
10099POPC   C1B58027  15.772  26.975   6.455
10099POPC   C2B58028  15.767  27.021   6.755
10099POPC   C3B58029  15.754  27.033   7.055
10099POPC   C4B58030  15.824  26.943   7.355
10100POPC   NC358031  21.413   8.246   5.555
10100POPC   PO458032  21.428   8.152   5.855
10100POPC   GL158033  21.368   8.238   6.155
10100POPC   GL258034  21.266   8.275   6.155
10100POPC   C1A58035  21.433   8.158   6.455
10100POPC   D2A58036  21.417   8.210   6.755
10100POPC   C3A58037  21.415   8.245   7.055
10100POPC   C4A58038  21.386   8.219   7.355
10100POPC   C1B58039  21.185   8.373   6.455
10100POPC   C2B58040  21.210   8.324   6.755
10100POPC   C3B58041  21.197   8.348   7.055
10100POPC   C4B58042  21.195   8.310   7.355
10101POPC   NC358043  12.872  33.831   5.555
10101POPC   PO458044  12.821  33.755   5.855
10101POPC   GL158045  12.838  33.767   6.155
10101POPC   GL258046  12.851  33.894   6.155
10101POPC   C1A58047  12.837  33.818   6.455
10101POPC   D2A58048  12.858  33.846   6.755
10101POPC   C3A58049  12.827  33.814   7.055
10101POPC   C4A58050  12.898  33.840   7.355
10101POPC   C1B58051  12.897  34.045   6.455
10101POPC   C2B58052  12.940  34.048   6.755
10101POPC   C3B58053  12.926  34.019   7.055
10101POPC   C4B58054  12.874  34.006   7.355
10102POPC   NC358055  33.834  32.993   5.555
10102POPC   PO458056  33.773  33.067   5.855
10102POPC   GL158057  33.829  33.006   6.155
10102POPC   GL258058  33.674  33.008   6.155
10102POPC   C1A58059  33.805  32.995   6.455
10102POPC   D2A58060  33.791  32.975   6.755
10102POPC   C3A58061  33.804  33.003   7.055
10102POPC   C4A58062  33.789  33.061   7.355
10102POPC   C1B58063  33.578  33.054   6.455
10102POPC   C2B58064  33.522  33.063   6.755
10102POPC   C3B58065  33.568  33.095   7.055
10102POPC   C4B58066  33.508  33.110   7.355
10103POPC   NC358067   2.724  42.380   5.555
10103POPC   PO458068   2.720  42.321   5.855
10103POPC   GL158069   2.765  42.330   6.155
10103POPC   GL258070   2.752  42.276   6.155
10103POPC   C1A58071   2.739  42.299   6.455
10103POPC   D2A58072   2.721  42.345   6.755
10103POPC   C3A58073   2.813  42.301   7.055
10103POPC   C4A58074   2.786  42.355   7.355
10103POPC   C1B58075   2.594  42.130   6.455
10103POPC   C2B58076   2.684  42.080   6.755
10103POPC   C3B58077   2.665  42.079   7.055
10103POPC   C4B58078   2.618  42.077   7.355
10104POPC   NC358079  30.680  33.002   5.555
10104POPC   PO458080  30.694  33.039   5.855
10104POPC   GL158081  30.677  32.976   6.155
10104POPC   GL258082  30.634  33.090   6.155
10104POPC   C1A58083  30.710  33.072   6.455
10104POPC   D2A58084  30.669  33.002   6.755
10104POPC   C3A58085  30.647  33.023   7.055
10104POPC   C4A58086  30.719  33.029   7.355
10104POPC   C1B58087  30.501  33.174   6.455
10104POPC   C2B58088  30.554  33.256   6.755
10104POPC   C3B58089  30.507  33.166   7.055
10104POPC   C4B58090  30.559  33.206   7.355
10105POPC   NC358091  20.644   8.935   5.555
10105POPC   PO458092  20.636   8.971   5.855
10105POPC   GL158093  20.592   8.983   6.155
10105POPC   GL258094  20.492   8.851   6.155
10105POPC   C1A58095  20.563   8.987   6.455
10105POPC   D2A58096  20.632   8.951   6.755
10105POPC   C3A58097  20.574   8.997   7.055
10105POPC   C4A58098  20.561   8.955   7.355
10105POPC   C1B58099  20.491   8.764   6.455
10105POPC   C2B58100  20.427   8.776   6.755
10105POPC   C3B58101  20.396   8.825   7.055
10105POPC   C4B58102  20.442   8.818   7.355
10106POPC   NC358103   5.853  37.631   5.555
10106POPC   PO458104   5.869  37.667   5.855
10106POPC   GL158105   5.822  37.729   6.155
10106POPC   GL258106   5.703  37.656   6.155
10106POPC   C1A58107   5.830  37.652   6.455
10106POPC   D2A58108   5.917  37.655   6.755
10106POPC   C3A58109   5.831  37.647   7.055
10106POPC   C4A58110   5.840  37.668   7.355
10106POPC   C1B58111   5.641  37.691   6.455
10106POPC   C2B58112   5.579  37.672   6.755
10106POPC   C3B58113   5.620  37.750   7.055
10106POPC   C4B58114   5.591  37.676   7.355
10107POPC   NC358115  17.538   4.329   5.555
10107POPC   PO458116  17.476   4.292   5.855
10107POPC   GL158117  17.497   4.367   6.155
10107POPC   GL258118  17.610   4.234   6.155
10107POPC   C1A58119  17.539   4.350   6.455
10107POPC   D2A58120  17.502   4.313   6.755
10107POPC   C3A58121  17.478   4.320   7.055
10107POPC   C4A58122  17.490   4.358   7.355
10107POPC   C1B58123  17.641   4.062   6.455
10107POPC   C2B58124  17.660   4.063   6.755
10107POPC   C3B58125  17.643   4.119   7.055
10107POPC   C4B58126  17.612   4.090   7.355
10108POPC   NC358127  15.971  34.625   5.555
10108POPC   PO458128  15.996  34.548   5.855
10108POPC   GL158129  15.917  34.611   6.155
10108POPC   GL258130  16.098  34.618   6.155
10108POPC   C1A58131  15.977  34.574   6.455
10108POPC   D2A58132  15.950  34.584   6.755
10108POPC   C3A58133  15.956  34.626   7.055
10108POPC   C4A58134  15.928  34.561   7.355
10108POPC   C1B58135  16.123  34.726   6.455
10108POPC   C2B58136  16.154  34.716   6.755
10108POPC   C3B58137  16.120  34.706   7.055
10108POPC   C4B58138  16.187  34.775   7.355
10109POPC   NC358139   8.197   1.167   5.555
10109POPC   PO458140   8.180   1.175   5.855
10109POPC   GL158141   8.150   1.230   6.155
10109POPC   GL258142   8.137   1.303   6.155
10109POPC   C1A58143   8.177   1.188   6.455
10109POPC   D2A58144   8.244   1.195   6.755
10109POPC   C3A58145   8.151   1.244   7.055
10109POPC   C4A58146   8.209   1.228   7.355
10109POPC   C1B58147   8.104   1.473   6.455
10109POPC   C2B58148   8.114   1.387   6.755
10109POPC   C3B58149   8.103   1.457   7.055
10109POPC   C4B58150   8.107   1.435   7.355
10110POPC   NC358151  29.127   8.987   5.555
10110POPC   PO458152  29.192   8.950   5.855
10110POPC   GL158153  29.113   8.931   6.155
10110POPC   GL258154  29.236   8.918   6.155
10110POPC   C1A58155  29.160   8.983   6.455
10110POPC   D2A58156  29.144   8.939   6.755
10110POPC   C3A58157  29.110   8.992   7.055
10110POPC   C4A58158  29.137   8.970   7.355
10110POPC   C1B58159  29.254   8.757   6.455
10110POPC   C2B58160  29.336   8.801   6.755
10110POPC   C3B58161  29.333   8.775   7.055
10110POPC   C4B58162  29.324   8.798   7.355
10111POPC   NC358163  16.744   7.417   5.555
10111POPC   PO458164  16.774   7.378   5.855
10111POPC   GL158165  16.747   7.451   6.155
10111POPC   GL258166  16.766   7.534   6.155
10111POPC   C1A58167  16.706   7.385   6.455
10111POPC   D2A58168  16.763   7.412   6.755
10111POPC   C3A58169  16.686   7.451   7.055
10111POPC   C4A58170  16.696   7.463   7.355
10111POPC   C1B58171  16.753   7.674   6.455
10111POPC   C2B58172  16.730   7.645   6.755
10111POPC   C3B58173  16.748   7.716   7.055
10111POPC   C4B58174  16.728   7.673   7.355
10112POPC   NC358175   2.040  29.953   5.555
10112POPC   PO458176   2.021  29.906   5.855
10112POPC   GL158177   1.997  29.925   6.155
10112POPC   GL258178   1.859  29.852   6.155
10112POPC   C1A58179   1.989  29.932   6.455
10112POPC   D2A58180   2.001  29.945   6.755
10112POPC   C3A58181   2.037  29.876   7.055
10112POPC   C4A58182   1.945  29.877   7.355
10112POPC   C1B58183   1.735  29.767   6.455
10112POPC   C2B58184   1.814  29.854   6.755
10112POPC   C3B58185   1.734  29.786   7.055
10112POPC   C4B58186   1.736  29.855   7.355
10113POPC   NC358187  14.450  16.743   5.555
10113POPC   PO458188  14.434  16.759   5.855
10113POPC   GL158189  14.415  16.709   6.155
10113POPC   GL258190  14.463  16.834   6.155
10113POPC   C1A58191  14.445  16.757   6.455
10113POPC   D2A58192  14.431  16.693   6.755
10113POPC   C3A58193  14.434  16.713   7.055
10113POPC   C4A58194  14.453  16.703   7.355
10113POPC   C1B58195  14.515  16.892   6.455
10113POPC   C2B58196  14.596  16.891   6.755
10113POPC   C3B58197  14.586  16.888   7.055
10113POPC   C4B58198  14.503  16.927   7.355
10114POPC   NC358199  33.009   1.240   5.555
10114POPC   PO458200  32.981   1.180   5.855
10114POPC   GL158201  32.979   1.198   6.155
10114POPC   GL258202  33.158   1.204   6.155
10114POPC   C1A58203  33.014   1.201   6.455
10114POPC   D2A58204  32.985   1.233   6.755
10114POPC   C3A58205  32.983   1.188   7.055
10114POPC   C4A58206  33.053   1.211   7.355
10114POPC   C1B58207  33.244   1.268   6.455
10114POPC   C2B58208  33.270   1.270   6.755
10114POPC   C3B58209  33.304   1.261   7.055
10114POPC   C4B58210  33.264   1.266   7.355
10115POPC   NC358211   0.445  23.685   5.555
10115POPC   PO458212   0.408  23.694   5.855
10115POPC   GL158213   0.457  23.700   6.155
10115POPC   GL258214   0.448  23.626   6.155
10115POPC   C1A58215   0.476  23.668   6.455
10115POPC   D2A58216   0.476  23.716   6.755
10115POPC   C3A58217   0.457  23.734   7.055
10115POPC   C4A58218   0.481  23.677   7.355
10115POPC   C1B58219   0.451  23.456   6.455
10115POPC   C2B58220   0.474  23.492   6.755
10115POPC   C3B58221   0.509  23.514   7.055
10115POPC   C4B58222   0.432  23.509   7.355
10116POPC   NC358223  17.550  20.563   5.555
10116POPC   PO458224  17.532  20.561   5.855
10116POPC   GL158225  17.527  20.588   6.155
10116POPC   GL258226  17.491  20.770   6.155
10116POPC   C1A58227  17.466  20.648   6.455
10116POPC   D2A58228  17.519  20.617   6.755
10116POPC   C3A58229  17.458  20.589   7.055
10116POPC   C4A58230  17.468  20.606   7.355
10116POPC   C1B58231  17.452  20.862   6.455
10116POPC   C2B58232  17.479  20.808   6.755
10116POPC   C3B58233  17.486  20.851   7.055
10116POPC   C4B58234  17.489  20.881   7.355
10117POPC   NC358235  23.758  42.338   5.555
10117POPC   PO458236  23.740  42.355   5.855
10117POPC   GL158237  23.759  42.366   6.155
10117POPC   GL258238  23.639  42.260   6.155
10117POPC   C1A58239  23.742  42.312   6.455
10117POPC   D2A58240  23.698  42.350   6.755
10117POPC   C3A58241  23.697  42.291   7.055
10117POPC   C4A58242  23.672  42.383   7.355
10117POPC   C1B58243  23.511  42.310   6.455
10117POPC   C2B58244  23.455  42.299   6.755
10117POPC   C3B58245  23.503  42.292   7.055
10117POPC   C4B58246  23.426  42.269   7.355
10118POPC   NC358247   0.442   1.960   5.555
10118POPC   PO458248   0.439   1.995   5.855
10118POPC   GL158249   0.462   2.007   6.155
10118POPC   GL258250   0.434   1.892   6.155
10118POPC   C1A58251   0.416   1.981   6.455
10118POPC   D2A58252   0.449   1.983   6.755
10118POPC   C3A58253   0.418   1.953   7.055
10118POPC   C4A58254   0.401   2.001   7.355
10118POPC   C1B58255   0.480   1.784   6.455
10118POPC   C2B58256   0.418   1.750   6.755
10118POPC   C3B58257   0.431   1.709   7.055
10118POPC   C4B58258   0.426   1.758   7.355
10119POPC   NC358259  38.504  33.015   5.555
10119POPC   PO458260  38.408  33.053   5.855
10119POPC   GL158261  38.417  33.027   6.155
10119POPC   GL258262  38.617  33.004   6.155
10119POPC   C1A58263  38.410  33.005   6.455
10119POPC   D2A58264  38.431  33.012   6.755
10119POPC   C3A58265  38.423  33.033   7.055
10119POPC   C4A58266  38.432  33.044   7.355
10119POPC   C1B58267  38.731  32.988   6.455
10119POPC   C2B58268  38.701  32.976   6.755
10119POPC   C3B58269  38.683  33.016   7.055
10119POPC   C4B58270  38.665  32.999   7.355
10120POPC   NC358271  43.083  26.777   5.555
10120POPC   PO458272  43.144  26.795   5.855
10120POPC   GL158273  43.117  26.808   6.155
10120POPC   GL258274  43.211  26.836   6.155
10120POPC   C1A58275  43.124  26.848   6.455
10120POPC   D2A58276  43.157  26.832   6.755
10120POPC   C3A58277  43.070  26.859   7.055
10120POPC   C4A58278  43.085  26.768   7.355
10120POPC   C1B58279  43.404  26.885   6.455
10120POPC   C2B58280  43.372  26.854   6.755
10120POPC   C3B58281  43.354  26.837   7.055
10120POPC   C4B58282  43.359  26.892   7.355
10121POPC   NC358283  28.343  31.490   5.555
10121POPC   PO458284  28.405  31.484   5.855
10121POPC   GL158285  28.356  31.424   6.155
10121POPC   GL258286  28.412  31.591   6.155
10121POPC   C1A58287  28.337  31.475   6.455
10121POPC   D2A58288  28.326  31.463   6.755
10121POPC   C3A58289  28.412  31.501   7.055
10121POPC   C4A58290  28.320  31.469   7.355
10121POPC   C1B58291  28.396  31.690   6.455
10121POPC   C2B58292  28.390  31.686   6.755
10121POPC   C3B58293  28.415  31.693   7.055
10121POPC   C4B58294  28.368  31.759   7.355
10122POPC   NC358295  20.592   8.241   5.555
10122POPC   PO458296  20.656   8.192   5.855
10122POPC   GL158297  20.647   8.228   6.155
10122POPC   GL258298  20.555   8.353   6.155
10122POPC   C1A58299  20.623   8.186   6.455
10122POPC   D2A58300  20.628   8.201   6.755
10122POPC   C3A58301  20.632   8.229   7.055
10122POPC   C4A58302  20.571   8.150   7.355
10122POPC   C1B58303  20.493   8.431   6.455
10122POPC   C2B58304  20.573   8.479   6.755
10122POPC   C3B58305  20.553   8.442   7.055
10122POPC   C4B58306  20.582   8.452   7.355
10123POPC   NC358307   9.731  19.871   5.555
10123POPC   PO458308   9.766  19.883   5.855
10123POPC   GL158309   9.747  19.823   6.155
10123POPC   GL258310   9.641  19.687   6.155
10123POPC   C1A58311   9.795  19.865   6.455
10123POPC   D2A58312   9.749  19.884   6.755
10123POPC   C3A58313   9.795  19.850   7.055
10123POPC   C4A58314   9.714  19.857   7.355
10123POPC   C1B58315   9.556  19.647   6.455
10123POPC   C2B58316   9.640  19.630   6.755
10123POPC   C3B58317   9.645  19.684   7.055
10123POPC   C4B58318   9.564  19.591   7.355
10124POPC   NC358319  16.767  36.911   5.555
10124POPC   PO458320  16.744  36.949   5.855
10124POPC   GL158321  16.688  36.952   6.155
10124POPC   GL258322  16.703  36.963   6.155
10124POPC   C1A58323  16.685  36.926   6.455
10124POPC   D2A58324  16.758  36.927   6.755
10124POPC   C3A58325  16.774  36.913   7.055
10124POPC   C4A58326  16.711  36.918   7.355
10124POPC   C1B58327  16.605  37.070   6.455
10124POPC   C2B58328  16.556  37.085   6.755
10124POPC   C3B58329  16.623  37.133   7.055
10124POPC   C4B58330  16.616  37.127   7.355
10125POPC   NC358331  44.655  29.139   5.555
10125POPC   PO458332  44.704  29.162   5.855
10125POPC   GL158333  44.685  29.144   6.155
10125POPC   GL258334  44.776  29.105   6.155
10125POPC   C1A58335  44.631  29.173   6.455
10125POPC   D2A58336  44.620  29.152   6.755
10125POPC   C3A58337  44.624  29.185   7.055
10125POPC   C4A58338  44.670  29.194   7.355
10125POPC   C1B58339  44.916  29.133   6.455
10125POPC   C2B58340  44.889  29.183   6.755
10125POPC   C3B58341  44.906  29.158   7.055
10125POPC   C4B58342  44.901  29.128   7.355
10126POPC   NC358343  13.660  17.521   5.555
10126POPC   PO458344  13.641  17.475   5.855
10126POPC   GL158345  13.624  17.493   6.155
10126POPC   GL258346  13.564  17.608   6.155
10126POPC   C1A58347  13.634  17.541   6.455
10126POPC   D2A58348  13.600  17.540   6.755
10126POPC   C3A58349  13.614  17.550   7.055
10126POPC   C4A58350  13.607  17.470   7.355
10126POPC   C1B58351  13.415  17.702   6.455
10126POPC   C2B58352  13.469  17.619   6.755
10126POPC   C3B58353  13.444  17.642   7.055
10126POPC   C4B58354  13.427  17.621   7.355
10127POPC   NC358355   3.562   2.789   5.555
10127POPC   PO458356   3.496   2.735   5.855
10127POPC   GL158357   3.509   2.764   6.155
10127POPC   GL258358   3.642   2.762   6.155
10127POPC   C1A58359   3.587   2.724   6.455
10127POPC   D2A58360   3.530   2.762   6.755
10127POPC   C3A58361   3.563   2.721   7.055
10127POPC   C4A58362   3.516   2.811   7.355
10127POPC   C1B58363   3.780   2.873   6.455
10127POPC   C2B58364   3.808   2.844   6.755
10127POPC   C3B58365   3.737   2.863   7.055
10127POPC   C4B58366   3.784   2.826   7.355
10128POPC   NC358367  35.396  25.224   5.555
10128POPC   PO458368  35.332  25.242   5.855
10128POPC   GL158369  35.334  25.290   6.155
10128POPC   GL258370  35.274  25.104   6.155
10128POPC   C1A58371  35.360  25.283   6.455
10128POPC   D2A58372  35.354  25.256   6.755
10128POPC   C3A58373  35.353  25.241   7.055
10128POPC   C4A58374  35.359  25.220   7.355
10128POPC   C1B58375  35.218  25.041   6.455
10128POPC   C2B58376  35.257  25.050   6.755
10128POPC   C3B58377  35.291  25.043   7.055
10128POPC   C4B58378  35.215  25.042   7.355
10129POPC   NC358379  31.442  35.399   5.555
10129POPC   PO458380  31.457  35.315   5.855
10129POPC   GL158381  31.470  35.326   6.155
10129POPC   GL258382  31.477  35.427   6.155
10129POPC   C1A58383  31.452  35.376   6.455
10129POPC   D2A58384  31.481  35.363   6.755
10129POPC   C3A58385  31.432  35.381   7.055
10129POPC   C4A58386  31.495  35.314   7.355
10129POPC   C1B58387  31.393  35.586   6.455
10129POPC   C2B58388  31.367  35.598   6.755
10129POPC   C3B58389  31.420  35.641   7.055
10129POPC   C4B58390  31.416  35.613   7.355
10130POPC   NC358391  36.131  25.289   5.555
10130POPC   PO458392  36.137  25.272   5.855
10130POPC   GL158393  36.150  25.269   6.155
10130POPC   GL258394  36.223  25.358   6.155
10130POPC   C1A58395  36.117  25.280   6.455
10130POPC   D2A58396  36.109  25.312   6.755
10130POPC   C3A58397  36.153  25.310   7.055
10130POPC   C4A58398  36.132  25.229   7.355
10130POPC   C1B58399  36.190  25.501   6.455
10130POPC   C2B58400  36.212  25.496   6.755
10130POPC   C3B58401  36.196  25.527   7.055
10130POPC   C4B58402  36.191  25.476   7.355
10131POPC   NC358403  12.878  27.629   5.555
10131POPC   PO458404  12.850  27.639   5.855
10131POPC   GL158405  12.850  27.567   6.155
10131POPC   GL258406  12.896  27.529   6.155
10131POPC   C1A58407  12.844  27.592   6.455
10131POPC   D2A58408  12.821  27.642   6.755
10131POPC   C3A58409  12.881  27.605   7.055
10131POPC   C4A58410  12.859  27.618   7.355
10131POPC   C1B58411  13.079  27.459   6.455
10131POPC   C2B58412  13.034  27.443   6.755
10131POPC   C3B58413  13.013  27.449   7.055
10131POPC   C4B58414  13.061  27.402   7.355
10132POPC   NC358415  13.584  27.573   5.555
10132POPC   PO458416  13.600  27.600   5.855
10132POPC   GL158417  13.594  27.617   6.155
10132POPC   GL258418  13.535  27.583   6.155
10132POPC   C1A58419  13.602  27.616   6.455
10132POPC   D2A58420  13.639  27.610   6.755
10132POPC   C3A58421  13.640  27.610   7.055
10132POPC   C4A58422  13.652  27.564   7.355
10132POPC   C1B58423  13.360  27.436   6.455
10132POPC   C2B58424  13.434  27.526   6.755
10132POPC   C3B58425  13.423  27.484   7.055
10132POPC   C4B58426  13.448  27.479   7.355
10133POPC   NC358427  23.753   3.577   5.555
10133POPC   PO458428  23.671   3.530   5.855
10133POPC   GL158429  23.736   3.581   6.155
10133POPC   GL258430  23.626   3.501   6.155
10133POPC   C1A58431  23.673   3.563   6.455
10133POPC   D2A58432  23.702   3.509   6.755
10133POPC   C3A58433  23.758   3.538   7.055
10133POPC   C4A58434  23.720   3.566   7.355
10133POPC   C1B58435  23.477   3.451   6.455
10133POPC   C2B58436  23.535   3.399   6.755
10133POPC   C3B58437  23.476   3.399   7.055
10133POPC   C4B58438  23.461   3.451   7.355
10134POPC   NC358439  35.358   2.739   5.555
10134POPC   PO458440  35.310   2.731   5.855
10134POPC   GL158441  35.397   2.758   6.155
10134POPC   GL258442  35.356   2.924   6.155
10134POPC   C1A58443  35.313   2.778   6.455
10134POPC   D2A58444  35.381   2.732   6.755
10134POPC   C3A58445  35.337   2.801   7.055
10134POPC   C4A58446  35.372   2.746   7.355
10134POPC   C1B58447  35.411   2.998   6.455
10134POPC   C2B58448  35.443   3.031   6.755
10134POPC   C3B58449  35.456   2.972   7.055
10134POPC   C4B58450  35.434   3.050   7.355
10135POPC   NC358451  27.580  15.986   5.555
10135POPC   PO458452  27.610  15.975   5.855
10135POPC   GL158453  27.601  15.959   6.155
10135POPC   GL258454  27.562  16.086   6.155
10135POPC   C1A58455  27.605  15.906   6.455
10135POPC   D2A58456  27.549  15.921   6.755
10135POPC   C3A58457  27.581  15.988   7.055
10135POPC   C4A58458  27.567  15.935   7.355
10135POPC   C1B58459  27.393  16.147   6.455
10135POPC   C2B58460  27.447  16.179   6.755
10135POPC   C3B58461  27.432  16.166   7.055
10135POPC   C4B58462  27.400  16.113   7.355
10136POPC   NC358463  44.709  22.943   5.555
10136POPC   PO458464  44.632  22.917   5.855
10136POPC   GL158465  44.690  22.911   6.155
10136POPC   GL258466  44.625  23.066   6.155
10136POPC   C1A58467  44.650  22.947   6.455
10136POPC   D2A58468  44.652  22.928   6.755
10136POPC   C3A58469  44.613  22.918   7.055
10136POPC   C4A58470  44.640  22.907   7.355
10136POPC   C1B58471  44.506  23.127   6.455
10136POPC   C2B58472  44.577  23.160   6.755
10136POPC   C3B58473  44.560  23.116   7.055
10136POPC   C4B58474  44.538  23.204   7.355
10137POPC   NC358475  18.263  31.513   5.555
10137POPC   PO458476  18.260  31.456   5.855
10137POPC   GL158477  18.299  31.492   6.155
10137POPC   GL258478  18.445  31.540   6.155
10137POPC   C1A58479  18.276  31.431   6.455
10137POPC   D2A58480  18.311  31.441   6.755
10137POPC   C3A58481  18.250  31.520   7.055
10137POPC   C4A58482  18.244  31.478   7.355
10137POPC   C1B58483  18.501  31.490   6.455
10137POPC   C2B58484  18.493  31.516   6.755
10137POPC   C3B58485  18.505  31.513   7.055
10137POPC   C4B58486  18.570  31.544   7.355
10138POPC   NC358487  43.855   2.003   5.555
10138POPC   PO458488  43.898   1.985   5.855
10138POPC   GL158489  43.882   1.982   6.155
10138POPC   GL258490  43.980   2.090   6.155
10138POPC   C1A58491  43.876   1.994   6.455
10138POPC   D2A58492  43.848   2.012   6.755
10138POPC   C3A58493  43.870   2.016   7.055
10138POPC   C4A58494  43.903   1.968   7.355
10138POPC   C1B58495  44.136   2.137   6.455
10138POPC   C2B58496  44.155   2.118   6.755
10138POPC   C3B58497  44.125   2.065   7.055
10138POPC   C4B58498  44.150   2.141   7.355
10139POPC   NC358499  38.463   4.335   5.555
10139POPC   PO458500  38.450   4.345   5.855
10139POPC   GL158501  38.416   4.270   6.155
10139POPC   GL258502  38.592   4.264   6.155
10139POPC   C1A58503  38.416   4.366   6.455
10139POPC   D2A58504  38.468   4.328   6.755
10139POPC   C3A58505  38.427   4.313   7.055
10139POPC   C4A58506  38.412   4.311   7.355
10139POPC   C1B58507  38.659   4.180   6.455
10139POPC   C2B58508  38.659   4.176   6.755
10139POPC   C3B58509  38.683   4.186   7.055
10139POPC   C4B58510  38.660   4.271   7.355
10140POPC   NC358511   5.846  40.787   5.555
10140POPC   PO458512   5.898  40.826   5.855
10140POPC   GL158513   5.885  40.796   6.155
10140POPC   GL258514   5.768  40.829   6.155
10140POPC   C1A58515   5.819  40.743   6.455
10140POPC   D2A58516   5.885  40.796   6.755
10140POPC   C3A58517   5.834  40.775   7.055
10140POPC   C4A58518   5.869  40.763   7.355
10140POPC   C1B58519   5.682  40.910   6.455
10140POPC   C2B58520   5.700  40.973   6.755
10140POPC   C3B58521   5.727  40.907   7.055
10140POPC   C4B58522   5.682  40.954   7.355
10141POPC   NC358523  31.444   7.396   5.555
10141POPC   PO458524  31.432   7.436   5.855
10141POPC   GL158525  31.442   7.379   6.155
10141POPC   GL258526  31.369   7.487   6.155
10141POPC   C1A58527  31.441   7.462   6.455
10141POPC   D2A58528  31.494   7.459   6.755
10141POPC   C3A58529  31.480   7.402   7.055
10141POPC   C4A58530  31.468   7.440   7.355
10141POPC   C1B58531  31.290   7.631   6.455
10141POPC   C2B58532  31.282   7.597   6.755
10141POPC   C3B58533  31.316   7.629   7.055
10141POPC   C4B58534  31.298   7.605   7.355
10142POPC   NC358535  37.715   1.992   5.555
10142POPC   PO458536  37.699   1.985   5.855
10142POPC   GL158537  37.670   2.019   6.155
10142POPC   GL258538  37.726   1.912   6.155
10142POPC   C1A58539  37.722   1.958   6.455
10142POPC   D2A58540  37.699   2.014   6.755
10142POPC   C3A58541  37.676   2.006   7.055
10142POPC   C4A58542  37.636   1.981   7.355
10142POPC   C1B58543  37.907   1.863   6.455
10142POPC   C2B58544  37.887   1.802   6.755
10142POPC   C3B58545  37.843   1.836   7.055
10142POPC   C4B58546  37.859   1.845   7.355
10143POPC   NC358547  40.752  31.444   5.555
10143POPC   PO458548  40.759  31.515   5.855
10143POPC   GL158549  40.808  31.517   6.155
10143POPC   GL258550  40.849  31.499   6.155
10143POPC   C1A58551  40.777  31.507   6.455
10143POPC   D2A58552  40.775  31.481   6.755
10143POPC   C3A58553  40.785  31.451   7.055
10143POPC   C4A58554  40.772  31.424   7.355
10143POPC   C1B58555  41.028  31.560   6.455
10143POPC   C2B58556  41.041  31.601   6.755
10143POPC   C3B58557  40.987  31.612   7.055
10143POPC   C4B58558  41.013  31.650   7.355
10144POPC   NC358559  29.924  39.217   5.555
10144POPC   PO458560  29.874  39.240   5.855
10144POPC   GL158561  29.909  39.182   6.155
10144POPC   GL258562  30.065  39.224   6.155
10144POPC   C1A58563  29.889  39.257   6.455
10144POPC   D2A58564  29.883  39.265   6.755
10144POPC   C3A58565  29.950  39.247   7.055
10144POPC   C4A58566  29.938  39.202   7.355
10144POPC   C1B58567  30.148  39.306   6.455
10144POPC   C2B58568  30.148  39.293   6.755
10144POPC   C3B58569  30.160  39.301   7.055
10144POPC   C4B58570  30.146  39.299   7.355
10145POPC   NC358571   3.539   0.417   5.555
10145POPC   PO458572   3.498   0.468   5.855
10145POPC   GL158573   3.513   0.486   6.155
10145POPC   GL258574   3.655   0.523   6.155
10145POPC   C1A58575   3.506   0.461   6.455
10145POPC   D2A58576   3.556   0.487   6.755
10145POPC   C3A58577   3.537   0.447   7.055
10145POPC   C4A58578   3.492   0.391   7.355
10145POPC   C1B58579   3.745   0.558   6.455
10145POPC   C2B58580   3.810   0.549   6.755
10145POPC   C3B58581   3.812   0.526   7.055
10145POPC   C4B58582   3.797   0.491   7.355
10146POPC   NC358583  19.864  33.765   5.555
10146POPC   PO458584  19.828  33.789   5.855
10146POPC   GL158585  19.823  33.762   6.155
10146POPC   GL258586  19.900  33.730   6.155
10146POPC   C1A58587  19.874  33.841   6.455
10146POPC   D2A58588  19.811  33.844   6.755
10146POPC   C3A58589  19.842  33.799   7.055
10146POPC   C4A58590  19.818  33.770   7.355
10146POPC   C1B58591  20.000  33.594   6.455
10146POPC   C2B58592  19.986  33.619   6.755
10146POPC   C3B58593  19.946  33.553   7.055
10146POPC   C4B58594  19.928  33.598   7.355
10147POPC   NC358595  19.863  21.360   5.555
10147POPC   PO458596  19.790  21.399   5.855
10147POPC   GL158597  19.820  21.371   6.155
10147POPC   GL258598  19.708  21.352   6.155
10147POPC   C1A58599  19.854  21.349   6.455
10147POPC   D2A58600  19.877  21.427   6.755
10147POPC   C3A58601  19.807  21.429   7.055
10147POPC   C4A58602  19.883  21.360   7.355
10147POPC   C1B58603  19.654  21.246   6.455
10147POPC   C2B58604  19.618  21.249   6.755
10147POPC   C3B58605  19.648  21.202   7.055
10147POPC   C4B58606  19.691  21.174   7.355
10148POPC   NC358607   6.600   9.764   5.555
10148POPC   PO458608   6.598   9.730   5.855
10148POPC   GL158609   6.638   9.701   6.155
10148POPC   GL258610   6.702   9.858   6.155
10148POPC   C1A58611   6.598   9.790   6.455
10148POPC   D2A58612   6.653   9.785   6.755
10148POPC   C3A58613   6.635   9.711   7.055
10148POPC   C4A58614   6.690   9.774   7.355
10148POPC   C1B58615   6.719   9.945   6.455
10148POPC   C2B58616   6.690  10.024   6.755
10148POPC   C3B58617   6.706   9.957   7.055
10148POPC   C4B58618   6.737  10.026   7.355
10149POPC   NC358619   4.296   2.735   5.555
10149POPC   PO458620   4.300   2.790   5.855
10149POPC   GL158621   4.364   2.725   6.155
10149POPC   GL258622   4.221   2.736   6.155
10149POPC   C1A58623   4.358   2.783   6.455
10149POPC   D2A58624   4.294   2.719   6.755
10149POPC   C3A58625   4.364   2.741   7.055
10149POPC   C4A58626   4.277   2.722   7.355
10149POPC   C1B58627   4.069   2.801   6.455
10149POPC   C2B58628   4.117   2.843   6.755
10149POPC   C3B58629   4.108   2.803   7.055
10149POPC   C4B58630   4.089   2.756   7.355
10150POPC   NC358631   2.726   5.878   5.555
10150POPC   PO458632   2.797   5.839   5.855
10150POPC   GL158633   2.799   5.903   6.155
10150POPC   GL258634   2.731   5.721   6.155
10150POPC   C1A58635   2.744   5.849   6.455
10150POPC   D2A58636   2.756   5.886   6.755
10150POPC   C3A58637   2.718   5.866   7.055
10150POPC   C4A58638   2.755   5.847   7.355
10150POPC   C1B58639   2.794   5.649   6.455
10150POPC   C2B58640   2.795   5.593   6.755
10150POPC   C3B58641   2.761   5.645   7.055
10150POPC   C4B58642   2.760   5.582   7.355
10151POPC   NC358643  15.997   8.229   5.555
10151POPC   PO458644  15.969   8.190   5.855
10151POPC   GL158645  15.994   8.148   6.155
10151POPC   GL258646  16.040   8.195   6.155
10151POPC   C1A58647  15.956   8.224   6.455
10151POPC   D2A58648  15.971   8.189   6.755
10151POPC   C3A58649  15.941   8.152   7.055
10151POPC   C4A58650  15.969   8.164   7.355
10151POPC   C1B58651  16.159   8.067   6.455
10151POPC   C2B58652  16.165   8.069   6.755
10151POPC   C3B58653  16.223   8.106   7.055
10151POPC   C4B58654  16.186   8.082   7.355
10152POPC   NC358655   8.161  33.019   5.555
10152POPC   PO458656   8.171  33.040   5.855
10152POPC   GL158657   8.201  33.049   6.155
10152POPC   GL258658   8.309  32.937   6.155
10152POPC   C1A58659   8.211  32.983   6.455
10152POPC   D2A58660   8.149  33.060   6.755
10152POPC   C3A58661   8.149  32.976   7.055
10152POPC   C4A58662   8.211  33.046   7.355
10152POPC   C1B58663   8.374  32.896   6.455
10152POPC   C2B58664   8.405  32.893   6.755
10152POPC   C3B58665   8.412  32.813   7.055
10152POPC   C4B58666   8.391  32.857   7.355
10153POPC   NC358667  15.195  32.990   5.555
10153POPC   PO458668  15.142  33.035   5.855
10153POPC   GL158669  15.171  33.058   6.155
10153POPC   GL258670  15.091  33.050   6.155
10153POPC   C1A58671  15.165  32.991   6.455
10153POPC   D2A58672  15.206  33.001   6.755
10153POPC   C3A58673  15.222  33.058   7.055
10153POPC   C4A58674  15.170  33.053   7.355
10153POPC   C1B58675  14.930  33.156   6.455
10153POPC   C2B58676  14.945  33.172   6.755
10153POPC   C3B58677  14.958  33.135   7.055
10153POPC   C4B58678  14.965  33.104   7.355
10154POPC   NC358679   8.186  40.005   5.555
10154POPC   PO458680   8.238  40.032   5.855
10154POPC   GL158681   8.224  40.027   6.155
10154POPC   GL258682   8.122  39.906   6.155
10154POPC   C1A58683   8.196  39.974   6.455
10154POPC   D2A58684   8.179  40.008   6.755
10154POPC   C3A58685   8.165  39.974   7.055
10154POPC   C4A58686   8.149  40.025   7.355
10154POPC   C1B58687   7.985  39.855   6.455
10154POPC   C2B58688   7.964  39.820   6.755
10154POPC   C3B58689   7.989  39.821   7.055
10154POPC   C4B58690   7.991  39.847   7.355
10155POPC   NC358691  37.680   1.197   5.555
10155POPC   PO458692  37.663   1.232   5.855
10155POPC   GL158693  37.689   1.215   6.155
10155POPC   GL258694  37.636   1.139   6.155
10155POPC   C1A58695  37.637   1.183   6.455
10155POPC   D2A58696  37.686   1.195   6.755
10155POPC   C3A58697  37.646   1.261   7.055
10155POPC   C4A58698  37.711   1.260   7.355
10155POPC   C1B58699  37.597   0.978   6.455
10155POPC   C2B58700  37.613   0.932   6.755
10155POPC   C3B58701  37.630   0.938   7.055
10155POPC   C4B58702  37.640   0.960   7.355
10156POPC   NC358703  35.383   3.527   5.555
10156POPC   PO458704  35.396   3.544   5.855
10156POPC   GL158705  35.318   3.584   6.155
10156POPC   GL258706  35.460   3.478   6.155
10156POPC   C1A58707  35.394   3.538   6.455
10156POPC   D2A58708  35.324   3.566   6.755
10156POPC   C3A58709  35.303   3.550   7.055
10156POPC   C4A58710  35.348   3.529   7.355
10156POPC   C1B58711  35.466   3.310   6.455
10156POPC   C2B58712  35.524   3.354   6.755
10156POPC   C3B58713  35.461   3.356   7.055
10156POPC   C4B58714  35.463   3.302   7.355
10157POPC   NC358715  38.445  14.419   5.555
10157POPC   PO458716  38.485  14.448   5.855
10157POPC   GL158717  38.449  14.413   6.155
10157POPC   GL258718  38.400  14.323   6.155
10157POPC   C1A58719  38.414  14.407   6.455
10157POPC   D2A58720  38.434  14.375   6.755
10157POPC   C3A58721  38.434  14.407   7.055
10157POPC   C4A58722  38.478  14.437   7.355
10157POPC   C1B58723  38.396  14.136   6.455
10157POPC   C2B58724  38.400  14.158   6.755
10157POPC   C3B58725  38.409  14.205   7.055
10157POPC   C4B58726  38.417  14.200   7.355
10158POPC   NC358727  44.673   3.495   5.555
10158POPC   PO458728  44.664   3.580   5.855
10158POPC   GL158729  44.626   3.525   6.155
10158POPC   GL258730  44.753   3.622   6.155
10158POPC   C1A58731  44.663   3.558   6.455
10158POPC   D2A58732  44.702   3.548   6.755
10158POPC   C3A58733  44.708   3.586   7.055
10158POPC   C4A58734  44.658   3.543   7.355
10158POPC   C1B58735  44.734   3.785   6.455
10158POPC   C2B58736  44.780   3.791   6.755
10158POPC   C3B58737  44.804   3.790   7.055
10158POPC   C4B58738  44.741   3.738   7.355
10159POPC   NC358739   0.474  19.019   5.555
10159POPC   PO458740   0.428  19.075   5.855
10159POPC   GL158741   0.404  19.079   6.155
10159POPC   GL258742   0.527  19.125   6.155
10159POPC   C1A58743   0.460  19.016   6.455
10159POPC   D2A58744   0.448  19.061   6.755
10159POPC   C3A58745   0.430  19.103   7.055
10159POPC   C4A58746   0.427  19.096   7.355
10159POPC   C1B58747   0.634  19.285   6.455
10159POPC   C2B58748   0.630  19.277   6.755
10159POPC   C3B58749   0.627  19.243   7.055
10159POPC   C4B58750   0.627  19.209   7.355
10160POPC   NC358751  15.941  12.088   5.555
10160POPC   PO458752  15.966  12.059   5.855
10160POPC   GL158753  15.938  12.120   6.155
10160POPC   GL258754  16.046  12.067   6.155
10160POPC   C1A58755  15.925  12.041   6.455
10160POPC   D2A58756  15.998  12.042   6.755
10160POPC   C3A58757  15.979  12.074   7.055
10160POPC   C4A58758  15.948  12.073   7.355
10160POPC   C1B58759  16.230  12.006   6.455
10160POPC   C2B58760  16.240  12.022   6.755
10160POPC   C3B58761  16.247  12.002   7.055
10160POPC   C4B58762  16.192  12.027   7.355
10161POPC   NC358763  27.616  36.882   5.555
10161POPC   PO458764  27.583  36.941   5.855
10161POPC   GL158765  27.620  36.867   6.155
10161POPC   GL258766  27.656  36.801   6.155
10161POPC   C1A58767  27.609  36.860   6.455
10161POPC   D2A58768  27.610  36.941   6.755
10161POPC   C3A58769  27.547  36.948   7.055
10161POPC   C4A58770  27.610  36.869   7.355
10161POPC   C1B58771  27.602  36.613   6.455
10161POPC   C2B58772  27.627  36.660   6.755
10161POPC   C3B58773  27.585  36.668   7.055
10161POPC   C4B58774  27.590  36.685   7.355
10162POPC   NC358775  36.902   2.778   5.555
10162POPC   PO458776  36.878   2.814   5.855
10162POPC   GL158777  36.917   2.778   6.155
10162POPC   GL258778  36.997   2.850   6.155
10162POPC   C1A58779  36.948   2.740   6.455
10162POPC   D2A58780  36.921   2.735   6.755
10162POPC   C3A58781  36.901   2.792   7.055
10162POPC   C4A58782  36.912   2.746   7.355
10162POPC   C1B58783  37.056   2.898   6.455
10162POPC   C2B58784  37.117   2.899   6.755
10162POPC   C3B58785  37.049   2.980   7.055
10162POPC   C4B58786  37.061   2.964   7.355
10163POPC   NC358787   5.119  12.819   5.555
10163POPC   PO458788   5.130  12.829   5.855
10163POPC   GL158789   5.063  12.839   6.155
10163POPC   GL258790   5.013  12.709   6.155
10163POPC   C1A58791   5.096  12.895   6.455
10163POPC   D2A58792   5.051  12.826   6.755
10163POPC   C3A58793   5.127  12.830   7.055
10163POPC   C4A58794   5.112  12.898   7.355
10163POPC   C1B58795   4.998  12.621   6.455
10163POPC   C2B58796   4.979  12.617   6.755
10163POPC   C3B58797   5.001  12.661   7.055
10163POPC   C4B58798   5.001  12.673   7.355
10164POPC   NC358799  41.560  29.965   5.555
10164POPC   PO458800  41.513  29.946   5.855
10164POPC   GL158801  41.595  29.948   6.155
10164POPC   GL258802  41.533  30.055   6.155
10164POPC   C1A58803  41.535  29.899   6.455
10164POPC   D2A58804  41.545  29.923   6.755
10164POPC   C3A58805  41.551  29.873   7.055
10164POPC   C4A58806  41.560  29.894   7.355
10164POPC   C1B58807  41.444  30.121   6.455
10164POPC   C2B58808  41.476  30.187   6.755
10164POPC   C3B58809  41.447  30.191   7.055
10164POPC   C4B58810  41.479  30.174   7.355
10165POPC   NC358811  43.104  20.638   5.555
10165POPC   PO458812  43.136  20.596   5.855
10165POPC   GL158813  43.103  20.610   6.155
10165POPC   GL258814  42.986  20.571   6.155
10165POPC   C1A58815  43.140  20.584   6.455
10165POPC   D2A58816  43.158  20.571   6.755
10165POPC   C3A58817  43.098  20.598   7.055
10165POPC   C4A58818  43.118  20.606   7.355
10165POPC   C1B58819  42.871  20.603   6.455
10165POPC   C2B58820  42.881  20.604   6.755
10165POPC   C3B58821  42.889  20.580   7.055
10165POPC   C4B58822  42.902  20.534   7.355
10166POPC   NC358823  23.717  28.334   5.555
10166POPC   PO458824  23.756  28.336   5.855
10166POPC   GL158825  23.671  28.366   6.155
10166POPC   GL258826  23.695  28.484   6.155
10166POPC   C1A58827  23.697  28.374   6.455
10166POPC   D2A58828  23.704  28.369   6.755
10166POPC   C3A58829  23.754  28.368   7.055
10166POPC   C4A58830  23.758  28.390   7.355
10166POPC   C1B58831  23.552  28.559   6.455
10166POPC   C2B58832  23.585  28.596   6.755
10166POPC   C3B58833  23.593  28.574   7.055
10166POPC   C4B58834  23.562  28.549   7.355
10167POPC   NC358835  34.577  29.132   5.555
10167POPC   PO458836  34.571  29.132   5.855
10167POPC   GL158837  34.572  29.139   6.155
10167POPC   GL258838  34.463  29.094   6.155
10167POPC   C1A58839  34.541  29.105   6.455
10167POPC   D2A58840  34.591  29.130   6.755
10167POPC   C3A58841  34.528  29.129   7.055
10167POPC   C4A58842  34.600  29.124   7.355
10167POPC   C1B58843  34.319  29.062   6.455
10167POPC   C2B58844  34.362  29.129   6.755
10167POPC   C3B58845  34.335  29.058   7.055
10167POPC   C4B58846  34.356  29.098   7.355
10168POPC   NC358847  39.227  10.507   5.555
10168POPC   PO458848  39.229  10.486   5.855
10168POPC   GL158849  39.237  10.547   6.155
10168POPC   GL258850  39.342  10.500   6.155
10168POPC   C1A58851  39.242  10.566   6.455
10168POPC   D2A58852  39.181  10.500   6.755
10168POPC   C3A58853  39.256  10.512   7.055
10168POPC   C4A58854  39.218  10.520   7.355
10168POPC   C1B58855  39.472  10.518   6.455
10168POPC   C2B58856  39.516  10.480   6.755
10168POPC   C3B58857  39.527  10.483   7.055
10168POPC   C4B58858  39.489  10.547   7.355
10169POPC   NC358859  40.013   7.393   5.555
10169POPC   PO458860  39.975   7.461   5.855
10169POPC   GL158861  40.039   7.407   6.155
10169POPC   GL258862  39.911   7.515   6.155
10169POPC   C1A58863  39.961   7.421   6.455
10169POPC   D2A58864  40.006   7.441   6.755
10169POPC   C3A58865  40.044   7.418   7.055
10169POPC   C4A58866  39.972   7.444   7.355
10169POPC   C1B58867  39.866   7.576   6.455
10169POPC   C2B58868  39.776   7.599   6.755
10169POPC   C3B58869  39.867   7.541   7.055
10169POPC   C4B58870  39.847   7.589   7.355
10170POPC   NC358871   8.177  37.701   5.555
10170POPC   PO458872   8.179  37.630   5.855
10170POPC   GL158873   8.186  37.640   6.155
10170POPC   GL258874   8.260  37.777   6.155
10170POPC   C1A58875   8.149  37.716   6.455
10170POPC   D2A58876   8.240  37.726   6.755
10170POPC   C3A58877   8.213  37.669   7.055
10170POPC   C4A58878   8.179  37.654   7.355
10170POPC   C1B58879   8.450  37.805   6.455
10170POPC   C2B58880   8.421  37.821   6.755
10170POPC   C3B58881   8.387  37.841   7.055
10170POPC   C4B58882   8.390  37.806   7.355
10171POPC   NC358883  36.172   4.281   5.555
10171POPC   PO458884  36.137   4.344   5.855
10171POPC   GL158885  36.087   4.352   6.155
10171POPC   GL258886  36.040   4.421   6.155
10171POPC   C1A58887  36.160   4.277   6.455
10171POPC   D2A58888  36.168   4.273   6.755
10171POPC   C3A58889  36.162   4.287   7.055
10171POPC   C4A58890  36.174   4.283   7.355
10171POPC   C1B58891  36.046   4.592   6.455
10171POPC   C2B58892  36.060   4.603   6.755
10171POPC   C3B58893  36.042   4.526   7.055
10171POPC   C4B58894  36.085   4.506   7.355
10172POPC   NC358895  12.102  13.612   5.555
10172POPC   PO458896  12.083  13.636   5.855
10172POPC   GL158897  12.116  13.604   6.155
10172POPC   GL258898  12.150  13.660   6.155
10172POPC   C1A58899  12.026  13.621   6.455
10172POPC   D2A58900  12.032  13.645   6.755
10172POPC   C3A58901  12.069  13.642   7.055
10172POPC   C4A58902  12.056  13.674   7.355
10172POPC   C1B58903  12.275  13.655   6.455
10172POPC   C2B58904  12.367  13.697   6.755
10172POPC   C3B58905  12.352  13.675   7.055
10172POPC   C4B58906  12.312  13.725   7.355
10173POPC   NC358907   4.287   1.227   5.555
10173POPC   PO458908   4.320   1.164   5.855
10173POPC   GL158909   4.304   1.176   6.155
10173POPC   GL258910   4.353   1.091   6.155
10173POPC   C1A58911   4.314   1.236   6.455
10173POPC   D2A58912   4.306   1.220   6.755
10173POPC   C3A58913   4.276   1.214   7.055
10173POPC   C4A58914   4.276   1.195   7.355
10173POPC   C1B58915   4.339   0.924   6.455
10173POPC   C2B58916   4.332   1.012   6.755
10173POPC   C3B58917   4.337   0.967   7.055
10173POPC   C4B58918   4.385   1.008   7.355
10174POPC   NC358919  19.843  25.284   5.555
10174POPC   PO458920  19.801  25.303   5.855
10174POPC   GL158921  19.795  25.274   6.155
10174POPC   GL258922  19.927  25.336   6.155
10174POPC   C1A58923  19.828  25.258   6.455
10174POPC   D2A58924  19.819  25.231   6.755
10174POPC   C3A58925  19.819  25.226   7.055
10174POPC   C4A58926  19.863  25.285   7.355
10174POPC   C1B58927  20.036  25.446   6.455
10174POPC   C2B58928  19.980  25.403   6.755
10174POPC   C3B58929  20.015  25.443   7.055
10174POPC   C4B58930  20.018  25.450   7.355
10175POPC   NC358931   8.994  43.085   5.555
10175POPC   PO458932   9.004  43.080   5.855
10175POPC   GL158933   9.005  43.123   6.155
10175POPC   GL258934   8.856  43.139   6.155
10175POPC   C1A58935   8.971  43.088   6.455
10175POPC   D2A58936   8.993  43.148   6.755
10175POPC   C3A58937   8.986  43.077   7.055
10175POPC   C4A58938   8.965  43.089   7.355
10175POPC   C1B58939   8.717  43.197   6.455
10175POPC   C2B58940   8.772  43.178   6.755
10175POPC   C3B58941   8.707  43.199   7.055
10175POPC   C4B58942   8.711  43.192   7.355
10176POPC   NC358943  11.292   8.946   5.555
10176POPC   PO458944  11.305   9.017   5.855
10176POPC   GL158945  11.305   8.953   6.155
10176POPC   GL258946  11.348   8.886   6.155
10176POPC   C1A58947  11.257   8.984   6.455
10176POPC   D2A58948  11.323   9.002   6.755
10176POPC   C3A58949  11.332   8.969   7.055
10176POPC   C4A58950  11.262   8.988   7.355
10176POPC   C1B58951  11.447   8.743   6.455
10176POPC   C2B58952  11.444   8.829   6.755
10176POPC   C3B58953  11.481   8.751   7.055
10176POPC   C4B58954  11.490   8.767   7.355
10177POPC   NC358955  16.747   1.966   5.555
10177POPC   PO458956  16.704   2.033   5.855
10177POPC   GL158957  16.709   1.998   6.155
10177POPC   GL258958  16.771   2.126   6.155
10177POPC   C1A58959  16.683   1.990   6.455
10177POPC   D2A58960  16.734   1.973   6.755
10177POPC   C3A58961  16.691   2.006   7.055
10177POPC   C4A58962  16.715   1.969   7.355
10177POPC   C1B58963  16.735   2.256   6.455
10177POPC   C2B58964  16.812   2.225   6.755
10177POPC   C3B58965  16.738   2.221   7.055
10177POPC   C4B58966  16.794   2.239   7.355
10178POPC   NC358967  13.601  28.328   5.555
10178POPC   PO458968  13.651  28.323   5.855
10178POPC   GL158969  13.588  28.326   6.155
10178POPC   GL258970  13.685  28.257   6.155
10178POPC   C1A58971  13.629  28.341   6.455
10178POPC   D2A58972  13.620  28.350   6.755
10178POPC   C3A58973  13.609  28.364   7.055
10178POPC   C4A58974  13.655  28.354   7.355
10178POPC   C1B58975  13.700  28.079   6.455
10178POPC   C2B58976  13.642  28.106   6.755
10178POPC   C3B58977  13.674  28.085   7.055
10178POPC   C4B58978  13.646  28.167   7.355
10179POPC   NC358979   1.228  23.695   5.555
10179POPC   PO458980   1.222  23.665   5.855
10179POPC   GL158981   1.226  23.718   6.155
10179POPC   GL258982   1.071  23.773   6.155
10179POPC   C1A58983   1.248  23.727   6.455
10179POPC   D2A58984   1.258  23.753   6.755
10179POPC   C3A58985   1.193  23.714   7.055
10179POPC   C4A58986   1.237  23.720   7.355
10179POPC   C1B58987   0.974  23.708   6.455
10179POPC   C2B58988   1.003  23.760   6.755
10179POPC   C3B58989   0.982  23.776   7.055
10179POPC   C4B58990   0.962  23.778   7.355
10180POPC   NC358991  25.261  14.427   5.555
10180POPC   PO458992  25.262  14.451   5.855
10180POPC   GL158993  25.271  14.402   6.155
10180POPC   GL258994  25.292  14.302   6.155
10180POPC   C1A58995  25.285  14.404   6.455
10180POPC   D2A58996  25.242  14.365   6.755
10180POPC   C3A58997  25.303  14.371   7.055
10180POPC   C4A58998  25.239  14.420   7.355
10180POPC   C1B58999  25.274  14.142   6.455
10180POPC   C2B59000  25.253  14.118   6.755
10180POPC   C3B59001  25.235  14.148   7.055
10180POPC   C4B59002  25.285  14.149   7.355
10181POPC   NC359003  13.600  37.729   5.555
10181POPC   PO459004  13.639  37.665   5.855
10181POPC   GL159005  13.644  37.650   6.155
10181POPC   GL259006  13.765  37.777   6.155
10181POPC   C1A59007  13.647  37.720   6.455
10181POPC   D2A59008  13.634  37.661   6.755
10181POPC   C3A59009  13.625  37.636   7.055
10181POPC   C4A59010  13.643  37.679   7.355
10181POPC   C1B59011  13.805  37.770   6.455
10181POPC   C2B59012  13.830  37.804   6.755
10181POPC   C3B59013  13.888  37.797   7.055
10181POPC   C4B59014  13.790  37.794   7.355
10182POPC   NC359015  34.595  22.904   5.555
10182POPC   PO459016  34.573  22.916   5.855
10182POPC   GL159017  34.556  22.973   6.155
10182POPC   GL259018  34.446  22.896   6.155
10182POPC   C1A59019  34.592  22.912   6.455
10182POPC   D2A59020  34.533  22.971   6.755
10182POPC   C3A59021  34.595  22.946   7.055
10182POPC   C4A59022  34.567  22.911   7.355
10182POPC   C1B59023  34.295  22.912   6.455
10182POPC   C2B59024  34.284  22.858   6.755
10182POPC   C3B59025  34.373  22.892   7.055
10182POPC   C4B59026  34.295  22.826   7.355
10183POPC   NC359027   5.078   1.958   5.555
10183POPC   PO459028   5.129   2.004   5.855
10183POPC   GL159029   5.113   1.980   6.155
10183POPC   GL259030   5.140   1.908   6.155
10183POPC   C1A59031   5.118   1.943   6.455
10183POPC   D2A59032   5.114   2.033   6.755
10183POPC   C3A59033   5.064   1.947   7.055
10183POPC   C4A59034   5.115   1.993   7.355
10183POPC   C1B59035   5.197   1.787   6.455
10183POPC   C2B59036   5.243   1.783   6.755
10183POPC   C3B59037   5.186   1.804   7.055
10183POPC   C4B59038   5.216   1.786   7.355
10184POPC   NC359039  43.151   9.726   5.555
10184POPC   PO459040  43.124   9.706   5.855
10184POPC   GL159041  43.098   9.765   6.155
10184POPC   GL259042  42.964   9.757   6.155
10184POPC   C1A59043  43.070   9.742   6.455
10184POPC   D2A59044  43.098   9.720   6.755
10184POPC   C3A59045  43.106   9.797   7.055
10184POPC   C4A59046  43.095   9.721   7.355
10184POPC   C1B59047  42.892   9.842   6.455
10184POPC   C2B59048  42.913   9.844   6.755
10184POPC   C3B59049  42.928   9.888   7.055
10184POPC   C4B59050  42.915   9.843   7.355
10185POPC   NC359051   9.767   9.743   5.555
10185POPC   PO459052   9.711   9.727   5.855
10185POPC   GL159053   9.724   9.745   6.155
10185POPC   GL259054   9.622   9.762   6.155
10185POPC   C1A59055   9.754   9.715   6.455
10185POPC   D2A59056   9.740   9.732   6.755
10185POPC   C3A59057   9.721   9.768   7.055
10185POPC   C4A59058   9.725   9.778   7.355
10185POPC   C1B59059   9.527   9.851   6.455
10185POPC   C2B59060   9.533   9.780   6.755
10185POPC   C3B59061   9.489   9.798   7.055
10185POPC   C4B59062   9.499   9.841   7.355
10186POPC   NC359063   1.970  33.069   5.555
10186POPC   PO459064   2.037  33.060   5.855
10186POPC   GL159065   1.960  33.003   6.155
10186POPC   GL259066   1.903  33.165   6.155
10186POPC   C1A59067   1.993  33.067   6.455
10186POPC   D2A59068   2.040  33.063   6.755
10186POPC   C3A59069   2.036  33.036   7.055
10186POPC   C4A59070   2.007  33.044   7.355
10186POPC   C1B59071   1.829  33.260   6.455
10186POPC   C2B59072   1.895  33.282   6.755
10186POPC   C3B59073   1.826  33.227   7.055
10186POPC   C4B59074   1.811  33.212   7.355
10187POPC   NC359075  40.030  14.421   5.555
10187POPC   PO459076  39.967  14.439   5.855
10187POPC   GL159077  40.014  14.445   6.155
10187POPC   GL259078  40.135  14.334   6.155
10187POPC   C1A59079  40.017  14.429   6.455
10187POPC   D2A59080  39.981  14.404   6.755
10187POPC   C3A59081  40.021  14.366   7.055
10187POPC   C4A59082  40.031  14.372   7.355
10187POPC   C1B59083  40.237  14.236   6.455
10187POPC   C2B59084  40.193  14.282   6.755
10187POPC   C3B59085  40.230  14.244   7.055
10187POPC   C4B59086  40.257  14.281   7.355
10188POPC   NC359087  38.483   0.463   5.555
10188POPC   PO459088  38.432   0.430   5.855
10188POPC   GL159089  38.503   0.451   6.155
10188POPC   GL259090  38.444   0.282   6.155
10188POPC   C1A59091  38.476   0.408   6.455
10188POPC   D2A59092  38.438   0.450   6.755
10188POPC   C3A59093  38.495   0.392   7.055
10188POPC   C4A59094  38.426   0.415   7.355
10188POPC   C1B59095  38.364   0.232   6.455
10188POPC   C2B59096  38.374   0.240   6.755
10188POPC   C3B59097  38.316   0.255   7.055
10188POPC   C4B59098  38.310   0.190   7.355
10189POPC   NC359099  12.037  40.025   5.555
10189POPC   PO459100  12.043  39.960   5.855
10189POPC   GL159101  12.069  40.052   6.155
10189POPC   GL259102  12.070  40.084   6.155
10189POPC   C1A59103  12.047  39.967   6.455
10189POPC   D2A59104  12.035  39.960   6.755
10189POPC   C3A59105  12.041  40.028   7.055
10189POPC   C4A59106  12.039  39.975   7.355
10189POPC   C1B59107  12.137  40.227   6.455
10189POPC   C2B59108  12.111  40.249   6.755
10189POPC   C3B59109  12.178  40.291   7.055
10189POPC   C4B59110  12.152  40.280   7.355
10190POPC   NC359111  37.703  11.250   5.555
10190POPC   PO459112  37.636  11.345   5.855
10190POPC   GL159113  37.666  11.334   6.155
10190POPC   GL259114  37.821  11.355   6.155
10190POPC   C1A59115  37.692  11.298   6.455
10190POPC   D2A59116  37.689  11.266   6.755
10190POPC   C3A59117  37.631  11.337   7.055
10190POPC   C4A59118  37.716  11.298   7.355
10190POPC   C1B59119  37.921  11.378   6.455
10190POPC   C2B59120  37.902  11.413   6.755
10190POPC   C3B59121  37.929  11.459   7.055
10190POPC   C4B59122  37.863  11.409   7.355
10191POPC   NC359123  37.675  29.966   5.555
10191POPC   PO459124  37.689  29.878   5.855
10191POPC   GL159125  37.669  29.939   6.155
10191POPC   GL259126  37.635  30.044   6.155
10191POPC   C1A59127  37.693  29.965   6.455
10191POPC   D2A59128  37.729  29.933   6.755
10191POPC   C3A59129  37.686  29.924   7.055
10191POPC   C4A59130  37.641  29.910   7.355
10191POPC   C1B59131  37.654  30.147   6.455
10191POPC   C2B59132  37.671  30.125   6.755
10191POPC   C3B59133  37.624  30.124   7.055
10191POPC   C4B59134  37.661  30.134   7.355
10192POPC   NC359135  24.526  18.304   5.555
10192POPC   PO459136  24.498  18.298   5.855
10192POPC   GL159137  24.490  18.317   6.155
10192POPC   GL259138  24.442  18.148   6.155
10192POPC   C1A59139  24.445  18.270   6.455
10192POPC   D2A59140  24.491  18.312   6.755
10192POPC   C3A59141  24.509  18.244   7.055
10192POPC   C4A59142  24.510  18.243   7.355
10192POPC   C1B59143  24.407  18.067   6.455
10192POPC   C2B59144  24.375  18.088   6.755
10192POPC   C3B59145  24.437  18.040   7.055
10192POPC   C4B59146  24.420  18.014   7.355
10193POPC   NC359147  37.696   5.908   5.555
10193POPC   PO459148  37.663   5.873   5.855
10193POPC   GL159149  37.706   5.892   6.155
10193POPC   GL259150  37.672   5.771   6.155
10193POPC   C1A59151  37.661   5.831   6.455
10193POPC   D2A59152  37.671   5.849   6.755
10193POPC   C3A59153  37.652   5.914   7.055
10193POPC   C4A59154  37.663   5.837   7.355
10193POPC   C1B59155  37.673   5.583   6.455
10193POPC   C2B59156  37.644   5.635   6.755
10193POPC   C3B59157  37.693   5.623   7.055
10193POPC   C4B59158  37.681   5.661   7.355
10194POPC   NC359159   3.581   1.234   5.555
10194POPC   PO459160   3.566   1.219   5.855
10194POPC   GL159161   3.551   1.221   6.155
10194POPC   GL259162   3.475   1.148   6.155
10194POPC   C1A59163   3.588   1.237   6.455
10194POPC   D2A59164   3.556   1.210   6.755
10194POPC   C3A59165   3.500   1.211   7.055
10194POPC   C4A59166   3.582   1.231   7.355
10194POPC   C1B59167   3.333   1.013   6.455
10194POPC   C2B59168   3.341   1.042   6.755
10194POPC   C3B59169   3.382   1.050   7.055
10194POPC   C4B59170   3.343   1.057   7.355
10195POPC   NC359171  33.810  35.361   5.555
10195POPC   PO459172  33.771  35.357   5.855
10195POPC   GL159173  33.810  35.318   6.155
10195POPC   GL259174  33.687  35.285   6.155
10195POPC   C1A59175  33.816  35.372   6.455
10195POPC   D2A59176  33.784  35.323   6.755
10195POPC   C3A59177  33.754  35.310   7.055
10195POPC   C4A59178  33.799  35.399   7.355
10195POPC   C1B59179  33.515  35.283   6.455
10195POPC   C2B59180  33.551  35.280   6.755
10195POPC   C3B59181  33.528  35.295   7.055
10195POPC   C4B59182  33.567  35.338   7.355
10196POPC   NC359183   7.436  13.606   5.555
10196POPC   PO459184   7.421  13.646   5.855
10196POPC   GL159185   7.448  13.664   6.155
10196POPC   GL259186   7.506  13.560   6.155
10196POPC   C1A59187   7.403  13.668   6.455
10196POPC   D2A59188   7.460  13.605   6.755
10196POPC   C3A59189   7.373  13.671   7.055
10196POPC   C4A59190   7.428  13.645   7.355
10196POPC   C1B59191   7.694  13.568   6.455
10196POPC   C2B59192   7.632  13.579   6.755
10196POPC   C3B59193   7.653  13.626   7.055
10196POPC   C4B59194   7.701  13.631   7.355
10197POPC   NC359195  12.085   1.957   5.555
10197POPC   PO459196  12.108   2.002   5.855
10197POPC   GL159197  12.061   1.956   6.155
10197POPC   GL259198  11.973   1.947   6.155
10197POPC   C1A59199  12.109   2.037   6.455
10197POPC   D2A59200  12.095   1.974   6.755
10197POPC   C3A59201  12.103   2.027   7.055
10197POPC   C4A59202  12.061   2.005   7.355
10197POPC   C1B59203  11.871   1.819   6.455
10197POPC   C2B59204  11.930   1.778   6.755
10197POPC   C3B59205  11.913   1.859   7.055
10197POPC   C4B59206  11.882   1.869   7.355
10198POPC   NC359207  12.100   0.405   5.555
10198POPC   PO459208  12.122   0.437   5.855
10198POPC   GL159209  12.096   0.395   6.155
10198POPC   GL259210  12.130   0.326   6.155
10198POPC   C1A59211  12.048   0.436   6.455
10198POPC   D2A59212  12.043   0.428   6.755
10198POPC   C3A59213  12.026   0.396   7.055
10198POPC   C4A59214  12.033   0.412   7.355
10198POPC   C1B59215  12.156   0.201   6.455
10198POPC   C2B59216  12.152   0.219   6.755
10198POPC   C3B59217  12.142   0.175   7.055
10198POPC   C4B59218  12.147   0.213   7.355
10199POPC   NC359219  38.481  36.901   5.555
10199POPC   PO459220  38.494  36.931   5.855
10199POPC   GL159221  38.426  36.945   6.155
10199POPC   GL259222  38.454  36.773   6.155
10199POPC   C1A59223  38.432  36.905   6.455
10199POPC   D2A59224  38.453  36.948   6.755
10199POPC   C3A59225  38.495  36.877   7.055
10199POPC   C4A59226  38.446  36.953   7.355
10199POPC   C1B59227  38.330  36.662   6.455
10199POPC   C2B59228  38.339  36.630   6.755
10199POPC   C3B59229  38.353  36.647   7.055
10199POPC   C4B59230  38.393  36.672   7.355
10200POPC   NC359231   5.893  44.639   5.555
10200POPC   PO459232   5.856  44.619   5.855
10200POPC   GL159233   5.895  44.673   6.155
10200POPC   GL259234   5.915  44.586   6.155
10200POPC   C1A59235   5.867  44.663   6.455
10200POPC   D2A59236   5.852  44.655   6.755
10200POPC   C3A59237   5.884  44.635   7.055
10200POPC   C4A59238   5.881  44.628   7.355
10200POPC   C1B59239   6.045  44.446   6.455
10200POPC   C2B59240   5.988  44.458   6.755
10200POPC   C3B59241   5.970  44.488   7.055
10200POPC   C4B59242   5.967  44.499   7.355
10201POPC   NC359243  32.259  30.670   5.555
10201POPC   PO459244  32.214  30.661   5.855
10201POPC   GL159245  32.204  30.696   6.155
10201POPC   GL259246  32.293  30.788   6.155
10201POPC   C1A59247  32.256  30.666   6.455
10201POPC   D2A59248  32.204  30.689   6.755
10201POPC   C3A59249  32.267  30.660   7.055
10201POPC   C4A59250  32.238  30.743   7.355
10201POPC   C1B59251  32.276  30.957   6.455
10201POPC   C2B59252  32.318  30.918   6.755
10201POPC   C3B59253  32.347  30.933   7.055
10201POPC   C4B59254  32.279  30.926   7.355
10202POPC   NC359255  24.537   8.190   5.555
10202POPC   PO459256  24.468   8.210   5.855
10202POPC   GL159257  24.525   8.219   6.155
10202POPC   GL259258  24.360   8.191   6.155
10202POPC   C1A59259  24.486   8.223   6.455
10202POPC   D2A59260  24.451   8.182   6.755
10202POPC   C3A59261  24.453   8.155   7.055
10202POPC   C4A59262  24.480   8.187   7.355
10202POPC   C1B59263  24.262   8.201   6.455
10202POPC   C2B59264  24.239   8.156   6.755
10202POPC   C3B59265  24.275   8.177   7.055
10202POPC   C4B59266  24.226   8.145   7.355
10203POPC   NC359267   3.535  42.376   5.555
10203POPC   PO459268   3.586  42.299   5.855
10203POPC   GL159269   3.497  42.330   6.155
10203POPC   GL259270   3.651  42.224   6.155
10203POPC   C1A59271   3.543  42.344   6.455
10203POPC   D2A59272   3.530  42.290   6.755
10203POPC   C3A59273   3.525  42.366   7.055
10203POPC   C4A59274   3.495  42.366   7.355
10203POPC   C1B59275   3.706  42.154   6.455
10203POPC   C2B59276   3.714  42.231   6.755
10203POPC   C3B59277   3.768  42.179   7.055
10203POPC   C4B59278   3.759  42.165   7.355
10204POPC   NC359279  14.427   6.643   5.555
10204POPC   PO459280  14.423   6.662   5.855
10204POPC   GL159281  14.406   6.641   6.155
10204POPC   GL259282  14.284   6.657   6.155
10204POPC   C1A59283  14.378   6.650   6.455
10204POPC   D2A59284  14.404   6.672   6.755
10204POPC   C3A59285  14.356   6.617   7.055
10204POPC   C4A59286  14.412   6.620   7.355
10204POPC   C1B59287  14.184   6.783   6.455
10204POPC   C2B59288  14.146   6.749   6.755
10204POPC   C3B59289  14.197   6.736   7.055
10204POPC   C4B59290  14.170   6.743   7.355
10205POPC   NC359291  29.190  20.572   5.555
10205POPC   PO459292  29.130  20.567   5.855
10205POPC   GL159293  29.146  20.602   6.155
10205POPC   GL259294  29.286  20.707   6.155
10205POPC   C1A59295  29.166  20.572   6.455
10205POPC   D2A59296  29.120  20.594   6.755
10205POPC   C3A59297  29.145  20.626   7.055
10205POPC   C4A59298  29.148  20.628   7.355
10205POPC   C1B59299  29.337  20.775   6.455
10205POPC   C2B59300  29.332  20.782   6.755
10205POPC   C3B59301  29.297  20.726   7.055
10205POPC   C4B59302  29.309  20.759   7.355
10206POPC   NC359303  36.934  18.286   5.555
10206POPC   PO459304  36.922  18.329   5.855
10206POPC   GL159305  36.913  18.247   6.155
10206POPC   GL259306  36.916  18.173   6.155
10206POPC   C1A59307  36.890  18.331   6.455
10206POPC   D2A59308  36.932  18.310   6.755
10206POPC   C3A59309  36.867  18.297   7.055
10206POPC   C4A59310  36.930  18.320   7.355
10206POPC   C1B59311  36.858  18.073   6.455
10206POPC   C2B59312  36.942  18.082   6.755
10206POPC   C3B59313  36.939  18.052   7.055
10206POPC   C4B59314  36.940  18.020   7.355
10207POPC   NC359315  31.424  29.190   5.555
10207POPC   PO459316  31.439  29.191   5.855
10207POPC   GL159317  31.427  29.142   6.155
10207POPC   GL259318  31.558  29.048   6.155
10207POPC   C1A59319  31.456  29.152   6.455
10207POPC   D2A59320  31.452  29.186   6.755
10207POPC   C3A59321  31.451  29.182   7.055
10207POPC   C4A59322  31.509  29.152   7.355
10207POPC   C1B59323  31.598  28.934   6.455
10207POPC   C2B59324  31.679  28.964   6.755
10207POPC   C3B59325  31.638  28.929   7.055
10207POPC   C4B59326  31.637  28.917   7.355
10208POPC   NC359327  24.468  34.562   5.555
10208POPC   PO459328  24.514  34.580   5.855
10208POPC   GL159329  24.534  34.530   6.155
10208POPC   GL259330  24.543  34.635   6.155
10208POPC   C1A59331  24.485  34.583   6.455
10208POPC   D2A59332  24.463  34.622   6.755
10208POPC   C3A59333  24.446  34.541   7.055
10208POPC   C4A59334  24.440  34.546   7.355
10208POPC   C1B59335  24.624  34.735   6.455
10208POPC   C2B59336  24.618  34.812   6.755
10208POPC   C3B59337  24.597  34.796   7.055
10208POPC   C4B59338  24.629  34.785   7.355
10209POPC   NC359339   0.449  25.315   5.555
10209POPC   PO459340   0.449  25.261   5.855
10209POPC   GL159341   0.459  25.303   6.155
10209POPC   GL259342   0.524  25.308   6.155
10209POPC   C1A59343   0.396  25.262   6.455
10209POPC   D2A59344   0.388  25.261   6.755
10209POPC   C3A59345   0.482  25.260   7.055
10209POPC   C4A59346   0.402  25.227   7.355
10209POPC   C1B59347   0.699  25.329   6.455
10209POPC   C2B59348   0.692  25.311   6.755
10209POPC   C3B59349   0.666  25.318   7.055
10209POPC   C4B59350   0.663  25.303   7.355
10210POPC   NC359351   7.457   6.624   5.555
10210POPC   PO459352   7.392   6.620   5.855
10210POPC   GL159353   7.468   6.667   6.155
10210POPC   GL259354   7.483   6.769   6.155
10210POPC   C1A59355   7.400   6.689   6.455
10210POPC   D2A59356   7.383   6.603   6.755
10210POPC   C3A59357   7.393   6.691   7.055
10210POPC   C4A59358   7.386   6.605   7.355
10210POPC   C1B59359   7.473   6.932   6.455
10210POPC   C2B59360   7.434   6.854   6.755
10210POPC   C3B59361   7.483   6.909   7.055
10210POPC   C4B59362   7.480   6.923   7.355
10211POPC   NC359363  18.256  22.971   5.555
10211POPC   PO459364  18.263  22.893   5.855
10211POPC   GL159365  18.321  22.919   6.155
10211POPC   GL259366  18.404  22.993   6.155
10211POPC   C1A59367  18.323  22.957   6.455
10211POPC   D2A59368  18.249  22.953   6.755
10211POPC   C3A59369  18.314  22.930   7.055
10211POPC   C4A59370  18.287  22.973   7.355
10211POPC   C1B59371  18.458  23.112   6.455
10211POPC   C2B59372  18.501  23.088   6.755
10211POPC   C3B59373  18.446  23.146   7.055
10211POPC   C4B59374  18.482  23.143   7.355
10212POPC   NC359375  25.296  26.017   5.555
10212POPC   PO459376  25.304  26.081   5.855
10212POPC   GL159377  25.232  26.083   6.155
10212POPC   GL259378  25.161  26.051   6.155
10212POPC   C1A59379  25.251  26.011   6.455
10212POPC   D2A59380  25.217  26.000   6.755
10212POPC   C3A59381  25.268  26.078   7.055
10212POPC   C4A59382  25.259  26.081   7.355
10212POPC   C1B59383  25.049  26.097   6.455
10212POPC   C2B59384  24.984  26.082   6.755
10212POPC   C3B59385  25.057  26.130   7.055
10212POPC   C4B59386  25.038  26.089   7.355
10213POPC   NC359387   1.981   7.396   5.555
10213POPC   PO459388   1.943   7.392   5.855
10213POPC   GL159389   2.035   7.434   6.155
10213POPC   GL259390   1.885   7.378   6.155
10213POPC   C1A59391   2.030   7.378   6.455
10213POPC   D2A59392   2.035   7.430   6.755
10213POPC   C3A59393   2.024   7.387   7.055
10213POPC   C4A59394   1.952   7.451   7.355
10213POPC   C1B59395   1.794   7.353   6.455
10213POPC   C2B59396   1.737   7.265   6.755
10213POPC   C3B59397   1.803   7.319   7.055
10213POPC   C4B59398   1.747   7.343   7.355
10214POPC   NC359399  20.587  43.117   5.555
10214POPC   PO459400  20.647  43.094   5.855
10214POPC   GL159401  20.607  43.111   6.155
10214POPC   GL259402  20.730  43.144   6.155
10214POPC   C1A59403  20.636  43.137   6.455
10214POPC   D2A59404  20.574  43.063   6.755
10214POPC   C3A59405  20.567  43.159   7.055
10214POPC   C4A59406  20.576  43.069   7.355
10214POPC   C1B59407  20.857  43.205   6.455
10214POPC   C2B59408  20.868  43.206   6.755
10214POPC   C3B59409  20.882  43.191   7.055
10214POPC   C4B59410  20.841  43.154   7.355
10215POPC   NC359411  26.802  22.114   5.555
10215POPC   PO459412  26.835  22.153   5.855
10215POPC   GL159413  26.776  22.210   6.155
10215POPC   GL259414  26.650  22.109   6.155
10215POPC   C1A59415  26.770  22.165   6.455
10215POPC   D2A59416  26.859  22.132   6.755
10215POPC   C3A59417  26.857  22.134   7.055
10215POPC   C4A59418  26.860  22.188   7.355
10215POPC   C1B59419  26.581  22.163   6.455
10215POPC   C2B59420  26.532  22.118   6.755
10215POPC   C3B59421  26.585  22.127   7.055
10215POPC   C4B59422  26.609  22.136   7.355
10216POPC   NC359423  26.055   7.403   5.555
10216POPC   PO459424  26.029   7.375   5.855
10216POPC   GL159425  26.068   7.372   6.155
10216POPC   GL259426  25.974   7.524   6.155
10216POPC   C1A59427  26.064   7.393   6.455
10216POPC   D2A59428  26.072   7.438   6.755
10216POPC   C3A59429  26.048   7.414   7.055
10216POPC   C4A59430  26.040   7.437   7.355
10216POPC   C1B59431  25.919   7.609   6.455
10216POPC   C2B59432  25.913   7.687   6.755
10216POPC   C3B59433  25.980   7.649   7.055
10216POPC   C4B59434  25.936   7.643   7.355
10217POPC   NC359435  26.010  32.989   5.555
10217POPC   PO459436  26.028  33.041   5.855
10217POPC   GL159437  26.040  33.043   6.155
10217POPC   GL259438  26.079  32.950   6.155
10217POPC   C1A59439  26.074  33.054   6.455
10217POPC   D2A59440  26.020  32.996   6.755
10217POPC   C3A59441  26.010  33.024   7.055
10217POPC   C4A59442  26.029  32.998   7.355
10217POPC   C1B59443  26.160  32.741   6.455
10217POPC   C2B59444  26.115  32.751   6.755
10217POPC   C3B59445  26.086  32.817   7.055
10217POPC   C4B59446  26.083  32.803   7.355
10218POPC   NC359447   5.878  22.162   5.555
10218POPC   PO459448   5.853  22.169   5.855
10218POPC   GL159449   5.877  22.171   6.155
10218POPC   GL259450   5.949  22.075   6.155
10218POPC   C1A59451   5.860  22.153   6.455
10218POPC   D2A59452   5.914  22.147   6.755
10218POPC   C3A59453   5.826  22.179   7.055
10218POPC   C4A59454   5.878  22.142   7.355
10218POPC   C1B59455   6.080  22.001   6.455
10218POPC   C2B59456   6.059  22.009   6.755
10218POPC   C3B59457   6.021  22.032   7.055
10218POPC   C4B59458   6.020  21.963   7.355
10219POPC   NC359459  19.036  22.921   5.555
10219POPC   PO459460  19.033  22.962   5.855
10219POPC   GL159461  19.042  22.920   6.155
10219POPC   GL259462  18.980  22.989   6.155
10219POPC   C1A59463  19.069  22.936   6.455
10219POPC   D2A59464  19.014  22.930   6.755
10219POPC   C3A59465  19.094  22.927   7.055
10219POPC   C4A59466  19.071  22.948   7.355
10219POPC   C1B59467  18.787  23.014   6.455
10219POPC   C2B59468  18.818  22.969   6.755
10219POPC   C3B59469  18.775  22.983   7.055
10219POPC   C4B59470  18.779  23.027   7.355
10220POPC   NC359471  40.754  36.896   5.555
10220POPC   PO459472  40.748  36.937   5.855
10220POPC   GL159473  40.788  36.892   6.155
10220POPC   GL259474  40.832  37.014   6.155
10220POPC   C1A59475  40.742  36.948   6.455
10220POPC   D2A59476  40.767  36.905   6.755
10220POPC   C3A59477  40.750  36.940   7.055
10220POPC   C4A59478  40.797  36.919   7.355
10220POPC   C1B59479  40.842  37.122   6.455
10220POPC   C2B59480  40.885  37.108   6.755
10220POPC   C3B59481  40.823  37.120   7.055
10220POPC   C4B59482  40.839  37.142   7.355
10221POPC   NC359483  13.639  12.055   5.555
10221POPC   PO459484  13.636  12.120   5.855
10221POPC   GL159485  13.619  12.034   6.155
10221POPC   GL259486  13.679  12.152   6.155
10221POPC   C1A59487  13.605  12.060   6.455
10221POPC   D2A59488  13.581  12.079   6.755
10221POPC   C3A59489  13.619  12.077   7.055
10221POPC   C4A59490  13.677  12.073   7.355
10221POPC   C1B59491  13.625  12.316   6.455
10221POPC   C2B59492  13.639  12.317   6.755
10221POPC   C3B59493  13.644  12.321   7.055
10221POPC   C4B59494  13.693  12.295   7.355
10222POPC   NC359495  18.282  12.811   5.555
10222POPC   PO459496  18.246  12.860   5.855
10222POPC   GL159497  18.245  12.889   6.155
10222POPC   GL259498  18.167  12.841   6.155
10222POPC   C1A59499  18.242  12.839   6.455
10222POPC   D2A59500  18.288  12.813   6.755
10222POPC   C3A59501  18.315  12.882   7.055
10222POPC   C4A59502  18.315  12.837   7.355
10222POPC   C1B59503  18.080  12.867   6.455
10222POPC   C2B59504  18.074  12.891   6.755
10222POPC   C3B59505  18.034  12.856   7.055
10222POPC   C4B59506  17.993  12.902   7.355
10223POPC   NC359507  11.277  32.291   5.555
10223POPC   PO459508  11.340  32.272   5.855
10223POPC   GL159509  11.272  32.212   6.155
10223POPC   GL259510  11.155  32.171   6.155
10223POPC   C1A59511  11.322  32.286   6.455
10223POPC   D2A59512  11.275  32.292   6.755
10223POPC   C3A59513  11.305  32.298   7.055
10223POPC   C4A59514  11.290  32.262   7.355
10223POPC   C1B59515  11.063  32.157   6.455
10223POPC   C2B59516  11.021  32.178   6.755
10223POPC   C3B59517  11.047  32.164   7.055
10223POPC   C4B59518  11.104  32.226   7.355
10224POPC   NC359519   2.029  22.201   5.555
10224POPC   PO459520   2.040  22.163   5.855
10224POPC   GL159521   2.027  22.147   6.155
10224POPC   GL259522   2.085  22.169   6.155
10224POPC   C1A59523   1.964  22.125   6.455
10224POPC   D2A59524   1.988  22.168   6.755
10224POPC   C3A59525   2.015  22.203   7.055
10224POPC   C4A59526   1.942  22.187   7.355
10224POPC   C1B59527   2.281  22.073   6.455
10224POPC   C2B59528   2.234  22.096   6.755
10224POPC   C3B59529   2.224  22.110   7.055
10224POPC   C4B59530   2.200  22.119   7.355
10225POPC   NC359531   5.136  40.787   5.555
10225POPC   PO459532   5.047  40.810   5.855
10225POPC   GL159533   5.086  40.782   6.155
10225POPC   GL259534   5.120  40.710   6.155
10225POPC   C1A59535   5.122  40.749   6.455
10225POPC   D2A59536   5.106  40.772   6.755
10225POPC   C3A59537   5.063  40.814   7.055
10225POPC   C4A59538   5.076  40.752   7.355
10225POPC   C1B59539   5.162  40.588   6.455
10225POPC   C2B59540   5.223  40.567   6.755
10225POPC   C3B59541   5.211  40.509   7.055
10225POPC   C4B59542   5.203  40.504   7.355
10226POPC   NC359543  35.376  41.525   5.555
10226POPC   PO459544  35.337  41.535   5.855
10226POPC   GL159545  35.373  41.593   6.155
10226POPC   GL259546  35.293  41.669   6.155
10226POPC   C1A59547  35.360  41.584   6.455
10226POPC   D2A59548  35.341  41.567   6.755
10226POPC   C3A59549  35.371  41.510   7.055
10226POPC   C4A59550  35.313  41.584   7.355
10226POPC   C1B59551  35.242  41.822   6.455
10226POPC   C2B59552  35.258  41.841   6.755
10226POPC   C3B59553  35.287  41.827   7.055
10226POPC   C4B59554  35.288  41.804   7.355
10227POPC   NC359555  39.228  14.384   5.555
10227POPC   PO459556  39.226  14.388   5.855
10227POPC   GL159557  39.257  14.377   6.155
10227POPC   GL259558  39.182  14.533   6.155
10227POPC   C1A59559  39.222  14.404   6.455
10227POPC   D2A59560  39.230  14.397   6.755
10227POPC   C3A59561  39.237  14.416   7.055
10227POPC   C4A59562  39.279  14.386   7.355
10227POPC   C1B59563  39.130  14.586   6.455
10227POPC   C2B59564  39.138  14.654   6.755
10227POPC   C3B59565  39.160  14.625   7.055
10227POPC   C4B59566  39.167  14.634   7.355
10228POPC   NC359567  31.438   8.997   5.555
10228POPC   PO459568  31.494   8.949   5.855
10228POPC   GL159569  31.433   8.997   6.155
10228POPC   GL259570  31.606   9.047   6.155
10228POPC   C1A59571  31.439   8.971   6.455
10228POPC   D2A59572  31.471   8.924   6.755
10228POPC   C3A59573  31.460   8.986   7.055
10228POPC   C4A59574  31.450   8.967   7.355
10228POPC   C1B59575  31.631   9.175   6.455
10228POPC   C2B59576  31.679   9.092   6.755
10228POPC   C3B59577  31.655   9.136   7.055
10228POPC   C4B59578  31.676   9.173   7.355
10229POPC   NC359579  23.675  29.142   5.555
10229POPC   PO459580  23.736  29.171   5.855
10229POPC   GL159581  23.716  29.156   6.155
10229POPC   GL259582  23.623  29.119   6.155
10229POPC   C1A59583  23.664  29.138   6.455
10229POPC   D2A59584  23.753  29.169   6.755
10229POPC   C3A59585  23.679  29.147   7.055
10229POPC   C4A59586  23.737  29.123   7.355
10229POPC   C1B59587  23.447  29.212   6.455
10229POPC   C2B59588  23.481  29.183   6.755
10229POPC   C3B59589  23.502  29.161   7.055
10229POPC   C4B59590  23.470  29.199   7.355
10230POPC   NC359591   5.884  43.156   5.555
10230POPC   PO459592   5.905  43.084   5.855
10230POPC   GL159593   5.872  43.135   6.155
10230POPC   GL259594   5.765  43.120   6.155
10230POPC   C1A59595   5.865  43.108   6.455
10230POPC   D2A59596   5.824  43.110   6.755
10230POPC   C3A59597   5.878  43.112   7.055
10230POPC   C4A59598   5.892  43.064   7.355
10230POPC   C1B59599   5.592  43.188   6.455
10230POPC   C2B59600   5.642  43.178   6.755
10230POPC   C3B59601   5.579  43.133   7.055
10230POPC   C4B59602   5.629  43.187   7.355
10231POPC   NC359603  23.755  27.640   5.555
10231POPC   PO459604  23.675  27.624   5.855
10231POPC   GL159605  23.716  27.544   6.155
10231POPC   GL259606  23.757  27.690   6.155
10231POPC   C1A59607  23.759  27.621   6.455
10231POPC   D2A59608  23.713  27.622   6.755
10231POPC   C3A59609  23.748  27.594   7.055
10231POPC   C4A59610  23.742  27.561   7.355
10231POPC   C1B59611  23.762  27.812   6.455
10231POPC   C2B59612  23.771  27.804   6.755
10231POPC   C3B59613  23.807  27.812   7.055
10231POPC   C4B59614  23.773  27.790   7.355
10232POPC   NC359615  10.523  26.775   5.555
10232POPC   PO459616  10.554  26.780   5.855
10232POPC   GL159617  10.568  26.827   6.155
10232POPC   GL259618  10.419  26.800   6.155
10232POPC   C1A59619  10.521  26.817   6.455
10232POPC   D2A59620  10.518  26.781   6.755
10232POPC   C3A59621  10.533  26.859   7.055
10232POPC   C4A59622  10.546  26.781   7.355
10232POPC   C1B59623  10.315  26.748   6.455
10232POPC   C2B59624  10.271  26.790   6.755
10232POPC   C3B59625  10.295  26.751   7.055
10232POPC   C4B59626  10.280  26.696   7.355
10233POPC   NC359627  16.724  29.922   5.555
10233POPC   PO459628  16.709  29.935   5.855
10233POPC   GL159629  16.754  29.952   6.155
10233POPC   GL259630  16.595  29.895   6.155
10233POPC   C1A59631  16.750  29.960   6.455
10233POPC   D2A59632  16.760  29.936   6.755
10233POPC   C3A59633  16.710  29.922   7.055
10233POPC   C4A59634  16.737  29.942   7.355
10233POPC   C1B59635  16.475  29.879   6.455
10233POPC   C2B59636  16.505  29.874   6.755
10233POPC   C3B59637  16.469  29.865   7.055
10233POPC   C4B59638  16.443  29.822   7.355
10234POPC   NC359639  20.614  35.344   5.555
10234POPC   PO459640  20.567  35.380   5.855
10234POPC   GL159641  20.646  35.401   6.155
10234POPC   GL259642  20.719  35.389   6.155
10234POPC   C1A59643  20.594  35.378   6.455
10234POPC   D2A59644  20.612  35.323   6.755
10234POPC   C3A59645  20.574  35.348   7.055
10234POPC   C4A59646  20.635  35.326   7.355
10234POPC   C1B59647  20.867  35.487   6.455
10234POPC   C2B59648  20.828  35.471   6.755
10234POPC   C3B59649  20.857  35.504   7.055
10234POPC   C4B59650  20.800  35.408   7.355
10235POPC   NC359651  40.053  40.817   5.555
10235POPC   PO459652  40.034  40.799   5.855
10235POPC   GL159653  40.006  40.740   6.155
10235POPC   GL259654  39.989  40.674   6.155
10235POPC   C1A59655  39.976  40.747   6.455
10235POPC   D2A59656  39.977  40.751   6.755
10235POPC   C3A59657  40.044  40.791   7.055
10235POPC   C4A59658  40.042  40.824   7.355
10235POPC   C1B59659  39.908  40.613   6.455
10235POPC   C2B59660  39.918  40.579   6.755
10235POPC   C3B59661  39.836  40.529   7.055
10235POPC   C4B59662  39.897  40.571   7.355
10236POPC   NC359663  36.941  36.859   5.555
10236POPC   PO459664  36.883  36.946   5.855
10236POPC   GL159665  36.860  36.910   6.155
10236POPC   GL259666  36.882  36.987   6.155
10236POPC   C1A59667  36.855  36.913   6.455
10236POPC   D2A59668  36.924  36.936   6.755
10236POPC   C3A59669  36.896  36.934   7.055
10236POPC   C4A59670  36.924  36.908   7.355
10236POPC   C1B59671  36.886  37.124   6.455
10236POPC   C2B59672  36.906  37.104   6.755
10236POPC   C3B59673  36.924  37.117   7.055
10236POPC   C4B59674  36.891  37.131   7.355
10237POPC   NC359675  29.924  33.065   5.555
10237POPC   PO459676  29.911  32.995   5.855
10237POPC   GL159677  29.899  33.029   6.155
10237POPC   GL259678  30.014  33.073   6.155
10237POPC   C1A59679  29.933  33.063   6.455
10237POPC   D2A59680  29.933  32.985   6.755
10237POPC   C3A59681  29.962  33.062   7.055
10237POPC   C4A59682  29.885  33.044   7.355
10237POPC   C1B59683  30.133  33.173   6.455
10237POPC   C2B59684  30.040  33.250   6.755
10237POPC   C3B59685  30.054  33.238   7.055
10237POPC   C4B59686  30.102  33.247   7.355
10238POPC   NC359687  39.982  43.853   5.555
10238POPC   PO459688  40.009  43.936   5.855
10238POPC   GL159689  39.976  43.920   6.155
10238POPC   GL259690  40.154  43.804   6.155
10238POPC   C1A59691  39.990  43.931   6.455
10238POPC   D2A59692  40.053  43.908   6.755
10238POPC   C3A59693  39.993  43.888   7.055
10238POPC   C4A59694  40.026  43.900   7.355
10238POPC   C1B59695  40.201  43.786   6.455
10238POPC   C2B59696  40.218  43.820   6.755
10238POPC   C3B59697  40.276  43.809   7.055
10238POPC   C4B59698  40.277  43.816   7.355
10239POPC   NC359699   3.572  22.955   5.555
10239POPC   PO459700   3.499  22.892   5.855
10239POPC   GL159701   3.576  22.896   6.155
10239POPC   GL259702   3.467  22.868   6.155
10239POPC   C1A59703   3.573  22.896   6.455
10239POPC   D2A59704   3.559  22.904   6.755
10239POPC   C3A59705   3.561  22.909   7.055
10239POPC   C4A59706   3.506  22.931   7.355
10239POPC   C1B59707   3.298  22.834   6.455
10239POPC   C2B59708   3.319  22.867   6.755
10239POPC   C3B59709   3.314  22.806   7.055
10239POPC   C4B59710   3.273  22.860   7.355
10240POPC   NC359711  38.489  35.335   5.555
10240POPC   PO459712  38.480  35.384   5.855
10240POPC   GL159713  38.422  35.333   6.155
10240POPC   GL259714  38.397  35.236   6.155
10240POPC   C1A59715  38.466  35.330   6.455
10240POPC   D2A59716  38.411  35.336   6.755
10240POPC   C3A59717  38.482  35.385   7.055
10240POPC   C4A59718  38.409  35.332   7.355
10240POPC   C1B59719  38.289  35.138   6.455
10240POPC   C2B59720  38.242  35.213   6.755
10240POPC   C3B59721  38.263  35.171   7.055
10240POPC   C4B59722  38.269  35.196   7.355
10241POPC   NC359723  15.908  36.894   5.555
10241POPC   PO459724  15.908  36.905   5.855
10241POPC   GL159725  15.920  36.858   6.155
10241POPC   GL259726  16.047  36.974   6.155
10241POPC   C1A59727  15.907  36.913   6.455
10241POPC   D2A59728  15.995  36.897   6.755
10241POPC   C3A59729  15.950  36.885   7.055
10241POPC   C4A59730  15.908  36.944   7.355
10241POPC   C1B59731  16.175  36.935   6.455
10241POPC   C2B59732  16.199  36.975   6.755
10241POPC   C3B59733  16.160  36.949   7.055
10241POPC   C4B59734  16.213  36.924   7.355
10242POPC   NC359735  19.833  36.918   5.555
10242POPC   PO459736  19.874  36.905   5.855
10242POPC   GL159737  19.813  36.922   6.155
10242POPC   GL259738  19.853  36.803   6.155
10242POPC   C1A59739  19.821  36.874   6.455
10242POPC   D2A59740  19.821  36.899   6.755
10242POPC   C3A59741  19.876  36.879   7.055
10242POPC   C4A59742  19.788  36.944   7.355
10242POPC   C1B59743  19.758  36.703   6.455
10242POPC   C2B59744  19.830  36.654   6.755
10242POPC   C3B59745  19.835  36.694   7.055
10242POPC   C4B59746  19.786  36.657   7.355
10243POPC   NC359747  36.909  20.603   5.555
10243POPC   PO459748  36.860  20.598   5.855
10243POPC   GL159749  36.908  20.649   6.155
10243POPC   GL259750  36.784  20.552   6.155
10243POPC   C1A59751  36.861  20.585   6.455
10243POPC   D2A59752  36.895  20.576   6.755
10243POPC   C3A59753  36.921  20.621   7.055
10243POPC   C4A59754  36.887  20.625   7.355
10243POPC   C1B59755  36.767  20.469   6.455
10243POPC   C2B59756  36.752  20.422   6.755
10243POPC   C3B59757  36.683  20.459   7.055
10243POPC   C4B59758  36.674  20.452   7.355
10244POPC   NC359759  38.413  33.835   5.555
10244POPC   PO459760  38.504  33.819   5.855
10244POPC   GL159761  38.475  33.834   6.155
10244POPC   GL259762  38.529  33.716   6.155
10244POPC   C1A59763  38.450  33.766   6.455
10244POPC   D2A59764  38.467  33.807   6.755
10244POPC   C3A59765  38.406  33.825   7.055
10244POPC   C4A59766  38.433  33.829   7.355
10244POPC   C1B59767  38.626  33.691   6.455
10244POPC   C2B59768  38.649  33.646   6.755
10244POPC   C3B59769  38.668  33.712   7.055
10244POPC   C4B59770  38.659  33.655   7.355
10245POPC   NC359771  36.111   2.740   5.555
10245POPC   PO459772  36.095   2.754   5.855
10245POPC   GL159773  36.126   2.800   6.155
10245POPC   GL259774  36.075   2.851   6.155
10245POPC   C1A59775  36.142   2.781   6.455
10245POPC   D2A59776  36.093   2.772   6.755
10245POPC   C3A59777  36.120   2.730   7.055
10245POPC   C4A59778  36.086   2.759   7.355
10245POPC   C1B59779  36.078   3.037   6.455
10245POPC   C2B59780  36.127   3.011   6.755
10245POPC   C3B59781  36.146   3.027   7.055
10245POPC   C4B59782  36.113   2.981   7.355
10246POPC   NC359783  37.653  27.568   5.555
10246POPC   PO459784  37.671  27.593   5.855
10246POPC   GL159785  37.630  27.584   6.155
10246POPC   GL259786  37.554  27.631   6.155
10246POPC   C1A59787  37.713  27.573   6.455
10246POPC   D2A59788  37.691  27.555   6.755
10246POPC   C3A59789  37.658  27.607   7.055
10246POPC   C4A59790  37.639  27.547   7.355
10246POPC   C1B59791  37.456  27.534   6.455
10246POPC   C2B59792  37.424  27.619   6.755
10246POPC   C3B59793  37.410  27.620   7.055
10246POPC   C4B59794  37.419  27.566   7.355
10247POPC   NC359795  43.868  44.704   5.555
10247POPC   PO459796  43.887  44.660   5.855
10247POPC   GL159797  43.863  44.655   6.155
10247POPC   GL259798  43.998  44.590   6.155
10247POPC   C1A59799  43.837  44.697   6.455
10247POPC   D2A59800  43.870  44.632   6.755
10247POPC   C3A59801  43.907  44.645   7.055
10247POPC   C4A59802  43.848  44.708   7.355
10247POPC   C1B59803  43.999  44.451   6.455
10247POPC   C2B59804  44.012  44.422   6.755
10247POPC   C3B59805  44.059  44.481   7.055
10247POPC   C4B59806  44.018  44.462   7.355
10248POPC   NC359807  41.601   9.713   5.555
10248POPC   PO459808  41.598   9.781   5.855
10248POPC   GL159809  41.554   9.738   6.155
10248POPC   GL259810  41.482   9.851   6.155
10248POPC   C1A59811  41.565   9.712   6.455
10248POPC   D2A59812  41.511   9.790   6.755
10248POPC   C3A59813  41.598   9.758   7.055
10248POPC   C4A59814  41.530   9.767   7.355
10248POPC   C1B59815  41.539  10.036   6.455
10248POPC   C2B59816  41.537   9.991   6.755
10248POPC   C3B59817  41.547   9.945   7.055
10248POPC   C4B59818  41.516   9.946   7.355
10249POPC   NC359819  27.581  26.000   5.555
10249POPC   PO459820  27.635  26.050   5.855
10249POPC   GL159821  27.624  26.035   6.155
10249POPC   GL259822  27.584  26.151   6.155
10249POPC   C1A59823  27.544  26.016   6.455
10249POPC   D2A59824  27.613  26.068   6.755
10249POPC   C3A59825  27.639  26.058   7.055
10249POPC   C4A59826  27.585  26.073   7.355
10249POPC   C1B59827  27.666  26.315   6.455
10249POPC   C2B59828  27.598  26.301   6.755
10249POPC   C3B59829  27.622  26.309   7.055
10249POPC   C4B59830  27.671  26.255   7.355
10250POPC   NC359831  12.026  24.452   5.555
10250POPC   PO459832  12.085  24.501   5.855
10250POPC   GL159833  12.090  24.491   6.155
10250POPC   GL259834  12.008  24.608   6.155
10250POPC   C1A59835  12.113  24.495   6.455
10250POPC   D2A59836  12.092  24.452   6.755
10250POPC   C3A59837  12.034  24.532   7.055
10250POPC   C4A59838  12.071  24.442   7.355
10250POPC   C1B59839  11.918  24.711   6.455
10250POPC   C2B59840  11.912  24.745   6.755
10250POPC   C3B59841  11.924  24.700   7.055
10250POPC   C4B59842  11.951  24.745   7.355
10251POPC   NC359843  13.659  16.739   5.555
10251POPC   PO459844  13.641  16.766   5.855
10251POPC   GL159845  13.618  16.729   6.155
10251POPC   GL259846  13.524  16.833   6.155
10251POPC   C1A59847  13.587  16.731   6.455
10251POPC   D2A59848  13.633  16.733   6.755
10251POPC   C3A59849  13.628  16.747   7.055
10251POPC   C4A59850  13.596  16.728   7.355
10251POPC   C1B59851  13.387  16.904   6.455
10251POPC   C2B59852  13.462  16.836   6.755
10251POPC   C3B59853  13.448  16.836   7.055
10251POPC   C4B59854  13.443  16.826   7.355
10252POPC   NC359855  39.271  36.114   5.555
10252POPC   PO459856  39.279  36.116   5.855
10252POPC   GL159857  39.228  36.169   6.155
10252POPC   GL259858  39.145  36.114   6.155
10252POPC   C1A59859  39.221  36.111   6.455
10252POPC   D2A59860  39.255  36.106   6.755
10252POPC   C3A59861  39.204  36.093   7.055
10252POPC   C4A59862  39.230  36.124   7.355
10252POPC   C1B59863  39.031  36.132   6.455
10252POPC   C2B59864  38.954  36.145   6.755
10252POPC   C3B59865  39.016  36.189   7.055
10252POPC   C4B59866  38.933  36.116   7.355
10253POPC   NC359867   0.429  30.745   5.555
10253POPC   PO459868   0.422  30.655   5.855
10253POPC   GL159869   0.425  30.713   6.155
10253POPC   GL259870   0.536  30.615   6.155
10253POPC   C1A59871   0.391  30.691   6.455
10253POPC   D2A59872   0.451  30.665   6.755
10253POPC   C3A59873   0.413  30.695   7.055
10253POPC   C4A59874   0.440  30.728   7.355
10253POPC   C1B59875   0.675  30.571   6.455
10253POPC   C2B59876   0.622  30.515   6.755
10253POPC   C3B59877   0.654  30.597   7.055
10253POPC   C4B59878   0.684  30.575   7.355
10254POPC   NC359879   1.230   5.905   5.555
10254POPC   PO459880   1.256   5.842   5.855
10254POPC   GL159881   1.166   5.827   6.155
10254POPC   GL259882   1.098   5.918   6.155
10254POPC   C1A59883   1.190   5.903   6.455
10254POPC   D2A59884   1.188   5.822   6.755
10254POPC   C3A59885   1.187   5.906   7.055
10254POPC   C4A59886   1.263   5.844   7.355
10254POPC   C1B59887   1.010   5.998   6.455
10254POPC   C2B59888   1.065   6.059   6.755
10254POPC   C3B59889   1.048   6.058   7.055
10254POPC   C4B59890   1.060   6.066   7.355
10255POPC   NC359891   2.032   3.512   5.555
10255POPC   PO459892   2.029   3.545   5.855
10255POPC   GL159893   2.019   3.538   6.155
10255POPC   GL259894   2.162   3.550   6.155
10255POPC   C1A59895   1.964   3.515   6.455
10255POPC   D2A59896   2.007   3.555   6.755
10255POPC   C3A59897   2.025   3.521   7.055
10255POPC   C4A59898   2.022   3.527   7.355
10255POPC   C1B59899   2.214   3.586   6.455
10255POPC   C2B59900   2.217   3.513   6.755
10255POPC   C3B59901   2.212   3.521   7.055
10255POPC   C4B59902   2.241   3.549   7.355
10256POPC   NC359903   3.508  21.388   5.555
10256POPC   PO459904   3.511  21.359   5.855
10256POPC   GL159905   3.496  21.369   6.155
10256POPC   GL259906   3.578  21.460   6.155
10256POPC   C1A59907   3.498  21.426   6.455
10256POPC   D2A59908   3.539  21.361   6.755
10256POPC   C3A59909   3.585  21.393   7.055
10256POPC   C4A59910   3.550  21.388   7.355
10256POPC   C1B59911   3.708  21.600   6.455
10256POPC   C2B59912   3.658  21.578   6.755
10256POPC   C3B59913   3.695  21.538   7.055
10256POPC   C4B59914   3.679  21.556   7.355
10257POPC   NC359915  35.366   0.480   5.555
10257POPC   PO459916  35.332   0.472   5.855
10257POPC   GL159917  35.384   0.396   6.155
10257POPC   GL259918  35.406   0.365   6.155
10257POPC   C1A59919  35.348   0.424   6.455
10257POPC   D2A59920  35.381   0.434   6.755
10257POPC   C3A59921  35.387   0.482   7.055
10257POPC   C4A59922  35.318   0.432   7.355
10257POPC   C1B59923  35.430   0.213   6.455
10257POPC   C2B59924  35.444   0.157   6.755
10257POPC   C3B59925  35.433   0.149   7.055
10257POPC   C4B59926  35.404   0.187   7.355
10258POPC   NC359927  22.963  44.645   5.555
10258POPC   PO459928  22.949  44.640   5.855
10258POPC   GL159929  22.981  44.695   6.155
10258POPC   GL259930  23.069  44.735   6.155
10258POPC   C1A59931  22.899  44.691   6.455
10258POPC   D2A59932  22.973  44.711   6.755
10258POPC   C3A59933  22.900  44.627   7.055
10258POPC   C4A59934  22.955  44.695   7.355
10258POPC   C1B59935  23.171  44.792   6.455
10258POPC   C2B59936  23.173  44.775   6.755
10258POPC   C3B59937  23.139  44.779   7.055
10258POPC   C4B59938  23.187  44.757   7.355
10259POPC   NC359939  43.111  12.093   5.555
10259POPC   PO459940  43.132  12.086   5.855
10259POPC   GL159941  43.160  12.090   6.155
10259POPC   GL259942  43.134  11.929   6.155
10259POPC   C1A59943  43.085  12.029   6.455
10259POPC   D2A59944  43.074  12.072   6.755
10259POPC   C3A59945  43.122  12.068   7.055
10259POPC   C4A59946  43.149  12.113   7.355
10259POPC   C1B59947  43.231  11.911   6.455
10259POPC   C2B59948  43.214  11.864   6.755
10259POPC   C3B59949  43.259  11.838   7.055
10259POPC   C4B59950  43.277  11.914   7.355
10260POPC   NC359951   7.387  16.728   5.555
10260POPC   PO459952   7.417  16.759   5.855
10260POPC   GL159953   7.385  16.773   6.155
10260POPC   GL259954   7.397  16.877   6.155
10260POPC   C1A59955   7.388  16.746   6.455
10260POPC   D2A59956   7.421  16.780   6.755
10260POPC   C3A59957   7.458  16.710   7.055
10260POPC   C4A59958   7.438  16.743   7.355
10260POPC   C1B59959   7.400  17.028   6.455
10260POPC   C2B59960   7.366  16.987   6.755
10260POPC   C3B59961   7.404  16.965   7.055
10260POPC   C4B59962   7.372  16.975   7.355
10261POPC   NC359963   8.939  26.022   5.555
10261POPC   PO459964   8.977  26.024   5.855
10261POPC   GL159965   8.943  25.992   6.155
10261POPC   GL259966   8.962  25.968   6.155
10261POPC   C1A59967   8.969  26.011   6.455
10261POPC   D2A59968   8.965  26.054   6.755
10261POPC   C3A59969   8.941  26.006   7.055
10261POPC   C4A59970   8.964  26.011   7.355
10261POPC   C1B59971   8.906  25.806   6.455
10261POPC   C2B59972   8.903  25.828   6.755
10261POPC   C3B59973   8.921  25.843   7.055
10261POPC   C4B59974   8.930  25.846   7.355
10262POPC   NC359975  15.132   8.990   5.555
10262POPC   PO459976  15.198   8.949   5.855
10262POPC   GL159977  15.163   9.016   6.155
10262POPC   GL259978  15.187   9.077   6.155
10262POPC   C1A59979  15.219   9.018   6.455
10262POPC   D2A59980  15.153   8.994   6.755
10262POPC   C3A59981  15.220   9.002   7.055
10262POPC   C4A59982  15.204   8.933   7.355
10262POPC   C1B59983  15.102   9.178   6.455
10262POPC   C2B59984  15.066   9.257   6.755
10262POPC   C3B59985  15.118   9.252   7.055
10262POPC   C4B59986  15.115   9.201   7.355
10263POPC   NC359987   5.852  31.425   5.555
10263POPC   PO459988   5.831  31.468   5.855
10263POPC   GL159989   5.831  31.442   6.155
10263POPC   GL259990   5.919  31.397   6.155
10263POPC   C1A59991   5.881  31.504   6.455
10263POPC   D2A59992   5.827  31.489   6.755
10263POPC   C3A59993   5.884  31.471   7.055
10263POPC   C4A59994   5.851  31.442   7.355
10263POPC   C1B59995   6.008  31.248   6.455
10263POPC   C2B59996   5.942  31.228   6.755
10263POPC   C3B59997   5.948  31.216   7.055
10263POPC   C4B59998   5.940  31.223   7.355
10264POPC   NC359999  41.549  20.586   5.555
10264POPC   PO460000  41.601  20.562   5.855
10264POPC   GL160001  41.569  20.618   6.155
10264POPC   GL260002  41.504  20.687   6.155
10264POPC   C1A60003  41.589  20.578   6.455
10264POPC   D2A60004  41.533  20.579   6.755
10264POPC   C3A60005  41.516  20.606   7.055
10264POPC   C4A60006  41.585  20.643   7.355
10264POPC   C1B60007  41.451  20.803   6.455
10264POPC   C2B60008  41.480  20.854   6.755
10264POPC   C3B60009  41.453  20.877   7.055
10264POPC   C4B60010  41.501  20.823   7.355
10265POPC   NC360011  26.818  32.265   5.555
10265POPC   PO460012  26.852  32.255   5.855
10265POPC   GL160013  26.795  32.280   6.155
10265POPC   GL260014  26.817  32.374   6.155
10265POPC   C1A60015  26.859  32.200   6.455
10265POPC   D2A60016  26.853  32.211   6.755
10265POPC   C3A60017  26.778  32.239   7.055
10265POPC   C4A60018  26.810  32.258   7.355
10265POPC   C1B60019  26.842  32.474   6.455
10265POPC   C2B60020  26.815  32.479   6.755
10265POPC   C3B60021  26.908  32.451   7.055
10265POPC   C4B60022  26.817  32.476   7.355
10266POPC   NC360023  44.707  21.410   5.555
10266POPC   PO460024  44.703  21.364   5.855
10266POPC   GL160025  44.661  21.360   6.155
10266POPC   GL260026  44.591  21.311   6.155
10266POPC   C1A60027  44.677  21.410   6.455
10266POPC   D2A60028  44.628  21.425   6.755
10266POPC   C3A60029  44.710  21.414   7.055
10266POPC   C4A60030  44.710  21.359   7.355
10266POPC   C1B60031  44.388  21.283   6.455
10266POPC   C2B60032  44.403  21.292   6.755
10266POPC   C3B60033  44.468  21.250   7.055
10266POPC   C4B60034  44.472  21.302   7.355
10267POPC   NC360035  34.592  20.597   5.555
10267POPC   PO460036  34.598  20.572   5.855
10267POPC   GL160037  34.533  20.640   6.155
10267POPC   GL260038  34.679  20.677   6.155
10267POPC   C1A60039  34.594  20.600   6.455
10267POPC   D2A60040  34.601  20.633   6.755
10267POPC   C3A60041  34.566  20.600   7.055
10267POPC   C4A60042  34.610  20.657   7.355
10267POPC   C1B60043  34.775  20.680   6.455
10267POPC   C2B60044  34.805  20.682   6.755
10267POPC   C3B60045  34.792  20.697   7.055
10267POPC   C4B60046  34.787  20.717   7.355
10268POPC   NC360047   8.946  37.646   5.555
10268POPC   PO460048   9.009  37.662   5.855
10268POPC   GL160049   8.986  37.665   6.155
10268POPC   GL260050   8.938  37.775   6.155
10268POPC   C1A60051   8.949  37.703   6.455
10268POPC   D2A60052   8.930  37.676   6.755
10268POPC   C3A60053   8.964  37.688   7.055
10268POPC   C4A60054   9.007  37.707   7.355
10268POPC   C1B60055   8.938  37.934   6.455
10268POPC   C2B60056   8.959  37.905   6.755
10268POPC   C3B60057   8.989  37.966   7.055
10268POPC   C4B60058   8.935  37.887   7.355
10269POPC   NC360059  12.866  39.220   5.555
10269POPC   PO460060  12.819  39.227   5.855
10269POPC   GL160061  12.872  39.183   6.155
10269POPC   GL260062  12.779  39.187   6.155
10269POPC   C1A60063  12.835  39.259   6.455
10269POPC   D2A60064  12.852  39.225   6.755
10269POPC   C3A60065  12.813  39.275   7.055
10269POPC   C4A60066  12.827  39.259   7.355
10269POPC   C1B60067  12.634  39.148   6.455
10269POPC   C2B60068  12.577  39.150   6.755
10269POPC   C3B60069  12.595  39.194   7.055
10269POPC   C4B60070  12.616  39.148   7.355
10270POPC   NC360071  39.182   1.997   5.555
10270POPC   PO460072  39.206   1.982   5.855
10270POPC   GL160073  39.218   2.012   6.155
10270POPC   GL260074  39.225   1.880   6.155
10270POPC   C1A60075  39.241   1.960   6.455
10270POPC   D2A60076  39.240   1.958   6.755
10270POPC   C3A60077  39.251   2.025   7.055
10270POPC   C4A60078  39.196   2.031   7.355
10270POPC   C1B60079  39.179   1.787   6.455
10270POPC   C2B60080  39.207   1.781   6.755
10270POPC   C3B60081  39.190   1.759   7.055
10270POPC   C4B60082  39.220   1.745   7.355
10271POPC   NC360083   4.365  11.309   5.555
10271POPC   PO460084   4.357  11.299   5.855
10271POPC   GL160085   4.283  11.277   6.155
10271POPC   GL260086   4.319  11.163   6.155
10271POPC   C1A60087   4.307  11.293   6.455
10271POPC   D2A60088   4.356  11.254   6.755
10271POPC   C3A60089   4.273  11.336   7.055
10271POPC   C4A60090   4.365  11.327   7.355
10271POPC   C1B60091   4.413  11.034   6.455
10271POPC   C2B60092   4.400  11.090   6.755
10271POPC   C3B60093   4.436  11.076   7.055
10271POPC   C4B60094   4.370  11.022   7.355
10272POPC   NC360095   1.231  26.048   5.555
10272POPC   PO460096   1.189  26.089   5.855
10272POPC   GL160097   1.205  26.091   6.155
10272POPC   GL260098   1.123  25.894   6.155
10272POPC   C1A60099   1.248  26.053   6.455
10272POPC   D2A60100   1.223  26.056   6.755
10272POPC   C3A60101   1.181  26.088   7.055
10272POPC   C4A60102   1.166  26.042   7.355
10272POPC   C1B60103   1.050  25.818   6.455
10272POPC   C2B60104   1.037  25.798   6.755
10272POPC   C3B60105   1.060  25.883   7.055
10272POPC   C4B60106   1.047  25.832   7.355
10273POPC   NC360107   0.398  44.615   5.555
10273POPC   PO460108   0.393  44.618   5.855
10273POPC   GL160109   0.485  44.686   6.155
10273POPC   GL260110   0.418  44.515   6.155
10273POPC   C1A60111   0.484  44.617   6.455
10273POPC   D2A60112   0.470  44.693   6.755
10273POPC   C3A60113   0.430  44.705   7.055
10273POPC   C4A60114   0.408  44.615   7.355
10273POPC   C1B60115   0.291  44.453   6.455
10273POPC   C2B60116   0.353  44.495   6.755
10273POPC   C3B60117   0.297  44.470   7.055
10273POPC   C4B60118   0.351  44.400   7.355
10274POPC   NC360119  10.547  19.094   5.555
10274POPC   PO460120  10.558  19.044   5.855
10274POPC   GL160121  10.564  19.048   6.155
10274POPC   GL260122  10.525  18.905   6.155
10274POPC   C1A60123  10.519  19.093   6.455
10274POPC   D2A60124  10.527  19.073   6.755
10274POPC   C3A60125  10.480  19.036   7.055
10274POPC   C4A60126  10.528  19.031   7.355
10274POPC   C1B60127  10.580  18.825   6.455
10274POPC   C2B60128  10.626  18.806   6.755
10274POPC   C3B60129  10.628  18.832   7.055
10274POPC   C4B60130  10.587  18.802   7.355
10275POPC   NC360131  44.699   1.238   5.555
10275POPC   PO460132  44.692   1.235   5.855
10275POPC   GL160133  44.641   1.196   6.155
10275POPC   GL260134  44.798   1.324   6.155
10275POPC   C1A60135  44.638   1.182   6.455
10275POPC   D2A60136  44.624   1.221   6.755
10275POPC   C3A60137  44.631   1.190   7.055
10275POPC   C4A60138  44.616   1.248   7.355
10275POPC   C1B60139  44.884   1.344   6.455
10275POPC   C2B60140  44.874   1.381   6.755
10275POPC   C3B60141  44.884   1.398   7.055
10275POPC   C4B60142  44.847   1.394   7.355
10276POPC   NC360143  22.916  43.877   5.555
10276POPC   PO460144  22.957  43.894   5.855
10276POPC   GL160145  22.908  43.840   6.155
10276POPC   GL260146  23.000  43.817   6.155
10276POPC   C1A60147  22.912  43.893   6.455
10276POPC   D2A60148  22.896  43.918   6.755
10276POPC   C3A60149  22.984  43.929   7.055
10276POPC   C4A60150  22.955  43.843   7.355
10276POPC   C1B60151  23.142  43.744   6.455
10276POPC   C2B60152  23.081  43.740   6.755
10276POPC   C3B60153  23.102  43.753   7.055
10276POPC   C4B60154  23.081  43.733   7.355
10277POPC   NC360155   4.305  17.529   5.555
10277POPC   PO460156   4.337  17.515   5.855
10277POPC   GL160157   4.296  17.541   6.155
10277POPC   GL260158   4.351  17.412   6.155
10277POPC   C1A60159   4.327  17.499   6.455
10277POPC   D2A60160   4.300  17.515   6.755
10277POPC   C3A60161   4.348  17.552   7.055
10277POPC   C4A60162   4.314  17.549   7.355
10277POPC   C1B60163   4.479  17.350   6.455
10277POPC   C2B60164   4.492  17.327   6.755
10277POPC   C3B60165   4.498  17.333   7.055
10277POPC   C4B60166   4.422  17.332   7.355
10278POPC   NC360167  42.292  14.379   5.555
10278POPC   PO460168  42.338  14.363   5.855
10278POPC   GL160169  42.297  14.429   6.155
10278POPC   GL260170  42.198  14.466   6.155
10278POPC   C1A60171  42.356  14.389   6.455
10278POPC   D2A60172  42.302  14.452   6.755
10278POPC   C3A60173  42.325  14.390   7.055
10278POPC   C4A60174  42.375  14.428   7.355
10278POPC   C1B60175  42.107  14.461   6.455
10278POPC   C2B60176  42.086  14.479   6.755
10278POPC   C3B60177  42.044  14.472   7.055
10278POPC   C4B60178  42.093  14.423   7.355
10279POPC   NC360179  35.307  29.893   5.555
10279POPC   PO460180  35.395  29.896   5.855
10279POPC   GL160181  35.362  29.941   6.155
10279POPC   GL260182  35.245  29.795   6.155
10279POPC   C1A60183  35.357  29.878   6.455
10279POPC   D2A60184  35.349  29.928   6.755
10279POPC   C3A60185  35.372  29.957   7.055
10279POPC   C4A60186  35.362  29.889   7.355
10279POPC   C1B60187  35.140  29.773   6.455
10279POPC   C2B60188  35.144  29.725   6.755
10279POPC   C3B60189  35.225  29.750   7.055
10279POPC   C4B60190  35.215  29.757   7.355
10280POPC   NC360191   2.757   2.794   5.555
10280POPC   PO460192   2.775   2.764   5.855
10280POPC   GL160193   2.807   2.757   6.155
10280POPC   GL260194   2.790   2.660   6.155
10280POPC   C1A60195   2.810   2.728   6.455
10280POPC   D2A60196   2.753   2.781   6.755
10280POPC   C3A60197   2.756   2.771   7.055
10280POPC   C4A60198   2.776   2.729   7.355
10280POPC   C1B60199   2.843   2.504   6.455
10280POPC   C2B60200   2.842   2.557   6.755
10280POPC   C3B60201   2.894   2.578   7.055
10280POPC   C4B60202   2.858   2.498   7.355
10281POPC   NC360203  38.457   8.198   5.555
10281POPC   PO460204  38.474   8.179   5.855
10281POPC   GL160205  38.493   8.167   6.155
10281POPC   GL260206  38.541   8.321   6.155
10281POPC   C1A60207  38.487   8.216   6.455
10281POPC   D2A60208  38.415   8.228   6.755
10281POPC   C3A60209  38.500   8.246   7.055
10281POPC   C4A60210  38.481   8.176   7.355
10281POPC   C1B60211  38.607   8.401   6.455
10281POPC   C2B60212  38.645   8.351   6.755
10281POPC   C3B60213  38.586   8.398   7.055
10281POPC   C4B60214  38.617   8.328   7.355
10282POPC   NC360215  15.931  28.380   5.555
10282POPC   PO460216  15.907  28.333   5.855
10282POPC   GL160217  15.954  28.411   6.155
10282POPC   GL260218  16.046  28.372   6.155
10282POPC   C1A60219  15.924  28.327   6.455
10282POPC   D2A60220  15.980  28.366   6.755
10282POPC   C3A60221  15.906  28.376   7.055
10282POPC   C4A60222  15.942  28.355   7.355
10282POPC   C1B60223  16.184  28.434   6.455
10282POPC   C2B60224  16.203  28.360   6.755
10282POPC   C3B60225  16.176  28.342   7.055
10282POPC   C4B60226  16.221  28.408   7.355
10283POPC   NC360227  36.864   5.105   5.555
10283POPC   PO460228  36.940   5.121   5.855
10283POPC   GL160229  36.950   5.112   6.155
10283POPC   GL260230  36.874   5.224   6.155
10283POPC   C1A60231  36.860   5.081   6.455
10283POPC   D2A60232  36.909   5.113   6.755
10283POPC   C3A60233  36.932   5.088   7.055
10283POPC   C4A60234  36.937   5.090   7.355
10283POPC   C1B60235  36.829   5.322   6.455
10283POPC   C2B60236  36.837   5.314   6.755
10283POPC   C3B60237  36.756   5.361   7.055
10283POPC   C4B60238  36.829   5.355   7.355
10284POPC   NC360239  44.693   9.713   5.555
10284POPC   PO460240  44.621   9.731   5.855
10284POPC   GL160241  44.696   9.716   6.155
10284POPC   GL260242  44.780   9.774   6.155
10284POPC   C1A60243  44.678   9.772   6.455
10284POPC   D2A60244  44.635   9.754   6.755
10284POPC   C3A60245  44.658   9.712   7.055
10284POPC   C4A60246  44.616   9.709   7.355
10284POPC   C1B60247  44.881   9.833   6.455
10284POPC   C2B60248  44.933   9.851   6.755
10284POPC   C3B60249  44.856   9.828   7.055
10284POPC   C4B60250  44.890   9.814   7.355
10285POPC   NC360251  39.250  19.876   5.555
10285POPC   PO460252  39.218  19.815   5.855
10285POPC   GL160253  39.189  19.880   6.155
10285POPC   GL260254  39.181  19.926   6.155
10285POPC   C1A60255  39.205  19.859   6.455
10285POPC   D2A60256  39.192  19.874   6.755
10285POPC   C3A60257  39.190  19.814   7.055
10285POPC   C4A60258  39.215  19.835   7.355
10285POPC   C1B60259  39.136  20.018   6.455
10285POPC   C2B60260  39.063  20.021   6.755
10285POPC   C3B60261  39.078  20.012   7.055
10285POPC   C4B60262  39.073  20.013   7.355
10286POPC   NC360263  43.855  15.935   5.555
10286POPC   PO460264  43.875  15.992   5.855
10286POPC   GL160265  43.861  15.918   6.155
10286POPC   GL260266  43.957  16.080   6.155
10286POPC   C1A60267  43.912  15.995   6.455
10286POPC   D2A60268  43.841  15.998   6.755
10286POPC   C3A60269  43.853  15.952   7.055
10286POPC   C4A60270  43.855  16.001   7.355
10286POPC   C1B60271  43.927  16.203   6.455
10286POPC   C2B60272  43.935  16.174   6.755
10286POPC   C3B60273  43.960  16.217   7.055
10286POPC   C4B60274  43.987  16.231   7.355
10287POPC   NC360275  43.156  32.256   5.555
10287POPC   PO460276  43.112  32.248   5.855
10287POPC   GL160277  43.118  32.273   6.155
10287POPC   GL260278  43.253  32.326   6.155
10287POPC   C1A60279  43.085  32.220   6.455
10287POPC   D2A60280  43.068  32.276   6.755
10287POPC   C3A60281  43.078  32.242   7.055
10287POPC   C4A60282  43.117  32.231   7.355
10287POPC   C1B60283  43.317  32.308   6.455
10287POPC   C2B60284  43.324  32.333   6.755
10287POPC   C3B60285  43.308  32.340   7.055
10287POPC   C4B60286  43.346  32.322   7.355
10288POPC   NC360287  15.129  13.652   5.555
10288POPC   PO460288  15.187  13.610   5.855
10288POPC   GL160289  15.159  13.668   6.155
10288POPC   GL260290  15.224  13.783   6.155
10288POPC   C1A60291  15.168  13.648   6.455
10288POPC   D2A60292  15.136  13.674   6.755
10288POPC   C3A60293  15.131  13.589   7.055
10288POPC   C4A60294  15.130  13.625   7.355
10288POPC   C1B60295  15.144  13.901   6.455
10288POPC   C2B60296  15.194  13.854   6.755
10288POPC   C3B60297  15.189  13.873   7.055
10288POPC   C4B60298  15.210  13.895   7.355
10289POPC   NC360299  19.802  35.384   5.555
10289POPC   PO460300  19.794  35.304   5.855
10289POPC   GL160301  19.855  35.380   6.155
10289POPC   GL260302  19.842  35.266   6.155
10289POPC   C1A60303  19.810  35.321   6.455
10289POPC   D2A60304  19.880  35.322   6.755
10289POPC   C3A60305  19.810  35.322   7.055
10289POPC   C4A60306  19.809  35.372   7.355
10289POPC   C1B60307  19.837  35.058   6.455
10289POPC   C2B60308  19.843  35.063   6.755
10289POPC   C3B60309  19.922  35.142   7.055
10289POPC   C4B60310  19.931  35.118   7.355
10290POPC   NC360311   6.680  15.997   5.555
10290POPC   PO460312   6.687  15.906   5.855
10290POPC   GL160313   6.691  15.989   6.155
10290POPC   GL260314   6.520  15.888   6.155
10290POPC   C1A60315   6.675  16.001   6.455
10290POPC   D2A60316   6.636  15.988   6.755
10290POPC   C3A60317   6.631  15.978   7.055
10290POPC   C4A60318   6.686  15.917   7.355
10290POPC   C1B60319   6.424  15.881   6.455
10290POPC   C2B60320   6.413  15.913   6.755
10290POPC   C3B60321   6.438  15.910   7.055
10290POPC   C4B60322   6.357  15.844   7.355
10291POPC   NC360323   7.467  10.512   5.555
10291POPC   PO460324   7.465  10.474   5.855
10291POPC   GL160325   7.392  10.485   6.155
10291POPC   GL260326   7.533  10.490   6.155
10291POPC   C1A60327   7.444  10.548   6.455
10291POPC   D2A60328   7.421  10.563   6.755
10291POPC   C3A60329   7.374  10.498   7.055
10291POPC   C4A60330   7.446  10.526   7.355
10291POPC   C1B60331   7.717  10.478   6.455
10291POPC   C2B60332   7.668  10.492   6.755
10291POPC   C3B60333   7.669  10.550   7.055
10291POPC   C4B60334   7.642  10.488   7.355
10292POPC   NC360335  15.162  22.207   5.555
10292POPC   PO460336  15.200  22.131   5.855
10292POPC   GL160337  15.191  22.131   6.155
10292POPC   GL260338  15.196  22.252   6.155
10292POPC   C1A60339  15.222  22.145   6.455
10292POPC   D2A60340  15.216  22.134   6.755
10292POPC   C3A60341  15.191  22.197   7.055
10292POPC   C4A60342  15.194  22.193   7.355
10292POPC   C1B60343  15.124  22.448   6.455
10292POPC   C2B60344  15.145  22.378   6.755
10292POPC   C3B60345  15.098  22.379   7.055
10292POPC   C4B60346  15.156  22.403   7.355
10293POPC   NC360347  16.749   6.664   5.555
10293POPC   PO460348  16.736   6.676   5.855
10293POPC   GL160349  16.716   6.691   6.155
10293POPC   GL260350  16.872   6.753   6.155
10293POPC   C1A60351  16.758   6.614   6.455
10293POPC   D2A60352  16.751   6.654   6.755
10293POPC   C3A60353  16.682   6.677   7.055
10293POPC   C4A60354  16.688   6.660   7.355
10293POPC   C1B60355  16.943   6.805   6.455
10293POPC   C2B60356  16.957   6.771   6.755
10293POPC   C3B60357  16.953   6.763   7.055
10293POPC   C4B60358  16.949   6.733   7.355
10294POPC   NC360359   4.323  32.271   5.555
10294POPC   PO460360   4.343  32.217   5.855
10294POPC   GL160361   4.291  32.259   6.155
10294POPC   GL260362   4.393  32.163   6.155
10294POPC   C1A60363   4.335  32.229   6.455
10294POPC   D2A60364   4.294  32.261   6.755
10294POPC   C3A60365   4.276  32.262   7.055
10294POPC   C4A60366   4.340  32.203   7.355
10294POPC   C1B60367   4.501  32.078   6.455
10294POPC   C2B60368   4.510  32.065   6.755
10294POPC   C3B60369   4.488  32.070   7.055
10294POPC   C4B60370   4.482  32.007   7.355
10295POPC   NC360371  29.140   8.204   5.555
10295POPC   PO460372  29.152   8.223   5.855
10295POPC   GL160373  29.103   8.152   6.155
10295POPC   GL260374  29.194   8.321   6.155
10295POPC   C1A60375  29.122   8.235   6.455
10295POPC   D2A60376  29.105   8.166   6.755
10295POPC   C3A60377  29.167   8.211   7.055
10295POPC   C4A60378  29.155   8.204   7.355
10295POPC   C1B60379  29.321   8.333   6.455
10295POPC   C2B60380  29.359   8.306   6.755
10295POPC   C3B60381  29.290   8.314   7.055
10295POPC   C4B60382  29.381   8.337   7.355
10296POPC   NC360383  15.131   1.199   5.555
10296POPC   PO460384  15.158   1.263   5.855
10296POPC   GL160385  15.182   1.236   6.155
10296POPC   GL260386  15.058   1.255   6.155
10296POPC   C1A60387  15.160   1.195   6.455
10296POPC   D2A60388  15.184   1.194   6.755
10296POPC   C3A60389  15.162   1.182   7.055
10296POPC   C4A60390  15.228   1.199   7.355
10296POPC   C1B60391  14.974   1.301   6.455
10296POPC   C2B60392  15.014   1.392   6.755
10296POPC   C3B60393  14.966   1.311   7.055
10296POPC   C4B60394  14.955   1.355   7.355
10297POPC   NC360395  15.150   8.199   5.555
10297POPC   PO460396  15.181   8.155   5.855
10297POPC   GL160397  15.206   8.165   6.155
10297POPC   GL260398  15.277   8.176   6.155
10297POPC   C1A60399  15.199   8.186   6.455
10297POPC   D2A60400  15.205   8.151   6.755
10297POPC   C3A60401  15.184   8.207   7.055
10297POPC   C4A60402  15.155   8.161   7.355
10297POPC   C1B60403  15.455   8.133   6.455
10297POPC   C2B60404  15.404   8.201   6.755
10297POPC   C3B60405  15.473   8.152   7.055
10297POPC   C4B60406  15.377   8.119   7.355
10298POPC   NC360407  34.599  13.605   5.555
10298POPC   PO460408  34.529  13.623   5.855
10298POPC   GL160409  34.620  13.642   6.155
10298POPC   GL260410  34.489  13.674   6.155
10298POPC   C1A60411  34.541  13.626   6.455
10298POPC   D2A60412  34.534  13.601   6.755
10298POPC   C3A60413  34.557  13.649   7.055
10298POPC   C4A60414  34.615  13.615   7.355
10298POPC   C1B60415  34.387  13.777   6.455
10298POPC   C2B60416  34.335  13.691   6.755
10298POPC   C3B60417  34.385  13.760   7.055
10298POPC   C4B60418  34.383  13.783   7.355
10299POPC   NC360419  35.321  12.888   5.555
10299POPC   PO460420  35.312  12.822   5.855
10299POPC   GL160421  35.372  12.813   6.155
10299POPC   GL260422  35.291  12.723   6.155
10299POPC   C1A60423  35.324  12.871   6.455
10299POPC   D2A60424  35.309  12.895   6.755
10299POPC   C3A60425  35.322  12.809   7.055
10299POPC   C4A60426  35.349  12.815   7.355
10299POPC   C1B60427  35.311  12.610   6.455
10299POPC   C2B60428  35.296  12.616   6.755
10299POPC   C3B60429  35.279  12.652   7.055
10299POPC   C4B60430  35.319  12.648   7.355
10300POPC   NC360431  44.659  42.303   5.555
10300POPC   PO460432  44.636  42.356   5.855
10300POPC   GL160433  44.643  42.356   6.155
10300POPC   GL260434  44.712  42.426   6.155
10300POPC   C1A60435  44.709  42.358   6.455
10300POPC   D2A60436  44.681  42.365   6.755
10300POPC   C3A60437  44.685  42.367   7.055
10300POPC   C4A60438  44.689  42.318   7.355
10300POPC   C1B60439  44.724  42.583   6.455
10300POPC   C2B60440  44.722  42.538   6.755
10300POPC   C3B60441  44.811  42.592   7.055
10300POPC   C4B60442  44.740  42.584   7.355
10301POPC   NC360443  44.663  15.146   5.555
10301POPC   PO460444  44.676  15.175   5.855
10301POPC   GL160445  44.693  15.133   6.155
10301POPC   GL260446  44.581  15.183   6.155
10301POPC   C1A60447  44.692  15.196   6.455
10301POPC   D2A60448  44.677  15.177   6.755
10301POPC   C3A60449  44.696  15.148   7.055
10301POPC   C4A60450  44.675  15.148   7.355
10301POPC   C1B60451  44.434  15.087   6.455
10301POPC   C2B60452  44.416  15.058   6.755
10301POPC   C3B60453  44.474  15.132   7.055
10301POPC   C4B60454  44.404  15.115   7.355
10302POPC   NC360455   5.051  21.390   5.555
10302POPC   PO460456   5.050  21.361   5.855
10302POPC   GL160457   5.060  21.397   6.155
10302POPC   GL260458   5.237  21.394   6.155
10302POPC   C1A60459   5.074  21.422   6.455
10302POPC   D2A60460   5.082  21.388   6.755
10302POPC   C3A60461   5.073  21.365   7.055
10302POPC   C4A60462   5.139  21.343   7.355
10302POPC   C1B60463   5.296  21.356   6.455
10302POPC   C2B60464   5.314  21.288   6.755
10302POPC   C3B60465   5.305  21.325   7.055
10302POPC   C4B60466   5.342  21.340   7.355
10303POPC   NC360467  11.349  21.343   5.555
10303POPC   PO460468  11.330  21.359   5.855
10303POPC   GL160469  11.260  21.357   6.155
10303POPC   GL260470  11.347  21.477   6.155
10303POPC   C1A60471  11.255  21.376   6.455
10303POPC   D2A60472  11.290  21.404   6.755
10303POPC   C3A60473  11.285  21.381   7.055
10303POPC   C4A60474  11.261  21.365   7.355
10303POPC   C1B60475  11.288  21.595   6.455
10303POPC   C2B60476  11.316  21.632   6.755
10303POPC   C3B60477  11.262  21.627   7.055
10303POPC   C4B60478  11.270  21.633   7.355
10304POPC   NC360479  32.246  36.910   5.555
10304POPC   PO460480  32.261  36.914   5.855
10304POPC   GL160481  32.240  36.885   6.155
10304POPC   GL260482  32.312  36.849   6.155
10304POPC   C1A60483  32.232  36.895   6.455
10304POPC   D2A60484  32.280  36.886   6.755
10304POPC   C3A60485  32.265  36.917   7.055
10304POPC   C4A60486  32.261  36.938   7.355
10304POPC   C1B60487  32.479  36.718   6.455
10304POPC   C2B60488  32.438  36.740   6.755
10304POPC   C3B60489  32.483  36.795   7.055
10304POPC   C4B60490  32.501  36.736   7.355
10305POPC   NC360491  15.919  33.058   5.555
10305POPC   PO460492  15.947  33.031   5.855
10305POPC   GL160493  15.972  32.997   6.155
10305POPC   GL260494  16.028  33.046   6.155
10305POPC   C1A60495  15.934  32.987   6.455
10305POPC   D2A60496  15.924  33.022   6.755
10305POPC   C3A60497  15.913  32.989   7.055
10305POPC   C4A60498  16.005  33.041   7.355
10305POPC   C1B60499  16.220  33.142   6.455
10305POPC   C2B60500  16.146  33.088   6.755
10305POPC   C3B60501  16.221  33.143   7.055
10305POPC   C4B60502  16.206  33.070   7.355
10306POPC   NC360503  12.830  29.880   5.555
10306POPC   PO460504  12.847  29.955   5.855
10306POPC   GL160505  12.888  29.877   6.155
10306POPC   GL260506  12.739  29.945   6.155
10306POPC   C1A60507  12.881  29.902   6.455
10306POPC   D2A60508  12.824  29.965   6.755
10306POPC   C3A60509  12.835  29.965   7.055
10306POPC   C4A60510  12.891  29.913   7.355
10306POPC   C1B60511  12.646  30.027   6.455
10306POPC   C2B60512  12.659  30.028   6.755
10306POPC   C3B60513  12.617  30.049   7.055
10306POPC   C4B60514  12.598  30.065   7.355
10307POPC   NC360515  20.659  38.467   5.555
10307POPC   PO460516  20.612  38.417   5.855
10307POPC   GL160517  20.618  38.475   6.155
10307POPC   GL260518  20.721  38.500   6.155
10307POPC   C1A60519  20.604  38.423   6.455
10307POPC   D2A60520  20.641  38.405   6.755
10307POPC   C3A60521  20.585  38.464   7.055
10307POPC   C4A60522  20.589  38.413   7.355
10307POPC   C1B60523  20.826  38.536   6.455
10307POPC   C2B60524  20.843  38.504   6.755
10307POPC   C3B60525  20.803  38.560   7.055
10307POPC   C4B60526  20.808  38.506   7.355
10308POPC   NC360527   7.439   3.532   5.555
10308POPC   PO460528   7.398   3.544   5.855
10308POPC   GL160529   7.424   3.558   6.155
10308POPC   GL260530   7.280   3.488   6.155
10308POPC   C1A60531   7.422   3.538   6.455
10308POPC   D2A60532   7.387   3.537   6.755
10308POPC   C3A60533   7.420   3.574   7.055
10308POPC   C4A60534   7.386   3.504   7.355
10308POPC   C1B60535   7.186   3.406   6.455
10308POPC   C2B60536   7.204   3.364   6.755
10308POPC   C3B60537   7.161   3.420   7.055
10308POPC   C4B60538   7.194   3.436   7.355
10309POPC   NC360539  29.179   1.980   5.555
10309POPC   PO460540  29.101   2.013   5.855
10309POPC   GL160541  29.113   2.035   6.155
10309POPC   GL260542  29.095   1.885   6.155
10309POPC   C1A60543  29.170   2.004   6.455
10309POPC   D2A60544  29.115   2.032   6.755
10309POPC   C3A60545  29.163   1.968   7.055
10309POPC   C4A60546  29.127   1.975   7.355
10309POPC   C1B60547  29.053   1.705   6.455
10309POPC   C2B60548  29.113   1.702   6.755
10309POPC   C3B60549  29.060   1.758   7.055
10309POPC   C4B60550  29.056   1.751   7.355
10310POPC   NC360551   9.011   1.171   5.555
10310POPC   PO460552   8.951   1.201   5.855
10310POPC   GL160553   9.021   1.170   6.155
10310POPC   GL260554   8.941   1.107   6.155
10310POPC   C1A60555   8.980   1.252   6.455
10310POPC   D2A60556   8.955   1.219   6.755
10310POPC   C3A60557   8.986   1.217   7.055
10310POPC   C4A60558   8.923   1.243   7.355
10310POPC   C1B60559   8.898   0.949   6.455
10310POPC   C2B60560   8.909   1.019   6.755
10310POPC   C3B60561   8.907   0.931   7.055
10310POPC   C4B60562   8.942   1.010   7.355
10311POPC   NC360563  21.415  26.782   5.555
10311POPC   PO460564  21.405  26.788   5.855
10311POPC   GL160565  21.370  26.780   6.155
10311POPC   GL260566  21.476  26.810   6.155
10311POPC   C1A60567  21.388  26.787   6.455
10311POPC   D2A60568  21.419  26.803   6.755
10311POPC   C3A60569  21.400  26.849   7.055
10311POPC   C4A60570  21.352  26.831   7.355
10311POPC   C1B60571  21.648  26.721   6.455
10311POPC   C2B60572  21.618  26.704   6.755
10311POPC   C3B60573  21.631  26.683   7.055
10311POPC   C4B60574  21.581  26.667   7.355
10312POPC   NC360575  36.133  30.663   5.555
10312POPC   PO460576  36.101  30.670   5.855
10312POPC   GL160577  36.127  30.648   6.155
10312POPC   GL260578  36.007  30.717   6.155
10312POPC   C1A60579  36.078  30.698   6.455
10312POPC   D2A60580  36.140  30.699   6.755
10312POPC   C3A60581  36.168  30.666   7.055
10312POPC   C4A60582  36.117  30.715   7.355
10312POPC   C1B60583  35.860  30.763   6.455
10312POPC   C2B60584  35.867  30.736   6.755
10312POPC   C3B60585  35.844  30.757   7.055
10312POPC   C4B60586  35.846  30.791   7.355
10313POPC   NC360587  15.926   7.413   5.555
10313POPC   PO460588  15.913   7.441   5.855
10313POPC   GL160589  15.977   7.458   6.155
10313POPC   GL260590  15.943   7.292   6.155
10313POPC   C1A60591  15.998   7.433   6.455
10313POPC   D2A60592  15.972   7.425   6.755
10313POPC   C3A60593  16.001   7.435   7.055
10313POPC   C4A60594  15.932   7.393   7.355
10313POPC   C1B60595  16.008   7.176   6.455
10313POPC   C2B60596  16.025   7.161   6.755
10313POPC   C3B60597  16.017   7.211   7.055
10313POPC   C4B60598  16.009   7.172   7.355
10314POPC   NC360599   5.124  43.112   5.555
10314POPC   PO460600   5.083  43.102   5.855
10314POPC   GL160601   5.128  43.073   6.155
10314POPC   GL260602   5.062  43.265   6.155
10314POPC   C1A60603   5.115  43.152   6.455
10314POPC   D2A60604   5.132  43.089   6.755
10314POPC   C3A60605   5.075  43.062   7.055
10314POPC   C4A60606   5.107  43.072   7.355
10314POPC   C1B60607   5.018  43.398   6.455
10314POPC   C2B60608   4.976  43.322   6.755
10314POPC   C3B60609   5.002  43.372   7.055
10314POPC   C4B60610   4.996  43.354   7.355
10315POPC   NC360611  17.518   9.743   5.555
10315POPC   PO460612  17.469   9.704   5.855
10315POPC   GL160613  17.549   9.713   6.155
10315POPC   GL260614  17.480   9.598   6.155
10315POPC   C1A60615  17.524   9.755   6.455
10315POPC   D2A60616  17.520   9.748   6.755
10315POPC   C3A60617  17.499   9.702   7.055
10315POPC   C4A60618  17.459   9.745   7.355
10315POPC   C1B60619  17.357   9.528   6.455
10315POPC   C2B60620  17.357   9.529   6.755
10315POPC   C3B60621  17.386   9.551   7.055
10315POPC   C4B60622  17.371   9.536   7.355
10316POPC   NC360623  43.889  10.561   5.555
10316POPC   PO460624  43.901  10.498   5.855
10316POPC   GL160625  43.923  10.562   6.155
10316POPC   GL260626  43.853  10.604   6.155
10316POPC   C1A60627  43.848  10.515   6.455
10316POPC   D2A60628  43.853  10.560   6.755
10316POPC   C3A60629  43.869  10.537   7.055
10316POPC   C4A60630  43.912  10.543   7.355
10316POPC   C1B60631  43.808  10.792   6.455
10316POPC   C2B60632  43.825  10.728   6.755
10316POPC   C3B60633  43.799  10.752   7.055
10316POPC   C4B60634  43.828  10.752   7.355
10317POPC   NC360635  29.119  40.784   5.555
10317POPC   PO460636  29.191  40.829   5.855
10317POPC   GL160637  29.171  40.798   6.155
10317POPC   GL260638  29.159  40.667   6.155
10317POPC   C1A60639  29.158  40.739   6.455
10317POPC   D2A60640  29.163  40.771   6.755
10317POPC   C3A60641  29.145  40.807   7.055
10317POPC   C4A60642  29.187  40.758   7.355
10317POPC   C1B60643  29.247  40.590   6.455
10317POPC   C2B60644  29.255  40.588   6.755
10317POPC   C3B60645  29.257  40.558   7.055
10317POPC   C4B60646  29.278  40.557   7.355
10318POPC   NC360647   6.661  16.687   5.555
10318POPC   PO460648   6.646  16.711   5.855
10318POPC   GL160649   6.631  16.770   6.155
10318POPC   GL260650   6.558  16.608   6.155
10318POPC   C1A60651   6.613  16.728   6.455
10318POPC   D2A60652   6.624  16.770   6.755
10318POPC   C3A60653   6.668  16.747   7.055
10318POPC   C4A60654   6.619  16.688   7.355
10318POPC   C1B60655   6.433  16.541   6.455
10318POPC   C2B60656   6.441  16.607   6.755
10318POPC   C3B60657   6.485  16.552   7.055
10318POPC   C4B60658   6.414  16.616   7.355
10319POPC   NC360659   8.211   6.686   5.555
10319POPC   PO460660   8.178   6.653   5.855
10319POPC   GL160661   8.168   6.672   6.155
10319POPC   GL260662   8.171   6.736   6.155
10319POPC   C1A60663   8.222   6.638   6.455
10319POPC   D2A60664   8.240   6.670   6.755
10319POPC   C3A60665   8.158   6.621   7.055
10319POPC   C4A60666   8.200   6.603   7.355
10319POPC   C1B60667   8.118   6.835   6.455
10319POPC   C2B60668   8.166   6.855   6.755
10319POPC   C3B60669   8.149   6.906   7.055
10319POPC   C4B60670   8.137   6.873   7.355
10320POPC   NC360671   6.678  36.131   5.555
10320POPC   PO460672   6.633  36.134   5.855
10320POPC   GL160673   6.684  36.098   6.155
10320POPC   GL260674   6.726  36.237   6.155
10320POPC   C1A60675   6.658  36.142   6.455
10320POPC   D2A60676   6.639  36.121   6.755
10320POPC   C3A60677   6.620  36.132   7.055
10320POPC   C4A60678   6.641  36.159   7.355
10320POPC   C1B60679   6.849  36.298   6.455
10320POPC   C2B60680   6.850  36.302   6.755
10320POPC   C3B60681   6.805  36.293   7.055
10320POPC   C4B60682   6.831  36.293   7.355
10321POPC   NC360683  31.445  10.500   5.555
10321POPC   PO460684  31.443  10.535   5.855
10321POPC   GL160685  31.501  10.552   6.155
10321POPC   GL260686  31.459  10.595   6.155
10321POPC   C1A60687  31.441  10.506   6.455
10321POPC   D2A60688  31.460  10.526   6.755
10321POPC   C3A60689  31.465  10.531   7.055
10321POPC   C4A60690  31.460  10.547   7.355
10321POPC   C1B60691  31.428  10.721   6.455
10321POPC   C2B60692  31.403  10.792   6.755
10321POPC   C3B60693  31.379  10.731   7.055
10321POPC   C4B60694  31.444  10.760   7.355
10322POPC   NC360695   2.739   0.422   5.555
10322POPC   PO460696   2.779   0.408   5.855
10322POPC   GL160697   2.734   0.391   6.155
10322POPC   GL260698   2.845   0.550   6.155
10322POPC   C1A60699   2.803   0.419   6.455
10322POPC   D2A60700   2.722   0.413   6.755
10322POPC   C3A60701   2.767   0.464   7.055
10322POPC   C4A60702   2.808   0.441   7.355
10322POPC   C1B60703   2.846   0.673   6.455
10322POPC   C2B60704   2.800   0.699   6.755
10322POPC   C3B60705   2.852   0.654   7.055
10322POPC   C4B60706   2.886   0.704   7.355
10323POPC   NC360707  43.116  39.978   5.555
10323POPC   PO460708  43.092  40.008   5.855
10323POPC   GL160709  43.064  40.046   6.155
10323POPC   GL260710  43.044  39.866   6.155
10323POPC   C1A60711  43.112  39.963   6.455
10323POPC   D2A60712  43.120  40.040   6.755
10323POPC   C3A60713  43.129  40.031   7.055
10323POPC   C4A60714  43.149  40.025   7.355
10323POPC   C1B60715  43.013  39.783   6.455
10323POPC   C2B60716  43.074  39.743   6.755
10323POPC   C3B60717  42.991  39.767   7.055
10323POPC   C4B60718  43.081  39.757   7.355
10324POPC   NC360719  13.654  36.919   5.555
10324POPC   PO460720  13.605  36.877   5.855
10324POPC   GL160721  13.658  36.892   6.155
10324POPC   GL260722  13.725  36.784   6.155
10324POPC   C1A60723  13.628  36.940   6.455
10324POPC   D2A60724  13.614  36.863   6.755
10324POPC   C3A60725  13.629  36.860   7.055
10324POPC   C4A60726  13.643  36.900   7.355
10324POPC   C1B60727  13.739  36.685   6.455
10324POPC   C2B60728  13.732  36.701   6.755
10324POPC   C3B60729  13.736  36.663   7.055
10324POPC   C4B60730  13.802  36.714   7.355
10325POPC   NC360731  12.080  10.511   5.555
10325POPC   PO460732  12.107  10.477   5.855
10325POPC   GL160733  12.058  10.514   6.155
10325POPC   GL260734  12.022  10.635   6.155
10325POPC   C1A60735  12.106  10.557   6.455
10325POPC   D2A60736  12.028  10.497   6.755
10325POPC   C3A60737  12.081  10.505   7.055
10325POPC   C4A60738  12.058  10.537   7.355
10325POPC   C1B60739  11.921  10.763   6.455
10325POPC   C2B60740  11.915  10.700   6.755
10325POPC   C3B60741  11.984  10.724   7.055
10325POPC   C4B60742  11.950  10.728   7.355
10326POPC   NC360743  39.962  22.935   5.555
10326POPC   PO460744  39.973  22.893   5.855
10326POPC   GL160745  39.995  22.940   6.155
10326POPC   GL260746  40.044  23.018   6.155
10326POPC   C1A60747  39.967  22.935   6.455
10326POPC   D2A60748  40.045  22.950   6.755
10326POPC   C3A60749  39.986  22.894   7.055
10326POPC   C4A60750  40.017  22.943   7.355
10326POPC   C1B60751  40.176  23.134   6.455
10326POPC   C2B60752  40.129  23.159   6.755
10326POPC   C3B60753  40.156  23.201   7.055
10326POPC   C4B60754  40.093  23.190   7.355
10327POPC   NC360755  39.209   5.087   5.555
10327POPC   PO460756  39.206   5.062   5.855
10327POPC   GL160757  39.269   5.129   6.155
10327POPC   GL260758  39.249   5.243   6.155
10327POPC   C1A60759  39.214   5.065   6.455
10327POPC   D2A60760  39.211   5.080   6.755
10327POPC   C3A60761  39.227   5.092   7.055
10327POPC   C4A60762  39.210   5.099   7.355
10327POPC   C1B60763  39.197   5.313   6.455
10327POPC   C2B60764  39.225   5.352   6.755
10327POPC   C3B60765  39.228   5.353   7.055
10327POPC   C4B60766  39.183   5.355   7.355
10328POPC   NC360767  27.589   2.743   5.555
10328POPC   PO460768  27.566   2.739   5.855
10328POPC   GL160769  27.586   2.810   6.155
10328POPC   GL260770  27.443   2.850   6.155
10328POPC   C1A60771  27.635   2.749   6.455
10328POPC   D2A60772  27.551   2.775   6.755
10328POPC   C3A60773  27.609   2.749   7.055
10328POPC   C4A60774  27.556   2.724   7.355
10328POPC   C1B60775  27.413   2.880   6.455
10328POPC   C2B60776  27.353   2.876   6.755
10328POPC   C3B60777  27.358   2.877   7.055
10328POPC   C4B60778  27.331   2.898   7.355
10329POPC   NC360779  25.284   5.121   5.555
10329POPC   PO460780  25.289   5.106   5.855
10329POPC   GL160781  25.290   5.091   6.155
10329POPC   GL260782  25.205   5.015   6.155
10329POPC   C1A60783  25.285   5.074   6.455
10329POPC   D2A60784  25.224   5.109   6.755
10329POPC   C3A60785  25.294   5.108   7.055
10329POPC   C4A60786  25.242   5.142   7.355
10329POPC   C1B60787  25.129   4.821   6.455
10329POPC   C2B60788  25.218   4.860   6.755
10329POPC   C3B60789  25.209   4.873   7.055
10329POPC   C4B60790  25.218   4.892   7.355
10330POPC   NC360791  36.938  22.158   5.555
10330POPC   PO460792  36.934  22.202   5.855
10330POPC   GL160793  36.906  22.163   6.155
10330POPC   GL260794  36.872  22.241   6.155
10330POPC   C1A60795  36.854  22.170   6.455
10330POPC   D2A60796  36.950  22.203   6.755
10330POPC   C3A60797  36.878  22.130   7.055
10330POPC   C4A60798  36.856  22.202   7.355
10330POPC   C1B60799  36.772  22.336   6.455
10330POPC   C2B60800  36.792  22.378   6.755
10330POPC   C3B60801  36.751  22.363   7.055
10330POPC   C4B60802  36.792  22.343   7.355
10331POPC   NC360803  36.938  37.633   5.555
10331POPC   PO460804  36.864  37.696   5.855
10331POPC   GL160805  36.885  37.654   6.155
10331POPC   GL260806  36.800  37.636   6.155
10331POPC   C1A60807  36.917  37.686   6.455
10331POPC   D2A60808  36.931  37.728   6.755
10331POPC   C3A60809  36.919  37.685   7.055
10331POPC   C4A60810  36.919  37.692   7.355
10331POPC   C1B60811  36.684  37.600   6.455
10331POPC   C2B60812  36.635  37.675   6.755
10331POPC   C3B60813  36.619  37.619   7.055
10331POPC   C4B60814  36.690  37.666   7.355
10332POPC   NC360815  43.881  16.779   5.555
10332POPC   PO460816  43.917  16.709   5.855
10332POPC   GL160817  43.866  16.716   6.155
10332POPC   GL260818  44.004  16.832   6.155
10332POPC   C1A60819  43.924  16.731   6.455
10332POPC   D2A60820  43.861  16.749   6.755
10332POPC   C3A60821  43.909  16.746   7.055
10332POPC   C4A60822  43.887  16.695   7.355
10332POPC   C1B60823  44.103  16.902   6.455
10332POPC   C2B60824  44.120  16.869   6.755
10332POPC   C3B60825  44.057  16.849   7.055
10332POPC   C4B60826  44.084  16.884   7.355
10333POPC   NC360827  12.810  19.804   5.555
10333POPC   PO460828  12.882  19.840   5.855
10333POPC   GL160829  12.842  19.788   6.155
10333POPC   GL260830  12.698  19.830   6.155
10333POPC   C1A60831  12.840  19.804   6.455
10333POPC   D2A60832  12.865  19.800   6.755
10333POPC   C3A60833  12.897  19.818   7.055
10333POPC   C4A60834  12.882  19.804   7.355
10333POPC   C1B60835  12.575  19.715   6.455
10333POPC   C2B60836  12.630  19.761   6.755
10333POPC   C3B60837  12.580  19.747   7.055
10333POPC   C4B60838  12.589  19.753   7.355
10334POPC   NC360839  30.682   8.976   5.555
10334POPC   PO460840  30.687   8.941   5.855
10334POPC   GL160841  30.733   8.977   6.155
10334POPC   GL260842  30.857   8.902   6.155
10334POPC   C1A60843  30.728   8.932   6.455
10334POPC   D2A60844  30.717   8.924   6.755
10334POPC   C3A60845  30.735   8.941   7.055
10334POPC   C4A60846  30.697   9.022   7.355
10334POPC   C1B60847  30.953   8.834   6.455
10334POPC   C2B60848  30.972   8.858   6.755
10334POPC   C3B60849  30.876   8.850   7.055
10334POPC   C4B60850  30.888   8.903   7.355
10335POPC   NC360851  23.753  29.878   5.555
10335POPC   PO460852  23.676  29.951   5.855
10335POPC   GL160853  23.720  29.924   6.155
10335POPC   GL260854  23.543  29.926   6.155
10335POPC   C1A60855  23.666  29.961   6.455
10335POPC   D2A60856  23.740  29.891   6.755
10335POPC   C3A60857  23.706  29.915   7.055
10335POPC   C4A60858  23.738  29.909   7.355
10335POPC   C1B60859  23.449  29.890   6.455
10335POPC   C2B60860  23.457  29.914   6.755
10335POPC   C3B60861  23.467  29.882   7.055
10335POPC   C4B60862  23.419  29.939   7.355
10336POPC   NC360863   1.189  22.950   5.555
10336POPC   PO460864   1.166  22.914   5.855
10336POPC   GL160865   1.225  22.944   6.155
10336POPC   GL260866   1.333  22.891   6.155
10336POPC   C1A60867   1.236  22.911   6.455
10336POPC   D2A60868   1.169  22.928   6.755
10336POPC   C3A60869   1.236  22.949   7.055
10336POPC   C4A60870   1.258  22.985   7.355
10336POPC   C1B60871   1.396  22.715   6.455
10336POPC   C2B60872   1.358  22.802   6.755
10336POPC   C3B60873   1.381  22.759   7.055
10336POPC   C4B60874   1.405  22.797   7.355
10337POPC   NC360875  18.247   0.425   5.555
10337POPC   PO460876  18.273   0.391   5.855
10337POPC   GL160877  18.299   0.435   6.155
10337POPC   GL260878  18.283   0.597   6.155
10337POPC   C1A60879  18.285   0.409   6.455
10337POPC   D2A60880  18.321   0.442   6.755
10337POPC   C3A60881  18.311   0.392   7.055
10337POPC   C4A60882  18.290   0.464   7.355
10337POPC   C1B60883  18.390   0.640   6.455
10337POPC   C2B60884  18.332   0.694   6.755
10337POPC   C3B60885  18.402   0.649   7.055
10337POPC   C4B60886  18.342   0.695   7.355
10338POPC   NC360887  28.328  29.872   5.555
10338POPC   PO460888  28.327  29.886   5.855
10338POPC   GL160889  28.370  29.920   6.155
10338POPC   GL260890  28.272  29.998   6.155
10338POPC   C1A60891  28.371  29.943   6.455
10338POPC   D2A60892  28.348  29.890   6.755
10338POPC   C3A60893  28.371  29.970   7.055
10338POPC   C4A60894  28.399  29.878   7.355
10338POPC   C1B60895  28.177  30.044   6.455
10338POPC   C2B60896  28.137  30.050   6.755
10338POPC   C3B60897  28.134  30.045   7.055
10338POPC   C4B60898  28.203  30.114   7.355
10339POPC   NC360899   4.366   9.765   5.555
10339POPC   PO460900   4.341   9.779   5.855
10339POPC   GL160901   4.283   9.764   6.155
10339POPC   GL260902   4.401   9.799   6.155
10339POPC   C1A60903   4.347   9.737   6.455
10339POPC   D2A60904   4.302   9.797   6.755
10339POPC   C3A60905   4.306   9.750   7.055
10339POPC   C4A60906   4.314   9.736   7.355
10339POPC   C1B60907   4.498   9.922   6.455
10339POPC   C2B60908   4.527   9.914   6.755
10339POPC   C3B60909   4.454   9.961   7.055
10339POPC   C4B60910   4.492   9.889   7.355
10340POPC   NC360911  40.758  28.326   5.555
10340POPC   PO460912  40.813  28.411   5.855
10340POPC   GL160913  40.747  28.356   6.155
10340POPC   GL260914  40.689  28.326   6.155
10340POPC   C1A60915  40.782  28.379   6.455
10340POPC   D2A60916  40.793  28.373   6.755
10340POPC   C3A60917  40.809  28.368   7.055
10340POPC   C4A60918  40.774  28.386   7.355
10340POPC   C1B60919  40.578  28.380   6.455
10340POPC   C2B60920  40.569  28.418   6.755
10340POPC   C3B60921  40.571  28.419   7.055
10340POPC   C4B60922  40.527  28.411   7.355
10341POPC   NC360923  29.153  30.679   5.555
10341POPC   PO460924  29.107  30.744   5.855
10341POPC   GL160925  29.180  30.700   6.155
10341POPC   GL260926  29.040  30.719   6.155
10341POPC   C1A60927  29.102  30.659   6.455
10341POPC   D2A60928  29.172  30.731   6.755
10341POPC   C3A60929  29.098  30.714   7.055
10341POPC   C4A60930  29.124  30.723   7.355
10341POPC   C1B60931  28.889  30.692   6.455
10341POPC   C2B60932  28.875  30.654   6.755
10341POPC   C3B60933  28.907  30.684   7.055
10341POPC   C4B60934  28.937  30.694   7.355
10342POPC   NC360935   3.507   5.107   5.555
10342POPC   PO460936   3.503   5.084   5.855
10342POPC   GL160937   3.496   5.108   6.155
10342POPC   GL260938   3.652   5.161   6.155
10342POPC   C1A60939   3.564   5.106   6.455
10342POPC   D2A60940   3.523   5.084   6.755
10342POPC   C3A60941   3.557   5.127   7.055
10342POPC   C4A60942   3.526   5.084   7.355
10342POPC   C1B60943   3.807   5.144   6.455
10342POPC   C2B60944   3.757   5.149   6.755
10342POPC   C3B60945   3.757   5.188   7.055
10342POPC   C4B60946   3.815   5.149   7.355
10343POPC   NC360947  33.068  19.018   5.555
10343POPC   PO460948  32.980  19.019   5.855
10343POPC   GL160949  33.056  19.056   6.155
10343POPC   GL260950  33.154  19.050   6.155
10343POPC   C1A60951  33.041  19.081   6.455
10343POPC   D2A60952  33.030  19.056   6.755
10343POPC   C3A60953  32.989  19.052   7.055
10343POPC   C4A60954  33.067  19.062   7.355
10343POPC   C1B60955  33.289  19.111   6.455
10343POPC   C2B60956  33.234  19.132   6.755
10343POPC   C3B60957  33.254  19.092   7.055
10343POPC   C4B60958  33.320  19.085   7.355
10344POPC   NC360959  16.699  23.751   5.555
10344POPC   PO460960  16.755  23.724   5.855
10344POPC   GL160961  16.743  23.665   6.155
10344POPC   GL260962  16.664  23.842   6.155
10344POPC   C1A60963  16.727  23.693   6.455
10344POPC   D2A60964  16.771  23.751   6.755
10344POPC   C3A60965  16.716  23.720   7.055
10344POPC   C4A60966  16.684  23.690   7.355
10344POPC   C1B60967  16.560  23.963   6.455
10344POPC   C2B60968  16.565  23.962   6.755
10344POPC   C3B60969  16.607  23.958   7.055
10344POPC   C4B60970  16.557  23.912   7.355
10345POPC   NC360971  35.318   8.242   5.555
10345POPC   PO460972  35.378   8.177   5.855
10345POPC   GL160973  35.308   8.192   6.155
10345POPC   GL260974  35.332   8.361   6.155
10345POPC   C1A60975  35.399   8.168   6.455
10345POPC   D2A60976  35.366   8.156   6.755
10345POPC   C3A60977  35.352   8.222   7.055
10345POPC   C4A60978  35.308   8.157   7.355
10345POPC   C1B60979  35.458   8.390   6.455
10345POPC   C2B60980  35.365   8.486   6.755
10345POPC   C3B60981  35.384   8.445   7.055
10345POPC   C4B60982  35.443   8.434   7.355
10346POPC   NC360983  22.114   8.202   5.555
10346POPC   PO460984  22.135   8.204   5.855
10346POPC   GL160985  22.198   8.221   6.155
10346POPC   GL260986  22.021   8.307   6.155
10346POPC   C1A60987  22.195   8.201   6.455
10346POPC   D2A60988  22.135   8.180   6.755
10346POPC   C3A60989  22.167   8.236   7.055
10346POPC   C4A60990  22.116   8.175   7.355
10346POPC   C1B60991  21.950   8.311   6.455
10346POPC   C2B60992  21.982   8.340   6.755
10346POPC   C3B60993  21.958   8.297   7.055
10346POPC   C4B60994  21.938   8.309   7.355
10347POPC   NC360995  25.314  33.820   5.555
10347POPC   PO460996  25.282  33.835   5.855
10347POPC   GL160997  25.245  33.805   6.155
10347POPC   GL260998  25.166  33.859   6.155
10347POPC   C1A60999  25.304  33.831   6.455
10347POPC   D2A61000  25.254  33.838   6.755
10347POPC   C3A61001  25.291  33.836   7.055
10347POPC   C4A61002  25.233  33.831   7.355
10347POPC   C1B61003  25.045  33.973   6.455
10347POPC   C2B61004  25.072  33.949   6.755
10347POPC   C3B61005  25.065  33.925   7.055
10347POPC   C4B61006  25.050  33.941   7.355
10348POPC   NC361007  10.550  22.137   5.555
10348POPC   PO461008  10.501  22.147   5.855
10348POPC   GL161009  10.512  22.208   6.155
10348POPC   GL261010  10.637  22.277   6.155
10348POPC   C1A61011  10.552  22.157   6.455
10348POPC   D2A61012  10.573  22.163   6.755
10348POPC   C3A61013  10.567  22.148   7.055
10348POPC   C4A61014  10.475  22.159   7.355
10348POPC   C1B61015  10.685  22.271   6.455
10348POPC   C2B61016  10.702  22.326   6.755
10348POPC   C3B61017  10.737  22.265   7.055
10348POPC   C4B61018  10.739  22.353   7.355
10349POPC   NC361019  12.039  17.479   5.555
10349POPC   PO461020  12.097  17.499   5.855
10349POPC   GL161021  12.080  17.545   6.155
10349POPC   GL261022  11.993  17.616   6.155
10349POPC   C1A61023  12.028  17.488   6.455
10349POPC   D2A61024  12.044  17.537   6.755
10349POPC   C3A61025  12.064  17.473   7.055
10349POPC   C4A61026  12.051  17.509   7.355
10349POPC   C1B61027  11.831  17.602   6.455
10349POPC   C2B61028  11.870  17.670   6.755
10349POPC   C3B61029  11.860  17.635   7.055
10349POPC   C4B61030  11.843  17.632   7.355
10350POPC   NC361031   3.578  41.539   5.555
10350POPC   PO461032   3.574  41.600   5.855
10350POPC   GL161033   3.497  41.512   6.155
10350POPC   GL261034   3.464  41.523   6.155
10350POPC   C1A61035   3.554  41.531   6.455
10350POPC   D2A61036   3.534  41.593   6.755
10350POPC   C3A61037   3.558  41.588   7.055
10350POPC   C4A61038   3.576  41.566   7.355
10350POPC   C1B61039   3.279  41.410   6.455
10350POPC   C2B61040   3.337  41.466   6.755
10350POPC   C3B61041   3.285  41.408   7.055
10350POPC   C4B61042   3.339  41.429   7.355
10351POPC   NC361043   1.255  43.153   5.555
10351POPC   PO461044   1.174  43.148   5.855
10351POPC   GL161045   1.213  43.112   6.155
10351POPC   GL261046   1.299  43.173   6.155
10351POPC   C1A61047   1.170  43.086   6.455
10351POPC   D2A61048   1.177  43.130   6.755
10351POPC   C3A61049   1.201  43.110   7.055
10351POPC   C4A61050   1.252  43.066   7.355
10351POPC   C1B61051   1.470  43.244   6.455
10351POPC   C2B61052   1.395  43.197   6.755
10351POPC   C3B61053   1.469  43.204   7.055
10351POPC   C4B61054   1.454  43.237   7.355
10352POPC   NC361055   8.951  38.447   5.555
10352POPC   PO461056   8.958  38.420   5.855
10352POPC   GL161057   9.000  38.470   6.155
10352POPC   GL261058   9.126  38.471   6.155
10352POPC   C1A61059   8.999  38.472   6.455
10352POPC   D2A61060   8.962  38.450   6.755
10352POPC   C3A61061   8.989  38.480   7.055
10352POPC   C4A61062   8.939  38.505   7.355
10352POPC   C1B61063   9.187  38.508   6.455
10352POPC   C2B61064   9.172  38.490   6.755
10352POPC   C3B61065   9.215  38.472   7.055
10352POPC   C4B61066   9.267  38.461   7.355
10353POPC   NC361067  29.171  43.092   5.555
10353POPC   PO461068  29.124  43.101   5.855
10353POPC   GL161069  29.102  43.127   6.155
10353POPC   GL261070  28.974  43.086   6.155
10353POPC   C1A61071  29.190  43.092   6.455
10353POPC   D2A61072  29.180  43.070   6.755
10353POPC   C3A61073  29.126  43.106   7.055
10353POPC   C4A61074  29.100  43.113   7.355
10353POPC   C1B61075  28.887  43.073   6.455
10353POPC   C2B61076  28.946  43.027   6.755
10353POPC   C3B61077  28.890  43.109   7.055
10353POPC   C4B61078  28.849  43.035   7.355
10354POPC   NC361079  43.881  33.013   5.555
10354POPC   PO461080  43.860  33.072   5.855
10354POPC   GL161081  43.869  33.022   6.155
10354POPC   GL261082  43.789  32.963   6.155
10354POPC   C1A61083  43.846  33.038   6.455
10354POPC   D2A61084  43.854  33.034   6.755
10354POPC   C3A61085  43.921  33.030   7.055
10354POPC   C4A61086  43.872  33.043   7.355
10354POPC   C1B61087  43.684  32.851   6.455
10354POPC   C2B61088  43.629  32.925   6.755
10354POPC   C3B61089  43.686  32.855   7.055
10354POPC   C4B61090  43.654  32.930   7.355
10355POPC   NC361091  22.889  14.404   5.555
10355POPC   PO461092  22.975  14.414   5.855
10355POPC   GL161093  22.979  14.436   6.155
10355POPC   GL261094  22.940  14.281   6.155
10355POPC   C1A61095  22.933  14.451   6.455
10355POPC   D2A61096  22.920  14.429   6.755
10355POPC   C3A61097  22.920  14.358   7.055
10355POPC   C4A61098  22.961  14.404   7.355
10355POPC   C1B61099  22.994  14.170   6.455
10355POPC   C2B61100  23.007  14.150   6.755
10355POPC   C3B61101  22.981  14.138   7.055
10355POPC   C4B61102  22.986  14.139   7.355
10356POPC   NC361103  18.313   5.841   5.555
10356POPC   PO461104  18.272   5.917   5.855
10356POPC   GL161105  18.271   5.885   6.155
10356POPC   GL261106  18.161   5.852   6.155
10356POPC   C1A61107  18.245   5.826   6.455
10356POPC   D2A61108  18.307   5.897   6.755
10356POPC   C3A61109  18.274   5.822   7.055
10356POPC   C4A61110  18.253   5.911   7.355
10356POPC   C1B61111  18.057   5.843   6.455
10356POPC   C2B61112  18.074   5.835   6.755
10356POPC   C3B61113  17.988   5.872   7.055
10356POPC   C4B61114  18.028   5.819   7.355
10357POPC   NC361115  33.793   1.965   5.555
10357POPC   PO461116  33.796   2.039   5.855
10357POPC   GL161117  33.780   2.009   6.155
10357POPC   GL261118  33.905   1.940   6.155
10357POPC   C1A61119  33.816   2.028   6.455
10357POPC   D2A61120  33.772   1.985   6.755
10357POPC   C3A61121  33.788   2.028   7.055
10357POPC   C4A61122  33.836   2.015   7.355
10357POPC   C1B61123  33.977   1.844   6.455
10357POPC   C2B61124  33.932   1.755   6.755
10357POPC   C3B61125  33.909   1.839   7.055
10357POPC   C4B61126  33.941   1.803   7.355
10358POPC   NC361127  42.371  30.710   5.555
10358POPC   PO461128  42.341  30.682   5.855
10358POPC   GL161129  42.306  30.687   6.155
10358POPC   GL261130  42.258  30.852   6.155
10358POPC   C1A61131  42.347  30.669   6.455
10358POPC   D2A61132  42.379  30.733   6.755
10358POPC   C3A61133  42.285  30.681   7.055
10358POPC   C4A61134  42.384  30.661   7.355
10358POPC   C1B61135  42.283  30.925   6.455
10358POPC   C2B61136  42.299  30.930   6.755
10358POPC   C3B61137  42.238  30.946   7.055
10358POPC   C4B61138  42.267  30.947   7.355
10359POPC   NC361139  26.787   4.308   5.555
10359POPC   PO461140  26.865   4.323   5.855
10359POPC   GL161141  26.841   4.287   6.155
10359POPC   GL261142  26.669   4.319   6.155
10359POPC   C1A61143  26.781   4.350   6.455
10359POPC   D2A61144  26.803   4.320   6.755
10359POPC   C3A61145  26.805   4.360   7.055
10359POPC   C4A61146  26.777   4.340   7.355
10359POPC   C1B61147  26.622   4.300   6.455
10359POPC   C2B61148  26.605   4.304   6.755
10359POPC   C3B61149  26.590   4.240   7.055
10359POPC   C4B61150  26.525   4.241   7.355
10360POPC   NC361151   1.222  41.523   5.555
10360POPC   PO461152   1.186  41.554   5.855
10360POPC   GL161153   1.245  41.523   6.155
10360POPC   GL261154   1.371  41.479   6.155
10360POPC   C1A61155   1.190  41.538   6.455
10360POPC   D2A61156   1.220  41.511   6.755
10360POPC   C3A61157   1.213  41.519   7.055
10360POPC   C4A61158   1.263  41.550   7.355
10360POPC   C1B61159   1.406  41.432   6.455
10360POPC   C2B61160   1.422  41.413   6.755
10360POPC   C3B61161   1.464  41.383   7.055
10360POPC   C4B61162   1.400  41.442   7.355
10361POPC   NC361163  13.587  14.431   5.555
10361POPC   PO461164  13.602  14.450   5.855
10361POPC   GL161165  13.623  14.371   6.155
10361POPC   GL261166  13.630  14.289   6.155
10361POPC   C1A61167  13.670  14.444   6.455
10361POPC   D2A61168  13.595  14.445   6.755
10361POPC   C3A61169  13.600  14.452   7.055
10361POPC   C4A61170  13.634  14.391   7.355
10361POPC   C1B61171  13.645  14.121   6.455
10361POPC   C2B61172  13.655  14.185   6.755
10361POPC   C3B61173  13.656  14.189   7.055
10361POPC   C4B61174  13.639  14.152   7.355
10362POPC   NC361175  14.390  23.729   5.555
10362POPC   PO461176  14.417  23.683   5.855
10362POPC   GL161177  14.414  23.762   6.155
10362POPC   GL261178  14.474  23.651   6.155
10362POPC   C1A61179  14.431  23.725   6.455
10362POPC   D2A61180  14.367  23.758   6.755
10362POPC   C3A61181  14.414  23.734   7.055
10362POPC   C4A61182  14.440  23.750   7.355
10362POPC   C1B61183  14.511  23.496   6.455
10362POPC   C2B61184  14.539  23.527   6.755
10362POPC   C3B61185  14.586  23.557   7.055
10362POPC   C4B61186  14.516  23.509   7.355
10363POPC   NC361187  36.082  29.151   5.555
10363POPC   PO461188  36.091  29.178   5.855
10363POPC   GL161189  36.087  29.149   6.155
10363POPC   GL261190  36.204  29.249   6.155
10363POPC   C1A61191  36.150  29.128   6.455
10363POPC   D2A61192  36.157  29.115   6.755
10363POPC   C3A61193  36.124  29.128   7.055
10363POPC   C4A61194  36.082  29.171   7.355
10363POPC   C1B61195  36.203  29.380   6.455
10363POPC   C2B61196  36.273  29.389   6.755
10363POPC   C3B61197  36.241  29.379   7.055
10363POPC   C4B61198  36.227  29.368   7.355
10364POPC   NC361199  40.831  38.425   5.555
10364POPC   PO461200  40.737  38.451   5.855
10364POPC   GL161201  40.745  38.425   6.155
10364POPC   GL261202  40.792  38.308   6.155
10364POPC   C1A61203  40.735  38.471   6.455
10364POPC   D2A61204  40.825  38.439   6.755
10364POPC   C3A61205  40.772  38.448   7.055
10364POPC   C4A61206  40.786  38.408   7.355
10364POPC   C1B61207  40.665  38.253   6.455
10364POPC   C2B61208  40.662  38.259   6.755
10364POPC   C3B61209  40.752  38.191   7.055
10364POPC   C4B61210  40.709  38.244   7.355
10365POPC   NC361211  36.930  42.285   5.555
10365POPC   PO461212  36.882  42.359   5.855
10365POPC   GL161213  36.866  42.373   6.155
10365POPC   GL261214  36.952  42.402   6.155
10365POPC   C1A61215  36.948  42.326   6.455
10365POPC   D2A61216  36.854  42.377   6.755
10365POPC   C3A61217  36.900  42.360   7.055
10365POPC   C4A61218  36.901  42.317   7.355
10365POPC   C1B61219  37.067  42.574   6.455
10365POPC   C2B61220  37.106  42.561   6.755
10365POPC   C3B61221  37.101  42.511   7.055
10365POPC   C4B61222  37.032  42.494   7.355
10366POPC   NC361223  10.531   5.048   5.555
10366POPC   PO461224  10.568   5.061   5.855
10366POPC   GL161225  10.551   5.054   6.155
10366POPC   GL261226  10.643   5.232   6.155
10366POPC   C1A61227  10.508   5.075   6.455
10366POPC   D2A61228  10.503   5.110   6.755
10366POPC   C3A61229  10.521   5.117   7.055
10366POPC   C4A61230  10.551   5.062   7.355
10366POPC   C1B61231  10.731   5.241   6.455
10366POPC   C2B61232  10.707   5.238   6.755
10366POPC   C3B61233  10.698   5.249   7.055
10366POPC   C4B61234  10.737   5.241   7.355
10367POPC   NC361235  18.279  36.866   5.555
10367POPC   PO461236  18.284  36.867   5.855
10367POPC   GL161237  18.302  36.923   6.155
10367POPC   GL261238  18.121  36.951   6.155
10367POPC   C1A61239  18.310  36.882   6.455
10367POPC   D2A61240  18.285  36.858   6.755
10367POPC   C3A61241  18.281  36.871   7.055
10367POPC   C4A61242  18.322  36.920   7.355
10367POPC   C1B61243  18.015  37.047   6.455
10367POPC   C2B61244  18.076  37.028   6.755
10367POPC   C3B61245  18.103  37.032   7.055
10367POPC   C4B61246  18.053  36.978   7.355
10368POPC   NC361247  14.437  35.384   5.555
10368POPC   PO461248  14.405  35.312   5.855
10368POPC   GL161249  14.416  35.367   6.155
10368POPC   GL261250  14.540  35.347   6.155
10368POPC   C1A61251  14.382  35.320   6.455
10368POPC   D2A61252  14.427  35.398   6.755
10368POPC   C3A61253  14.428  35.332   7.055
10368POPC   C4A61254  14.440  35.390   7.355
10368POPC   C1B61255  14.628  35.407   6.455
10368POPC   C2B61256  14.687  35.377   6.755
10368POPC   C3B61257  14.645  35.332   7.055
10368POPC   C4B61258  14.604  35.404   7.355
10369POPC   NC361259  24.505   3.568   5.555
10369POPC   PO461260  24.460   3.561   5.855
10369POPC   GL161261  24.452   3.505   6.155
10369POPC   GL261262  24.529   3.662   6.155
10369POPC   C1A61263  24.489   3.556   6.455
10369POPC   D2A61264  24.533   3.584   6.755
10369POPC   C3A61265  24.489   3.571   7.055
10369POPC   C4A61266  24.535   3.582   7.355
10369POPC   C1B61267  24.695   3.777   6.455
10369POPC   C2B61268  24.613   3.704   6.755
10369POPC   C3B61269  24.668   3.742   7.055
10369POPC   C4B61270  24.622   3.697   7.355
10370POPC   NC361271  33.073  31.426   5.555
10370POPC   PO461272  32.991  31.444   5.855
10370POPC   GL161273  32.981  31.468   6.155
10370POPC   GL261274  33.017  31.633   6.155
10370POPC   C1A61275  33.006  31.460   6.455
10370POPC   D2A61276  33.020  31.489   6.755
10370POPC   C3A61277  33.044  31.458   7.055
10370POPC   C4A61278  33.059  31.451   7.355
10370POPC   C1B61279  32.962  31.676   6.455
10370POPC   C2B61280  32.935  31.751   6.755
10370POPC   C3B61281  32.984  31.748   7.055
10370POPC   C4B61282  32.901  31.736   7.355
10371POPC   NC361283  10.505   7.385   5.555
10371POPC   PO461284  10.554   7.381   5.855
10371POPC   GL161285  10.488   7.376   6.155
10371POPC   GL261286  10.577   7.481   6.155
10371POPC   C1A61287  10.499   7.436   6.455
10371POPC   D2A61288  10.561   7.462   6.755
10371POPC   C3A61289  10.488   7.401   7.055
10371POPC   C4A61290  10.526   7.404   7.355
10371POPC   C1B61291  10.625   7.673   6.455
10371POPC   C2B61292  10.624   7.677   6.755
10371POPC   C3B61293  10.637   7.647   7.055
10371POPC   C4B61294  10.678   7.629   7.355
10372POPC   NC361295  40.800  32.221   5.555
10372POPC   PO461296  40.757  32.203   5.855
10372POPC   GL161297  40.758  32.235   6.155
10372POPC   GL261298  40.910  32.154   6.155
10372POPC   C1A61299  40.749  32.296   6.455
10372POPC   D2A61300  40.772  32.225   6.755
10372POPC   C3A61301  40.766  32.210   7.055
10372POPC   C4A61302  40.761  32.253   7.355
10372POPC   C1B61303  41.003  32.158   6.455
10372POPC   C2B61304  41.011  32.148   6.755
10372POPC   C3B61305  41.001  32.100   7.055
10372POPC   C4B61306  40.955  32.092   7.355
10373POPC   NC361307  29.944  41.607   5.555
10373POPC   PO461308  29.890  41.559   5.855
10373POPC   GL161309  29.912  41.566   6.155
10373POPC   GL261310  29.826  41.591   6.155
10373POPC   C1A61311  29.876  41.561   6.455
10373POPC   D2A61312  29.872  41.597   6.755
10373POPC   C3A61313  29.946  41.509   7.055
10373POPC   C4A61314  29.897  41.593   7.355
10373POPC   C1B61315  29.722  41.668   6.455
10373POPC   C2B61316  29.704  41.684   6.755
10373POPC   C3B61317  29.729  41.619   7.055
10373POPC   C4B61318  29.683  41.665   7.355
10374POPC   NC361319  10.505  27.562   5.555
10374POPC   PO461320  10.556  27.599   5.855
10374POPC   GL161321  10.549  27.577   6.155
10374POPC   GL261322  10.611  27.727   6.155
10374POPC   C1A61323  10.520  27.624   6.455
10374POPC   D2A61324  10.521  27.552   6.755
10374POPC   C3A61325  10.509  27.615   7.055
10374POPC   C4A61326  10.512  27.593   7.355
10374POPC   C1B61327  10.715  27.804   6.455
10374POPC   C2B61328  10.708  27.808   6.755
10374POPC   C3B61329  10.650  27.784   7.055
10374POPC   C4B61330  10.698  27.737   7.355
10375POPC   NC361331  15.159   0.390   5.555
10375POPC   PO461332  15.177   0.468   5.855
10375POPC   GL161333  15.173   0.470   6.155
10375POPC   GL261334  15.216   0.337   6.155
10375POPC   C1A61335  15.185   0.479   6.455
10375POPC   D2A61336  15.173   0.464   6.755
10375POPC   C3A61337  15.153   0.430   7.055
10375POPC   C4A61338  15.181   0.403   7.355
10375POPC   C1B61339  15.201   0.226   6.455
10375POPC   C2B61340  15.197   0.226   6.755
10375POPC   C3B61341  15.229   0.195   7.055
10375POPC   C4B61342  15.261   0.229   7.355
10376POPC   NC361343  15.229   6.674   5.555
10376POPC   PO461344  15.181   6.641   5.855
10376POPC   GL161345  15.194   6.676   6.155
10376POPC   GL261346  15.182   6.559   6.155
10376POPC   C1A61347  15.207   6.610   6.455
10376POPC   D2A61348  15.194   6.614   6.755
10376POPC   C3A61349  15.219   6.675   7.055
10376POPC   C4A61350  15.134   6.645   7.355
10376POPC   C1B61351  15.100   6.400   6.455
10376POPC   C2B61352  15.141   6.415   6.755
10376POPC   C3B61353  15.097   6.361   7.055
10376POPC   C4B61354  15.131   6.438   7.355
10377POPC   NC361355  12.095  16.773   5.555
10377POPC   PO461356  12.068  16.726   5.855
10377POPC   GL161357  12.052  16.727   6.155
10377POPC   GL261358  11.997  16.793   6.155
10377POPC   C1A61359  12.119  16.713   6.455
10377POPC   D2A61360  12.089  16.683   6.755
10377POPC   C3A61361  12.052  16.774   7.055
10377POPC   C4A61362  12.095  16.755   7.355
10377POPC   C1B61363  11.860  16.841   6.455
10377POPC   C2B61364  11.878  16.902   6.755
10377POPC   C3B61365  11.902  16.888   7.055
10377POPC   C4B61366  11.872  16.864   7.355
10378POPC   NC361367  20.631  10.533   5.555
10378POPC   PO461368  20.652  10.552   5.855
10378POPC   GL161369  20.588  10.528   6.155
10378POPC   GL261370  20.683  10.667   6.155
10378POPC   C1A61371  20.562  10.477   6.455
10378POPC   D2A61372  20.599  10.529   6.755
10378POPC   C3A61373  20.584  10.565   7.055
10378POPC   C4A61374  20.588  10.491   7.355
10378POPC   C1B61375  20.669  10.788   6.455
10378POPC   C2B61376  20.683  10.768   6.755
10378POPC   C3B61377  20.697  10.736   7.055
10378POPC   C4B61378  20.703  10.776   7.355
10379POPC   NC361379   0.455  41.536   5.555
10379POPC   PO461380   0.450  41.554   5.855
10379POPC   GL161381   0.396  41.599   6.155
10379POPC   GL261382   0.547  41.521   6.155
10379POPC   C1A61383   0.464  41.574   6.455
10379POPC   D2A61384   0.487  41.550   6.755
10379POPC   C3A61385   0.414  41.561   7.055
10379POPC   C4A61386   0.429  41.524   7.355
10379POPC   C1B61387   0.675  41.537   6.455
10379POPC   C2B61388   0.648  41.493   6.755
10379POPC   C3B61389   0.717  41.472   7.055
10379POPC   C4B61390   0.690  41.558   7.355
10380POPC   NC361391  43.134  16.778   5.555
10380POPC   PO461392  43.102  16.744   5.855
10380POPC   GL161393  43.106  16.706   6.155
10380POPC   GL261394  43.014  16.668   6.155
10380POPC   C1A61395  43.092  16.735   6.455
10380POPC   D2A61396  43.088  16.686   6.755
10380POPC   C3A61397  43.079  16.727   7.055
10380POPC   C4A61398  43.132  16.705   7.355
10380POPC   C1B61399  42.854  16.577   6.455
10380POPC   C2B61400  42.931  16.618   6.755
10380POPC   C3B61401  42.898  16.583   7.055
10380POPC   C4B61402  42.929  16.626   7.355
10381POPC   NC361403  22.195  42.304   5.555
10381POPC   PO461404  22.208  42.327   5.855
10381POPC   GL161405  22.134  42.381   6.155
10381POPC   GL261406  22.082  42.280   6.155
10381POPC   C1A61407  22.177  42.340   6.455
10381POPC   D2A61408  22.185  42.379   6.755
10381POPC   C3A61409  22.156  42.312   7.055
10381POPC   C4A61410  22.148  42.370   7.355
10381POPC   C1B61411  21.985  42.087   6.455
10381POPC   C2B61412  22.022  42.170   6.755
10381POPC   C3B61413  22.036  42.178   7.055
10381POPC   C4B61414  21.981  42.142   7.355
10382POPC   NC361415  21.401   1.207   5.555
10382POPC   PO461416  21.432   1.171   5.855
10382POPC   GL161417  21.414   1.200   6.155
10382POPC   GL261418  21.496   1.108   6.155
10382POPC   C1A61419  21.353   1.186   6.455
10382POPC   D2A61420  21.408   1.193   6.755
10382POPC   C3A61421  21.423   1.225   7.055
10382POPC   C4A61422  21.397   1.199   7.355
10382POPC   C1B61423  21.612   1.022   6.455
10382POPC   C2B61424  21.620   1.041   6.755
10382POPC   C3B61425  21.574   1.012   7.055
10382POPC   C4B61426  21.557   1.079   7.355
10383POPC   NC361427   6.641  34.605   5.555
10383POPC   PO461428   6.607  34.592   5.855
10383POPC   GL161429   6.641  34.609   6.155
10383POPC   GL261430   6.724  34.534   6.155
10383POPC   C1A61431   6.647  34.617   6.455
10383POPC   D2A61432   6.681  34.544   6.755
10383POPC   C3A61433   6.643  34.563   7.055
10383POPC   C4A61434   6.655  34.596   7.355
10383POPC   C1B61435   6.835  34.382   6.455
10383POPC   C2B61436   6.851  34.389   6.755
10383POPC   C3B61437   6.861  34.443   7.055
10383POPC   C4B61438   6.861  34.418   7.355
10384POPC   NC361439  41.570  28.351   5.555
10384POPC   PO461440  41.603  28.366   5.855
10384POPC   GL161441  41.517  28.395   6.155
10384POPC   GL261442  41.472  28.402   6.155
10384POPC   C1A61443  41.581  28.396   6.455
10384POPC   D2A61444  41.543  28.408   6.755
10384POPC   C3A61445  41.579  28.408   7.055
10384POPC   C4A61446  41.545  28.337   7.355
10384POPC   C1B61447  41.323  28.430   6.455
10384POPC   C2B61448  41.308  28.472   6.755
10384POPC   C3B61449  41.358  28.412   7.055
10384POPC   C4B61450  41.343  28.425   7.355
10385POPC   NC361451  26.070  31.504   5.555
10385POPC   PO461452  26.078  31.481   5.855
10385POPC   GL161453  25.994  31.449   6.155
10385POPC   GL261454  26.186  31.457   6.155
10385POPC   C1A61455  26.076  31.457   6.455
10385POPC   D2A61456  26.071  31.459   6.755
10385POPC   C3A61457  26.028  31.454   7.055
10385POPC   C4A61458  26.053  31.425   7.355
10385POPC   C1B61459  26.322  31.530   6.455
10385POPC   C2B61460  26.306  31.502   6.755
10385POPC   C3B61461  26.287  31.556   7.055
10385POPC   C4B61462  26.317  31.577   7.355
10386POPC   NC361463  14.383  29.151   5.555
10386POPC   PO461464  14.357  29.133   5.855
10386POPC   GL161465  14.390  29.193   6.155
10386POPC   GL261466  14.564  29.144   6.155
10386POPC   C1A61467  14.364  29.139   6.455
10386POPC   D2A61468  14.384  29.130   6.755
10386POPC   C3A61469  14.384  29.142   7.055
10386POPC   C4A61470  14.384  29.108   7.355
10386POPC   C1B61471  14.643  29.233   6.455
10386POPC   C2B61472  14.646  29.180   6.755
10386POPC   C3B61473  14.627  29.258   7.055
10386POPC   C4B61474  14.607  29.222   7.355
10387POPC   NC361475   2.738   4.331   5.555
10387POPC   PO461476   2.725   4.321   5.855
10387POPC   GL161477   2.722   4.356   6.155
10387POPC   GL261478   2.637   4.258   6.155
10387POPC   C1A61479   2.780   4.274   6.455
10387POPC   D2A61480   2.788   4.348   6.755
10387POPC   C3A61481   2.736   4.331   7.055
10387POPC   C4A61482   2.800   4.328   7.355
10387POPC   C1B61483   2.580   4.173   6.455
10387POPC   C2B61484   2.521   4.184   6.755
10387POPC   C3B61485   2.510   4.244   7.055
10387POPC   C4B61486   2.572   4.215   7.355
10388POPC   NC361487  26.770   2.758   5.555
10388POPC   PO461488  26.781   2.789   5.855
10388POPC   GL161489  26.849   2.783   6.155
10388POPC   GL261490  26.674   2.748   6.155
10388POPC   C1A61491  26.856   2.763   6.455
10388POPC   D2A61492  26.826   2.736   6.755
10388POPC   C3A61493  26.863   2.803   7.055
10388POPC   C4A61494  26.787   2.768   7.355
10388POPC   C1B61495  26.589   2.777   6.455
10388POPC   C2B61496  26.600   2.718   6.755
10388POPC   C3B61497  26.617   2.731   7.055
10388POPC   C4B61498  26.574   2.735   7.355
10389POPC   NC361499  26.843  17.555   5.555
10389POPC   PO461500  26.789  17.536   5.855
10389POPC   GL161501  26.789  17.477   6.155
10389POPC   GL261502  26.890  17.442   6.155
10389POPC   C1A61503  26.811  17.497   6.455
10389POPC   D2A61504  26.798  17.536   6.755
10389POPC   C3A61505  26.841  17.518   7.055
10389POPC   C4A61506  26.862  17.505   7.355
10389POPC   C1B61507  26.974  17.286   6.455
10389POPC   C2B61508  26.963  17.337   6.755
10389POPC   C3B61509  27.006  17.281   7.055
10389POPC   C4B61510  26.983  17.357   7.355
10390POPC   NC361511   5.857   2.003   5.555
10390POPC   PO461512   5.834   2.018   5.855
10390POPC   GL161513   5.882   1.970   6.155
10390POPC   GL261514   5.796   1.938   6.155
10390POPC   C1A61515   5.861   1.947   6.455
10390POPC   D2A61516   5.840   2.003   6.755
10390POPC   C3A61517   5.904   1.981   7.055
10390POPC   C4A61518   5.839   2.022   7.355
10390POPC   C1B61519   5.645   1.911   6.455
10390POPC   C2B61520   5.648   1.820   6.755
10390POPC   C3B61521   5.620   1.900   7.055
10390POPC   C4B61522   5.612   1.883   7.355
10391POPC   NC361523  15.200   4.302   5.555
10391POPC   PO461524  15.132   4.322   5.855
10391POPC   GL161525  15.217   4.325   6.155
10391POPC   GL261526  15.184   4.465   6.155
10391POPC   C1A61527  15.218   4.288   6.455
10391POPC   D2A61528  15.140   4.321   6.755
10391POPC   C3A61529  15.206   4.330   7.055
10391POPC   C4A61530  15.145   4.313   7.355
10391POPC   C1B61531  15.182   4.587   6.455
10391POPC   C2B61532  15.242   4.591   6.755
10391POPC   C3B61533  15.172   4.556   7.055
10391POPC   C4B61534  15.174   4.527   7.355
10392POPC   NC361535   7.385  31.450   5.555
10392POPC   PO461536   7.431  31.458   5.855
10392POPC   GL161537   7.419  31.440   6.155
10392POPC   GL261538   7.490  31.363   6.155
10392POPC   C1A61539   7.434  31.483   6.455
10392POPC   D2A61540   7.374  31.512   6.755
10392POPC   C3A61541   7.401  31.438   7.055
10392POPC   C4A61542   7.419  31.427   7.355
10392POPC   C1B61543   7.463  31.186   6.455
10392POPC   C2B61544   7.488  31.259   6.755
10392POPC   C3B61545   7.523  31.276   7.055
10392POPC   C4B61546   7.468  31.240   7.355
10393POPC   NC361547  23.760   2.014   5.555
10393POPC   PO461548  23.695   2.023   5.855
10393POPC   GL161549  23.727   2.039   6.155
10393POPC   GL261550  23.632   2.080   6.155
10393POPC   C1A61551  23.667   1.982   6.455
10393POPC   D2A61552  23.718   1.963   6.755
10393POPC   C3A61553  23.753   1.955   7.055
10393POPC   C4A61554  23.734   1.990   7.355
10393POPC   C1B61555  23.514   2.120   6.455
10393POPC   C2B61556  23.504   2.128   6.755
10393POPC   C3B61557  23.491   2.189   7.055
10393POPC   C4B61558  23.511   2.104   7.355
10394POPC   NC361559   8.170  29.874   5.555
10394POPC   PO461560   8.186  29.936   5.855
10394POPC   GL161561   8.199  29.920   6.155
10394POPC   GL261562   8.247  29.875   6.155
10394POPC   C1A61563   8.226  29.913   6.455
10394POPC   D2A61564   8.204  29.917   6.755
10394POPC   C3A61565   8.147  29.939   7.055
10394POPC   C4A61566   8.187  29.927   7.355
10394POPC   C1B61567   8.330  29.772   6.455
10394POPC   C2B61568   8.367  29.717   6.755
10394POPC   C3B61569   8.391  29.734   7.055
10394POPC   C4B61570   8.383  29.767   7.355
10395POPC   NC361571   9.798   2.810   5.555
10395POPC   PO461572   9.784   2.811   5.855
10395POPC   GL161573   9.777   2.782   6.155
10395POPC   GL261574   9.746   2.838   6.155
10395POPC   C1A61575   9.798   2.794   6.455
10395POPC   D2A61576   9.757   2.721   6.755
10395POPC   C3A61577   9.756   2.765   7.055
10395POPC   C4A61578   9.728   2.741   7.355
10395POPC   C1B61579   9.734   2.995   6.455
10395POPC   C2B61580   9.692   3.053   6.755
10395POPC   C3B61581   9.683   3.002   7.055
10395POPC   C4B61582   9.739   3.039   7.355
10396POPC   NC361583   9.728  11.306   5.555
10396POPC   PO461584   9.784  11.333   5.855
10396POPC   GL161585   9.723  11.307   6.155
10396POPC   GL261586   9.792  11.455   6.155
10396POPC   C1A61587   9.767  11.257   6.455
10396POPC   D2A61588   9.761  11.290   6.755
10396POPC   C3A61589   9.741  11.285   7.055
10396POPC   C4A61590   9.764  11.289   7.355
10396POPC   C1B61591   9.775  11.576   6.455
10396POPC   C2B61592   9.786  11.578   6.755
10396POPC   C3B61593   9.851  11.521   7.055
10396POPC   C4B61594   9.851  11.544   7.355
10397POPC   NC361595  18.282  26.819   5.555
10397POPC   PO461596  18.287  26.837   5.855
10397POPC   GL161597  18.302  26.786   6.155
10397POPC   GL261598  18.164  26.881   6.155
10397POPC   C1A61599  18.261  26.778   6.455
10397POPC   D2A61600  18.233  26.849   6.755
10397POPC   C3A61601  18.308  26.782   7.055
10397POPC   C4A61602  18.280  26.834   7.355
10397POPC   C1B61603  18.047  26.912   6.455
10397POPC   C2B61604  18.084  26.868   6.755
10397POPC   C3B61605  18.002  26.945   7.055
10397POPC   C4B61606  18.020  26.880   7.355
10398POPC   NC361607  15.975   5.864   5.555
10398POPC   PO461608  15.909   5.855   5.855
10398POPC   GL161609  15.948   5.886   6.155
10398POPC   GL261610  16.002   5.731   6.155
10398POPC   C1A61611  15.931   5.822   6.455
10398POPC   D2A61612  15.915   5.903   6.755
10398POPC   C3A61613  15.970   5.832   7.055
10398POPC   C4A61614  15.959   5.824   7.355
10398POPC   C1B61615  15.953   5.592   6.455
10398POPC   C2B61616  15.993   5.640   6.755
10398POPC   C3B61617  15.989   5.577   7.055
10398POPC   C4B61618  16.031   5.586   7.355
10399POPC   NC361619  25.261  22.210   5.555
10399POPC   PO461620  25.218  22.123   5.855
10399POPC   GL161621  25.270  22.208   6.155
10399POPC   GL261622  25.284  22.283   6.155
10399POPC   C1A61623  25.260  22.199   6.455
10399POPC   D2A61624  25.308  22.193   6.755
10399POPC   C3A61625  25.306  22.131   7.055
10399POPC   C4A61626  25.296  22.145   7.355
10399POPC   C1B61627  25.269  22.380   6.455
10399POPC   C2B61628  25.319  22.454   6.755
10399POPC   C3B61629  25.302  22.375   7.055
10399POPC   C4B61630  25.267  22.369   7.355
10400POPC   NC361631  22.178   3.525   5.555
10400POPC   PO461632  22.123   3.590   5.855
10400POPC   GL161633  22.149   3.585   6.155
10400POPC   GL261634  22.182   3.405   6.155
10400POPC   C1A61635  22.162   3.498   6.455
10400POPC   D2A61636  22.211   3.591   6.755
10400POPC   C3A61637  22.152   3.541   7.055
10400POPC   C4A61638  22.131   3.501   7.355
10400POPC   C1B61639  22.244   3.340   6.455
10400POPC   C2B61640  22.253   3.295   6.755
10400POPC   C3B61641  22.314   3.309   7.055
10400POPC   C4B61642  22.310   3.295   7.355
10401POPC   NC361643  35.350  33.847   5.555
10401POPC   PO461644  35.387  33.808   5.855
10401POPC   GL161645  35.310  33.815   6.155
10401POPC   GL261646  35.278  33.813   6.155
10401POPC   C1A61647  35.399  33.817   6.455
10401POPC   D2A61648  35.399  33.838   6.755
10401POPC   C3A61649  35.325  33.778   7.055
10401POPC   C4A61650  35.313  33.772   7.355
10401POPC   C1B61651  35.084  33.738   6.455
10401POPC   C2B61652  35.138  33.774   6.755
10401POPC   C3B61653  35.068  33.744   7.055
10401POPC   C4B61654  35.099  33.767   7.355
10402POPC   NC361655   9.707  13.648   5.555
10402POPC   PO461656   9.704  13.652   5.855
10402POPC   GL161657   9.752  13.600   6.155
10402POPC   GL261658   9.841  13.559   6.155
10402POPC   C1A61659   9.781  13.609   6.455
10402POPC   D2A61660   9.700  13.619   6.755
10402POPC   C3A61661   9.744  13.663   7.055
10402POPC   C4A61662   9.750  13.627   7.355
10402POPC   C1B61663   9.915  13.505   6.455
10402POPC   C2B61664   9.940  13.444   6.755
10402POPC   C3B61665   9.978  13.466   7.055
10402POPC   C4B61666   9.933  13.439   7.355
10403POPC   NC361667   6.614  22.926   5.555
10403POPC   PO461668   6.618  22.959   5.855
10403POPC   GL161669   6.658  22.933   6.155
10403POPC   GL261670   6.755  22.905   6.155
10403POPC   C1A61671   6.614  22.903   6.455
10403POPC   D2A61672   6.664  22.930   6.755
10403POPC   C3A61673   6.596  22.946   7.055
10403POPC   C4A61674   6.679  22.933   7.355
10403POPC   C1B61675   6.836  22.866   6.455
10403POPC   C2B61676   6.847  22.786   6.755
10403POPC   C3B61677   6.834  22.805   7.055
10403POPC   C4B61678   6.908  22.841   7.355
10404POPC   NC361679  12.884  35.360   5.555
10404POPC   PO461680  12.841  35.319   5.855
10404POPC   GL161681  12.823  35.352   6.155
10404POPC   GL261682  12.768  35.507   6.155
10404POPC   C1A61683  12.877  35.346   6.455
10404POPC   D2A61684  12.848  35.367   6.755
10404POPC   C3A61685  12.828  35.359   7.055
10404POPC   C4A61686  12.897  35.308   7.355
10404POPC   C1B61687  12.696  35.589   6.455
10404POPC   C2B61688  12.737  35.553   6.755
10404POPC   C3B61689  12.711  35.538   7.055
10404POPC   C4B61690  12.736  35.592   7.355
10405POPC   NC361691  17.555  36.864   5.555
10405POPC   PO461692  17.464  36.902   5.855
10405POPC   GL161693  17.491  36.952   6.155
10405POPC   GL261694  17.607  36.781   6.155
10405POPC   C1A61695  17.470  36.939   6.455
10405POPC   D2A61696  17.556  36.878   6.755
10405POPC   C3A61697  17.464  36.909   7.055
10405POPC   C4A61698  17.467  36.949   7.355
10405POPC   C1B61699  17.687  36.713   6.455
10405POPC   C2B61700  17.676  36.685   6.755
10405POPC   C3B61701  17.684  36.693   7.055
10405POPC   C4B61702  17.721  36.697   7.355
10406POPC   NC361703  42.338   6.639   5.555
10406POPC   PO461704  42.372   6.610   5.855
10406POPC   GL161705  42.327   6.626   6.155
10406POPC   GL261706  42.332   6.763   6.155
10406POPC   C1A61707  42.313   6.675   6.455
10406POPC   D2A61708  42.367   6.686   6.755
10406POPC   C3A61709  42.322   6.669   7.055
10406POPC   C4A61710  42.287   6.630   7.355
10406POPC   C1B61711  42.457   6.897   6.455
10406POPC   C2B61712  42.389   6.912   6.755
10406POPC   C3B61713  42.442   6.849   7.055
10406POPC   C4B61714  42.432   6.907   7.355
10407POPC   NC361715   2.808  39.207   5.555
10407POPC   PO461716   2.724  39.250   5.855
10407POPC   GL161717   2.766  39.277   6.155
10407POPC   GL261718   2.831  39.133   6.155
10407POPC   C1A61719   2.809  39.265   6.455
10407POPC   D2A61720   2.783  39.226   6.755
10407POPC   C3A61721   2.755  39.231   7.055
10407POPC   C4A61722   2.762  39.247   7.355
10407POPC   C1B61723   2.846  38.993   6.455
10407POPC   C2B61724   2.796  38.990   6.755
10407POPC   C3B61725   2.881  38.978   7.055
10407POPC   C4B61726   2.807  39.021   7.355
10408POPC   NC361727   4.305   4.335   5.555
10408POPC   PO461728   4.317   4.329   5.855
10408POPC   GL161729   4.354   4.308   6.155
10408POPC   GL261730   4.169   4.374   6.155
10408POPC   C1A61731   4.322   4.324   6.455
10408POPC   D2A61732   4.285   4.340   6.755
10408POPC   C3A61733   4.280   4.313   7.055
10408POPC   C4A61734   4.302   4.333   7.355
10408POPC   C1B61735   4.033   4.356   6.455
10408POPC   C2B61736   4.065   4.385   6.755
10408POPC   C3B61737   4.111   4.357   7.055
10408POPC   C4B61738   4.089   4.295   7.355
10409POPC   NC361739  40.762   7.378   5.555
10409POPC   PO461740  40.831   7.390   5.855
10409POPC   GL161741  40.759   7.471   6.155
10409POPC   GL261742  40.678   7.371   6.155
10409POPC   C1A61743  40.748   7.436   6.455
10409POPC   D2A61744  40.736   7.454   6.755
10409POPC   C3A61745  40.822   7.385   7.055
10409POPC   C4A61746  40.811   7.383   7.355
10409POPC   C1B61747  40.585   7.406   6.455
10409POPC   C2B61748  40.534   7.404   6.755
10409POPC   C3B61749  40.514   7.376   7.055
10409POPC   C4B61750  40.586   7.320   7.355
10410POPC   NC361751   4.366  19.839   5.555
10410POPC   PO461752   4.328  19.852   5.855
10410POPC   GL161753   4.353  19.844   6.155
10410POPC   GL261754   4.219  19.790   6.155
10410POPC   C1A61755   4.341  19.882   6.455
10410POPC   D2A61756   4.354  19.811   6.755
10410POPC   C3A61757   4.356  19.848   7.055
10410POPC   C4A61758   4.293  19.835   7.355
10410POPC   C1B61759   4.149  19.640   6.455
10410POPC   C2B61760   4.109  19.665   6.755
10410POPC   C3B61761   4.150  19.710   7.055
10410POPC   C4B61762   4.112  19.706   7.355
10411POPC   NC361763  22.122  14.447   5.555
10411POPC   PO461764  22.141  14.415   5.855
10411POPC   GL161765  22.210  14.438   6.155
10411POPC   GL261766  22.014  14.396   6.155
10411POPC   C1A61767  22.119  14.424   6.455
10411POPC   D2A61768  22.127  14.448   6.755
10411POPC   C3A61769  22.173  14.429   7.055
10411POPC   C4A61770  22.203  14.395   7.355
10411POPC   C1B61771  21.870  14.361   6.455
10411POPC   C2B61772  21.953  14.412   6.755
10411POPC   C3B61773  21.927  14.414   7.055
10411POPC   C4B61774  21.939  14.402   7.355
10412POPC   NC361775  36.932  24.503   5.555
10412POPC   PO461776  36.900  24.523   5.855
10412POPC   GL161777  36.926  24.447   6.155
10412POPC   GL261778  36.926  24.324   6.155
10412POPC   C1A61779  36.930  24.523   6.455
10412POPC   D2A61780  36.870  24.498   6.755
10412POPC   C3A61781  36.891  24.453   7.055
10412POPC   C4A61782  36.868  24.442   7.355
10412POPC   C1B61783  36.933  24.275   6.455
10412POPC   C2B61784  36.881  24.226   6.755
10412POPC   C3B61785  36.963  24.266   7.055
10412POPC   C4B61786  36.933  24.221   7.355
10413POPC   NC361787  22.186   0.439   5.555
10413POPC   PO461788  22.148   0.401   5.855
10413POPC   GL161789  22.171   0.396   6.155
10413POPC   GL261790  22.158   0.609   6.155
10413POPC   C1A61791  22.188   0.467   6.455
10413POPC   D2A61792  22.181   0.389   6.755
10413POPC   C3A61793  22.144   0.469   7.055
10413POPC   C4A61794  22.176   0.447   7.355
10413POPC   C1B61795  22.180   0.690   6.455
10413POPC   C2B61796  22.205   0.688   6.755
10413POPC   C3B61797  22.177   0.653   7.055
10413POPC   C4B61798  22.141   0.705   7.355
10414POPC   NC361799   3.563   8.953   5.555
10414POPC   PO461800   3.537   9.002   5.855
10414POPC   GL161801   3.586   8.927   6.155
10414POPC   GL261802   3.690   8.876   6.155
10414POPC   C1A61803   3.510   8.959   6.455
10414POPC   D2A61804   3.521   9.012   6.755
10414POPC   C3A61805   3.571   8.975   7.055
10414POPC   C4A61806   3.519   8.984   7.355
10414POPC   C1B61807   3.778   8.848   6.455
10414POPC   C2B61808   3.718   8.823   6.755
10414POPC   C3B61809   3.717   8.863   7.055
10414POPC   C4B61810   3.761   8.884   7.355
10415POPC   NC361811  36.918   5.868   5.555
10415POPC   PO461812  36.879   5.832   5.855
10415POPC   GL161813  36.865   5.913   6.155
10415POPC   GL261814  36.843   5.815   6.155
10415POPC   C1A61815  36.902   5.858   6.455
10415POPC   D2A61816  36.910   5.873   6.755
10415POPC   C3A61817  36.932   5.878   7.055
10415POPC   C4A61818  36.865   5.856   7.355
10415POPC   C1B61819  36.653   5.672   6.455
10415POPC   C2B61820  36.669   5.767   6.755
10415POPC   C3B61821  36.679   5.763   7.055
10415POPC   C4B61822  36.688   5.702   7.355
10416POPC   NC361823  36.172  33.782   5.555
10416POPC   PO461824  36.168  33.797   5.855
10416POPC   GL161825  36.104  33.806   6.155
10416POPC   GL261826  36.264  33.839   6.155
10416POPC   C1A61827  36.146  33.848   6.455
10416POPC   D2A61828  36.102  33.801   6.755
10416POPC   C3A61829  36.131  33.758   7.055
10416POPC   C4A61830  36.106  33.771   7.355
10416POPC   C1B61831  36.307  33.958   6.455
10416POPC   C2B61832  36.295  33.935   6.755
10416POPC   C3B61833  36.288  33.951   7.055
10416POPC   C4B61834  36.288  33.915   7.355
10417POPC   NC361835   8.949  12.125   5.555
10417POPC   PO461836   8.954  12.081   5.855
10417POPC   GL161837   8.955  12.045   6.155
10417POPC   GL261838   8.857  12.025   6.155
10417POPC   C1A61839   8.957  12.113   6.455
10417POPC   D2A61840   8.957  12.033   6.755
10417POPC   C3A61841   8.958  12.064   7.055
10417POPC   C4A61842   8.960  12.082   7.355
10417POPC   C1B61843   8.802  11.872   6.455
10417POPC   C2B61844   8.816  11.929   6.755
10417POPC   C3B61845   8.812  11.895   7.055
10417POPC   C4B61846   8.779  11.924   7.355
10418POPC   NC361847  40.798  12.087   5.555
10418POPC   PO461848  40.777  12.116   5.855
10418POPC   GL161849  40.799  12.044   6.155
10418POPC   GL261850  40.862  12.168   6.155
10418POPC   C1A61851  40.744  12.057   6.455
10418POPC   D2A61852  40.801  12.066   6.755
10418POPC   C3A61853  40.793  12.122   7.055
10418POPC   C4A61854  40.777  12.056   7.355
10418POPC   C1B61855  40.983  12.218   6.455
10418POPC   C2B61856  40.959  12.237   6.755
10418POPC   C3B61857  41.022  12.185   7.055
10418POPC   C4B61858  41.006  12.169   7.355
10419POPC   NC361859  27.598   1.973   5.555
10419POPC   PO461860  27.606   2.027   5.855
10419POPC   GL161861  27.597   2.014   6.155
10419POPC   GL261862  27.515   2.146   6.155
10419POPC   C1A61863  27.585   1.985   6.455
10419POPC   D2A61864  27.566   1.987   6.755
10419POPC   C3A61865  27.593   2.005   7.055
10419POPC   C4A61866  27.603   2.029   7.355
10419POPC   C1B61867  27.490   2.209   6.455
10419POPC   C2B61868  27.466   2.240   6.755
10419POPC   C3B61869  27.558   2.267   7.055
10419POPC   C4B61870  27.525   2.230   7.355
10420POPC   NC361871  12.032  32.242   5.555
10420POPC   PO461872  12.107  32.207   5.855
10420POPC   GL161873  12.098  32.264   6.155
10420POPC   GL261874  11.991  32.180   6.155
10420POPC   C1A61875  12.125  32.217   6.455
10420POPC   D2A61876  12.029  32.231   6.755
10420POPC   C3A61877  12.091  32.248   7.055
10420POPC   C4A61878  12.094  32.230   7.355
10420POPC   C1B61879  11.948  32.026   6.455
10420POPC   C2B61880  11.932  32.029   6.755
10420POPC   C3B61881  11.909  32.036   7.055
10420POPC   C4B61882  11.985  32.028   7.355
10421POPC   NC361883  29.939  36.879   5.555
10421POPC   PO461884  29.879  36.933   5.855
10421POPC   GL161885  29.919  36.885   6.155
10421POPC   GL261886  29.797  36.979   6.155
10421POPC   C1A61887  29.922  36.900   6.455
10421POPC   D2A61888  29.899  36.902   6.755
10421POPC   C3A61889  29.876  36.891   7.055
10421POPC   C4A61890  29.950  36.884   7.355
10421POPC   C1B61891  29.744  37.089   6.455
10421POPC   C2B61892  29.785  37.066   6.755
10421POPC   C3B61893  29.730  37.030   7.055
10421POPC   C4B61894  29.783  37.109   7.355
10422POPC   NC361895   5.083  19.064   5.555
10422POPC   PO461896   5.114  19.018   5.855
10422POPC   GL161897   5.124  19.068   6.155
10422POPC   GL261898   4.986  19.150   6.155
10422POPC   C1A61899   5.129  19.053   6.455
10422POPC   D2A61900   5.121  19.029   6.755
10422POPC   C3A61901   5.060  19.070   7.055
10422POPC   C4A61902   5.073  19.058   7.355
10422POPC   C1B61903   4.965  19.216   6.455
10422POPC   C2B61904   4.888  19.227   6.755
10422POPC   C3B61905   4.939  19.257   7.055
10422POPC   C4B61906   4.911  19.262   7.355
10423POPC   NC361907   5.098   2.722   5.555
10423POPC   PO461908   5.108   2.809   5.855
10423POPC   GL161909   5.119   2.765   6.155
10423POPC   GL261910   5.023   2.817   6.155
10423POPC   C1A61911   5.050   2.793   6.455
10423POPC   D2A61912   5.053   2.775   6.755
10423POPC   C3A61913   5.070   2.799   7.055
10423POPC   C4A61914   5.051   2.751   7.355
10423POPC   C1B61915   4.956   2.989   6.455
10423POPC   C2B61916   4.935   2.949   6.755
10423POPC   C3B61917   4.933   2.999   7.055
10423POPC   C4B61918   4.969   3.001   7.355
10424POPC   NC361919  16.760  29.158   5.555
10424POPC   PO461920  16.771  29.171   5.855
10424POPC   GL161921  16.761  29.187   6.155
10424POPC   GL261922  16.835  29.063   6.155
10424POPC   C1A61923  16.718  29.130   6.455
10424POPC   D2A61924  16.763  29.118   6.755
10424POPC   C3A61925  16.695  29.168   7.055
10424POPC   C4A61926  16.758  29.096   7.355
10424POPC   C1B61927  16.923  28.965   6.455
10424POPC   C2B61928  16.914  28.996   6.755
10424POPC   C3B61929  16.892  29.050   7.055
10424POPC   C4B61930  16.963  29.037   7.355
10425POPC   NC361931   7.440  35.321   5.555
10425POPC   PO461932   7.455  35.334   5.855
10425POPC   GL161933   7.428  35.317   6.155
10425POPC   GL261934   7.413  35.489   6.155
10425POPC   C1A61935   7.453  35.346   6.455
10425POPC   D2A61936   7.392  35.336   6.755
10425POPC   C3A61937   7.381  35.343   7.055
10425POPC   C4A61938   7.393  35.343   7.355
10425POPC   C1B61939   7.436  35.584   6.455
10425POPC   C2B61940   7.406  35.615   6.755
10425POPC   C3B61941   7.401  35.578   7.055
10425POPC   C4B61942   7.369  35.622   7.355
10426POPC   NC361943  34.527  26.818   5.555
10426POPC   PO461944  34.534  26.780   5.855
10426POPC   GL161945  34.551  26.830   6.155
10426POPC   GL261946  34.578  26.969   6.155
10426POPC   C1A61947  34.566  26.843   6.455
10426POPC   D2A61948  34.608  26.867   6.755
10426POPC   C3A61949  34.553  26.775   7.055
10426POPC   C4A61950  34.574  26.809   7.355
10426POPC   C1B61951  34.540  27.096   6.455
10426POPC   C2B61952  34.542  27.097   6.755
10426POPC   C3B61953  34.481  27.061   7.055
10426POPC   C4B61954  34.456  27.088   7.355
10427POPC   NC361955  39.256  15.998   5.555
10427POPC   PO461956  39.189  15.962   5.855
10427POPC   GL161957  39.202  15.996   6.155
10427POPC   GL261958  39.252  16.056   6.155
10427POPC   C1A61959  39.257  15.933   6.455
10427POPC   D2A61960  39.246  15.939   6.755
10427POPC   C3A61961  39.181  15.960   7.055
10427POPC   C4A61962  39.217  15.919   7.355
10427POPC   C1B61963  39.335  16.230   6.455
10427POPC   C2B61964  39.306  16.159   6.755
10427POPC   C3B61965  39.262  16.192   7.055
10427POPC   C4B61966  39.320  16.177   7.355
10428POPC   NC361967  31.511  33.025   5.555
10428POPC   PO461968  31.441  33.059   5.855
10428POPC   GL161969  31.458  33.033   6.155
10428POPC   GL261970  31.429  33.133   6.155
10428POPC   C1A61971  31.509  33.019   6.455
10428POPC   D2A61972  31.439  33.016   6.755
10428POPC   C3A61973  31.432  32.979   7.055
10428POPC   C4A61974  31.437  33.046   7.355
10428POPC   C1B61975  31.333  33.252   6.455
10428POPC   C2B61976  31.384  33.224   6.755
10428POPC   C3B61977  31.416  33.269   7.055
10428POPC   C4B61978  31.419  33.264   7.355
10429POPC   NC361979  16.710   0.469   5.555
10429POPC   PO461980  16.729   0.480   5.855
10429POPC   GL161981  16.776   0.445   6.155
10429POPC   GL261982  16.688   0.518   6.155
10429POPC   C1A61983  16.758   0.463   6.455
10429POPC   D2A61984  16.745   0.440   6.755
10429POPC   C3A61985  16.747   0.430   7.055
10429POPC   C4A61986  16.743   0.427   7.355
10429POPC   C1B61987  16.730   0.736   6.455
10429POPC   C2B61988  16.678   0.706   6.755
10429POPC   C3B61989  16.740   0.665   7.055
10429POPC   C4B61990  16.675   0.691   7.355
10430POPC   NC361991  42.344  15.217   5.555
10430POPC   PO461992  42.349  15.135   5.855
10430POPC   GL161993  42.337  15.161   6.155
10430POPC   GL261994  42.262  15.072   6.155
10430POPC   C1A61995  42.383  15.152   6.455
10430POPC   D2A61996  42.336  15.157   6.755
10430POPC   C3A61997  42.336  15.145   7.055
10430POPC   C4A61998  42.340  15.140   7.355
10430POPC   C1B61999  42.202  14.988   6.455
10430POPC   C2B62000  42.186  15.005   6.755
10430POPC   C3B62001  42.150  14.972   7.055
10430POPC   C4B62002  42.177  15.048   7.355
10431POPC   NC362003   7.395  39.273   5.555
10431POPC   PO462004   7.433  39.271   5.855
10431POPC   GL162005   7.422  39.182   6.155
10431POPC   GL262006   7.414  39.067   6.155
10431POPC   C1A62007   7.447  39.264   6.455
10431POPC   D2A62008   7.415  39.251   6.755
10431POPC   C3A62009   7.454  39.256   7.055
10431POPC   C4A62010   7.398  39.222   7.355
10431POPC   C1B62011   7.348  38.980   6.455
10431POPC   C2B62012   7.287  39.029   6.755
10431POPC   C3B62013   7.283  38.973   7.055
10431POPC   C4B62014   7.317  38.959   7.355
10432POPC   NC362015  15.195  33.818   5.555
10432POPC   PO462016  15.173  33.835   5.855
10432POPC   GL162017  15.199  33.791   6.155
10432POPC   GL262018  15.211  33.714   6.155
10432POPC   C1A62019  15.168  33.835   6.455
10432POPC   D2A62020  15.163  33.824   6.755
10432POPC   C3A62021  15.147  33.795   7.055
10432POPC   C4A62022  15.146  33.831   7.355
10432POPC   C1B62023  15.308  33.616   6.455
10432POPC   C2B62024  15.355  33.584   6.755
10432POPC   C3B62025  15.346  33.626   7.055
10432POPC   C4B62026  15.273  33.568   7.355
10433POPC   NC362027  35.336   4.300   5.555
10433POPC   PO462028  35.386   4.287   5.855
10433POPC   GL162029  35.373   4.350   6.155
10433POPC   GL262030  35.325   4.378   6.155
10433POPC   C1A62031  35.382   4.303   6.455
10433POPC   D2A62032  35.340   4.357   6.755
10433POPC   C3A62033  35.357   4.353   7.055
10433POPC   C4A62034  35.393   4.284   7.355
10433POPC   C1B62035  35.181   4.489   6.455
10433POPC   C2B62036  35.191   4.558   6.755
10433POPC   C3B62037  35.202   4.515   7.055
10433POPC   C4B62038  35.251   4.557   7.355
10434POPC   NC362039  44.665  19.021   5.555
10434POPC   PO462040  44.665  19.065   5.855
10434POPC   GL162041  44.628  19.093   6.155
10434POPC   GL262042  44.629  19.203   6.155
10434POPC   C1A62043  44.702  19.027   6.455
10434POPC   D2A62044  44.652  19.066   6.755
10434POPC   C3A62045  44.690  19.049   7.055
10434POPC   C4A62046  44.613  19.066   7.355
10434POPC   C1B62047  44.611  19.323   6.455
10434POPC   C2B62048  44.665  19.271   6.755
10434POPC   C3B62049  44.596  19.301   7.055
10434POPC   C4B62050  44.608  19.292   7.355
10435POPC   NC362051  12.878   8.165   5.555
10435POPC   PO462052  12.872   8.220   5.855
10435POPC   GL162053  12.843   8.221   6.155
10435POPC   GL262054  12.796   8.064   6.155
10435POPC   C1A62055  12.893   8.187   6.455
10435POPC   D2A62056  12.863   8.246   6.755
10435POPC   C3A62057  12.896   8.238   7.055
10435POPC   C4A62058  12.881   8.206   7.355
10435POPC   C1B62059  12.785   8.003   6.455
10435POPC   C2B62060  12.758   7.930   6.755
10435POPC   C3B62061  12.689   8.016   7.055
10435POPC   C4B62062  12.727   7.964   7.355
10436POPC   NC362063  37.705   6.682   5.555
10436POPC   PO462064  37.718   6.677   5.855
10436POPC   GL162065  37.649   6.669   6.155
10436POPC   GL262066  37.767   6.641   6.155
10436POPC   C1A62067  37.727   6.607   6.455
10436POPC   D2A62068  37.660   6.682   6.755
10436POPC   C3A62069  37.718   6.610   7.055
10436POPC   C4A62070  37.702   6.687   7.355
10436POPC   C1B62071  37.956   6.681   6.455
10436POPC   C2B62072  37.913   6.638   6.755
10436POPC   C3B62073  37.968   6.700   7.055
10436POPC   C4B62074  37.968   6.632   7.355
10437POPC   NC362075   5.823  39.275   5.555
10437POPC   PO462076   5.842  39.226   5.855
10437POPC   GL162077   5.890  39.216   6.155
10437POPC   GL262078   5.790  39.105   6.155
10437POPC   C1A62079   5.869  39.195   6.455
10437POPC   D2A62080   5.889  39.250   6.755
10437POPC   C3A62081   5.859  39.239   7.055
10437POPC   C4A62082   5.873  39.263   7.355
10437POPC   C1B62083   5.785  39.054   6.455
10437POPC   C2B62084   5.754  39.017   6.755
10437POPC   C3B62085   5.763  39.053   7.055
10437POPC   C4B62086   5.732  39.023   7.355
10438POPC   NC362087  39.252  16.683   5.555
10438POPC   PO462088  39.189  16.745   5.855
10438POPC   GL162089  39.247  16.758   6.155
10438POPC   GL262090  39.321  16.603   6.155
10438POPC   C1A62091  39.243  16.766   6.455
10438POPC   D2A62092  39.239  16.723   6.755
10438POPC   C3A62093  39.183  16.748   7.055
10438POPC   C4A62094  39.274  16.727   7.355
10438POPC   C1B62095  39.406  16.556   6.455
10438POPC   C2B62096  39.328  16.532   6.755
10438POPC   C3B62097  39.328  16.570   7.055
10438POPC   C4B62098  39.372  16.484   7.355
10439POPC   NC362099  41.524   5.855   5.555
10439POPC   PO462100  41.584   5.900   5.855
10439POPC   GL162101  41.566   5.906   6.155
10439POPC   GL262102  41.696   5.854   6.155
10439POPC   C1A62103  41.509   5.885   6.455
10439POPC   D2A62104  41.584   5.903   6.755
10439POPC   C3A62105  41.523   5.840   7.055
10439POPC   C4A62106  41.577   5.880   7.355
10439POPC   C1B62107  41.833   5.972   6.455
10439POPC   C2B62108  41.780   5.937   6.755
10439POPC   C3B62109  41.755   5.968   7.055
10439POPC   C4B62110  41.839   5.903   7.355
10440POPC   NC362111  32.290  10.506   5.555
10440POPC   PO462112  32.267  10.555   5.855
10440POPC   GL162113  32.241  10.477   6.155
10440POPC   GL262114  32.112  10.436   6.155
10440POPC   C1A62115  32.293  10.501   6.455
10440POPC   D2A62116  32.278  10.556   6.755
10440POPC   C3A62117  32.292  10.520   7.055
10440POPC   C4A62118  32.224  10.570   7.355
10440POPC   C1B62119  32.018  10.411   6.455
10440POPC   C2B62120  32.022  10.428   6.755
10440POPC   C3B62121  32.014  10.331   7.055
10440POPC   C4B62122  32.073  10.354   7.355
10441POPC   NC362123  35.389  16.744   5.555
10441POPC   PO462124  35.340  16.712   5.855
10441POPC   GL162125  35.375  16.770   6.155
10441POPC   GL262126  35.389  16.826   6.155
10441POPC   C1A62127  35.318  16.776   6.455
10441POPC   D2A62128  35.336  16.689   6.755
10441POPC   C3A62129  35.383  16.748   7.055
10441POPC   C4A62130  35.370  16.690   7.355
10441POPC   C1B62131  35.405  16.994   6.455
10441POPC   C2B62132  35.422  16.965   6.755
10441POPC   C3B62133  35.377  16.993   7.055
10441POPC   C4B62134  35.464  17.001   7.355
10442POPC   NC362135  12.812   0.437   5.555
10442POPC   PO462136  12.809   0.471   5.855
10442POPC   GL162137  12.899   0.485   6.155
10442POPC   GL262138  12.892   0.569   6.155
10442POPC   C1A62139  12.855   0.421   6.455
10442POPC   D2A62140  12.840   0.448   6.755
10442POPC   C3A62141  12.833   0.411   7.055
10442POPC   C4A62142  12.843   0.410   7.355
10442POPC   C1B62143  12.803   0.715   6.455
10442POPC   C2B62144  12.786   0.714   6.755
10442POPC   C3B62145  12.811   0.683   7.055
10442POPC   C4B62146  12.856   0.710   7.355
10443POPC   NC362147  39.239  33.768   5.555
10443POPC   PO462148  39.230  33.759   5.855
10443POPC   GL162149  39.202  33.782   6.155
10443POPC   GL262150  39.244  33.927   6.155
10443POPC   C1A62151  39.187  33.780   6.455
10443POPC   D2A62152  39.209  33.751   6.755
10443POPC   C3A62153  39.244  33.768   7.055
10443POPC   C4A62154  39.182  33.797   7.355
10443POPC   C1B62155  39.236  34.089   6.455
10443POPC   C2B62156  39.275  34.070   6.755
10443POPC   C3B62157  39.266  34.038   7.055
10443POPC   C4B62158  39.266  34.001   7.355
10444POPC   NC362159  33.059   9.010   5.555
10444POPC   PO462160  33.008   8.963   5.855
10444POPC   GL162161  32.992   8.988   6.155
10444POPC   GL262162  33.178   9.035   6.155
10444POPC   C1A62163  33.033   8.969   6.455
10444POPC   D2A62164  33.064   8.978   6.755
10444POPC   C3A62165  32.979   8.986   7.055
10444POPC   C4A62166  33.069   8.944   7.355
10444POPC   C1B62167  33.294   8.997   6.455
10444POPC   C2B62168  33.221   9.019   6.755
10444POPC   C3B62169  33.291   9.044   7.055
10444POPC   C4B62170  33.250   9.051   7.355
10445POPC   NC362171  31.446  32.260   5.555
10445POPC   PO462172  31.431  32.219   5.855
10445POPC   GL162173  31.442  32.204   6.155
10445POPC   GL262174  31.385  32.135   6.155
10445POPC   C1A62175  31.434  32.256   6.455
10445POPC   D2A62176  31.502  32.239   6.755
10445POPC   C3A62177  31.442  32.249   7.055
10445POPC   C4A62178  31.446  32.287   7.355
10445POPC   C1B62179  31.361  32.080   6.455
10445POPC   C2B62180  31.351  32.092   6.755
10445POPC   C3B62181  31.316  32.019   7.055
10445POPC   C4B62182  31.277  32.021   7.355
10446POPC   NC362183  10.510   9.018   5.555
10446POPC   PO462184  10.487   8.925   5.855
10446POPC   GL162185  10.542   8.977   6.155
10446POPC   GL262186  10.577   9.034   6.155
10446POPC   C1A62187  10.559   8.994   6.455
10446POPC   D2A62188  10.485   8.987   6.755
10446POPC   C3A62189  10.568   8.949   7.055
10446POPC   C4A62190  10.516   8.980   7.355
10446POPC   C1B62191  10.667   9.215   6.455
10446POPC   C2B62192  10.653   9.175   6.755
10446POPC   C3B62193  10.653   9.179   7.055
10446POPC   C4B62194  10.679   9.148   7.355
10447POPC   NC362195  29.180  44.697   5.555
10447POPC   PO462196  29.127  44.628   5.855
10447POPC   GL162197  29.135  44.639   6.155
10447POPC   GL262198  29.253  44.746   6.155
10447POPC   C1A62199  29.178  44.657   6.455
10447POPC   D2A62200  29.120  44.656   6.755
10447POPC   C3A62201  29.119  44.660   7.055
10447POPC   C4A62202  29.193  44.615   7.355
10447POPC   C1B62203  29.323  44.839   6.455
10447POPC   C2B62204  29.358  44.778   6.755
10447POPC   C3B62205  29.377  44.826   7.055
10447POPC   C4B62206  29.312  44.802   7.355
10448POPC   NC362207   0.398  28.344   5.555
10448POPC   PO462208   0.468  28.371   5.855
10448POPC   GL162209   0.477  28.391   6.155
10448POPC   GL262210   0.363  28.300   6.155
10448POPC   C1A62211   0.472  28.347   6.455
10448POPC   D2A62212   0.408  28.346   6.755
10448POPC   C3A62213   0.485  28.376   7.055
10448POPC   C4A62214   0.440  28.389   7.355
10448POPC   C1B62215   0.207  28.245   6.455
10448POPC   C2B62216   0.251  28.318   6.755
10448POPC   C3B62217   0.208  28.285   7.055
10448POPC   C4B62218   0.199  28.230   7.355
10449POPC   NC362219  32.241  26.082   5.555
10449POPC   PO462220  32.228  26.068   5.855
10449POPC   GL162221  32.262  26.031   6.155
10449POPC   GL262222  32.289  25.894   6.155
10449POPC   C1A62223  32.295  26.078   6.455
10449POPC   D2A62224  32.297  26.029   6.755
10449POPC   C3A62225  32.284  25.993   7.055
10449POPC   C4A62226  32.212  26.007   7.355
10449POPC   C1B62227  32.298  25.847   6.455
10449POPC   C2B62228  32.296  25.780   6.755
10449POPC   C3B62229  32.287  25.805   7.055
10449POPC   C4B62230  32.314  25.832   7.355
10450POPC   NC362231  37.692   9.790   5.555
10450POPC   PO462232  37.722   9.753   5.855
10450POPC   GL162233  37.639   9.734   6.155
10450POPC   GL262234  37.776   9.813   6.155
10450POPC   C1A62235  37.655   9.795   6.455
10450POPC   D2A62236  37.679   9.788   6.755
10450POPC   C3A62237  37.704   9.723   7.055
10450POPC   C4A62238  37.675   9.725   7.355
10450POPC   C1B62239  37.897   9.835   6.455
10450POPC   C2B62240  37.908   9.820   6.755
10450POPC   C3B62241  37.906   9.770   7.055
10450POPC   C4B62242  37.960   9.778   7.355
10451POPC   NC362243  10.546  35.378   5.555
10451POPC   PO462244  10.501  35.373   5.855
10451POPC   GL162245  10.482  35.400   6.155
10451POPC   GL262246  10.498  35.270   6.155
10451POPC   C1A62247  10.569  35.370   6.455
10451POPC   D2A62248  10.530  35.331   6.755
10451POPC   C3A62249  10.539  35.389   7.055
10451POPC   C4A62250  10.539  35.371   7.355
10451POPC   C1B62251  10.385  35.186   6.455
10451POPC   C2B62252  10.385  35.157   6.755
10451POPC   C3B62253  10.375  35.170   7.055
10451POPC   C4B62254  10.353  35.108   7.355
10452POPC   NC362255   1.263  30.659   5.555
10452POPC   PO462256   1.228  30.673   5.855
10452POPC   GL162257   1.203  30.694   6.155
10452POPC   GL262258   1.097  30.609   6.155
10452POPC   C1A62259   1.244  30.649   6.455
10452POPC   D2A62260   1.166  30.668   6.755
10452POPC   C3A62261   1.212  30.694   7.055
10452POPC   C4A62262   1.204  30.704   7.355
10452POPC   C1B62263   0.999  30.598   6.455
10452POPC   C2B62264   1.010  30.612   6.755
10452POPC   C3B62265   1.020  30.659   7.055
10452POPC   C4B62266   0.979  30.644   7.355
10453POPC   NC362267  13.583   3.541   5.555
10453POPC   PO462268  13.675   3.542   5.855
10453POPC   GL162269  13.674   3.550   6.155
10453POPC   GL262270  13.549   3.602   6.155
10453POPC   C1A62271  13.612   3.559   6.455
10453POPC   D2A62272  13.626   3.512   6.755
10453POPC   C3A62273  13.613   3.537   7.055
10453POPC   C4A62274  13.642   3.561   7.355
10453POPC   C1B62275  13.435   3.668   6.455
10453POPC   C2B62276  13.424   3.699   6.755
10453POPC   C3B62277  13.409   3.728   7.055
10453POPC   C4B62278  13.434   3.681   7.355
10454POPC   NC362279  12.054  19.089   5.555
10454POPC   PO462280  12.027  19.041   5.855
10454POPC   GL162281  12.079  19.107   6.155
10454POPC   GL262282  12.053  18.925   6.155
10454POPC   C1A62283  12.096  19.038   6.455
10454POPC   D2A62284  12.076  19.016   6.755
10454POPC   C3A62285  12.052  19.107   7.055
10454POPC   C4A62286  12.096  19.022   7.355
10454POPC   C1B62287  12.019  18.829   6.455
10454POPC   C2B62288  12.052  18.857   6.755
10454POPC   C3B62289  12.000  18.808   7.055
10454POPC   C4B62290  12.081  18.827   7.355
10455POPC   NC362291  20.645  29.874   5.555
10455POPC   PO462292  20.584  29.895   5.855
10455POPC   GL162293  20.607  29.945   6.155
10455POPC   GL262294  20.586  29.853   6.155
10455POPC   C1A62295  20.648  29.928   6.455
10455POPC   D2A62296  20.639  29.898   6.755
10455POPC   C3A62297  20.629  29.949   7.055
10455POPC   C4A62298  20.638  29.911   7.355
10455POPC   C1B62299  20.514  29.639   6.455
10455POPC   C2B62300  20.538  29.731   6.755
10455POPC   C3B62301  20.547  29.714   7.055
10455POPC   C4B62302  20.494  29.692   7.355
10456POPC   NC362303  44.649  16.700   5.555
10456POPC   PO462304  44.681  16.705   5.855
10456POPC   GL162305  44.635  16.731   6.155
10456POPC   GL262306  44.578  16.799   6.155
10456POPC   C1A62307  44.668  16.727   6.455
10456POPC   D2A62308  44.636  16.720   6.755
10456POPC   C3A62309  44.621  16.748   7.055
10456POPC   C4A62310  44.694  16.765   7.355
10456POPC   C1B62311  44.501  16.920   6.455
10456POPC   C2B62312  44.571  16.953   6.755
10456POPC   C3B62313  44.552  16.969   7.055
10456POPC   C4B62314  44.563  16.946   7.355
10457POPC   NC362315  14.373   0.407   5.555
10457POPC   PO462316  14.368   0.413   5.855
10457POPC   GL162317  14.440   0.457   6.155
10457POPC   GL262318  14.364   0.325   6.155
10457POPC   C1A62319  14.443   0.438   6.455
10457POPC   D2A62320  14.432   0.414   6.755
10457POPC   C3A62321  14.377   0.404   7.055
10457POPC   C4A62322  14.360   0.456   7.355
10457POPC   C1B62323  14.313   0.192   6.455
10457POPC   C2B62324  14.319   0.187   6.755
10457POPC   C3B62325  14.264   0.234   7.055
10457POPC   C4B62326  14.305   0.204   7.355
10458POPC   NC362327  26.042  26.085   5.555
10458POPC   PO462328  26.050  26.065   5.855
10458POPC   GL162329  26.082  26.085   6.155
10458POPC   GL262330  26.149  26.053   6.155
10458POPC   C1A62331  26.080  26.073   6.455
10458POPC   D2A62332  26.084  26.040   6.755
10458POPC   C3A62333  26.019  26.081   7.055
10458POPC   C4A62334  26.081  26.065   7.355
10458POPC   C1B62335  26.233  26.140   6.455
10458POPC   C2B62336  26.332  26.057   6.755
10458POPC   C3B62337  26.270  26.060   7.055
10458POPC   C4B62338  26.279  26.120   7.355
10459POPC   NC362339  23.756  44.695   5.555
10459POPC   PO462340  23.708  44.640   5.855
10459POPC   GL162341  23.743  44.683   6.155
10459POPC   GL262342  23.703  44.559   6.155
10459POPC   C1A62343  23.721  44.627   6.455
10459POPC   D2A62344  23.711  44.629   6.755
10459POPC   C3A62345  23.697  44.710   7.055
10459POPC   C4A62346  23.696  44.674   7.355
10459POPC   C1B62347  23.668  44.410   6.455
10459POPC   C2B62348  23.696  44.457   6.755
10459POPC   C3B62349  23.706  44.418   7.055
10459POPC   C4B62350  23.693  44.366   7.355
10460POPC   NC362351  12.857   8.982   5.555
10460POPC   PO462352  12.860   9.019   5.855
10460POPC   GL162353  12.838   8.930   6.155
10460POPC   GL262354  12.945   9.058   6.155
10460POPC   C1A62355  12.818   8.999   6.455
10460POPC   D2A62356  12.883   8.998   6.755
10460POPC   C3A62357  12.854   8.940   7.055
10460POPC   C4A62358  12.815   8.982   7.355
10460POPC   C1B62359  12.989   9.202   6.455
10460POPC   C2B62360  12.969   9.233   6.755
10460POPC   C3B62361  12.954   9.243   7.055
10460POPC   C4B62362  12.960   9.176   7.355
10461POPC   NC362363  22.931   1.944   5.555
10461POPC   PO462364  22.891   1.953   5.855
10461POPC   GL162365  22.904   1.979   6.155
10461POPC   GL262366  23.050   1.961   6.155
10461POPC   C1A62367  22.960   1.979   6.455
10461POPC   D2A62368  22.908   2.018   6.755
10461POPC   C3A62369  22.918   1.980   7.055
10461POPC   C4A62370  22.977   1.968   7.355
10461POPC   C1B62371  23.191   2.049   6.455
10461POPC   C2B62372  23.209   2.031   6.755
10461POPC   C3B62373  23.214   2.034   7.055
10461POPC   C4B62374  23.140   2.033   7.355
10462POPC   NC362375  41.571  40.803   5.555
10462POPC   PO462376  41.534  40.786   5.855
10462POPC   GL162377  41.582  40.736   6.155
10462POPC   GL262378  41.455  40.925   6.155
10462POPC   C1A62379  41.570  40.751   6.455
10462POPC   D2A62380  41.577  40.804   6.755
10462POPC   C3A62381  41.565  40.787   7.055
10462POPC   C4A62382  41.567  40.743   7.355
10462POPC   C1B62383  41.392  40.938   6.455
10462POPC   C2B62384  41.355  40.955   6.755
10462POPC   C3B62385  41.432  40.945   7.055
10462POPC   C4B62386  41.404  40.957   7.355
10463POPC   NC362387  37.684  14.407   5.555
10463POPC   PO462388  37.713  14.415   5.855
10463POPC   GL162389  37.670  14.450   6.155
10463POPC   GL262390  37.736  14.486   6.155
10463POPC   C1A62391  37.678  14.440   6.455
10463POPC   D2A62392  37.645  14.447   6.755
10463POPC   C3A62393  37.712  14.443   7.055
10463POPC   C4A62394  37.676  14.441   7.355
10463POPC   C1B62395  37.763  14.678   6.455
10463POPC   C2B62396  37.714  14.630   6.755
10463POPC   C3B62397  37.802  14.663   7.055
10463POPC   C4B62398  37.776  14.683   7.355
10464POPC   NC362399  19.811  31.494   5.555
10464POPC   PO462400  19.870  31.519   5.855
10464POPC   GL162401  19.813  31.498   6.155
10464POPC   GL262402  19.733  31.337   6.155
10464POPC   C1A62403  19.797  31.451   6.455
10464POPC   D2A62404  19.797  31.477   6.755
10464POPC   C3A62405  19.833  31.491   7.055
10464POPC   C4A62406  19.800  31.517   7.355
10464POPC   C1B62407  19.691  31.306   6.455
10464POPC   C2B62408  19.740  31.225   6.755
10464POPC   C3B62409  19.683  31.241   7.055
10464POPC   C4B62410  19.747  31.268   7.355
10465POPC   NC362411  15.954  30.721   5.555
10465POPC   PO462412  15.972  30.697   5.855
10465POPC   GL162413  15.915  30.672   6.155
10465POPC   GL262414  15.821  30.743   6.155
10465POPC   C1A62415  15.912  30.656   6.455
10465POPC   D2A62416  15.944  30.699   6.755
10465POPC   C3A62417  15.908  30.650   7.055
10465POPC   C4A62418  15.951  30.731   7.355
10465POPC   C1B62419  15.781  30.830   6.455
10465POPC   C2B62420  15.778  30.887   6.755
10465POPC   C3B62421  15.721  30.894   7.055
10465POPC   C4B62422  15.780  30.813   7.355
10466POPC   NC362423   8.233   7.467   5.555
10466POPC   PO462424   8.232   7.417   5.855
10466POPC   GL162425   8.185   7.389   6.155
10466POPC   GL262426   8.096   7.509   6.155
10466POPC   C1A62427   8.195   7.391   6.455
10466POPC   D2A62428   8.245   7.438   6.755
10466POPC   C3A62429   8.225   7.452   7.055
10466POPC   C4A62430   8.210   7.421   7.355
10466POPC   C1B62431   7.968   7.583   6.455
10466POPC   C2B62432   7.959   7.581   6.755
10466POPC   C3B62433   7.954   7.563   7.055
10466POPC   C4B62434   7.933   7.574   7.355
10467POPC   NC362435  12.076  11.304   5.555
10467POPC   PO462436  12.065  11.293   5.855
10467POPC   GL162437  12.071  11.272   6.155
10467POPC   GL262438  12.075  11.442   6.155
10467POPC   C1A62439  12.069  11.251   6.455
10467POPC   D2A62440  12.123  11.263   6.755
10467POPC   C3A62441  12.111  11.329   7.055
10467POPC   C4A62442  12.101  11.326   7.355
10467POPC   C1B62443  12.020  11.568   6.455
10467POPC   C2B62444  11.976  11.530   6.755
10467POPC   C3B62445  12.020  11.541   7.055
10467POPC   C4B62446  12.023  11.532   7.355
10468POPC   NC362447  30.672   5.830   5.555
10468POPC   PO462448  30.744   5.845   5.855
10468POPC   GL162449  30.658   5.875   6.155
10468POPC   GL262450  30.803   5.798   6.155
10468POPC   C1A62451  30.733   5.886   6.455
10468POPC   D2A62452  30.665   5.854   6.755
10468POPC   C3A62453  30.716   5.876   7.055
10468POPC   C4A62454  30.689   5.822   7.355
10468POPC   C1B62455  30.952   5.750   6.455
10468POPC   C2B62456  30.944   5.752   6.755
10468POPC   C3B62457  30.948   5.737   7.055
10468POPC   C4B62458  30.859   5.683   7.355
10469POPC   NC362459  36.925   6.601   5.555
10469POPC   PO462460  36.916   6.678   5.855
10469POPC   GL162461  36.906   6.687   6.155
10469POPC   GL262462  36.746   6.637   6.155
10469POPC   C1A62463  36.918   6.633   6.455
10469POPC   D2A62464  36.911   6.671   6.755
10469POPC   C3A62465  36.950   6.607   7.055
10469POPC   C4A62466  36.916   6.632   7.355
10469POPC   C1B62467  36.656   6.635   6.455
10469POPC   C2B62468  36.606   6.670   6.755
10469POPC   C3B62469  36.615   6.663   7.055
10469POPC   C4B62470  36.680   6.641   7.355
10470POPC   NC362471   5.853  20.575   5.555
10470POPC   PO462472   5.906  20.660   5.855
10470POPC   GL162473   5.910  20.601   6.155
10470POPC   GL262474   5.836  20.702   6.155
10470POPC   C1A62475   5.905  20.607   6.455
10470POPC   D2A62476   5.896  20.600   6.755
10470POPC   C3A62477   5.820  20.639   7.055
10470POPC   C4A62478   5.840  20.562   7.355
10470POPC   C1B62479   5.876  20.864   6.455
10470POPC   C2B62480   5.872  20.845   6.755
10470POPC   C3B62481   5.823  20.836   7.055
10470POPC   C4B62482   5.857  20.886   7.355
10471POPC   NC362483  12.049   6.604   5.555
10471POPC   PO462484  12.042   6.682   5.855
10471POPC   GL162485  12.053   6.688   6.155
10471POPC   GL262486  11.941   6.693   6.155
10471POPC   C1A62487  12.038   6.596   6.455
10471POPC   D2A62488  12.049   6.638   6.755
10471POPC   C3A62489  12.072   6.648   7.055
10471POPC   C4A62490  12.090   6.642   7.355
10471POPC   C1B62491  11.813   6.732   6.455
10471POPC   C2B62492  11.855   6.745   6.755
10471POPC   C3B62493  11.830   6.717   7.055
10471POPC   C4B62494  11.840   6.745   7.355
10472POPC   NC362495   5.832  30.730   5.555
10472POPC   PO462496   5.913  30.665   5.855
10472POPC   GL162497   5.826  30.731   6.155
10472POPC   GL262498   5.935  30.649   6.155
10472POPC   C1A62499   5.861  30.655   6.455
10472POPC   D2A62500   5.853  30.736   6.755
10472POPC   C3A62501   5.889  30.699   7.055
10472POPC   C4A62502   5.889  30.683   7.355
10472POPC   C1B62503   6.067  30.553   6.455
10472POPC   C2B62504   6.072  30.602   6.755
10472POPC   C3B62505   6.052  30.557   7.055
10472POPC   C4B62506   6.104  30.645   7.355
10473POPC   NC362507   3.546   5.837   5.555
10473POPC   PO462508   3.503   5.873   5.855
10473POPC   GL162509   3.504   5.869   6.155
10473POPC   GL262510   3.616   5.753   6.155
10473POPC   C1A62511   3.585   5.831   6.455
10473POPC   D2A62512   3.549   5.868   6.755
10473POPC   C3A62513   3.589   5.823   7.055
10473POPC   C4A62514   3.508   5.893   7.355
10473POPC   C1B62515   3.746   5.667   6.455
10473POPC   C2B62516   3.755   5.707   6.755
10473POPC   C3B62517   3.757   5.661   7.055
10473POPC   C4B62518   3.683   5.682   7.355
10474POPC   NC362519   5.897  34.603   5.555
10474POPC   PO462520   5.865  34.544   5.855
10474POPC   GL162521   5.912  34.542   6.155
10474POPC   GL262522   5.850  34.485   6.155
10474POPC   C1A62523   5.917  34.593   6.455
10474POPC   D2A62524   5.875  34.544   6.755
10474POPC   C3A62525   5.853  34.532   7.055
10474POPC   C4A62526   5.839  34.625   7.355
10474POPC   C1B62527   5.806  34.346   6.455
10474POPC   C2B62528   5.791  34.327   6.755
10474POPC   C3B62529   5.768  34.365   7.055
10474POPC   C4B62530   5.799  34.377   7.355
10475POPC   NC362531  28.377   5.124   5.555
10475POPC   PO462532  28.390   5.141   5.855
10475POPC   GL162533  28.348   5.056   6.155
10475POPC   GL262534  28.383   4.932   6.155
10475POPC   C1A62535  28.366   5.104   6.455
10475POPC   D2A62536  28.331   5.077   6.755
10475POPC   C3A62537  28.386   5.095   7.055
10475POPC   C4A62538  28.402   5.121   7.355
10475POPC   C1B62539  28.498   4.860   6.455
10475POPC   C2B62540  28.445   4.872   6.755
10475POPC   C3B62541  28.512   4.884   7.055
10475POPC   C4B62542  28.525   4.836   7.355
10476POPC   NC362543  26.057  20.611   5.555
10476POPC   PO462544  26.008  20.649   5.855
10476POPC   GL162545  26.022  20.650   6.155
10476POPC   GL262546  26.147  20.526   6.155
10476POPC   C1A62547  26.047  20.561   6.455
10476POPC   D2A62548  26.077  20.647   6.755
10476POPC   C3A62549  26.047  20.650   7.055
10476POPC   C4A62550  26.022  20.602   7.355
10476POPC   C1B62551  26.234  20.415   6.455
10476POPC   C2B62552  26.219  20.403   6.755
10476POPC   C3B62553  26.283  20.485   7.055
10476POPC   C4B62554  26.232  20.408   7.355
10477POPC   NC362555   1.263   3.526   5.555
10477POPC   PO462556   1.193   3.513   5.855
10477POPC   GL162557   1.223   3.500   6.155
10477POPC   GL262558   1.340   3.513   6.155
10477POPC   C1A62559   1.260   3.521   6.455
10477POPC   D2A62560   1.253   3.542   6.755
10477POPC   C3A62561   1.217   3.534   7.055
10477POPC   C4A62562   1.172   3.548   7.355
10477POPC   C1B62563   1.462   3.587   6.455
10477POPC   C2B62564   1.420   3.495   6.755
10477POPC   C3B62565   1.447   3.543   7.055
10477POPC   C4B62566   1.426   3.577   7.355
10478POPC   NC362567  14.384   1.173   5.555
10478POPC   PO462568  14.387   1.254   5.855
10478POPC   GL162569  14.354   1.200   6.155
10478POPC   GL262570  14.238   1.165   6.155
10478POPC   C1A62571  14.430   1.245   6.455
10478POPC   D2A62572  14.415   1.219   6.755
10478POPC   C3A62573  14.359   1.187   7.055
10478POPC   C4A62574  14.369   1.169   7.355
10478POPC   C1B62575  14.139   1.164   6.455
10478POPC   C2B62576  14.147   1.171   6.755
10478POPC   C3B62577  14.198   1.203   7.055
10478POPC   C4B62578  14.179   1.222   7.355
10479POPC   NC362579  32.248  16.763   5.555
10479POPC   PO462580  32.232  16.725   5.855
10479POPC   GL162581  32.277  16.765   6.155
10479POPC   GL262582  32.352  16.799   6.155
10479POPC   C1A62583  32.296  16.687   6.455
10479POPC   D2A62584  32.204  16.748   6.755
10479POPC   C3A62585  32.241  16.696   7.055
10479POPC   C4A62586  32.274  16.756   7.355
10479POPC   C1B62587  32.529  16.794   6.455
10479POPC   C2B62588  32.506  16.830   6.755
10479POPC   C3B62589  32.453  16.805   7.055
10479POPC   C4B62590  32.444  16.829   7.355
10480POPC   NC362591   5.130  43.930   5.555
10480POPC   PO462592   5.074  43.837   5.855
10480POPC   GL162593   5.121  43.900   6.155
10480POPC   GL262594   5.061  43.957   6.155
10480POPC   C1A62595   5.106  43.842   6.455
10480POPC   D2A62596   5.113  43.856   6.755
10480POPC   C3A62597   5.056  43.916   7.055
10480POPC   C4A62598   5.103  43.866   7.355
10480POPC   C1B62599   5.004  44.081   6.455
10480POPC   C2B62600   5.016  44.113   6.755
10480POPC   C3B62601   5.050  44.165   7.055
10480POPC   C4B62602   4.972  44.153   7.355
10481POPC   NC362603  26.795  19.098   5.555
10481POPC   PO462604  26.804  19.013   5.855
10481POPC   GL162605  26.820  19.026   6.155
10481POPC   GL262606  26.728  19.143   6.155
10481POPC   C1A62607  26.865  19.066   6.455
10481POPC   D2A62608  26.821  19.015   6.755
10481POPC   C3A62609  26.795  19.038   7.055
10481POPC   C4A62610  26.768  19.087   7.355
10481POPC   C1B62611  26.700  19.245   6.455
10481POPC   C2B62612  26.710  19.258   6.755
10481POPC   C3B62613  26.708  19.299   7.055
10481POPC   C4B62614  26.706  19.280   7.355
10482POPC   NC362615   8.189  44.695   5.555
10482POPC   PO462616   8.222  44.674   5.855
10482POPC   GL162617   8.180  44.631   6.155
10482POPC   GL262618   8.136  44.546   6.155
10482POPC   C1A62619   8.205  44.685   6.455
10482POPC   D2A62620   8.183  44.636   6.755
10482POPC   C3A62621   8.235  44.634   7.055
10482POPC   C4A62622   8.212  44.679   7.355
10482POPC   C1B62623   8.138  44.444   6.455
10482POPC   C2B62624   8.111  44.379   6.755
10482POPC   C3B62625   8.176  44.447   7.055
10482POPC   C4B62626   8.159  44.457   7.355
10483POPC   NC362627   9.751  14.400   5.555
10483POPC   PO462628   9.795  14.406   5.855
10483POPC   GL162629   9.703  14.450   6.155
10483POPC   GL262630   9.891  14.321   6.155
10483POPC   C1A62631   9.784  14.384   6.455
10483POPC   D2A62632   9.743  14.413   6.755
10483POPC   C3A62633   9.702  14.413   7.055
10483POPC   C4A62634   9.756  14.365   7.355
10483POPC   C1B62635  10.012  14.338   6.455
10483POPC   C2B62636   9.980  14.261   6.755
10483POPC   C3B62637  10.019  14.304   7.055
10483POPC   C4B62638  10.007  14.346   7.355
10484POPC   NC362639  36.904  33.825   5.555
10484POPC   PO462640  36.916  33.847   5.855
10484POPC   GL162641  36.858  33.789   6.155
10484POPC   GL262642  36.824  33.862   6.155
10484POPC   C1A62643  36.896  33.803   6.455
10484POPC   D2A62644  36.886  33.797   6.755
10484POPC   C3A62645  36.878  33.795   7.055
10484POPC   C4A62646  36.921  33.809   7.355
10484POPC   C1B62647  36.630  33.879   6.455
10484POPC   C2B62648  36.691  33.868   6.755
10484POPC   C3B62649  36.649  33.867   7.055
10484POPC   C4B62650  36.684  33.856   7.355
10485POPC   NC362651  30.681   3.550   5.555
10485POPC   PO462652  30.679   3.570   5.855
10485POPC   GL162653  30.740   3.580   6.155
10485POPC   GL262654  30.769   3.531   6.155
10485POPC   C1A62655  30.691   3.565   6.455
10485POPC   D2A62656  30.736   3.495   6.755
10485POPC   C3A62657  30.729   3.547   7.055
10485POPC   C4A62658  30.674   3.552   7.355
10485POPC   C1B62659  30.970   3.569   6.455
10485POPC   C2B62660  30.976   3.644   6.755
10485POPC   C3B62661  30.906   3.572   7.055
10485POPC   C4B62662  30.965   3.650   7.355
10486POPC   NC362663  32.232  33.838   5.555
10486POPC   PO462664  32.271  33.849   5.855
10486POPC   GL162665  32.288  33.808   6.155
10486POPC   GL262666  32.369  33.918   6.155
10486POPC   C1A62667  32.221  33.838   6.455
10486POPC   D2A62668  32.205  33.750   6.755
10486POPC   C3A62669  32.207  33.755   7.055
10486POPC   C4A62670  32.267  33.787   7.355
10486POPC   C1B62671  32.461  33.918   6.455
10486POPC   C2B62672  32.447  34.013   6.755
10486POPC   C3B62673  32.457  33.976   7.055
10486POPC   C4B62674  32.412  33.972   7.355
10487POPC   NC362675   1.262  27.549   5.555
10487POPC   PO462676   1.245  27.578   5.855
10487POPC   GL162677   1.258  27.545   6.155
10487POPC   GL262678   1.263  27.489   6.155
10487POPC   C1A62679   1.207  27.583   6.455
10487POPC   D2A62680   1.229  27.594   6.755
10487POPC   C3A62681   1.218  27.622   7.055
10487POPC   C4A62682   1.169  27.591   7.355
10487POPC   C1B62683   1.300  27.396   6.455
10487POPC   C2B62684   1.307  27.372   6.755
10487POPC   C3B62685   1.339  27.372   7.055
10487POPC   C4B62686   1.312  27.338   7.355
10488POPC   NC362687   2.720   8.177   5.555
10488POPC   PO462688   2.786   8.238   5.855
10488POPC   GL162689   2.743   8.187   6.155
10488POPC   GL262690   2.735   8.038   6.155
10488POPC   C1A62691   2.770   8.192   6.455
10488POPC   D2A62692   2.720   8.151   6.755
10488POPC   C3A62693   2.763   8.238   7.055
10488POPC   C4A62694   2.755   8.242   7.355
10488POPC   C1B62695   2.755   7.908   6.455
10488POPC   C2B62696   2.686   7.956   6.755
10488POPC   C3B62697   2.698   7.992   7.055
10488POPC   C4B62698   2.724   7.951   7.355
10489POPC   NC362699  27.567  31.454   5.555
10489POPC   PO462700  27.587  31.508   5.855
10489POPC   GL162701  27.563  31.490   6.155
10489POPC   GL262702  27.607  31.388   6.155
10489POPC   C1A62703  27.588  31.520   6.455
10489POPC   D2A62704  27.584  31.496   6.755
10489POPC   C3A62705  27.583  31.508   7.055
10489POPC   C4A62706  27.576  31.447   7.355
10489POPC   C1B62707  27.744  31.276   6.455
10489POPC   C2B62708  27.680  31.233   6.755
10489POPC   C3B62709  27.653  31.233   7.055
10489POPC   C4B62710  27.673  31.197   7.355
10490POPC   NC362711  28.410   2.755   5.555
10490POPC   PO462712  28.359   2.775   5.855
10490POPC   GL162713  28.320   2.764   6.155
10490POPC   GL262714  28.376   2.653   6.155
10490POPC   C1A62715  28.391   2.719   6.455
10490POPC   D2A62716  28.361   2.735   6.755
10490POPC   C3A62717  28.328   2.807   7.055
10490POPC   C4A62718  28.337   2.730   7.355
10490POPC   C1B62719  28.346   2.487   6.455
10490POPC   C2B62720  28.352   2.519   6.755
10490POPC   C3B62721  28.361   2.486   7.055
10490POPC   C4B62722  28.391   2.557   7.355
10491POPC   NC362723  21.367  29.892   5.555
10491POPC   PO462724  21.401  29.912   5.855
10491POPC   GL162725  21.425  29.905   6.155
10491POPC   GL262726  21.298  29.922   6.155
10491POPC   C1A62727  21.347  29.921   6.455
10491POPC   D2A62728  21.338  29.891   6.755
10491POPC   C3A62729  21.407  29.899   7.055
10491POPC   C4A62730  21.400  29.936   7.355
10491POPC   C1B62731  21.179  29.865   6.455
10491POPC   C2B62732  21.137  29.787   6.755
10491POPC   C3B62733  21.136  29.854   7.055
10491POPC   C4B62734  21.170  29.852   7.355
10492POPC   NC362735   8.199  26.017   5.555
10492POPC   PO462736   8.204  26.014   5.855
10492POPC   GL162737   8.218  26.083   6.155
10492POPC   GL262738   8.306  26.070   6.155
10492POPC   C1A62739   8.237  26.007   6.455
10492POPC   D2A62740   8.193  26.066   6.755
10492POPC   C3A62741   8.197  26.073   7.055
10492POPC   C4A62742   8.231  25.994   7.355
10492POPC   C1B62743   8.404  26.015   6.455
10492POPC   C2B62744   8.453  26.040   6.755
10492POPC   C3B62745   8.472  25.994   7.055
10492POPC   C4B62746   8.455  26.010   7.355
10493POPC   NC362747  12.078  22.205   5.555
10493POPC   PO462748  12.115  22.123   5.855
10493POPC   GL162749  12.083  22.143   6.155
10493POPC   GL262750  12.003  22.243   6.155
10493POPC   C1A62751  12.083  22.200   6.455
10493POPC   D2A62752  12.096  22.135   6.755
10493POPC   C3A62753  12.089  22.175   7.055
10493POPC   C4A62754  12.064  22.128   7.355
10493POPC   C1B62755  11.846  22.338   6.455
10493POPC   C2B62756  11.914  22.335   6.755
10493POPC   C3B62757  11.832  22.302   7.055
10493POPC   C4B62758  11.839  22.254   7.355
10494POPC   NC362759  31.501   1.215   5.555
10494POPC   PO462760  31.447   1.174   5.855
10494POPC   GL162761  31.462   1.234   6.155
10494POPC   GL262762  31.442   1.333   6.155
10494POPC   C1A62763  31.451   1.218   6.455
10494POPC   D2A62764  31.484   1.245   6.755
10494POPC   C3A62765  31.466   1.235   7.055
10494POPC   C4A62766  31.479   1.210   7.355
10494POPC   C1B62767  31.498   1.503   6.455
10494POPC   C2B62768  31.500   1.428   6.755
10494POPC   C3B62769  31.477   1.446   7.055
10494POPC   C4B62770  31.479   1.426   7.355
10495POPC   NC362771  42.305  26.772   5.555
10495POPC   PO462772  42.318  26.824   5.855
10495POPC   GL162773  42.335  26.835   6.155
10495POPC   GL262774  42.264  26.945   6.155
10495POPC   C1A62775  42.355  26.773   6.455
10495POPC   D2A62776  42.374  26.778   6.755
10495POPC   C3A62777  42.307  26.865   7.055
10495POPC   C4A62778  42.297  26.846   7.355
10495POPC   C1B62779  42.206  27.015   6.455
10495POPC   C2B62780  42.215  26.985   6.755
10495POPC   C3B62781  42.190  27.070   7.055
10495POPC   C4B62782  42.185  27.017   7.355
10496POPC   NC362783  33.817   9.021   5.555
10496POPC   PO462784  33.798   9.022   5.855
10496POPC   GL162785  33.847   8.928   6.155
10496POPC   GL262786  33.858   8.896   6.155
10496POPC   C1A62787  33.806   8.948   6.455
10496POPC   D2A62788  33.764   8.930   6.755
10496POPC   C3A62789  33.762   8.973   7.055
10496POPC   C4A62790  33.823   9.006   7.355
10496POPC   C1B62791  33.908   8.812   6.455
10496POPC   C2B62792  33.921   8.723   6.755
10496POPC   C3B62793  33.930   8.769   7.055
10496POPC   C4B62794  33.949   8.739   7.355
10497POPC   NC362795  37.721  13.657   5.555
10497POPC   PO462796  37.659  13.655   5.855
10497POPC   GL162797  37.716  13.625   6.155
10497POPC   GL262798  37.590  13.567   6.155
10497POPC   C1A62799  37.725  13.587   6.455
10497POPC   D2A62800  37.689  13.595   6.755
10497POPC   C3A62801  37.630  13.615   7.055
10497POPC   C4A62802  37.708  13.624   7.355
10497POPC   C1B62803  37.463  13.580   6.455
10497POPC   C2B62804  37.473  13.577   6.755
10497POPC   C3B62805  37.434  13.536   7.055
10497POPC   C4B62806  37.454  13.539   7.355
10498POPC   NC362807   7.437  19.859   5.555
10498POPC   PO462808   7.470  19.832   5.855
10498POPC   GL162809   7.391  19.856   6.155
10498POPC   GL262810   7.466  19.996   6.155
10498POPC   C1A62811   7.427  19.869   6.455
10498POPC   D2A62812   7.398  19.864   6.755
10498POPC   C3A62813   7.373  19.881   7.055
10498POPC   C4A62814   7.450  19.849   7.355
10498POPC   C1B62815   7.512  20.036   6.455
10498POPC   C2B62816   7.525  20.059   6.755
10498POPC   C3B62817   7.523  20.077   7.055
10498POPC   C4B62818   7.537  20.049   7.355
10499POPC   NC362819  39.190  20.651   5.555
10499POPC   PO462820  39.274  20.643   5.855
10499POPC   GL162821  39.220  20.611   6.155
10499POPC   GL262822  39.392  20.515   6.155
10499POPC   C1A62823  39.229  20.619   6.455
10499POPC   D2A62824  39.222  20.573   6.755
10499POPC   C3A62825  39.191  20.565   7.055
10499POPC   C4A62826  39.227  20.634   7.355
10499POPC   C1B62827  39.405  20.491   6.455
10499POPC   C2B62828  39.442  20.486   6.755
10499POPC   C3B62829  39.494  20.473   7.055
10499POPC   C4B62830  39.489  20.527   7.355
10500POPC   NC362831  39.212   0.466   5.555
10500POPC   PO462832  39.203   0.470   5.855
10500POPC   GL162833  39.209   0.397   6.155
10500POPC   GL262834  39.132   0.372   6.155
10500POPC   C1A62835  39.242   0.428   6.455
10500POPC   D2A62836  39.250   0.481   6.755
10500POPC   C3A62837  39.217   0.422   7.055
10500POPC   C4A62838  39.204   0.485   7.355
10500POPC   C1B62839  39.143   0.178   6.455
10500POPC   C2B62840  39.084   0.231   6.755
10500POPC   C3B62841  39.166   0.212   7.055
10500POPC   C4B62842  39.072   0.201   7.355
10501POPC   NC362843  38.454  11.307   5.555
10501POPC   PO462844  38.481  11.258   5.855
10501POPC   GL162845  38.476  11.262   6.155
10501POPC   GL262846  38.340  11.305   6.155
10501POPC   C1A62847  38.423  11.294   6.455
10501POPC   D2A62848  38.466  11.303   6.755
10501POPC   C3A62849  38.417  11.322   7.055
10501POPC   C4A62850  38.475  11.270   7.355
10501POPC   C1B62851  38.179  11.357   6.455
10501POPC   C2B62852  38.223  11.320   6.755
10501POPC   C3B62853  38.224  11.365   7.055
10501POPC   C4B62854  38.241  11.318   7.355
10502POPC   NC362855   7.399  12.053   5.555
10502POPC   PO462856   7.379  12.081   5.855
10502POPC   GL162857   7.415  12.044   6.155
10502POPC   GL262858   7.304  12.157   6.155
10502POPC   C1A62859   7.426  12.035   6.455
10502POPC   D2A62860   7.379  12.066   6.755
10502POPC   C3A62861   7.430  12.073   7.055
10502POPC   C4A62862   7.391  12.079   7.355
10502POPC   C1B62863   7.234  12.269   6.455
10502POPC   C2B62864   7.301  12.304   6.755
10502POPC   C3B62865   7.229  12.279   7.055
10502POPC   C4B62866   7.287  12.299   7.355
10503POPC   NC362867   9.796  25.299   5.555
10503POPC   PO462868   9.734  25.274   5.855
10503POPC   GL162869   9.797  25.244   6.155
10503POPC   GL262870   9.864  25.237   6.155
10503POPC   C1A62871   9.714  25.283   6.455
10503POPC   D2A62872   9.727  25.309   6.755
10503POPC   C3A62873   9.790  25.225   7.055
10503POPC   C4A62874   9.705  25.291   7.355
10503POPC   C1B62875   9.961  25.192   6.455
10503POPC   C2B62876  10.005  25.222   6.755
10503POPC   C3B62877   9.955  25.233   7.055
10503POPC   C4B62878   9.948  25.195   7.355
10504POPC   NC362879  38.486  41.520   5.555
10504POPC   PO462880  38.414  41.557   5.855
10504POPC   GL162881  38.499  41.606   6.155
10504POPC   GL262882  38.598  41.457   6.155
10504POPC   C1A62883  38.434  41.589   6.455
10504POPC   D2A62884  38.419  41.597   6.755
10504POPC   C3A62885  38.416  41.559   7.055
10504POPC   C4A62886  38.414  41.598   7.355
10504POPC   C1B62887  38.668  41.436   6.455
10504POPC   C2B62888  38.669  41.390   6.755
10504POPC   C3B62889  38.625  41.413   7.055
10504POPC   C4B62890  38.616  41.343   7.355
10505POPC   NC362891   1.958  25.230   5.555
10505POPC   PO462892   2.017  25.261   5.855
10505POPC   GL162893   2.008  25.269   6.155
10505POPC   GL262894   1.920  25.288   6.155
10505POPC   C1A62895   1.988  25.259   6.455
10505POPC   D2A62896   2.029  25.241   6.755
10505POPC   C3A62897   2.028  25.273   7.055
10505POPC   C4A62898   2.029  25.254   7.355
10505POPC   C1B62899   1.774  25.376   6.455
10505POPC   C2B62900   1.794  25.393   6.755
10505POPC   C3B62901   1.800  25.347   7.055
10505POPC   C4B62902   1.788  25.349   7.355
10506POPC   NC362903  39.234  40.018   5.555
10506POPC   PO462904  39.268  40.020   5.855
10506POPC   GL162905  39.251  40.028   6.155
10506POPC   GL262906  39.153  40.112   6.155
10506POPC   C1A62907  39.202  39.965   6.455
10506POPC   D2A62908  39.182  39.986   6.755
10506POPC   C3A62909  39.257  39.959   7.055
10506POPC   C4A62910  39.265  40.024   7.355
10506POPC   C1B62911  39.120  40.280   6.455
10506POPC   C2B62912  39.181  40.286   6.755
10506POPC   C3B62913  39.155  40.207   7.055
10506POPC   C4B62914  39.115  40.235   7.355
10507POPC   NC362915  36.902   8.168   5.555
10507POPC   PO462916  36.878   8.170   5.855
10507POPC   GL162917  36.887   8.205   6.155
10507POPC   GL262918  36.806   8.166   6.155
10507POPC   C1A62919  36.870   8.223   6.455
10507POPC   D2A62920  36.875   8.188   6.755
10507POPC   C3A62921  36.859   8.217   7.055
10507POPC   C4A62922  36.927   8.208   7.355
10507POPC   C1B62923  36.669   8.150   6.455
10507POPC   C2B62924  36.662   8.136   6.755
10507POPC   C3B62925  36.659   8.128   7.055
10507POPC   C4B62926  36.672   8.115   7.355
10508POPC   NC362927   5.121  10.545   5.555
10508POPC   PO462928   5.079  10.554   5.855
10508POPC   GL162929   5.087  10.535   6.155
10508POPC   GL262930   5.231  10.494   6.155
10508POPC   C1A62931   5.125  10.541   6.455
10508POPC   D2A62932   5.102  10.487   6.755
10508POPC   C3A62933   5.055  10.552   7.055
10508POPC   C4A62934   5.064  10.571   7.355
10508POPC   C1B62935   5.351  10.492   6.455
10508POPC   C2B62936   5.306  10.534   6.755
10508POPC   C3B62937   5.311  10.455   7.055
10508POPC   C4B62938   5.339  10.489   7.355
10509POPC   NC362939  39.250  28.418   5.555
10509POPC   PO462940  39.232  28.384   5.855
10509POPC   GL162941  39.240  28.320   6.155
10509POPC   GL262942  39.374  28.479   6.155
10509POPC   C1A62943  39.279  28.337   6.455
10509POPC   D2A62944  39.240  28.356   6.755
10509POPC   C3A62945  39.272  28.378   7.055
10509POPC   C4A62946  39.213  28.323   7.355
10509POPC   C1B62947  39.410  28.490   6.455
10509POPC   C2B62948  39.473  28.479   6.755
10509POPC   C3B62949  39.455  28.457   7.055
10509POPC   C4B62950  39.428  28.508   7.355
10510POPC   NC362951  29.100  16.703   5.555
10510POPC   PO462952  29.186  16.691   5.855
10510POPC   GL162953  29.189  16.747   6.155
10510POPC   GL262954  29.221  16.632   6.155
10510POPC   C1A62955  29.140  16.752   6.455
10510POPC   D2A62956  29.171  16.698   6.755
10510POPC   C3A62957  29.110  16.719   7.055
10510POPC   C4A62958  29.103  16.741   7.355
10510POPC   C1B62959  29.301  16.491   6.455
10510POPC   C2B62960  29.237  16.503   6.755
10510POPC   C3B62961  29.275  16.488   7.055
10510POPC   C4B62962  29.262  16.535   7.355
10511POPC   NC362963   1.171   6.684   5.555
10511POPC   PO462964   1.204   6.627   5.855
10511POPC   GL162965   1.199   6.687   6.155
10511POPC   GL262966   1.217   6.775   6.155
10511POPC   C1A62967   1.224   6.693   6.455
10511POPC   D2A62968   1.236   6.659   6.755
10511POPC   C3A62969   1.168   6.616   7.055
10511POPC   C4A62970   1.248   6.651   7.355
10511POPC   C1B62971   1.287   6.912   6.455
10511POPC   C2B62972   1.308   6.868   6.755
10511POPC   C3B62973   1.268   6.875   7.055
10511POPC   C4B62974   1.290   6.919   7.355
10512POPC   NC362975  19.018  11.255   5.555
10512POPC   PO462976  19.023  11.277   5.855
10512POPC   GL162977  19.094  11.346   6.155
10512POPC   GL262978  18.940  11.322   6.155
10512POPC   C1A62979  19.070  11.322   6.455
10512POPC   D2A62980  19.033  11.294   6.755
10512POPC   C3A62981  19.088  11.273   7.055
10512POPC   C4A62982  19.090  11.312   7.355
10512POPC   C1B62983  18.794  11.344   6.455
10512POPC   C2B62984  18.794  11.389   6.755
10512POPC   C3B62985  18.820  11.378   7.055
10512POPC   C4B62986  18.852  11.423   7.355
10513POPC   NC362987  27.561  17.496   5.555
10513POPC   PO462988  27.629  17.518   5.855
10513POPC   GL162989  27.590  17.481   6.155
10513POPC   GL262990  27.517  17.521   6.155
10513POPC   C1A62991  27.640  17.494   6.455
10513POPC   D2A62992  27.548  17.537   6.755
10513POPC   C3A62993  27.624  17.553   7.055
10513POPC   C4A62994  27.585  17.485   7.355
10513POPC   C1B62995  27.378  17.529   6.455
10513POPC   C2B62996  27.306  17.520   6.755
10513POPC   C3B62997  27.346  17.487   7.055
10513POPC   C4B62998  27.343  17.559   7.355
10514POPC   NC362999  24.451   7.391   5.555
10514POPC   PO463000  24.451   7.407   5.855
10514POPC   GL163001  24.516   7.388   6.155
10514POPC   GL263002  24.438   7.300   6.155
10514POPC   C1A63003  24.517   7.429   6.455
10514POPC   D2A63004  24.472   7.386   6.755
10514POPC   C3A63005  24.538   7.373   7.055
10514POPC   C4A63006  24.526   7.391   7.355
10514POPC   C1B63007  24.465   7.177   6.455
10514POPC   C2B63008  24.518   7.157   6.755
10514POPC   C3B63009  24.439   7.152   7.055
10514POPC   C4B63010  24.460   7.122   7.355
10515POPC   NC363011  37.667   8.233   5.555
10515POPC   PO463012  37.687   8.244   5.855
10515POPC   GL163013  37.717   8.157   6.155
10515POPC   GL263014  37.597   8.027   6.155
10515POPC   C1A63015  37.728   8.189   6.455
10515POPC   D2A63016  37.706   8.218   6.755
10515POPC   C3A63017  37.636   8.192   7.055
10515POPC   C4A63018  37.711   8.159   7.355
10515POPC   C1B63019  37.658   7.949   6.455
10515POPC   C2B63020  37.569   7.976   6.755
10515POPC   C3B63021  37.641   7.942   7.055
10515POPC   C4B63022  37.633   7.928   7.355
10516POPC   NC363023  13.617  40.034   5.555
10516POPC   PO463024  13.610  40.051   5.855
10516POPC   GL163025  13.622  40.007   6.155
10516POPC   GL263026  13.627  40.148   6.155
10516POPC   C1A63027  13.612  39.966   6.455
10516POPC   D2A63028  13.657  39.960   6.755
10516POPC   C3A63029  13.635  40.006   7.055
10516POPC   C4A63030  13.677  39.977   7.355
10516POPC   C1B63031  13.745  40.292   6.455
10516POPC   C2B63032  13.754  40.269   6.755
10516POPC   C3B63033  13.732  40.290   7.055
10516POPC   C4B63034  13.708  40.242   7.355
10517POPC   NC363035  10.564  34.595   5.555
10517POPC   PO463036  10.537  34.605   5.855
10517POPC   GL163037  10.499  34.557   6.155
10517POPC   GL263038  10.408  34.633   6.155
10517POPC   C1A63039  10.515  34.565   6.455
10517POPC   D2A63040  10.474  34.579   6.755
10517POPC   C3A63041  10.503  34.541   7.055
10517POPC   C4A63042  10.513  34.578   7.355
10517POPC   C1B63043  10.267  34.635   6.455
10517POPC   C2B63044  10.247  34.680   6.755
10517POPC   C3B63045  10.264  34.704   7.055
10517POPC   C4B63046  10.268  34.629   7.355
10518POPC   NC363047  40.767  17.525   5.555
10518POPC   PO463048  40.804  17.519   5.855
10518POPC   GL163049  40.805  17.474   6.155
10518POPC   GL263050  40.701  17.462   6.155
10518POPC   C1A63051  40.742  17.509   6.455
10518POPC   D2A63052  40.795  17.537   6.755
10518POPC   C3A63053  40.792  17.554   7.055
10518POPC   C4A63054  40.812  17.493   7.355
10518POPC   C1B63055  40.590  17.313   6.455
10518POPC   C2B63056  40.621  17.297   6.755
10518POPC   C3B63057  40.654  17.318   7.055
10518POPC   C4B63058  40.664  17.343   7.355
10519POPC   NC363059  28.412  20.608   5.555
10519POPC   PO463060  28.333  20.599   5.855
10519POPC   GL163061  28.383  20.644   6.155
10519POPC   GL263062  28.499  20.650   6.155
10519POPC   C1A63063  28.393  20.597   6.455
10519POPC   D2A63064  28.375  20.561   6.755
10519POPC   C3A63065  28.400  20.597   7.055
10519POPC   C4A63066  28.381  20.566   7.355
10519POPC   C1B63067  28.592  20.579   6.455
10519POPC   C2B63068  28.580  20.603   6.755
10519POPC   C3B63069  28.582  20.563   7.055
10519POPC   C4B63070  28.656  20.579   7.355
10520POPC   NC363071  36.118  34.545   5.555
10520POPC   PO463072  36.080  34.584   5.855
10520POPC   GL163073  36.082  34.613   6.155
10520POPC   GL263074  36.278  34.458   6.155
10520POPC   C1A63075  36.128  34.574   6.455
10520POPC   D2A63076  36.146  34.558   6.755
10520POPC   C3A63077  36.103  34.595   7.055
10520POPC   C4A63078  36.120  34.558   7.355
10520POPC   C1B63079  36.377  34.445   6.455
10520POPC   C2B63080  36.379  34.394   6.755
10520POPC   C3B63081  36.321  34.389   7.055
10520POPC   C4B63082  36.286  34.396   7.355
10521POPC   NC363083   5.838  36.943   5.555
10521POPC   PO463084   5.906  36.861   5.855
10521POPC   GL163085   5.845  36.867   6.155
10521POPC   GL263086   5.905  36.994   6.155
10521POPC   C1A63087   5.894  36.951   6.455
10521POPC   D2A63088   5.885  36.917   6.755
10521POPC   C3A63089   5.901  36.878   7.055
10521POPC   C4A63090   5.867  36.949   7.355
10521POPC   C1B63091   6.014  37.086   6.455
10521POPC   C2B63092   5.939  37.093   6.755
10521POPC   C3B63093   6.013  37.114   7.055
10521POPC   C4B63094   5.963  37.181   7.355
10522POPC   NC363095  17.459  35.303   5.555
10522POPC   PO463096  17.542  35.379   5.855
10522POPC   GL163097  17.527  35.350   6.155
10522POPC   GL263098  17.395  35.378   6.155
10522POPC   C1A63099  17.493  35.332   6.455
10522POPC   D2A63100  17.537  35.336   6.755
10522POPC   C3A63101  17.519  35.333   7.055
10522POPC   C4A63102  17.541  35.314   7.355
10522POPC   C1B63103  17.208  35.400   6.455
10522POPC   C2B63104  17.300  35.386   6.755
10522POPC   C3B63105  17.266  35.336   7.055
10522POPC   C4B63106  17.226  35.329   7.355
10523POPC   NC363107  35.381  44.665   5.555
10523POPC   PO463108  35.356  44.669   5.855
10523POPC   GL163109  35.337  44.640   6.155
10523POPC   GL263110  35.332  44.490   6.155
10523POPC   C1A63111  35.312  44.695   6.455
10523POPC   D2A63112  35.332  44.660   6.755
10523POPC   C3A63113  35.382  44.642   7.055
10523POPC   C4A63114  35.354  44.690   7.355
10523POPC   C1B63115  35.288  44.422   6.455
10523POPC   C2B63116  35.349  44.443   6.755
10523POPC   C3B63117  35.332  44.457   7.055
10523POPC   C4B63118  35.359  44.426   7.355
10524POPC   NC363119  16.758  12.898   5.555
10524POPC   PO463120  16.754  12.893   5.855
10524POPC   GL163121  16.735  12.881   6.155
10524POPC   GL263122  16.856  12.937   6.155
10524POPC   C1A63123  16.686  12.826   6.455
10524POPC   D2A63124  16.751  12.838   6.755
10524POPC   C3A63125  16.762  12.847   7.055
10524POPC   C4A63126  16.764  12.901   7.355
10524POPC   C1B63127  16.943  13.062   6.455
10524POPC   C2B63128  16.911  13.051   6.755
10524POPC   C3B63129  16.899  13.046   7.055
10524POPC   C4B63130  16.907  13.004   7.355
10525POPC   NC363131  36.904  25.229   5.555
10525POPC   PO463132  36.946  25.259   5.855
10525POPC   GL163133  36.898  25.232   6.155
10525POPC   GL263134  36.813  25.148   6.155
10525POPC   C1A63135  36.888  25.240   6.455
10525POPC   D2A63136  36.895  25.223   6.755
10525POPC   C3A63137  36.943  25.238   7.055
10525POPC   C4A63138  36.859  25.274   7.355
10525POPC   C1B63139  36.734  25.076   6.455
10525POPC   C2B63140  36.744  25.093   6.755
10525POPC   C3B63141  36.740  25.073   7.055
10525POPC   C4B63142  36.719  25.094   7.355
10526POPC   NC363143   9.772  38.470   5.555
10526POPC   PO463144   9.701  38.439   5.855
10526POPC   GL163145   9.783  38.413   6.155
10526POPC   GL263146   9.683  38.405   6.155
10526POPC   C1A63147   9.760  38.409   6.455
10526POPC   D2A63148   9.788  38.417   6.755
10526POPC   C3A63149   9.731  38.420   7.055
10526POPC   C4A63150   9.739  38.421   7.355
10526POPC   C1B63151   9.488  38.297   6.455
10526POPC   C2B63152   9.494  38.326   6.755
10526POPC   C3B63153   9.530  38.351   7.055
10526POPC   C4B63154   9.518  38.348   7.355
10527POPC   NC363155  19.050  34.602   5.555
10527POPC   PO463156  19.101  34.576   5.855
10527POPC   GL163157  19.025  34.566   6.155
10527POPC   GL263158  18.996  34.562   6.155
10527POPC   C1A63159  19.079  34.600   6.455
10527POPC   D2A63160  19.103  34.609   6.755
10527POPC   C3A63161  19.039  34.532   7.055
10527POPC   C4A63162  19.088  34.622   7.355
10527POPC   C1B63163  18.822  34.422   6.455
10527POPC   C2B63164  18.851  34.438   6.755
10527POPC   C3B63165  18.878  34.429   7.055
10527POPC   C4B63166  18.807  34.416   7.355
10528POPC   NC363167  23.683  33.799   5.555
10528POPC   PO463168  23.702  33.838   5.855
10528POPC   GL163169  23.735  33.832   6.155
10528POPC   GL263170  23.818  33.945   6.155
10528POPC   C1A63171  23.747  33.771   6.455
10528POPC   D2A63172  23.702  33.780   6.755
10528POPC   C3A63173  23.735  33.839   7.055
10528POPC   C4A63174  23.703  33.796   7.355
10528POPC   C1B63175  23.802  33.973   6.455
10528POPC   C2B63176  23.851  33.983   6.755
10528POPC   C3B63177  23.800  33.974   7.055
10528POPC   C4B63178  23.810  33.985   7.355
10529POPC   NC363179  29.109  28.375   5.555
10529POPC   PO463180  29.159  28.368   5.855
10529POPC   GL163181  29.154  28.355   6.155
10529POPC   GL263182  29.106  28.444   6.155
10529POPC   C1A63183  29.159  28.381   6.455
10529POPC   D2A63184  29.147  28.390   6.755
10529POPC   C3A63185  29.143  28.330   7.055
10529POPC   C4A63186  29.177  28.382   7.355
10529POPC   C1B63187  29.152  28.623   6.455
10529POPC   C2B63188  29.105  28.591   6.755
10529POPC   C3B63189  29.135  28.597   7.055
10529POPC   C4B63190  29.127  28.579   7.355
10530POPC   NC363191  21.355  11.339   5.555
10530POPC   PO463192  21.346  11.350   5.855
10530POPC   GL163193  21.378  11.253   6.155
10530POPC   GL263194  21.262  11.418   6.155
10530POPC   C1A63195  21.388  11.342   6.455
10530POPC   D2A63196  21.399  11.292   6.755
10530POPC   C3A63197  21.373  11.296   7.055
10530POPC   C4A63198  21.415  11.302   7.355
10530POPC   C1B63199  21.194  11.498   6.455
10530POPC   C2B63200  21.227  11.524   6.755
10530POPC   C3B63201  21.217  11.440   7.055
10530POPC   C4B63202  21.209  11.506   7.355
10531POPC   NC363203  17.555   8.181   5.555
10531POPC   PO463204  17.482   8.201   5.855
10531POPC   GL163205  17.506   8.169   6.155
10531POPC   GL263206  17.563   8.349   6.155
10531POPC   C1A63207  17.518   8.162   6.455
10531POPC   D2A63208  17.491   8.150   6.755
10531POPC   C3A63209  17.506   8.230   7.055
10531POPC   C4A63210  17.512   8.166   7.355
10531POPC   C1B63211  17.569   8.433   6.455
10531POPC   C2B63212  17.659   8.439   6.755
10531POPC   C3B63213  17.650   8.407   7.055
10531POPC   C4B63214  17.614   8.458   7.355
10532POPC   NC363215   2.769  21.394   5.555
10532POPC   PO463216   2.746  21.411   5.855
10532POPC   GL163217   2.753  21.423   6.155
10532POPC   GL263218   2.772  21.470   6.155
10532POPC   C1A63219   2.720  21.397   6.455
10532POPC   D2A63220   2.774  21.371   6.755
10532POPC   C3A63221   2.729  21.367   7.055
10532POPC   C4A63222   2.791  21.357   7.355
10532POPC   C1B63223   2.660  21.669   6.455
10532POPC   C2B63224   2.645  21.658   6.755
10532POPC   C3B63225   2.658  21.580   7.055
10532POPC   C4B63226   2.634  21.657   7.355
10533POPC   NC363227  22.161  33.830   5.555
10533POPC   PO463228  22.147  33.751   5.855
10533POPC   GL163229  22.148  33.789   6.155
10533POPC   GL263230  22.066  33.835   6.155
10533POPC   C1A63231  22.134  33.817   6.455
10533POPC   D2A63232  22.147  33.834   6.755
10533POPC   C3A63233  22.142  33.810   7.055
10533POPC   C4A63234  22.144  33.844   7.355
10533POPC   C1B63235  21.944  33.875   6.455
10533POPC   C2B63236  21.905  33.929   6.755
10533POPC   C3B63237  21.955  33.845   7.055
10533POPC   C4B63238  21.945  33.863   7.355
10534POPC   NC363239   9.772  44.612   5.555
10534POPC   PO463240   9.752  44.707   5.855
10534POPC   GL163241   9.756  44.642   6.155
10534POPC   GL263242   9.805  44.507   6.155
10534POPC   C1A63243   9.756  44.615   6.455
10534POPC   D2A63244   9.727  44.624   6.755
10534POPC   C3A63245   9.773  44.620   7.055
10534POPC   C4A63246   9.746  44.694   7.355
10534POPC   C1B63247   9.855  44.467   6.455
10534POPC   C2B63248   9.874  44.428   6.755
10534POPC   C3B63249   9.832  44.460   7.055
10534POPC   C4B63250   9.890  44.489   7.355
10535POPC   NC363251   2.741  24.455   5.555
10535POPC   PO463252   2.759  24.447   5.855
10535POPC   GL163253   2.791  24.463   6.155
10535POPC   GL263254   2.743  24.615   6.155
10535POPC   C1A63255   2.794  24.499   6.455
10535POPC   D2A63256   2.755  24.494   6.755
10535POPC   C3A63257   2.739  24.492   7.055
10535POPC   C4A63258   2.744  24.507   7.355
10535POPC   C1B63259   2.682  24.713   6.455
10535POPC   C2B63260   2.728  24.681   6.755
10535POPC   C3B63261   2.707  24.746   7.055
10535POPC   C4B63262   2.657  24.727   7.355
10536POPC   NC363263  17.480   7.440   5.555
10536POPC   PO463264  17.507   7.459   5.855
10536POPC   GL163265  17.545   7.457   6.155
10536POPC   GL263266  17.418   7.479   6.155
10536POPC   C1A63267  17.473   7.403   6.455
10536POPC   D2A63268  17.458   7.463   6.755
10536POPC   C3A63269  17.463   7.406   7.055
10536POPC   C4A63270  17.489   7.378   7.355
10536POPC   C1B63271  17.403   7.580   6.455
10536POPC   C2B63272  17.311   7.649   6.755
10536POPC   C3B63273  17.365   7.655   7.055
10536POPC   C4B63274  17.324   7.573   7.355
10537POPC   NC363275   9.794  28.356   5.555
10537POPC   PO463276   9.737  28.386   5.855
10537POPC   GL163277   9.777  28.389   6.155
10537POPC   GL263278   9.647  28.473   6.155
10537POPC   C1A63279   9.757  28.341   6.455
10537POPC   D2A63280   9.759  28.419   6.755
10537POPC   C3A63281   9.753  28.373   7.055
10537POPC   C4A63282   9.762  28.358   7.355
10537POPC   C1B63283   9.501  28.480   6.455
10537POPC   C2B63284   9.557  28.532   6.755
10537POPC   C3B63285   9.521  28.540   7.055
10537POPC   C4B63286   9.510  28.530   7.355
10538POPC   NC363287  43.153   3.583   5.555
10538POPC   PO463288  43.065   3.573   5.855
10538POPC   GL163289  43.128   3.587   6.155
10538POPC   GL263290  43.137   3.656   6.155
10538POPC   C1A63291  43.121   3.496   6.455
10538POPC   D2A63292  43.096   3.557   6.755
10538POPC   C3A63293  43.069   3.553   7.055
10538POPC   C4A63294  43.145   3.587   7.355
10538POPC   C1B63295  43.251   3.730   6.455
10538POPC   C2B63296  43.190   3.805   6.755
10538POPC   C3B63297  43.236   3.778   7.055
10538POPC   C4B63298  43.242   3.787   7.355
10539POPC   NC363299  18.320   3.542   5.555
10539POPC   PO463300  18.245   3.567   5.855
10539POPC   GL163301  18.304   3.524   6.155
10539POPC   GL263302  18.193   3.680   6.155
10539POPC   C1A63303  18.246   3.511   6.455
10539POPC   D2A63304  18.323   3.581   6.755
10539POPC   C3A63305  18.292   3.588   7.055
10539POPC   C4A63306  18.265   3.526   7.355
10539POPC   C1B63307  18.210   3.766   6.455
10539POPC   C2B63308  18.179   3.744   6.755
10539POPC   C3B63309  18.240   3.805   7.055
10539POPC   C4B63310  18.189   3.738   7.355
10540POPC   NC363311   4.277   8.951   5.555
10540POPC   PO463312   4.351   8.936   5.855
10540POPC   GL163313   4.302   8.946   6.155
10540POPC   GL263314   4.440   9.019   6.155
10540POPC   C1A63315   4.315   9.014   6.455
10540POPC   D2A63316   4.279   8.964   6.755
10540POPC   C3A63317   4.297   8.935   7.055
10540POPC   C4A63318   4.273   8.937   7.355
10540POPC   C1B63319   4.557   9.067   6.455
10540POPC   C2B63320   4.573   9.025   6.755
10540POPC   C3B63321   4.505   9.046   7.055
10540POPC   C4B63322   4.586   9.066   7.355
10541POPC   NC363323  33.007  13.641   5.555
10541POPC   PO463324  32.990  13.583   5.855
10541POPC   GL163325  33.022  13.608   6.155
10541POPC   GL263326  33.149  13.654   6.155
10541POPC   C1A63327  33.023  13.605   6.455
10541POPC   D2A63328  33.065  13.649   6.755
10541POPC   C3A63329  33.057  13.624   7.055
10541POPC   C4A63330  32.977  13.625   7.355
10541POPC   C1B63331  33.322  13.567   6.455
10541POPC   C2B63332  33.276  13.611   6.755
10541POPC   C3B63333  33.242  13.595   7.055
10541POPC   C4B63334  33.228  13.600   7.355
10542POPC   NC363335  43.098   0.429   5.555
10542POPC   PO463336  43.085   0.402   5.855
10542POPC   GL163337  43.135   0.445   6.155
10542POPC   GL263338  43.021   0.352   6.155
10542POPC   C1A63339  43.127   0.412   6.455
10542POPC   D2A63340  43.094   0.413   6.755
10542POPC   C3A63341  43.113   0.435   7.055
10542POPC   C4A63342  43.154   0.482   7.355
10542POPC   C1B63343  42.974   0.295   6.455
10542POPC   C2B63344  42.951   0.241   6.755
10542POPC   C3B63345  42.939   0.264   7.055
10542POPC   C4B63346  42.908   0.218   7.355
10543POPC   NC363347  21.419  40.769   5.555
10543POPC   PO463348  21.435  40.813   5.855
10543POPC   GL163349  21.404  40.761   6.155
10543POPC   GL263350  21.501  40.726   6.155
10543POPC   C1A63351  21.414  40.795   6.455
10543POPC   D2A63352  21.430  40.760   6.755
10543POPC   C3A63353  21.351  40.812   7.055
10543POPC   C4A63354  21.424  40.814   7.355
10543POPC   C1B63355  21.649  40.715   6.455
10543POPC   C2B63356  21.579  40.671   6.755
10543POPC   C3B63357  21.663  40.733   7.055
10543POPC   C4B63358  21.653  40.754   7.355
10544POPC   NC363359   1.986  32.228   5.555
10544POPC   PO463360   2.009  32.240   5.855
10544POPC   GL163361   1.957  32.214   6.155
10544POPC   GL263362   2.082  32.251   6.155
10544POPC   C1A63363   2.026  32.284   6.455
10544POPC   D2A63364   2.035  32.261   6.755
10544POPC   C3A63365   2.035  32.211   7.055
10544POPC   C4A63366   1.985  32.203   7.355
10544POPC   C1B63367   2.252  32.272   6.455
10544POPC   C2B63368   2.226  32.267   6.755
10544POPC   C3B63369   2.236  32.252   7.055
10544POPC   C4B63370   2.226  32.209   7.355
10545POPC   NC363371   0.409   2.800   5.555
10545POPC   PO463372   0.485   2.799   5.855
10545POPC   GL163373   0.411   2.795   6.155
10545POPC   GL263374   0.347   2.776   6.155
10545POPC   C1A63375   0.404   2.796   6.455
10545POPC   D2A63376   0.467   2.747   6.755
10545POPC   C3A63377   0.396   2.790   7.055
10545POPC   C4A63378   0.484   2.811   7.355
10545POPC   C1B63379   0.237   2.726   6.455
10545POPC   C2B63380   0.167   2.745   6.755
10545POPC   C3B63381   0.188   2.697   7.055
10545POPC   C4B63382   0.188   2.707   7.355
10546POPC   NC363383  39.961  43.085   5.555
10546POPC   PO463384  40.046  43.159   5.855
10546POPC   GL163385  39.969  43.094   6.155
10546POPC   GL263386  40.116  43.062   6.155
10546POPC   C1A63387  39.993  43.101   6.455
10546POPC   D2A63388  39.988  43.114   6.755
10546POPC   C3A63389  40.021  43.146   7.055
10546POPC   C4A63390  40.052  43.132   7.355
10546POPC   C1B63391  40.259  43.138   6.455
10546POPC   C2B63392  40.216  43.071   6.755
10546POPC   C3B63393  40.301  43.143   7.055
10546POPC   C4B63394  40.294  43.080   7.355
10547POPC   NC363395  40.826  14.359   5.555
10547POPC   PO463396  40.819  14.365   5.855
10547POPC   GL163397  40.736  14.432   6.155
10547POPC   GL263398  40.875  14.282   6.155
10547POPC   C1A63399  40.822  14.442   6.455
10547POPC   D2A63400  40.771  14.430   6.755
10547POPC   C3A63401  40.830  14.397   7.055
10547POPC   C4A63402  40.785  14.375   7.355
10547POPC   C1B63403  40.893  14.246   6.455
10547POPC   C2B63404  40.926  14.245   6.755
10547POPC   C3B63405  40.918  14.243   7.055
10547POPC   C4B63406  40.926  14.183   7.355
10548POPC   NC363407  37.677  32.240   5.555
10548POPC   PO463408  37.701  32.241   5.855
10548POPC   GL163409  37.722  32.285   6.155
10548POPC   GL263410  37.610  32.327   6.155
10548POPC   C1A63411  37.638  32.238   6.455
10548POPC   D2A63412  37.672  32.293   6.755
10548POPC   C3A63413  37.722  32.281   7.055
10548POPC   C4A63414  37.709  32.208   7.355
10548POPC   C1B63415  37.608  32.523   6.455
10548POPC   C2B63416  37.619  32.516   6.755
10548POPC   C3B63417  37.569  32.427   7.055
10548POPC   C4B63418  37.610  32.476   7.355
10549POPC   NC363419  23.759  13.610   5.555
10549POPC   PO463420  23.706  13.641   5.855
10549POPC   GL163421  23.703  13.643   6.155
10549POPC   GL263422  23.625  13.669   6.155
10549POPC   C1A63423  23.725  13.636   6.455
10549POPC   D2A63424  23.761  13.591   6.755
10549POPC   C3A63425  23.711  13.618   7.055
10549POPC   C4A63426  23.715  13.670   7.355
10549POPC   C1B63427  23.464  13.770   6.455
10549POPC   C2B63428  23.554  13.752   6.755
10549POPC   C3B63429  23.519  13.782   7.055
10549POPC   C4B63430  23.464  13.723   7.355
10550POPC   NC363431  18.301  32.290   5.555
10550POPC   PO463432  18.249  32.254   5.855
10550POPC   GL163433  18.312  32.293   6.155
10550POPC   GL263434  18.409  32.163   6.155
10550POPC   C1A63435  18.325  32.257   6.455
10550POPC   D2A63436  18.259  32.216   6.755
10550POPC   C3A63437  18.248  32.279   7.055
10550POPC   C4A63438  18.302  32.199   7.355
10550POPC   C1B63439  18.481  32.043   6.455
10550POPC   C2B63440  18.453  32.076   6.755
10550POPC   C3B63441  18.505  32.100   7.055
10550POPC   C4B63442  18.422  32.085   7.355
10551POPC   NC363443  18.311  11.333   5.555
10551POPC   PO463444  18.267  11.298   5.855
10551POPC   GL163445  18.291  11.290   6.155
10551POPC   GL263446  18.225  11.427   6.155
10551POPC   C1A63447  18.295  11.275   6.455
10551POPC   D2A63448  18.236  11.251   6.755
10551POPC   C3A63449  18.280  11.344   7.055
10551POPC   C4A63450  18.293  11.299   7.355
10551POPC   C1B63451  18.220  11.588   6.455
10551POPC   C2B63452  18.243  11.557   6.755
10551POPC   C3B63453  18.296  11.516   7.055
10551POPC   C4B63454  18.250  11.522   7.355
10552POPC   NC363455  21.391   7.463   5.555
10552POPC   PO463456  21.353   7.425   5.855
10552POPC   GL163457  21.397   7.396   6.155
10552POPC   GL263458  21.368   7.333   6.155
10552POPC   C1A63459  21.386   7.402   6.455
10552POPC   D2A63460  21.355   7.423   6.755
10552POPC   C3A63461  21.373   7.406   7.055
10552POPC   C4A63462  21.350   7.452   7.355
10552POPC   C1B63463  21.239   7.174   6.455
10552POPC   C2B63464  21.307   7.250   6.755
10552POPC   C3B63465  21.227   7.183   7.055
10552POPC   C4B63466  21.259   7.161   7.355
10553POPC   NC363467  15.920  14.361   5.555
10553POPC   PO463468  15.973  14.447   5.855
10553POPC   GL163469  15.977  14.406   6.155
10553POPC   GL263470  16.073  14.358   6.155
10553POPC   C1A63471  15.984  14.360   6.455
10553POPC   D2A63472  15.956  14.357   6.755
10553POPC   C3A63473  15.954  14.425   7.055
10553POPC   C4A63474  15.973  14.371   7.355
10553POPC   C1B63475  16.172  14.358   6.455
10553POPC   C2B63476  16.145  14.328   6.755
10553POPC   C3B63477  16.147  14.263   7.055
10553POPC   C4B63478  16.215  14.296   7.355
10554POPC   NC363479  36.878   0.419   5.555
10554POPC   PO463480  36.912   0.446   5.855
10554POPC   GL163481  36.881   0.388   6.155
10554POPC   GL263482  36.821   0.442   6.155
10554POPC   C1A63483  36.924   0.388   6.455
10554POPC   D2A63484  36.912   0.458   6.755
10554POPC   C3A63485  36.871   0.484   7.055
10554POPC   C4A63486  36.935   0.407   7.355
10554POPC   C1B63487  36.685   0.420   6.455
10554POPC   C2B63488  36.628   0.455   6.755
10554POPC   C3B63489  36.651   0.418   7.055
10554POPC   C4B63490  36.700   0.431   7.355
10555POPC   NC363491  40.811  18.319   5.555
10555POPC   PO463492  40.749  18.305   5.855
10555POPC   GL163493  40.739  18.309   6.155
10555POPC   GL263494  40.767  18.443   6.155
10555POPC   C1A63495  40.738  18.244   6.455
10555POPC   D2A63496  40.778  18.242   6.755
10555POPC   C3A63497  40.823  18.316   7.055
10555POPC   C4A63498  40.747  18.327   7.355
10555POPC   C1B63499  40.772  18.558   6.455
10555POPC   C2B63500  40.814  18.541   6.755
10555POPC   C3B63501  40.801  18.522   7.055
10555POPC   C4B63502  40.776  18.545   7.355
10556POPC   NC363503  29.905  32.221   5.555
10556POPC   PO463504  29.936  32.280   5.855
10556POPC   GL163505  29.908  32.201   6.155
10556POPC   GL263506  29.979  32.373   6.155
10556POPC   C1A63507  29.949  32.256   6.455
10556POPC   D2A63508  29.955  32.219   6.755
10556POPC   C3A63509  29.911  32.262   7.055
10556POPC   C4A63510  29.956  32.215   7.355
10556POPC   C1B63511  29.958  32.473   6.455
10556POPC   C2B63512  29.913  32.539   6.755
10556POPC   C3B63513  29.929  32.456   7.055
10556POPC   C4B63514  29.971  32.487   7.355
10557POPC   NC363515   9.786  41.516   5.555
10557POPC   PO463516   9.778  41.581   5.855
10557POPC   GL163517   9.788  41.584   6.155
10557POPC   GL263518   9.598  41.567   6.155
10557POPC   C1A63519   9.724  41.519   6.455
10557POPC   D2A63520   9.710  41.518   6.755
10557POPC   C3A63521   9.709  41.540   7.055
10557POPC   C4A63522   9.765  41.539   7.355
10557POPC   C1B63523   9.500  41.546   6.455
10557POPC   C2B63524   9.524  41.541   6.755
10557POPC   C3B63525   9.522  41.604   7.055
10557POPC   C4B63526   9.520  41.578   7.355
10558POPC   NC363527  40.827  15.967   5.555
10558POPC   PO463528  40.758  15.977   5.855
10558POPC   GL163529  40.762  15.932   6.155
10558POPC   GL263530  40.894  16.084   6.155
10558POPC   C1A63531  40.791  15.999   6.455
10558POPC   D2A63532  40.815  15.963   6.755
10558POPC   C3A63533  40.803  15.979   7.055
10558POPC   C4A63534  40.792  15.975   7.355
10558POPC   C1B63535  40.913  16.134   6.455
10558POPC   C2B63536  40.885  16.163   6.755
10558POPC   C3B63537  40.908  16.136   7.055
10558POPC   C4B63538  40.932  16.124   7.355
10559POPC   NC363539  29.969  43.067   5.555
10559POPC   PO463540  29.946  43.076   5.855
10559POPC   GL163541  29.940  43.098   6.155
10559POPC   GL263542  29.763  43.188   6.155
10559POPC   C1A63543  29.938  43.115   6.455
10559POPC   D2A63544  29.895  43.122   6.755
10559POPC   C3A63545  29.893  43.106   7.055
10559POPC   C4A63546  29.923  43.075   7.355
10559POPC   C1B63547  29.673  43.210   6.455
10559POPC   C2B63548  29.674  43.272   6.755
10559POPC   C3B63549  29.698  43.197   7.055
10559POPC   C4B63550  29.728  43.192   7.355
10560POPC   NC363551  24.471  30.684   5.555
10560POPC   PO463552  24.498  30.717   5.855
10560POPC   GL163553  24.468  30.687   6.155
10560POPC   GL263554  24.403  30.843   6.155
10560POPC   C1A63555  24.476  30.734   6.455
10560POPC   D2A63556  24.485  30.665   6.755
10560POPC   C3A63557  24.502  30.723   7.055
10560POPC   C4A63558  24.483  30.668   7.355
10560POPC   C1B63559  24.425  30.943   6.455
10560POPC   C2B63560  24.422  30.904   6.755
10560POPC   C3B63561  24.417  30.914   7.055
10560POPC   C4B63562  24.402  30.911   7.355
10561POPC   NC363563  15.178  25.274   5.555
10561POPC   PO463564  15.216  25.314   5.855
10561POPC   GL163565  15.173  25.289   6.155
10561POPC   GL263566  15.317  25.242   6.155
10561POPC   C1A63567  15.223  25.264   6.455
10561POPC   D2A63568  15.220  25.308   6.755
10561POPC   C3A63569  15.207  25.258   7.055
10561POPC   C4A63570  15.176  25.296   7.355
10561POPC   C1B63571  15.441  25.193   6.455
10561POPC   C2B63572  15.416  25.166   6.755
10561POPC   C3B63573  15.363  25.175   7.055
10561POPC   C4B63574  15.444  25.178   7.355
10562POPC   NC363575  14.390   4.296   5.555
10562POPC   PO463576  14.389   4.359   5.855
10562POPC   GL163577  14.367   4.343   6.155
10562POPC   GL263578  14.267   4.307   6.155
10562POPC   C1A63579  14.380   4.297   6.455
10562POPC   D2A63580  14.361   4.292   6.755
10562POPC   C3A63581  14.436   4.321   7.055
10562POPC   C4A63582  14.389   4.327   7.355
10562POPC   C1B63583  14.181   4.246   6.455
10562POPC   C2B63584  14.138   4.295   6.755
10562POPC   C3B63585  14.108   4.277   7.055
10562POPC   C4B63586  14.190   4.257   7.355
10563POPC   NC363587  19.876  28.401   5.555
10563POPC   PO463588  19.822  28.399   5.855
10563POPC   GL163589  19.851  28.403   6.155
10563POPC   GL263590  19.893  28.472   6.155
10563POPC   C1A63591  19.787  28.406   6.455
10563POPC   D2A63592  19.793  28.405   6.755
10563POPC   C3A63593  19.860  28.377   7.055
10563POPC   C4A63594  19.850  28.352   7.355
10563POPC   C1B63595  20.057  28.490   6.455
10563POPC   C2B63596  20.019  28.465   6.755
10563POPC   C3B63597  20.072  28.531   7.055
10563POPC   C4B63598  20.017  28.555   7.355
10564POPC   NC363599  24.520  15.908   5.555
10564POPC   PO463600  24.452  15.929   5.855
10564POPC   GL163601  24.535  15.989   6.155
10564POPC   GL263602  24.589  15.901   6.155
10564POPC   C1A63603  24.533  15.957   6.455
10564POPC   D2A63604  24.494  15.922   6.755
10564POPC   C3A63605  24.517  15.934   7.055
10564POPC   C4A63606  24.464  15.991   7.355
10564POPC   C1B63607  24.731  15.945   6.455
10564POPC   C2B63608  24.718  15.913   6.755
10564POPC   C3B63609  24.702  15.958   7.055
10564POPC   C4B63610  24.710  15.981   7.355
10565POPC   NC363611   8.994   5.128   5.555
10565POPC   PO463612   9.011   5.118   5.855
10565POPC   GL163613   8.971   5.084   6.155
10565POPC   GL263614   8.902   5.149   6.155
10565POPC   C1A63615   8.970   5.129   6.455
10565POPC   D2A63616   8.929   5.087   6.755
10565POPC   C3A63617   9.008   5.080   7.055
10565POPC   C4A63618   8.994   5.062   7.355
10565POPC   C1B63619   8.722   5.250   6.455
10565POPC   C2B63620   8.744   5.219   6.755
10565POPC   C3B63621   8.743   5.240   7.055
10565POPC   C4B63622   8.760   5.200   7.355
10566POPC   NC363623  35.365  20.581   5.555
10566POPC   PO463624  35.352  20.571   5.855
10566POPC   GL163625  35.376  20.581   6.155
10566POPC   GL263626  35.444  20.623   6.155
10566POPC   C1A63627  35.373  20.607   6.455
10566POPC   D2A63628  35.362  20.606   6.755
10566POPC   C3A63629  35.383  20.647   7.055
10566POPC   C4A63630  35.328  20.639   7.355
10566POPC   C1B63631  35.573  20.671   6.455
10566POPC   C2B63632  35.545  20.756   6.755
10566POPC   C3B63633  35.621  20.763   7.055
10566POPC   C4B63634  35.533  20.713   7.355
10567POPC   NC363635   3.566  36.915   5.555
10567POPC   PO463636   3.591  36.886   5.855
10567POPC   GL163637   3.536  36.911   6.155
10567POPC   GL263638   3.440  36.924   6.155
10567POPC   C1A63639   3.586  36.894   6.455
10567POPC   D2A63640   3.542  36.940   6.755
10567POPC   C3A63641   3.576  36.916   7.055
10567POPC   C4A63642   3.577  36.947   7.355
10567POPC   C1B63643   3.267  36.999   6.455
10567POPC   C2B63644   3.311  36.981   6.755
10567POPC   C3B63645   3.350  37.052   7.055
10567POPC   C4B63646   3.307  37.031   7.355
10568POPC   NC363647  26.050   4.356   5.555
10568POPC   PO463648  26.060   4.296   5.855
10568POPC   GL163649  25.998   4.342   6.155
10568POPC   GL263650  26.188   4.270   6.155
10568POPC   C1A63651  26.091   4.292   6.455
10568POPC   D2A63652  26.059   4.267   6.755
10568POPC   C3A63653  26.084   4.342   7.055
10568POPC   C4A63654  26.045   4.310   7.355
10568POPC   C1B63655  26.205   4.214   6.455
10568POPC   C2B63656  26.294   4.181   6.755
10568POPC   C3B63657  26.245   4.184   7.055
10568POPC   C4B63658  26.266   4.135   7.355
10569POPC   NC363659  43.139  11.269   5.555
10569POPC   PO463660  43.104  11.268   5.855
10569POPC   GL163661  43.081  11.293   6.155
10569POPC   GL263662  43.155  11.241   6.155
10569POPC   C1A63663  43.119  11.319   6.455
10569POPC   D2A63664  43.147  11.253   6.755
10569POPC   C3A63665  43.093  11.327   7.055
10569POPC   C4A63666  43.119  11.264   7.355
10569POPC   C1B63667  43.285  11.107   6.455
10569POPC   C2B63668  43.289  11.089   6.755
10569POPC   C3B63669  43.333  11.176   7.055
10569POPC   C4B63670  43.248  11.177   7.355
10570POPC   NC363671  40.776   1.206   5.555
10570POPC   PO463672  40.827   1.170   5.855
10570POPC   GL163673  40.783   1.250   6.155
10570POPC   GL263674  40.646   1.136   6.155
10570POPC   C1A63675  40.798   1.262   6.455
10570POPC   D2A63676  40.752   1.182   6.755
10570POPC   C3A63677  40.733   1.228   7.055
10570POPC   C4A63678  40.739   1.203   7.355
10570POPC   C1B63679  40.500   1.118   6.455
10570POPC   C2B63680  40.578   1.164   6.755
10570POPC   C3B63681  40.551   1.195   7.055
10570POPC   C4B63682  40.519   1.131   7.355
10571POPC   NC363683  26.782  29.871   5.555
10571POPC   PO463684  26.797  29.904   5.855
10571POPC   GL163685  26.801  29.887   6.155
10571POPC   GL263686  26.670  29.873   6.155
10571POPC   C1A63687  26.857  29.944   6.455
10571POPC   D2A63688  26.851  29.904   6.755
10571POPC   C3A63689  26.830  29.920   7.055
10571POPC   C4A63690  26.813  29.962   7.355
10571POPC   C1B63691  26.573  29.929   6.455
10571POPC   C2B63692  26.523  29.935   6.755
10571POPC   C3B63693  26.581  29.853   7.055
10571POPC   C4B63694  26.572  29.858   7.355
10572POPC   NC363695  29.883   6.634   5.555
10572POPC   PO463696  29.928   6.681   5.855
10572POPC   GL163697  29.878   6.601   6.155
10572POPC   GL263698  29.895   6.793   6.155
10572POPC   C1A63699  29.930   6.597   6.455
10572POPC   D2A63700  29.939   6.662   6.755
10572POPC   C3A63701  29.970   6.671   7.055
10572POPC   C4A63702  29.917   6.622   7.355
10572POPC   C1B63703  29.945   6.939   6.455
10572POPC   C2B63704  29.955   6.934   6.755
10572POPC   C3B63705  29.915   6.868   7.055
10572POPC   C4B63706  29.937   6.911   7.355
10573POPC   NC363707  41.560  38.434   5.555
10573POPC   PO463708  41.600  38.409   5.855
10573POPC   GL163709  41.543  38.449   6.155
10573POPC   GL263710  41.426  38.347   6.155
10573POPC   C1A63711  41.598  38.451   6.455
10573POPC   D2A63712  41.575  38.429   6.755
10573POPC   C3A63713  41.572  38.453   7.055
10573POPC   C4A63714  41.565  38.419   7.355
10573POPC   C1B63715  41.397  38.304   6.455
10573POPC   C2B63716  41.396  38.352   6.755
10573POPC   C3B63717  41.349  38.291   7.055
10573POPC   C4B63718  41.403  38.303   7.355
10574POPC   NC363719  26.032  26.843   5.555
10574POPC   PO463720  26.014  26.779   5.855
10574POPC   GL163721  26.054  26.840   6.155
10574POPC   GL263722  25.920  26.734   6.155
10574POPC   C1A63723  26.062  26.769   6.455
10574POPC   D2A63724  26.024  26.847   6.755
10574POPC   C3A63725  26.082  26.806   7.055
10574POPC   C4A63726  26.058  26.856   7.355
10574POPC   C1B63727  25.837  26.665   6.455
10574POPC   C2B63728  25.840  26.612   6.755
10574POPC   C3B63729  25.861  26.645   7.055
10574POPC   C4B63730  25.878  26.683   7.355
10575POPC   NC363731  21.423  28.378   5.555
10575POPC   PO463732  21.426  28.377   5.855
10575POPC   GL163733  21.349  28.355   6.155
10575POPC   GL263734  21.383  28.245   6.155
10575POPC   C1A63735  21.418  28.395   6.455
10575POPC   D2A63736  21.396  28.347   6.755
10575POPC   C3A63737  21.382  28.398   7.055
10575POPC   C4A63738  21.378  28.326   7.355
10575POPC   C1B63739  21.434  28.102   6.455
10575POPC   C2B63740  21.469  28.089   6.755
10575POPC   C3B63741  21.430  28.152   7.055
10575POPC   C4B63742  21.456  28.089   7.355
10576POPC   NC363743  24.523  33.787   5.555
10576POPC   PO463744  24.476  33.752   5.855
10576POPC   GL163745  24.521  33.784   6.155
10576POPC   GL263746  24.347  33.831   6.155
10576POPC   C1A63747  24.506  33.821   6.455
10576POPC   D2A63748  24.452  33.809   6.755
10576POPC   C3A63749  24.508  33.779   7.055
10576POPC   C4A63750  24.490  33.846   7.355
10576POPC   C1B63751  24.222  33.807   6.455
10576POPC   C2B63752  24.233  33.795   6.755
10576POPC   C3B63753  24.216  33.758   7.055
10576POPC   C4B63754  24.204  33.770   7.355
10577POPC   NC363755  32.287  29.959   5.555
10577POPC   PO463756  32.224  29.950   5.855
10577POPC   GL163757  32.287  29.939   6.155
10577POPC   GL263758  32.391  29.890   6.155
10577POPC   C1A63759  32.212  29.921   6.455
10577POPC   D2A63760  32.239  29.878   6.755
10577POPC   C3A63761  32.229  29.943   7.055
10577POPC   C4A63762  32.250  29.886   7.355
10577POPC   C1B63763  32.454  29.807   6.455
10577POPC   C2B63764  32.480  29.831   6.755
10577POPC   C3B63765  32.484  29.825   7.055
10577POPC   C4B63766  32.471  29.779   7.355
10578POPC   NC363767  27.628  20.593   5.555
10578POPC   PO463768  27.602  20.576   5.855
10578POPC   GL163769  27.581  20.580   6.155
10578POPC   GL263770  27.532  20.504   6.155
10578POPC   C1A63771  27.620  20.579   6.455
10578POPC   D2A63772  27.588  20.593   6.755
10578POPC   C3A63773  27.596  20.634   7.055
10578POPC   C4A63774  27.620  20.616   7.355
10578POPC   C1B63775  27.468  20.418   6.455
10578POPC   C2B63776  27.386  20.397   6.755
10578POPC   C3B63777  27.393  20.384   7.055
10578POPC   C4B63778  27.434  20.461   7.355
10579POPC   NC363779  37.694  15.996   5.555
10579POPC   PO463780  37.645  15.922   5.855
10579POPC   GL163781  37.687  15.919   6.155
10579POPC   GL263782  37.640  16.089   6.155
10579POPC   C1A63783  37.663  16.000   6.455
10579POPC   D2A63784  37.652  15.954   6.755
10579POPC   C3A63785  37.684  15.968   7.055
10579POPC   C4A63786  37.689  15.916   7.355
10579POPC   C1B63787  37.636  16.215   6.455
10579POPC   C2B63788  37.564  16.227   6.755
10579POPC   C3B63789  37.611  16.169   7.055
10579POPC   C4B63790  37.617  16.169   7.355
10580POPC   NC363791  18.285  37.639   5.555
10580POPC   PO463792  18.302  37.728   5.855
10580POPC   GL163793  18.311  37.638   6.155
10580POPC   GL263794  18.248  37.762   6.155
10580POPC   C1A63795  18.313  37.713   6.455
10580POPC   D2A63796  18.281  37.657   6.755
10580POPC   C3A63797  18.261  37.672   7.055
10580POPC   C4A63798  18.255  37.725   7.355
10580POPC   C1B63799  18.269  37.927   6.455
10580POPC   C2B63800  18.357  37.879   6.755
10580POPC   C3B63801  18.287  37.889   7.055
10580POPC   C4B63802  18.340  37.901   7.355
10581POPC   NC363803  40.057  37.690   5.555
10581POPC   PO463804  40.026  37.642   5.855
10581POPC   GL163805  40.030  37.656   6.155
10581POPC   GL263806  40.022  37.771   6.155
10581POPC   C1A63807  40.000  37.705   6.455
10581POPC   D2A63808  39.966  37.648   6.755
10581POPC   C3A63809  39.984  37.682   7.055
10581POPC   C4A63810  40.033  37.679   7.355
10581POPC   C1B63811  40.014  37.944   6.455
10581POPC   C2B63812  40.021  37.948   6.755
10581POPC   C3B63813  40.041  37.970   7.055
10581POPC   C4B63814  40.023  37.897   7.355
10582POPC   NC363815   4.333  43.880   5.555
10582POPC   PO463816   4.347  43.873   5.855
10582POPC   GL163817   4.317  43.930   6.155
10582POPC   GL263818   4.235  43.745   6.155
10582POPC   C1A63819   4.367  43.929   6.455
10582POPC   D2A63820   4.303  43.910   6.755
10582POPC   C3A63821   4.357  43.900   7.055
10582POPC   C4A63822   4.288  43.915   7.355
10582POPC   C1B63823   4.169  43.634   6.455
10582POPC   C2B63824   4.165  43.703   6.755
10582POPC   C3B63825   4.238  43.644   7.055
10582POPC   C4B63826   4.234  43.669   7.355
10583POPC   NC363827  12.884  29.181   5.555
10583POPC   PO463828  12.875  29.155   5.855
10583POPC   GL163829  12.843  29.186   6.155
10583POPC   GL263830  12.718  29.112   6.155
10583POPC   C1A63831  12.854  29.116   6.455
10583POPC   D2A63832  12.855  29.155   6.755
10583POPC   C3A63833  12.837  29.145   7.055
10583POPC   C4A63834  12.879  29.153   7.355
10583POPC   C1B63835  12.614  29.162   6.455
10583POPC   C2B63836  12.650  29.111   6.755
10583POPC   C3B63837  12.643  29.150   7.055
10583POPC   C4B63838  12.571  29.157   7.355
10584POPC   NC363839  11.318   8.223   5.555
10584POPC   PO463840  11.269   8.225   5.855
10584POPC   GL163841  11.289   8.151   6.155
10584POPC   GL263842  11.442   8.266   6.155
10584POPC   C1A63843  11.303   8.182   6.455
10584POPC   D2A63844  11.289   8.245   6.755
10584POPC   C3A63845  11.296   8.193   7.055
10584POPC   C4A63846  11.347   8.191   7.355
10584POPC   C1B63847  11.525   8.251   6.455
10584POPC   C2B63848  11.524   8.257   6.755
10584POPC   C3B63849  11.543   8.269   7.055
10584POPC   C4B63850  11.565   8.257   7.355
10585POPC   NC363851  33.807  34.547   5.555
10585POPC   PO463852  33.781  34.545   5.855
10585POPC   GL163853  33.840  34.553   6.155
10585POPC   GL263854  33.763  34.736   6.155
10585POPC   C1A63855  33.818  34.553   6.455
10585POPC   D2A63856  33.794  34.539   6.755
10585POPC   C3A63857  33.826  34.619   7.055
10585POPC   C4A63858  33.822  34.573   7.355
10585POPC   C1B63859  33.681  34.842   6.455
10585POPC   C2B63860  33.679  34.806   6.755
10585POPC   C3B63861  33.685  34.846   7.055
10585POPC   C4B63862  33.692  34.819   7.355
10586POPC   NC363863  35.311  28.365   5.555
10586POPC   PO463864  35.399  28.385   5.855
10586POPC   GL163865  35.313  28.383   6.155
10586POPC   GL263866  35.462  28.323   6.155
10586POPC   C1A63867  35.311  28.363   6.455
10586POPC   D2A63868  35.342  28.321   6.755
10586POPC   C3A63869  35.333  28.343   7.055
10586POPC   C4A63870  35.303  28.391   7.355
10586POPC   C1B63871  35.501  28.212   6.455
10586POPC   C2B63872  35.543  28.213   6.755
10586POPC   C3B63873  35.535  28.183   7.055
10586POPC   C4B63874  35.530  28.150   7.355
10587POPC   NC363875  25.302   2.797   5.555
10587POPC   PO463876  25.280   2.798   5.855
10587POPC   GL163877  25.279   2.755   6.155
10587POPC   GL263878  25.321   2.683   6.155
10587POPC   C1A63879  25.260   2.734   6.455
10587POPC   D2A63880  25.287   2.724   6.755
10587POPC   C3A63881  25.292   2.760   7.055
10587POPC   C4A63882  25.218   2.795   7.355
10587POPC   C1B63883  25.330   2.567   6.455
10587POPC   C2B63884  25.363   2.472   6.755
10587POPC   C3B63885  25.291   2.514   7.055
10587POPC   C4B63886  25.323   2.544   7.355
10588POPC   NC363887  10.493   5.897   5.555
10588POPC   PO463888  10.563   5.839   5.855
10588POPC   GL163889  10.519   5.847   6.155
10588POPC   GL263890  10.608   5.939   6.155
10588POPC   C1A63891  10.512   5.886   6.455
10588POPC   D2A63892  10.541   5.823   6.755
10588POPC   C3A63893  10.559   5.912   7.055
10588POPC   C4A63894  10.510   5.859   7.355
10588POPC   C1B63895  10.723   5.926   6.455
10588POPC   C2B63896  10.754   5.901   6.755
10588POPC   C3B63897  10.799   5.973   7.055
10588POPC   C4B63898  10.741   5.950   7.355
10589POPC   NC363899  12.897  36.949   5.555
10589POPC   PO463900  12.828  36.893   5.855
10589POPC   GL163901  12.810  36.873   6.155
10589POPC   GL263902  12.755  37.058   6.155
10589POPC   C1A63903  12.827  36.935   6.455
10589POPC   D2A63904  12.816  36.920   6.755
10589POPC   C3A63905  12.898  36.951   7.055
10589POPC   C4A63906  12.887  36.927   7.355
10589POPC   C1B63907  12.772  37.136   6.455
10589POPC   C2B63908  12.764  37.086   6.755
10589POPC   C3B63909  12.739  37.077   7.055
10589POPC   C4B63910  12.763  37.097   7.355
10590POPC   NC363911  36.109  19.079   5.555
10590POPC   PO463912  36.106  19.062   5.855
10590POPC   GL163913  36.138  19.080   6.155
10590POPC   GL263914  36.050  19.146   6.155
10590POPC   C1A63915  36.165  19.059   6.455
10590POPC   D2A63916  36.157  19.095   6.755
10590POPC   C3A63917  36.117  19.097   7.055
10590POPC   C4A63918  36.096  19.061   7.355
10590POPC   C1B63919  35.954  19.264   6.455
10590POPC   C2B63920  35.938  19.243   6.755
10590POPC   C3B63921  35.953  19.268   7.055
10590POPC   C4B63922  35.981  19.268   7.355
10591POPC   NC363923  30.681  44.686   5.555
10591POPC   PO463924  30.688  44.699   5.855
10591POPC   GL163925  30.744  44.703   6.155
10591POPC   GL263926  30.648  44.778   6.155
10591POPC   C1A63927  30.690  44.618   6.455
10591POPC   D2A63928  30.714  44.708   6.755
10591POPC   C3A63929  30.736  44.656   7.055
10591POPC   C4A63930  30.650  44.654   7.355
10591POPC   C1B63931  30.557  44.913   6.455
10591POPC   C2B63932  30.602  44.854   6.755
10591POPC   C3B63933  30.610  44.881   7.055
10591POPC   C4B63934  30.592  44.891   7.355
10592POPC   NC363935  26.025  32.279   5.555
10592POPC   PO463936  26.077  32.295   5.855
10592POPC   GL163937  26.060  32.208   6.155
10592POPC   GL263938  26.050  32.102   6.155
10592POPC   C1A63939  26.023  32.292   6.455
10592POPC   D2A63940  26.006  32.267   6.755
10592POPC   C3A63941  26.089  32.283   7.055
10592POPC   C4A63942  26.070  32.240   7.355
10592POPC   C1B63943  26.182  32.011   6.455
10592POPC   C2B63944  26.168  31.997   6.755
10592POPC   C3B63945  26.148  32.065   7.055
10592POPC   C4B63946  26.169  32.060   7.355
10593POPC   NC363947   1.256   8.982   5.555
10593POPC   PO463948   1.190   9.003   5.855
10593POPC   GL163949   1.176   8.959   6.155
10593POPC   GL263950   1.248   9.096   6.155
10593POPC   C1A63951   1.259   9.000   6.455
10593POPC   D2A63952   1.240   8.981   6.755
10593POPC   C3A63953   1.245   8.948   7.055
10593POPC   C4A63954   1.237   9.015   7.355
10593POPC   C1B63955   1.315   9.229   6.455
10593POPC   C2B63956   1.342   9.148   6.755
10593POPC   C3B63957   1.339   9.200   7.055
10593POPC   C4B63958   1.348   9.179   7.355
10594POPC   NC363959  33.029  35.317   5.555
10594POPC   PO463960  32.991  35.330   5.855
10594POPC   GL163961  32.993  35.312   6.155
10594POPC   GL263962  32.895  35.398   6.155
10594POPC   C1A63963  33.045  35.362   6.455
10594POPC   D2A63964  32.984  35.384   6.755
10594POPC   C3A63965  32.985  35.332   7.055
10594POPC   C4A63966  33.011  35.313   7.355
10594POPC   C1B63967  32.816  35.459   6.455
10594POPC   C2B63968  32.750  35.457   6.755
10594POPC   C3B63969  32.808  35.485   7.055
10594POPC   C4B63970  32.838  35.426   7.355
10595POPC   NC363971  31.500   1.973   5.555
10595POPC   PO463972  31.493   1.993   5.855
10595POPC   GL163973  31.436   2.035   6.155
10595POPC   GL263974  31.503   1.865   6.155
10595POPC   C1A63975  31.450   1.943   6.455
10595POPC   D2A63976  31.454   1.953   6.755
10595POPC   C3A63977  31.509   2.025   7.055
10595POPC   C4A63978  31.470   2.015   7.355
10595POPC   C1B63979  31.553   1.793   6.455
10595POPC   C2B63980  31.540   1.794   6.755
10595POPC   C3B63981  31.583   1.791   7.055
10595POPC   C4B63982  31.546   1.806   7.355
10596POPC   NC363983  28.335  27.623   5.555
10596POPC   PO463984  28.393  27.594   5.855
10596POPC   GL163985  28.417  27.547   6.155
10596POPC   GL263986  28.378  27.751   6.155
10596POPC   C1A63987  28.333  27.575   6.455
10596POPC   D2A63988  28.323  27.567   6.755
10596POPC   C3A63989  28.374  27.601   7.055
10596POPC   C4A63990  28.407  27.589   7.355
10596POPC   C1B63991  28.336  27.842   6.455
10596POPC   C2B63992  28.353  27.797   6.755
10596POPC   C3B63993  28.269  27.794   7.055
10596POPC   C4B63994  28.289  27.873   7.355
10597POPC   NC363995  13.590  19.045   5.555
10597POPC   PO463996  13.587  19.022   5.855
10597POPC   GL163997  13.610  19.101   6.155
10597POPC   GL263998  13.725  19.084   6.155
10597POPC   C1A63999  13.612  19.082   6.455
10597POPC   D2A64000  13.597  19.073   6.755
10597POPC   C3A64001  13.633  19.024   7.055
10597POPC   C4A64002  13.625  19.019   7.355
10597POPC   C1B64003  13.823  19.086   6.455
10597POPC   C2B64004  13.853  19.168   6.755
10597POPC   C3B64005  13.855  19.133   7.055
10597POPC   C4B64006  13.847  19.136   7.355
10598POPC   NC364007  19.106   8.186   5.555
10598POPC   PO464008  19.077   8.147   5.855
10598POPC   GL164009  19.060   8.192   6.155
10598POPC   GL264010  19.123   8.170   6.155
10598POPC   C1A64011  19.057   8.196   6.455
10598POPC   D2A64012  19.075   8.192   6.755
10598POPC   C3A64013  19.039   8.155   7.055
10598POPC   C4A64014  19.065   8.156   7.355
10598POPC   C1B64015  19.252   8.088   6.455
10598POPC   C2B64016  19.324   8.066   6.755
10598POPC   C3B64017  19.262   8.099   7.055
10598POPC   C4B64018  19.267   8.119   7.355
10599POPC   NC364019  33.021  12.852   5.555
10599POPC   PO464020  33.017  12.834   5.855
10599POPC   GL164021  33.012  12.852   6.155
10599POPC   GL264022  33.091  12.866   6.155
10599POPC   C1A64023  33.065  12.865   6.455
10599POPC   D2A64024  33.061  12.824   6.755
10599POPC   C3A64025  33.005  12.837   7.055
10599POPC   C4A64026  32.995  12.862   7.355
10599POPC   C1B64027  33.207  13.010   6.455
10599POPC   C2B64028  33.260  12.986   6.755
10599POPC   C3B64029  33.245  12.953   7.055
10599POPC   C4B64030  33.287  12.986   7.355
10600POPC   NC364031   9.770   8.174   5.555
10600POPC   PO464032   9.767   8.222   5.855
10600POPC   GL164033   9.753   8.238   6.155
10600POPC   GL264034   9.812   8.069   6.155
10600POPC   C1A64035   9.763   8.155   6.455
10600POPC   D2A64036   9.716   8.194   6.755
10600POPC   C3A64037   9.782   8.209   7.055
10600POPC   C4A64038   9.711   8.218   7.355
10600POPC   C1B64039   9.925   8.067   6.455
10600POPC   C2B64040   9.990   8.056   6.755
10600POPC   C3B64041   9.952   8.015   7.055
10600POPC   C4B64042   9.989   8.048   7.355
10601POPC   NC364043   5.851  32.256   5.555
10601POPC   PO464044   5.823  32.274   5.855
10601POPC   GL164045   5.850  32.277   6.155
10601POPC   GL264046   5.838  32.177   6.155
10601POPC   C1A64047   5.854  32.256   6.455
10601POPC   D2A64048   5.854  32.260   6.755
10601POPC   C3A64049   5.850  32.222   7.055
10601POPC   C4A64050   5.908  32.280   7.355
10601POPC   C1B64051   5.735  32.053   6.455
10601POPC   C2B64052   5.735  32.034   6.755
10601POPC   C3B64053   5.768  31.999   7.055
10601POPC   C4B64054   5.771  32.034   7.355
10602POPC   NC364055  43.126  22.978   5.555
10602POPC   PO464056  43.160  22.907   5.855
10602POPC   GL164057  43.124  22.972   6.155
10602POPC   GL264058  43.029  22.905   6.155
10602POPC   C1A64059  43.115  22.929   6.455
10602POPC   D2A64060  43.095  22.937   6.755
10602POPC   C3A64061  43.142  22.942   7.055
10602POPC   C4A64062  43.112  22.891   7.355
10602POPC   C1B64063  42.914  22.791   6.455
10602POPC   C2B64064  42.856  22.764   6.755
10602POPC   C3B64065  42.904  22.842   7.055
10602POPC   C4B64066  42.859  22.771   7.355
10603POPC   NC364067  40.037   2.723   5.555
10603POPC   PO464068  40.054   2.784   5.855
10603POPC   GL164069  39.964   2.784   6.155
10603POPC   GL264070  40.082   2.851   6.155
10603POPC   C1A64071  39.959   2.758   6.455
10603POPC   D2A64072  40.022   2.787   6.755
10603POPC   C3A64073  40.054   2.779   7.055
10603POPC   C4A64074  40.054   2.748   7.355
10603POPC   C1B64075  40.217   2.948   6.455
10603POPC   C2B64076  40.224   2.922   6.755
10603POPC   C3B64077  40.224   2.974   7.055
10603POPC   C4B64078  40.244   2.952   7.355
10604POPC   NC364079  19.042  12.872   5.555
10604POPC   PO464080  19.072  12.860   5.855
10604POPC   GL164081  19.041  12.850   6.155
10604POPC   GL264082  19.184  12.928   6.155
10604POPC   C1A64083  19.053  12.872   6.455
10604POPC   D2A64084  19.053  12.893   6.755
10604POPC   C3A64085  19.055  12.833   7.055
10604POPC   C4A64086  19.022  12.814   7.355
10604POPC   C1B64087  19.336  12.915   6.455
10604POPC   C2B64088  19.260  12.880   6.755
10604POPC   C3B64089  19.314  12.967   7.055
10604POPC   C4B64090  19.288  12.898   7.355
10605POPC   NC364091   7.438   8.175   5.555
10605POPC   PO464092   7.425   8.231   5.855
10605POPC   GL164093   7.371   8.154   6.155
10605POPC   GL264094   7.397   8.283   6.155
10605POPC   C1A64095   7.454   8.222   6.455
10605POPC   D2A64096   7.380   8.198   6.755
10605POPC   C3A64097   7.438   8.157   7.055
10605POPC   C4A64098   7.449   8.211   7.355
10605POPC   C1B64099   7.450   8.467   6.455
10605POPC   C2B64100   7.415   8.484   6.755
10605POPC   C3B64101   7.500   8.397   7.055
10605POPC   C4B64102   7.491   8.413   7.355
10606POPC   NC364103   6.657   2.754   5.555
10606POPC   PO464104   6.616   2.777   5.855
10606POPC   GL164105   6.648   2.805   6.155
10606POPC   GL264106   6.499   2.727   6.155
10606POPC   C1A64107   6.612   2.718   6.455
10606POPC   D2A64108   6.657   2.763   6.755
10606POPC   C3A64109   6.652   2.804   7.055
10606POPC   C4A64110   6.649   2.717   7.355
10606POPC   C1B64111   6.388   2.604   6.455
10606POPC   C2B64112   6.384   2.618   6.755
10606POPC   C3B64113   6.429   2.672   7.055
10606POPC   C4B64114   6.467   2.587   7.355
10607POPC   NC364115  14.403  32.294   5.555
10607POPC   PO464116  14.363  32.249   5.855
10607POPC   GL164117  14.432  32.263   6.155
10607POPC   GL264118  14.472  32.127   6.155
10607POPC   C1A64119  14.453  32.280   6.455
10607POPC   D2A64120  14.424  32.270   6.755
10607POPC   C3A64121  14.382  32.293   7.055
10607POPC   C4A64122  14.374  32.207   7.355
10607POPC   C1B64123  14.420  32.045   6.455
10607POPC   C2B64124  14.455  31.990   6.755
10607POPC   C3B64125  14.453  31.982   7.055
10607POPC   C4B64126  14.450  31.995   7.355
10608POPC   NC364127  30.654  15.905   5.555
10608POPC   PO464128  30.649  15.921   5.855
10608POPC   GL164129  30.742  15.920   6.155
10608POPC   GL264130  30.743  16.097   6.155
10608POPC   C1A64131  30.662  15.973   6.455
10608POPC   D2A64132  30.740  15.988   6.755
10608POPC   C3A64133  30.695  15.934   7.055
10608POPC   C4A64134  30.697  16.003   7.355
10608POPC   C1B64135  30.819  16.145   6.455
10608POPC   C2B64136  30.871  16.146   6.755
10608POPC   C3B64137  30.875  16.151   7.055
10608POPC   C4B64138  30.840  16.183   7.355
10609POPC   NC364139  36.161   6.689   5.555
10609POPC   PO464140  36.117   6.679   5.855
10609POPC   GL164141  36.157   6.683   6.155
10609POPC   GL264142  36.267   6.673   6.155
10609POPC   C1A64143  36.112   6.682   6.455
10609POPC   D2A64144  36.140   6.649   6.755
10609POPC   C3A64145  36.092   6.606   7.055
10609POPC   C4A64146  36.087   6.616   7.355
10609POPC   C1B64147  36.331   6.656   6.455
10609POPC   C2B64148  36.370   6.690   6.755
10609POPC   C3B64149  36.391   6.659   7.055
10609POPC   C4B64150  36.366   6.608   7.355
10610POPC   NC364151  40.740   0.431   5.555
10610POPC   PO464152  40.816   0.460   5.855
10610POPC   GL164153  40.794   0.444   6.155
10610POPC   GL264154  40.684   0.377   6.155
10610POPC   C1A64155  40.779   0.405   6.455
10610POPC   D2A64156  40.740   0.404   6.755
10610POPC   C3A64157  40.807   0.389   7.055
10610POPC   C4A64158  40.799   0.432   7.355
10610POPC   C1B64159  40.649   0.275   6.455
10610POPC   C2B64160  40.643   0.296   6.755
10610POPC   C3B64161  40.627   0.264   7.055
10610POPC   C4B64162  40.642   0.255   7.355
10611POPC   NC364163  21.408  32.289   5.555
10611POPC   PO464164  21.394  32.295   5.855
10611POPC   GL164165  21.391  32.286   6.155
10611POPC   GL264166  21.458  32.205   6.155
10611POPC   C1A64167  21.430  32.268   6.455
10611POPC   D2A64168  21.363  32.285   6.755
10611POPC   C3A64169  21.399  32.276   7.055
10611POPC   C4A64170  21.382  32.224   7.355
10611POPC   C1B64171  21.535  32.106   6.455
10611POPC   C2B64172  21.564  32.104   6.755
10611POPC   C3B64173  21.551  32.110   7.055
10611POPC   C4B64174  21.513  32.038   7.355
10612POPC   NC364175  25.994  44.660   5.555
10612POPC   PO464176  26.055  44.710   5.855
10612POPC   GL164177  26.021  44.636   6.155
10612POPC   GL264178  26.012  44.743   6.155
10612POPC   C1A64179  26.046  44.645   6.455
10612POPC   D2A64180  26.068  44.662   6.755
10612POPC   C3A64181  26.090  44.628   7.055
10612POPC   C4A64182  26.025  44.629   7.355
10612POPC   C1B64183  25.934  44.930   6.455
10612POPC   C2B64184  25.972  44.921   6.755
10612POPC   C3B64185  25.969  44.928   7.055
10612POPC   C4B64186  25.977  44.935   7.355
10613POPC   NC364187  36.101  32.250   5.555
10613POPC   PO464188  36.120  32.225   5.855
10613POPC   GL164189  36.095  32.226   6.155
10613POPC   GL264190  36.206  32.335   6.155
10613POPC   C1A64191  36.157  32.298   6.455
10613POPC   D2A64192  36.152  32.245   6.755
10613POPC   C3A64193  36.131  32.229   7.055
10613POPC   C4A64194  36.140  32.256   7.355
10613POPC   C1B64195  36.229  32.437   6.455
10613POPC   C2B64196  36.255  32.467   6.755
10613POPC   C3B64197  36.257  32.446   7.055
10613POPC   C4B64198  36.207  32.427   7.355
10614POPC   NC364199  12.039  20.585   5.555
10614POPC   PO464200  12.033  20.561   5.855
10614POPC   GL164201  12.112  20.572   6.155
10614POPC   GL264202  12.169  20.664   6.155
10614POPC   C1A64203  12.068  20.592   6.455
10614POPC   D2A64204  12.067  20.653   6.755
10614POPC   C3A64205  12.038  20.572   7.055
10614POPC   C4A64206  12.109  20.656   7.355
10614POPC   C1B64207  12.256  20.719   6.455
10614POPC   C2B64208  12.287  20.697   6.755
10614POPC   C3B64209  12.295  20.711   7.055
10614POPC   C4B64210  12.333  20.774   7.355
10615POPC   NC364211  24.479  26.024   5.555
10615POPC   PO464212  24.473  26.003   5.855
10615POPC   GL164213  24.522  26.013   6.155
10615POPC   GL264214  24.404  26.055   6.155
10615POPC   C1A64215  24.443  26.055   6.455
10615POPC   D2A64216  24.508  26.031   6.755
10615POPC   C3A64217  24.476  25.994   7.055
10615POPC   C4A64218  24.524  26.008   7.355
10615POPC   C1B64219  24.286  25.951   6.455
10615POPC   C2B64220  24.203  25.924   6.755
10615POPC   C3B64221  24.207  25.923   7.055
10615POPC   C4B64222  24.265  25.929   7.355
10616POPC   NC364223  10.568  19.785   5.555
10616POPC   PO464224  10.512  19.880   5.855
10616POPC   GL164225  10.510  19.877   6.155
10616POPC   GL264226  10.515  19.712   6.155
10616POPC   C1A64227  10.496  19.802   6.455
10616POPC   D2A64228  10.554  19.818   6.755
10616POPC   C3A64229  10.515  19.862   7.055
10616POPC   C4A64230  10.551  19.880   7.355
10616POPC   C1B64231  10.572  19.610   6.455
10616POPC   C2B64232  10.519  19.551   6.755
10616POPC   C3B64233  10.535  19.540   7.055
10616POPC   C4B64234  10.540  19.549   7.355
10617POPC   NC364235  13.621   8.191   5.555
10617POPC   PO464236  13.579   8.220   5.855
10617POPC   GL164237  13.584   8.174   6.155
10617POPC   GL264238  13.682   8.113   6.155
10617POPC   C1A64239  13.606   8.245   6.455
10617POPC   D2A64240  13.659   8.202   6.755
10617POPC   C3A64241  13.613   8.170   7.055
10617POPC   C4A64242  13.638   8.217   7.355
10617POPC   C1B64243  13.795   8.021   6.455
10617POPC   C2B64244  13.822   8.086   6.755
10617POPC   C3B64245  13.798   8.085   7.055
10617POPC   C4B64246  13.838   8.029   7.355
10618POPC   NC364247  22.159   8.932   5.555
10618POPC   PO464248  22.189   8.977   5.855
10618POPC   GL164249  22.154   8.935   6.155
10618POPC   GL264250  22.222   8.987   6.155
10618POPC   C1A64251  22.152   8.957   6.455
10618POPC   D2A64252  22.165   9.018   6.755
10618POPC   C3A64253  22.142   8.949   7.055
10618POPC   C4A64254  22.122   9.002   7.355
10618POPC   C1B64255  22.363   9.121   6.455
10618POPC   C2B64256  22.425   9.113   6.755
10618POPC   C3B64257  22.340   9.053   7.055
10618POPC   C4B64258  22.391   9.065   7.355
10619POPC   NC364259  32.241   5.111   5.555
10619POPC   PO464260  32.285   5.096   5.855
10619POPC   GL164261  32.204   5.072   6.155
10619POPC   GL264262  32.162   5.051   6.155
10619POPC   C1A64263  32.298   5.102   6.455
10619POPC   D2A64264  32.217   5.115   6.755
10619POPC   C3A64265  32.206   5.052   7.055
10619POPC   C4A64266  32.214   5.048   7.355
10619POPC   C1B64267  32.049   4.891   6.455
10619POPC   C2B64268  32.038   4.897   6.755
10619POPC   C3B64269  32.037   4.941   7.055
10619POPC   C4B64270  32.072   4.968   7.355
10620POPC   NC364271  18.250  30.663   5.555
10620POPC   PO464272  18.331  30.651   5.855
10620POPC   GL164273  18.249  30.733   6.155
10620POPC   GL264274  18.276  30.803   6.155
10620POPC   C1A64275  18.298  30.647   6.455
10620POPC   D2A64276  18.291  30.731   6.755
10620POPC   C3A64277  18.296  30.720   7.055
10620POPC   C4A64278  18.285  30.710   7.355
10620POPC   C1B64279  18.370  30.918   6.455
10620POPC   C2B64280  18.369  30.957   6.755
10620POPC   C3B64281  18.388  30.902   7.055
10620POPC   C4B64282  18.409  30.909   7.355
10621POPC   NC364283  15.177  22.977   5.555
10621POPC   PO464284  15.177  22.894   5.855
10621POPC   GL164285  15.178  22.930   6.155
10621POPC   GL264286  15.141  22.770   6.155
10621POPC   C1A64287  15.194  22.962   6.455
10621POPC   D2A64288  15.228  22.929   6.755
10621POPC   C3A64289  15.168  22.897   7.055
10621POPC   C4A64290  15.193  22.938   7.355
10621POPC   C1B64291  15.191  22.680   6.455
10621POPC   C2B64292  15.153  22.656   6.755
10621POPC   C3B64293  15.170  22.641   7.055
10621POPC   C4B64294  15.191  22.738   7.355
10622POPC   NC364295   5.827  16.687   5.555
10622POPC   PO464296   5.888  16.742   5.855
10622POPC   GL164297   5.847  16.753   6.155
10622POPC   GL264298   5.790  16.786   6.155
10622POPC   C1A64299   5.834  16.744   6.455
10622POPC   D2A64300   5.832  16.698   6.755
10622POPC   C3A64301   5.836  16.683   7.055
10622POPC   C4A64302   5.878  16.764   7.355
10622POPC   C1B64303   5.712  16.920   6.455
10622POPC   C2B64304   5.723  16.908   6.755
10622POPC   C3B64305   5.662  16.900   7.055
10622POPC   C4B64306   5.728  16.900   7.355
10623POPC   NC364307  17.548  29.133   5.555
10623POPC   PO464308  17.467  29.177   5.855
10623POPC   GL164309  17.474  29.123   6.155
10623POPC   GL264310  17.416  29.243   6.155
10623POPC   C1A64311  17.511  29.109   6.455
10623POPC   D2A64312  17.461  29.176   6.755
10623POPC   C3A64313  17.529  29.115   7.055
10623POPC   C4A64314  17.501  29.163   7.355
10623POPC   C1B64315  17.292  29.246   6.455
10623POPC   C2B64316  17.304  29.283   6.755
10623POPC   C3B64317  17.327  29.248   7.055
10623POPC   C4B64318  17.323  29.279   7.355
10624POPC   NC364319  28.410   6.645   5.555
10624POPC   PO464320  28.357   6.687   5.855
10624POPC   GL164321  28.412   6.595   6.155
10624POPC   GL264322  28.300   6.496   6.155
10624POPC   C1A64323  28.353   6.652   6.455
10624POPC   D2A64324  28.354   6.661   6.755
10624POPC   C3A64325  28.377   6.631   7.055
10624POPC   C4A64326  28.418   6.605   7.355
10624POPC   C1B64327  28.239   6.395   6.455
10624POPC   C2B64328  28.196   6.388   6.755
10624POPC   C3B64329  28.252   6.461   7.055
10624POPC   C4B64330  28.221   6.427   7.355
10625POPC   NC364331  27.549   5.061   5.555
10625POPC   PO464332  27.617   5.054   5.855
10625POPC   GL164333  27.548   5.068   6.155
10625POPC   GL264334  27.739   5.143   6.155
10625POPC   C1A64335  27.608   5.107   6.455
10625POPC   D2A64336  27.583   5.118   6.755
10625POPC   C3A64337  27.546   5.128   7.055
10625POPC   C4A64338  27.631   5.081   7.355
10625POPC   C1B64339  27.811   5.275   6.455
10625POPC   C2B64340  27.763   5.232   6.755
10625POPC   C3B64341  27.790   5.213   7.055
10625POPC   C4B64342  27.800   5.276   7.355
10626POPC   NC364343  23.705   6.596   5.555
10626POPC   PO464344  23.726   6.685   5.855
10626POPC   GL164345  23.760   6.662   6.155
10626POPC   GL264346  23.645   6.623   6.155
10626POPC   C1A64347  23.763   6.670   6.455
10626POPC   D2A64348  23.702   6.600   6.755
10626POPC   C3A64349  23.755   6.601   7.055
10626POPC   C4A64350  23.685   6.665   7.355
10626POPC   C1B64351  23.455   6.576   6.455
10626POPC   C2B64352  23.474   6.522   6.755
10626POPC   C3B64353  23.495   6.574   7.055
10626POPC   C4B64354  23.471   6.510   7.355
10627POPC   NC364355   9.720  12.871   5.555
10627POPC   PO464356   9.721  12.861   5.855
10627POPC   GL164357   9.762  12.815   6.155
10627POPC   GL264358   9.618  12.915   6.155
10627POPC   C1A64359   9.752  12.854   6.455
10627POPC   D2A64360   9.710  12.823   6.755
10627POPC   C3A64361   9.772  12.881   7.055
10627POPC   C4A64362   9.779  12.808   7.355
10627POPC   C1B64363   9.605  12.983   6.455
10627POPC   C2B64364   9.553  13.059   6.755
10627POPC   C3B64365   9.561  13.001   7.055
10627POPC   C4B64366   9.557  12.994   7.355
10628POPC   NC364367  14.358   3.541   5.555
10628POPC   PO464368  14.378   3.509   5.855
10628POPC   GL164369  14.435   3.527   6.155
10628POPC   GL264370  14.525   3.531   6.155
10628POPC   C1A64371  14.434   3.531   6.455
10628POPC   D2A64372  14.382   3.581   6.755
10628POPC   C3A64373  14.407   3.570   7.055
10628POPC   C4A64374  14.368   3.544   7.355
10628POPC   C1B64375  14.595   3.448   6.455
10628POPC   C2B64376  14.672   3.443   6.755
10628POPC   C3B64377  14.667   3.392   7.055
10628POPC   C4B64378  14.620   3.407   7.355
10629POPC   NC364379  23.717  18.234   5.555
10629POPC   PO464380  23.709  18.284   5.855
10629POPC   GL164381  23.756  18.284   6.155
10629POPC   GL264382  23.637  18.321   6.155
10629POPC   C1A64383  23.754  18.316   6.455
10629POPC   D2A64384  23.736  18.288   6.755
10629POPC   C3A64385  23.757  18.305   7.055
10629POPC   C4A64386  23.684  18.275   7.355
10629POPC   C1B64387  23.490  18.299   6.455
10629POPC   C2B64388  23.428  18.296   6.755
10629POPC   C3B64389  23.431  18.288   7.055
10629POPC   C4B64390  23.439  18.321   7.355
10630POPC   NC364391   9.010  28.346   5.555
10630POPC   PO464392   8.967  28.320   5.855
10630POPC   GL164393   9.003  28.353   6.155
10630POPC   GL264394   9.109  28.319   6.155
10630POPC   C1A64395   8.999  28.418   6.455
10630POPC   D2A64396   8.946  28.337   6.755
10630POPC   C3A64397   8.965  28.331   7.055
10630POPC   C4A64398   8.967  28.365   7.355
10630POPC   C1B64399   9.217  28.245   6.455
10630POPC   C2B64400   9.186  28.230   6.755
10630POPC   C3B64401   9.159  28.264   7.055
10630POPC   C4B64402   9.168  28.247   7.355
10631POPC   NC364403  19.861   5.108   5.555
10631POPC   PO464404  19.854   5.121   5.855
10631POPC   GL164405  19.860   5.081   6.155
10631POPC   GL264406  19.677   5.149   6.155
10631POPC   C1A64407  19.841   5.071   6.455
10631POPC   D2A64408  19.826   5.045   6.755
10631POPC   C3A64409  19.862   5.108   7.055
10631POPC   C4A64410  19.864   5.138   7.355
10631POPC   C1B64411  19.543   5.170   6.455
10631POPC   C2B64412  19.633   5.180   6.755
10631POPC   C3B64413  19.585   5.130   7.055
10631POPC   C4B64414  19.543   5.172   7.355
10632POPC   NC364415  38.466  29.966   5.555
10632POPC   PO464416  38.488  29.883   5.855
10632POPC   GL164417  38.421  29.914   6.155
10632POPC   GL264418  38.374  29.975   6.155
10632POPC   C1A64419  38.455  29.946   6.455
10632POPC   D2A64420  38.505  29.906   6.755
10632POPC   C3A64421  38.442  29.943   7.055
10632POPC   C4A64422  38.456  29.884   7.355
10632POPC   C1B64423  38.191  30.018   6.455
10632POPC   C2B64424  38.181  30.074   6.755
10632POPC   C3B64425  38.274  29.989   7.055
10632POPC   C4B64426  38.242  30.014   7.355
10633POPC   NC364427  39.184   3.555   5.555
10633POPC   PO464428  39.266   3.536   5.855
10633POPC   GL164429  39.207   3.541   6.155
10633POPC   GL264430  39.262   3.642   6.155
10633POPC   C1A64431  39.265   3.565   6.455
10633POPC   D2A64432  39.260   3.498   6.755
10633POPC   C3A64433  39.228   3.548   7.055
10633POPC   C4A64434  39.281   3.536   7.355
10633POPC   C1B64435  39.402   3.794   6.455
10633POPC   C2B64436  39.377   3.776   6.755
10633POPC   C3B64437  39.399   3.757   7.055
10633POPC   C4B64438  39.333   3.737   7.355
10634POPC   NC364439  28.323  15.967   5.555
10634POPC   PO464440  28.326  15.950   5.855
10634POPC   GL164441  28.327  16.005   6.155
10634POPC   GL264442  28.331  16.036   6.155
10634POPC   C1A64443  28.417  15.986   6.455
10634POPC   D2A64444  28.330  15.907   6.755
10634POPC   C3A64445  28.343  15.924   7.055
10634POPC   C4A64446  28.365  16.001   7.355
10634POPC   C1B64447  28.240  16.188   6.455
10634POPC   C2B64448  28.248  16.220   6.755
10634POPC   C3B64449  28.256  16.136   7.055
10634POPC   C4B64450  28.198  16.132   7.355
10635POPC   NC364451   7.406  22.959   5.555
10635POPC   PO464452   7.456  22.919   5.855
10635POPC   GL164453   7.453  22.958   6.155
10635POPC   GL264454   7.357  23.057   6.155
10635POPC   C1A64455   7.445  22.933   6.455
10635POPC   D2A64456   7.391  22.964   6.755
10635POPC   C3A64457   7.455  22.950   7.055
10635POPC   C4A64458   7.469  22.986   7.355
10635POPC   C1B64459   7.355  23.132   6.455
10635POPC   C2B64460   7.338  23.132   6.755
10635POPC   C3B64461   7.291  23.203   7.055
10635POPC   C4B64462   7.284  23.204   7.355
10636POPC   NC364463   8.241   2.003   5.555
10636POPC   PO464464   8.223   1.961   5.855
10636POPC   GL164465   8.230   1.970   6.155
10636POPC   GL264466   8.245   1.850   6.155
10636POPC   C1A64467   8.240   2.017   6.455
10636POPC   D2A64468   8.216   2.036   6.755
10636POPC   C3A64469   8.180   1.960   7.055
10636POPC   C4A64470   8.177   2.000   7.355
10636POPC   C1B64471   8.304   1.748   6.455
10636POPC   C2B64472   8.283   1.747   6.755
10636POPC   C3B64473   8.230   1.758   7.055
10636POPC   C4B64474   8.304   1.778   7.355
10637POPC   NC364475  44.679  25.257   5.555
10637POPC   PO464476  44.666  25.226   5.855
10637POPC   GL164477  44.645  25.274   6.155
10637POPC   GL264478  44.716  25.179   6.155
10637POPC   C1A64479  44.697  25.240   6.455
10637POPC   D2A64480  44.681  25.225   6.755
10637POPC   C3A64481  44.664  25.248   7.055
10637POPC   C4A64482  44.685  25.281   7.355
10637POPC   C1B64483  44.682  25.031   6.455
10637POPC   C2B64484  44.656  24.990   6.755
10637POPC   C3B64485  44.696  25.004   7.055
10637POPC   C4B64486  44.697  25.053   7.355
10638POPC   NC364487  43.078   8.231   5.555
10638POPC   PO464488  43.068   8.150   5.855
10638POPC   GL164489  43.156   8.158   6.155
10638POPC   GL264490  43.176   8.249   6.155
10638POPC   C1A64491  43.151   8.151   6.455
10638POPC   D2A64492  43.126   8.164   6.755
10638POPC   C3A64493  43.133   8.202   7.055
10638POPC   C4A64494  43.117   8.149   7.355
10638POPC   C1B64495  43.338   8.328   6.455
10638POPC   C2B64496  43.354   8.360   6.755
10638POPC   C3B64497  43.326   8.284   7.055
10638POPC   C4B64498  43.371   8.288   7.355
10639POPC   NC364499  43.897  12.046   5.555
10639POPC   PO464500  43.916  12.044   5.855
10639POPC   GL164501  43.899  12.061   6.155
10639POPC   GL264502  43.823  11.912   6.155
10639POPC   C1A64503  43.925  12.099   6.455
10639POPC   D2A64504  43.929  12.028   6.755
10639POPC   C3A64505  43.874  12.065   7.055
10639POPC   C4A64506  43.910  12.092   7.355
10639POPC   C1B64507  43.865  11.876   6.455
10639POPC   C2B64508  43.816  11.861   6.755
10639POPC   C3B64509  43.892  11.842   7.055
10639POPC   C4B64510  43.883  11.833   7.355
10640POPC   NC364511  22.203  41.517   5.555
10640POPC   PO464512  22.186  41.571   5.855
10640POPC   GL164513  22.115  41.562   6.155
10640POPC   GL264514  22.046  41.560   6.155
10640POPC   C1A64515  22.115  41.525   6.455
10640POPC   D2A64516  22.197  41.575   6.755
10640POPC   C3A64517  22.170  41.539   7.055
10640POPC   C4A64518  22.166  41.560   7.355
10640POPC   C1B64519  21.925  41.572   6.455
10640POPC   C2B64520  21.950  41.592   6.755
10640POPC   C3B64521  21.902  41.593   7.055
10640POPC   C4B64522  21.935  41.647   7.355
10641POPC   NC364523  37.649  22.115   5.555
10641POPC   PO464524  37.700  22.210   5.855
10641POPC   GL164525  37.640  22.119   6.155
10641POPC   GL264526  37.670  22.027   6.155
10641POPC   C1A64527  37.718  22.167   6.455
10641POPC   D2A64528  37.638  22.167   6.755
10641POPC   C3A64529  37.708  22.150   7.055
10641POPC   C4A64530  37.644  22.115   7.355
10641POPC   C1B64531  37.614  21.940   6.455
10641POPC   C2B64532  37.585  21.900   6.755
10641POPC   C3B64533  37.553  21.933   7.055
10641POPC   C4B64534  37.562  21.960   7.355
10642POPC   NC364535  41.563  32.250   5.555
10642POPC   PO464536  41.576  32.269   5.855
10642POPC   GL164537  41.541  32.285   6.155
10642POPC   GL264538  41.667  32.295   6.155
10642POPC   C1A64539  41.607  32.243   6.455
10642POPC   D2A64540  41.594  32.267   6.755
10642POPC   C3A64541  41.554  32.238   7.055
10642POPC   C4A64542  41.534  32.253   7.355
10642POPC   C1B64543  41.750  32.377   6.455
10642POPC   C2B64544  41.690  32.454   6.755
10642POPC   C3B64545  41.707  32.411   7.055
10642POPC   C4B64546  41.770  32.430   7.355
10643POPC   NC364547  43.100  28.339   5.555
10643POPC   PO464548  43.126  28.361   5.855
10643POPC   GL164549  43.138  28.388   6.155
10643POPC   GL264550  43.271  28.323   6.155
10643POPC   C1A64551  43.156  28.383   6.455
10643POPC   D2A64552  43.145  28.398   6.755
10643POPC   C3A64553  43.142  28.410   7.055
10643POPC   C4A64554  43.077  28.335   7.355
10643POPC   C1B64555  43.395  28.346   6.455
10643POPC   C2B64556  43.349  28.279   6.755
10643POPC   C3B64557  43.306  28.292   7.055
10643POPC   C4B64558  43.401  28.312   7.355
10644POPC   NC364559  36.170  22.203   5.555
10644POPC   PO464560  36.107  22.126   5.855
10644POPC   GL164561  36.102  22.142   6.155
10644POPC   GL264562  36.024  22.247   6.155
10644POPC   C1A64563  36.143  22.122   6.455
10644POPC   D2A64564  36.139  22.154   6.755
10644POPC   C3A64565  36.083  22.196   7.055
10644POPC   C4A64566  36.168  22.185   7.355
10644POPC   C1B64567  35.929  22.368   6.455
10644POPC   C2B64568  35.926  22.315   6.755
10644POPC   C3B64569  35.932  22.342   7.055
10644POPC   C4B64570  35.917  22.305   7.355
10645POPC   NC364571  19.866  34.609   5.555
10645POPC   PO464572  19.858  34.617   5.855
10645POPC   GL164573  19.872  34.602   6.155
10645POPC   GL264574  19.725  34.564   6.155
10645POPC   C1A64575  19.818  34.599   6.455
10645POPC   D2A64576  19.850  34.616   6.755
10645POPC   C3A64577  19.873  34.536   7.055
10645POPC   C4A64578  19.814  34.582   7.355
10645POPC   C1B64579  19.599  34.613   6.455
10645POPC   C2B64580  19.584  34.604   6.755
10645POPC   C3B64581  19.590  34.659   7.055
10645POPC   C4B64582  19.589  34.653   7.355
10646POPC   NC364583  20.574   1.992   5.555
10646POPC   PO464584  20.642   1.960   5.855
10646POPC   GL164585  20.640   1.994   6.155
10646POPC   GL264586  20.448   1.986   6.155
10646POPC   C1A64587  20.579   1.962   6.455
10646POPC   D2A64588  20.626   1.956   6.755
10646POPC   C3A64589  20.598   2.005   7.055
10646POPC   C4A64590  20.600   1.971   7.355
10646POPC   C1B64591  20.329   2.076   6.455
10646POPC   C2B64592  20.325   2.019   6.755
10646POPC   C3B64593  20.357   2.005   7.055
10646POPC   C4B64594  20.389   2.072   7.355
10647POPC   NC364595  30.735   2.770   5.555
10647POPC   PO464596  30.663   2.784   5.855
10647POPC   GL164597  30.685   2.727   6.155
10647POPC   GL264598  30.686   2.618   6.155
10647POPC   C1A64599  30.698   2.718   6.455
10647POPC   D2A64600  30.669   2.793   6.755
10647POPC   C3A64601  30.682   2.758   7.055
10647POPC   C4A64602  30.722   2.772   7.355
10647POPC   C1B64603  30.698   2.480   6.455
10647POPC   C2B64604  30.649   2.477   6.755
10647POPC   C3B64605  30.706   2.553   7.055
10647POPC   C4B64606  30.732   2.507   7.355
10648POPC   NC364607  27.568  34.566   5.555
10648POPC   PO464608  27.617  34.528   5.855
10648POPC   GL164609  27.584  34.582   6.155
10648POPC   GL264610  27.648  34.439   6.155
10648POPC   C1A64611  27.556  34.588   6.455
10648POPC   D2A64612  27.600  34.546   6.755
10648POPC   C3A64613  27.637  34.580   7.055
10648POPC   C4A64614  27.599  34.587   7.355
10648POPC   C1B64615  27.803  34.443   6.455
10648POPC   C2B64616  27.757  34.358   6.755
10648POPC   C3B64617  27.754  34.450   7.055
10648POPC   C4B64618  27.785  34.365   7.355
10649POPC   NC364619  28.367  44.640   5.555
10649POPC   PO464620  28.385  44.667   5.855
10649POPC   GL164621  28.340  44.624   6.155
10649POPC   GL264622  28.251  44.779   6.155
10649POPC   C1A64623  28.353  44.628   6.455
10649POPC   D2A64624  28.414  44.686   6.755
10649POPC   C3A64625  28.340  44.681   7.055
10649POPC   C4A64626  28.415  44.690   7.355
10649POPC   C1B64627  28.226  44.843   6.455
10649POPC   C2B64628  28.239  44.847   6.755
10649POPC   C3B64629  28.197  44.820   7.055
10649POPC   C4B64630  28.207  44.814   7.355
10650POPC   NC364631  16.719   9.003   5.555
10650POPC   PO464632  16.760   8.949   5.855
10650POPC   GL164633  16.703   8.964   6.155
10650POPC   GL264634  16.605   8.911   6.155
10650POPC   C1A64635  16.687   8.977   6.455
10650POPC   D2A64636  16.773   9.022   6.755
10650POPC   C3A64637  16.714   8.993   7.055
10650POPC   C4A64638  16.730   8.932   7.355
10650POPC   C1B64639  16.544   8.841   6.455
10650POPC   C2B64640  16.594   8.784   6.755
10650POPC   C3B64641  16.586   8.799   7.055
10650POPC   C4B64642  16.599   8.754   7.355
10651POPC   NC364643  38.479  24.492   5.555
10651POPC   PO464644  38.474  24.513   5.855
10651POPC   GL164645  38.439  24.470   6.155
10651POPC   GL264646  38.345  24.492   6.155
10651POPC   C1A64647  38.455  24.441   6.455
10651POPC   D2A64648  38.435  24.538   6.755
10651POPC   C3A64649  38.437  24.504   7.055
10651POPC   C4A64650  38.410  24.492   7.355
10651POPC   C1B64651  38.170  24.469   6.455
10651POPC   C2B64652  38.173  24.461   6.755
10651POPC   C3B64653  38.257  24.429   7.055
10651POPC   C4B64654  38.239  24.438   7.355
10652POPC   NC364655  19.822  32.205   5.555
10652POPC   PO464656  19.791  32.234   5.855
10652POPC   GL164657  19.855  32.239   6.155
10652POPC   GL264658  19.762  32.264   6.155
10652POPC   C1A64659  19.855  32.223   6.455
10652POPC   D2A64660  19.790  32.267   6.755
10652POPC   C3A64661  19.788  32.278   7.055
10652POPC   C4A64662  19.858  32.264   7.355
10652POPC   C1B64663  19.582  32.356   6.455
10652POPC   C2B64664  19.585  32.380   6.755
10652POPC   C3B64665  19.580  32.298   7.055
10652POPC   C4B64666  19.609  32.294   7.355
10653POPC   NC364667   0.442   4.292   5.555
10653POPC   PO464668   0.471   4.288   5.855
10653POPC   GL164669   0.423   4.293   6.155
10653POPC   GL264670   0.482   4.193   6.155
10653POPC   C1A64671   0.465   4.307   6.455
10653POPC   D2A64672   0.465   4.275   6.755
10653POPC   C3A64673   0.447   4.362   7.055
10653POPC   C4A64674   0.477   4.280   7.355
10653POPC   C1B64675   0.510   4.124   6.455
10653POPC   C2B64676   0.488   4.062   6.755
10653POPC   C3B64677   0.571   4.129   7.055
10653POPC   C4B64678   0.496   4.073   7.355
10654POPC   NC364679  16.760  12.058   5.555
10654POPC   PO464680  16.779  12.108   5.855
10654POPC   GL164681  16.753  12.082   6.155
10654POPC   GL264682  16.784  12.004   6.155
10654POPC   C1A64683  16.696  12.112   6.455
10654POPC   D2A64684  16.773  12.079   6.755
10654POPC   C3A64685  16.713  12.108   7.055
10654POPC   C4A64686  16.757  12.093   7.355
10654POPC   C1B64687  16.919  11.903   6.455
10654POPC   C2B64688  16.982  11.954   6.755
10654POPC   C3B64689  16.964  11.897   7.055
10654POPC   C4B64690  16.981  11.931   7.355
10655POPC   NC364691   5.065  31.522   5.555
10655POPC   PO464692   5.142  31.442   5.855
10655POPC   GL164693   5.137  31.487   6.155
10655POPC   GL264694   4.975  31.372   6.155
10655POPC   C1A64695   5.138  31.501   6.455
10655POPC   D2A64696   5.063  31.441   6.755
10655POPC   C3A64697   5.091  31.425   7.055
10655POPC   C4A64698   5.090  31.446   7.355
10655POPC   C1B64699   4.853  31.374   6.455
10655POPC   C2B64700   4.868  31.385   6.755
10655POPC   C3B64701   4.932  31.359   7.055
10655POPC   C4B64702   4.855  31.358   7.355
10656POPC   NC364703  15.217   2.737   5.555
10656POPC   PO464704  15.159   2.787   5.855
10656POPC   GL164705  15.147   2.800   6.155
10656POPC   GL264706  15.177   2.919   6.155
10656POPC   C1A64707  15.144   2.742   6.455
10656POPC   D2A64708  15.173   2.760   6.755
10656POPC   C3A64709  15.171   2.773   7.055
10656POPC   C4A64710  15.172   2.809   7.355
10656POPC   C1B64711  15.256   3.030   6.455
10656POPC   C2B64712  15.248   2.969   6.755
10656POPC   C3B64713  15.291   3.028   7.055
10656POPC   C4B64714  15.313   3.046   7.355
10657POPC   NC364715   4.339  29.161   5.555
10657POPC   PO464716   4.309  29.104   5.855
10657POPC   GL164717   4.331  29.166   6.155
10657POPC   GL264718   4.176  29.086   6.155
10657POPC   C1A64719   4.324  29.122   6.455
10657POPC   D2A64720   4.310  29.145   6.755
10657POPC   C3A64721   4.302  29.106   7.055
10657POPC   C4A64722   4.309  29.163   7.355
10657POPC   C1B64723   4.141  28.975   6.455
10657POPC   C2B64724   4.130  29.035   6.755
10657POPC   C3B64725   4.084  28.957   7.055
10657POPC   C4B64726   4.160  29.010   7.355
10658POPC   NC364727  22.947  29.915   5.555
10658POPC   PO464728  22.928  29.957   5.855
10658POPC   GL164729  22.947  29.891   6.155
10658POPC   GL264730  22.839  29.864   6.155
10658POPC   C1A64731  22.961  29.931   6.455
10658POPC   D2A64732  22.929  29.938   6.755
10658POPC   C3A64733  22.942  29.947   7.055
10658POPC   C4A64734  22.973  29.966   7.355
10658POPC   C1B64735  22.766  29.778   6.455
10658POPC   C2B64736  22.755  29.768   6.755
10658POPC   C3B64737  22.784  29.717   7.055
10658POPC   C4B64738  22.757  29.679   7.355
10659POPC   NC364739  11.340  22.939   5.555
10659POPC   PO464740  11.271  22.902   5.855
10659POPC   GL164741  11.290  22.967   6.155
10659POPC   GL264742  11.428  22.906   6.155
10659POPC   C1A64743  11.272  22.974   6.455
10659POPC   D2A64744  11.340  22.893   6.755
10659POPC   C3A64745  11.303  22.975   7.055
10659POPC   C4A64746  11.251  22.969   7.355
10659POPC   C1B64747  11.578  22.936   6.455
10659POPC   C2B64748  11.501  22.936   6.755
10659POPC   C3B64749  11.567  22.981   7.055
10659POPC   C4B64750  11.524  22.970   7.355
10660POPC   NC364751  24.485  26.830   5.555
10660POPC   PO464752  24.517  26.850   5.855
10660POPC   GL164753  24.461  26.800   6.155
10660POPC   GL264754  24.437  26.906   6.155
10660POPC   C1A64755  24.462  26.840   6.455
10660POPC   D2A64756  24.469  26.828   6.755
10660POPC   C3A64757  24.497  26.782   7.055
10660POPC   C4A64758  24.498  26.784   7.355
10660POPC   C1B64759  24.394  27.011   6.455
10660POPC   C2B64760  24.460  27.023   6.755
10660POPC   C3B64761  24.387  27.019   7.055
10660POPC   C4B64762  24.415  27.104   7.355
10661POPC   NC364763   3.566  39.277   5.555
10661POPC   PO464764   3.517  39.211   5.855
10661POPC   GL164765   3.528  39.263   6.155
10661POPC   GL264766   3.664  39.141   6.155
10661POPC   C1A64767   3.572  39.218   6.455
10661POPC   D2A64768   3.538  39.242   6.755
10661POPC   C3A64769   3.507  39.274   7.055
10661POPC   C4A64770   3.538  39.223   7.355
10661POPC   C1B64771   3.684  39.093   6.455
10661POPC   C2B64772   3.761  39.031   6.755
10661POPC   C3B64773   3.765  39.053   7.055
10661POPC   C4B64774   3.700  39.051   7.355
10662POPC   NC364775   1.213  32.201   5.555
10662POPC   PO464776   1.221  32.221   5.855
10662POPC   GL164777   1.256  32.273   6.155
10662POPC   GL264778   1.169  32.087   6.155
10662POPC   C1A64779   1.197  32.204   6.455
10662POPC   D2A64780   1.220  32.233   6.755
10662POPC   C3A64781   1.217  32.293   7.055
10662POPC   C4A64782   1.261  32.265   7.355
10662POPC   C1B64783   1.164  32.047   6.455
10662POPC   C2B64784   1.213  32.034   6.755
10662POPC   C3B64785   1.173  32.039   7.055
10662POPC   C4B64786   1.170  31.989   7.355
10663POPC   NC364787  37.724   2.760   5.555
10663POPC   PO464788  37.668   2.797   5.855
10663POPC   GL164789  37.665   2.808   6.155
10663POPC   GL264790  37.732   2.623   6.155
10663POPC   C1A64791  37.652   2.734   6.455
10663POPC   D2A64792  37.692   2.800   6.755
10663POPC   C3A64793  37.667   2.783   7.055
10663POPC   C4A64794  37.683   2.752   7.355
10663POPC   C1B64795  37.783   2.520   6.455
10663POPC   C2B64796  37.811   2.498   6.755
10663POPC   C3B64797  37.772   2.591   7.055
10663POPC   C4B64798  37.754   2.540   7.355
10664POPC   NC364799  36.133  33.046   5.555
10664POPC   PO464800  36.176  33.040   5.855
10664POPC   GL164801  36.098  32.993   6.155
10664POPC   GL264802  36.140  33.194   6.155
10664POPC   C1A64803  36.144  32.990   6.455
10664POPC   D2A64804  36.130  32.995   6.755
10664POPC   C3A64805  36.087  33.011   7.055
10664POPC   C4A64806  36.165  33.067   7.355
10664POPC   C1B64807  36.049  33.251   6.455
10664POPC   C2B64808  36.038  33.251   6.755
10664POPC   C3B64809  36.102  33.233   7.055
10664POPC   C4B64810  36.079  33.291   7.355
10665POPC   NC364811  43.896  39.214   5.555
10665POPC   PO464812  43.842  39.261   5.855
10665POPC   GL164813  43.919  39.231   6.155
10665POPC   GL264814  43.742  39.224   6.155
10665POPC   C1A64815  43.876  39.264   6.455
10665POPC   D2A64816  43.907  39.196   6.755
10665POPC   C3A64817  43.868  39.261   7.055
10665POPC   C4A64818  43.925  39.272   7.355
10665POPC   C1B64819  43.655  39.147   6.455
10665POPC   C2B64820  43.673  39.164   6.755
10665POPC   C3B64821  43.623  39.157   7.055
10665POPC   C4B64822  43.653  39.146   7.355
10666POPC   NC364823   2.785  32.992   5.555
10666POPC   PO464824   2.725  33.060   5.855
10666POPC   GL164825   2.756  33.055   6.155
10666POPC   GL264826   2.668  32.909   6.155
10666POPC   C1A64827   2.754  32.998   6.455
10666POPC   D2A64828   2.724  33.031   6.755
10666POPC   C3A64829   2.767  33.023   7.055
10666POPC   C4A64830   2.815  33.021   7.355
10666POPC   C1B64831   2.554  32.820   6.455
10666POPC   C2B64832   2.540  32.829   6.755
10666POPC   C3B64833   2.623  32.854   7.055
10666POPC   C4B64834   2.626  32.869   7.355
10667POPC   NC364835  26.798  33.008   5.555
10667POPC   PO464836  26.817  33.067   5.855
10667POPC   GL164837  26.800  32.999   6.155
10667POPC   GL264838  26.928  33.145   6.155
10667POPC   C1A64839  26.780  33.026   6.455
10667POPC   D2A64840  26.843  33.018   6.755
10667POPC   C3A64841  26.828  33.072   7.055
10667POPC   C4A64842  26.775  33.004   7.355
10667POPC   C1B64843  26.999  33.147   6.455
10667POPC   C2B64844  27.025  33.231   6.755
10667POPC   C3B64845  27.036  33.243   7.055
10667POPC   C4B64846  27.038  33.166   7.355
10668POPC   NC364847  38.429  13.627   5.555
10668POPC   PO464848  38.432  13.614   5.855
10668POPC   GL164849  38.408  13.622   6.155
10668POPC   GL264850  38.557  13.641   6.155
10668POPC   C1A64851  38.474  13.662   6.455
10668POPC   D2A64852  38.462  13.584   6.755
10668POPC   C3A64853  38.481  13.633   7.055
10668POPC   C4A64854  38.441  13.649   7.355
10668POPC   C1B64855  38.744  13.701   6.455
10668POPC   C2B64856  38.742  13.731   6.755
10668POPC   C3B64857  38.733  13.708   7.055
10668POPC   C4B64858  38.728  13.706   7.355
10669POPC   NC364859   9.770  27.609   5.555
10669POPC   PO464860   9.750  27.613   5.855
10669POPC   GL164861   9.756  27.630   6.155
10669POPC   GL264862   9.698  27.719   6.155
10669POPC   C1A64863   9.795  27.630   6.455
10669POPC   D2A64864   9.793  27.616   6.755
10669POPC   C3A64865   9.774  27.589   7.055
10669POPC   C4A64866   9.795  27.547   7.355
10669POPC   C1B64867   9.617  27.828   6.455
10669POPC   C2B64868   9.574  27.805   6.755
10669POPC   C3B64869   9.588  27.789   7.055
10669POPC   C4B64870   9.607  27.777   7.355
10670POPC   NC364871  40.807   8.991   5.555
10670POPC   PO464872  40.734   9.009   5.855
10670POPC   GL164873  40.737   9.021   6.155
10670POPC   GL264874  40.884   8.950   6.155
10670POPC   C1A64875  40.777   9.021   6.455
10670POPC   D2A64876  40.825   8.981   6.755
10670POPC   C3A64877  40.794   8.953   7.055
10670POPC   C4A64878  40.803   9.006   7.355
10670POPC   C1B64879  41.005   8.960   6.455
10670POPC   C2B64880  41.000   8.945   6.755
10670POPC   C3B64881  40.980   8.873   7.055
10670POPC   C4B64882  41.054   8.951   7.355
10671POPC   NC364883  17.457  29.932   5.555
10671POPC   PO464884  17.473  29.950   5.855
10671POPC   GL164885  17.494  29.956   6.155
10671POPC   GL264886  17.491  30.064   6.155
10671POPC   C1A64887  17.546  29.890   6.455
10671POPC   D2A64888  17.506  29.880   6.755
10671POPC   C3A64889  17.470  29.937   7.055
10671POPC   C4A64890  17.509  29.889   7.355
10671POPC   C1B64891  17.580  30.194   6.455
10671POPC   C2B64892  17.571  30.139   6.755
10671POPC   C3B64893  17.521  30.203   7.055
10671POPC   C4B64894  17.566  30.153   7.355
10672POPC   NC364895  28.397   3.585   5.555
10672POPC   PO464896  28.341   3.507   5.855
10672POPC   GL164897  28.322   3.560   6.155
10672POPC   GL264898  28.301   3.446   6.155
10672POPC   C1A64899  28.327   3.550   6.455
10672POPC   D2A64900  28.381   3.590   6.755
10672POPC   C3A64901  28.327   3.552   7.055
10672POPC   C4A64902  28.380   3.555   7.355
10672POPC   C1B64903  28.325   3.332   6.455
10672POPC   C2B64904  28.255   3.333   6.755
10672POPC   C3B64905  28.292   3.305   7.055
10672POPC   C4B64906  28.343   3.299   7.355
10673POPC   NC364907  44.702  43.862   5.555
10673POPC   PO464908  44.615  43.904   5.855
10673POPC   GL164909  44.684  43.870   6.155
10673POPC   GL264910  44.540  43.958   6.155
10673POPC   C1A64911  44.621  43.915   6.455
10673POPC   D2A64912  44.671  43.888   6.755
10673POPC   C3A64913  44.701  43.927   7.055
10673POPC   C4A64914  44.632  43.842   7.355
10673POPC   C1B64915  44.492  44.061   6.455
10673POPC   C2B64916  44.508  44.019   6.755
10673POPC   C3B64917  44.517  44.077   7.055
10673POPC   C4B64918  44.514  44.014   7.355
10674POPC   NC364919  27.580  18.316   5.555
10674POPC   PO464920  27.619  18.298   5.855
10674POPC   GL164921  27.606  18.241   6.155
10674POPC   GL264922  27.515  18.217   6.155
10674POPC   C1A64923  27.548  18.320   6.455
10674POPC   D2A64924  27.640  18.314   6.755
10674POPC   C3A64925  27.569  18.250   7.055
10674POPC   C4A64926  27.563  18.316   7.355
10674POPC   C1B64927  27.421  18.139   6.455
10674POPC   C2B64928  27.351  18.160   6.755
10674POPC   C3B64929  27.341  18.179   7.055
10674POPC   C4B64930  27.409  18.177   7.355
10675POPC   NC364931  40.784  41.590   5.555
10675POPC   PO464932  40.759  41.583   5.855
10675POPC   GL164933  40.791  41.584   6.155
10675POPC   GL264934  40.728  41.702   6.155
10675POPC   C1A64935  40.754  41.604   6.455
10675POPC   D2A64936  40.802  41.608   6.755
10675POPC   C3A64937  40.798  41.559   7.055
10675POPC   C4A64938  40.783  41.603   7.355
10675POPC   C1B64939  40.706  41.795   6.455
10675POPC   C2B64940  40.707  41.839   6.755
10675POPC   C3B64941  40.694  41.842   7.055
10675POPC   C4B64942  40.764  41.782   7.355
10676POPC   NC364943   4.299  35.359   5.555
10676POPC   PO464944   4.360  35.359   5.855
10676POPC   GL164945   4.333  35.350   6.155
10676POPC   GL264946   4.199  35.315   6.155
10676POPC   C1A64947   4.347  35.343   6.455
10676POPC   D2A64948   4.354  35.380   6.755
10676POPC   C3A64949   4.271  35.308   7.055
10676POPC   C4A64950   4.326  35.398   7.355
10676POPC   C1B64951   4.042  35.275   6.455
10676POPC   C2B64952   4.055  35.300   6.755
10676POPC   C3B64953   4.092  35.321   7.055
10676POPC   C4B64954   4.067  35.328   7.355
10677POPC   NC364955  13.622  23.748   5.555
10677POPC   PO464956  13.623  23.687   5.855
10677POPC   GL164957  13.635  23.700   6.155
10677POPC   GL264958  13.524  23.621   6.155
10677POPC   C1A64959  13.649  23.679   6.455
10677POPC   D2A64960  13.596  23.681   6.755
10677POPC   C3A64961  13.618  23.677   7.055
10677POPC   C4A64962  13.583  23.706   7.355
10677POPC   C1B64963  13.446  23.545   6.455
10677POPC   C2B64964  13.411  23.504   6.755
10677POPC   C3B64965  13.493  23.528   7.055
10677POPC   C4B64966  13.464  23.574   7.355
10678POPC   NC364967  17.479   3.535   5.555
10678POPC   PO464968  17.494   3.494   5.855
10678POPC   GL164969  17.545   3.541   6.155
10678POPC   GL264970  17.425   3.637   6.155
10678POPC   C1A64971  17.535   3.501   6.455
10678POPC   D2A64972  17.491   3.509   6.755
10678POPC   C3A64973  17.524   3.566   7.055
10678POPC   C4A64974  17.464   3.544   7.355
10678POPC   C1B64975  17.272   3.735   6.455
10678POPC   C2B64976  17.360   3.737   6.755
10678POPC   C3B64977  17.283   3.723   7.055
10678POPC   C4B64978  17.363   3.749   7.355
10679POPC   NC364979  35.397   7.398   5.555
10679POPC   PO464980  35.391   7.450   5.855
10679POPC   GL164981  35.372   7.401   6.155
10679POPC   GL264982  35.360   7.268   6.155
10679POPC   C1A64983  35.315   7.415   6.455
10679POPC   D2A64984  35.394   7.392   6.755
10679POPC   C3A64985  35.353   7.419   7.055
10679POPC   C4A64986  35.350   7.404   7.355
10679POPC   C1B64987  35.284   7.195   6.455
10679POPC   C2B64988  35.339   7.128   6.755
10679POPC   C3B64989  35.307   7.203   7.055
10679POPC   C4B64990  35.312   7.151   7.355
10680POPC   NC364991   2.031  11.332   5.555
10680POPC   PO464992   2.000  11.279   5.855
10680POPC   GL164993   1.981  11.335   6.155
10680POPC   GL264994   2.044  11.166   6.155
10680POPC   C1A64995   1.974  11.341   6.455
10680POPC   D2A64996   1.944  11.337   6.755
10680POPC   C3A64997   2.032  11.263   7.055
10680POPC   C4A64998   1.978  11.343   7.355
10680POPC   C1B64999   2.042  11.085   6.455
10680POPC   C2B65000   1.993  11.067   6.755
10680POPC   C3B65001   2.072  11.046   7.055
10680POPC   C4B65002   2.059  11.079   7.355
10681POPC   NC365003  38.455  23.754   5.555
10681POPC   PO465004  38.433  23.722   5.855
10681POPC   GL165005  38.486  23.746   6.155
10681POPC   GL265006  38.369  23.600   6.155
10681POPC   C1A65007  38.434  23.689   6.455
10681POPC   D2A65008  38.426  23.694   6.755
10681POPC   C3A65009  38.477  23.706   7.055
10681POPC   C4A65010  38.434  23.746   7.355
10681POPC   C1B65011  38.233  23.509   6.455
10681POPC   C2B65012  38.279  23.555   6.755
10681POPC   C3B65013  38.316  23.560   7.055
10681POPC   C4B65014  38.276  23.510   7.355
10682POPC   NC365015  21.343  39.185   5.555
10682POPC   PO465016  21.371  39.256   5.855
10682POPC   GL165017  21.367  39.232   6.155
10682POPC   GL265018  21.261  39.376   6.155
10682POPC   C1A65019  21.380  39.211   6.455
10682POPC   D2A65020  21.425  39.241   6.755
10682POPC   C3A65021  21.367  39.273   7.055
10682POPC   C4A65022  21.417  39.263   7.355
10682POPC   C1B65023  21.235  39.458   6.455
10682POPC   C2B65024  21.245  39.449   6.755
10682POPC   C3B65025  21.242  39.435   7.055
10682POPC   C4B65026  21.217  39.379   7.355
10683POPC   NC365027  17.492  26.826   5.555
10683POPC   PO465028  17.520  26.769   5.855
10683POPC   GL165029  17.542  26.787   6.155
10683POPC   GL265030  17.392  26.912   6.155
10683POPC   C1A65031  17.459  26.772   6.455
10683POPC   D2A65032  17.523  26.783   6.755
10683POPC   C3A65033  17.525  26.798   7.055
10683POPC   C4A65034  17.492  26.824   7.355
10683POPC   C1B65035  17.254  27.002   6.455
10683POPC   C2B65036  17.306  26.935   6.755
10683POPC   C3B65037  17.264  26.917   7.055
10683POPC   C4B65038  17.315  26.951   7.355
10684POPC   NC365039  41.528  14.428   5.555
10684POPC   PO465040  41.574  14.360   5.855
10684POPC   GL165041  41.555  14.371   6.155
10684POPC   GL265042  41.410  14.320   6.155
10684POPC   C1A65043  41.590  14.422   6.455
10684POPC   D2A65044  41.574  14.411   6.755
10684POPC   C3A65045  41.589  14.390   7.055
10684POPC   C4A65046  41.544  14.365   7.355
10684POPC   C1B65047  41.314  14.329   6.455
10684POPC   C2B65048  41.304  14.352   6.755
10684POPC   C3B65049  41.295  14.311   7.055
10684POPC   C4B65050  41.363  14.289   7.355
10685POPC   NC365051   6.631  12.862   5.555
10685POPC   PO465052   6.671  12.802   5.855
10685POPC   GL165053   6.651  12.882   6.155
10685POPC   GL265054   6.750  12.908   6.155
10685POPC   C1A65055   6.689  12.882   6.455
10685POPC   D2A65056   6.604  12.900   6.755
10685POPC   C3A65057   6.636  12.851   7.055
10685POPC   C4A65058   6.609  12.896   7.355
10685POPC   C1B65059   6.761  13.083   6.455
10685POPC   C2B65060   6.744  13.047   6.755
10685POPC   C3B65061   6.752  13.021   7.055
10685POPC   C4B65062   6.775  13.064   7.355
10686POPC   NC365063  30.667  39.984   5.555
10686POPC   PO465064  30.694  39.997   5.855
10686POPC   GL165065  30.709  39.979   6.155
10686POPC   GL265066  30.563  39.986   6.155
10686POPC   C1A65067  30.730  39.996   6.455
10686POPC   D2A65068  30.727  40.052   6.755
10686POPC   C3A65069  30.661  40.049   7.055
10686POPC   C4A65070  30.657  40.010   7.355
10686POPC   C1B65071  30.423  39.880   6.455
10686POPC   C2B65072  30.450  39.970   6.755
10686POPC   C3B65073  30.428  39.878   7.055
10686POPC   C4B65074  30.496  39.964   7.355
10687POPC   NC365075  40.045  33.015   5.555
10687POPC   PO465076  40.025  33.068   5.855
10687POPC   GL165077  39.960  33.054   6.155
10687POPC   GL265078  40.063  32.910   6.155
10687POPC   C1A65079  39.979  33.053   6.455
10687POPC   D2A65080  39.968  32.994   6.755
10687POPC   C3A65081  40.006  33.045   7.055
10687POPC   C4A65082  40.043  32.991   7.355
10687POPC   C1B65083  40.212  32.849   6.455
10687POPC   C2B65084  40.185  32.919   6.755
10687POPC   C3B65085  40.180  32.852   7.055
10687POPC   C4B65086  40.161  32.852   7.355
10688POPC   NC365087  25.231  33.026   5.555
10688POPC   PO465088  25.304  33.049   5.855
10688POPC   GL165089  25.229  32.992   6.155
10688POPC   GL265090  25.378  33.050   6.155
10688POPC   C1A65091  25.235  32.981   6.455
10688POPC   D2A65092  25.289  33.024   6.755
10688POPC   C3A65093  25.294  33.034   7.055
10688POPC   C4A65094  25.270  32.997   7.355
10688POPC   C1B65095  25.487  33.179   6.455
10688POPC   C2B65096  25.511  33.110   6.755
10688POPC   C3B65097  25.441  33.116   7.055
10688POPC   C4B65098  25.469  33.140   7.355
10689POPC   NC365099  15.952  24.525   5.555
10689POPC   PO465100  15.912  24.453   5.855
10689POPC   GL165101  15.966  24.511   6.155
10689POPC   GL265102  15.881  24.406   6.155
10689POPC   C1A65103  15.930  24.459   6.455
10689POPC   D2A65104  15.948  24.445   6.755
10689POPC   C3A65105  15.993  24.538   7.055
10689POPC   C4A65106  15.981  24.455   7.355
10689POPC   C1B65107  15.702  24.423   6.455
10689POPC   C2B65108  15.684  24.441   6.755
10689POPC   C3B65109  15.743  24.402   7.055
10689POPC   C4B65110  15.770  24.418   7.355
10690POPC   NC365111  29.159   3.562   5.555
10690POPC   PO465112  29.142   3.590   5.855
10690POPC   GL165113  29.096   3.549   6.155
10690POPC   GL265114  29.267   3.537   6.155
10690POPC   C1A65115  29.103   3.540   6.455
10690POPC   D2A65116  29.170   3.494   6.755
10690POPC   C3A65117  29.174   3.585   7.055
10690POPC   C4A65118  29.129   3.503   7.355
10690POPC   C1B65119  29.389   3.552   6.455
10690POPC   C2B65120  29.424   3.615   6.755
10690POPC   C3B65121  29.423   3.612   7.055
10690POPC   C4B65122  29.404   3.623   7.355
10691POPC   NC365123  36.879  30.743   5.555
10691POPC   PO465124  36.915  30.703   5.855
10691POPC   GL165125  36.918  30.684   6.155
10691POPC   GL265126  37.036  30.821   6.155
10691POPC   C1A65127  36.906  30.698   6.455
10691POPC   D2A65128  36.872  30.730   6.755
10691POPC   C3A65129  36.922  30.677   7.055
10691POPC   C4A65130  36.862  30.658   7.355
10691POPC   C1B65131  37.057  30.882   6.455
10691POPC   C2B65132  37.033  30.865   6.755
10691POPC   C3B65133  37.043  30.848   7.055
10691POPC   C4B65134  37.103  30.880   7.355
10692POPC   NC365135  12.079  33.844   5.555
10692POPC   PO465136  12.122  33.782   5.855
10692POPC   GL165137  12.116  33.777   6.155
10692POPC   GL265138  12.047  33.969   6.155
10692POPC   C1A65139  12.082  33.753   6.455
10692POPC   D2A65140  12.047  33.797   6.755
10692POPC   C3A65141  12.085  33.784   7.055
10692POPC   C4A65142  12.100  33.830   7.355
10692POPC   C1B65143  12.042  34.085   6.455
10692POPC   C2B65144  12.074  34.076   6.755
10692POPC   C3B65145  12.052  34.011   7.055
10692POPC   C4B65146  12.071  34.005   7.355
10693POPC   NC365147  19.104  29.958   5.555
10693POPC   PO465148  19.028  29.873   5.855
10693POPC   GL165149  19.041  29.872   6.155
10693POPC   GL265150  19.177  30.007   6.155
10693POPC   C1A65151  19.029  29.890   6.455
10693POPC   D2A65152  19.068  29.957   6.755
10693POPC   C3A65153  19.044  29.904   7.055
10693POPC   C4A65154  19.104  29.922   7.355
10693POPC   C1B65155  19.301  30.057   6.455
10693POPC   C2B65156  19.274  30.078   6.755
10693POPC   C3B65157  19.213  30.100   7.055
10693POPC   C4B65158  19.253  30.083   7.355
10694POPC   NC365159  16.724   9.725   5.555
10694POPC   PO465160  16.693   9.777   5.855
10694POPC   GL165161  16.687   9.706   6.155
10694POPC   GL265162  16.622   9.791   6.155
10694POPC   C1A65163  16.760   9.733   6.455
10694POPC   D2A65164  16.749   9.738   6.755
10694POPC   C3A65165  16.691   9.703   7.055
10694POPC   C4A65166  16.740   9.751   7.355
10694POPC   C1B65167  16.514   9.875   6.455
10694POPC   C2B65168  16.489   9.814   6.755
10694POPC   C3B65169  16.493   9.834   7.055
10694POPC   C4B65170  16.483   9.829   7.355
10695POPC   NC365171  41.601  26.006   5.555
10695POPC   PO465172  41.512  26.044   5.855
10695POPC   GL165173  41.581  26.029   6.155
10695POPC   GL265174  41.449  26.175   6.155
10695POPC   C1A65175  41.526  26.085   6.455
10695POPC   D2A65176  41.584  26.083   6.755
10695POPC   C3A65177  41.597  26.083   7.055
10695POPC   C4A65178  41.603  26.051   7.355
10695POPC   C1B65179  41.436  26.211   6.455
10695POPC   C2B65180  41.362  26.290   6.755
10695POPC   C3B65181  41.404  26.212   7.055
10695POPC   C4B65182  41.373  26.272   7.355
10696POPC   NC365183  35.343   9.704   5.555
10696POPC   PO465184  35.388   9.709   5.855
10696POPC   GL165185  35.312   9.702   6.155
10696POPC   GL265186  35.219   9.808   6.155
10696POPC   C1A65187  35.351   9.743   6.455
10696POPC   D2A65188  35.391   9.790   6.755
10696POPC   C3A65189  35.380   9.765   7.055
10696POPC   C4A65190  35.327   9.722   7.355
10696POPC   C1B65191  35.110   9.924   6.455
10696POPC   C2B65192  35.162   9.932   6.755
10696POPC   C3B65193  35.196   9.908   7.055
10696POPC   C4B65194  35.195   9.881   7.355
10697POPC   NC365195  43.074  13.665   5.555
10697POPC   PO465196  43.102  13.633   5.855
10697POPC   GL165197  43.070  13.637   6.155
10697POPC   GL265198  43.164  13.713   6.155
10697POPC   C1A65199  43.119  13.605   6.455
10697POPC   D2A65200  43.118  13.631   6.755
10697POPC   C3A65201  43.109  13.648   7.055
10697POPC   C4A65202  43.151  13.654   7.355
10697POPC   C1B65203  43.096  13.904   6.455
10697POPC   C2B65204  43.177  13.845   6.755
10697POPC   C3B65205  43.111  13.886   7.055
10697POPC   C4B65206  43.167  13.888   7.355
10698POPC   NC365207  15.955  31.450   5.555
10698POPC   PO465208  15.962  31.454   5.855
10698POPC   GL165209  15.906  31.521   6.155
10698POPC   GL265210  15.864  31.370   6.155
10698POPC   C1A65211  15.911  31.460   6.455
10698POPC   D2A65212  15.953  31.441   6.755
10698POPC   C3A65213  15.935  31.503   7.055
10698POPC   C4A65214  15.907  31.446   7.355
10698POPC   C1B65215  15.895  31.260   6.455
10698POPC   C2B65216  15.870  31.231   6.755
10698POPC   C3B65217  15.824  31.274   7.055
10698POPC   C4B65218  15.861  31.200   7.355
10699POPC   NC365219  39.230   8.940   5.555
10699POPC   PO465220  39.251   8.933   5.855
10699POPC   GL165221  39.232   8.969   6.155
10699POPC   GL265222  39.139   9.081   6.155
10699POPC   C1A65223  39.194   8.982   6.455
10699POPC   D2A65224  39.243   8.972   6.755
10699POPC   C3A65225  39.276   8.951   7.055
10699POPC   C4A65226  39.231   9.007   7.355
10699POPC   C1B65227  39.049   9.146   6.455
10699POPC   C2B65228  39.082   9.150   6.755
10699POPC   C3B65229  39.102   9.143   7.055
10699POPC   C4B65230  39.135   9.154   7.355
10700POPC   NC365231   7.455   1.243   5.555
10700POPC   PO465232   7.404   1.197   5.855
10700POPC   GL165233   7.418   1.184   6.155
10700POPC   GL265234   7.334   1.120   6.155
10700POPC   C1A65235   7.397   1.199   6.455
10700POPC   D2A65236   7.430   1.206   6.755
10700POPC   C3A65237   7.410   1.206   7.055
10700POPC   C4A65238   7.429   1.206   7.355
10700POPC   C1B65239   7.221   1.022   6.455
10700POPC   C2B65240   7.195   1.038   6.755
10700POPC   C3B65241   7.210   1.065   7.055
10700POPC   C4B65242   7.221   1.044   7.355
10701POPC   NC365243  11.294   6.672   5.555
10701POPC   PO465244  11.262   6.624   5.855
10701POPC   GL165245  11.314   6.664   6.155
10701POPC   GL265246  11.149   6.708   6.155
10701POPC   C1A65247  11.288   6.685   6.455
10701POPC   D2A65248  11.288   6.632   6.755
10701POPC   C3A65249  11.319   6.664   7.055
10701POPC   C4A65250  11.304   6.636   7.355
10701POPC   C1B65251  11.062   6.756   6.455
10701POPC   C2B65252  11.112   6.758   6.755
10701POPC   C3B65253  11.034   6.765   7.055
10701POPC   C4B65254  11.105   6.776   7.355
10702POPC   NC365255  23.703   4.286   5.555
10702POPC   PO465256  23.674   4.278   5.855
10702POPC   GL165257  23.673   4.365   6.155
10702POPC   GL265258  23.641   4.213   6.155
10702POPC   C1A65259  23.688   4.317   6.455
10702POPC   D2A65260  23.706   4.303   6.755
10702POPC   C3A65261  23.699   4.300   7.055
10702POPC   C4A65262  23.755   4.303   7.355
10702POPC   C1B65263  23.518   4.146   6.455
10702POPC   C2B65264  23.493   4.209   6.755
10702POPC   C3B65265  23.534   4.168   7.055
10702POPC   C4B65266  23.498   4.219   7.355
10703POPC   NC365267   5.831   6.660   5.555
10703POPC   PO465268   5.905   6.600   5.855
10703POPC   GL165269   5.873   6.620   6.155
10703POPC   GL265270   5.752   6.596   6.155
10703POPC   C1A65271   5.849   6.641   6.455
10703POPC   D2A65272   5.883   6.627   6.755
10703POPC   C3A65273   5.841   6.688   7.055
10703POPC   C4A65274   5.830   6.644   7.355
10703POPC   C1B65275   5.706   6.450   6.455
10703POPC   C2B65276   5.638   6.471   6.755
10703POPC   C3B65277   5.713   6.470   7.055
10703POPC   C4B65278   5.720   6.521   7.355
10704POPC   NC365279  22.130   5.141   5.555
10704POPC   PO465280  22.189   5.124   5.855
10704POPC   GL165281  22.210   5.086   6.155
10704POPC   GL265282  22.057   5.157   6.155
10704POPC   C1A65283  22.145   5.048   6.455
10704POPC   D2A65284  22.155   5.051   6.755
10704POPC   C3A65285  22.189   5.085   7.055
10704POPC   C4A65286  22.116   5.119   7.355
10704POPC   C1B65287  21.983   5.341   6.455
10704POPC   C2B65288  22.062   5.297   6.755
10704POPC   C3B65289  22.062   5.256   7.055
10704POPC   C4B65290  21.996   5.267   7.355
10705POPC   NC365291  33.799   6.649   5.555
10705POPC   PO465292  33.824   6.663   5.855
10705POPC   GL165293  33.833   6.636   6.155
10705POPC   GL265294  33.937   6.636   6.155
10705POPC   C1A65295  33.827   6.654   6.455
10705POPC   D2A65296  33.800   6.672   6.755
10705POPC   C3A65297  33.775   6.626   7.055
10705POPC   C4A65298  33.792   6.603   7.355
10705POPC   C1B65299  34.008   6.519   6.455
10705POPC   C2B65300  34.022   6.543   6.755
10705POPC   C3B65301  34.012   6.568   7.055
10705POPC   C4B65302  34.035   6.573   7.355
10706POPC   NC365303  23.738   5.889   5.555
10706POPC   PO465304  23.682   5.882   5.855
10706POPC   GL165305  23.705   5.837   6.155
10706POPC   GL265306  23.586   5.738   6.155
10706POPC   C1A65307  23.729   5.861   6.455
10706POPC   D2A65308  23.760   5.895   6.755
10706POPC   C3A65309  23.700   5.855   7.055
10706POPC   C4A65310  23.681   5.889   7.355
10706POPC   C1B65311  23.522   5.704   6.455
10706POPC   C2B65312  23.547   5.671   6.755
10706POPC   C3B65313  23.572   5.650   7.055
10706POPC   C4B65314  23.512   5.666   7.355
10707POPC   NC365315   5.898   1.251   5.555
10707POPC   PO465316   5.851   1.210   5.855
10707POPC   GL165317   5.829   1.191   6.155
10707POPC   GL265318   5.938   1.106   6.155
10707POPC   C1A65319   5.883   1.256   6.455
10707POPC   D2A65320   5.890   1.226   6.755
10707POPC   C3A65321   5.918   1.170   7.055
10707POPC   C4A65322   5.828   1.248   7.355
10707POPC   C1B65323   5.964   0.973   6.455
10707POPC   C2B65324   5.957   1.003   6.755
10707POPC   C3B65325   5.983   1.003   7.055
10707POPC   C4B65326   5.980   0.981   7.355
10708POPC   NC365327   6.633  20.616   5.555
10708POPC   PO465328   6.631  20.590   5.855
10708POPC   GL165329   6.639  20.660   6.155
10708POPC   GL265330   6.511  20.706   6.155
10708POPC   C1A65331   6.638  20.595   6.455
10708POPC   D2A65332   6.646  20.577   6.755
10708POPC   C3A65333   6.606  20.636   7.055
10708POPC   C4A65334   6.607  20.581   7.355
10708POPC   C1B65335   6.434  20.718   6.455
10708POPC   C2B65336   6.448  20.761   6.755
10708POPC   C3B65337   6.392  20.717   7.055
10708POPC   C4B65338   6.473  20.702   7.355
10709POPC   NC365339  13.623   6.635   5.555
10709POPC   PO465340  13.634   6.638   5.855
10709POPC   GL165341  13.587   6.690   6.155
10709POPC   GL265342  13.486   6.619   6.155
10709POPC   C1A65343  13.612   6.661   6.455
10709POPC   D2A65344  13.633   6.683   6.755
10709POPC   C3A65345  13.607   6.602   7.055
10709POPC   C4A65346  13.623   6.676   7.355
10709POPC   C1B65347  13.417   6.592   6.455
10709POPC   C2B65348  13.363   6.645   6.755
10709POPC   C3B65349  13.357   6.631   7.055
10709POPC   C4B65350  13.343   6.567   7.355
10710POPC   NC365351  32.216   4.310   5.555
10710POPC   PO465352  32.230   4.331   5.855
10710POPC   GL165353  32.288   4.305   6.155
10710POPC   GL265354  32.269   4.391   6.155
10710POPC   C1A65355  32.281   4.354   6.455
10710POPC   D2A65356  32.234   4.363   6.755
10710POPC   C3A65357  32.287   4.268   7.055
10710POPC   C4A65358  32.264   4.313   7.355
10710POPC   C1B65359  32.277   4.609   6.455
10710POPC   C2B65360  32.271   4.529   6.755
10710POPC   C3B65361  32.349   4.524   7.055
10710POPC   C4B65362  32.337   4.606   7.355
10711POPC   NC365363  11.324  42.340   5.555
10711POPC   PO465364  11.280  42.320   5.855
10711POPC   GL165365  11.314  42.359   6.155
10711POPC   GL265366  11.294  42.242   6.155
10711POPC   C1A65367  11.348  42.377   6.455
10711POPC   D2A65368  11.279  42.349   6.755
10711POPC   C3A65369  11.335  42.303   7.055
10711POPC   C4A65370  11.253  42.351   7.355
10711POPC   C1B65371  11.187  42.101   6.455
10711POPC   C2B65372  11.215  42.067   6.755
10711POPC   C3B65373  11.167  42.062   7.055
10711POPC   C4B65374  11.205  42.057   7.355
10712POPC   NC365375   3.587  16.704   5.555
10712POPC   PO465376   3.568  16.737   5.855
10712POPC   GL165377   3.504  16.690   6.155
10712POPC   GL265378   3.661  16.698   6.155
10712POPC   C1A65379   3.576  16.726   6.455
10712POPC   D2A65380   3.494  16.741   6.755
10712POPC   C3A65381   3.561  16.704   7.055
10712POPC   C4A65382   3.520  16.695   7.355
10712POPC   C1B65383   3.816  16.759   6.455
10712POPC   C2B65384   3.759  16.681   6.755
10712POPC   C3B65385   3.810  16.729   7.055
10712POPC   C4B65386   3.816  16.765   7.355
10713POPC   NC365387  36.887  10.526   5.555
10713POPC   PO465388  36.882  10.500   5.855
10713POPC   GL165389  36.882  10.490   6.155
10713POPC   GL265390  36.803  10.451   6.155
10713POPC   C1A65391  36.914  10.480   6.455
10713POPC   D2A65392  36.930  10.493   6.755
10713POPC   C3A65393  36.877  10.526   7.055
10713POPC   C4A65394  36.909  10.526   7.355
10713POPC   C1B65395  36.654  10.369   6.455
10713POPC   C2B65396  36.655  10.436   6.755
10713POPC   C3B65397  36.672  10.415   7.055
10713POPC   C4B65398  36.725  10.446   7.355
10714POPC   NC365399   1.979   8.173   5.555
10714POPC   PO465400   1.965   8.168   5.855
10714POPC   GL165401   2.027   8.177   6.155
10714POPC   GL265402   2.015   8.087   6.155
10714POPC   C1A65403   1.959   8.183   6.455
10714POPC   D2A65404   1.982   8.192   6.755
10714POPC   C3A65405   2.037   8.235   7.055
10714POPC   C4A65406   1.940   8.218   7.355
10714POPC   C1B65407   1.928   7.955   6.455
10714POPC   C2B65408   1.983   7.922   6.755
10714POPC   C3B65409   1.906   7.981   7.055
10714POPC   C4B65410   1.932   7.934   7.355
10715POPC   NC365411  42.363  32.297   5.555
10715POPC   PO465412  42.370  32.210   5.855
10715POPC   GL165413  42.328  32.267   6.155
10715POPC   GL265414  42.437  32.190   6.155
10715POPC   C1A65415  42.316  32.247   6.455
10715POPC   D2A65416  42.340  32.211   6.755
10715POPC   C3A65417  42.337  32.221   7.055
10715POPC   C4A65418  42.381  32.205   7.355
10715POPC   C1B65419  42.620  32.233   6.455
10715POPC   C2B65420  42.573  32.228   6.755
10715POPC   C3B65421  42.562  32.235   7.055
10715POPC   C4B65422  42.615  32.236   7.355
10716POPC   NC365423  15.212  35.376   5.555
10716POPC   PO465424  15.221  35.303   5.855
10716POPC   GL165425  15.146  35.328   6.155
10716POPC   GL265426  15.281  35.222   6.155
10716POPC   C1A65427  15.222  35.401   6.455
10716POPC   D2A65428  15.187  35.337   6.755
10716POPC   C3A65429  15.223  35.377   7.055
10716POPC   C4A65430  15.151  35.311   7.355
10716POPC   C1B65431  15.392  35.211   6.455
10716POPC   C2B65432  15.304  35.120   6.755
10716POPC   C3B65433  15.300  35.199   7.055
10716POPC   C4B65434  15.358  35.150   7.355
10717POPC   NC365435   5.139  15.225   5.555
10717POPC   PO465436   5.137  15.205   5.855
10717POPC   GL165437   5.137  15.191   6.155
10717POPC   GL265438   5.187  15.185   6.155
10717POPC   C1A65439   5.132  15.175   6.455
10717POPC   D2A65440   5.052  15.179   6.755
10717POPC   C3A65441   5.064  15.134   7.055
10717POPC   C4A65442   5.080  15.132   7.355
10717POPC   C1B65443   5.374  15.156   6.455
10717POPC   C2B65444   5.379  15.157   6.755
10717POPC   C3B65445   5.304  15.164   7.055
10717POPC   C4B65446   5.310  15.147   7.355
10718POPC   NC365447  34.599  29.872   5.555
10718POPC   PO465448  34.571  29.922   5.855
10718POPC   GL165449  34.561  29.883   6.155
10718POPC   GL265450  34.479  29.945   6.155
10718POPC   C1A65451  34.605  29.890   6.455
10718POPC   D2A65452  34.565  29.949   6.755
10718POPC   C3A65453  34.539  29.937   7.055
10718POPC   C4A65454  34.562  29.944   7.355
10718POPC   C1B65455  34.288  29.972   6.455
10718POPC   C2B65456  34.344  29.915   6.755
10718POPC   C3B65457  34.304  29.925   7.055
10718POPC   C4B65458  34.361  29.923   7.355
10719POPC   NC365459  15.986  12.901   5.555
10719POPC   PO465460  15.976  12.892   5.855
10719POPC   GL165461  15.923  12.881   6.155
10719POPC   GL265462  15.984  12.772   6.155
10719POPC   C1A65463  15.919  12.874   6.455
10719POPC   D2A65464  15.921  12.884   6.755
10719POPC   C3A65465  15.911  12.897   7.055
10719POPC   C4A65466  15.932  12.850   7.355
10719POPC   C1B65467  15.931  12.628   6.455
10719POPC   C2B65468  15.903  12.610   6.755
10719POPC   C3B65469  15.964  12.576   7.055
10719POPC   C4B65470  15.940  12.640   7.355
10720POPC   NC365471  29.172  26.773   5.555
10720POPC   PO465472  29.105  26.796   5.855
10720POPC   GL165473  29.107  26.780   6.155
10720POPC   GL265474  29.096  26.671   6.155
10720POPC   C1A65475  29.164  26.815   6.455
10720POPC   D2A65476  29.149  26.805   6.755
10720POPC   C3A65477  29.137  26.839   7.055
10720POPC   C4A65478  29.192  26.801   7.355
10720POPC   C1B65479  29.054  26.546   6.455
10720POPC   C2B65480  29.016  26.566   6.755
10720POPC   C3B65481  29.012  26.547   7.055
10720POPC   C4B65482  29.029  26.607   7.355
10721POPC   NC365483   8.222  43.871   5.555
10721POPC   PO465484   8.243  43.919   5.855
10721POPC   GL165485   8.211  43.871   6.155
10721POPC   GL265486   8.297  43.940   6.155
10721POPC   C1A65487   8.196  43.925   6.455
10721POPC   D2A65488   8.157  43.905   6.755
10721POPC   C3A65489   8.181  43.855   7.055
10721POPC   C4A65490   8.244  43.848   7.355
10721POPC   C1B65491   8.318  44.035   6.455
10721POPC   C2B65492   8.359  44.047   6.755
10721POPC   C3B65493   8.359  44.112   7.055
10721POPC   C4B65494   8.328  44.076   7.355
10722POPC   NC365495  12.855   6.642   5.555
10722POPC   PO465496  12.858   6.638   5.855
10722POPC   GL165497  12.885   6.615   6.155
10722POPC   GL265498  12.767   6.684   6.155
10722POPC   C1A65499  12.812   6.673   6.455
10722POPC   D2A65500  12.840   6.634   6.755
10722POPC   C3A65501  12.893   6.670   7.055
10722POPC   C4A65502  12.826   6.689   7.355
10722POPC   C1B65503  12.570   6.720   6.455
10722POPC   C2B65504  12.572   6.780   6.755
10722POPC   C3B65505  12.640   6.690   7.055
10722POPC   C4B65506  12.579   6.691   7.355
10723POPC   NC365507  38.405  22.926   5.555
10723POPC   PO465508  38.446  22.901   5.855
10723POPC   GL165509  38.424  22.926   6.155
10723POPC   GL265510  38.478  22.772   6.155
10723POPC   C1A65511  38.457  22.907   6.455
10723POPC   D2A65512  38.469  22.955   6.755
10723POPC   C3A65513  38.440  22.903   7.055
10723POPC   C4A65514  38.432  22.972   7.355
10723POPC   C1B65515  38.476  22.681   6.455
10723POPC   C2B65516  38.527  22.665   6.755
10723POPC   C3B65517  38.442  22.738   7.055
10723POPC   C4B65518  38.534  22.651   7.355
10724POPC   NC365519  12.037  25.251   5.555
10724POPC   PO465520  12.091  25.300   5.855
10724POPC   GL165521  12.095  25.272   6.155
10724POPC   GL265522  12.006  25.371   6.155
10724POPC   C1A65523  12.053  25.293   6.455
10724POPC   D2A65524  12.124  25.254   6.755
10724POPC   C3A65525  12.097  25.267   7.055
10724POPC   C4A65526  12.041  25.276   7.355
10724POPC   C1B65527  11.956  25.506   6.455
10724POPC   C2B65528  11.951  25.518   6.755
10724POPC   C3B65529  11.961  25.462   7.055
10724POPC   C4B65530  11.997  25.458   7.355
10725POPC   NC365531  19.017   0.462   5.555
10725POPC   PO465532  19.054   0.474   5.855
10725POPC   GL165533  19.066   0.484   6.155
10725POPC   GL265534  19.116   0.313   6.155
10725POPC   C1A65535  19.077   0.403   6.455
10725POPC   D2A65536  19.026   0.452   6.755
10725POPC   C3A65537  19.031   0.473   7.055
10725POPC   C4A65538  19.057   0.424   7.355
10725POPC   C1B65539  19.104   0.220   6.455
10725POPC   C2B65540  19.079   0.158   6.755
10725POPC   C3B65541  19.116   0.199   7.055
10725POPC   C4B65542  19.071   0.186   7.355
10726POPC   NC365543  12.830  12.813   5.555
10726POPC   PO465544  12.809  12.885   5.855
10726POPC   GL165545  12.829  12.815   6.155
10726POPC   GL265546  12.765  12.769   6.155
10726POPC   C1A65547  12.838  12.866   6.455
10726POPC   D2A65548  12.809  12.824   6.755
10726POPC   C3A65549  12.890  12.831   7.055
10726POPC   C4A65550  12.846  12.876   7.355
10726POPC   C1B65551  12.680  12.729   6.455
10726POPC   C2B65552  12.629  12.681   6.755
10726POPC   C3B65553  12.705  12.681   7.055
10726POPC   C4B65554  12.646  12.667   7.355
10727POPC   NC365555   1.239  29.901   5.555
10727POPC   PO465556   1.254  29.911   5.855
10727POPC   GL165557   1.238  29.919   6.155
10727POPC   GL265558   1.243  29.833   6.155
10727POPC   C1A65559   1.244  29.881   6.455
10727POPC   D2A65560   1.178  29.930   6.755
10727POPC   C3A65561   1.248  29.966   7.055
10727POPC   C4A65562   1.185  29.958   7.355
10727POPC   C1B65563   1.309  29.714   6.455
10727POPC   C2B65564   1.383  29.695   6.755
10727POPC   C3B65565   1.348  29.673   7.055
10727POPC   C4B65566   1.387  29.694   7.355
10728POPC   NC365567  40.832  21.392   5.555
10728POPC   PO465568  40.784  21.432   5.855
10728POPC   GL165569  40.757  21.405   6.155
10728POPC   GL265570  40.797  21.221   6.155
10728POPC   C1A65571  40.812  21.394   6.455
10728POPC   D2A65572  40.793  21.380   6.755
10728POPC   C3A65573  40.830  21.419   7.055
10728POPC   C4A65574  40.791  21.377   7.355
10728POPC   C1B65575  40.706  21.155   6.455
10728POPC   C2B65576  40.784  21.143   6.755
10728POPC   C3B65577  40.734  21.127   7.055
10728POPC   C4B65578  40.712  21.156   7.355
10729POPC   NC365579   2.774  44.625   5.555
10729POPC   PO465580   2.765  44.708   5.855
10729POPC   GL165581   2.814  44.643   6.155
10729POPC   GL265582   2.656  44.567   6.155
10729POPC   C1A65583   2.793  44.637   6.455
10729POPC   D2A65584   2.763  44.646   6.755
10729POPC   C3A65585   2.813  44.653   7.055
10729POPC   C4A65586   2.747  44.691   7.355
10729POPC   C1B65587   2.587  44.433   6.455
10729POPC   C2B65588   2.622  44.479   6.755
10729POPC   C3B65589   2.568  44.431   7.055
10729POPC   C4B65590   2.649  44.435   7.355
10730POPC   NC365591   5.878  21.388   5.555
10730POPC   PO465592   5.829  21.385   5.855
10730POPC   GL165593   5.840  21.347   6.155
10730POPC   GL265594   5.945  21.480   6.155
10730POPC   C1A65595   5.874  21.351   6.455
10730POPC   D2A65596   5.866  21.343   6.755
10730POPC   C3A65597   5.861  21.401   7.055
10730POPC   C4A65598   5.883  21.429   7.355
10730POPC   C1B65599   6.003  21.517   6.455
10730POPC   C2B65600   6.049  21.585   6.755
10730POPC   C3B65601   6.004  21.603   7.055
10730POPC   C4B65602   6.063  21.576   7.355
10731POPC   NC365603  32.266   1.169   5.555
10731POPC   PO465604  32.262   1.246   5.855
10731POPC   GL165605  32.280   1.172   6.155
10731POPC   GL265606  32.351   1.169   6.155
10731POPC   C1A65607  32.241   1.244   6.455
10731POPC   D2A65608  32.274   1.169   6.755
10731POPC   C3A65609  32.278   1.169   7.055
10731POPC   C4A65610  32.277   1.204   7.355
10731POPC   C1B65611  32.484   1.133   6.455
10731POPC   C2B65612  32.467   1.127   6.755
10731POPC   C3B65613  32.469   1.075   7.055
10731POPC   C4B65614  32.503   1.088   7.355
10732POPC   NC365615  43.851  19.081   5.555
10732POPC   PO465616  43.906  19.035   5.855
10732POPC   GL165617  43.891  19.104   6.155
10732POPC   GL265618  43.798  19.169   6.155
10732POPC   C1A65619  43.839  19.089   6.455
10732POPC   D2A65620  43.842  19.032   6.755
10732POPC   C3A65621  43.904  19.079   7.055
10732POPC   C4A65622  43.873  19.077   7.355
10732POPC   C1B65623  43.692  19.255   6.455
10732POPC   C2B65624  43.688  19.278   6.755
10732POPC   C3B65625  43.677  19.284   7.055
10732POPC   C4B65626  43.749  19.244   7.355
10733POPC   NC365627   2.786   1.178   5.555
10733POPC   PO465628   2.793   1.209   5.855
10733POPC   GL165629   2.783   1.238   6.155
10733POPC   GL265630   2.775   1.369   6.155
10733POPC   C1A65631   2.749   1.217   6.455
10733POPC   D2A65632   2.742   1.171   6.755
10733POPC   C3A65633   2.736   1.249   7.055
10733POPC   C4A65634   2.772   1.184   7.355
10733POPC   C1B65635   2.786   1.442   6.455
10733POPC   C2B65636   2.841   1.441   6.755
10733POPC   C3B65637   2.787   1.451   7.055
10733POPC   C4B65638   2.813   1.456   7.355
10734POPC   NC365639  14.441  18.323   5.555
10734POPC   PO465640  14.416  18.262   5.855
10734POPC   GL165641  14.398  18.293   6.155
10734POPC   GL265642  14.332  18.317   6.155
10734POPC   C1A65643  14.449  18.267   6.455
10734POPC   D2A65644  14.415  18.321   6.755
10734POPC   C3A65645  14.435  18.259   7.055
10734POPC   C4A65646  14.376  18.269   7.355
10734POPC   C1B65647  14.155  18.387   6.455
10734POPC   C2B65648  14.196  18.436   6.755
10734POPC   C3B65649  14.228  18.370   7.055
10734POPC   C4B65650  14.224  18.429   7.355
10735POPC   NC365651  42.302  28.329   5.555
10735POPC   PO465652  42.355  28.321   5.855
10735POPC   GL165653  42.292  28.413   6.155
10735POPC   GL265654  42.481  28.296   6.155
10735POPC   C1A65655  42.362  28.386   6.455
10735POPC   D2A65656  42.358  28.391   6.755
10735POPC   C3A65657  42.309  28.339   7.055
10735POPC   C4A65658  42.310  28.411   7.355
10735POPC   C1B65659  42.534  28.279   6.455
10735POPC   C2B65660  42.612  28.272   6.755
10735POPC   C3B65661  42.574  28.306   7.055
10735POPC   C4B65662  42.573  28.314   7.355
10736POPC   NC365663  27.548  23.761   5.555
10736POPC   PO465664  27.632  23.681   5.855
10736POPC   GL165665  27.596  23.689   6.155
10736POPC   GL265666  27.727  23.674   6.155
10736POPC   C1A65667  27.636  23.680   6.455
10736POPC   D2A65668  27.604  23.720   6.755
10736POPC   C3A65669  27.577  23.740   7.055
10736POPC   C4A65670  27.628  23.739   7.355
10736POPC   C1B65671  27.798  23.638   6.455
10736POPC   C2B65672  27.855  23.586   6.755
10736POPC   C3B65673  27.863  23.681   7.055
10736POPC   C4B65674  27.783  23.667   7.355
10737POPC   NC365675  13.649   1.968   5.555
10737POPC   PO465676  13.663   1.958   5.855
10737POPC   GL165677  13.671   2.035   6.155
10737POPC   GL265678  13.550   1.924   6.155
10737POPC   C1A65679  13.604   2.032   6.455
10737POPC   D2A65680  13.599   2.039   6.755
10737POPC   C3A65681  13.620   2.016   7.055
10737POPC   C4A65682  13.651   1.996   7.355
10737POPC   C1B65683  13.522   1.736   6.455
10737POPC   C2B65684  13.477   1.740   6.755
10737POPC   C3B65685  13.465   1.764   7.055
10737POPC   C4B65686  13.464   1.785   7.355
10738POPC   NC365687  43.867  20.654   5.555
10738POPC   PO465688  43.894  20.587   5.855
10738POPC   GL165689  43.859  20.600   6.155
10738POPC   GL265690  43.765  20.554   6.155
10738POPC   C1A65691  43.917  20.644   6.455
10738POPC   D2A65692  43.879  20.641   6.755
10738POPC   C3A65693  43.901  20.616   7.055
10738POPC   C4A65694  43.845  20.628   7.355
10738POPC   C1B65695  43.681  20.613   6.455
10738POPC   C2B65696  43.590  20.563   6.755
10738POPC   C3B65697  43.594  20.534   7.055
10738POPC   C4B65698  43.622  20.544   7.355
10739POPC   NC365699  35.387  22.163   5.555
10739POPC   PO465700  35.353  22.133   5.855
10739POPC   GL165701  35.381  22.198   6.155
10739POPC   GL265702  35.283  22.239   6.155
10739POPC   C1A65703  35.342  22.113   6.455
10739POPC   D2A65704  35.353  22.148   6.755
10739POPC   C3A65705  35.395  22.181   7.055
10739POPC   C4A65706  35.370  22.159   7.355
10739POPC   C1B65707  35.269  22.420   6.455
10739POPC   C2B65708  35.301  22.350   6.755
10739POPC   C3B65709  35.289  22.417   7.055
10739POPC   C4B65710  35.258  22.364   7.355
10740POPC   NC365711  39.263  43.142   5.555
10740POPC   PO465712  39.276  43.105   5.855
10740POPC   GL165713  39.281  43.085   6.155
10740POPC   GL265714  39.186  42.983   6.155
10740POPC   C1A65715  39.265  43.119   6.455
10740POPC   D2A65716  39.191  43.105   6.755
10740POPC   C3A65717  39.279  43.066   7.055
10740POPC   C4A65718  39.191  43.156   7.355
10740POPC   C1B65719  39.206  42.907   6.455
10740POPC   C2B65720  39.188  42.904   6.755
10740POPC   C3B65721  39.188  42.897   7.055
10740POPC   C4B65722  39.213  42.897   7.355
10741POPC   NC365723  29.950   1.178   5.555
10741POPC   PO465724  29.963   1.190   5.855
10741POPC   GL165725  29.929   1.164   6.155
10741POPC   GL265726  29.818   1.157   6.155
10741POPC   C1A65727  29.926   1.245   6.455
10741POPC   D2A65728  29.952   1.255   6.755
10741POPC   C3A65729  29.874   1.172   7.055
10741POPC   C4A65730  29.899   1.189   7.355
10741POPC   C1B65731  29.749   1.027   6.455
10741POPC   C2B65732  29.797   0.987   6.755
10741POPC   C3B65733  29.782   0.968   7.055
10741POPC   C4B65734  29.745   1.052   7.355
10742POPC   NC365735  44.705   8.988   5.555
10742POPC   PO465736  44.697   8.989   5.855
10742POPC   GL165737  44.618   8.941   6.155
10742POPC   GL265738  44.528   8.950   6.155
10742POPC   C1A65739  44.672   8.980   6.455
10742POPC   D2A65740  44.703   8.962   6.755
10742POPC   C3A65741  44.696   8.983   7.055
10742POPC   C4A65742  44.649   9.006   7.355
10742POPC   C1B65743  44.492   8.832   6.455
10742POPC   C2B65744  44.409   8.821   6.755
10742POPC   C3B65745  44.464   8.803   7.055
10742POPC   C4B65746  44.412   8.856   7.355
10743POPC   NC365747  12.084  18.311   5.555
10743POPC   PO465748  12.111  18.281   5.855
10743POPC   GL165749  12.114  18.321   6.155
10743POPC   GL265750  12.036  18.364   6.155
10743POPC   C1A65751  12.045  18.270   6.455
10743POPC   D2A65752  12.084  18.308   6.755
10743POPC   C3A65753  12.052  18.332   7.055
10743POPC   C4A65754  12.108  18.332   7.355
10743POPC   C1B65755  11.957  18.513   6.455
10743POPC   C2B65756  11.971  18.476   6.755
10743POPC   C3B65757  11.955  18.531   7.055
10743POPC   C4B65758  11.893  18.485   7.355
10744POPC   NC365759  12.026   4.289   5.555
10744POPC   PO465760  12.036   4.308   5.855
10744POPC   GL165761  12.118   4.312   6.155
10744POPC   GL265762  11.981   4.372   6.155
10744POPC   C1A65763  12.089   4.332   6.455
10744POPC   D2A65764  12.125   4.286   6.755
10744POPC   C3A65765  12.064   4.295   7.055
10744POPC   C4A65766  12.067   4.312   7.355
10744POPC   C1B65767  11.813   4.374   6.455
10744POPC   C2B65768  11.854   4.363   6.755
10744POPC   C3B65769  11.816   4.315   7.055
10744POPC   C4B65770  11.848   4.298   7.355
10745POPC   NC365771   4.354   8.225   5.555
10745POPC   PO465772   4.314   8.240   5.855
10745POPC   GL165773   4.284   8.231   6.155
10745POPC   GL265774   4.277   8.090   6.155
10745POPC   C1A65775   4.331   8.213   6.455
10745POPC   D2A65776   4.271   8.205   6.755
10745POPC   C3A65777   4.317   8.150   7.055
10745POPC   C4A65778   4.269   8.177   7.355
10745POPC   C1B65779   4.219   8.007   6.455
10745POPC   C2B65780   4.245   7.993   6.755
10745POPC   C3B65781   4.148   8.025   7.055
10745POPC   C4B65782   4.214   7.963   7.355
10746POPC   NC365783  33.799  14.376   5.555
10746POPC   PO465784  33.755  14.377   5.855
10746POPC   GL165785  33.765  14.404   6.155
10746POPC   GL265786  33.956  14.434   6.155
10746POPC   C1A65787  33.834  14.449   6.455
10746POPC   D2A65788  33.807  14.370   6.755
10746POPC   C3A65789  33.842  14.414   7.055
10746POPC   C4A65790  33.777  14.382   7.355
10746POPC   C1B65791  33.996  14.518   6.455
10746POPC   C2B65792  33.992  14.508   6.755
10746POPC   C3B65793  34.049  14.467   7.055
10746POPC   C4B65794  34.039  14.481   7.355
10747POPC   NC365795  12.882  21.408   5.555
10747POPC   PO465796  12.839  21.386   5.855
10747POPC   GL165797  12.886  21.408   6.155
10747POPC   GL265798  12.829  21.465   6.155
10747POPC   C1A65799  12.884  21.399   6.455
10747POPC   D2A65800  12.824  21.356   6.755
10747POPC   C3A65801  12.846  21.389   7.055
10747POPC   C4A65802  12.817  21.386   7.355
10747POPC   C1B65803  12.820  21.642   6.455
10747POPC   C2B65804  12.863  21.640   6.755
10747POPC   C3B65805  12.865  21.595   7.055
10747POPC   C4B65806  12.890  21.638   7.355
10748POPC   NC365807   8.980  17.463   5.555
10748POPC   PO465808   8.966  17.491   5.855
10748POPC   GL165809   8.998  17.510   6.155
10748POPC   GL265810   8.877  17.456   6.155
10748POPC   C1A65811   8.949  17.459   6.455
10748POPC   D2A65812   8.932  17.470   6.755
10748POPC   C3A65813   8.973  17.529   7.055
10748POPC   C4A65814   8.968  17.483   7.355
10748POPC   C1B65815   8.775  17.501   6.455
10748POPC   C2B65816   8.743  17.406   6.755
10748POPC   C3B65817   8.700  17.432   7.055
10748POPC   C4B65818   8.767  17.481   7.355
10749POPC   NC365819  18.298   8.193   5.555
10749POPC   PO465820  18.317   8.180   5.855
10749POPC   GL165821  18.285   8.244   6.155
10749POPC   GL265822  18.386   8.189   6.155
10749POPC   C1A65823  18.248   8.165   6.455
10749POPC   D2A65824  18.318   8.194   6.755
10749POPC   C3A65825  18.243   8.161   7.055
10749POPC   C4A65826  18.234   8.231   7.355
10749POPC   C1B65827  18.558   8.237   6.455
10749POPC   C2B65828  18.529   8.161   6.755
10749POPC   C3B65829  18.489   8.184   7.055
10749POPC   C4B65830  18.495   8.192   7.355
10750POPC   NC365831  26.815   5.820   5.555
10750POPC   PO465832  26.812   5.898   5.855
10750POPC   GL165833  26.814   5.823   6.155
10750POPC   GL265834  26.934   5.927   6.155
10750POPC   C1A65835  26.865   5.859   6.455
10750POPC   D2A65836  26.846   5.863   6.755
10750POPC   C3A65837  26.823   5.900   7.055
10750POPC   C4A65838  26.863   5.856   7.355
10750POPC   C1B65839  26.980   6.065   6.455
10750POPC   C2B65840  26.950   6.085   6.755
10750POPC   C3B65841  26.948   6.021   7.055
10750POPC   C4B65842  26.955   6.103   7.355
10751POPC   NC365843  15.162  15.214   5.555
10751POPC   PO465844  15.183  15.216   5.855
10751POPC   GL165845  15.192  15.203   6.155
10751POPC   GL265846  15.084  15.136   6.155
10751POPC   C1A65847  15.150  15.187   6.455
10751POPC   D2A65848  15.147  15.135   6.755
10751POPC   C3A65849  15.227  15.190   7.055
10751POPC   C4A65850  15.222  15.152   7.355
10751POPC   C1B65851  14.966  15.032   6.455
10751POPC   C2B65852  14.997  14.971   6.755
10751POPC   C3B65853  14.983  15.059   7.055
10751POPC   C4B65854  14.953  14.977   7.355
10752POPC   NC365855  42.375  11.338   5.555
10752POPC   PO465856  42.375  11.268   5.855
10752POPC   GL165857  42.382  11.261   6.155
10752POPC   GL265858  42.419  11.166   6.155
10752POPC   C1A65859  42.285  11.270   6.455
10752POPC   D2A65860  42.350  11.277   6.755
10752POPC   C3A65861  42.382  11.315   7.055
10752POPC   C4A65862  42.294  11.308   7.355
10752POPC   C1B65863  42.404  11.025   6.455
10752POPC   C2B65864  42.424  11.072   6.755
10752POPC   C3B65865  42.428  11.076   7.055
10752POPC   C4B65866  42.432  11.034   7.355
10753POPC   NC365867  10.530  17.495   5.555
10753POPC   PO465868  10.488  17.555   5.855
10753POPC   GL165869  10.557  17.493   6.155
10753POPC   GL265870  10.561  17.401   6.155
10753POPC   C1A65871  10.567  17.508   6.455
10753POPC   D2A65872  10.530  17.554   6.755
10753POPC   C3A65873  10.516  17.538   7.055
10753POPC   C4A65874  10.568  17.532   7.355
10753POPC   C1B65875  10.526  17.255   6.455
10753POPC   C2B65876  10.572  17.208   6.755
10753POPC   C3B65877  10.530  17.211   7.055
10753POPC   C4B65878  10.537  17.223   7.355
10754POPC   NC365879  23.749  19.836   5.555
10754POPC   PO465880  23.728  19.851   5.855
10754POPC   GL165881  23.664  19.872   6.155
10754POPC   GL265882  23.622  19.947   6.155
10754POPC   C1A65883  23.716  19.824   6.455
10754POPC   D2A65884  23.692  19.822   6.755
10754POPC   C3A65885  23.746  19.834   7.055
10754POPC   C4A65886  23.674  19.867   7.355
10754POPC   C1B65887  23.509  19.992   6.455
10754POPC   C2B65888  23.536  19.979   6.755
10754POPC   C3B65889  23.465  20.018   7.055
10754POPC   C4B65890  23.555  20.015   7.355
10755POPC   NC365891  23.720  26.816   5.555
10755POPC   PO465892  23.683  26.806   5.855
10755POPC   GL165893  23.751  26.866   6.155
10755POPC   GL265894  23.583  26.891   6.155
10755POPC   C1A65895  23.685  26.814   6.455
10755POPC   D2A65896  23.753  26.848   6.755
10755POPC   C3A65897  23.665  26.812   7.055
10755POPC   C4A65898  23.734  26.780   7.355
10755POPC   C1B65899  23.522  26.935   6.455
10755POPC   C2B65900  23.526  26.907   6.755
10755POPC   C3B65901  23.529  26.920   7.055
10755POPC   C4B65902  23.485  26.958   7.355
10756POPC   NC365903  15.183   3.529   5.555
10756POPC   PO465904  15.160   3.587   5.855
10756POPC   GL165905  15.192   3.497   6.155
10756POPC   GL265906  15.266   3.644   6.155
10756POPC   C1A65907  15.200   3.570   6.455
10756POPC   D2A65908  15.212   3.589   6.755
10756POPC   C3A65909  15.213   3.555   7.055
10756POPC   C4A65910  15.227   3.585   7.355
10756POPC   C1B65911  15.331   3.742   6.455
10756POPC   C2B65912  15.318   3.753   6.755
10756POPC   C3B65913  15.317   3.769   7.055
10756POPC   C4B65914  15.357   3.744   7.355
10757POPC   NC365915  40.057  41.569   5.555
10757POPC   PO465916  40.025  41.531   5.855
10757POPC   GL165917  39.998  41.608   6.155
10757POPC   GL265918  39.837  41.610   6.155
10757POPC   C1A65919  40.053  41.549   6.455
10757POPC   D2A65920  40.055  41.522   6.755
10757POPC   C3A65921  40.055  41.547   7.055
10757POPC   C4A65922  39.965  41.558   7.355
10757POPC   C1B65923  39.784  41.587   6.455
10757POPC   C2B65924  39.736  41.577   6.755
10757POPC   C3B65925  39.716  41.650   7.055
10757POPC   C4B65926  39.722  41.624   7.355
10758POPC   NC365927  18.313  25.310   5.555
10758POPC   PO465928  18.297  25.267   5.855
10758POPC   GL165929  18.291  25.224   6.155
10758POPC   GL265930  18.425  25.359   6.155
10758POPC   C1A65931  18.257  25.239   6.455
10758POPC   D2A65932  18.307  25.230   6.755
10758POPC   C3A65933  18.262  25.219   7.055
10758POPC   C4A65934  18.312  25.221   7.355
10758POPC   C1B65935  18.535  25.413   6.455
10758POPC   C2B65936  18.552  25.391   6.755
10758POPC   C3B65937  18.556  25.350   7.055
10758POPC   C4B65938  18.545  25.383   7.355
10759POPC   NC365939  43.901  30.713   5.555
10759POPC   PO465940  43.839  30.734   5.855
10759POPC   GL165941  43.916  30.716   6.155
10759POPC   GL265942  43.770  30.714   6.155
10759POPC   C1A65943  43.838  30.740   6.455
10759POPC   D2A65944  43.930  30.647   6.755
10759POPC   C3A65945  43.906  30.730   7.055
10759POPC   C4A65946  43.901  30.734   7.355
10759POPC   C1B65947  43.606  30.713   6.455
10759POPC   C2B65948  43.630  30.658   6.755
10759POPC   C3B65949  43.649  30.691   7.055
10759POPC   C4B65950  43.650  30.639   7.355
10760POPC   NC365951  31.426   5.105   5.555
10760POPC   PO465952  31.487   5.130   5.855
10760POPC   GL165953  31.422   5.118   6.155
10760POPC   GL265954  31.393   5.127   6.155
10760POPC   C1A65955  31.433   5.122   6.455
10760POPC   D2A65956  31.503   5.049   6.755
10760POPC   C3A65957  31.454   5.095   7.055
10760POPC   C4A65958  31.480   5.117   7.355
10760POPC   C1B65959  31.260   5.191   6.455
10760POPC   C2B65960  31.311   5.188   6.755
10760POPC   C3B65961  31.213   5.239   7.055
10760POPC   C4B65962  31.243   5.270   7.355
10761POPC   NC365963  10.515   9.734   5.555
10761POPC   PO465964  10.536   9.766   5.855
10761POPC   GL165965  10.500   9.791   6.155
10761POPC   GL265966  10.552   9.628   6.155
10761POPC   C1A65967  10.522   9.767   6.455
10761POPC   D2A65968  10.529   9.778   6.755
10761POPC   C3A65969  10.544   9.740   7.055
10761POPC   C4A65970  10.556   9.762   7.355
10761POPC   C1B65971  10.575   9.506   6.455
10761POPC   C2B65972  10.503   9.548   6.755
10761POPC   C3B65973  10.587   9.530   7.055
10761POPC   C4B65974  10.540   9.484   7.355
10762POPC   NC365975  10.477  11.323   5.555
10762POPC   PO465976  10.560  11.299   5.855
10762POPC   GL165977  10.565  11.344   6.155
10762POPC   GL265978  10.602  11.147   6.155
10762POPC   C1A65979  10.551  11.275   6.455
10762POPC   D2A65980  10.502  11.337   6.755
10762POPC   C3A65981  10.520  11.314   7.055
10762POPC   C4A65982  10.515  11.334   7.355
10762POPC   C1B65983  10.629  11.122   6.455
10762POPC   C2B65984  10.655  11.061   6.755
10762POPC   C3B65985  10.662  11.074   7.055
10762POPC   C4B65986  10.621  11.040   7.355
10763POPC   NC365987   1.251  43.864   5.555
10763POPC   PO465988   1.177  43.868   5.855
10763POPC   GL165989   1.171  43.923   6.155
10763POPC   GL265990   1.115  43.901   6.155
10763POPC   C1A65991   1.244  43.902   6.455
10763POPC   D2A65992   1.214  43.926   6.755
10763POPC   C3A65993   1.255  43.908   7.055
10763POPC   C4A65994   1.242  43.869   7.355
10763POPC   C1B65995   0.941  43.889   6.455
10763POPC   C2B65996   0.928  43.856   6.755
10763POPC   C3B65997   0.969  43.867   7.055
10763POPC   C4B65998   0.942  43.861   7.355
10764POPC   NC365999  20.648  39.278   5.555
10764POPC   PO466000  20.620  39.183   5.855
10764POPC   GL166001  20.565  39.260   6.155
10764POPC   GL266002  20.460  39.190   6.155
10764POPC   C1A66003  20.616  39.223   6.455
10764POPC   D2A66004  20.633  39.271   6.755
10764POPC   C3A66005  20.611  39.264   7.055
10764POPC   C4A66006  20.645  39.278   7.355
10764POPC   C1B66007  20.335  39.137   6.455
10764POPC   C2B66008  20.349  39.100   6.755
10764POPC   C3B66009  20.378  39.102   7.055
10764POPC   C4B66010  20.409  39.118   7.355
10765POPC   NC366011  23.704  34.570   5.555
10765POPC   PO466012  23.743  34.586   5.855
10765POPC   GL166013  23.746  34.539   6.155
10765POPC   GL266014  23.701  34.414   6.155
10765POPC   C1A66015  23.762  34.532   6.455
10765POPC   D2A66016  23.741  34.621   6.755
10765POPC   C3A66017  23.681  34.574   7.055
10765POPC   C4A66018  23.738  34.572   7.355
10765POPC   C1B66019  23.658  34.374   6.455
10765POPC   C2B66020  23.655  34.365   6.755
10765POPC   C3B66021  23.698  34.314   7.055
10765POPC   C4B66022  23.643  34.335   7.355
10766POPC   NC366023  12.805  22.896   5.555
10766POPC   PO466024  12.823  22.909   5.855
10766POPC   GL166025  12.879  22.956   6.155
10766POPC   GL266026  12.848  23.058   6.155
10766POPC   C1A66027  12.808  22.916   6.455
10766POPC   D2A66028  12.839  22.895   6.755
10766POPC   C3A66029  12.901  22.934   7.055
10766POPC   C4A66030  12.823  22.917   7.355
10766POPC   C1B66031  12.875  23.216   6.455
10766POPC   C2B66032  12.894  23.210   6.755
10766POPC   C3B66033  12.875  23.206   7.055
10766POPC   C4B66034  12.915  23.149   7.355
10767POPC   NC366035  43.112   8.972   5.555
10767POPC   PO466036  43.097   8.969   5.855
10767POPC   GL166037  43.076   8.937   6.155
10767POPC   GL266038  43.160   9.095   6.155
10767POPC   C1A66039  43.115   8.994   6.455
10767POPC   D2A66040  43.070   8.983   6.755
10767POPC   C3A66041  43.070   8.972   7.055
10767POPC   C4A66042  43.160   8.932   7.355
10767POPC   C1B66043  43.228   9.167   6.455
10767POPC   C2B66044  43.290   9.223   6.755
10767POPC   C3B66045  43.208   9.218   7.055
10767POPC   C4B66046  43.263   9.175   7.355
10768POPC   NC366047   9.714   5.845   5.555
10768POPC   PO466048   9.726   5.827   5.855
10768POPC   GL166049   9.734   5.884   6.155
10768POPC   GL266050   9.844   5.931   6.155
10768POPC   C1A66051   9.773   5.864   6.455
10768POPC   D2A66052   9.785   5.848   6.755
10768POPC   C3A66053   9.748   5.865   7.055
10768POPC   C4A66054   9.764   5.821   7.355
10768POPC   C1B66055   9.936   6.012   6.455
10768POPC   C2B66056   9.897   6.019   6.755
10768POPC   C3B66057   9.942   6.094   7.055
10768POPC   C4B66058   9.921   6.037   7.355
10769POPC   NC366059  43.905  27.562   5.555
10769POPC   PO466060  43.857  27.545   5.855
10769POPC   GL166061  43.916  27.573   6.155
10769POPC   GL266062  44.028  27.644   6.155
10769POPC   C1A66063  43.918  27.547   6.455
10769POPC   D2A66064  43.853  27.621   6.755
10769POPC   C3A66065  43.920  27.617   7.055
10769POPC   C4A66066  43.837  27.566   7.355
10769POPC   C1B66067  44.113  27.730   6.455
10769POPC   C2B66068  44.139  27.767   6.755
10769POPC   C3B66069  44.138  27.739   7.055
10769POPC   C4B66070  44.088  27.756   7.355
10770POPC   NC366071  30.651  33.795   5.555
10770POPC   PO466072  30.705  33.844   5.855
10770POPC   GL166073  30.652  33.809   6.155
10770POPC   GL266074  30.744  33.899   6.155
10770POPC   C1A66075  30.658  33.782   6.455
10770POPC   D2A66076  30.718  33.778   6.755
10770POPC   C3A66077  30.715  33.799   7.055
10770POPC   C4A66078  30.653  33.778   7.355
10770POPC   C1B66079  30.711  34.007   6.455
10770POPC   C2B66080  30.755  34.091   6.755
10770POPC   C3B66081  30.731  34.010   7.055
10770POPC   C4B66082  30.751  34.098   7.355
10771POPC   NC366083  19.071  36.148   5.555
10771POPC   PO466084  19.024  36.089   5.855
10771POPC   GL166085  19.066  36.174   6.155
10771POPC   GL266086  18.946  36.133   6.155
10771POPC   C1A66087  19.071  36.134   6.455
10771POPC   D2A66088  19.031  36.112   6.755
10771POPC   C3A66089  19.050  36.148   7.055
10771POPC   C4A66090  19.026  36.155   7.355
10771POPC   C1B66091  18.847  36.222   6.455
10771POPC   C2B66092  18.809  36.236   6.755
10771POPC   C3B66093  18.838  36.217   7.055
10771POPC   C4B66094  18.832  36.187   7.355
10772POPC   NC366095   7.417  38.448   5.555
10772POPC   PO466096   7.395  38.456   5.855
10772POPC   GL166097   7.390  38.427   6.155
10772POPC   GL266098   7.306  38.350   6.155
10772POPC   C1A66099   7.450  38.499   6.455
10772POPC   D2A66100   7.431  38.481   6.755
10772POPC   C3A66101   7.379  38.447   7.055
10772POPC   C4A66102   7.406  38.477   7.355
10772POPC   C1B66103   7.267  38.276   6.455
10772POPC   C2B66104   7.279  38.245   6.755
10772POPC   C3B66105   7.265  38.272   7.055
10772POPC   C4B66106   7.246  38.299   7.355
10773POPC   NC366107  39.991  12.079   5.555
10773POPC   PO466108  39.978  12.038   5.855
10773POPC   GL166109  39.985  12.097   6.155
10773POPC   GL266110  40.011  11.959   6.155
10773POPC   C1A66111  40.028  12.066   6.455
10773POPC   D2A66112  39.960  12.094   6.755
10773POPC   C3A66113  39.994  12.125   7.055
10773POPC   C4A66114  40.039  12.104   7.355
10773POPC   C1B66115  40.047  11.815   6.455
10773POPC   C2B66116  40.075  11.796   6.755
10773POPC   C3B66117  40.025  11.853   7.055
10773POPC   C4B66118  40.033  11.847   7.355
10774POPC   NC366119  17.544   6.644   5.555
10774POPC   PO466120  17.490   6.613   5.855
10774POPC   GL166121  17.530   6.638   6.155
10774POPC   GL266122  17.549   6.563   6.155
10774POPC   C1A66123  17.540   6.648   6.455
10774POPC   D2A66124  17.523   6.636   6.755
10774POPC   C3A66125  17.518   6.669   7.055
10774POPC   C4A66126  17.539   6.666   7.355
10774POPC   C1B66127  17.602   6.371   6.455
10774POPC   C2B66128  17.568   6.396   6.755
10774POPC   C3B66129  17.596   6.391   7.055
10774POPC   C4B66130  17.617   6.418   7.355
10775POPC   NC366131   4.278  43.149   5.555
10775POPC   PO466132   4.326  43.065   5.855
10775POPC   GL166133   4.283  43.076   6.155
10775POPC   GL266134   4.413  43.166   6.155
10775POPC   C1A66135   4.318  43.093   6.455
10775POPC   D2A66136   4.361  43.160   6.755
10775POPC   C3A66137   4.281  43.115   7.055
10775POPC   C4A66138   4.274  43.093   7.355
10775POPC   C1B66139   4.473  43.320   6.455
10775POPC   C2B66140   4.430  43.346   6.755
10775POPC   C3B66141   4.417  43.313   7.055
10775POPC   C4B66142   4.417  43.318   7.355
10776POPC   NC366143  19.838  43.925   5.555
10776POPC   PO466144  19.855  43.850   5.855
10776POPC   GL166145  19.847  43.927   6.155
10776POPC   GL266146  19.965  43.985   6.155
10776POPC   C1A66147  19.800  43.934   6.455
10776POPC   D2A66148  19.862  43.895   6.755
10776POPC   C3A66149  19.843  43.848   7.055
10776POPC   C4A66150  19.853  43.878   7.355
10776POPC   C1B66151  20.034  43.967   6.455
10776POPC   C2B66152  20.035  44.018   6.755
10776POPC   C3B66153  20.077  43.965   7.055
10776POPC   C4B66154  20.018  44.015   7.355
10777POPC   NC366155  34.573   4.349   5.555
10777POPC   PO466156  34.550   4.347   5.855
10777POPC   GL166157  34.546   4.350   6.155
10777POPC   GL266158  34.533   4.451   6.155
10777POPC   C1A66159  34.586   4.365   6.455
10777POPC   D2A66160  34.590   4.315   6.755
10777POPC   C3A66161  34.599   4.327   7.055
10777POPC   C4A66162  34.619   4.337   7.355
10777POPC   C1B66163  34.510   4.529   6.455
10777POPC   C2B66164  34.479   4.561   6.755
10777POPC   C3B66165  34.517   4.573   7.055
10777POPC   C4B66166  34.524   4.546   7.355
10778POPC   NC366167  20.585  11.290   5.555
10778POPC   PO466168  20.628  11.269   5.855
10778POPC   GL166169  20.638  11.293   6.155
10778POPC   GL266170  20.687  11.440   6.155
10778POPC   C1A66171  20.658  11.256   6.455
10778POPC   D2A66172  20.660  11.346   6.755
10778POPC   C3A66173  20.594  11.326   7.055
10778POPC   C4A66174  20.632  11.339   7.355
10778POPC   C1B66175  20.735  11.513   6.455
10778POPC   C2B66176  20.726  11.461   6.755
10778POPC   C3B66177  20.721  11.545   7.055
10778POPC   C4B66178  20.765  11.509   7.355
10779POPC   NC366179  17.468  22.966   5.555
10779POPC   PO466180  17.522  22.914   5.855
10779POPC   GL166181  17.480  22.975   6.155
10779POPC   GL266182  17.530  23.062   6.155
10779POPC   C1A66183  17.552  22.911   6.455
10779POPC   D2A66184  17.548  22.941   6.755
10779POPC   C3A66185  17.467  22.960   7.055
10779POPC   C4A66186  17.474  22.981   7.355
10779POPC   C1B66187  17.446  23.175   6.455
10779POPC   C2B66188  17.501  23.200   6.755
10779POPC   C3B66189  17.511  23.176   7.055
10779POPC   C4B66190  17.437  23.165   7.355
10780POPC   NC366191  40.039   0.464   5.555
10780POPC   PO466192  40.042   0.446   5.855
10780POPC   GL166193  39.966   0.424   6.155
10780POPC   GL266194  39.964   0.346   6.155
10780POPC   C1A66195  40.006   0.466   6.455
10780POPC   D2A66196  39.992   0.440   6.755
10780POPC   C3A66197  40.049   0.435   7.055
10780POPC   C4A66198  40.011   0.389   7.355
10780POPC   C1B66199  40.063   0.218   6.455
10780POPC   C2B66200  40.059   0.152   6.755
10780POPC   C3B66201  39.967   0.180   7.055
10780POPC   C4B66202  40.008   0.225   7.355
10781POPC   NC366203  32.289  43.068   5.555
10781POPC   PO466204  32.224  43.142   5.855
10781POPC   GL166205  32.220  43.092   6.155
10781POPC   GL266206  32.121  43.118   6.155
10781POPC   C1A66207  32.256  43.103   6.455
10781POPC   D2A66208  32.239  43.072   6.755
10781POPC   C3A66209  32.235  43.084   7.055
10781POPC   C4A66210  32.244  43.128   7.355
10781POPC   C1B66211  32.009  43.020   6.455
10781POPC   C2B66212  31.976  43.034   6.755
10781POPC   C3B66213  32.018  42.991   7.055
10781POPC   C4B66214  31.963  43.076   7.355
10782POPC   NC366215  11.262  19.791   5.555
10782POPC   PO466216  11.283  19.846   5.855
10782POPC   GL166217  11.322  19.869   6.155
10782POPC   GL266218  11.220  19.974   6.155
10782POPC   C1A66219  11.317  19.858   6.455
10782POPC   D2A66220  11.344  19.845   6.755
10782POPC   C3A66221  11.340  19.824   7.055
10782POPC   C4A66222  11.255  19.852   7.355
10782POPC   C1B66223  11.226  20.092   6.455
10782POPC   C2B66224  11.185  20.090   6.755
10782POPC   C3B66225  11.211  20.105   7.055
10782POPC   C4B66226  11.201  20.025   7.355
10783POPC   NC366227  37.703  34.546   5.555
10783POPC   PO466228  37.659  34.585   5.855
10783POPC   GL166229  37.639  34.577   6.155
10783POPC   GL266230  37.732  34.730   6.155
10783POPC   C1A66231  37.668  34.581   6.455
10783POPC   D2A66232  37.671  34.611   6.755
10783POPC   C3A66233  37.702  34.556   7.055
10783POPC   C4A66234  37.670  34.556   7.355
10783POPC   C1B66235  37.798  34.772   6.455
10783POPC   C2B66236  37.722  34.797   6.755
10783POPC   C3B66237  37.776  34.784   7.055
10783POPC   C4B66238  37.716  34.832   7.355
10784POPC   NC366239  38.436   8.959   5.555
10784POPC   PO466240  38.427   8.981   5.855
10784POPC   GL166241  38.496   8.989   6.155
10784POPC   GL266242  38.465   9.119   6.155
10784POPC   C1A66243  38.423   9.010   6.455
10784POPC   D2A66244  38.502   8.932   6.755
10784POPC   C3A66245  38.433   8.933   7.055
10784POPC   C4A66246  38.433   8.971   7.355
10784POPC   C1B66247  38.467   9.236   6.455
10784POPC   C2B66248  38.467   9.185   6.755
10784POPC   C3B66249  38.465   9.244   7.055
10784POPC   C4B66250  38.473   9.197   7.355
10785POPC   NC366251  41.572  26.773   5.555
10785POPC   PO466252  41.554  26.792   5.855
10785POPC   GL166253  41.584  26.781   6.155
10785POPC   GL266254  41.504  26.743   6.155
10785POPC   C1A66255  41.533  26.793   6.455
10785POPC   D2A66256  41.597  26.830   6.755
10785POPC   C3A66257  41.584  26.810   7.055
10785POPC   C4A66258  41.515  26.794   7.355
10785POPC   C1B66259  41.312  26.661   6.455
10785POPC   C2B66260  41.332  26.648   6.755
10785POPC   C3B66261  41.326  26.657   7.055
10785POPC   C4B66262  41.333  26.647   7.355
10786POPC   NC366263  30.695   0.416   5.555
10786POPC   PO466264  30.650   0.486   5.855
10786POPC   GL166265  30.739   0.482   6.155
10786POPC   GL266266  30.598   0.367   6.155
10786POPC   C1A66267  30.726   0.477   6.455
10786POPC   D2A66268  30.661   0.456   6.755
10786POPC   C3A66269  30.732   0.442   7.055
10786POPC   C4A66270  30.726   0.407   7.355
10786POPC   C1B66271  30.498   0.300   6.455
10786POPC   C2B66272  30.488   0.347   6.755
10786POPC   C3B66273  30.529   0.277   7.055
10786POPC   C4B66274  30.517   0.269   7.355
10787POPC   NC366275  14.365   8.230   5.555
10787POPC   PO466276  14.436   8.192   5.855
10787POPC   GL166277  14.408   8.206   6.155
10787POPC   GL266278  14.312   8.220   6.155
10787POPC   C1A66279  14.370   8.192   6.455
10787POPC   D2A66280  14.450   8.201   6.755
10787POPC   C3A66281  14.419   8.188   7.055
10787POPC   C4A66282  14.438   8.202   7.355
10787POPC   C1B66283  14.152   8.182   6.455
10787POPC   C2B66284  14.109   8.270   6.755
10787POPC   C3B66285  14.164   8.223   7.055
10787POPC   C4B66286  14.124   8.192   7.355
10788POPC   NC366287  44.644   6.660   5.555
10788POPC   PO466288  44.710   6.638   5.855
10788POPC   GL166289  44.614   6.693   6.155
10788POPC   GL266290  44.618   6.542   6.155
10788POPC   C1A66291  44.685   6.688   6.455
10788POPC   D2A66292  44.648   6.614   6.755
10788POPC   C3A66293  44.621   6.680   7.055
10788POPC   C4A66294  44.614   6.605   7.355
10788POPC   C1B66295  44.681   6.440   6.455
10788POPC   C2B66296  44.590   6.431   6.755
10788POPC   C3B66297  44.649   6.382   7.055
10788POPC   C4B66298  44.616   6.395   7.355
10789POPC   NC366299  18.326  43.861   5.555
10789POPC   PO466300  18.311  43.895   5.855
10789POPC   GL166301  18.267  43.850   6.155
10789POPC   GL266302  18.355  43.963   6.155
10789POPC   C1A66303  18.271  43.921   6.455
10789POPC   D2A66304  18.251  43.882   6.755
10789POPC   C3A66305  18.320  43.845   7.055
10789POPC   C4A66306  18.248  43.870   7.355
10789POPC   C1B66307  18.505  44.096   6.455
10789POPC   C2B66308  18.496  44.016   6.755
10789POPC   C3B66309  18.491  44.052   7.055
10789POPC   C4B66310  18.465  44.095   7.355
10790POPC   NC366311  41.569   6.632   5.555
10790POPC   PO466312  41.523   6.680   5.855
10790POPC   GL166313  41.563   6.621   6.155
10790POPC   GL266314  41.574   6.564   6.155
10790POPC   C1A66315  41.519   6.686   6.455
10790POPC   D2A66316  41.541   6.694   6.755
10790POPC   C3A66317  41.574   6.667   7.055
10790POPC   C4A66318  41.608   6.648   7.355
10790POPC   C1B66319  41.627   6.389   6.455
10790POPC   C2B66320  41.554   6.399   6.755
10790POPC   C3B66321  41.585   6.418   7.055
10790POPC   C4B66322  41.617   6.400   7.355
10791POPC   NC366323  42.336  23.720   5.555
10791POPC   PO466324  42.343  23.697   5.855
10791POPC   GL166325  42.374  23.733   6.155
10791POPC   GL266326  42.303  23.636   6.155
10791POPC   C1A66327  42.323  23.697   6.455
10791POPC   D2A66328  42.379  23.714   6.755
10791POPC   C3A66329  42.311  23.680   7.055
10791POPC   C4A66330  42.364  23.693   7.355
10791POPC   C1B66331  42.312  23.462   6.455
10791POPC   C2B66332  42.345  23.430   6.755
10791POPC   C3B66333  42.267  23.496   7.055
10791POPC   C4B66334  42.284  23.474   7.355
10792POPC   NC366335  42.318  29.103   5.555
10792POPC   PO466336  42.292  29.189   5.855
10792POPC   GL166337  42.335  29.113   6.155
10792POPC   GL266338  42.258  29.197   6.155
10792POPC   C1A66339  42.318  29.181   6.455
10792POPC   D2A66340  42.292  29.192   6.755
10792POPC   C3A66341  42.374  29.133   7.055
10792POPC   C4A66342  42.317  29.155   7.355
10792POPC   C1B66343  42.087  29.208   6.455
10792POPC   C2B66344  42.087  29.210   6.755
10792POPC   C3B66345  42.123  29.144   7.055
10792POPC   C4B66346  42.135  29.203   7.355
10793POPC   NC366347  39.269   5.821   5.555
10793POPC   PO466348  39.214   5.845   5.855
10793POPC   GL166349  39.280   5.894   6.155
10793POPC   GL266350  39.105   5.812   6.155
10793POPC   C1A66351  39.265   5.896   6.455
10793POPC   D2A66352  39.198   5.857   6.755
10793POPC   C3A66353  39.237   5.892   7.055
10793POPC   C4A66354  39.204   5.910   7.355
10793POPC   C1B66355  38.981   5.833   6.455
10793POPC   C2B66356  39.012   5.809   6.755
10793POPC   C3B66357  38.945   5.874   7.055
10793POPC   C4B66358  38.938   5.898   7.355
10794POPC   NC366359  19.838  11.285   5.555
10794POPC   PO466360  19.820  11.269   5.855
10794POPC   GL166361  19.790  11.268   6.155
10794POPC   GL266362  19.738  11.383   6.155
10794POPC   C1A66363  19.830  11.299   6.455
10794POPC   D2A66364  19.863  11.301   6.755
10794POPC   C3A66365  19.805  11.314   7.055
10794POPC   C4A66366  19.845  11.259   7.355
10794POPC   C1B66367  19.585  11.338   6.455
10794POPC   C2B66368  19.568  11.395   6.755
10794POPC   C3B66369  19.628  11.351   7.055
10794POPC   C4B66370  19.579  11.405   7.355
10795POPC   NC366371   5.914  13.616   5.555
10795POPC   PO466372   5.841  13.648   5.855
10795POPC   GL166373   5.871  13.676   6.155
10795POPC   GL266374   5.812  13.528   6.155
10795POPC   C1A66375   5.882  13.665   6.455
10795POPC   D2A66376   5.842  13.671   6.755
10795POPC   C3A66377   5.884  13.672   7.055
10795POPC   C4A66378   5.842  13.667   7.355
10795POPC   C1B66379   5.695  13.505   6.455
10795POPC   C2B66380   5.657  13.503   6.755
10795POPC   C3B66381   5.687  13.456   7.055
10795POPC   C4B66382   5.716  13.513   7.355
10796POPC   NC366383  40.795  32.982   5.555
10796POPC   PO466384  40.768  33.001   5.855
10796POPC   GL166385  40.827  33.004   6.155
10796POPC   GL266386  40.741  32.927   6.155
10796POPC   C1A66387  40.808  33.053   6.455
10796POPC   D2A66388  40.812  32.986   6.755
10796POPC   C3A66389  40.751  33.011   7.055
10796POPC   C4A66390  40.809  33.028   7.355
10796POPC   C1B66391  40.626  32.754   6.455
10796POPC   C2B66392  40.642  32.781   6.755
10796POPC   C3B66393  40.688  32.839   7.055
10796POPC   C4B66394  40.636  32.784   7.355
10797POPC   NC366395  16.694  21.373   5.555
10797POPC   PO466396  16.762  21.362   5.855
10797POPC   GL166397  16.775  21.389   6.155
10797POPC   GL266398  16.757  21.278   6.155
10797POPC   C1A66399  16.696  21.369   6.455
10797POPC   D2A66400  16.740  21.360   6.755
10797POPC   C3A66401  16.773  21.366   7.055
10797POPC   C4A66402  16.751  21.376   7.355
10797POPC   C1B66403  16.714  21.180   6.455
10797POPC   C2B66404  16.697  21.134   6.755
10797POPC   C3B66405  16.703  21.188   7.055
10797POPC   C4B66406  16.748  21.116   7.355
10798POPC   NC366407   5.093  19.793   5.555
10798POPC   PO466408   5.070  19.807   5.855
10798POPC   GL166409   5.085  19.806   6.155
10798POPC   GL266410   5.100  19.982   6.155
10798POPC   C1A66411   5.060  19.786   6.455
10798POPC   D2A66412   5.140  19.874   6.755
10798POPC   C3A66413   5.131  19.862   7.055
10798POPC   C4A66414   5.107  19.870   7.355
10798POPC   C1B66415   5.109  20.083   6.455
10798POPC   C2B66416   5.157  20.064   6.755
10798POPC   C3B66417   5.143  20.052   7.055
10798POPC   C4B66418   5.076  20.108   7.355
10799POPC   NC366419  10.488  39.253   5.555
10799POPC   PO466420  10.508  39.273   5.855
10799POPC   GL166421  10.533  39.257   6.155
10799POPC   GL266422  10.488  39.149   6.155
10799POPC   C1A66423  10.539  39.254   6.455
10799POPC   D2A66424  10.552  39.270   6.755
10799POPC   C3A66425  10.569  39.195   7.055
10799POPC   C4A66426  10.522  39.206   7.355
10799POPC   C1B66427  10.400  39.062   6.455
10799POPC   C2B66428  10.366  39.012   6.755
10799POPC   C3B66429  10.392  39.072   7.055
10799POPC   C4B66430  10.353  39.009   7.355
10800POPC   NC366431  29.956   0.462   5.555
10800POPC   PO466432  29.906   0.430   5.855
10800POPC   GL166433  29.888   0.390   6.155
10800POPC   GL266434  29.863   0.331   6.155
10800POPC   C1A66435  29.929   0.455   6.455
10800POPC   D2A66436  29.883   0.444   6.755
10800POPC   C3A66437  29.877   0.480   7.055
10800POPC   C4A66438  29.958   0.393   7.355
10800POPC   C1B66439  29.903   0.170   6.455
10800POPC   C2B66440  29.834   0.163   6.755
10800POPC   C3B66441  29.901   0.205   7.055
10800POPC   C4B66442  29.885   0.189   7.355
10801POPC   NC366443  34.566   5.135   5.555
10801POPC   PO466444  34.553   5.128   5.855
10801POPC   GL166445  34.591   5.094   6.155
10801POPC   GL266446  34.487   5.234   6.155
10801POPC   C1A66447  34.538   5.130   6.455
10801POPC   D2A66448  34.610   5.073   6.755
10801POPC   C3A66449  34.586   5.062   7.055
10801POPC   C4A66450  34.557   5.064   7.355
10801POPC   C1B66451  34.507   5.364   6.455
10801POPC   C2B66452  34.494   5.302   6.755
10801POPC   C3B66453  34.414   5.270   7.055
10801POPC   C4B66454  34.459   5.343   7.355
10802POPC   NC366455   6.624  14.432   5.555
10802POPC   PO466456   6.638  14.374   5.855
10802POPC   GL166457   6.611  14.398   6.155
10802POPC   GL266458   6.573  14.351   6.155
10802POPC   C1A66459   6.652  14.374   6.455
10802POPC   D2A66460   6.672  14.355   6.755
10802POPC   C3A66461   6.623  14.421   7.055
10802POPC   C4A66462   6.655  14.413   7.355
10802POPC   C1B66463   6.467  14.176   6.455
10802POPC   C2B66464   6.452  14.183   6.755
10802POPC   C3B66465   6.506  14.227   7.055
10802POPC   C4B66466   6.466  14.218   7.355
10803POPC   NC366467   7.386  43.088   5.555
10803POPC   PO466468   7.415  43.091   5.855
10803POPC   GL166469   7.465  43.107   6.155
10803POPC   GL266470   7.517  43.143   6.155
10803POPC   C1A66471   7.385  43.116   6.455
10803POPC   D2A66472   7.391  43.117   6.755
10803POPC   C3A66473   7.398  43.097   7.055
10803POPC   C4A66474   7.416  43.087   7.355
10803POPC   C1B66475   7.646  43.242   6.455
10803POPC   C2B66476   7.628  43.270   6.755
10803POPC   C3B66477   7.601  43.293   7.055
10803POPC   C4B66478   7.641  43.297   7.355
10804POPC   NC366479  10.533  32.259   5.555
10804POPC   PO466480  10.474  32.204   5.855
10804POPC   GL166481  10.476  32.235   6.155
10804POPC   GL266482  10.382  32.203   6.155
10804POPC   C1A66483  10.543  32.228   6.455
10804POPC   D2A66484  10.483  32.255   6.755
10804POPC   C3A66485  10.479  32.225   7.055
10804POPC   C4A66486  10.507  32.212   7.355
10804POPC   C1B66487  10.246  32.190   6.455
10804POPC   C2B66488  10.252  32.190   6.755
10804POPC   C3B66489  10.315  32.216   7.055
10804POPC   C4B66490  10.236  32.216   7.355
10805POPC   NC366491  34.530  12.088   5.555
10805POPC   PO466492  34.548  12.033   5.855
10805POPC   GL166493  34.565  12.122   6.155
10805POPC   GL266494  34.555  11.980   6.155
10805POPC   C1A66495  34.622  12.039   6.455
10805POPC   D2A66496  34.583  12.031   6.755
10805POPC   C3A66497  34.623  12.081   7.055
10805POPC   C4A66498  34.591  12.041   7.355
10805POPC   C1B66499  34.586  11.845   6.455
10805POPC   C2B66500  34.526  11.870   6.755
10805POPC   C3B66501  34.568  11.847   7.055
10805POPC   C4B66502  34.624  11.831   7.355
10806POPC   NC366503  21.407  12.051   5.555
10806POPC   PO466504  21.435  12.115   5.855
10806POPC   GL166505  21.408  12.081   6.155
10806POPC   GL266506  21.451  12.025   6.155
10806POPC   C1A66507  21.375  12.038   6.455
10806POPC   D2A66508  21.380  12.045   6.755
10806POPC   C3A66509  21.352  12.092   7.055
10806POPC   C4A66510  21.408  12.036   7.355
10806POPC   C1B66511  21.540  11.895   6.455
10806POPC   C2B66512  21.556  11.930   6.755
10806POPC   C3B66513  21.528  11.919   7.055
10806POPC   C4B66514  21.574  11.937   7.355
10807POPC   NC366515  17.539  21.355   5.555
10807POPC   PO466516  17.476  21.338   5.855
10807POPC   GL166517  17.552  21.402   6.155
10807POPC   GL266518  17.554  21.463   6.155
10807POPC   C1A66519  17.531  21.397   6.455
10807POPC   D2A66520  17.471  21.413   6.755
10807POPC   C3A66521  17.495  21.351   7.055
10807POPC   C4A66522  17.553  21.394   7.355
10807POPC   C1B66523  17.566  21.643   6.455
10807POPC   C2B66524  17.530  21.607   6.755
10807POPC   C3B66525  17.513  21.653   7.055
10807POPC   C4B66526  17.495  21.618   7.355
10808POPC   NC366527  40.819  39.999   5.555
10808POPC   PO466528  40.798  39.961   5.855
10808POPC   GL166529  40.784  39.980   6.155
10808POPC   GL266530  40.806  39.869   6.155
10808POPC   C1A66531  40.758  40.053   6.455
10808POPC   D2A66532  40.777  39.978   6.755
10808POPC   C3A66533  40.751  40.022   7.055
10808POPC   C4A66534  40.813  39.998   7.355
10808POPC   C1B66535  40.817  39.728   6.455
10808POPC   C2B66536  40.801  39.721   6.755
10808POPC   C3B66537  40.859  39.773   7.055
10808POPC   C4B66538  40.829  39.743   7.355
10809POPC   NC366539  30.709  43.155   5.555
10809POPC   PO466540  30.689  43.152   5.855
10809POPC   GL166541  30.652  43.119   6.155
10809POPC   GL266542  30.736  43.234   6.155
10809POPC   C1A66543  30.705  43.125   6.455
10809POPC   D2A66544  30.712  43.070   6.755
10809POPC   C3A66545  30.715  43.067   7.055
10809POPC   C4A66546  30.707  43.091   7.355
10809POPC   C1B66547  30.836  43.303   6.455
10809POPC   C2B66548  30.814  43.303   6.755
10809POPC   C3B66549  30.793  43.322   7.055
10809POPC   C4B66550  30.782  43.322   7.355
10810POPC   NC366551  19.097   2.802   5.555
10810POPC   PO466552  19.052   2.791   5.855
10810POPC   GL166553  19.018   2.744   6.155
10810POPC   GL266554  19.055   2.891   6.155
10810POPC   C1A66555  19.069   2.798   6.455
10810POPC   D2A66556  19.067   2.780   6.755
10810POPC   C3A66557  19.022   2.808   7.055
10810POPC   C4A66558  19.066   2.720   7.355
10810POPC   C1B66559  19.014   2.971   6.455
10810POPC   C2B66560  18.987   2.982   6.755
10810POPC   C3B66561  18.965   3.027   7.055
10810POPC   C4B66562  19.014   2.993   7.355
10811POPC   NC366563   8.956  44.616   5.555
10811POPC   PO466564   8.976  44.654   5.855
10811POPC   GL166565   8.968  44.669   6.155
10811POPC   GL266566   8.927  44.597   6.155
10811POPC   C1A66567   8.974  44.658   6.455
10811POPC   D2A66568   8.948  44.663   6.755
10811POPC   C3A66569   9.014  44.703   7.055
10811POPC   C4A66570   8.951  44.629   7.355
10811POPC   C1B66571   8.864  44.494   6.455
10811POPC   C2B66572   8.785  44.448   6.755
10811POPC   C3B66573   8.838  44.506   7.055
10811POPC   C4B66574   8.816  44.446   7.355
10812POPC   NC366575  36.085   1.999   5.555
10812POPC   PO466576  36.173   2.036   5.855
10812POPC   GL166577  36.123   2.003   6.155
10812POPC   GL266578  36.179   2.114   6.155
10812POPC   C1A66579  36.168   2.035   6.455
10812POPC   D2A66580  36.135   1.978   6.755
10812POPC   C3A66581  36.122   1.976   7.055
10812POPC   C4A66582  36.176   2.037   7.355
10812POPC   C1B66583  36.193   2.218   6.455
10812POPC   C2B66584  36.183   2.248   6.755
10812POPC   C3B66585  36.149   2.253   7.055
10812POPC   C4B66586  36.188   2.262   7.355
10813POPC   NC366587   8.976  30.702   5.555
10813POPC   PO466588   8.988  30.718   5.855
10813POPC   GL166589   8.983  30.687   6.155
10813POPC   GL266590   8.863  30.600   6.155
10813POPC   C1A66591   8.989  30.667   6.455
10813POPC   D2A66592   9.022  30.747   6.755
10813POPC   C3A66593   8.948  30.658   7.055
10813POPC   C4A66594   8.988  30.690   7.355
10813POPC   C1B66595   8.723  30.593   6.455
10813POPC   C2B66596   8.746  30.544   6.755
10813POPC   C3B66597   8.716  30.552   7.055
10813POPC   C4B66598   8.788  30.610   7.355
10814POPC   NC366599  36.868  27.625   5.555
10814POPC   PO466600  36.901  27.599   5.855
10814POPC   GL166601  36.894  27.587   6.155
10814POPC   GL266602  36.796  27.606   6.155
10814POPC   C1A66603  36.854  27.642   6.455
10814POPC   D2A66604  36.920  27.624   6.755
10814POPC   C3A66605  36.931  27.560   7.055
10814POPC   C4A66606  36.906  27.621   7.355
10814POPC   C1B66607  36.674  27.704   6.455
10814POPC   C2B66608  36.697  27.660   6.755
10814POPC   C3B66609  36.712  27.690   7.055
10814POPC   C4B66610  36.688  27.674   7.355
10815POPC   NC366611  41.518  22.947   5.555
10815POPC   PO466612  41.598  22.958   5.855
10815POPC   GL166613  41.582  22.910   6.155
10815POPC   GL266614  41.400  22.909   6.155
10815POPC   C1A66615  41.565  22.904   6.455
10815POPC   D2A66616  41.525  22.892   6.755
10815POPC   C3A66617  41.594  22.951   7.055
10815POPC   C4A66618  41.512  22.936   7.355
10815POPC   C1B66619  41.307  22.851   6.455
10815POPC   C2B66620  41.289  22.877   6.755
10815POPC   C3B66621  41.294  22.829   7.055
10815POPC   C4B66622  41.327  22.821   7.355
10816POPC   NC366623  43.095  27.633   5.555
10816POPC   PO466624  43.109  27.571   5.855
10816POPC   GL166625  43.081  27.549   6.155
10816POPC   GL266626  42.971  27.624   6.155
10816POPC   C1A66627  43.074  27.552   6.455
10816POPC   D2A66628  43.139  27.604   6.755
10816POPC   C3A66629  43.117  27.639   7.055
10816POPC   C4A66630  43.143  27.565   7.355
10816POPC   C1B66631  42.850  27.684   6.455
10816POPC   C2B66632  42.852  27.644   6.755
10816POPC   C3B66633  42.897  27.638   7.055
10816POPC   C4B66634  42.837  27.659   7.355
10817POPC   NC366635  30.714  43.908   5.555
10817POPC   PO466636  30.722  43.856   5.855
10817POPC   GL166637  30.706  43.862   6.155
10817POPC   GL266638  30.710  43.744   6.155
10817POPC   C1A66639  30.698  43.842   6.455
10817POPC   D2A66640  30.667  43.928   6.755
10817POPC   C3A66641  30.663  43.888   7.055
10817POPC   C4A66642  30.712  43.897   7.355
10817POPC   C1B66643  30.729  43.642   6.455
10817POPC   C2B66644  30.765  43.671   6.755
10817POPC   C3B66645  30.772  43.611   7.055
10817POPC   C4B66646  30.784  43.604   7.355
10818POPC   NC366647  30.675  19.108   5.555
10818POPC   PO466648  30.701  19.040   5.855
10818POPC   GL166649  30.700  19.019   6.155
10818POPC   GL266650  30.775  19.023   6.155
10818POPC   C1A66651  30.679  19.009   6.455
10818POPC   D2A66652  30.710  19.051   6.755
10818POPC   C3A66653  30.743  19.028   7.055
10818POPC   C4A66654  30.716  19.031   7.355
10818POPC   C1B66655  30.943  18.882   6.455
10818POPC   C2B66656  30.927  18.950   6.755
10818POPC   C3B66657  30.874  18.878   7.055
10818POPC   C4B66658  30.913  18.944   7.355
10819POPC   NC366659  19.088  27.624   5.555
10819POPC   PO466660  19.082  27.623   5.855
10819POPC   GL166661  19.042  27.552   6.155
10819POPC   GL266662  18.972  27.486   6.155
10819POPC   C1A66663  19.060  27.545   6.455
10819POPC   D2A66664  19.017  27.602   6.755
10819POPC   C3A66665  19.091  27.636   7.055
10819POPC   C4A66666  19.017  27.575   7.355
10819POPC   C1B66667  18.800  27.449   6.455
10819POPC   C2B66668  18.838  27.480   6.755
10819POPC   C3B66669  18.885  27.474   7.055
10819POPC   C4B66670  18.877  27.418   7.355
10820POPC   NC366671  17.484   5.117   5.555
10820POPC   PO466672  17.478   5.077   5.855
10820POPC   GL166673  17.487   5.109   6.155
10820POPC   GL266674  17.422   5.225   6.155
10820POPC   C1A66675  17.469   5.051   6.455
10820POPC   D2A66676  17.516   5.104   6.755
10820POPC   C3A66677  17.508   5.069   7.055
10820POPC   C4A66678  17.498   5.046   7.355
10820POPC   C1B66679  17.404   5.285   6.455
10820POPC   C2B66680  17.352   5.329   6.755
10820POPC   C3B66681  17.354   5.303   7.055
10820POPC   C4B66682  17.383   5.286   7.355
10821POPC   NC366683   0.401  22.208   5.555
10821POPC   PO466684   0.483  22.197   5.855
10821POPC   GL166685   0.479  22.191   6.155
10821POPC   GL266686   0.315  22.140   6.155
10821POPC   C1A66687   0.395  22.189   6.455
10821POPC   D2A66688   0.399  22.152   6.755
10821POPC   C3A66689   0.479  22.148   7.055
10821POPC   C4A66690   0.410  22.193   7.355
10821POPC   C1B66691   0.214  22.054   6.455
10821POPC   C2B66692   0.173  22.040   6.755
10821POPC   C3B66693   0.199  22.130   7.055
10821POPC   C4B66694   0.174  22.069   7.355
10822POPC   NC366695  29.959  10.557   5.555
10822POPC   PO466696  29.906  10.476   5.855
10822POPC   GL166697  29.898  10.536   6.155
10822POPC   GL266698  29.832  10.577   6.155
10822POPC   C1A66699  29.951  10.533   6.455
10822POPC   D2A66700  29.916  10.556   6.755
10822POPC   C3A66701  29.899  10.534   7.055
10822POPC   C4A66702  29.961  10.546   7.355
10822POPC   C1B66703  29.650  10.627   6.455
10822POPC   C2B66704  29.637  10.614   6.755
10822POPC   C3B66705  29.644  10.610   7.055
10822POPC   C4B66706  29.675  10.549   7.355
10823POPC   NC366707  19.804   2.765   5.555
10823POPC   PO466708  19.860   2.796   5.855
10823POPC   GL166709  19.879   2.815   6.155
10823POPC   GL266710  19.793   2.814   6.155
10823POPC   C1A66711  19.864   2.801   6.455
10823POPC   D2A66712  19.884   2.814   6.755
10823POPC   C3A66713  19.817   2.725   7.055
10823POPC   C4A66714  19.828   2.754   7.355
10823POPC   C1B66715  19.719   2.929   6.455
10823POPC   C2B66716  19.698   2.978   6.755
10823POPC   C3B66717  19.705   2.928   7.055
10823POPC   C4B66718  19.702   2.911   7.355
10824POPC   NC366719  37.718   7.445   5.555
10824POPC   PO466720  37.718   7.383   5.855
10824POPC   GL166721  37.633   7.384   6.155
10824POPC   GL266722  37.795   7.562   6.155
10824POPC   C1A66723  37.661   7.385   6.455
10824POPC   D2A66724  37.718   7.388   6.755
10824POPC   C3A66725  37.707   7.466   7.055
10824POPC   C4A66726  37.646   7.379   7.355
10824POPC   C1B66727  37.834   7.575   6.455
10824POPC   C2B66728  37.831   7.577   6.755
10824POPC   C3B66729  37.896   7.593   7.055
10824POPC   C4B66730  37.852   7.628   7.355
10825POPC   NC366731  13.643  31.510   5.555
10825POPC   PO466732  13.642  31.468   5.855
10825POPC   GL166733  13.607  31.521   6.155
10825POPC   GL266734  13.631  31.375   6.155
10825POPC   C1A66735  13.627  31.474   6.455
10825POPC   D2A66736  13.620  31.505   6.755
10825POPC   C3A66737  13.583  31.474   7.055
10825POPC   C4A66738  13.661  31.469   7.355
10825POPC   C1B66739  13.658  31.204   6.455
10825POPC   C2B66740  13.708  31.281   6.755
10825POPC   C3B66741  13.663  31.202   7.055
10825POPC   C4B66742  13.709  31.250   7.355
10826POPC   NC366743   1.211   4.274   5.555
10826POPC   PO466744   1.165   4.268   5.855
10826POPC   GL166745   1.204   4.350   6.155
10826POPC   GL266746   1.121   4.208   6.155
10826POPC   C1A66747   1.241   4.336   6.455
10826POPC   D2A66748   1.195   4.360   6.755
10826POPC   C3A66749   1.180   4.276   7.055
10826POPC   C4A66750   1.204   4.288   7.355
10826POPC   C1B66751   1.044   4.108   6.455
10826POPC   C2B66752   1.127   4.118   6.755
10826POPC   C3B66753   1.054   4.151   7.055
10826POPC   C4B66754   1.040   4.115   7.355
10827POPC   NC366755  26.009  25.240   5.555
10827POPC   PO466756  26.045  25.263   5.855
10827POPC   GL166757  26.081  25.314   6.155
10827POPC   GL266758  26.095  25.199   6.155
10827POPC   C1A66759  26.025  25.225   6.455
10827POPC   D2A66760  25.998  25.296   6.755
10827POPC   C3A66761  25.994  25.271   7.055
10827POPC   C4A66762  26.059  25.239   7.355
10827POPC   C1B66763  26.230  25.060   6.455
10827POPC   C2B66764  26.222  25.030   6.755
10827POPC   C3B66765  26.211  25.051   7.055
10827POPC   C4B66766  26.239  25.098   7.355
10828POPC   NC366767  19.816  38.406   5.555
10828POPC   PO466768  19.844  38.454   5.855
10828POPC   GL166769  19.870  38.448   6.155
10828POPC   GL266770  19.906  38.596   6.155
10828POPC   C1A66771  19.794  38.406   6.455
10828POPC   D2A66772  19.839  38.459   6.755
10828POPC   C3A66773  19.818  38.492   7.055
10828POPC   C4A66774  19.820  38.441   7.355
10828POPC   C1B66775  19.992  38.699   6.455
10828POPC   C2B66776  19.970  38.639   6.755
10828POPC   C3B66777  19.982  38.627   7.055
10828POPC   C4B66778  19.920  38.681   7.355
10829POPC   NC366779  30.725  13.609   5.555
10829POPC   PO466780  30.705  13.618   5.855
10829POPC   GL166781  30.745  13.608   6.155
10829POPC   GL266782  30.595  13.636   6.155
10829POPC   C1A66783  30.648  13.653   6.455
10829POPC   D2A66784  30.672  13.594   6.755
10829POPC   C3A66785  30.716  13.654   7.055
10829POPC   C4A66786  30.654  13.607   7.355
10829POPC   C1B66787  30.479  13.646   6.455
10829POPC   C2B66788  30.484  13.666   6.755
10829POPC   C3B66789  30.445  13.625   7.055
10829POPC   C4B66790  30.454  13.678   7.355
10830POPC   NC366791  12.871  17.556   5.555
10830POPC   PO466792  12.823  17.505   5.855
10830POPC   GL166793  12.880  17.528   6.155
10830POPC   GL266794  12.757  17.603   6.155
10830POPC   C1A66795  12.876  17.467   6.455
10830POPC   D2A66796  12.821  17.518   6.755
10830POPC   C3A66797  12.873  17.501   7.055
10830POPC   C4A66798  12.857  17.530   7.355
10830POPC   C1B66799  12.616  17.594   6.455
10830POPC   C2B66800  12.609  17.593   6.755
10830POPC   C3B66801  12.661  17.676   7.055
10830POPC   C4B66802  12.644  17.657   7.355
10831POPC   NC366803  36.901  17.523   5.555
10831POPC   PO466804  36.897  17.495   5.855
10831POPC   GL166805  36.896  17.482   6.155
10831POPC   GL266806  36.914  17.662   6.155
10831POPC   C1A66807  36.918  17.460   6.455
10831POPC   D2A66808  36.906  17.464   6.755
10831POPC   C3A66809  36.862  17.499   7.055
10831POPC   C4A66810  36.870  17.474   7.355
10831POPC   C1B66811  36.874  17.712   6.455
10831POPC   C2B66812  36.880  17.784   6.755
10831POPC   C3B66813  36.882  17.724   7.055
10831POPC   C4B66814  36.861  17.714   7.355
10832POPC   NC366815  30.738  31.449   5.555
10832POPC   PO466816  30.663  31.488   5.855
10832POPC   GL166817  30.683  31.432   6.155
10832POPC   GL266818  30.785  31.395   6.155
10832POPC   C1A66819  30.739  31.481   6.455
10832POPC   D2A66820  30.682  31.507   6.755
10832POPC   C3A66821  30.737  31.452   7.055
10832POPC   C4A66822  30.654  31.505   7.355
10832POPC   C1B66823  30.890  31.279   6.455
10832POPC   C2B66824  30.836  31.256   6.755
10832POPC   C3B66825  30.855  31.291   7.055
10832POPC   C4B66826  30.839  31.258   7.355
10833POPC   NC366827  17.491  36.158   5.555
10833POPC   PO466828  17.510  36.131   5.855
10833POPC   GL166829  17.527  36.106   6.155
10833POPC   GL266830  17.526  36.261   6.155
10833POPC   C1A66831  17.512  36.138   6.455
10833POPC   D2A66832  17.488  36.126   6.755
10833POPC   C3A66833  17.483  36.130   7.055
10833POPC   C4A66834  17.496  36.153   7.355
10833POPC   C1B66835  17.429  36.348   6.455
10833POPC   C2B66836  17.448  36.379   6.755
10833POPC   C3B66837  17.491  36.415   7.055
10833POPC   C4B66838  17.491  36.337   7.355
10834POPC   NC366839  34.543   2.783   5.555
10834POPC   PO466840  34.553   2.747   5.855
10834POPC   GL166841  34.526   2.763   6.155
10834POPC   GL266842  34.577   2.897   6.155
10834POPC   C1A66843  34.533   2.760   6.455
10834POPC   D2A66844  34.613   2.808   6.755
10834POPC   C3A66845  34.537   2.733   7.055
10834POPC   C4A66846  34.590   2.753   7.355
10834POPC   C1B66847  34.646   2.957   6.455
10834POPC   C2B66848  34.627   2.969   6.755
10834POPC   C3B66849  34.695   2.962   7.055
10834POPC   C4B66850  34.624   3.003   7.355
10835POPC   NC366851  38.425  32.243   5.555
10835POPC   PO466852  38.503  32.259   5.855
10835POPC   GL166853  38.435  32.277   6.155
10835POPC   GL266854  38.385  32.093   6.155
10835POPC   C1A66855  38.501  32.258   6.455
10835POPC   D2A66856  38.408  32.297   6.755
10835POPC   C3A66857  38.451  32.295   7.055
10835POPC   C4A66858  38.431  32.207   7.355
10835POPC   C1B66859  38.372  32.002   6.455
10835POPC   C2B66860  38.433  31.960   6.755
10835POPC   C3B66861  38.386  32.035   7.055
10835POPC   C4B66862  38.346  31.992   7.355
10836POPC   NC366863   8.152  22.197   5.555
10836POPC   PO466864   8.237  22.139   5.855
10836POPC   GL166865   8.202  22.116   6.155
10836POPC   GL266866   8.193  22.067   6.155
10836POPC   C1A66867   8.189  22.190   6.455
10836POPC   D2A66868   8.158  22.126   6.755
10836POPC   C3A66869   8.179  22.167   7.055
10836POPC   C4A66870   8.217  22.183   7.355
10836POPC   C1B66871   8.266  21.874   6.455
10836POPC   C2B66872   8.213  21.937   6.755
10836POPC   C3B66873   8.263  21.949   7.055
10836POPC   C4B66874   8.279  21.952   7.355
10837POPC   NC366875  15.175  38.468   5.555
10837POPC   PO466876  15.141  38.420   5.855
10837POPC   GL166877  15.200  38.493   6.155
10837POPC   GL266878  15.273  38.442   6.155
10837POPC   C1A66879  15.212  38.503   6.455
10837POPC   D2A66880  15.145  38.500   6.755
10837POPC   C3A66881  15.183  38.413   7.055
10837POPC   C4A66882  15.227  38.495   7.355
10837POPC   C1B66883  15.397  38.368   6.455
10837POPC   C2B66884  15.464  38.369   6.755
10837POPC   C3B66885  15.454  38.426   7.055
10837POPC   C4B66886  15.415  38.428   7.355
10838POPC   NC366887   5.855   4.321   5.555
10838POPC   PO466888   5.897   4.297   5.855
10838POPC   GL166889   5.835   4.310   6.155
10838POPC   GL266890   5.998   4.303   6.155
10838POPC   C1A66891   5.844   4.309   6.455
10838POPC   D2A66892   5.846   4.356   6.755
10838POPC   C3A66893   5.864   4.360   7.055
10838POPC   C4A66894   5.833   4.360   7.355
10838POPC   C1B66895   6.163   4.365   6.455
10838POPC   C2B66896   6.157   4.344   6.755
10838POPC   C3B66897   6.083   4.338   7.055
10838POPC   C4B66898   6.088   4.387   7.355
10839POPC   NC366899  12.080  43.132   5.555
10839POPC   PO466900  12.056  43.121   5.855
10839POPC   GL166901  12.097  43.076   6.155
10839POPC   GL266902  12.059  43.265   6.155
10839POPC   C1A66903  12.076  43.086   6.455
10839POPC   D2A66904  12.101  43.135   6.755
10839POPC   C3A66905  12.114  43.085   7.055
10839POPC   C4A66906  12.117  43.146   7.355
10839POPC   C1B66907  11.987  43.384   6.455
10839POPC   C2B66908  12.017  43.360   6.755
10839POPC   C3B66909  11.978  43.332   7.055
10839POPC   C4B66910  11.999  43.317   7.355
10840POPC   NC366911  37.629  23.690   5.555
10840POPC   PO466912  37.704  23.710   5.855
10840POPC   GL166913  37.715  23.679   6.155
10840POPC   GL266914  37.547  23.626   6.155
10840POPC   C1A66915  37.706  23.714   6.455
10840POPC   D2A66916  37.716  23.730   6.755
10840POPC   C3A66917  37.669  23.742   7.055
10840POPC   C4A66918  37.696  23.762   7.355
10840POPC   C1B66919  37.495  23.522   6.455
10840POPC   C2B66920  37.498  23.539   6.755
10840POPC   C3B66921  37.484  23.544   7.055
10840POPC   C4B66922  37.507  23.573   7.355
10841POPC   NC366923  39.262  35.313   5.555
10841POPC   PO466924  39.247  35.321   5.855
10841POPC   GL166925  39.210  35.347   6.155
10841POPC   GL266926  39.105  35.290   6.155
10841POPC   C1A66927  39.237  35.385   6.455
10841POPC   D2A66928  39.226  35.386   6.755
10841POPC   C3A66929  39.187  35.387   7.055
10841POPC   C4A66930  39.279  35.356   7.355
10841POPC   C1B66931  39.117  35.153   6.455
10841POPC   C2B66932  39.042  35.164   6.755
10841POPC   C3B66933  39.109  35.187   7.055
10841POPC   C4B66934  39.083  35.120   7.355
10842POPC   NC366935  19.069   8.981   5.555
10842POPC   PO466936  19.019   8.974   5.855
10842POPC   GL166937  19.089   8.934   6.155
10842POPC   GL266938  19.137   9.107   6.155
10842POPC   C1A66939  19.101   8.989   6.455
10842POPC   D2A66940  19.085   8.932   6.755
10842POPC   C3A66941  19.066   8.997   7.055
10842POPC   C4A66942  19.095   8.932   7.355
10842POPC   C1B66943  19.124   9.219   6.455
10842POPC   C2B66944  19.193   9.189   6.755
10842POPC   C3B66945  19.124   9.167   7.055
10842POPC   C4B66946  19.179   9.208   7.355
10843POPC   NC366947  41.524   3.494   5.555
10843POPC   PO466948  41.547   3.569   5.855
10843POPC   GL166949  41.536   3.506   6.155
10843POPC   GL266950  41.613   3.654   6.155
10843POPC   C1A66951  41.605   3.510   6.455
10843POPC   D2A66952  41.591   3.575   6.755
10843POPC   C3A66953  41.574   3.576   7.055
10843POPC   C4A66954  41.578   3.560   7.355
10843POPC   C1B66955  41.702   3.799   6.455
10843POPC   C2B66956  41.741   3.799   6.755
10843POPC   C3B66957  41.721   3.718   7.055
10843POPC   C4B66958  41.723   3.795   7.355
10844POPC   NC366959  43.899   5.899   5.555
10844POPC   PO466960  43.913   5.904   5.855
10844POPC   GL166961  43.909   5.901   6.155
10844POPC   GL266962  43.980   5.978   6.155
10844POPC   C1A66963  43.892   5.884   6.455
10844POPC   D2A66964  43.910   5.880   6.755
10844POPC   C3A66965  43.888   5.830   7.055
10844POPC   C4A66966  43.840   5.883   7.355
10844POPC   C1B66967  44.044   6.029   6.455
10844POPC   C2B66968  43.992   6.111   6.755
10844POPC   C3B66969  44.021   6.042   7.055
10844POPC   C4B66970  44.007   6.048   7.355
10845POPC   NC366971  33.756  33.821   5.555
10845POPC   PO466972  33.755  33.842   5.855
10845POPC   GL166973  33.782  33.794   6.155
10845POPC   GL266974  33.719  33.702   6.155
10845POPC   C1A66975  33.780  33.760   6.455
10845POPC   D2A66976  33.762  33.772   6.755
10845POPC   C3A66977  33.750  33.823   7.055
10845POPC   C4A66978  33.759  33.845   7.355
10845POPC   C1B66979  33.669  33.571   6.455
10845POPC   C2B66980  33.753  33.549   6.755
10845POPC   C3B66981  33.742  33.563   7.055
10845POPC   C4B66982  33.751  33.590   7.355
10846POPC   NC366983  36.150  17.457   5.555
10846POPC   PO466984  36.137  17.485   5.855
10846POPC   GL166985  36.114  17.521   6.155
10846POPC   GL266986  36.176  17.599   6.155
10846POPC   C1A66987  36.124  17.538   6.455
10846POPC   D2A66988  36.140  17.556   6.755
10846POPC   C3A66989  36.144  17.511   7.055
10846POPC   C4A66990  36.125  17.476   7.355
10846POPC   C1B66991  36.335  17.642   6.455
10846POPC   C2B66992  36.301  17.637   6.755
10846POPC   C3B66993  36.289  17.655   7.055
10846POPC   C4B66994  36.287  17.667   7.355
10847POPC   NC366995   1.989  34.529   5.555
10847POPC   PO466996   2.025  34.582   5.855
10847POPC   GL166997   1.981  34.540   6.155
10847POPC   GL266998   1.916  34.700   6.155
10847POPC   C1A66999   1.966  34.586   6.455
10847POPC   D2A67000   1.973  34.620   6.755
10847POPC   C3A67001   2.034  34.563   7.055
10847POPC   C4A67002   2.027  34.542   7.355
10847POPC   C1B67003   1.859  34.794   6.455
10847POPC   C2B67004   1.875  34.777   6.755
10847POPC   C3B67005   1.820  34.735   7.055
10847POPC   C4B67006   1.835  34.773   7.355
10848POPC   NC367007  22.178  31.435   5.555
10848POPC   PO467008  22.144  31.499   5.855
10848POPC   GL167009  22.127  31.426   6.155
10848POPC   GL267010  22.138  31.636   6.155
10848POPC   C1A67011  22.156  31.482   6.455
10848POPC   D2A67012  22.117  31.489   6.755
10848POPC   C3A67013  22.205  31.486   7.055
10848POPC   C4A67014  22.174  31.461   7.355
10848POPC   C1B67015  22.049  31.668   6.455
10848POPC   C2B67016  22.076  31.671   6.755
10848POPC   C3B67017  22.016  31.686   7.055
10848POPC   C4B67018  22.032  31.653   7.355
10849POPC   NC367019   4.335  10.548   5.555
10849POPC   PO467020   4.279  10.483   5.855
10849POPC   GL167021   4.325  10.541   6.155
10849POPC   GL267022   4.437  10.442   6.155
10849POPC   C1A67023   4.365  10.562   6.455
10849POPC   D2A67024   4.351  10.475   6.755
10849POPC   C3A67025   4.300  10.569   7.055
10849POPC   C4A67026   4.339  10.477   7.355
10849POPC   C1B67027   4.523  10.393   6.455
10849POPC   C2B67028   4.559  10.416   6.755
10849POPC   C3B67029   4.478  10.371   7.055
10849POPC   C4B67030   4.524  10.380   7.355
10850POPC   NC367031  35.390  36.150   5.555
10850POPC   PO467032  35.341  36.178   5.855
10850POPC   GL167033  35.366  36.110   6.155
10850POPC   GL267034  35.430  36.050   6.155
10850POPC   C1A67035  35.400  36.104   6.455
10850POPC   D2A67036  35.327  36.079   6.755
10850POPC   C3A67037  35.310  36.116   7.055
10850POPC   C4A67038  35.363  36.177   7.355
10850POPC   C1B67039  35.614  36.042   6.455
10850POPC   C2B67040  35.577  35.998   6.755
10850POPC   C3B67041  35.523  35.956   7.055
10850POPC   C4B67042  35.566  35.986   7.355
10851POPC   NC367043  11.303  26.833   5.555
10851POPC   PO467044  11.312  26.845   5.855
10851POPC   GL167045  11.337  26.773   6.155
10851POPC   GL267046  11.329  26.672   6.155
10851POPC   C1A67047  11.346  26.785   6.455
10851POPC   D2A67048  11.349  26.803   6.755
10851POPC   C3A67049  11.334  26.775   7.055
10851POPC   C4A67050  11.310  26.837   7.355
10851POPC   C1B67051  11.466  26.651   6.455
10851POPC   C2B67052  11.427  26.641   6.755
10851POPC   C3B67053  11.405  26.593   7.055
10851POPC   C4B67054  11.483  26.584   7.355
10852POPC   NC367055  42.368  21.361   5.555
10852POPC   PO467056  42.359  21.354   5.855
10852POPC   GL167057  42.330  21.402   6.155
10852POPC   GL267058  42.370  21.269   6.155
10852POPC   C1A67059  42.339  21.346   6.455
10852POPC   D2A67060  42.344  21.391   6.755
10852POPC   C3A67061  42.293  21.407   7.055
10852POPC   C4A67062  42.317  21.410   7.355
10852POPC   C1B67063  42.381  21.108   6.455
10852POPC   C2B67064  42.322  21.119   6.755
10852POPC   C3B67065  42.342  21.142   7.055
10852POPC   C4B67066  42.353  21.126   7.355
10853POPC   NC367067   1.973  40.015   5.555
10853POPC   PO467068   2.008  40.048   5.855
10853POPC   GL167069   2.015  40.027   6.155
10853POPC   GL267070   1.979  39.867   6.155
10853POPC   C1A67071   2.010  40.047   6.455
10853POPC   D2A67072   1.961  40.043   6.755
10853POPC   C3A67073   2.021  40.054   7.055
10853POPC   C4A67074   1.968  40.054   7.355
10853POPC   C1B67075   1.862  39.780   6.455
10853POPC   C2B67076   1.882  39.773   6.755
10853POPC   C3B67077   1.891  39.745   7.055
10853POPC   C4B67078   1.890  39.772   7.355
10854POPC   NC367079  10.513  31.501   5.555
10854POPC   PO467080  10.532  31.427   5.855
10854POPC   GL167081  10.491  31.490   6.155
10854POPC   GL267082  10.646  31.511   6.155
10854POPC   C1A67083  10.519  31.480   6.455
10854POPC   D2A67084  10.478  31.483   6.755
10854POPC   C3A67085  10.553  31.428   7.055
10854POPC   C4A67086  10.477  31.482   7.355
10854POPC   C1B67087  10.774  31.481   6.455
10854POPC   C2B67088  10.772  31.458   6.755
10854POPC   C3B67089  10.805  31.472   7.055
10854POPC   C4B67090  10.803  31.430   7.355
10855POPC   NC367091  12.050  36.101   5.555
10855POPC   PO467092  12.125  36.162   5.855
10855POPC   GL167093  12.075  36.114   6.155
10855POPC   GL267094  12.183  36.228   6.155
10855POPC   C1A67095  12.071  36.156   6.455
10855POPC   D2A67096  12.108  36.164   6.755
10855POPC   C3A67097  12.125  36.177   7.055
10855POPC   C4A67098  12.096  36.135   7.355
10855POPC   C1B67099  12.338  36.251   6.455
10855POPC   C2B67100  12.281  36.290   6.755
10855POPC   C3B67101  12.316  36.218   7.055
10855POPC   C4B67102  12.259  36.283   7.355
10856POPC   NC367103  12.816  10.550   5.555
10856POPC   PO467104  12.892  10.542   5.855
10856POPC   GL167105  12.823  10.484   6.155
10856POPC   GL267106  12.951  10.457   6.155
10856POPC   C1A67107  12.883  10.506   6.455
10856POPC   D2A67108  12.827  10.527   6.755
10856POPC   C3A67109  12.884  10.540   7.055
10856POPC   C4A67110  12.831  10.502   7.355
10856POPC   C1B67111  13.097  10.368   6.455
10856POPC   C2B67112  13.024  10.420   6.755
10856POPC   C3B67113  13.080  10.413   7.055
10856POPC   C4B67114  13.058  10.422   7.355
10857POPC   NC367115   1.199   5.046   5.555
10857POPC   PO467116   1.263   5.097   5.855
10857POPC   GL167117   1.216   5.072   6.155
10857POPC   GL267118   1.153   5.038   6.155
10857POPC   C1A67119   1.226   5.136   6.455
10857POPC   D2A67120   1.191   5.127   6.755
10857POPC   C3A67121   1.210   5.134   7.055
10857POPC   C4A67122   1.218   5.113   7.355
10857POPC   C1B67123   1.045   4.977   6.455
10857POPC   C2B67124   1.055   4.969   6.755
10857POPC   C3B67125   1.026   4.929   7.055
10857POPC   C4B67126   0.995   4.934   7.355
10858POPC   NC367127   3.514  29.918   5.555
10858POPC   PO467128   3.560  29.916   5.855
10858POPC   GL167129   3.503  29.959   6.155
10858POPC   GL267130   3.504  30.073   6.155
10858POPC   C1A67131   3.581  29.917   6.455
10858POPC   D2A67132   3.581  29.891   6.755
10858POPC   C3A67133   3.563  29.949   7.055
10858POPC   C4A67134   3.528  29.959   7.355
10858POPC   C1B67135   3.494  30.147   6.455
10858POPC   C2B67136   3.538  30.149   6.755
10858POPC   C3B67137   3.528  30.205   7.055
10858POPC   C4B67138   3.501  30.215   7.355
10859POPC   NC367139   5.905  36.118   5.555
10859POPC   PO467140   5.851  36.081   5.855
10859POPC   GL167141   5.822  36.163   6.155
10859POPC   GL267142   5.774  36.089   6.155
10859POPC   C1A67143   5.917  36.135   6.455
10859POPC   D2A67144   5.842  36.160   6.755
10859POPC   C3A67145   5.904  36.143   7.055
10859POPC   C4A67146   5.883  36.135   7.355
10859POPC   C1B67147   5.664  36.119   6.455
10859POPC   C2B67148   5.613  36.044   6.755
10859POPC   C3B67149   5.663  36.124   7.055
10859POPC   C4B67150   5.653  36.111   7.355
10860POPC   NC367151   8.165  11.337   5.555
10860POPC   PO467152   8.191  11.270   5.855
10860POPC   GL167153   8.223  11.305   6.155
10860POPC   GL267154   8.310  11.168   6.155
10860POPC   C1A67155   8.195  11.267   6.455
10860POPC   D2A67156   8.214  11.290   6.755
10860POPC   C3A67157   8.225  11.254   7.055
10860POPC   C4A67158   8.245  11.320   7.355
10860POPC   C1B67159   8.413  11.145   6.455
10860POPC   C2B67160   8.424  11.145   6.755
10860POPC   C3B67161   8.366  11.139   7.055
10860POPC   C4B67162   8.339  11.151   7.355
10861POPC   NC367163  41.546  42.317   5.555
10861POPC   PO467164  41.515  42.369   5.855
10861POPC   GL167165  41.525  42.286   6.155
10861POPC   GL267166  41.430  42.388   6.155
10861POPC   C1A67167  41.517  42.363   6.455
10861POPC   D2A67168  41.554  42.322   6.755
10861POPC   C3A67169  41.579  42.338   7.055
10861POPC   C4A67170  41.578  42.379   7.355
10861POPC   C1B67171  41.343  42.369   6.455
10861POPC   C2B67172  41.311  42.347   6.755
10861POPC   C3B67173  41.302  42.343   7.055
10861POPC   C4B67174  41.269  42.382   7.355
10862POPC   NC367175  36.904  36.110   5.555
10862POPC   PO467176  36.855  36.110   5.855
10862POPC   GL167177  36.952  36.105   6.155
10862POPC   GL267178  36.984  36.183   6.155
10862POPC   C1A67179  36.898  36.116   6.455
10862POPC   D2A67180  36.905  36.173   6.755
10862POPC   C3A67181  36.897  36.162   7.055
10862POPC   C4A67182  36.932  36.114   7.355
10862POPC   C1B67183  37.100  36.210   6.455
10862POPC   C2B67184  37.112  36.190   6.755
10862POPC   C3B67185  37.121  36.182   7.055
10862POPC   C4B67186  37.161  36.224   7.355
10863POPC   NC367187  42.355   4.317   5.555
10863POPC   PO467188  42.325   4.335   5.855
10863POPC   GL167189  42.362   4.343   6.155
10863POPC   GL267190  42.357   4.176   6.155
10863POPC   C1A67191  42.338   4.354   6.455
10863POPC   D2A67192  42.301   4.347   6.755
10863POPC   C3A67193  42.373   4.271   7.055
10863POPC   C4A67194  42.343   4.333   7.355
10863POPC   C1B67195  42.425   4.056   6.455
10863POPC   C2B67196  42.435   4.082   6.755
10863POPC   C3B67197  42.453   4.072   7.055
10863POPC   C4B67198  42.479   4.104   7.355
10864POPC   NC367199  34.533  26.032   5.555
10864POPC   PO467200  34.608  26.076   5.855
10864POPC   GL167201  34.611  26.044   6.155
10864POPC   GL267202  34.443  26.064   6.155
10864POPC   C1A67203  34.545  26.000   6.455
10864POPC   D2A67204  34.578  26.047   6.755
10864POPC   C3A67205  34.619  26.029   7.055
10864POPC   C4A67206  34.590  25.992   7.355
10864POPC   C1B67207  34.359  26.048   6.455
10864POPC   C2B67208  34.372  26.010   6.755
10864POPC   C3B67209  34.303  26.024   7.055
10864POPC   C4B67210  34.347  26.018   7.355
10865POPC   NC367211  28.373  16.723   5.555
10865POPC   PO467212  28.349  16.700   5.855
10865POPC   GL167213  28.412  16.745   6.155
10865POPC   GL267214  28.410  16.636   6.155
10865POPC   C1A67215  28.391  16.707   6.455
10865POPC   D2A67216  28.379  16.692   6.755
10865POPC   C3A67217  28.385  16.715   7.055
10865POPC   C4A67218  28.344  16.705   7.355
10865POPC   C1B67219  28.498  16.475   6.455
10865POPC   C2B67220  28.545  16.482   6.755
10865POPC   C3B67221  28.483  16.518   7.055
10865POPC   C4B67222  28.468  16.516   7.355
10866POPC   NC367223  13.631  12.865   5.555
10866POPC   PO467224  13.640  12.814   5.855
10866POPC   GL167225  13.608  12.891   6.155
10866POPC   GL267226  13.558  12.740   6.155
10866POPC   C1A67227  13.626  12.858   6.455
10866POPC   D2A67228  13.660  12.851   6.755
10866POPC   C3A67229  13.670  12.901   7.055
10866POPC   C4A67230  13.603  12.854   7.355
10866POPC   C1B67231  13.469  12.614   6.455
10866POPC   C2B67232  13.535  12.581   6.755
10866POPC   C3B67233  13.488  12.601   7.055
10866POPC   C4B67234  13.476  12.609   7.355
10867POPC   NC367235  20.651  31.485   5.555
10867POPC   PO467236  20.627  31.437   5.855
10867POPC   GL167237  20.562  31.485   6.155
10867POPC   GL267238  20.531  31.467   6.155
10867POPC   C1A67239  20.657  31.437   6.455
10867POPC   D2A67240  20.579  31.473   6.755
10867POPC   C3A67241  20.609  31.429   7.055
10867POPC   C4A67242  20.649  31.454   7.355
10867POPC   C1B67243  20.381  31.513   6.455
10867POPC   C2B67244  20.321  31.515   6.755
10867POPC   C3B67245  20.382  31.489   7.055
10867POPC   C4B67246  20.380  31.515   7.355
10868POPC   NC367247  38.465   3.565   5.555
10868POPC   PO467248  38.478   3.523   5.855
10868POPC   GL167249  38.471   3.541   6.155
10868POPC   GL267250  38.580   3.538   6.155
10868POPC   C1A67251  38.422   3.514   6.455
10868POPC   D2A67252  38.486   3.502   6.755
10868POPC   C3A67253  38.464   3.518   7.055
10868POPC   C4A67254  38.422   3.524   7.355
10868POPC   C1B67255  38.683   3.596   6.455
10868POPC   C2B67256  38.745   3.571   6.755
10868POPC   C3B67257  38.700   3.640   7.055
10868POPC   C4B67258  38.649   3.639   7.355
10869POPC   NC367259  20.585  24.463   5.555
10869POPC   PO467260  20.624  24.504   5.855
10869POPC   GL167261  20.579  24.527   6.155
10869POPC   GL267262  20.581  24.335   6.155
10869POPC   C1A67263  20.599  24.539   6.455
10869POPC   D2A67264  20.562  24.444   6.755
10869POPC   C3A67265  20.586  24.513   7.055
10869POPC   C4A67266  20.642  24.464   7.355
10869POPC   C1B67267  20.483  24.284   6.455
10869POPC   C2B67268  20.494  24.290   6.755
10869POPC   C3B67269  20.459  24.305   7.055
10869POPC   C4B67270  20.450  24.271   7.355
10870POPC   NC367271  19.100   7.462   5.555
10870POPC   PO467272  19.070   7.393   5.855
10870POPC   GL167273  19.044   7.443   6.155
10870POPC   GL267274  19.065   7.583   6.155
10870POPC   C1A67275  19.069   7.443   6.455
10870POPC   D2A67276  19.070   7.392   6.755
10870POPC   C3A67277  19.085   7.397   7.055
10870POPC   C4A67278  19.016   7.377   7.355
10870POPC   C1B67279  19.013   7.623   6.455
10870POPC   C2B67280  19.047   7.694   6.755
10870POPC   C3B67281  19.081   7.621   7.055
10870POPC   C4B67282  19.004   7.714   7.355
10871POPC   NC367283  27.631  26.828   5.555
10871POPC   PO467284  27.555  26.768   5.855
10871POPC   GL167285  27.633  26.832   6.155
10871POPC   GL267286  27.694  26.799   6.155
10871POPC   C1A67287  27.555  26.861   6.455
10871POPC   D2A67288  27.603  26.834   6.755
10871POPC   C3A67289  27.594  26.804   7.055
10871POPC   C4A67290  27.612  26.819   7.355
10871POPC   C1B67291  27.813  26.740   6.455
10871POPC   C2B67292  27.865  26.719   6.755
10871POPC   C3B67293  27.845  26.745   7.055
10871POPC   C4B67294  27.805  26.713   7.355
10872POPC   NC367295   1.949  30.651   5.555
10872POPC   PO467296   1.977  30.708   5.855
10872POPC   GL167297   1.959  30.716   6.155
10872POPC   GL267298   1.864  30.756   6.155
10872POPC   C1A67299   1.982  30.745   6.455
10872POPC   D2A67300   2.015  30.732   6.755
10872POPC   C3A67301   1.990  30.685   7.055
10872POPC   C4A67302   1.980  30.664   7.355
10872POPC   C1B67303   1.756  30.696   6.455
10872POPC   C2B67304   1.786  30.750   6.755
10872POPC   C3B67305   1.714  30.755   7.055
10872POPC   C4B67306   1.726  30.752   7.355
10873POPC   NC367307  26.000  16.754   5.555
10873POPC   PO467308  26.006  16.734   5.855
10873POPC   GL167309  26.054  16.686   6.155
10873POPC   GL267310  25.951  16.874   6.155
10873POPC   C1A67311  26.028  16.701   6.455
10873POPC   D2A67312  26.065  16.731   6.755
10873POPC   C3A67313  26.024  16.726   7.055
10873POPC   C4A67314  26.066  16.697   7.355
10873POPC   C1B67315  25.924  16.926   6.455
10873POPC   C2B67316  25.892  16.909   6.755
10873POPC   C3B67317  25.909  16.936   7.055
10873POPC   C4B67318  25.835  16.959   7.355
10874POPC   NC367319   5.044  40.005   5.555
10874POPC   PO467320   5.069  39.975   5.855
10874POPC   GL167321   5.119  39.966   6.155
10874POPC   GL267322   5.041  39.852   6.155
10874POPC   C1A67323   5.081  39.981   6.455
10874POPC   D2A67324   5.073  40.049   6.755
10874POPC   C3A67325   5.143  40.050   7.055
10874POPC   C4A67326   5.108  40.000   7.355
10874POPC   C1B67327   4.964  39.750   6.455
10874POPC   C2B67328   5.008  39.809   6.755
10874POPC   C3B67329   4.989  39.761   7.055
10874POPC   C4B67330   4.987  39.768   7.355
10875POPC   NC367331  18.329  27.544   5.555
10875POPC   PO467332  18.248  27.582   5.855
10875POPC   GL167333  18.255  27.569   6.155
10875POPC   GL267334  18.426  27.683   6.155
10875POPC   C1A67335  18.267  27.630   6.455
10875POPC   D2A67336  18.330  27.567   6.755
10875POPC   C3A67337  18.248  27.582   7.055
10875POPC   C4A67338  18.306  27.576   7.355
10875POPC   C1B67339  18.474  27.712   6.455
10875POPC   C2B67340  18.474  27.761   6.755
10875POPC   C3B67341  18.501  27.690   7.055
10875POPC   C4B67342  18.529  27.735   7.355
10876POPC   NC367343  36.114  20.562   5.555
10876POPC   PO467344  36.103  20.636   5.855
10876POPC   GL167345  36.137  20.632   6.155
10876POPC   GL267346  36.067  20.743   6.155
10876POPC   C1A67347  36.166  20.611   6.455
10876POPC   D2A67348  36.119  20.644   6.755
10876POPC   C3A67349  36.124  20.630   7.055
10876POPC   C4A67350  36.088  20.644   7.355
10876POPC   C1B67351  35.973  20.804   6.455
10876POPC   C2B67352  35.962  20.843   6.755
10876POPC   C3B67353  36.000  20.805   7.055
10876POPC   C4B67354  35.986  20.857   7.355
10877POPC   NC367355  22.970  12.063   5.555
10877POPC   PO467356  22.973  12.069   5.855
10877POPC   GL167357  22.986  12.124   6.155
10877POPC   GL267358  22.851  12.032   6.155
10877POPC   C1A67359  22.942  12.070   6.455
10877POPC   D2A67360  22.983  12.112   6.755
10877POPC   C3A67361  22.924  12.027   7.055
10877POPC   C4A67362  22.950  12.061   7.355
10877POPC   C1B67363  22.751  11.971   6.455
10877POPC   C2B67364  22.738  11.927   6.755
10877POPC   C3B67365  22.722  11.904   7.055
10877POPC   C4B67366  22.744  11.956   7.355
10878POPC   NC367367  36.883   9.776   5.555
10878POPC   PO467368  36.881   9.749   5.855
10878POPC   GL167369  36.859   9.732   6.155
10878POPC   GL267370  36.886   9.908   6.155
10878POPC   C1A67371  36.863   9.765   6.455
10878POPC   D2A67372  36.859   9.776   6.755
10878POPC   C3A67373  36.889   9.788   7.055
10878POPC   C4A67374  36.902   9.748   7.355
10878POPC   C1B67375  36.855  10.034   6.455
10878POPC   C2B67376  36.882  10.022   6.755
10878POPC   C3B67377  36.812   9.997   7.055
10878POPC   C4B67378  36.902  10.031   7.355
10879POPC   NC367379  32.246   7.446   5.555
10879POPC   PO467380  32.223   7.383   5.855
10879POPC   GL167381  32.232   7.423   6.155
10879POPC   GL267382  32.405   7.451   6.155
10879POPC   C1A67383  32.204   7.439   6.455
10879POPC   D2A67384  32.289   7.403   6.755
10879POPC   C3A67385  32.229   7.464   7.055
10879POPC   C4A67386  32.285   7.372   7.355
10879POPC   C1B67387  32.543   7.350   6.455
10879POPC   C2B67388  32.495   7.431   6.755
10879POPC   C3B67389  32.541   7.352   7.055
10879POPC   C4B67390  32.490   7.385   7.355
10880POPC   NC367391  10.571  40.047   5.555
10880POPC   PO467392  10.527  40.025   5.855
10880POPC   GL167393  10.507  39.982   6.155
10880POPC   GL267394  10.591  40.106   6.155
10880POPC   C1A67395  10.534  40.030   6.455
10880POPC   D2A67396  10.541  39.965   6.755
10880POPC   C3A67397  10.525  40.050   7.055
10880POPC   C4A67398  10.474  39.992   7.355
10880POPC   C1B67399  10.688  40.160   6.455
10880POPC   C2B67400  10.644  40.217   6.755
10880POPC   C3B67401  10.725  40.174   7.055
10880POPC   C4B67402  10.681  40.238   7.355
10881POPC   NC367403  35.367   1.223   5.555
10881POPC   PO467404  35.398   1.213   5.855
10881POPC   GL167405  35.352   1.221   6.155
10881POPC   GL267406  35.280   1.250   6.155
10881POPC   C1A67407  35.331   1.197   6.455
10881POPC   D2A67408  35.360   1.263   6.755
10881POPC   C3A67409  35.360   1.206   7.055
10881POPC   C4A67410  35.366   1.249   7.355
10881POPC   C1B67411  35.083   1.231   6.455
10881POPC   C2B67412  35.141   1.301   6.755
10881POPC   C3B67413  35.138   1.243   7.055
10881POPC   C4B67414  35.088   1.301   7.355
10882POPC   NC367415  11.265  19.013   5.555
10882POPC   PO467416  11.319  19.045   5.855
10882POPC   GL167417  11.267  19.091   6.155
10882POPC   GL267418  11.242  19.164   6.155
10882POPC   C1A67419  11.320  19.018   6.455
10882POPC   D2A67420  11.336  19.054   6.755
10882POPC   C3A67421  11.255  19.020   7.055
10882POPC   C4A67422  11.303  19.049   7.355
10882POPC   C1B67423  11.242  19.262   6.455
10882POPC   C2B67424  11.273  19.304   6.755
10882POPC   C3B67425  11.235  19.260   7.055
10882POPC   C4B67426  11.314  19.314   7.355
10883POPC   NC367427  11.271   1.981   5.555
10883POPC   PO467428  11.259   1.976   5.855
10883POPC   GL167429  11.334   2.037   6.155
10883POPC   GL267430  11.428   1.872   6.155
10883POPC   C1A67431  11.274   1.969   6.455
10883POPC   D2A67432  11.274   2.013   6.755
10883POPC   C3A67433  11.310   1.993   7.055
10883POPC   C4A67434  11.321   1.969   7.355
10883POPC   C1B67435  11.462   1.825   6.455
10883POPC   C2B67436  11.516   1.807   6.755
10883POPC   C3B67437  11.456   1.836   7.055
10883POPC   C4B67438  11.529   1.822   7.355
10884POPC   NC367439   5.141  17.504   5.555
10884POPC   PO467440   5.126  17.509   5.855
10884POPC   GL167441   5.098  17.510   6.155
10884POPC   GL267442   5.057  17.635   6.155
10884POPC   C1A67443   5.141  17.519   6.455
10884POPC   D2A67444   5.099  17.516   6.755
10884POPC   C3A67445   5.098  17.484   7.055
10884POPC   C4A67446   5.108  17.507   7.355
10884POPC   C1B67447   5.056  17.775   6.455
10884POPC   C2B67448   4.994  17.762   6.755
10884POPC   C3B67449   5.025  17.732   7.055
10884POPC   C4B67450   5.060  17.721   7.355
10885POPC   NC367451  41.523  25.254   5.555
10885POPC   PO467452  41.598  25.268   5.855
10885POPC   GL167453  41.567  25.295   6.155
10885POPC   GL267454  41.644  25.369   6.155
10885POPC   C1A67455  41.602  25.301   6.455
10885POPC   D2A67456  41.539  25.295   6.755
10885POPC   C3A67457  41.545  25.253   7.055
10885POPC   C4A67458  41.551  25.314   7.355
10885POPC   C1B67459  41.649  25.480   6.455
10885POPC   C2B67460  41.647  25.441   6.755
10885POPC   C3B67461  41.709  25.481   7.055
10885POPC   C4B67462  41.656  25.523   7.355
10886POPC   NC367463  22.954  30.714   5.555
10886POPC   PO467464  22.895  30.724   5.855
10886POPC   GL167465  22.958  30.669   6.155
10886POPC   GL267466  22.877  30.741   6.155
10886POPC   C1A67467  22.952  30.649   6.455
10886POPC   D2A67468  22.987  30.741   6.755
10886POPC   C3A67469  22.953  30.743   7.055
10886POPC   C4A67470  22.959  30.712   7.355
10886POPC   C1B67471  22.697  30.880   6.455
10886POPC   C2B67472  22.707  30.807   6.755
10886POPC   C3B67473  22.739  30.834   7.055
10886POPC   C4B67474  22.744  30.839   7.355
10887POPC   NC367475  12.885  31.425   5.555
10887POPC   PO467476  12.871  31.510   5.855
10887POPC   GL167477  12.804  31.436   6.155
10887POPC   GL267478  12.997  31.363   6.155
10887POPC   C1A67479  12.830  31.438   6.455
10887POPC   D2A67480  12.848  31.521   6.755
10887POPC   C3A67481  12.902  31.499   7.055
10887POPC   C4A67482  12.860  31.479   7.355
10887POPC   C1B67483  13.038  31.297   6.455
10887POPC   C2B67484  13.015  31.315   6.755
10887POPC   C3B67485  13.065  31.312   7.055
10887POPC   C4B67486  13.096  31.290   7.355
10888POPC   NC367487  15.920  22.114   5.555
10888POPC   PO467488  15.960  22.145   5.855
10888POPC   GL167489  15.926  22.162   6.155
10888POPC   GL267490  15.841  22.291   6.155
10888POPC   C1A67491  16.001  22.212   6.455
10888POPC   D2A67492  15.958  22.131   6.755
10888POPC   C3A67493  15.932  22.165   7.055
10888POPC   C4A67494  15.914  22.145   7.355
10888POPC   C1B67495  15.779  22.371   6.455
10888POPC   C2B67496  15.781  22.339   6.755
10888POPC   C3B67497  15.824  22.335   7.055
10888POPC   C4B67498  15.851  22.380   7.355
10889POPC   NC367499  19.858  26.089   5.555
10889POPC   PO467500  19.787  26.038   5.855
10889POPC   GL167501  19.868  26.044   6.155
10889POPC   GL267502  19.771  26.139   6.155
10889POPC   C1A67503  19.871  25.999   6.455
10889POPC   D2A67504  19.851  26.033   6.755
10889POPC   C3A67505  19.864  26.088   7.055
10889POPC   C4A67506  19.868  26.052   7.355
10889POPC   C1B67507  19.690  26.295   6.455
10889POPC   C2B67508  19.716  26.286   6.755
10889POPC   C3B67509  19.750  26.304   7.055
10889POPC   C4B67510  19.698  26.322   7.355
10890POPC   NC367511  14.398  20.604   5.555
10890POPC   PO467512  14.375  20.634   5.855
10890POPC   GL167513  14.406  20.582   6.155
10890POPC   GL267514  14.495  20.501   6.155
10890POPC   C1A67515  14.452  20.604   6.455
10890POPC   D2A67516  14.358  20.562   6.755
10890POPC   C3A67517  14.369  20.622   7.055
10890POPC   C4A67518  14.393  20.603   7.355
10890POPC   C1B67519  14.620  20.445   6.455
10890POPC   C2B67520  14.636  20.422   6.755
10890POPC   C3B67521  14.626  20.504   7.055
10890POPC   C4B67522  14.648  20.442   7.355
10891POPC   NC367523  22.197  28.418   5.555
10891POPC   PO467524  22.187  28.389   5.855
10891POPC   GL167525  22.179  28.322   6.155
10891POPC   GL267526  22.022  28.289   6.155
10891POPC   C1A67527  22.171  28.391   6.455
10891POPC   D2A67528  22.122  28.338   6.755
10891POPC   C3A67529  22.121  28.335   7.055
10891POPC   C4A67530  22.128  28.397   7.355
10891POPC   C1B67531  21.964  28.184   6.455
10891POPC   C2B67532  21.953  28.201   6.755
10891POPC   C3B67533  21.965  28.259   7.055
10891POPC   C4B67534  21.957  28.182   7.355
10892POPC   NC367535  41.584  13.618   5.555
10892POPC   PO467536  41.514  13.614   5.855
10892POPC   GL167537  41.597  13.590   6.155
10892POPC   GL267538  41.502  13.715   6.155
10892POPC   C1A67539  41.586  13.648   6.455
10892POPC   D2A67540  41.535  13.624   6.755
10892POPC   C3A67541  41.533  13.647   7.055
10892POPC   C4A67542  41.536  13.608   7.355
10892POPC   C1B67543  41.587  13.910   6.455
10892POPC   C2B67544  41.499  13.856   6.755
10892POPC   C3B67545  41.580  13.918   7.055
10892POPC   C4B67546  41.581  13.875   7.355
10893POPC   NC367547   4.288  40.739   5.555
10893POPC   PO467548   4.302  40.816   5.855
10893POPC   GL167549   4.323  40.754   6.155
10893POPC   GL267550   4.353  40.946   6.155
10893POPC   C1A67551   4.314  40.816   6.455
10893POPC   D2A67552   4.356  40.737   6.755
10893POPC   C3A67553   4.285  40.810   7.055
10893POPC   C4A67554   4.333  40.793   7.355
10893POPC   C1B67555   4.419  41.031   6.455
10893POPC   C2B67556   4.426  41.064   6.755
10893POPC   C3B67557   4.444  41.034   7.055
10893POPC   C4B67558   4.426  40.986   7.355
10894POPC   NC367559  21.363  41.578   5.555
10894POPC   PO467560  21.385  41.529   5.855
10894POPC   GL167561  21.417  41.545   6.155
10894POPC   GL267562  21.306  41.613   6.155
10894POPC   C1A67563  21.424  41.604   6.455
10894POPC   D2A67564  21.387  41.563   6.755
10894POPC   C3A67565  21.425  41.537   7.055
10894POPC   C4A67566  21.378  41.546   7.355
10894POPC   C1B67567  21.206  41.729   6.455
10894POPC   C2B67568  21.193  41.690   6.755
10894POPC   C3B67569  21.140  41.692   7.055
10894POPC   C4B67570  21.136  41.683   7.355
10895POPC   NC367571   8.234  19.101   5.555
10895POPC   PO467572   8.223  19.028   5.855
10895POPC   GL167573   8.192  19.021   6.155
10895POPC   GL267574   8.117  18.999   6.155
10895POPC   C1A67575   8.231  19.025   6.455
10895POPC   D2A67576   8.176  19.036   6.755
10895POPC   C3A67577   8.210  19.087   7.055
10895POPC   C4A67578   8.214  19.052   7.355
10895POPC   C1B67579   8.045  18.864   6.455
10895POPC   C2B67580   8.063  18.885   6.755
10895POPC   C3B67581   8.094  18.805   7.055
10895POPC   C4B67582   8.119  18.832   7.355
10896POPC   NC367583  14.406  41.554   5.555
10896POPC   PO467584  14.377  41.553   5.855
10896POPC   GL167585  14.371  41.575   6.155
10896POPC   GL267586  14.473  41.429   6.155
10896POPC   C1A67587  14.423  41.553   6.455
10896POPC   D2A67588  14.364  41.554   6.755
10896POPC   C3A67589  14.412  41.527   7.055
10896POPC   C4A67590  14.398  41.608   7.355
10896POPC   C1B67591  14.635  41.387   6.455
10896POPC   C2B67592  14.607  41.379   6.755
10896POPC   C3B67593  14.595  41.423   7.055
10896POPC   C4B67594  14.575  41.427   7.355
10897POPC   NC367595  16.740  33.783   5.555
10897POPC   PO467596  16.728  33.758   5.855
10897POPC   GL167597  16.761  33.779   6.155
10897POPC   GL267598  16.765  33.656   6.155
10897POPC   C1A67599  16.760  33.807   6.455
10897POPC   D2A67600  16.712  33.830   6.755
10897POPC   C3A67601  16.780  33.841   7.055
10897POPC   C4A67602  16.772  33.831   7.355
10897POPC   C1B67603  16.881  33.629   6.455
10897POPC   C2B67604  16.919  33.569   6.755
10897POPC   C3B67605  16.910  33.589   7.055
10897POPC   C4B67606  16.883  33.628   7.355
10898POPC   NC367607  33.759  44.660   5.555
10898POPC   PO467608  33.778  44.691   5.855
10898POPC   GL167609  33.759  44.684   6.155
10898POPC   GL267610  33.881  44.824   6.155
10898POPC   C1A67611  33.756  44.698   6.455
10898POPC   D2A67612  33.794  44.629   6.755
10898POPC   C3A67613  33.833  44.678   7.055
10898POPC   C4A67614  33.762  44.670   7.355
10898POPC   C1B67615  33.856  44.934   6.455
10898POPC   C2B67616  33.891  44.862   6.755
10898POPC   C3B67617  33.881  44.923   7.055
10898POPC   C4B67618  33.862  44.903   7.355
10899POPC   NC367619   0.453  24.505   5.555
10899POPC   PO467620   0.416  24.526   5.855
10899POPC   GL167621   0.440  24.518   6.155
10899POPC   GL267622   0.521  24.407   6.155
10899POPC   C1A67623   0.433  24.523   6.455
10899POPC   D2A67624   0.456  24.480   6.755
10899POPC   C3A67625   0.389  24.505   7.055
10899POPC   C4A67626   0.467  24.513   7.355
10899POPC   C1B67627   0.708  24.395   6.455
10899POPC   C2B67628   0.721  24.458   6.755
10899POPC   C3B67629   0.648  24.423   7.055
10899POPC   C4B67630   0.653  24.420   7.355
10900POPC   NC367631  26.031  33.787   5.555
10900POPC   PO467632  26.068  33.816   5.855
10900POPC   GL167633  26.034  33.772   6.155
10900POPC   GL267634  26.127  33.880   6.155
10900POPC   C1A67635  26.089  33.816   6.455
10900POPC   D2A67636  26.015  33.824   6.755
10900POPC   C3A67637  26.043  33.841   7.055
10900POPC   C4A67638  26.050  33.827   7.355
10900POPC   C1B67639  26.139  33.953   6.455
10900POPC   C2B67640  26.160  33.981   6.755
10900POPC   C3B67641  26.190  33.999   7.055
10900POPC   C4B67642  26.216  34.032   7.355
10901POPC   NC367643  34.614  31.434   5.555
10901POPC   PO467644  34.612  31.434   5.855
10901POPC   GL167645  34.537  31.460   6.155
10901POPC   GL267646  34.626  31.409   6.155
10901POPC   C1A67647  34.592  31.434   6.455
10901POPC   D2A67648  34.570  31.438   6.755
10901POPC   C3A67649  34.547  31.513   7.055
10901POPC   C4A67650  34.594  31.490   7.355
10901POPC   C1B67651  34.752  31.323   6.455
10901POPC   C2B67652  34.760  31.277   6.755
10901POPC   C3B67653  34.688  31.240   7.055
10901POPC   C4B67654  34.711  31.277   7.355
10902POPC   NC367655   4.269  22.168   5.555
10902POPC   PO467656   4.348  22.187   5.855
10902POPC   GL167657   4.287  22.167   6.155
10902POPC   GL267658   4.414  22.006   6.155
10902POPC   C1A67659   4.313  22.196   6.455
10902POPC   D2A67660   4.354  22.158   6.755
10902POPC   C3A67661   4.313  22.117   7.055
10902POPC   C4A67662   4.350  22.166   7.355
10902POPC   C1B67663   4.395  21.957   6.455
10902POPC   C2B67664   4.419  21.985   6.755
10902POPC   C3B67665   4.407  21.950   7.055
10902POPC   C4B67666   4.449  21.914   7.355
10903POPC   NC367667   9.787  33.825   5.555
10903POPC   PO467668   9.731  33.778   5.855
10903POPC   GL167669   9.725  33.834   6.155
10903POPC   GL267670   9.717  33.692   6.155
10903POPC   C1A67671   9.750  33.759   6.455
10903POPC   D2A67672   9.778  33.783   6.755
10903POPC   C3A67673   9.778  33.778   7.055
10903POPC   C4A67674   9.790  33.821   7.355
10903POPC   C1B67675   9.651  33.607   6.455
10903POPC   C2B67676   9.692  33.606   6.755
10903POPC   C3B67677   9.646  33.598   7.055
10903POPC   C4B67678   9.681  33.594   7.355
10904POPC   NC367679   3.509  28.329   5.555
10904POPC   PO467680   3.547  28.385   5.855
10904POPC   GL167681   3.547  28.372   6.155
10904POPC   GL267682   3.611  28.474   6.155
10904POPC   C1A67683   3.563  28.409   6.455
10904POPC   D2A67684   3.494  28.414   6.755
10904POPC   C3A67685   3.553  28.336   7.055
10904POPC   C4A67686   3.582  28.353   7.355
10904POPC   C1B67687   3.608  28.570   6.455
10904POPC   C2B67688   3.593  28.645   6.755
10904POPC   C3B67689   3.623  28.561   7.055
10904POPC   C4B67690   3.596  28.641   7.355
10905POPC   NC367691  39.222  32.236   5.555
10905POPC   PO467692  39.224  32.290   5.855
10905POPC   GL167693  39.241  32.248   6.155
10905POPC   GL267694  39.268  32.151   6.155
10905POPC   C1A67695  39.193  32.221   6.455
10905POPC   D2A67696  39.189  32.264   6.755
10905POPC   C3A67697  39.258  32.227   7.055
10905POPC   C4A67698  39.185  32.207   7.355
10905POPC   C1B67699  39.389  32.062   6.455
10905POPC   C2B67700  39.433  32.039   6.755
10905POPC   C3B67701  39.365  32.087   7.055
10905POPC   C4B67702  39.393  32.018   7.355
10906POPC   NC367703   1.191  42.330   5.555
10906POPC   PO467704   1.260  42.356   5.855
10906POPC   GL167705   1.214  42.295   6.155
10906POPC   GL267706   1.253  42.206   6.155
10906POPC   C1A67707   1.220  42.348   6.455
10906POPC   D2A67708   1.178  42.293   6.755
10906POPC   C3A67709   1.204  42.352   7.055
10906POPC   C4A67710   1.258  42.365   7.355
10906POPC   C1B67711   1.263  42.049   6.455
10906POPC   C2B67712   1.225  42.075   6.755
10906POPC   C3B67713   1.268  42.111   7.055
10906POPC   C4B67714   1.218  42.057   7.355
10907POPC   NC367715  34.576  28.366   5.555
10907POPC   PO467716  34.534  28.372   5.855
10907POPC   GL167717  34.557  28.344   6.155
10907POPC   GL267718  34.535  28.262   6.155
10907POPC   C1A67719  34.547  28.395   6.455
10907POPC   D2A67720  34.593  28.325   6.755
10907POPC   C3A67721  34.541  28.382   7.055
10907POPC   C4A67722  34.558  28.378   7.355
10907POPC   C1B67723  34.410  28.129   6.455
10907POPC   C2B67724  34.405  28.135   6.755
10907POPC   C3B67725  34.414  28.153   7.055
10907POPC   C4B67726  34.420  28.191   7.355
10908POPC   NC367727  41.555  19.108   5.555
10908POPC   PO467728  41.581  19.093   5.855
10908POPC   GL167729  41.576  19.010   6.155
10908POPC   GL267730  41.480  18.931   6.155
10908POPC   C1A67731  41.562  19.102   6.455
10908POPC   D2A67732  41.526  19.023   6.755
10908POPC   C3A67733  41.518  19.053   7.055
10908POPC   C4A67734  41.585  19.048   7.355
10908POPC   C1B67735  41.507  18.863   6.455
10908POPC   C2B67736  41.469  18.812   6.755
10908POPC   C3B67737  41.427  18.796   7.055
10908POPC   C4B67738  41.420  18.872   7.355
10909POPC   NC367739   8.176  34.594   5.555
10909POPC   PO467740   8.245  34.539   5.855
10909POPC   GL167741   8.183  34.612   6.155
10909POPC   GL267742   8.275  34.515   6.155
10909POPC   C1A67743   8.170  34.530   6.455
10909POPC   D2A67744   8.205  34.528   6.755
10909POPC   C3A67745   8.220  34.540   7.055
10909POPC   C4A67746   8.220  34.624   7.355
10909POPC   C1B67747   8.411  34.514   6.455
10909POPC   C2B67748   8.391  34.462   6.755
10909POPC   C3B67749   8.384  34.462   7.055
10909POPC   C4B67750   8.449  34.448   7.355
10910POPC   NC367751  11.344   7.462   5.555
10910POPC   PO467752  11.318   7.424   5.855
10910POPC   GL167753  11.324   7.385   6.155
10910POPC   GL267754  11.240   7.284   6.155
10910POPC   C1A67755  11.316   7.380   6.455
10910POPC   D2A67756  11.305   7.437   6.755
10910POPC   C3A67757  11.324   7.430   7.055
10910POPC   C4A67758  11.324   7.430   7.355
10910POPC   C1B67759  11.093   7.191   6.455
10910POPC   C2B67760  11.125   7.255   6.755
10910POPC   C3B67761  11.164   7.235   7.055
10910POPC   C4B67762  11.094   7.197   7.355
10911POPC   NC367763  29.875  35.344   5.555
10911POPC   PO467764  29.943  35.398   5.855
10911POPC   GL167765  29.926  35.322   6.155
10911POPC   GL267766  29.769  35.439   6.155
10911POPC   C1A67767  29.956  35.345   6.455
10911POPC   D2A67768  29.933  35.363   6.755
10911POPC   C3A67769  29.967  35.352   7.055
10911POPC   C4A67770  29.896  35.365   7.355
10911POPC   C1B67771  29.692  35.456   6.455
10911POPC   C2B67772  29.725  35.474   6.755
10911POPC   C3B67773  29.678  35.455   7.055
10911POPC   C4B67774  29.670  35.501   7.355
10912POPC   NC367775  15.135   7.439   5.555
10912POPC   PO467776  15.141   7.402   5.855
10912POPC   GL167777  15.135   7.409   6.155
10912POPC   GL267778  15.259   7.514   6.155
10912POPC   C1A67779  15.224   7.469   6.455
10912POPC   D2A67780  15.228   7.417   6.755
10912POPC   C3A67781  15.178   7.399   7.055
10912POPC   C4A67782  15.193   7.406   7.355
10912POPC   C1B67783  15.277   7.670   6.455
10912POPC   C2B67784  15.281   7.643   6.755
10912POPC   C3B67785  15.319   7.667   7.055
10912POPC   C4B67786  15.290   7.636   7.355
10913POPC   NC367787  22.143  44.638   5.555
10913POPC   PO467788  22.176  44.661   5.855
10913POPC   GL167789  22.164  44.675   6.155
10913POPC   GL267790  22.013  44.674   6.155
10913POPC   C1A67791  22.154  44.641   6.455
10913POPC   D2A67792  22.120  44.659   6.755
10913POPC   C3A67793  22.118  44.660   7.055
10913POPC   C4A67794  22.201  44.705   7.355
10913POPC   C1B67795  21.954  44.697   6.455
10913POPC   C2B67796  21.945  44.670   6.755
10913POPC   C3B67797  21.866  44.617   7.055
10913POPC   C4B67798  21.934  44.707   7.355
10914POPC   NC367799   2.003  29.194   5.555
10914POPC   PO467800   2.002  29.140   5.855
10914POPC   GL167801   1.969  29.179   6.155
10914POPC   GL267802   2.070  29.039   6.155
10914POPC   C1A67803   1.954  29.187   6.455
10914POPC   D2A67804   2.034  29.131   6.755
10914POPC   C3A67805   1.982  29.182   7.055
10914POPC   C4A67806   1.963  29.142   7.355
10914POPC   C1B67807   2.140  28.895   6.455
10914POPC   C2B67808   2.101  28.888   6.755
10914POPC   C3B67809   2.067  28.886   7.055
10914POPC   C4B67810   2.132  28.923   7.355
10915POPC   NC367811  37.711   8.956   5.555
10915POPC   PO467812  37.694   9.013   5.855
10915POPC   GL167813  37.714   9.004   6.155
10915POPC   GL267814  37.654   8.799   6.155
10915POPC   C1A67815  37.727   8.962   6.455
10915POPC   D2A67816  37.673   9.018   6.755
10915POPC   C3A67817  37.661   8.990   7.055
10915POPC   C4A67818  37.686   8.982   7.355
10915POPC   C1B67819  37.656   8.701   6.455
10915POPC   C2B67820  37.688   8.745   6.755
10915POPC   C3B67821  37.712   8.751   7.055
10915POPC   C4B67822  37.703   8.772   7.355
10916POPC   NC367823  26.838  19.822   5.555
10916POPC   PO467824  26.851  19.808   5.855
10916POPC   GL167825  26.839  19.835   6.155
10916POPC   GL267826  26.970  19.863   6.155
10916POPC   C1A67827  26.806  19.836   6.455
10916POPC   D2A67828  26.845  19.859   6.755
10916POPC   C3A67829  26.783  19.875   7.055
10916POPC   C4A67830  26.801  19.836   7.355
10916POPC   C1B67831  26.999  19.952   6.455
10916POPC   C2B67832  27.072  19.912   6.755
10916POPC   C3B67833  26.993  19.960   7.055
10916POPC   C4B67834  27.007  19.908   7.355
10917POPC   NC367835  38.487  29.162   5.555
10917POPC   PO467836  38.412  29.111   5.855
10917POPC   GL167837  38.439  29.181   6.155
10917POPC   GL267838  38.488  28.973   6.155
10917POPC   C1A67839  38.461  29.126   6.455
10917POPC   D2A67840  38.430  29.123   6.755
10917POPC   C3A67841  38.487  29.118   7.055
10917POPC   C4A67842  38.451  29.097   7.355
10917POPC   C1B67843  38.400  28.896   6.455
10917POPC   C2B67844  38.437  28.869   6.755
10917POPC   C3B67845  38.432  28.880   7.055
10917POPC   C4B67846  38.444  28.907   7.355
10918POPC   NC367847  37.646   4.331   5.555
10918POPC   PO467848  37.639   4.279   5.855
10918POPC   GL167849  37.712   4.314   6.155
10918POPC   GL267850  37.539   4.353   6.155
10918POPC   C1A67851  37.652   4.329   6.455
10918POPC   D2A67852  37.723   4.300   6.755
10918POPC   C3A67853  37.690   4.315   7.055
10918POPC   C4A67854  37.647   4.312   7.355
10918POPC   C1B67855  37.449   4.295   6.455
10918POPC   C2B67856  37.411   4.296   6.755
10918POPC   C3B67857  37.411   4.311   7.055
10918POPC   C4B67858  37.445   4.251   7.355
10919POPC   NC367859  13.599  26.848   5.555
10919POPC   PO467860  13.663  26.842   5.855
10919POPC   GL167861  13.645  26.836   6.155
10919POPC   GL267862  13.757  26.894   6.155
10919POPC   C1A67863  13.658  26.787   6.455
10919POPC   D2A67864  13.611  26.781   6.755
10919POPC   C3A67865  13.596  26.854   7.055
10919POPC   C4A67866  13.659  26.848   7.355
10919POPC   C1B67867  13.883  26.896   6.455
10919POPC   C2B67868  13.863  26.843   6.755
10919POPC   C3B67869  13.823  26.893   7.055
10919POPC   C4B67870  13.889  26.922   7.355
10920POPC   NC367871   9.745   8.949   5.555
10920POPC   PO467872   9.736   9.013   5.855
10920POPC   GL167873   9.761   8.942   6.155
10920POPC   GL267874   9.832   9.024   6.155
10920POPC   C1A67875   9.790   8.966   6.455
10920POPC   D2A67876   9.725   8.971   6.755
10920POPC   C3A67877   9.758   8.990   7.055
10920POPC   C4A67878   9.783   8.965   7.355
10920POPC   C1B67879   9.986   9.020   6.455
10920POPC   C2B67880  10.020   9.052   6.755
10920POPC   C3B67881   9.952   8.991   7.055
10920POPC   C4B67882   9.999   9.056   7.355
10921POPC   NC367883  23.678  33.010   5.555
10921POPC   PO467884  23.680  33.054   5.855
10921POPC   GL167885  23.728  33.053   6.155
10921POPC   GL267886  23.774  32.947   6.155
10921POPC   C1A67887  23.678  33.027   6.455
10921POPC   D2A67888  23.694  33.026   6.755
10921POPC   C3A67889  23.691  33.057   7.055
10921POPC   C4A67890  23.710  33.014   7.355
10921POPC   C1B67891  23.961  32.941   6.455
10921POPC   C2B67892  23.939  32.863   6.755
10921POPC   C3B67893  23.932  32.942   7.055
10921POPC   C4B67894  23.914  32.874   7.355
10922POPC   NC367895   7.471  11.326   5.555
10922POPC   PO467896   7.429  11.260   5.855
10922POPC   GL167897   7.467  11.329   6.155
10922POPC   GL267898   7.501  11.287   6.155
10922POPC   C1A67899   7.405  11.290   6.455
10922POPC   D2A67900   7.421  11.297   6.755
10922POPC   C3A67901   7.459  11.342   7.055
10922POPC   C4A67902   7.434  11.280   7.355
10922POPC   C1B67903   7.628  11.347   6.455
10922POPC   C2B67904   7.651  11.371   6.755
10922POPC   C3B67905   7.640  11.365   7.055
10922POPC   C4B67906   7.684  11.362   7.355
10923POPC   NC367907  19.031   5.888   5.555
10923POPC   PO467908  19.047   5.919   5.855
10923POPC   GL167909  19.016   5.843   6.155
10923POPC   GL267910  19.193   5.939   6.155
10923POPC   C1A67911  19.096   5.844   6.455
10923POPC   D2A67912  19.088   5.836   6.755
10923POPC   C3A67913  19.047   5.871   7.055
10923POPC   C4A67914  19.080   5.903   7.355
10923POPC   C1B67915  19.295   5.933   6.455
10923POPC   C2B67916  19.298   5.975   6.755
10923POPC   C3B67917  19.255   6.022   7.055
10923POPC   C4B67918  19.315   6.023   7.355
10924POPC   NC367919  30.701  29.955   5.555
10924POPC   PO467920  30.662  29.884   5.855
10924POPC   GL167921  30.668  29.874   6.155
10924POPC   GL267922  30.694  30.074   6.155
10924POPC   C1A67923  30.724  29.955   6.455
10924POPC   D2A67924  30.708  29.925   6.755
10924POPC   C3A67925  30.745  29.918   7.055
10924POPC   C4A67926  30.730  29.904   7.355
10924POPC   C1B67927  30.699  30.168   6.455
10924POPC   C2B67928  30.685  30.145   6.755
10924POPC   C3B67929  30.664  30.211   7.055
10924POPC   C4B67930  30.684  30.151   7.355
10925POPC   NC367931  10.570  14.411   5.555
10925POPC   PO467932  10.516  14.416   5.855
10925POPC   GL167933  10.484  14.384   6.155
10925POPC   GL267934  10.586  14.467   6.155
10925POPC   C1A67935  10.570  14.385   6.455
10925POPC   D2A67936  10.566  14.405   6.755
10925POPC   C3A67937  10.521  14.430   7.055
10925POPC   C4A67938  10.519  14.419   7.355
10925POPC   C1B67939  10.694  14.603   6.455
10925POPC   C2B67940  10.649  14.546   6.755
10925POPC   C3B67941  10.718  14.596   7.055
10925POPC   C4B67942  10.734  14.541   7.355
10926POPC   NC367943  16.728   5.081   5.555
10926POPC   PO467944  16.756   5.110   5.855
10926POPC   GL167945  16.731   5.111   6.155
10926POPC   GL267946  16.717   5.185   6.155
10926POPC   C1A67947  16.777   5.064   6.455
10926POPC   D2A67948  16.753   5.136   6.755
10926POPC   C3A67949  16.775   5.101   7.055
10926POPC   C4A67950  16.755   5.108   7.355
10926POPC   C1B67951  16.757   5.375   6.455
10926POPC   C2B67952  16.726   5.349   6.755
10926POPC   C3B67953  16.729   5.344   7.055
10926POPC   C4B67954  16.723   5.347   7.355
10927POPC   NC367955  33.072  34.593   5.555
10927POPC   PO467956  33.057  34.603   5.855
10927POPC   GL167957  33.061  34.556   6.155
10927POPC   GL267958  33.140  34.559   6.155
10927POPC   C1A67959  33.067  34.621   6.455
10927POPC   D2A67960  33.073  34.562   6.755
10927POPC   C3A67961  33.006  34.582   7.055
10927POPC   C4A67962  33.041  34.528   7.355
10927POPC   C1B67963  33.312  34.554   6.455
10927POPC   C2B67964  33.240  34.487   6.755
10927POPC   C3B67965  33.222  34.535   7.055
10927POPC   C4B67966  33.300  34.561   7.355
10928POPC   NC367967  34.529  19.097   5.555
10928POPC   PO467968  34.587  19.025   5.855
10928POPC   GL167969  34.614  19.079   6.155
10928POPC   GL267970  34.465  19.030   6.155
10928POPC   C1A67971  34.577  19.032   6.455
10928POPC   D2A67972  34.552  19.061   6.755
10928POPC   C3A67973  34.606  19.017   7.055
10928POPC   C4A67974  34.536  19.105   7.355
10928POPC   C1B67975  34.396  18.888   6.455
10928POPC   C2B67976  34.378  18.872   6.755
10928POPC   C3B67977  34.330  18.883   7.055
10928POPC   C4B67978  34.384  18.922   7.355
10929POPC   NC367979  44.659   7.422   5.555
10929POPC   PO467980  44.660   7.394   5.855
10929POPC   GL167981  44.673   7.405   6.155
10929POPC   GL267982  44.752   7.501   6.155
10929POPC   C1A67983  44.621   7.454   6.455
10929POPC   D2A67984  44.653   7.431   6.755
10929POPC   C3A67985  44.621   7.385   7.055
10929POPC   C4A67986  44.669   7.440   7.355
10929POPC   C1B67987  44.862   7.541   6.455
10929POPC   C2B67988  44.900   7.618   6.755
10929POPC   C3B67989  44.807   7.586   7.055
10929POPC   C4B67990  44.892   7.616   7.355
10930POPC   NC367991  35.327  15.998   5.555
10930POPC   PO467992  35.349  15.976   5.855
10930POPC   GL167993  35.390  15.932   6.155
10930POPC   GL267994  35.297  16.030   6.155
10930POPC   C1A67995  35.338  15.912   6.455
10930POPC   D2A67996  35.343  15.943   6.755
10930POPC   C3A67997  35.373  15.999   7.055
10930POPC   C4A67998  35.314  16.005   7.355
10930POPC   C1B67999  35.211  16.147   6.455
10930POPC   C2B68000  35.161  16.199   6.755
10930POPC   C3B68001  35.178  16.167   7.055
10930POPC   C4B68002  35.195  16.170   7.355
10931POPC   NC368003  32.233  19.106   5.555
10931POPC   PO468004  32.233  19.108   5.855
10931POPC   GL168005  32.207  19.011   6.155
10931POPC   GL268006  32.147  18.991   6.155
10931POPC   C1A68007  32.203  19.034   6.455
10931POPC   D2A68008  32.283  19.066   6.755
10931POPC   C3A68009  32.231  19.075   7.055
10931POPC   C4A68010  32.290  19.089   7.355
10931POPC   C1B68011  32.022  18.959   6.455
10931POPC   C2B68012  32.019  18.968   6.755
10931POPC   C3B68013  31.988  18.901   7.055
10931POPC   C4B68014  32.000  18.943   7.355
10932POPC   NC368015  26.814  33.764   5.555
10932POPC   PO468016  26.809  33.764   5.855
10932POPC   GL168017  26.773  33.762   6.155
10932POPC   GL268018  26.706  33.922   6.155
10932POPC   C1A68019  26.812  33.805   6.455
10932POPC   D2A68020  26.786  33.849   6.755
10932POPC   C3A68021  26.839  33.836   7.055
10932POPC   C4A68022  26.848  33.825   7.355
10932POPC   C1B68023  26.679  34.024   6.455
10932POPC   C2B68024  26.629  33.966   6.755
10932POPC   C3B68025  26.619  33.973   7.055
10932POPC   C4B68026  26.679  33.981   7.355
10933POPC   NC368027  31.496  18.238   5.555
10933POPC   PO468028  31.489  18.330   5.855
10933POPC   GL168029  31.450  18.241   6.155
10933POPC   GL268030  31.619  18.244   6.155
10933POPC   C1A68031  31.501  18.286   6.455
10933POPC   D2A68032  31.435  18.251   6.755
10933POPC   C3A68033  31.488  18.269   7.055
10933POPC   C4A68034  31.438  18.251   7.355
10933POPC   C1B68035  31.639  18.128   6.455
10933POPC   C2B68036  31.704  18.119   6.755
10933POPC   C3B68037  31.629  18.090   7.055
10933POPC   C4B68038  31.626  18.152   7.355
10934POPC   NC368039   9.740  37.676   5.555
10934POPC   PO468040   9.704  37.659   5.855
10934POPC   GL168041   9.742  37.668   6.155
10934POPC   GL268042   9.869  37.545   6.155
10934POPC   C1A68043   9.732  37.661   6.455
10934POPC   D2A68044   9.792  37.682   6.755
10934POPC   C3A68045   9.759  37.714   7.055
10934POPC   C4A68046   9.756  37.669   7.355
10934POPC   C1B68047   9.890  37.495   6.455
10934POPC   C2B68048   9.893  37.475   6.755
10934POPC   C3B68049   9.924  37.559   7.055
10934POPC   C4B68050   9.924  37.515   7.355
10935POPC   NC368051   9.739  20.654   5.555
10935POPC   PO468052   9.777  20.570   5.855
10935POPC   GL168053   9.699  20.561   6.155
10935POPC   GL268054   9.918  20.643   6.155
10935POPC   C1A68055   9.781  20.580   6.455
10935POPC   D2A68056   9.702  20.571   6.755
10935POPC   C3A68057   9.777  20.651   7.055
10935POPC   C4A68058   9.783  20.579   7.355
10935POPC   C1B68059  10.039  20.671   6.455
10935POPC   C2B68060  10.023  20.588   6.755
10935POPC   C3B68061   9.986  20.647   7.055
10935POPC   C4B68062   9.985  20.619   7.355
10936POPC   NC368063  17.523  32.993   5.555
10936POPC   PO468064  17.494  32.983   5.855
10936POPC   GL168065  17.535  33.071   6.155
10936POPC   GL268066  17.633  33.154   6.155
10936POPC   C1A68067  17.482  33.013   6.455
10936POPC   D2A68068  17.506  33.072   6.755
10936POPC   C3A68069  17.539  32.992   7.055
10936POPC   C4A68070  17.498  33.032   7.355
10936POPC   C1B68071  17.648  33.230   6.455
10936POPC   C2B68072  17.622  33.229   6.755
10936POPC   C3B68073  17.665  33.245   7.055
10936POPC   C4B68074  17.613  33.183   7.355
10937POPC   NC368075  21.351  12.809   5.555
10937POPC   PO468076  21.424  12.855   5.855
10937POPC   GL168077  21.411  12.832   6.155
10937POPC   GL268078  21.502  12.887   6.155
10937POPC   C1A68079  21.400  12.807   6.455
10937POPC   D2A68080  21.353  12.824   6.755
10937POPC   C3A68081  21.396  12.894   7.055
10937POPC   C4A68082  21.365  12.819   7.355
10937POPC   C1B68083  21.612  12.890   6.455
10937POPC   C2B68084  21.637  12.880   6.755
10937POPC   C3B68085  21.592  12.886   7.055
10937POPC   C4B68086  21.672  12.895   7.355
10938POPC   NC368087   5.849  35.375   5.555
10938POPC   PO468088   5.903  35.317   5.855
10938POPC   GL168089   5.867  35.372   6.155
10938POPC   GL268090   5.784  35.500   6.155
10938POPC   C1A68091   5.848  35.338   6.455
10938POPC   D2A68092   5.894  35.329   6.755
10938POPC   C3A68093   5.867  35.374   7.055
10938POPC   C4A68094   5.849  35.370   7.355
10938POPC   C1B68095   5.710  35.580   6.455
10938POPC   C2B68096   5.752  35.604   6.755
10938POPC   C3B68097   5.733  35.534   7.055
10938POPC   C4B68098   5.747  35.522   7.355
10939POPC   NC368099  17.472   2.730   5.555
10939POPC   PO468100  17.512   2.800   5.855
10939POPC   GL168101  17.465   2.802   6.155
10939POPC   GL268102  17.582   2.920   6.155
10939POPC   C1A68103  17.500   2.813   6.455
10939POPC   D2A68104  17.539   2.766   6.755
10939POPC   C3A68105  17.479   2.770   7.055
10939POPC   C4A68106  17.468   2.797   7.355
10939POPC   C1B68107  17.658   3.031   6.455
10939POPC   C2B68108  17.582   3.032   6.755
10939POPC   C3B68109  17.648   3.000   7.055
10939POPC   C4B68110  17.621   2.965   7.355
10940POPC   NC368111   7.408  37.699   5.555
10940POPC   PO468112   7.374  37.722   5.855
10940POPC   GL168113   7.450  37.685   6.155
10940POPC   GL268114   7.362  37.769   6.155
10940POPC   C1A68115   7.465  37.673   6.455
10940POPC   D2A68116   7.429  37.641   6.755
10940POPC   C3A68117   7.441  37.721   7.055
10940POPC   C4A68118   7.469  37.718   7.355
10940POPC   C1B68119   7.436  37.903   6.455
10940POPC   C2B68120   7.422  37.956   6.755
10940POPC   C3B68121   7.452  37.885   7.055
10940POPC   C4B68122   7.440  37.941   7.355
10941POPC   NC368123  37.720  26.860   5.555
10941POPC   PO468124  37.727  26.813   5.855
10941POPC   GL168125  37.685  26.816   6.155
10941POPC   GL268126  37.847  26.829   6.155
10941POPC   C1A68127  37.676  26.854   6.455
10941POPC   D2A68128  37.697  26.785   6.755
10941POPC   C3A68129  37.699  26.846   7.055
10941POPC   C4A68130  37.690  26.789   7.355
10941POPC   C1B68131  37.891  26.870   6.455
10941POPC   C2B68132  37.916  26.823   6.755
10941POPC   C3B68133  37.946  26.814   7.055
10941POPC   C4B68134  37.938  26.868   7.355
10942POPC   NC368135  25.306  17.523   5.555
10942POPC   PO468136  25.228  17.502   5.855
10942POPC   GL168137  25.263  17.533   6.155
10942POPC   GL268138  25.329  17.567   6.155
10942POPC   C1A68139  25.236  17.490   6.455
10942POPC   D2A68140  25.275  17.544   6.755
10942POPC   C3A68141  25.309  17.542   7.055
10942POPC   C4A68142  25.240  17.542   7.355
10942POPC   C1B68143  25.463  17.669   6.455
10942POPC   C2B68144  25.461  17.681   6.755
10942POPC   C3B68145  25.456  17.705   7.055
10942POPC   C4B68146  25.451  17.694   7.355
10943POPC   NC368147   0.434   1.178   5.555
10943POPC   PO468148   0.422   1.227   5.855
10943POPC   GL168149   0.423   1.223   6.155
10943POPC   GL268150   0.384   1.335   6.155
10943POPC   C1A68151   0.416   1.233   6.455
10943POPC   D2A68152   0.425   1.181   6.755
10943POPC   C3A68153   0.472   1.169   7.055
10943POPC   C4A68154   0.446   1.244   7.355
10943POPC   C1B68155   0.395   1.482   6.455
10943POPC   C2B68156   0.380   1.444   6.755
10943POPC   C3B68157   0.391   1.438   7.055
10943POPC   C4B68158   0.411   1.427   7.355
10944POPC   NC368159  18.291  22.210   5.555
10944POPC   PO468160  18.326  22.117   5.855
10944POPC   GL168161  18.322  22.176   6.155
10944POPC   GL268162  18.228  22.225   6.155
10944POPC   C1A68163  18.273  22.172   6.455
10944POPC   D2A68164  18.244  22.134   6.755
10944POPC   C3A68165  18.245  22.184   7.055
10944POPC   C4A68166  18.285  22.192   7.355
10944POPC   C1B68167  18.092  22.353   6.455
10944POPC   C2B68168  18.126  22.388   6.755
10944POPC   C3B68169  18.107  22.369   7.055
10944POPC   C4B68170  18.149  22.361   7.355
10945POPC   NC368171  43.858   2.748   5.555
10945POPC   PO468172  43.922   2.747   5.855
10945POPC   GL168173  43.936   2.743   6.155
10945POPC   GL268174  43.790   2.851   6.155
10945POPC   C1A68175  43.873   2.717   6.455
10945POPC   D2A68176  43.926   2.812   6.755
10945POPC   C3A68177  43.852   2.746   7.055
10945POPC   C4A68178  43.860   2.777   7.355
10945POPC   C1B68179  43.713   2.905   6.455
10945POPC   C2B68180  43.699   2.952   6.755
10945POPC   C3B68181  43.738   2.969   7.055
10945POPC   C4B68182  43.721   2.902   7.355
10946POPC   NC368183  29.953  36.174   5.555
10946POPC   PO468184  29.887  36.123   5.855
10946POPC   GL168185  29.919  36.109   6.155
10946POPC   GL268186  29.968  36.281   6.155
10946POPC   C1A68187  29.875  36.104   6.455
10946POPC   D2A68188  29.937  36.161   6.755
10946POPC   C3A68189  29.940  36.103   7.055
10946POPC   C4A68190  29.947  36.091   7.355
10946POPC   C1B68191  30.000  36.333   6.455
10946POPC   C2B68192  29.950  36.421   6.755
10946POPC   C3B68193  29.971  36.361   7.055
10946POPC   C4B68194  29.909  36.356   7.355
10947POPC   NC368195  39.251   1.208   5.555
10947POPC   PO468196  39.183   1.225   5.855
10947POPC   GL168197  39.222   1.178   6.155
10947POPC   GL268198  39.164   1.300   6.155
10947POPC   C1A68199  39.194   1.195   6.455
10947POPC   D2A68200  39.279   1.242   6.755
10947POPC   C3A68201  39.218   1.228   7.055
10947POPC   C4A68202  39.265   1.213   7.355
10947POPC   C1B68203  39.081   1.362   6.455
10947POPC   C2B68204  39.081   1.437   6.755
10947POPC   C3B68205  39.090   1.385   7.055
10947POPC   C4B68206  39.061   1.368   7.355
10948POPC   NC368207  43.923  32.235   5.555
10948POPC   PO468208  43.866  32.204   5.855
10948POPC   GL168209  43.868  32.292   6.155
10948POPC   GL268210  43.802  32.333   6.155
10948POPC   C1A68211  43.909  32.221   6.455
10948POPC   D2A68212  43.863  32.297   6.755
10948POPC   C3A68213  43.904  32.294   7.055
10948POPC   C4A68214  43.854  32.236   7.355
10948POPC   C1B68215  43.657  32.396   6.455
10948POPC   C2B68216  43.715  32.446   6.755
10948POPC   C3B68217  43.732  32.394   7.055
10948POPC   C4B68218  43.713  32.357   7.355
10949POPC   NC368219  28.403  43.866   5.555
10949POPC   PO468220  28.343  43.920   5.855
10949POPC   GL168221  28.417  43.871   6.155
10949POPC   GL268222  28.274  43.950   6.155
10949POPC   C1A68223  28.399  43.908   6.455
10949POPC   D2A68224  28.394  43.865   6.755
10949POPC   C3A68225  28.405  43.909   7.055
10949POPC   C4A68226  28.321  43.927   7.355
10949POPC   C1B68227  28.187  44.064   6.455
10949POPC   C2B68228  28.158  44.103   6.755
10949POPC   C3B68229  28.207  44.032   7.055
10949POPC   C4B68230  28.174  44.075   7.355
10950POPC   NC368231  22.140   1.949   5.555
10950POPC   PO468232  22.191   1.999   5.855
10950POPC   GL168233  22.180   1.979   6.155
10950POPC   GL268234  22.082   1.965   6.155
10950POPC   C1A68235  22.151   1.941   6.455
10950POPC   D2A68236  22.171   1.941   6.755
10950POPC   C3A68237  22.139   1.941   7.055
10950POPC   C4A68238  22.140   1.995   7.355
10950POPC   C1B68239  21.916   1.940   6.455
10950POPC   C2B68240  21.863   1.926   6.755
10950POPC   C3B68241  21.893   1.987   7.055
10950POPC   C4B68242  21.919   1.933   7.355
10951POPC   NC368243   2.026  19.853   5.555
10951POPC   PO468244   2.020  19.810   5.855
10951POPC   GL168245   2.000  19.788   6.155
10951POPC   GL268246   1.872  19.717   6.155
10951POPC   C1A68247   1.984  19.792   6.455
10951POPC   D2A68248   1.947  19.859   6.755
10951POPC   C3A68249   2.001  19.852   7.055
10951POPC   C4A68250   1.941  19.805   7.355
10951POPC   C1B68251   1.752  19.712   6.455
10951POPC   C2B68252   1.787  19.704   6.755
10951POPC   C3B68253   1.751  19.647   7.055
10951POPC   C4B68254   1.800  19.719   7.355
10952POPC   NC368255  26.054  36.138   5.555
10952POPC   PO468256  26.088  36.172   5.855
10952POPC   GL168257  26.080  36.174   6.155
10952POPC   GL268258  25.947  36.207   6.155
10952POPC   C1A68259  26.016  36.128   6.455
10952POPC   D2A68260  26.088  36.091   6.755
10952POPC   C3A68261  26.005  36.159   7.055
10952POPC   C4A68262  26.024  36.113   7.355
10952POPC   C1B68263  25.896  36.331   6.455
10952POPC   C2B68264  25.881  36.347   6.755
10952POPC   C3B68265  25.937  36.365   7.055
10952POPC   C4B68266  25.920  36.284   7.355
10953POPC   NC368267  15.941  13.611   5.555
10953POPC   PO468268  15.936  13.641   5.855
10953POPC   GL168269  16.000  13.660   6.155
10953POPC   GL268270  16.101  13.626   6.155
10953POPC   C1A68271  15.981  13.670   6.455
10953POPC   D2A68272  15.933  13.624   6.755
10953POPC   C3A68273  15.932  13.593   7.055
10953POPC   C4A68274  15.982  13.582   7.355
10953POPC   C1B68275  16.138  13.766   6.455
10953POPC   C2B68276  16.154  13.692   6.755
10953POPC   C3B68277  16.181  13.725   7.055
10953POPC   C4B68278  16.215  13.684   7.355
10954POPC   NC368279  17.524  27.546   5.555
10954POPC   PO468280  17.460  27.567   5.855
10954POPC   GL168281  17.551  27.579   6.155
10954POPC   GL268282  17.471  27.705   6.155
10954POPC   C1A68283  17.512  27.559   6.455
10954POPC   D2A68284  17.549  27.607   6.755
10954POPC   C3A68285  17.477  27.643   7.055
10954POPC   C4A68286  17.539  27.594   7.355
10954POPC   C1B68287  17.356  27.799   6.455
10954POPC   C2B68288  17.390  27.778   6.755
10954POPC   C3B68289  17.376  27.822   7.055
10954POPC   C4B68290  17.356  27.831   7.355
10955POPC   NC368291  15.938  10.574   5.555
10955POPC   PO468292  15.913  10.505   5.855
10955POPC   GL168293  15.913  10.571   6.155
10955POPC   GL268294  15.988  10.387   6.155
10955POPC   C1A68295  15.940  10.512   6.455
10955POPC   D2A68296  15.970  10.528   6.755
10955POPC   C3A68297  15.965  10.544   7.055
10955POPC   C4A68298  15.922  10.567   7.355
10955POPC   C1B68299  15.997  10.328   6.455
10955POPC   C2B68300  16.065  10.304   6.755
10955POPC   C3B68301  16.067  10.290   7.055
10955POPC   C4B68302  16.069  10.271   7.355
10956POPC   NC368303  20.563   3.547   5.555
10956POPC   PO468304  20.635   3.584   5.855
10956POPC   GL168305  20.654   3.544   6.155
10956POPC   GL268306  20.671   3.688   6.155
10956POPC   C1A68307  20.653   3.562   6.455
10956POPC   D2A68308  20.609   3.502   6.755
10956POPC   C3A68309  20.640   3.502   7.055
10956POPC   C4A68310  20.567   3.511   7.355
10956POPC   C1B68311  20.673   3.734   6.455
10956POPC   C2B68312  20.681   3.784   6.755
10956POPC   C3B68313  20.681   3.772   7.055
10956POPC   C4B68314  20.653   3.798   7.355
10957POPC   NC368315  22.927   6.667   5.555
10957POPC   PO468316  22.945   6.643   5.855
10957POPC   GL168317  22.943   6.694   6.155
10957POPC   GL268318  22.987   6.535   6.155
10957POPC   C1A68319  22.943   6.687   6.455
10957POPC   D2A68320  22.975   6.690   6.755
10957POPC   C3A68321  22.919   6.602   7.055
10957POPC   C4A68322  22.909   6.599   7.355
10957POPC   C1B68323  23.085   6.479   6.455
10957POPC   C2B68324  23.048   6.418   6.755
10957POPC   C3B68325  23.057   6.445   7.055
10957POPC   C4B68326  23.052   6.394   7.355
10958POPC   NC368327   9.776  15.992   5.555
10958POPC   PO468328   9.765  15.954   5.855
10958POPC   GL168329   9.714  15.932   6.155
10958POPC   GL268330   9.791  15.826   6.155
10958POPC   C1A68331   9.770  15.965   6.455
10958POPC   D2A68332   9.709  15.952   6.755
10958POPC   C3A68333   9.757  15.998   7.055
10958POPC   C4A68334   9.728  15.998   7.355
10958POPC   C1B68335   9.911  15.789   6.455
10958POPC   C2B68336   9.968  15.821   6.755
10958POPC   C3B68337   9.935  15.753   7.055
10958POPC   C4B68338   9.921  15.742   7.355
10959POPC   NC368339   9.777   2.002   5.555
10959POPC   PO468340   9.780   1.984   5.855
10959POPC   GL168341   9.770   1.947   6.155
10959POPC   GL268342   9.611   1.960   6.155
10959POPC   C1A68343   9.782   1.966   6.455
10959POPC   D2A68344   9.713   1.979   6.755
10959POPC   C3A68345   9.707   2.016   7.055
10959POPC   C4A68346   9.752   1.980   7.355
10959POPC   C1B68347   9.528   1.979   6.455
10959POPC   C2B68348   9.460   1.978   6.755
10959POPC   C3B68349   9.479   2.057   7.055
10959POPC   C4B68350   9.508   2.054   7.355
10960POPC   NC368351   5.074  20.570   5.555
10960POPC   PO468352   5.118  20.622   5.855
10960POPC   GL168353   5.124  20.638   6.155
10960POPC   GL268354   4.988  20.554   6.155
10960POPC   C1A68355   5.132  20.603   6.455
10960POPC   D2A68356   5.136  20.628   6.755
10960POPC   C3A68357   5.114  20.570   7.055
10960POPC   C4A68358   5.093  20.587   7.355
10960POPC   C1B68359   4.797  20.563   6.455
10960POPC   C2B68360   4.858  20.592   6.755
10960POPC   C3B68361   4.868  20.609   7.055
10960POPC   C4B68362   4.804  20.548   7.355
10961POPC   NC368363   5.094   5.121   5.555
10961POPC   PO468364   5.060   5.063   5.855
10961POPC   GL168365   5.079   5.055   6.155
10961POPC   GL268366   4.980   5.187   6.155
10961POPC   C1A68367   5.095   5.138   6.455
10961POPC   D2A68368   5.064   5.048   6.755
10961POPC   C3A68369   5.113   5.109   7.055
10961POPC   C4A68370   5.100   5.124   7.355
10961POPC   C1B68371   4.858   5.210   6.455
10961POPC   C2B68372   4.860   5.214   6.755
10961POPC   C3B68373   4.871   5.265   7.055
10961POPC   C4B68374   4.940   5.211   7.355
10962POPC   NC368375  19.879  37.637   5.555
10962POPC   PO468376  19.845  37.676   5.855
10962POPC   GL168377  19.846  37.707   6.155
10962POPC   GL268378  19.998  37.745   6.155
10962POPC   C1A68379  19.867  37.719   6.455
10962POPC   D2A68380  19.846  37.642   6.755
10962POPC   C3A68381  19.874  37.653   7.055
10962POPC   C4A68382  19.839  37.683   7.355
10962POPC   C1B68383  20.105  37.723   6.455
10962POPC   C2B68384  20.081  37.792   6.755
10962POPC   C3B68385  20.070  37.788   7.055
10962POPC   C4B68386  20.043  37.750   7.355
10963POPC   NC368387  28.394   8.950   5.555
10963POPC   PO468388  28.355   9.014   5.855
10963POPC   GL168389  28.415   8.934   6.155
10963POPC   GL268390  28.331   8.859   6.155
10963POPC   C1A68391  28.400   8.932   6.455
10963POPC   D2A68392  28.332   8.954   6.755
10963POPC   C3A68393  28.365   8.957   7.055
10963POPC   C4A68394  28.329   9.005   7.355
10963POPC   C1B68395  28.218   8.801   6.455
10963POPC   C2B68396  28.219   8.756   6.755
10963POPC   C3B68397  28.267   8.769   7.055
10963POPC   C4B68398  28.278   8.726   7.355
10964POPC   NC368399  15.159  19.039   5.555
10964POPC   PO468400  15.130  19.022   5.855
10964POPC   GL168401  15.199  19.088   6.155
10964POPC   GL268402  15.319  18.968   6.155
10964POPC   C1A68403  15.227  19.064   6.455
10964POPC   D2A68404  15.133  19.066   6.755
10964POPC   C3A68405  15.189  19.017   7.055
10964POPC   C4A68406  15.165  19.028   7.355
10964POPC   C1B68407  15.373  18.857   6.455
10964POPC   C2B68408  15.369  18.884   6.755
10964POPC   C3B68409  15.349  18.875   7.055
10964POPC   C4B68410  15.354  18.908   7.355
10965POPC   NC368411  10.548  30.681   5.555
10965POPC   PO468412  10.512  30.730   5.855
10965POPC   GL168413  10.573  30.719   6.155
10965POPC   GL268414  10.413  30.761   6.155
10965POPC   C1A68415  10.531  30.693   6.455
10965POPC   D2A68416  10.539  30.725   6.755
10965POPC   C3A68417  10.485  30.675   7.055
10965POPC   C4A68418  10.516  30.716   7.355
10965POPC   C1B68419  10.260  30.812   6.455
10965POPC   C2B68420  10.245  30.766   6.755
10965POPC   C3B68421  10.247  30.802   7.055
10965POPC   C4B68422  10.302  30.778   7.355
10966POPC   NC368423  24.527   0.419   5.555
10966POPC   PO468424  24.511   0.467   5.855
10966POPC   GL168425  24.505   0.418   6.155
10966POPC   GL268426  24.567   0.356   6.155
10966POPC   C1A68427  24.487   0.418   6.455
10966POPC   D2A68428  24.480   0.432   6.755
10966POPC   C3A68429  24.472   0.430   7.055
10966POPC   C4A68430  24.517   0.483   7.355
10966POPC   C1B68431  24.684   0.326   6.455
10966POPC   C2B68432  24.661   0.308   6.755
10966POPC   C3B68433  24.694   0.274   7.055
10966POPC   C4B68434  24.663   0.333   7.355
10967POPC   NC368435  28.419  17.475   5.555
10967POPC   PO468436  28.329  17.497   5.855
10967POPC   GL168437  28.322  17.517   6.155
10967POPC   GL268438  28.471  17.561   6.155
10967POPC   C1A68439  28.387  17.468   6.455
10967POPC   D2A68440  28.333  17.542   6.755
10967POPC   C3A68441  28.371  17.512   7.055
10967POPC   C4A68442  28.333  17.523   7.355
10967POPC   C1B68443  28.606  17.586   6.455
10967POPC   C2B68444  28.565  17.564   6.755
10967POPC   C3B68445  28.591  17.575   7.055
10967POPC   C4B68446  28.580  17.587   7.355
10968POPC   NC368447  10.502   4.323   5.555
10968POPC   PO468448  10.561   4.302   5.855
10968POPC   GL168449  10.547   4.350   6.155
10968POPC   GL268450  10.463   4.424   6.155
10968POPC   C1A68451  10.509   4.352   6.455
10968POPC   D2A68452  10.515   4.291   6.755
10968POPC   C3A68453  10.503   4.353   7.055
10968POPC   C4A68454  10.518   4.352   7.355
10968POPC   C1B68455  10.450   4.595   6.455
10968POPC   C2B68456  10.412   4.531   6.755
10968POPC   C3B68457  10.445   4.543   7.055
10968POPC   C4B68458  10.450   4.591   7.355
10969POPC   NC368459   8.930  36.871   5.555
10969POPC   PO468460   8.959  36.917   5.855
10969POPC   GL168461   8.956  36.930   6.155
10969POPC   GL268462   9.064  36.964   6.155
10969POPC   C1A68463   8.978  36.931   6.455
10969POPC   D2A68464   9.016  36.904   6.755
10969POPC   C3A68465   9.022  36.884   7.055
10969POPC   C4A68466   8.984  36.867   7.355
10969POPC   C1B68467   9.207  37.043   6.455
10969POPC   C2B68468   9.166  36.947   6.755
10969POPC   C3B68469   9.216  36.992   7.055
10969POPC   C4B68470   9.203  36.965   7.355
10970POPC   NC368471  18.244  33.814   5.555
10970POPC   PO468472  18.306  33.752   5.855
10970POPC   GL168473  18.255  33.758   6.155
10970POPC   GL268474  18.269  33.631   6.155
10970POPC   C1A68475  18.310  33.761   6.455
10970POPC   D2A68476  18.292  33.835   6.755
10970POPC   C3A68477  18.249  33.850   7.055
10970POPC   C4A68478  18.252  33.804   7.355
10970POPC   C1B68479  18.233  33.552   6.455
10970POPC   C2B68480  18.252  33.537   6.755
10970POPC   C3B68481  18.266  33.562   7.055
10970POPC   C4B68482  18.261  33.540   7.355
10971POPC   NC368483   9.756  32.214   5.555
10971POPC   PO468484   9.758  32.248   5.855
10971POPC   GL168485   9.742  32.288   6.155
10971POPC   GL268486   9.584  32.264   6.155
10971POPC   C1A68487   9.728  32.208   6.455
10971POPC   D2A68488   9.747  32.259   6.755
10971POPC   C3A68489   9.792  32.260   7.055
10971POPC   C4A68490   9.703  32.246   7.355
10971POPC   C1B68491   9.451  32.251   6.455
10971POPC   C2B68492   9.476  32.299   6.755
10971POPC   C3B68493   9.523  32.297   7.055
10971POPC   C4B68494   9.522  32.232   7.355
10972POPC   NC368495  22.909  35.360   5.555
10972POPC   PO468496  22.891  35.345   5.855
10972POPC   GL168497  22.943  35.362   6.155
10972POPC   GL268498  22.938  35.196   6.155
10972POPC   C1A68499  22.962  35.322   6.455
10972POPC   D2A68500  22.969  35.326   6.755
10972POPC   C3A68501  22.979  35.320   7.055
10972POPC   C4A68502  22.912  35.364   7.355
10972POPC   C1B68503  22.942  35.148   6.455
10972POPC   C2B68504  22.926  35.139   6.755
10972POPC   C3B68505  22.920  35.099   7.055
10972POPC   C4B68506  22.979  35.067   7.355
10973POPC   NC368507  32.276  34.590   5.555
10973POPC   PO468508  32.241  34.562   5.855
10973POPC   GL168509  32.225  34.615   6.155
10973POPC   GL268510  32.372  34.617   6.155
10973POPC   C1A68511  32.229  34.584   6.455
10973POPC   D2A68512  32.224  34.565   6.755
10973POPC   C3A68513  32.255  34.579   7.055
10973POPC   C4A68514  32.264  34.616   7.355
10973POPC   C1B68515  32.428  34.711   6.455
10973POPC   C2B68516  32.472  34.733   6.755
10973POPC   C3B68517  32.439  34.735   7.055
10973POPC   C4B68518  32.478  34.709   7.355
10974POPC   NC368519  31.442  13.580   5.555
10974POPC   PO468520  31.515  13.589   5.855
10974POPC   GL168521  31.472  13.624   6.155
10974POPC   GL268522  31.374  13.770   6.155
10974POPC   C1A68523  31.481  13.642   6.455
10974POPC   D2A68524  31.483  13.623   6.755
10974POPC   C3A68525  31.508  13.612   7.055
10974POPC   C4A68526  31.513  13.583   7.355
10974POPC   C1B68527  31.363  13.806   6.455
10974POPC   C2B68528  31.395  13.891   6.755
10974POPC   C3B68529  31.363  13.858   7.055
10974POPC   C4B68530  31.388  13.854   7.355
10975POPC   NC368531  31.462  16.713   5.555
10975POPC   PO468532  31.500  16.707   5.855
10975POPC   GL168533  31.451  16.695   6.155
10975POPC   GL268534  31.460  16.875   6.155
10975POPC   C1A68535  31.460  16.708   6.455
10975POPC   D2A68536  31.513  16.716   6.755
10975POPC   C3A68537  31.452  16.683   7.055
10975POPC   C4A68538  31.485  16.691   7.355
10975POPC   C1B68539  31.507  16.943   6.455
10975POPC   C2B68540  31.497  16.979   6.755
10975POPC   C3B68541  31.466  16.985   7.055
10975POPC   C4B68542  31.456  17.022   7.355
10976POPC   NC368543   5.132  36.887   5.555
10976POPC   PO468544   5.044  36.861   5.855
10976POPC   GL168545   5.143  36.901   6.155
10976POPC   GL268546   4.954  36.805   6.155
10976POPC   C1A68547   5.053  36.873   6.455
10976POPC   D2A68548   5.055  36.927   6.755
10976POPC   C3A68549   5.071  36.936   7.055
10976POPC   C4A68550   5.122  36.889   7.355
10976POPC   C1B68551   4.913  36.713   6.455
10976POPC   C2B68552   4.877  36.736   6.755
10976POPC   C3B68553   4.854  36.714   7.055
10976POPC   C4B68554   4.851  36.797   7.355
10977POPC   NC368555   5.124  36.169   5.555
10977POPC   PO468556   5.051  36.097   5.855
10977POPC   GL168557   5.139  36.105   6.155
10977POPC   GL268558   4.988  35.976   6.155
10977POPC   C1A68559   5.130  36.151   6.455
10977POPC   D2A68560   5.113  36.127   6.755
10977POPC   C3A68561   5.082  36.118   7.055
10977POPC   C4A68562   5.098  36.154   7.355
10977POPC   C1B68563   4.943  35.872   6.455
10977POPC   C2B68564   5.012  35.910   6.755
10977POPC   C3B68565   4.948  35.860   7.055
10977POPC   C4B68566   5.011  35.943   7.355
10978POPC   NC368567   8.212  22.966   5.555
10978POPC   PO468568   8.188  22.937   5.855
10978POPC   GL168569   8.220  22.898   6.155
10978POPC   GL268570   8.107  22.890   6.155
10978POPC   C1A68571   8.246  22.954   6.455
10978POPC   D2A68572   8.242  22.889   6.755
10978POPC   C3A68573   8.164  22.935   7.055
10978POPC   C4A68574   8.193  22.986   7.355
10978POPC   C1B68575   8.009  22.720   6.455
10978POPC   C2B68576   7.991  22.725   6.755
10978POPC   C3B68577   8.079  22.749   7.055
10978POPC   C4B68578   8.023  22.779   7.355
10979POPC   NC368579  12.035  12.842   5.555
10979POPC   PO468580  12.111  12.879   5.855
10979POPC   GL168581  12.051  12.888   6.155
10979POPC   GL268582  12.081  12.686   6.155
10979POPC   C1A68583  12.051  12.856   6.455
10979POPC   D2A68584  12.061  12.888   6.755
10979POPC   C3A68585  12.099  12.805   7.055
10979POPC   C4A68586  12.110  12.824   7.355
10979POPC   C1B68587  12.058  12.601   6.455
10979POPC   C2B68588  12.125  12.630   6.755
10979POPC   C3B68589  12.063  12.561   7.055
10979POPC   C4B68590  12.115  12.583   7.355
10980POPC   NC368591  44.694  18.251   5.555
10980POPC   PO468592  44.650  18.242   5.855
10980POPC   GL168593  44.695  18.256   6.155
10980POPC   GL268594  44.739  18.183   6.155
10980POPC   C1A68595  44.683  18.236   6.455
10980POPC   D2A68596  44.656  18.312   6.755
10980POPC   C3A68597  44.628  18.240   7.055
10980POPC   C4A68598  44.654  18.251   7.355
10980POPC   C1B68599  44.711  18.016   6.455
10980POPC   C2B68600  44.721  18.006   6.755
10980POPC   C3B68601  44.781  18.093   7.055
10980POPC   C4B68602  44.795  18.086   7.355
10981POPC   NC368603   8.984  12.879   5.555
10981POPC   PO468604   8.923  12.899   5.855
10981POPC   GL168605   8.989  12.810   6.155
10981POPC   GL268606   8.981  12.991   6.155
10981POPC   C1A68607   8.959  12.836   6.455
10981POPC   D2A68608   9.003  12.877   6.755
10981POPC   C3A68609   8.948  12.805   7.055
10981POPC   C4A68610   9.017  12.888   7.355
10981POPC   C1B68611   8.984  13.135   6.455
10981POPC   C2B68612   8.995  13.109   6.755
10981POPC   C3B68613   8.927  13.148   7.055
10981POPC   C4B68614   8.976  13.131   7.355
10982POPC   NC368615  32.983   0.435   5.555
10982POPC   PO468616  32.991   0.439   5.855
10982POPC   GL168617  33.055   0.391   6.155
10982POPC   GL268618  32.938   0.356   6.155
10982POPC   C1A68619  33.002   0.419   6.455
10982POPC   D2A68620  33.067   0.405   6.755
10982POPC   C3A68621  32.993   0.464   7.055
10982POPC   C4A68622  32.990   0.412   7.355
10982POPC   C1B68623  32.809   0.286   6.455
10982POPC   C2B68624  32.847   0.351   6.755
10982POPC   C3B68625  32.823   0.329   7.055
10982POPC   C4B68626  32.810   0.278   7.355
10983POPC   NC368627  27.594  33.071   5.555
10983POPC   PO468628  27.558  32.988   5.855
10983POPC   GL168629  27.627  33.038   6.155
10983POPC   GL268630  27.554  32.968   6.155
10983POPC   C1A68631  27.635  33.019   6.455
10983POPC   D2A68632  27.558  33.040   6.755
10983POPC   C3A68633  27.640  33.021   7.055
10983POPC   C4A68634  27.560  33.028   7.355
10983POPC   C1B68635  27.469  32.867   6.455
10983POPC   C2B68636  27.452  32.816   6.755
10983POPC   C3B68637  27.384  32.791   7.055
10983POPC   C4B68638  27.442  32.790   7.355
10984POPC   NC368639  22.959  28.328   5.555
10984POPC   PO468640  22.923  28.406   5.855
10984POPC   GL168641  22.984  28.406   6.155
10984POPC   GL268642  22.809  28.507   6.155
10984POPC   C1A68643  22.954  28.342   6.455
10984POPC   D2A68644  22.942  28.366   6.755
10984POPC   C3A68645  22.890  28.320   7.055
10984POPC   C4A68646  22.896  28.377   7.355
10984POPC   C1B68647  22.764  28.560   6.455
10984POPC   C2B68648  22.801  28.521   6.755
10984POPC   C3B68649  22.741  28.602   7.055
10984POPC   C4B68650  22.821  28.563   7.355
10985POPC   NC368651  27.629   8.204   5.555
10985POPC   PO468652  27.558   8.244   5.855
10985POPC   GL168653  27.596   8.189   6.155
10985POPC   GL268654  27.541   8.299   6.155
10985POPC   C1A68655  27.551   8.163   6.455
10985POPC   D2A68656  27.634   8.190   6.755
10985POPC   C3A68657  27.554   8.163   7.055
10985POPC   C4A68658  27.614   8.176   7.355
10985POPC   C1B68659  27.576   8.475   6.455
10985POPC   C2B68660  27.571   8.458   6.755
10985POPC   C3B68661  27.566   8.433   7.055
10985POPC   C4B68662  27.588   8.465   7.355
10986POPC   NC368663  17.519  32.203   5.555
10986POPC   PO468664  17.490  32.264   5.855
10986POPC   GL168665  17.555  32.201   6.155
10986POPC   GL268666  17.579  32.167   6.155
10986POPC   C1A68667  17.479  32.266   6.455
10986POPC   D2A68668  17.466  32.241   6.755
10986POPC   C3A68669  17.458  32.212   7.055
10986POPC   C4A68670  17.543  32.223   7.355
10986POPC   C1B68671  17.712  32.048   6.455
10986POPC   C2B68672  17.643  32.033   6.755
10986POPC   C3B68673  17.647  32.037   7.055
10986POPC   C4B68674  17.723  32.083   7.355
10987POPC   NC368675  29.911  26.826   5.555
10987POPC   PO468676  29.877  26.785   5.855
10987POPC   GL168677  29.966  26.809   6.155
10987POPC   GL268678  30.083  26.819   6.155
10987POPC   C1A68679  29.880  26.824   6.455
10987POPC   D2A68680  29.923  26.778   6.755
10987POPC   C3A68681  29.889  26.783   7.055
10987POPC   C4A68682  29.954  26.798   7.355
10987POPC   C1B68683  30.174  26.734   6.455
10987POPC   C2B68684  30.206  26.756   6.755
10987POPC   C3B68685  30.200  26.802   7.055
10987POPC   C4B68686  30.148  26.799   7.355
10988POPC   NC368687  12.901  33.033   5.555
10988POPC   PO468688  12.849  33.067   5.855
10988POPC   GL168689  12.866  33.015   6.155
10988POPC   GL268690  12.818  32.903   6.155
10988POPC   C1A68691  12.830  33.070   6.455
10988POPC   D2A68692  12.824  33.028   6.755
10988POPC   C3A68693  12.805  32.984   7.055
10988POPC   C4A68694  12.888  33.026   7.355
10988POPC   C1B68695  12.727  32.839   6.455
10988POPC   C2B68696  12.702  32.834   6.755
10988POPC   C3B68697  12.664  32.782   7.055
10988POPC   C4B68698  12.674  32.816   7.355
10989POPC   NC368699  11.271  12.871   5.555
10989POPC   PO468700  11.270  12.823   5.855
10989POPC   GL168701  11.315  12.854   6.155
10989POPC   GL268702  11.315  12.963   6.155
10989POPC   C1A68703  11.322  12.812   6.455
10989POPC   D2A68704  11.314  12.871   6.755
10989POPC   C3A68705  11.302  12.879   7.055
10989POPC   C4A68706  11.291  12.815   7.355
10989POPC   C1B68707  11.307  13.109   6.455
10989POPC   C2B68708  11.270  13.073   6.755
10989POPC   C3B68709  11.350  13.113   7.055
10989POPC   C4B68710  11.264  13.104   7.355
10990POPC   NC368711  43.112  29.143   5.555
10990POPC   PO468712  43.134  29.100   5.855
10990POPC   GL168713  43.065  29.177   6.155
10990POPC   GL268714  43.173  29.046   6.155
10990POPC   C1A68715  43.093  29.159   6.455
10990POPC   D2A68716  43.106  29.181   6.755
10990POPC   C3A68717  43.094  29.189   7.055
10990POPC   C4A68718  43.141  29.132   7.355
10990POPC   C1B68719  43.216  28.940   6.455
10990POPC   C2B68720  43.207  28.933   6.755
10990POPC   C3B68721  43.229  28.968   7.055
10990POPC   C4B68722  43.190  28.920   7.355
10991POPC   NC368723  33.759  30.679   5.555
10991POPC   PO468724  33.825  30.704   5.855
10991POPC   GL168725  33.771  30.695   6.155
10991POPC   GL268726  33.957  30.710   6.155
10991POPC   C1A68727  33.795  30.699   6.455
10991POPC   D2A68728  33.755  30.714   6.755
10991POPC   C3A68729  33.783  30.685   7.055
10991POPC   C4A68730  33.816  30.696   7.355
10991POPC   C1B68731  34.067  30.757   6.455
10991POPC   C2B68732  34.092  30.787   6.755
10991POPC   C3B68733  34.037  30.723   7.055
10991POPC   C4B68734  34.036  30.790   7.355
10992POPC   NC368735   6.595  10.517   5.555
10992POPC   PO468736   6.622  10.519   5.855
10992POPC   GL168737   6.658  10.555   6.155
10992POPC   GL268738   6.610  10.666   6.155
10992POPC   C1A68739   6.688  10.491   6.455
10992POPC   D2A68740   6.664  10.570   6.755
10992POPC   C3A68741   6.681  10.509   7.055
10992POPC   C4A68742   6.637  10.555   7.355
10992POPC   C1B68743   6.576  10.761   6.455
10992POPC   C2B68744   6.580  10.797   6.755
10992POPC   C3B68745   6.547  10.813   7.055
10992POPC   C4B68746   6.543  10.747   7.355
10993POPC   NC368747  36.935  40.782   5.555
10993POPC   PO468748  36.952  40.832   5.855
10993POPC   GL168749  36.902  40.781   6.155
10993POPC   GL268750  36.837  40.872   6.155
10993POPC   C1A68751  36.934  40.788   6.455
10993POPC   D2A68752  36.904  40.813   6.755
10993POPC   C3A68753  36.894  40.741   7.055
10993POPC   C4A68754  36.912  40.754   7.355
10993POPC   C1B68755  36.733  40.993   6.455
10993POPC   C2B68756  36.791  40.950   6.755
10993POPC   C3B68757  36.726  41.030   7.055
10993POPC   C4B68758  36.755  40.998   7.355
10994POPC   NC368759   2.798  40.818   5.555
10994POPC   PO468760   2.799  40.754   5.855
10994POPC   GL168761   2.788  40.813   6.155
10994POPC   GL268762   2.853  40.730   6.155
10994POPC   C1A68763   2.767  40.789   6.455
10994POPC   D2A68764   2.722  40.789   6.755
10994POPC   C3A68765   2.758  40.788   7.055
10994POPC   C4A68766   2.725  40.764   7.355
10994POPC   C1B68767   2.953  40.564   6.455
10994POPC   C2B68768   2.908  40.605   6.755
10994POPC   C3B68769   2.947  40.583   7.055
10994POPC   C4B68770   2.878  40.542   7.355
10995POPC   NC368771   4.360  42.337   5.555
10995POPC   PO468772   4.366  42.337   5.855
10995POPC   GL168773   4.359  42.364   6.155
10995POPC   GL268774   4.240  42.441   6.155
10995POPC   C1A68775   4.318  42.376   6.455
10995POPC   D2A68776   4.294  42.328   6.755
10995POPC   C3A68777   4.276  42.327   7.055
10995POPC   C4A68778   4.290  42.374   7.355
10995POPC   C1B68779   4.185  42.481   6.455
10995POPC   C2B68780   4.168  42.545   6.755
10995POPC   C3B68781   4.187  42.563   7.055
10995POPC   C4B68782   4.158  42.533   7.355
10996POPC   NC368783  39.229  43.908   5.555
10996POPC   PO468784  39.244  43.876   5.855
10996POPC   GL168785  39.210  43.930   6.155
10996POPC   GL268786  39.390  43.906   6.155
10996POPC   C1A68787  39.274  43.907   6.455
10996POPC   D2A68788  39.193  43.912   6.755
10996POPC   C3A68789  39.218  43.928   7.055
10996POPC   C4A68790  39.190  43.906   7.355
10996POPC   C1B68791  39.419  43.947   6.455
10996POPC   C2B68792  39.421  43.957   6.755
10996POPC   C3B68793  39.463  43.998   7.055
10996POPC   C4B68794  39.445  44.000   7.355
10997POPC   NC368795  41.567  23.704   5.555
10997POPC   PO468796  41.526  23.742   5.855
10997POPC   GL168797  41.545  23.681   6.155
10997POPC   GL268798  41.647  23.704   6.155
10997POPC   C1A68799  41.595  23.679   6.455
10997POPC   D2A68800  41.561  23.701   6.755
10997POPC   C3A68801  41.545  23.708   7.055
10997POPC   C4A68802  41.522  23.718   7.355
10997POPC   C1B68803  41.778  23.718   6.455
10997POPC   C2B68804  41.769  23.809   6.755
10997POPC   C3B68805  41.755  23.735   7.055
10997POPC   C4B68806  41.780  23.807   7.355
10998POPC   NC368807  11.292  16.688   5.555
10998POPC   PO468808  11.290  16.697   5.855
10998POPC   GL168809  11.310  16.722   6.155
10998POPC   GL268810  11.321  16.857   6.155
10998POPC   C1A68811  11.269  16.711   6.455
10998POPC   D2A68812  11.303  16.728   6.755
10998POPC   C3A68813  11.260  16.746   7.055
10998POPC   C4A68814  11.255  16.775   7.355
10998POPC   C1B68815  11.293  16.985   6.455
10998POPC   C2B68816  11.292  17.027   6.755
10998POPC   C3B68817  11.332  16.967   7.055
10998POPC   C4B68818  11.330  16.956   7.355
10999POPC   NC368819  12.882  32.264   5.555
10999POPC   PO468820  12.882  32.274   5.855
10999POPC   GL168821  12.809  32.208   6.155
10999POPC   GL268822  12.690  32.273   6.155
10999POPC   C1A68823  12.841  32.242   6.455
10999POPC   D2A68824  12.873  32.205   6.755
10999POPC   C3A68825  12.873  32.294   7.055
10999POPC   C4A68826  12.808  32.223   7.355
10999POPC   C1B68827  12.572  32.289   6.455
10999POPC   C2B68828  12.628  32.321   6.755
10999POPC   C3B68829  12.642  32.270   7.055
10999POPC   C4B68830  12.649  32.363   7.355
11000POPC   NC368831   6.690  31.427   5.555
11000POPC   PO468832   6.652  31.467   5.855
11000POPC   GL168833   6.655  31.499   6.155
11000POPC   GL268834   6.568  31.380   6.155
11000POPC   C1A68835   6.680  31.468   6.455
11000POPC   D2A68836   6.693  31.467   6.755
11000POPC   C3A68837   6.638  31.459   7.055
11000POPC   C4A68838   6.639  31.472   7.355
11000POPC   C1B68839   6.537  31.246   6.455
11000POPC   C2B68840   6.526  31.220   6.755
11000POPC   C3B68841   6.613  31.275   7.055
11000POPC   C4B68842   6.546  31.241   7.355
11001POPC   NC368843  29.174   4.281   5.555
11001POPC   PO468844  29.161   4.277   5.855
11001POPC   GL168845  29.188   4.332   6.155
11001POPC   GL268846  28.986   4.258   6.155
11001POPC   C1A68847  29.184   4.300   6.455
11001POPC   D2A68848  29.162   4.288   6.755
11001POPC   C3A68849  29.165   4.303   7.055
11001POPC   C4A68850  29.110   4.343   7.355
11001POPC   C1B68851  28.955   4.236   6.455
11001POPC   C2B68852  28.882   4.179   6.755
11001POPC   C3B68853  28.895   4.172   7.055
11001POPC   C4B68854  28.929   4.238   7.355
11002POPC   NC368855  29.942  13.662   5.555
11002POPC   PO468856  29.871  13.647   5.855
11002POPC   GL168857  29.878  13.647   6.155
11002POPC   GL268858  29.848  13.758   6.155
11002POPC   C1A68859  29.966  13.606   6.455
11002POPC   D2A68860  29.875  13.644   6.755
11002POPC   C3A68861  29.905  13.590   7.055
11002POPC   C4A68862  29.936  13.593   7.355
11002POPC   C1B68863  29.755  13.815   6.455
11002POPC   C2B68864  29.803  13.798   6.755
11002POPC   C3B68865  29.783  13.804   7.055
11002POPC   C4B68866  29.772  13.819   7.355
11003POPC   NC368867   5.132  35.313   5.555
11003POPC   PO468868   5.121  35.334   5.855
11003POPC   GL168869   5.133  35.391   6.155
11003POPC   GL268870   5.106  35.448   6.155
11003POPC   C1A68871   5.079  35.310   6.455
11003POPC   D2A68872   5.109  35.339   6.755
11003POPC   C3A68873   5.114  35.367   7.055
11003POPC   C4A68874   5.103  35.341   7.355
11003POPC   C1B68875   5.043  35.596   6.455
11003POPC   C2B68876   5.082  35.636   6.755
11003POPC   C3B68877   5.076  35.571   7.055
11003POPC   C4B68878   5.063  35.610   7.355
11004POPC   NC368879  24.533  17.517   5.555
11004POPC   PO468880  24.459  17.520   5.855
11004POPC   GL168881  24.503  17.527   6.155
11004POPC   GL268882  24.383  17.499   6.155
11004POPC   C1A68883  24.484  17.553   6.455
11004POPC   D2A68884  24.532  17.499   6.755
11004POPC   C3A68885  24.450  17.468   7.055
11004POPC   C4A68886  24.473  17.515   7.355
11004POPC   C1B68887  24.273  17.424   6.455
11004POPC   C2B68888  24.238  17.355   6.755
11004POPC   C3B68889  24.295  17.431   7.055
11004POPC   C4B68890  24.234  17.363   7.355
11005POPC   NC368891  12.814  19.015   5.555
11005POPC   PO468892  12.891  19.095   5.855
11005POPC   GL168893  12.884  19.105   6.155
11005POPC   GL268894  12.700  19.099   6.155
11005POPC   C1A68895  12.818  19.050   6.455
11005POPC   D2A68896  12.818  19.020   6.755
11005POPC   C3A68897  12.896  19.037   7.055
11005POPC   C4A68898  12.883  19.107   7.355
11005POPC   C1B68899  12.590  19.084   6.455
11005POPC   C2B68900  12.577  19.122   6.755
11005POPC   C3B68901  12.602  19.069   7.055
11005POPC   C4B68902  12.637  19.105   7.355
11006POPC   NC368903  12.886  16.730   5.555
11006POPC   PO468904  12.841  16.760   5.855
11006POPC   GL168905  12.844  16.724   6.155
11006POPC   GL268906  12.973  16.737   6.155
11006POPC   C1A68907  12.851  16.709   6.455
11006POPC   D2A68908  12.842  16.691   6.755
11006POPC   C3A68909  12.867  16.709   7.055
11006POPC   C4A68910  12.827  16.744   7.355
11006POPC   C1B68911  13.117  16.811   6.455
11006POPC   C2B68912  13.099  16.804   6.755
11006POPC   C3B68913  13.082  16.783   7.055
11006POPC   C4B68914  13.121  16.759   7.355
11007POPC   NC368915  21.389  13.627   5.555
11007POPC   PO468916  21.398  13.602   5.855
11007POPC   GL168917  21.383  13.643   6.155
11007POPC   GL268918  21.498  13.671   6.155
11007POPC   C1A68919  21.391  13.611   6.455
11007POPC   D2A68920  21.401  13.604   6.755
11007POPC   C3A68921  21.403  13.624   7.055
11007POPC   C4A68922  21.412  13.662   7.355
11007POPC   C1B68923  21.653  13.765   6.455
11007POPC   C2B68924  21.649  13.747   6.755
11007POPC   C3B68925  21.611  13.710   7.055
11007POPC   C4B68926  21.568  13.718   7.355
11008POPC   NC368927   8.924  16.758   5.555
11008POPC   PO468928   8.966  16.733   5.855
11008POPC   GL168929   8.969  16.774   6.155
11008POPC   GL268930   8.928  16.809   6.155
11008POPC   C1A68931   8.992  16.709   6.455
11008POPC   D2A68932   8.970  16.734   6.755
11008POPC   C3A68933   8.983  16.714   7.055
11008POPC   C4A68934   8.996  16.731   7.355
11008POPC   C1B68935   9.016  16.959   6.455
11008POPC   C2B68936   9.014  16.981   6.755
11008POPC   C3B68937   9.002  17.018   7.055
11008POPC   C4B68938   8.971  17.012   7.355
11009POPC   NC368939  37.635  32.999   5.555
11009POPC   PO468940  37.668  33.021   5.855
11009POPC   GL168941  37.724  33.011   6.155
11009POPC   GL268942  37.570  33.102   6.155
11009POPC   C1A68943  37.652  33.024   6.455
11009POPC   D2A68944  37.684  33.030   6.755
11009POPC   C3A68945  37.649  33.011   7.055
11009POPC   C4A68946  37.673  33.028   7.355
11009POPC   C1B68947  37.535  33.225   6.455
11009POPC   C2B68948  37.486  33.198   6.755
11009POPC   C3B68949  37.507  33.161   7.055
11009POPC   C4B68950  37.451  33.147   7.355
11010POPC   NC368951  25.313   3.576   5.555
11010POPC   PO468952  25.286   3.550   5.855
11010POPC   GL168953  25.235   3.571   6.155
11010POPC   GL268954  25.378   3.650   6.155
11010POPC   C1A68955  25.283   3.523   6.455
11010POPC   D2A68956  25.252   3.496   6.755
11010POPC   C3A68957  25.238   3.558   7.055
11010POPC   C4A68958  25.253   3.563   7.355
11010POPC   C1B68959  25.452   3.672   6.455
11010POPC   C2B68960  25.448   3.632   6.755
11010POPC   C3B68961  25.515   3.682   7.055
11010POPC   C4B68962  25.469   3.691   7.355
11011POPC   NC368963  36.171  12.080   5.555
11011POPC   PO468964  36.169  12.051   5.855
11011POPC   GL168965  36.176  12.078   6.155
11011POPC   GL268966  36.090  11.962   6.155
11011POPC   C1A68967  36.145  12.055   6.455
11011POPC   D2A68968  36.161  12.078   6.755
11011POPC   C3A68969  36.176  12.112   7.055
11011POPC   C4A68970  36.157  12.070   7.355
11011POPC   C1B68971  36.112  11.856   6.455
11011POPC   C2B68972  36.102  11.779   6.755
11011POPC   C3B68973  36.152  11.778   7.055
11011POPC   C4B68974  36.076  11.868   7.355
11012POPC   NC368975  24.495  33.052   5.555
11012POPC   PO468976  24.479  33.045   5.855
11012POPC   GL168977  24.486  33.039   6.155
11012POPC   GL268978  24.573  32.952   6.155
11012POPC   C1A68979  24.520  32.987   6.455
11012POPC   D2A68980  24.539  33.002   6.755
11012POPC   C3A68981  24.521  33.065   7.055
11012POPC   C4A68982  24.462  33.010   7.355
11012POPC   C1B68983  24.702  32.857   6.455
11012POPC   C2B68984  24.676  32.833   6.755
11012POPC   C3B68985  24.667  32.820   7.055
11012POPC   C4B68986  24.650  32.883   7.355
11013POPC   NC368987  26.862  27.620   5.555
11013POPC   PO468988  26.769  27.610   5.855
11013POPC   GL168989  26.849  27.636   6.155
11013POPC   GL268990  26.705  27.517   6.155
11013POPC   C1A68991  26.837  27.550   6.455
11013POPC   D2A68992  26.846  27.609   6.755
11013POPC   C3A68993  26.832  27.623   7.055
11013POPC   C4A68994  26.776  27.618   7.355
11013POPC   C1B68995  26.626  27.388   6.455
11013POPC   C2B68996  26.633  27.358   6.755
11013POPC   C3B68997  26.662  27.359   7.055
11013POPC   C4B68998  26.706  27.397   7.355
11014POPC   NC368999   1.985   2.000   5.555
11014POPC   PO469000   2.021   2.001   5.855
11014POPC   GL169001   1.975   1.961   6.155
11014POPC   GL269002   1.921   1.912   6.155
11014POPC   C1A69003   1.942   2.020   6.455
11014POPC   D2A69004   1.988   2.032   6.755
11014POPC   C3A69005   1.947   1.985   7.055
11014POPC   C4A69006   1.988   2.003   7.355
11014POPC   C1B69007   1.904   1.705   6.455
11014POPC   C2B69008   1.881   1.717   6.755
11014POPC   C3B69009   1.897   1.718   7.055
11014POPC   C4B69010   1.958   1.783   7.355
11015POPC   NC369011  11.279  22.163   5.555
11015POPC   PO469012  11.278  22.123   5.855
11015POPC   GL169013  11.253  22.154   6.155
11015POPC   GL269014  11.453  22.087   6.155
11015POPC   C1A69015  11.347  22.156   6.455
11015POPC   D2A69016  11.340  22.138   6.755
11015POPC   C3A69017  11.318  22.179   7.055
11015POPC   C4A69018  11.264  22.203   7.355
11015POPC   C1B69019  11.529  22.111   6.455
11015POPC   C2B69020  11.558  22.043   6.755
11015POPC   C3B69021  11.507  22.089   7.055
11015POPC   C4B69022  11.538  22.118   7.355
11016POPC   NC369023  36.163  13.579   5.555
11016POPC   PO469024  36.177  13.632   5.855
11016POPC   GL169025  36.088  13.654   6.155
11016POPC   GL269026  36.044  13.723   6.155
11016POPC   C1A69027  36.130  13.597   6.455
11016POPC   D2A69028  36.157  13.604   6.755
11016POPC   C3A69029  36.085  13.600   7.055
11016POPC   C4A69030  36.139  13.627   7.355
11016POPC   C1B69031  36.001  13.832   6.455
11016POPC   C2B69032  36.018  13.876   6.755
11016POPC   C3B69033  36.098  13.860   7.055
11016POPC   C4B69034  36.032  13.826   7.355
11017POPC   NC369035   9.738  39.269   5.555
11017POPC   PO469036   9.753  39.199   5.855
11017POPC   GL169037   9.796  39.199   6.155
11017POPC   GL269038   9.862  39.205   6.155
11017POPC   C1A69039   9.705  39.188   6.455
11017POPC   D2A69040   9.732  39.255   6.755
11017POPC   C3A69041   9.756  39.200   7.055
11017POPC   C4A69042   9.797  39.219   7.355
11017POPC   C1B69043   9.940  39.096   6.455
11017POPC   C2B69044   9.987  39.162   6.755
11017POPC   C3B69045   9.982  39.183   7.055
11017POPC   C4B69046   9.977  39.185   7.355
11018POPC   NC369047   4.352   3.546   5.555
11018POPC   PO469048   4.358   3.502   5.855
11018POPC   GL169049   4.282   3.563   6.155
11018POPC   GL269050   4.183   3.465   6.155
11018POPC   C1A69051   4.297   3.555   6.455
11018POPC   D2A69052   4.315   3.523   6.755
11018POPC   C3A69053   4.325   3.590   7.055
11018POPC   C4A69054   4.334   3.590   7.355
11018POPC   C1B69055   4.073   3.414   6.455
11018POPC   C2B69056   4.168   3.407   6.755
11018POPC   C3B69057   4.108   3.408   7.055
11018POPC   C4B69058   4.094   3.352   7.355
11019POPC   NC369059   9.709   6.641   5.555
11019POPC   PO469060   9.743   6.612   5.855
11019POPC   GL169061   9.725   6.610   6.155
11019POPC   GL269062   9.905   6.602   6.155
11019POPC   C1A69063   9.721   6.673   6.455
11019POPC   D2A69064   9.705   6.641   6.755
11019POPC   C3A69065   9.733   6.602   7.055
11019POPC   C4A69066   9.740   6.656   7.355
11019POPC   C1B69067   9.943   6.542   6.455
11019POPC   C2B69068   9.961   6.553   6.755
11019POPC   C3B69069  10.013   6.555   7.055
11019POPC   C4B69070   9.955   6.513   7.355
11020POPC   NC369071   8.981  29.174   5.555
11020POPC   PO469072   8.932  29.183   5.855
11020POPC   GL169073   9.013  29.170   6.155
11020POPC   GL269074   8.862  29.172   6.155
11020POPC   C1A69075   8.956  29.116   6.455
11020POPC   D2A69076   8.940  29.191   6.755
11020POPC   C3A69077   9.020  29.169   7.055
11020POPC   C4A69078   8.993  29.181   7.355
11020POPC   C1B69079   8.783  29.269   6.455
11020POPC   C2B69080   8.792  29.268   6.755
11020POPC   C3B69081   8.697  29.214   7.055
11020POPC   C4B69082   8.724  29.200   7.355
11021POPC   NC369083  44.690  24.489   5.555
11021POPC   PO469084  44.638  24.520   5.855
11021POPC   GL169085  44.616  24.449   6.155
11021POPC   GL269086  44.663  24.381   6.155
11021POPC   C1A69087  44.612  24.446   6.455
11021POPC   D2A69088  44.690  24.502   6.755
11021POPC   C3A69089  44.674  24.459   7.055
11021POPC   C4A69090  44.683  24.445   7.355
11021POPC   C1B69091  44.661  24.263   6.455
11021POPC   C2B69092  44.681  24.246   6.755
11021POPC   C3B69093  44.703  24.270   7.055
11021POPC   C4B69094  44.686  24.285   7.355
11022POPC   NC369095  36.870  43.114   5.555
11022POPC   PO469096  36.938  43.074   5.855
11022POPC   GL169097  36.914  43.103   6.155
11022POPC   GL269098  36.846  43.014   6.155
11022POPC   C1A69099  36.948  43.156   6.455
11022POPC   D2A69100  36.884  43.080   6.755
11022POPC   C3A69101  36.934  43.101   7.055
11022POPC   C4A69102  36.909  43.148   7.355
11022POPC   C1B69103  36.815  42.863   6.455
11022POPC   C2B69104  36.786  42.843   6.755
11022POPC   C3B69105  36.815  42.865   7.055
11022POPC   C4B69106  36.754  42.911   7.355
11023POPC   NC369107  44.661   2.811   5.555
11023POPC   PO469108  44.617   2.802   5.855
11023POPC   GL169109  44.649   2.732   6.155
11023POPC   GL269110  44.579   2.847   6.155
11023POPC   C1A69111  44.627   2.800   6.455
11023POPC   D2A69112  44.666   2.716   6.755
11023POPC   C3A69113  44.634   2.724   7.055
11023POPC   C4A69114  44.637   2.753   7.355
11023POPC   C1B69115  44.478   2.946   6.455
11023POPC   C2B69116  44.487   2.984   6.755
11023POPC   C3B69117  44.531   2.974   7.055
11023POPC   C4B69118  44.482   2.903   7.355
11024POPC   NC369119  12.864   3.570   5.555
11024POPC   PO469120  12.883   3.580   5.855
11024POPC   GL169121  12.888   3.529   6.155
11024POPC   GL269122  12.699   3.582   6.155
11024POPC   C1A69123  12.826   3.503   6.455
11024POPC   D2A69124  12.872   3.493   6.755
11024POPC   C3A69125  12.808   3.581   7.055
11024POPC   C4A69126  12.892   3.507   7.355
11024POPC   C1B69127  12.611   3.686   6.455
11024POPC   C2B69128  12.667   3.642   6.755
11024POPC   C3B69129  12.577   3.660   7.055
11024POPC   C4B69130  12.576   3.622   7.355
11025POPC   NC369131   3.576  30.668   5.555
11025POPC   PO469132   3.576  30.659   5.855
11025POPC   GL169133   3.577  30.689   6.155
11025POPC   GL269134   3.570  30.636   6.155
11025POPC   C1A69135   3.534  30.741   6.455
11025POPC   D2A69136   3.583  30.714   6.755
11025POPC   C3A69137   3.513  30.744   7.055
11025POPC   C4A69138   3.571  30.737   7.355
11025POPC   C1B69139   3.645  30.474   6.455
11025POPC   C2B69140   3.682  30.443   6.755
11025POPC   C3B69141   3.630  30.480   7.055
11025POPC   C4B69142   3.678  30.465   7.355
11026POPC   NC369143  28.358   7.375   5.555
11026POPC   PO469144  28.361   7.461   5.855
11026POPC   GL169145  28.395   7.461   6.155
11026POPC   GL269146  28.409   7.546   6.155
11026POPC   C1A69147  28.408   7.440   6.455
11026POPC   D2A69148  28.363   7.419   6.755
11026POPC   C3A69149  28.419   7.433   7.055
11026POPC   C4A69150  28.414   7.436   7.355
11026POPC   C1B69151  28.411   7.613   6.455
11026POPC   C2B69152  28.403   7.661   6.755
11026POPC   C3B69153  28.454   7.627   7.055
11026POPC   C4B69154  28.455   7.698   7.355
11027POPC   NC369155  43.074  41.571   5.555
11027POPC   PO469156  43.160  41.603   5.855
11027POPC   GL169157  43.073  41.604   6.155
11027POPC   GL269158  43.273  41.534   6.155
11027POPC   C1A69159  43.084  41.593   6.455
11027POPC   D2A69160  43.123  41.597   6.755
11027POPC   C3A69161  43.095  41.594   7.055
11027POPC   C4A69162  43.106  41.600   7.355
11027POPC   C1B69163  43.408  41.566   6.455
11027POPC   C2B69164  43.337  41.597   6.755
11027POPC   C3B69165  43.377  41.553   7.055
11027POPC   C4B69166  43.376  41.534   7.355
11028POPC   NC369167  26.039  34.563   5.555
11028POPC   PO469168  26.018  34.625   5.855
11028POPC   GL169169  26.078  34.574   6.155
11028POPC   GL269170  26.012  34.651   6.155
11028POPC   C1A69171  26.024  34.623   6.455
11028POPC   D2A69172  26.037  34.624   6.755
11028POPC   C3A69173  26.051  34.528   7.055
11028POPC   C4A69174  26.082  34.568   7.355
11028POPC   C1B69175  25.948  34.809   6.455
11028POPC   C2B69176  25.966  34.806   6.755
11028POPC   C3B69177  25.929  34.803   7.055
11028POPC   C4B69178  25.961  34.813   7.355
11029POPC   NC369179  42.319  43.868   5.555
11029POPC   PO469180  42.308  43.922   5.855
11029POPC   GL169181  42.351  43.861   6.155
11029POPC   GL269182  42.403  43.733   6.155
11029POPC   C1A69183  42.368  43.872   6.455
11029POPC   D2A69184  42.376  43.853   6.755
11029POPC   C3A69185  42.323  43.879   7.055
11029POPC   C4A69186  42.382  43.840   7.355
11029POPC   C1B69187  42.366  43.649   6.455
11029POPC   C2B69188  42.444  43.674   6.755
11029POPC   C3B69189  42.411  43.678   7.055
11029POPC   C4B69190  42.436  43.660   7.355
11030POPC   NC369191   4.279  30.650   5.555
11030POPC   PO469192   4.341  30.691   5.855
11030POPC   GL169193   4.278  30.701   6.155
11030POPC   GL269194   4.282  30.594   6.155
11030POPC   C1A69195   4.285  30.728   6.455
11030POPC   D2A69196   4.340  30.727   6.755
11030POPC   C3A69197   4.277  30.695   7.055
11030POPC   C4A69198   4.321  30.701   7.355
11030POPC   C1B69199   4.160  30.484   6.455
11030POPC   C2B69200   4.237  30.516   6.755
11030POPC   C3B69201   4.166  30.455   7.055
11030POPC   C4B69202   4.167  30.452   7.355
11031POPC   NC369203  36.103  12.866   5.555
11031POPC   PO469204  36.144  12.843   5.855
11031POPC   GL169205  36.100  12.829   6.155
11031POPC   GL269206  36.131  12.772   6.155
11031POPC   C1A69207  36.117  12.848   6.455
11031POPC   D2A69208  36.120  12.883   6.755
11031POPC   C3A69209  36.115  12.840   7.055
11031POPC   C4A69210  36.100  12.819   7.355
11031POPC   C1B69211  36.226  12.599   6.455
11031POPC   C2B69212  36.213  12.570   6.755
11031POPC   C3B69213  36.241  12.609   7.055
11031POPC   C4B69214  36.189  12.615   7.355
11032POPC   NC369215  13.629   5.887   5.555
11032POPC   PO469216  13.615   5.846   5.855
11032POPC   GL169217  13.600   5.825   6.155
11032POPC   GL269218  13.625   6.028   6.155
11032POPC   C1A69219  13.578   5.903   6.455
11032POPC   D2A69220  13.582   5.887   6.755
11032POPC   C3A69221  13.625   5.874   7.055
11032POPC   C4A69222  13.656   5.911   7.355
11032POPC   C1B69223  13.546   6.064   6.455
11032POPC   C2B69224  13.584   6.070   6.755
11032POPC   C3B69225  13.581   6.120   7.055
11032POPC   C4B69226  13.560   6.118   7.355
11033POPC   NC369227  41.571  32.997   5.555
11033POPC   PO469228  41.527  33.071   5.855
11033POPC   GL169229  41.534  32.994   6.155
11033POPC   GL269230  41.479  32.926   6.155
11033POPC   C1A69231  41.604  33.006   6.455
11033POPC   D2A69232  41.581  33.028   6.755
11033POPC   C3A69233  41.515  33.034   7.055
11033POPC   C4A69234  41.590  33.038   7.355
11033POPC   C1B69235  41.373  32.839   6.455
11033POPC   C2B69236  41.350  32.891   6.755
11033POPC   C3B69237  41.381  32.848   7.055
11033POPC   C4B69238  41.363  32.840   7.355
11034POPC   NC369239  33.803  25.268   5.555
11034POPC   PO469240  33.830  25.229   5.855
11034POPC   GL169241  33.806  25.245   6.155
11034POPC   GL269242  33.757  25.376   6.155
11034POPC   C1A69243  33.804  25.226   6.455
11034POPC   D2A69244  33.752  25.289   6.755
11034POPC   C3A69245  33.759  25.231   7.055
11034POPC   C4A69246  33.782  25.300   7.355
11034POPC   C1B69247  33.638  25.488   6.455
11034POPC   C2B69248  33.587  25.470   6.755
11034POPC   C3B69249  33.650  25.432   7.055
11034POPC   C4B69250  33.651  25.408   7.355
11035POPC   NC369251  44.660  13.631   5.555
11035POPC   PO469252  44.677  13.598   5.855
11035POPC   GL169253  44.624  13.582   6.155
11035POPC   GL269254  44.786  13.569   6.155
11035POPC   C1A69255  44.648  13.596   6.455
11035POPC   D2A69256  44.666  13.595   6.755
11035POPC   C3A69257  44.704  13.606   7.055
11035POPC   C4A69258  44.616  13.648   7.355
11035POPC   C1B69259  44.893  13.502   6.455
11035POPC   C2B69260  44.869  13.503   6.755
11035POPC   C3B69261  44.845  13.483   7.055
11035POPC   C4B69262  44.890  13.477   7.355
11036POPC   NC369263  15.990  17.476   5.555
11036POPC   PO469264  15.932  17.539   5.855
11036POPC   GL169265  15.974  17.472   6.155
11036POPC   GL269266  16.079  17.468   6.155
11036POPC   C1A69267  15.909  17.458   6.455
11036POPC   D2A69268  15.909  17.515   6.755
11036POPC   C3A69269  15.947  17.500   7.055
11036POPC   C4A69270  15.991  17.514   7.355
11036POPC   C1B69271  16.211  17.406   6.455
11036POPC   C2B69272  16.167  17.429   6.755
11036POPC   C3B69273  16.187  17.366   7.055
11036POPC   C4B69274  16.179  17.412   7.355
11037POPC   NC369275   7.449  43.905   5.555
11037POPC   PO469276   7.447  43.890   5.855
11037POPC   GL169277   7.386  43.921   6.155
11037POPC   GL269278   7.299  43.917   6.155
11037POPC   C1A69279   7.374  43.920   6.455
11037POPC   D2A69280   7.375  43.903   6.755
11037POPC   C3A69281   7.403  43.925   7.055
11037POPC   C4A69282   7.467  43.864   7.355
11037POPC   C1B69283   7.192  43.901   6.455
11037POPC   C2B69284   7.130  43.938   6.755
11037POPC   C3B69285   7.166  43.849   7.055
11037POPC   C4B69286   7.171  43.875   7.355
11038POPC   NC369287  10.544  21.405   5.555
11038POPC   PO469288  10.542  21.368   5.855
11038POPC   GL169289  10.549  21.365   6.155
11038POPC   GL269290  10.640  21.396   6.155
11038POPC   C1A69291  10.535  21.382   6.455
11038POPC   D2A69292  10.565  21.413   6.755
11038POPC   C3A69293  10.515  21.337   7.055
11038POPC   C4A69294  10.530  21.402   7.355
11038POPC   C1B69295  10.725  21.416   6.455
11038POPC   C2B69296  10.784  21.511   6.755
11038POPC   C3B69297  10.788  21.443   7.055
11038POPC   C4B69298  10.781  21.502   7.355
11039POPC   NC369299  12.886  26.058   5.555
11039POPC   PO469300  12.870  26.014   5.855
11039POPC   GL169301  12.817  26.056   6.155
11039POPC   GL269302  12.761  26.111   6.155
11039POPC   C1A69303  12.887  26.088   6.455
11039POPC   D2A69304  12.835  26.028   6.755
11039POPC   C3A69305  12.808  26.009   7.055
11039POPC   C4A69306  12.874  26.018   7.355
11039POPC   C1B69307  12.702  26.224   6.455
11039POPC   C2B69308  12.730  26.233   6.755
11039POPC   C3B69309  12.684  26.223   7.055
11039POPC   C4B69310  12.738  26.279   7.355
11040POPC   NC369311   2.735  28.370   5.555
11040POPC   PO469312   2.811  28.415   5.855
11040POPC   GL169313   2.720  28.354   6.155
11040POPC   GL269314   2.707  28.442   6.155
11040POPC   C1A69315   2.796  28.346   6.455
11040POPC   D2A69316   2.744  28.380   6.755
11040POPC   C3A69317   2.722  28.324   7.055
11040POPC   C4A69318   2.779  28.401   7.355
11040POPC   C1B69319   2.579  28.510   6.455
11040POPC   C2B69320   2.586  28.525   6.755
11040POPC   C3B69321   2.611  28.548   7.055
11040POPC   C4B69322   2.555  28.524   7.355
11041POPC   NC369323  42.342  20.636   5.555
11041POPC   PO469324  42.350  20.590   5.855
11041POPC   GL169325  42.320  20.637   6.155
11041POPC   GL269326  42.215  20.692   6.155
11041POPC   C1A69327  42.315  20.627   6.455
11041POPC   D2A69328  42.340  20.572   6.755
11041POPC   C3A69329  42.323  20.618   7.055
11041POPC   C4A69330  42.287  20.610   7.355
11041POPC   C1B69331  42.090  20.782   6.455
11041POPC   C2B69332  42.170  20.770   6.755
11041POPC   C3B69333  42.147  20.717   7.055
11041POPC   C4B69334  42.092  20.800   7.355
11042POPC   NC369335   7.396  15.909   5.555
11042POPC   PO469336   7.372  15.939   5.855
11042POPC   GL169337   7.460  15.968   6.155
11042POPC   GL269338   7.396  15.834   6.155
11042POPC   C1A69339   7.377  15.985   6.455
11042POPC   D2A69340   7.387  15.926   6.755
11042POPC   C3A69341   7.463  15.926   7.055
11042POPC   C4A69342   7.458  15.963   7.355
11042POPC   C1B69343   7.483  15.687   6.455
11042POPC   C2B69344   7.508  15.742   6.755
11042POPC   C3B69345   7.444  15.666   7.055
11042POPC   C4B69346   7.415  15.678   7.355
11043POPC   NC369347  37.697  22.985   5.555
11043POPC   PO469348  37.647  22.948   5.855
11043POPC   GL169349  37.697  22.898   6.155
11043POPC   GL269350  37.691  23.036   6.155
11043POPC   C1A69351  37.726  22.970   6.455
11043POPC   D2A69352  37.671  22.888   6.755
11043POPC   C3A69353  37.705  22.911   7.055
11043POPC   C4A69354  37.644  22.969   7.355
11043POPC   C1B69355  37.726  23.147   6.455
11043POPC   C2B69356  37.754  23.139   6.755
11043POPC   C3B69357  37.784  23.205   7.055
11043POPC   C4B69358  37.738  23.151   7.355
11044POPC   NC369359  25.310  28.328   5.555
11044POPC   PO469360  25.221  28.338   5.855
11044POPC   GL169361  25.262  28.350   6.155
11044POPC   GL269362  25.402  28.373   6.155
11044POPC   C1A69363  25.240  28.362   6.455
11044POPC   D2A69364  25.237  28.338   6.755
11044POPC   C3A69365  25.277  28.323   7.055
11044POPC   C4A69366  25.253  28.359   7.355
11044POPC   C1B69367  25.465  28.424   6.455
11044POPC   C2B69368  25.520  28.432   6.755
11044POPC   C3B69369  25.524  28.437   7.055
11044POPC   C4B69370  25.498  28.439   7.355
11045POPC   NC369371  31.434  43.095   5.555
11045POPC   PO469372  31.499  43.122   5.855
11045POPC   GL169373  31.458  43.122   6.155
11045POPC   GL269374  31.545  43.018   6.155
11045POPC   C1A69375  31.500  43.108   6.455
11045POPC   D2A69376  31.453  43.116   6.755
11045POPC   C3A69377  31.483  43.120   7.055
11045POPC   C4A69378  31.456  43.143   7.355
11045POPC   C1B69379  31.680  42.917   6.455
11045POPC   C2B69380  31.650  42.925   6.755
11045POPC   C3B69381  31.646  42.982   7.055
11045POPC   C4B69382  31.663  42.887   7.355
11046POPC   NC369383   8.174  39.237   5.555
11046POPC   PO469384   8.175  39.198   5.855
11046POPC   GL169385   8.215  39.269   6.155
11046POPC   GL269386   8.131  39.153   6.155
11046POPC   C1A69387   8.165  39.257   6.455
11046POPC   D2A69388   8.213  39.231   6.755
11046POPC   C3A69389   8.206  39.184   7.055
11046POPC   C4A69390   8.197  39.212   7.355
11046POPC   C1B69391   8.115  38.955   6.455
11046POPC   C2B69392   8.189  38.988   6.755
11046POPC   C3B69393   8.189  38.964   7.055
11046POPC   C4B69394   8.156  38.987   7.355
11047POPC   NC369395   0.433   9.000   5.555
11047POPC   PO469396   0.478   8.995   5.855
11047POPC   GL169397   0.465   9.012   6.155
11047POPC   GL269398   0.496   9.057   6.155
11047POPC   C1A69399   0.392   8.993   6.455
11047POPC   D2A69400   0.452   8.923   6.755
11047POPC   C3A69401   0.446   8.939   7.055
11047POPC   C4A69402   0.465   8.987   7.355
11047POPC   C1B69403   0.662   9.084   6.455
11047POPC   C2B69404   0.650   9.100   6.755
11047POPC   C3B69405   0.629   9.120   7.055
11047POPC   C4B69406   0.620   9.130   7.355
11048POPC   NC369407  26.771   7.394   5.555
11048POPC   PO469408  26.790   7.435   5.855
11048POPC   GL169409  26.783   7.463   6.155
11048POPC   GL269410  26.718   7.435   6.155
11048POPC   C1A69411  26.841   7.403   6.455
11048POPC   D2A69412  26.775   7.456   6.755
11048POPC   C3A69413  26.795   7.458   7.055
11048POPC   C4A69414  26.780   7.421   7.355
11048POPC   C1B69415  26.600   7.463   6.455
11048POPC   C2B69416  26.543   7.467   6.755
11048POPC   C3B69417  26.611   7.477   7.055
11048POPC   C4B69418  26.595   7.528   7.355
11049POPC   NC369419   9.714  24.539   5.555
11049POPC   PO469420   9.760  24.486   5.855
11049POPC   GL169421   9.701  24.480   6.155
11049POPC   GL269422   9.658  24.655   6.155
11049POPC   C1A69423   9.722  24.471   6.455
11049POPC   D2A69424   9.782  24.522   6.755
11049POPC   C3A69425   9.713  24.477   7.055
11049POPC   C4A69426   9.701  24.532   7.355
11049POPC   C1B69427   9.643  24.725   6.455
11049POPC   C2B69428   9.684  24.761   6.755
11049POPC   C3B69429   9.652  24.753   7.055
11049POPC   C4B69430   9.648  24.684   7.355
11050POPC   NC369431  12.087  34.560   5.555
11050POPC   PO469432  12.061  34.546   5.855
11050POPC   GL169433  12.070  34.592   6.155
11050POPC   GL269434  12.011  34.627   6.155
11050POPC   C1A69435  12.079  34.626   6.455
11050POPC   D2A69436  12.061  34.620   6.755
11050POPC   C3A69437  12.116  34.552   7.055
11050POPC   C4A69438  12.086  34.536   7.355
11050POPC   C1B69439  11.882  34.677   6.455
11050POPC   C2B69440  11.873  34.679   6.755
11050POPC   C3B69441  11.867  34.760   7.055
11050POPC   C4B69442  11.843  34.718   7.355
11051POPC   NC369443  26.012   0.467   5.555
11051POPC   PO469444  26.077   0.447   5.855
11051POPC   GL169445  26.018   0.484   6.155
11051POPC   GL269446  25.981   0.490   6.155
11051POPC   C1A69447  26.041   0.407   6.455
11051POPC   D2A69448  26.065   0.482   6.755
11051POPC   C3A69449  26.013   0.472   7.055
11051POPC   C4A69450  26.031   0.412   7.355
11051POPC   C1B69451  25.856   0.546   6.455
11051POPC   C2B69452  25.781   0.594   6.755
11051POPC   C3B69453  25.814   0.591   7.055
11051POPC   C4B69454  25.787   0.547   7.355
11052POPC   NC369455  10.524   0.454   5.555
11052POPC   PO469456  10.568   0.481   5.855
11052POPC   GL169457  10.528   0.413   6.155
11052POPC   GL269458  10.653   0.503   6.155
11052POPC   C1A69459  10.520   0.425   6.455
11052POPC   D2A69460  10.529   0.394   6.755
11052POPC   C3A69461  10.550   0.474   7.055
11052POPC   C4A69462  10.504   0.396   7.355
11052POPC   C1B69463  10.777   0.522   6.455
11052POPC   C2B69464  10.747   0.541   6.755
11052POPC   C3B69465  10.754   0.475   7.055
11052POPC   C4B69466  10.771   0.480   7.355
11053POPC   NC369467  32.294  13.618   5.555
11053POPC   PO469468  32.221  13.609   5.855
11053POPC   GL169469  32.218  13.617   6.155
11053POPC   GL269470  32.339  13.634   6.155
11053POPC   C1A69471  32.255  13.635   6.455
11053POPC   D2A69472  32.235  13.616   6.755
11053POPC   C3A69473  32.293  13.610   7.055
11053POPC   C4A69474  32.209  13.579   7.355
11053POPC   C1B69475  32.528  13.693   6.455
11053POPC   C2B69476  32.490  13.725   6.755
11053POPC   C3B69477  32.488  13.656   7.055
11053POPC   C4B69478  32.505  13.696   7.355
11054POPC   NC369479  29.871  33.759   5.555
11054POPC   PO469480  29.943  33.793   5.855
11054POPC   GL169481  29.951  33.841   6.155
11054POPC   GL269482  29.830  33.866   6.155
11054POPC   C1A69483  29.917  33.787   6.455
11054POPC   D2A69484  29.935  33.781   6.755
11054POPC   C3A69485  29.969  33.770   7.055
11054POPC   C4A69486  29.900  33.793   7.355
11054POPC   C1B69487  29.722  34.043   6.455
11054POPC   C2B69488  29.737  33.952   6.755
11054POPC   C3B69489  29.716  34.011   7.055
11054POPC   C4B69490  29.742  34.025   7.355
11055POPC   NC369491  44.678  43.143   5.555
11055POPC   PO469492  44.649  43.071   5.855
11055POPC   GL169493  44.682  43.100   6.155
11055POPC   GL269494  44.719  43.233   6.155
11055POPC   C1A69495  44.623  43.086   6.455
11055POPC   D2A69496  44.643  43.101   6.755
11055POPC   C3A69497  44.708  43.061   7.055
11055POPC   C4A69498  44.690  43.061   7.355
11055POPC   C1B69499  44.797  43.264   6.455
11055POPC   C2B69500  44.862  43.345   6.755
11055POPC   C3B69501  44.821  43.319   7.055
11055POPC   C4B69502  44.784  43.339   7.355
11056POPC   NC369503  25.242  31.425   5.555
11056POPC   PO469504  25.221  31.472   5.855
11056POPC   GL169505  25.220  31.426   6.155
11056POPC   GL269506  25.147  31.505   6.155
11056POPC   C1A69507  25.263  31.514   6.455
11056POPC   D2A69508  25.258  31.428   6.755
11056POPC   C3A69509  25.231  31.510   7.055
11056POPC   C4A69510  25.219  31.522   7.355
11056POPC   C1B69511  25.122  31.613   6.455
11056POPC   C2B69512  25.065  31.592   6.755
11056POPC   C3B69513  25.082  31.656   7.055
11056POPC   C4B69514  25.087  31.670   7.355
11057POPC   NC369515  15.150   1.945   5.555
11057POPC   PO469516  15.147   2.024   5.855
11057POPC   GL169517  15.209   1.982   6.155
11057POPC   GL269518  15.045   2.061   6.155
11057POPC   C1A69519  15.217   2.009   6.455
11057POPC   D2A69520  15.197   1.983   6.755
11057POPC   C3A69521  15.185   1.960   7.055
11057POPC   C4A69522  15.146   2.019   7.355
11057POPC   C1B69523  15.039   2.173   6.455
11057POPC   C2B69524  14.971   2.144   6.755
11057POPC   C3B69525  14.940   2.105   7.055
11057POPC   C4B69526  15.001   2.131   7.355
11058POPC   NC369527  43.103   7.434   5.555
11058POPC   PO469528  43.158   7.403   5.855
11058POPC   GL169529  43.091   7.466   6.155
11058POPC   GL269530  43.201   7.443   6.155
11058POPC   C1A69531  43.130   7.401   6.455
11058POPC   D2A69532  43.087   7.374   6.755
11058POPC   C3A69533  43.078   7.445   7.055
11058POPC   C4A69534  43.065   7.393   7.355
11058POPC   C1B69535  43.336   7.511   6.455
11058POPC   C2B69536  43.392   7.510   6.755
11058POPC   C3B69537  43.403   7.462   7.055
11058POPC   C4B69538  43.362   7.477   7.355
11059POPC   NC369539  31.441  28.348   5.555
11059POPC   PO469540  31.435  28.361   5.855
11059POPC   GL169541  31.449  28.350   6.155
11059POPC   GL269542  31.487  28.279   6.155
11059POPC   C1A69543  31.510  28.323   6.455
11059POPC   D2A69544  31.515  28.367   6.755
11059POPC   C3A69545  31.456  28.356   7.055
11059POPC   C4A69546  31.495  28.415   7.355
11059POPC   C1B69547  31.501  28.095   6.455
11059POPC   C2B69548  31.499  28.122   6.755
11059POPC   C3B69549  31.538  28.168   7.055
11059POPC   C4B69550  31.466  28.151   7.355
11060POPC   NC369551  18.254   1.253   5.555
11060POPC   PO469552  18.319   1.260   5.855
11060POPC   GL169553  18.282   1.219   6.155
11060POPC   GL269554  18.368   1.191   6.155
11060POPC   C1A69555  18.299   1.237   6.455
11060POPC   D2A69556  18.332   1.190   6.755
11060POPC   C3A69557  18.254   1.164   7.055
11060POPC   C4A69558  18.296   1.204   7.355
11060POPC   C1B69559  18.544   1.215   6.455
11060POPC   C2B69560  18.526   1.183   6.755
11060POPC   C3B69561  18.486   1.201   7.055
11060POPC   C4B69562  18.561   1.163   7.355
11061POPC   NC369563   3.538  40.787   5.555
11061POPC   PO469564   3.525  40.751   5.855
11061POPC   GL169565   3.491  40.757   6.155
11061POPC   GL269566   3.472  40.682   6.155
11061POPC   C1A69567   3.534  40.760   6.455
11061POPC   D2A69568   3.547  40.773   6.755
11061POPC   C3A69569   3.499  40.750   7.055
11061POPC   C4A69570   3.508  40.822   7.355
11061POPC   C1B69571   3.362  40.627   6.455
11061POPC   C2B69572   3.325  40.602   6.755
11061POPC   C3B69573   3.377  40.595   7.055
11061POPC   C4B69574   3.355  40.574   7.355
11062POPC   NC369575   3.504  26.839   5.555
11062POPC   PO469576   3.548  26.857   5.855
11062POPC   GL169577   3.583  26.805   6.155
11062POPC   GL269578   3.615  26.763   6.155
11062POPC   C1A69579   3.532  26.833   6.455
11062POPC   D2A69580   3.548  26.864   6.755
11062POPC   C3A69581   3.590  26.775   7.055
11062POPC   C4A69582   3.578  26.804   7.355
11062POPC   C1B69583   3.732  26.657   6.455
11062POPC   C2B69584   3.701  26.625   6.755
11062POPC   C3B69585   3.714  26.659   7.055
11062POPC   C4B69586   3.760  26.695   7.355
11063POPC   NC369587  40.050  40.009   5.555
11063POPC   PO469588  40.025  40.025   5.855
11063POPC   GL169589  40.026  40.028   6.155
11063POPC   GL269590  39.918  39.937   6.155
11063POPC   C1A69591  40.009  40.007   6.455
11063POPC   D2A69592  40.041  39.995   6.755
11063POPC   C3A69593  40.037  39.961   7.055
11063POPC   C4A69594  40.034  40.054   7.355
11063POPC   C1B69595  39.739  39.932   6.455
11063POPC   C2B69596  39.758  39.900   6.755
11063POPC   C3B69597  39.741  39.885   7.055
11063POPC   C4B69598  39.727  39.971   7.355
11064POPC   NC369599  14.439  24.513   5.555
11064POPC   PO469600  14.391  24.513   5.855
11064POPC   GL169601  14.414  24.489   6.155
11064POPC   GL269602  14.497  24.439   6.155
11064POPC   C1A69603  14.356  24.479   6.455
11064POPC   D2A69604  14.360  24.535   6.755
11064POPC   C3A69605  14.385  24.515   7.055
11064POPC   C4A69606  14.437  24.513   7.355
11064POPC   C1B69607  14.538  24.295   6.455
11064POPC   C2B69608  14.544  24.315   6.755
11064POPC   C3B69609  14.533  24.333   7.055
11064POPC   C4B69610  14.581  24.280   7.355
11065POPC   NC369611  43.086  15.162   5.555
11065POPC   PO469612  43.144  15.224   5.855
11065POPC   GL169613  43.152  15.220   6.155
11065POPC   GL269614  43.249  15.183   6.155
11065POPC   C1A69615  43.123  15.185   6.455
11065POPC   D2A69616  43.092  15.181   6.755
11065POPC   C3A69617  43.122  15.135   7.055
11065POPC   C4A69618  43.070  15.200   7.355
11065POPC   C1B69619  43.319  15.097   6.455
11065POPC   C2B69620  43.398  15.150   6.755
11065POPC   C3B69621  43.367  15.142   7.055
11065POPC   C4B69622  43.350  15.074   7.355
11066POPC   NC369623  26.863   2.002   5.555
11066POPC   PO469624  26.779   1.983   5.855
11066POPC   GL169625  26.861   2.012   6.155
11066POPC   GL269626  26.789   1.862   6.155
11066POPC   C1A69627  26.865   1.940   6.455
11066POPC   D2A69628  26.831   1.958   6.755
11066POPC   C3A69629  26.786   1.946   7.055
11066POPC   C4A69630  26.797   2.025   7.355
11066POPC   C1B69631  26.778   1.746   6.455
11066POPC   C2B69632  26.792   1.718   6.755
11066POPC   C3B69633  26.741   1.767   7.055
11066POPC   C4B69634  26.750   1.790   7.355
11067POPC   NC369635  20.565  13.660   5.555
11067POPC   PO469636  20.638  13.581   5.855
11067POPC   GL169637  20.597  13.590   6.155
11067POPC   GL269638  20.584  13.551   6.155
11067POPC   C1A69639  20.659  13.594   6.455
11067POPC   D2A69640  20.660  13.603   6.755
11067POPC   C3A69641  20.642  13.666   7.055
11067POPC   C4A69642  20.640  13.665   7.355
11067POPC   C1B69643  20.590  13.341   6.455
11067POPC   C2B69644  20.653  13.360   6.755
11067POPC   C3B69645  20.571  13.372   7.055
11067POPC   C4B69646  20.650  13.336   7.355
11068POPC   NC369647  36.946   8.992   5.555
11068POPC   PO469648  36.903   8.998   5.855
11068POPC   GL169649  36.885   9.018   6.155
11068POPC   GL269650  36.986   8.976   6.155
11068POPC   C1A69651  36.896   8.938   6.455
11068POPC   D2A69652  36.902   8.990   6.755
11068POPC   C3A69653  36.919   8.929   7.055
11068POPC   C4A69654  36.855   9.011   7.355
11068POPC   C1B69655  37.108   9.052   6.455
11068POPC   C2B69656  37.153   9.071   6.755
11068POPC   C3B69657  37.183   9.086   7.055
11068POPC   C4B69658  37.099   9.073   7.355
11069POPC   NC369659  28.369  42.365   5.555
11069POPC   PO469660  28.372  42.340   5.855
11069POPC   GL169661  28.399  42.372   6.155
11069POPC   GL269662  28.308  42.450   6.155
11069POPC   C1A69663  28.381  42.353   6.455
11069POPC   D2A69664  28.416  42.307   6.755
11069POPC   C3A69665  28.419  42.370   7.055
11069POPC   C4A69666  28.392  42.335   7.355
11069POPC   C1B69667  28.303  42.555   6.455
11069POPC   C2B69668  28.316  42.588   6.755
11069POPC   C3B69669  28.339  42.573   7.055
11069POPC   C4B69670  28.276  42.551   7.355
11070POPC   NC369671  12.870   7.379   5.555
11070POPC   PO469672  12.870   7.400   5.855
11070POPC   GL169673  12.838   7.438   6.155
11070POPC   GL269674  12.729   7.311   6.155
11070POPC   C1A69675  12.826   7.454   6.455
11070POPC   D2A69676  12.857   7.383   6.755
11070POPC   C3A69677  12.859   7.469   7.055
11070POPC   C4A69678  12.888   7.391   7.355
11070POPC   C1B69679  12.616   7.258   6.455
11070POPC   C2B69680  12.676   7.254   6.755
11070POPC   C3B69681  12.598   7.292   7.055
11070POPC   C4B69682  12.648   7.262   7.355
11071POPC   NC369683  38.451  18.238   5.555
11071POPC   PO469684  38.440  18.271   5.855
11071POPC   GL169685  38.486  18.295   6.155
11071POPC   GL269686  38.508  18.164   6.155
11071POPC   C1A69687  38.485  18.242   6.455
11071POPC   D2A69688  38.498  18.329   6.755
11071POPC   C3A69689  38.477  18.307   7.055
11071POPC   C4A69690  38.502  18.245   7.355
11071POPC   C1B69691  38.596  18.049   6.455
11071POPC   C2B69692  38.553  18.039   6.755
11071POPC   C3B69693  38.584  18.063   7.055
11071POPC   C4B69694  38.548  18.088   7.355
11072POPC   NC369695  32.978   3.493   5.555
11072POPC   PO469696  32.989   3.517   5.855
11072POPC   GL169697  33.045   3.580   6.155
11072POPC   GL269698  32.880   3.567   6.155
11072POPC   C1A69699  33.048   3.557   6.455
11072POPC   D2A69700  33.055   3.561   6.755
11072POPC   C3A69701  33.029   3.555   7.055
11072POPC   C4A69702  32.989   3.562   7.355
11072POPC   C1B69703  32.802   3.526   6.455
11072POPC   C2B69704  32.792   3.559   6.755
11072POPC   C3B69705  32.755   3.592   7.055
11072POPC   C4B69706  32.760   3.565   7.355
11073POPC   NC369707  11.337  10.544   5.555
11073POPC   PO469708  11.328  10.567   5.855
11073POPC   GL169709  11.277  10.495   6.155
11073POPC   GL269710  11.203  10.505   6.155
11073POPC   C1A69711  11.338  10.485   6.455
11073POPC   D2A69712  11.254  10.573   6.755
11073POPC   C3A69713  11.275  10.529   7.055
11073POPC   C4A69714  11.321  10.502   7.355
11073POPC   C1B69715  11.098  10.524   6.455
11073POPC   C2B69716  11.014  10.582   6.755
11073POPC   C3B69717  11.041  10.578   7.055
11073POPC   C4B69718  11.096  10.543   7.355
11074POPC   NC369719   1.240  31.433   5.555
11074POPC   PO469720   1.238  31.478   5.855
11074POPC   GL169721   1.187  31.473   6.155
11074POPC   GL269722   1.168  31.587   6.155
11074POPC   C1A69723   1.200  31.490   6.455
11074POPC   D2A69724   1.194  31.423   6.755
11074POPC   C3A69725   1.177  31.518   7.055
11074POPC   C4A69726   1.190  31.507   7.355
11074POPC   C1B69727   1.051  31.645   6.455
11074POPC   C2B69728   1.020  31.642   6.755
11074POPC   C3B69729   1.014  31.685   7.055
11074POPC   C4B69730   1.052  31.651   7.355
11075POPC   NC369731  40.776  20.634   5.555
11075POPC   PO469732  40.771  20.564   5.855
11075POPC   GL169733  40.787  20.625   6.155
11075POPC   GL269734  40.689  20.673   6.155
11075POPC   C1A69735  40.791  20.646   6.455
11075POPC   D2A69736  40.807  20.655   6.755
11075POPC   C3A69737  40.763  20.616   7.055
11075POPC   C4A69738  40.830  20.591   7.355
11075POPC   C1B69739  40.503  20.663   6.455
11075POPC   C2B69740  40.538  20.724   6.755
11075POPC   C3B69741  40.591  20.653   7.055
11075POPC   C4B69742  40.591  20.703   7.355
11076POPC   NC369743  12.865  26.846   5.555
11076POPC   PO469744  12.831  26.863   5.855
11076POPC   GL169745  12.815  26.779   6.155
11076POPC   GL269746  12.737  26.801   6.155
11076POPC   C1A69747  12.876  26.823   6.455
11076POPC   D2A69748  12.858  26.832   6.755
11076POPC   C3A69749  12.825  26.863   7.055
11076POPC   C4A69750  12.842  26.818   7.355
11076POPC   C1B69751  12.557  26.783   6.455
11076POPC   C2B69752  12.634  26.843   6.755
11076POPC   C3B69753  12.610  26.769   7.055
11076POPC   C4B69754  12.603  26.805   7.355
11077POPC   NC369755  14.389  11.326   5.555
11077POPC   PO469756  14.421  11.319   5.855
11077POPC   GL169757  14.412  11.264   6.155
11077POPC   GL269758  14.268  11.344   6.155
11077POPC   C1A69759  14.415  11.343   6.455
11077POPC   D2A69760  14.401  11.324   6.755
11077POPC   C3A69761  14.370  11.251   7.055
11077POPC   C4A69762  14.436  11.345   7.355
11077POPC   C1B69763  14.151  11.464   6.455
11077POPC   C2B69764  14.190  11.388   6.755
11077POPC   C3B69765  14.198  11.391   7.055
11077POPC   C4B69766  14.162  11.443   7.355
11078POPC   NC369767  44.651  17.493   5.555
11078POPC   PO469768  44.621  17.486   5.855
11078POPC   GL169769  44.674  17.505   6.155
11078POPC   GL269770  44.508  17.513   6.155
11078POPC   C1A69771  44.667  17.510   6.455
11078POPC   D2A69772  44.616  17.478   6.755
11078POPC   C3A69773  44.652  17.459   7.055
11078POPC   C4A69774  44.665  17.496   7.355
11078POPC   C1B69775  44.424  17.495   6.455
11078POPC   C2B69776  44.369  17.524   6.755
11078POPC   C3B69777  44.393  17.570   7.055
11078POPC   C4B69778  44.438  17.554   7.355
11079POPC   NC369779   3.517  35.318   5.555
11079POPC   PO469780   3.555  35.354   5.855
11079POPC   GL169781   3.582  35.364   6.155
11079POPC   GL269782   3.658  35.246   6.155
11079POPC   C1A69783   3.545  35.324   6.455
11079POPC   D2A69784   3.536  35.369   6.755
11079POPC   C3A69785   3.589  35.333   7.055
11079POPC   C4A69786   3.558  35.348   7.355
11079POPC   C1B69787   3.695  35.153   6.455
11079POPC   C2B69788   3.745  35.215   6.755
11079POPC   C3B69789   3.689  35.144   7.055
11079POPC   C4B69790   3.736  35.163   7.355
11080POPC   NC369791  15.968  22.935   5.555
11080POPC   PO469792  15.950  22.928   5.855
11080POPC   GL169793  15.917  22.933   6.155
11080POPC   GL269794  15.950  23.020   6.155
11080POPC   C1A69795  15.957  22.943   6.455
11080POPC   D2A69796  15.960  22.968   6.755
11080POPC   C3A69797  15.946  22.969   7.055
11080POPC   C4A69798  15.918  22.894   7.355
11080POPC   C1B69799  15.806  23.127   6.455
11080POPC   C2B69800  15.848  23.154   6.755
11080POPC   C3B69801  15.814  23.208   7.055
11080POPC   C4B69802  15.810  23.142   7.355
11081POPC   NC369803  43.879  29.960   5.555
11081POPC   PO469804  43.935  29.955   5.855
11081POPC   GL169805  43.895  29.926   6.155
11081POPC   GL269806  43.764  30.025   6.155
11081POPC   C1A69807  43.898  29.899   6.455
11081POPC   D2A69808  43.935  29.892   6.755
11081POPC   C3A69809  43.888  29.879   7.055
11081POPC   C4A69810  43.933  29.935   7.355
11081POPC   C1B69811  43.617  30.058   6.455
11081POPC   C2B69812  43.638  30.009   6.755
11081POPC   C3B69813  43.651  30.001   7.055
11081POPC   C4B69814  43.656  30.041   7.355
11082POPC   NC369815  20.593  12.033   5.555
11082POPC   PO469816  20.644  12.121   5.855
11082POPC   GL169817  20.571  12.126   6.155
11082POPC   GL269818  20.505  12.044   6.155
11082POPC   C1A69819  20.568  12.121   6.455
11082POPC   D2A69820  20.565  12.033   6.755
11082POPC   C3A69821  20.637  12.105   7.055
11082POPC   C4A69822  20.575  12.037   7.355
11082POPC   C1B69823  20.329  11.998   6.455
11082POPC   C2B69824  20.318  12.052   6.755
11082POPC   C3B69825  20.380  12.032   7.055
11082POPC   C4B69826  20.382  12.029   7.355
11083POPC   NC369827  29.951  16.681   5.555
11083POPC   PO469828  29.872  16.730   5.855
11083POPC   GL169829  29.899  16.711   6.155
11083POPC   GL269830  29.944  16.613   6.155
11083POPC   C1A69831  29.910  16.724   6.455
11083POPC   D2A69832  29.968  16.723   6.755
11083POPC   C3A69833  29.891  16.689   7.055
11083POPC   C4A69834  29.955  16.773   7.355
11083POPC   C1B69835  29.838  16.514   6.455
11083POPC   C2B69836  29.842  16.457   6.755
11083POPC   C3B69837  29.866  16.504   7.055
11083POPC   C4B69838  29.864  16.504   7.355
11084POPC   NC369839  16.003  32.205   5.555
11084POPC   PO469840  15.956  32.250   5.855
11084POPC   GL169841  15.958  32.227   6.155
11084POPC   GL269842  15.998  32.351   6.155
11084POPC   C1A69843  15.910  32.266   6.455
11084POPC   D2A69844  15.938  32.205   6.755
11084POPC   C3A69845  15.906  32.226   7.055
11084POPC   C4A69846  15.937  32.211   7.355
11084POPC   C1B69847  16.055  32.412   6.455
11084POPC   C2B69848  16.136  32.408   6.755
11084POPC   C3B69849  16.088  32.423   7.055
11084POPC   C4B69850  16.126  32.458   7.355
11085POPC   NC369851  39.985  31.512   5.555
11085POPC   PO469852  40.052  31.504   5.855
11085POPC   GL169853  40.031  31.498   6.155
11085POPC   GL269854  40.080  31.606   6.155
11085POPC   C1A69855  40.037  31.473   6.455
11085POPC   D2A69856  40.025  31.450   6.755
11085POPC   C3A69857  40.002  31.443   7.055
11085POPC   C4A69858  39.968  31.427   7.355
11085POPC   C1B69859  40.102  31.689   6.455
11085POPC   C2B69860  40.096  31.761   6.755
11085POPC   C3B69861  40.015  31.676   7.055
11085POPC   C4B69862  40.019  31.670   7.355
11086POPC   NC369863  36.114  44.642   5.555
11086POPC   PO469864  36.121  44.706   5.855
11086POPC   GL169865  36.149  44.681   6.155
11086POPC   GL269866  35.999  44.733   6.155
11086POPC   C1A69867  36.121  44.642   6.455
11086POPC   D2A69868  36.106  44.686   6.755
11086POPC   C3A69869  36.120  44.694   7.055
11086POPC   C4A69870  36.122  44.647   7.355
11086POPC   C1B69871  35.899  44.802   6.455
11086POPC   C2B69872  35.956  44.766   6.755
11086POPC   C3B69873  35.927  44.790   7.055
11086POPC   C4B69874  35.961  44.860   7.355
11087POPC   NC369875   6.667   4.358   5.555
11087POPC   PO469876   6.643   4.299   5.855
11087POPC   GL169877   6.686   4.286   6.155
11087POPC   GL269878   6.795   4.264   6.155
11087POPC   C1A69879   6.690   4.323   6.455
11087POPC   D2A69880   6.690   4.323   6.755
11087POPC   C3A69881   6.613   4.366   7.055
11087POPC   C4A69882   6.599   4.274   7.355
11087POPC   C1B69883   6.847   4.230   6.455
11087POPC   C2B69884   6.921   4.207   6.755
11087POPC   C3B69885   6.855   4.177   7.055
11087POPC   C4B69886   6.841   4.234   7.355
11088POPC   NC369887  38.407  40.822   5.555
11088POPC   PO469888  38.455  40.832   5.855
11088POPC   GL169889  38.408  40.809   6.155
11088POPC   GL269890  38.371  40.817   6.155
11088POPC   C1A69891  38.496  40.762   6.455
11088POPC   D2A69892  38.479  40.780   6.755
11088POPC   C3A69893  38.437  40.760   7.055
11088POPC   C4A69894  38.441  40.793   7.355
11088POPC   C1B69895  38.262  40.904   6.455
11088POPC   C2B69896  38.275  40.897   6.755
11088POPC   C3B69897  38.184  40.904   7.055
11088POPC   C4B69898  38.189  40.859   7.355
11089POPC   NC369899   5.907  10.538   5.555
11089POPC   PO469900   5.907  10.498   5.855
11089POPC   GL169901   5.868  10.511   6.155
11089POPC   GL269902   5.946  10.608   6.155
11089POPC   C1A69903   5.890  10.515   6.455
11089POPC   D2A69904   5.842  10.532   6.755
11089POPC   C3A69905   5.882  10.540   7.055
11089POPC   C4A69906   5.874  10.475   7.355
11089POPC   C1B69907   5.958  10.714   6.455
11089POPC   C2B69908   5.940  10.774   6.755
11089POPC   C3B69909   5.958  10.715   7.055
11089POPC   C4B69910   5.936  10.754   7.355
11090POPC   NC369911  15.145  17.469   5.555
11090POPC   PO469912  15.196  17.537   5.855
11090POPC   GL169913  15.199  17.466   6.155
11090POPC   GL269914  15.247  17.602   6.155
11090POPC   C1A69915  15.182  17.539   6.455
11090POPC   D2A69916  15.163  17.541   6.755
11090POPC   C3A69917  15.191  17.470   7.055
11090POPC   C4A69918  15.144  17.536   7.355
11090POPC   C1B69919  15.345  17.705   6.455
11090POPC   C2B69920  15.367  17.677   6.755
11090POPC   C3B69921  15.292  17.716   7.055
11090POPC   C4B69922  15.344  17.692   7.355
11091POPC   NC369923  18.281  19.856   5.555
11091POPC   PO469924  18.300  19.881   5.855
11091POPC   GL169925  18.260  19.869   6.155
11091POPC   GL269926  18.404  19.843   6.155
11091POPC   C1A69927  18.234  19.878   6.455
11091POPC   D2A69928  18.285  19.827   6.755
11091POPC   C3A69929  18.266  19.834   7.055
11091POPC   C4A69930  18.252  19.837   7.355
11091POPC   C1B69931  18.522  19.844   6.455
11091POPC   C2B69932  18.534  19.866   6.755
11091POPC   C3B69933  18.499  19.817   7.055
11091POPC   C4B69934  18.543  19.791   7.355
11092POPC   NC369935  21.357  27.568   5.555
11092POPC   PO469936  21.374  27.614   5.855
11092POPC   GL169937  21.376  27.622   6.155
11092POPC   GL269938  21.314  27.700   6.155
11092POPC   C1A69939  21.429  27.582   6.455
11092POPC   D2A69940  21.425  27.575   6.755
11092POPC   C3A69941  21.397  27.619   7.055
11092POPC   C4A69942  21.353  27.607   7.355
11092POPC   C1B69943  21.176  27.768   6.455
11092POPC   C2B69944  21.179  27.734   6.755
11092POPC   C3B69945  21.175  27.746   7.055
11092POPC   C4B69946  21.242  27.820   7.355
11093POPC   NC369947  23.746   1.211   5.555
11093POPC   PO469948  23.667   1.198   5.855
11093POPC   GL169949  23.713   1.213   6.155
11093POPC   GL269950  23.558   1.232   6.155
11093POPC   C1A69951  23.729   1.199   6.455
11093POPC   D2A69952  23.727   1.192   6.755
11093POPC   C3A69953  23.735   1.240   7.055
11093POPC   C4A69954  23.717   1.187   7.355
11093POPC   C1B69955  23.424   1.165   6.455
11093POPC   C2B69956  23.436   1.237   6.755
11093POPC   C3B69957  23.499   1.165   7.055
11093POPC   C4B69958  23.447   1.230   7.355
11094POPC   NC369959  12.894  23.703   5.555
11094POPC   PO469960  12.846  23.676   5.855
11094POPC   GL169961  12.879  23.707   6.155
11094POPC   GL269962  12.745  23.646   6.155
11094POPC   C1A69963  12.843  23.685   6.455
11094POPC   D2A69964  12.890  23.685   6.755
11094POPC   C3A69965  12.843  23.666   7.055
11094POPC   C4A69966  12.849  23.736   7.355
11094POPC   C1B69967  12.675  23.625   6.455
11094POPC   C2B69968  12.612  23.625   6.755
11094POPC   C3B69969  12.597  23.558   7.055
11094POPC   C4B69970  12.596  23.605   7.355
11095POPC   NC369971  36.860   7.373   5.555
11095POPC   PO469972  36.874   7.440   5.855
11095POPC   GL169973  36.932   7.460   6.155
11095POPC   GL269974  37.003   7.415   6.155
11095POPC   C1A69975  36.854   7.457   6.455
11095POPC   D2A69976  36.920   7.404   6.755
11095POPC   C3A69977  36.879   7.438   7.055
11095POPC   C4A69978  36.947   7.443   7.355
11095POPC   C1B69979  37.178   7.438   6.455
11095POPC   C2B69980  37.145   7.389   6.755
11095POPC   C3B69981  37.116   7.442   7.055
11095POPC   C4B69982  37.127   7.400   7.355
11096POPC   NC369983   4.298  31.425   5.555
11096POPC   PO469984   4.324  31.495   5.855
11096POPC   GL169985   4.353  31.458   6.155
11096POPC   GL269986   4.287  31.395   6.155
11096POPC   C1A69987   4.318  31.515   6.455
11096POPC   D2A69988   4.292  31.493   6.755
11096POPC   C3A69989   4.334  31.423   7.055
11096POPC   C4A69990   4.307  31.500   7.355
11096POPC   C1B69991   4.205  31.275   6.455
11096POPC   C2B69992   4.218  31.206   6.755
11096POPC   C3B69993   4.247  31.238   7.055
11096POPC   C4B69994   4.227  31.259   7.355
11097POPC   NC369995  35.340   5.114   5.555
11097POPC   PO469996  35.309   5.131   5.855
11097POPC   GL169997  35.319   5.098   6.155
11097POPC   GL269998  35.372   5.005   6.155
11097POPC   C1A69999  35.347   5.137   6.455
11097POPC   D2A70000  35.308   5.096   6.755
11097POPC   C3A70001  35.332   5.091   7.055
11097POPC   C4A70002  35.329   5.134   7.355
11097POPC   C1B70003  35.427   4.898   6.455
11097POPC   C2B70004  35.413   4.829   6.755
11097POPC   C3B70005  35.478   4.901   7.055
11097POPC   C4B70006  35.487   4.892   7.355
11098POPC   NC370007  14.365  14.408   5.555
11098POPC   PO470008  14.427  14.413   5.855
11098POPC   GL170009  14.425  14.385   6.155
11098POPC   GL270010  14.317  14.344   6.155
11098POPC   C1A70011  14.395  14.356   6.455
11098POPC   D2A70012  14.364  14.399   6.755
11098POPC   C3A70013  14.432  14.416   7.055
11098POPC   C4A70014  14.399  14.400   7.355
11098POPC   C1B70015  14.175  14.277   6.455
11098POPC   C2B70016  14.207  14.309   6.755
11098POPC   C3B70017  14.145  14.231   7.055
11098POPC   C4B70018  14.198  14.309   7.355
11099POPC   NC370019  19.032  32.261   5.555
11099POPC   PO470020  19.024  32.264   5.855
11099POPC   GL170021  19.071  32.287   6.155
11099POPC   GL270022  19.011  32.367   6.155
11099POPC   C1A70023  19.020  32.243   6.455
11099POPC   D2A70024  19.082  32.278   6.755
11099POPC   C3A70025  19.056  32.217   7.055
11099POPC   C4A70026  19.075  32.275   7.355
11099POPC   C1B70027  18.957  32.501   6.455
11099POPC   C2B70028  18.896  32.487   6.755
11099POPC   C3B70029  18.927  32.464   7.055
11099POPC   C4B70030  18.936  32.483   7.355
11100POPC   NC370031  33.786   0.480   5.555
11100POPC   PO470032  33.757   0.481   5.855
11100POPC   GL170033  33.823   0.440   6.155
11100POPC   GL270034  33.670   0.405   6.155
11100POPC   C1A70035  33.833   0.472   6.455
11100POPC   D2A70036  33.849   0.450   6.755
11100POPC   C3A70037  33.751   0.474   7.055
11100POPC   C4A70038  33.784   0.409   7.355
11100POPC   C1B70039  33.571   0.384   6.455
11100POPC   C2B70040  33.600   0.416   6.755
11100POPC   C3B70041  33.570   0.420   7.055
11100POPC   C4B70042  33.549   0.351   7.355
11101POPC   NC370043  11.306   1.252   5.555
11101POPC   PO470044  11.298   1.199   5.855
11101POPC   GL170045  11.300   1.247   6.155
11101POPC   GL270046  11.262   1.129   6.155
11101POPC   C1A70047  11.312   1.170   6.455
11101POPC   D2A70048  11.287   1.232   6.755
11101POPC   C3A70049  11.341   1.206   7.055
11101POPC   C4A70050  11.266   1.253   7.355
11101POPC   C1B70051  11.233   0.944   6.455
11101POPC   C2B70052  11.154   0.975   6.755
11101POPC   C3B70053  11.201   0.984   7.055
11101POPC   C4B70054  11.202   0.959   7.355
11102POPC   NC370055  40.021   1.222   5.555
11102POPC   PO470056  40.008   1.248   5.855
11102POPC   GL170057  40.017   1.216   6.155
11102POPC   GL270058  40.074   1.091   6.155
11102POPC   C1A70059  40.011   1.178   6.455
11102POPC   D2A70060  39.996   1.190   6.755
11102POPC   C3A70061  39.997   1.253   7.055
11102POPC   C4A70062  40.047   1.204   7.355
11102POPC   C1B70063  40.189   1.072   6.455
11102POPC   C2B70064  40.230   1.054   6.755
11102POPC   C3B70065  40.236   1.032   7.055
11102POPC   C4B70066  40.206   1.081   7.355
11103POPC   NC370067  29.124  41.605   5.555
11103POPC   PO470068  29.120  41.548   5.855
11103POPC   GL170069  29.189  41.560   6.155
11103POPC   GL270070  29.014  41.590   6.155
11103POPC   C1A70071  29.174  41.602   6.455
11103POPC   D2A70072  29.121  41.586   6.755
11103POPC   C3A70073  29.154  41.531   7.055
11103POPC   C4A70074  29.139  41.520   7.355
11103POPC   C1B70075  28.913  41.711   6.455
11103POPC   C2B70076  28.916  41.729   6.755
11103POPC   C3B70077  28.895  41.724   7.055
11103POPC   C4B70078  28.961  41.663   7.355
11104POPC   NC370079   2.790   2.036   5.555
11104POPC   PO470080   2.809   1.988   5.855
11104POPC   GL170081   2.752   2.007   6.155
11104POPC   GL270082   2.681   1.943   6.155
11104POPC   C1A70083   2.808   2.016   6.455
11104POPC   D2A70084   2.743   1.964   6.755
11104POPC   C3A70085   2.716   2.017   7.055
11104POPC   C4A70086   2.757   1.973   7.355
11104POPC   C1B70087   2.590   1.907   6.455
11104POPC   C2B70088   2.602   1.883   6.755
11104POPC   C3B70089   2.570   1.832   7.055
11104POPC   C4B70090   2.600   1.861   7.355
11105POPC   NC370091  43.857   8.969   5.555
11105POPC   PO470092  43.890   8.960   5.855
11105POPC   GL170093  43.903   8.949   6.155
11105POPC   GL270094  43.929   8.880   6.155
11105POPC   C1A70095  43.923   8.995   6.455
11105POPC   D2A70096  43.881   8.998   6.755
11105POPC   C3A70097  43.846   8.941   7.055
11105POPC   C4A70098  43.919   9.007   7.355
11105POPC   C1B70099  43.861   8.743   6.455
11105POPC   C2B70100  43.915   8.741   6.755
11105POPC   C3B70101  43.897   8.718   7.055
11105POPC   C4B70102  43.885   8.703   7.355
11106POPC   NC370103  30.717   6.654   5.555
11106POPC   PO470104  30.665   6.671   5.855
11106POPC   GL170105  30.674   6.694   6.155
11106POPC   GL270106  30.588   6.730   6.155
11106POPC   C1A70107  30.679   6.682   6.455
11106POPC   D2A70108  30.736   6.597   6.755
11106POPC   C3A70109  30.744   6.617   7.055
11106POPC   C4A70110  30.711   6.683   7.355
11106POPC   C1B70111  30.522   6.848   6.455
11106POPC   C2B70112  30.562   6.863   6.755
11106POPC   C3B70113  30.557   6.780   7.055
11106POPC   C4B70114  30.566   6.863   7.355
11107POPC   NC370115  36.924  12.062   5.555
11107POPC   PO470116  36.914  12.125   5.855
11107POPC   GL170117  36.945  12.066   6.155
11107POPC   GL270118  36.800  12.002   6.155
11107POPC   C1A70119  36.882  12.109   6.455
11107POPC   D2A70120  36.865  12.106   6.755
11107POPC   C3A70121  36.884  12.089   7.055
11107POPC   C4A70122  36.949  12.057   7.355
11107POPC   C1B70123  36.734  11.882   6.455
11107POPC   C2B70124  36.735  11.916   6.755
11107POPC   C3B70125  36.694  11.968   7.055
11107POPC   C4B70126  36.654  11.921   7.355
11108POPC   NC370127   5.051   8.188   5.555
11108POPC   PO470128   5.131   8.184   5.855
11108POPC   GL170129   5.051   8.230   6.155
11108POPC   GL270130   5.223   8.219   6.155
11108POPC   C1A70131   5.134   8.230   6.455
11108POPC   D2A70132   5.048   8.150   6.755
11108POPC   C3A70133   5.093   8.223   7.055
11108POPC   C4A70134   5.137   8.148   7.355
11108POPC   C1B70135   5.329   8.268   6.455
11108POPC   C2B70136   5.375   8.264   6.755
11108POPC   C3B70137   5.305   8.254   7.055
11108POPC   C4B70138   5.290   8.261   7.355
11109POPC   NC370139   9.004  15.137   5.555
11109POPC   PO470140   8.971  15.172   5.855
11109POPC   GL170141   8.965  15.214   6.155
11109POPC   GL270142   8.991  15.281   6.155
11109POPC   C1A70143   8.988  15.197   6.455
11109POPC   D2A70144   8.928  15.142   6.755
11109POPC   C3A70145   8.965  15.223   7.055
11109POPC   C4A70146   8.987  15.199   7.355
11109POPC   C1B70147   9.059  15.427   6.455
11109POPC   C2B70148   9.124  15.374   6.755
11109POPC   C3B70149   9.092  15.412   7.055
11109POPC   C4B70150   9.118  15.417   7.355
11110POPC   NC370151  34.563  19.832   5.555
11110POPC   PO470152  34.619  19.876   5.855
11110POPC   GL170153  34.574  19.810   6.155
11110POPC   GL270154  34.528  19.783   6.155
11110POPC   C1A70155  34.575  19.816   6.455
11110POPC   D2A70156  34.620  19.815   6.755
11110POPC   C3A70157  34.622  19.865   7.055
11110POPC   C4A70158  34.528  19.863   7.355
11110POPC   C1B70159  34.395  19.696   6.455
11110POPC   C2B70160  34.340  19.714   6.755
11110POPC   C3B70161  34.421  19.692   7.055
11110POPC   C4B70162  34.421  19.717   7.355
11111POPC   NC370163  28.323  18.286   5.555
11111POPC   PO470164  28.387  18.331   5.855
11111POPC   GL170165  28.412  18.299   6.155
11111POPC   GL270166  28.306  18.232   6.155
11111POPC   C1A70167  28.370  18.298   6.455
11111POPC   D2A70168  28.373  18.301   6.755
11111POPC   C3A70169  28.321  18.241   7.055
11111POPC   C4A70170  28.364  18.293   7.355
11111POPC   C1B70171  28.163  18.111   6.455
11111POPC   C2B70172  28.243  18.126   6.755
11111POPC   C3B70173  28.237  18.094   7.055
11111POPC   C4B70174  28.179  18.070   7.355
11112POPC   NC370175  36.096  22.964   5.555
11112POPC   PO470176  36.106  22.977   5.855
11112POPC   GL170177  36.171  22.929   6.155
11112POPC   GL270178  36.234  22.995   6.155
11112POPC   C1A70179  36.099  22.940   6.455
11112POPC   D2A70180  36.079  22.905   6.755
11112POPC   C3A70181  36.089  22.891   7.055
11112POPC   C4A70182  36.110  22.919   7.355
11112POPC   C1B70183  36.302  23.120   6.455
11112POPC   C2B70184  36.263  23.159   6.755
11112POPC   C3B70185  36.293  23.171   7.055
11112POPC   C4B70186  36.267  23.084   7.355
11113POPC   NC370187   8.969  19.044   5.555
11113POPC   PO470188   8.948  19.011   5.855
11113POPC   GL170189   8.966  19.027   6.155
11113POPC   GL270190   8.992  19.192   6.155
11113POPC   C1A70191   8.990  19.063   6.455
11113POPC   D2A70192   8.964  19.095   6.755
11113POPC   C3A70193   9.004  19.053   7.055
11113POPC   C4A70194   8.997  19.069   7.355
11113POPC   C1B70195   8.988  19.300   6.455
11113POPC   C2B70196   8.966  19.307   6.755
11113POPC   C3B70197   8.908  19.260   7.055
11113POPC   C4B70198   8.925  19.284   7.355
11114POPC   NC370199  40.818  43.838   5.555
11114POPC   PO470200  40.811  43.852   5.855
11114POPC   GL170201  40.773  43.919   6.155
11114POPC   GL270202  40.936  43.880   6.155
11114POPC   C1A70203  40.759  43.884   6.455
11114POPC   D2A70204  40.751  43.927   6.755
11114POPC   C3A70205  40.821  43.863   7.055
11114POPC   C4A70206  40.758  43.923   7.355
11114POPC   C1B70207  41.074  43.818   6.455
11114POPC   C2B70208  41.064  43.817   6.755
11114POPC   C3B70209  41.031  43.784   7.055
11114POPC   C4B70210  41.020  43.811   7.355
11115POPC   NC370211   7.430  41.551   5.555
11115POPC   PO470212   7.417  41.585   5.855
11115POPC   GL170213   7.386  41.549   6.155
11115POPC   GL270214   7.580  41.602   6.155
11115POPC   C1A70215   7.454  41.560   6.455
11115POPC   D2A70216   7.425  41.540   6.755
11115POPC   C3A70217   7.374  41.539   7.055
11115POPC   C4A70218   7.389  41.544   7.355
11115POPC   C1B70219   7.715  41.601   6.455
11115POPC   C2B70220   7.683  41.570   6.755
11115POPC   C3B70221   7.671  41.583   7.055
11115POPC   C4B70222   7.689  41.537   7.355
11116POPC   NC370223  29.104  36.865   5.555
11116POPC   PO470224  29.161  36.878   5.855
11116POPC   GL170225  29.170  36.905   6.155
11116POPC   GL270226  29.181  36.779   6.155
11116POPC   C1A70227  29.129  36.916   6.455
11116POPC   D2A70228  29.106  36.892   6.755
11116POPC   C3A70229  29.180  36.862   7.055
11116POPC   C4A70230  29.194  36.889   7.355
11116POPC   C1B70231  29.225  36.645   6.455
11116POPC   C2B70232  29.218  36.619   6.755
11116POPC   C3B70233  29.192  36.702   7.055
11116POPC   C4B70234  29.227  36.621   7.355
11117POPC   NC370235  30.661   7.450   5.555
11117POPC   PO470236  30.652   7.391   5.855
11117POPC   GL170237  30.677   7.376   6.155
11117POPC   GL270238  30.863   7.452   6.155
11117POPC   C1A70239  30.676   7.376   6.455
11117POPC   D2A70240  30.664   7.462   6.755
11117POPC   C3A70241  30.715   7.433   7.055
11117POPC   C4A70242  30.734   7.453   7.355
11117POPC   C1B70243  30.984   7.414   6.455
11117POPC   C2B70244  30.954   7.450   6.755
11117POPC   C3B70245  30.899   7.394   7.055
11117POPC   C4B70246  30.991   7.451   7.355
11118POPC   NC370247   0.449  40.767   5.555
11118POPC   PO470248   0.425  40.749   5.855
11118POPC   GL170249   0.413  40.768   6.155
11118POPC   GL270250   0.345  40.926   6.155
11118POPC   C1A70251   0.465  40.734   6.455
11118POPC   D2A70252   0.439  40.742   6.755
11118POPC   C3A70253   0.424  40.771   7.055
11118POPC   C4A70254   0.485  40.746   7.355
11118POPC   C1B70255   0.332  40.988   6.455
11118POPC   C2B70256   0.315  41.000   6.755
11118POPC   C3B70257   0.382  40.978   7.055
11118POPC   C4B70258   0.385  41.021   7.355
11119POPC   NC370259  37.671  12.097   5.555
11119POPC   PO470260  37.708  12.080   5.855
11119POPC   GL170261  37.637  12.054   6.155
11119POPC   GL270262  37.807  12.081   6.155
11119POPC   C1A70263  37.656  12.106   6.455
11119POPC   D2A70264  37.646  12.054   6.755
11119POPC   C3A70265  37.682  12.047   7.055
11119POPC   C4A70266  37.706  12.080   7.355
11119POPC   C1B70267  37.880  12.113   6.455
11119POPC   C2B70268  37.916  12.139   6.755
11119POPC   C3B70269  37.966  12.109   7.055
11119POPC   C4B70270  37.909  12.079   7.355
11120POPC   NC370271  34.597  14.414   5.555
11120POPC   PO470272  34.538  14.386   5.855
11120POPC   GL170273  34.530  14.407   6.155
11120POPC   GL270274  34.708  14.427   6.155
11120POPC   C1A70275  34.620  14.445   6.455
11120POPC   D2A70276  34.568  14.436   6.755
11120POPC   C3A70277  34.530  14.395   7.055
11120POPC   C4A70278  34.554  14.390   7.355
11120POPC   C1B70279  34.824  14.495   6.455
11120POPC   C2B70280  34.862  14.458   6.755
11120POPC   C3B70281  34.781  14.439   7.055
11120POPC   C4B70282  34.860  14.500   7.355
11121POPC   NC370283  21.396   5.104   5.555
11121POPC   PO470284  21.350   5.114   5.855
11121POPC   GL170285  21.380   5.048   6.155
11121POPC   GL270286  21.261   5.092   6.155
11121POPC   C1A70287  21.343   5.118   6.455
11121POPC   D2A70288  21.428   5.080   6.755
11121POPC   C3A70289  21.387   5.119   7.055
11121POPC   C4A70290  21.357   5.051   7.355
11121POPC   C1B70291  21.112   5.098   6.455
11121POPC   C2B70292  21.141   5.131   6.755
11121POPC   C3B70293  21.165   5.168   7.055
11121POPC   C4B70294  21.171   5.158   7.355
11122POPC   NC370295  29.182   1.181   5.555
11122POPC   PO470296  29.155   1.193   5.855
11122POPC   GL170297  29.194   1.260   6.155
11122POPC   GL270298  29.059   1.207   6.155
11122POPC   C1A70299  29.122   1.174   6.455
11122POPC   D2A70300  29.095   1.190   6.755
11122POPC   C3A70301  29.166   1.222   7.055
11122POPC   C4A70302  29.159   1.197   7.355
11122POPC   C1B70303  28.920   1.276   6.455
11122POPC   C2B70304  28.902   1.337   6.755
11122POPC   C3B70305  28.951   1.335   7.055
11122POPC   C4B70306  28.922   1.267   7.355
11123POPC   NC370307  12.840  15.955   5.555
11123POPC   PO470308  12.865  15.949   5.855
11123POPC   GL170309  12.834  15.950   6.155
11123POPC   GL270310  12.853  15.856   6.155
11123POPC   C1A70311  12.832  15.967   6.455
11123POPC   D2A70312  12.804  15.922   6.755
11123POPC   C3A70313  12.818  15.939   7.055
11123POPC   C4A70314  12.869  15.932   7.355
11123POPC   C1B70315  12.834  15.712   6.455
11123POPC   C2B70316  12.851  15.732   6.755
11123POPC   C3B70317  12.844  15.675   7.055
11123POPC   C4B70318  12.842  15.731   7.355
11124POPC   NC370319   3.568  32.990   5.555
11124POPC   PO470320   3.544  33.062   5.855
11124POPC   GL170321   3.532  33.056   6.155
11124POPC   GL270322   3.537  33.158   6.155
11124POPC   C1A70323   3.528  33.008   6.455
11124POPC   D2A70324   3.528  33.027   6.755
11124POPC   C3A70325   3.502  33.012   7.055
11124POPC   C4A70326   3.530  33.034   7.355
11124POPC   C1B70327   3.446  33.234   6.455
11124POPC   C2B70328   3.523  33.219   6.755
11124POPC   C3B70329   3.478  33.234   7.055
11124POPC   C4B70330   3.486  33.218   7.355
11125POPC   NC370331   4.327  36.944   5.555
11125POPC   PO470332   4.279  36.947   5.855
11125POPC   GL170333   4.300  36.931   6.155
11125POPC   GL270334   4.292  36.986   6.155
11125POPC   C1A70335   4.320  36.900   6.455
11125POPC   D2A70336   4.342  36.953   6.755
11125POPC   C3A70337   4.336  36.915   7.055
11125POPC   C4A70338   4.320  36.912   7.355
11125POPC   C1B70339   4.267  37.172   6.455
11125POPC   C2B70340   4.305  37.171   6.755
11125POPC   C3B70341   4.358  37.149   7.055
11125POPC   C4B70342   4.355  37.187   7.355
11126POPC   NC370343  27.626  21.433   5.555
11126POPC   PO470344  27.639  21.421   5.855
11126POPC   GL170345  27.634  21.345   6.155
11126POPC   GL270346  27.491  21.369   6.155
11126POPC   C1A70347  27.575  21.430   6.455
11126POPC   D2A70348  27.560  21.393   6.755
11126POPC   C3A70349  27.615  21.421   7.055
11126POPC   C4A70350  27.585  21.410   7.355
11126POPC   C1B70351  27.372  21.262   6.455
11126POPC   C2B70352  27.374  21.275   6.755
11126POPC   C3B70353  27.382  21.293   7.055
11126POPC   C4B70354  27.412  21.217   7.355
11127POPC   NC370355  29.952  19.031   5.555
11127POPC   PO470356  29.949  19.009   5.855
11127POPC   GL170357  29.940  19.043   6.155
11127POPC   GL270358  29.998  18.989   6.155
11127POPC   C1A70359  29.890  19.080   6.455
11127POPC   D2A70360  29.890  19.047   6.755
11127POPC   C3A70361  29.886  19.025   7.055
11127POPC   C4A70362  29.927  19.040   7.355
11127POPC   C1B70363  30.068  18.851   6.455
11127POPC   C2B70364  30.112  18.884   6.755
11127POPC   C3B70365  30.044  18.845   7.055
11127POPC   C4B70366  30.032  18.876   7.355
11128POPC   NC370367  16.691   2.754   5.555
11128POPC   PO470368  16.713   2.721   5.855
11128POPC   GL170369  16.684   2.800   6.155
11128POPC   GL270370  16.573   2.792   6.155
11128POPC   C1A70371  16.748   2.804   6.455
11128POPC   D2A70372  16.743   2.736   6.755
11128POPC   C3A70373  16.776   2.789   7.055
11128POPC   C4A70374  16.699   2.725   7.355
11128POPC   C1B70375  16.537   2.815   6.455
11128POPC   C2B70376  16.497   2.815   6.755
11128POPC   C3B70377  16.540   2.822   7.055
11128POPC   C4B70378  16.543   2.838   7.355
11129POPC   NC370379  27.599  42.358   5.555
11129POPC   PO470380  27.626  42.330   5.855
11129POPC   GL170381  27.583  42.356   6.155
11129POPC   GL270382  27.614  42.506   6.155
11129POPC   C1A70383  27.568  42.297   6.455
11129POPC   D2A70384  27.606  42.359   6.755
11129POPC   C3A70385  27.582  42.310   7.055
11129POPC   C4A70386  27.620  42.312   7.355
11129POPC   C1B70387  27.597  42.605   6.455
11129POPC   C2B70388  27.601  42.567   6.755
11129POPC   C3B70389  27.568  42.618   7.055
11129POPC   C4B70390  27.619  42.577   7.355
11130POPC   NC370391  39.979  21.359   5.555
11130POPC   PO470392  39.997  21.427   5.855
11130POPC   GL170393  39.998  21.432   6.155
11130POPC   GL270394  40.041  21.484   6.155
11130POPC   C1A70395  40.029  21.426   6.455
11130POPC   D2A70396  40.024  21.350   6.755
11130POPC   C3A70397  40.033  21.379   7.055
11130POPC   C4A70398  40.046  21.419   7.355
11130POPC   C1B70399  40.182  21.534   6.455
11130POPC   C2B70400  40.113  21.630   6.755
11130POPC   C3B70401  40.191  21.549   7.055
11130POPC   C4B70402  40.115  21.557   7.355
11131POPC   NC370403   8.996  24.514   5.555
11131POPC   PO470404   8.957  24.503   5.855
11131POPC   GL170405   8.953  24.446   6.155
11131POPC   GL270406   8.842  24.553   6.155
11131POPC   C1A70407   8.947  24.495   6.455
11131POPC   D2A70408   8.985  24.539   6.755
11131POPC   C3A70409   8.933  24.493   7.055
11131POPC   C4A70410   8.962  24.492   7.355
11131POPC   C1B70411   8.809  24.665   6.455
11131POPC   C2B70412   8.771  24.708   6.755
11131POPC   C3B70413   8.766  24.670   7.055
11131POPC   C4B70414   8.791  24.696   7.355
11132POPC   NC370415   1.202  21.383   5.555
11132POPC   PO470416   1.237  21.431   5.855
11132POPC   GL170417   1.181  21.402   6.155
11132POPC   GL270418   1.287  21.295   6.155
11132POPC   C1A70419   1.243  21.339   6.455
11132POPC   D2A70420   1.209  21.369   6.755
11132POPC   C3A70421   1.237  21.372   7.055
11132POPC   C4A70422   1.260  21.341   7.355
11132POPC   C1B70423   1.459  21.241   6.455
11132POPC   C2B70424   1.439  21.283   6.755
11132POPC   C3B70425   1.387  21.202   7.055
11132POPC   C4B70426   1.424  21.219   7.355
11133POPC   NC370427  19.083   5.047   5.555
11133POPC   PO470428  19.072   5.045   5.855
11133POPC   GL170429  19.073   5.053   6.155
11133POPC   GL270430  19.089   5.239   6.155
11133POPC   C1A70431  19.019   5.060   6.455
11133POPC   D2A70432  19.025   5.103   6.755
11133POPC   C3A70433  19.086   5.052   7.055
11133POPC   C4A70434  19.101   5.122   7.355
11133POPC   C1B70435  19.091   5.379   6.455
11133POPC   C2B70436  19.054   5.364   6.755
11133POPC   C3B70437  19.022   5.354   7.055
11133POPC   C4B70438  19.025   5.309   7.355
11134POPC   NC370439  24.520  16.724   5.555
11134POPC   PO470440  24.454  16.692   5.855
11134POPC   GL170441  24.488  16.709   6.155
11134POPC   GL270442  24.444  16.833   6.155
11134POPC   C1A70443  24.464  16.742   6.455
11134POPC   D2A70444  24.496  16.752   6.755
11134POPC   C3A70445  24.469  16.768   7.055
11134POPC   C4A70446  24.473  16.760   7.355
11134POPC   C1B70447  24.413  16.929   6.455
11134POPC   C2B70448  24.389  16.995   6.755
11134POPC   C3B70449  24.403  16.990   7.055
11134POPC   C4B70450  24.403  16.924   7.355
11135POPC   NC370451  44.628  34.611   5.555
11135POPC   PO470452  44.684  34.584   5.855
11135POPC   GL170453  44.672  34.604   6.155
11135POPC   GL270454  44.671  34.430   6.155
11135POPC   C1A70455  44.623  34.583   6.455
11135POPC   D2A70456  44.688  34.538   6.755
11135POPC   C3A70457  44.615  34.620   7.055
11135POPC   C4A70458  44.698  34.605   7.355
11135POPC   C1B70459  44.710  34.323   6.455
11135POPC   C2B70460  44.801  34.364   6.755
11135POPC   C3B70461  44.733  34.371   7.055
11135POPC   C4B70462  44.733  34.392   7.355
11136POPC   NC370463  12.813   2.766   5.555
11136POPC   PO470464  12.816   2.776   5.855
11136POPC   GL170465  12.894   2.786   6.155
11136POPC   GL270466  12.918   2.855   6.155
11136POPC   C1A70467  12.811   2.720   6.455
11136POPC   D2A70468  12.872   2.808   6.755
11136POPC   C3A70469  12.817   2.725   7.055
11136POPC   C4A70470  12.833   2.771   7.355
11136POPC   C1B70471  12.995   2.956   6.455
11136POPC   C2B70472  13.022   2.972   6.755
11136POPC   C3B70473  13.043   2.893   7.055
11136POPC   C4B70474  13.080   2.923   7.355
11137POPC   NC370475  15.220  10.523   5.555
11137POPC   PO470476  15.183  10.532   5.855
11137POPC   GL170477  15.159  10.513   6.155
11137POPC   GL270478  15.253  10.479   6.155
11137POPC   C1A70479  15.130  10.530   6.455
11137POPC   D2A70480  15.159  10.543   6.755
11137POPC   C3A70481  15.146  10.527   7.055
11137POPC   C4A70482  15.175  10.507   7.355
11137POPC   C1B70483  15.362  10.434   6.455
11137POPC   C2B70484  15.440  10.379   6.755
11137POPC   C3B70485  15.431  10.378   7.055
11137POPC   C4B70486  15.367  10.418   7.355
11138POPC   NC370487   7.427   5.864   5.555
11138POPC   PO470488   7.395   5.851   5.855
11138POPC   GL170489   7.395   5.862   6.155
11138POPC   GL270490   7.367   5.968   6.155
11138POPC   C1A70491   7.394   5.879   6.455
11138POPC   D2A70492   7.446   5.879   6.755
11138POPC   C3A70493   7.392   5.841   7.055
11138POPC   C4A70494   7.464   5.832   7.355
11138POPC   C1B70495   7.306   6.066   6.455
11138POPC   C2B70496   7.256   6.059   6.755
11138POPC   C3B70497   7.278   6.058   7.055
11138POPC   C4B70498   7.324   6.095   7.355
11139POPC   NC370499  30.707  38.434   5.555
11139POPC   PO470500  30.692  38.443   5.855
11139POPC   GL170501  30.659  38.430   6.155
11139POPC   GL270502  30.656  38.383   6.155
11139POPC   C1A70503  30.680  38.501   6.455
11139POPC   D2A70504  30.662  38.479   6.755
11139POPC   C3A70505  30.735  38.416   7.055
11139POPC   C4A70506  30.675  38.444   7.355
11139POPC   C1B70507  30.587  38.225   6.455
11139POPC   C2B70508  30.566  38.179   6.755
11139POPC   C3B70509  30.594  38.243   7.055
11139POPC   C4B70510  30.628  38.245   7.355
11140POPC   NC370511  26.051  28.372   5.555
11140POPC   PO470512  26.062  28.329   5.855
11140POPC   GL170513  26.057  28.386   6.155
11140POPC   GL270514  25.978  28.239   6.155
11140POPC   C1A70515  26.048  28.332   6.455
11140POPC   D2A70516  25.995  28.343   6.755
11140POPC   C3A70517  26.014  28.397   7.055
11140POPC   C4A70518  26.029  28.405   7.355
11140POPC   C1B70519  25.861  28.217   6.455
11140POPC   C2B70520  25.844  28.160   6.755
11140POPC   C3B70521  25.801  28.177   7.055
11140POPC   C4B70522  25.893  28.243   7.355
11141POPC   NC370523  10.563  20.608   5.555
11141POPC   PO470524  10.495  20.646   5.855
11141POPC   GL170525  10.474  20.580   6.155
11141POPC   GL270526  10.385  20.575   6.155
11141POPC   C1A70527  10.551  20.582   6.455
11141POPC   D2A70528  10.521  20.577   6.755
11141POPC   C3A70529  10.484  20.657   7.055
11141POPC   C4A70530  10.533  20.566   7.355
11141POPC   C1B70531  10.278  20.494   6.455
11141POPC   C2B70532  10.275  20.471   6.755
11141POPC   C3B70533  10.308  20.525   7.055
11141POPC   C4B70534  10.289  20.526   7.355
11142POPC   NC370535  13.657  15.159   5.555
11142POPC   PO470536  13.652  15.158   5.855
11142POPC   GL170537  13.643  15.191   6.155
11142POPC   GL270538  13.589  15.268   6.155
11142POPC   C1A70539  13.623  15.135   6.455
11142POPC   D2A70540  13.647  15.166   6.755
11142POPC   C3A70541  13.639  15.174   7.055
11142POPC   C4A70542  13.614  15.162   7.355
11142POPC   C1B70543  13.517  15.391   6.455
11142POPC   C2B70544  13.519  15.420   6.755
11142POPC   C3B70545  13.578  15.415   7.055
11142POPC   C4B70546  13.593  15.411   7.355
11143POPC   NC370547  44.617  44.695   5.555
11143POPC   PO470548  44.691  44.631   5.855
11143POPC   GL170549  44.655  44.644   6.155
11143POPC   GL270550  44.606  44.816   6.155
11143POPC   C1A70551  44.641  44.672   6.455
11143POPC   D2A70552  44.636  44.673   6.755
11143POPC   C3A70553  44.666  44.670   7.055
11143POPC   C4A70554  44.681  44.648   7.355
11143POPC   C1B70555  44.552  44.944   6.455
11143POPC   C2B70556  44.612  44.875   6.755
11143POPC   C3B70557  44.579  44.924   7.055
11143POPC   C4B70558  44.560  44.936   7.355
11144POPC   NC370559  11.276  27.627   5.555
11144POPC   PO470560  11.274  27.599   5.855
11144POPC   GL170561  11.349  27.548   6.155
11144POPC   GL270562  11.231  27.693   6.155
11144POPC   C1A70563  11.287  27.627   6.455
11144POPC   D2A70564  11.252  27.580   6.755
11144POPC   C3A70565  11.304  27.548   7.055
11144POPC   C4A70566  11.296  27.624   7.355
11144POPC   C1B70567  11.214  27.868   6.455
11144POPC   C2B70568  11.187  27.785   6.755
11144POPC   C3B70569  11.255  27.871   7.055
11144POPC   C4B70570  11.280  27.863   7.355
11145POPC   NC370571  18.298   4.366   5.555
11145POPC   PO470572  18.290   4.303   5.855
11145POPC   GL170573  18.286   4.338   6.155
11145POPC   GL270574  18.344   4.419   6.155
11145POPC   C1A70575  18.234   4.318   6.455
11145POPC   D2A70576  18.290   4.361   6.755
11145POPC   C3A70577  18.266   4.330   7.055
11145POPC   C4A70578  18.272   4.283   7.355
11145POPC   C1B70579  18.309   4.574   6.455
11145POPC   C2B70580  18.283   4.558   6.755
11145POPC   C3B70581  18.331   4.608   7.055
11145POPC   C4B70582  18.321   4.558   7.355
11146W        W70583  35.058   5.412  14.398
11147W        W70584  12.264   1.924   2.723
11148W        W70585   1.968  13.172   4.183
11149W        W70586  29.666   2.837   3.232
11150W        W70587   2.267   6.338   2.761
11151W        W70588  28.646  42.345  13.492
11152W        W70589  18.096  28.446   0.331
11153W        W70590  24.137  17.696   3.326
11154W        W70591  21.231  36.039   5.237
11155W        W70592  40.853  10.335  12.503
11156W        W70593   5.907  18.107   3.664
11157W        W70594  36.987  11.725  14.419
11158W        W70595  10.306  16.800   3.248
11159W        W70596  13.208  20.093  13.038
11160W        W70597  29.588  10.144  10.038
11161W        W70598  36.376  15.181  12.947
11162W        W70599  26.078  11.284  12.502
11163W        W70600  10.351  17.576   4.737
11164W        W70601   0.288  16.156   0.791
11165W        W70602  27.505  19.563  13.823
11166W        W70603  30.641  15.644  14.299
11167W        W70604   1.316  38.454   2.243
11168W        W70605  17.656   7.233  11.458
11169W        W70606  34.105   9.211   1.389
11170W        W70607  36.929  25.061  10.990
11171W        W70608  21.143  37.350  12.564
11172W        W70609  33.916  26.491  12.361
11173W        W70610  33.083  19.657   0.898
11174W        W70611  14.222  41.009   1.847
11175W        W70612   8.880  39.411   4.626
11176W        W70613  27.032  35.012  11.000
11177W        W70614  39.422  11.800   2.677
11178W        W70615  16.716  40.528   0.362
11179W        W70616  44.771  13.322  14.987
11180W        W70617  18.077  27.648   3.808
11181W        W70618  34.062  23.733   0.777
11182W        W70619   9.761  16.192  10.460
11183W        W70620  24.221   0.835  13.408
11184W        W70621  44.295  36.933   3.178
11185W        W70622  16.633  40.317  12.565
11186W        W70623  32.059  24.106   1.351
11187W        W70624  28.149   9.334   5.235
11188W        W70625  11.793   8.734   1.448
11189W        W70626  19.146  24.698   4.265
11190W        W70627  34.942  17.205  11.475
11191W        W70628  20.177  21.730   3.855
11192W        W70629  35.983   0.853  11.499
11193W        W70630  11.702   7.399   5.281
11194W        W70631  28.528  37.969   3.638
11195W        W70632  28.439  15.643  14.380
11196W        W70633  33.939  27.028   3.760
11197W        W70634  29.593  14.260   2.771
11198W        W70635  33.963  24.567  10.624
11199W        W70636  38.560  27.196  12.861
11200W        W70637   3.234  37.837  11.455
11201W        W70638  33.057  21.581   1.223
11202W        W70639   1.806  38.375  11.081
11203W        W70640  39.540  34.475  11.557
11204W        W70641  13.815  33.589   4.243
11205W        W70642  28.004  40.417  14.936
11206W        W70643  14.643  15.692  11.977
11207W        W70644  26.129  15.206  14.847
11208W        W70645   9.323   6.380  14.334
11209W        W70646  10.305   9.256   4.748
11210W        W70647  40.324  34.386  12.383
11211W        W70648  34.500  33.931   0.387
11212W        W70649  28.606  24.554  10.468
11213W        W70650  18.281  18.261   1.704
11214W        W70651  29.919  39.342   3.665
11215W        W70652  17.239  22.055   1.335
11216W        W70653  38.994   1.445   4.709
11217W        W70654  21.559   5.906  14.330
11218W        W70655  44.854   1.383   1.789
11219W        W70656  17.095  28.532  12.915
11220W        W70657  42.462  19.099  13.366
11221W        W70658  26.030  35.931   3.241
11222W        W70659   5.363  20.618  12.382
11223W        W70660   8.731  36.430   1.909
11224W        W70661  25.477   4.772   0.858
11225W        W70662   4.812  11.686  10.579
11226W        W70663   7.409  32.064   4.751
11227W        W70664   0.266  20.230  11.018
11228W        W70665  33.981   6.188  11.488
11229W        W70666  25.515  42.355   2.250
11230W        W70667  28.161   2.768   1.330
11231W        W70668  29.946  21.630   9.921
11232W        W70669  14.650  38.879   0.735
11233W        W70670   3.770  22.539   4.746
11234W        W70671  34.065  14.642  12.088
11235W        W70672  18.554  16.783  12.980
11236W        W70673  24.721   1.350  13.442
11237W        W70674  41.968  25.139  14.786
11238W        W70675   0.846  36.516   0.895
11239W        W70676   0.417  25.643   2.318
11240W        W70677  10.804   5.240  10.939
11241W        W70678   5.196  19.561  13.413
11242W        W70679  36.040  21.242   2.834
11243W        W70680  28.508  33.078   1.794
11244W        W70681  18.052  11.742   3.648
11245W        W70682  19.656  21.710  10.447
11246W        W70683  30.432  42.384  14.806
11247W        W70684  32.437  37.053  13.432
11248W        W70685   4.772  11.140   4.245
11249W        W70686  21.115  38.030   3.677
11250W        W70687  33.585  27.528   3.226
11251W        W70688  20.659  28.529  11.542
11252W        W70689   7.816   2.932   2.712
11253W        W70690  14.160  42.481  11.023
11254W        W70691  22.169   0.924   3.271
11255W        W70692  25.555  30.497  11.392
11256W        W70693  38.423  31.510  11.054
11257W        W70694  20.707  15.652  12.570
11258W        W70695   2.239  40.052  13.984
11259W        W70696  39.332   1.400   4.153
11260W        W70697  24.712  44.927  13.932
11261W        W70698  44.891  28.534   4.327
11262W        W70699  11.677  40.457  11.410
11263W        W70700  17.251  32.052   0.890
11264W        W70701  43.366  42.406  14.026
11265W        W70702  33.123  32.419   2.345
11266W        W70703   5.860   0.439   2.874
11267W        W70704   3.752  38.066   1.769
11268W        W70705  12.352  32.626   0.322
11269W        W70706  10.267   2.323   4.805
11270W        W70707   2.789   8.840  11.497
11271W        W70708  36.575   8.395  12.501
11272W        W70709   7.400  11.151  14.863
11273W        W70710  14.688   4.920  13.453
11274W        W70711  32.043  37.352  12.948
11275W        W70712   1.975  15.758  11.394
11276W        W70713  42.860  42.009   3.851
11277W        W70714  26.581  17.688  12.982
11278W        W70715   2.879  26.654   5.196
11279W        W70716  42.281  28.182   0.866
11280W        W70717   7.309  18.604   3.160
11281W        W70718  44.970  10.681  12.898
11282W        W70719  32.458  35.868  10.973
11283W        W70720   1.972  42.501  14.956
11284W        W70721  43.920  15.231  12.450
11285W        W70722  18.569   8.705   5.245
11286W        W70723   7.407   1.431   2.871
11287W        W70724  15.155  17.304  14.848
11288W        W70725  40.830   4.296   2.794
11289W        W70726  40.340  23.576  13.039
11290W        W70727   2.352  35.384   4.182
11291W        W70728   4.204  41.535  12.417
11292W        W70729  38.425   6.895  12.375
11293W        W70730   4.735   3.793   3.695
11294W        W70731   2.435  44.878   1.885
11295W        W70732   4.293  30.542   0.886
11296W        W70733  10.783  12.685   3.769
11297W        W70734  10.254  35.898  11.589
11298W        W70735  37.864  39.900   1.451
11299W        W70736  10.296  33.113   3.724
11300W        W70737  26.535  41.522   3.869
11301W        W70738  11.229   6.894  10.449
11302W        W70739  36.060  23.538  14.334
11303W        W70740  19.692  24.216   2.848
11304W        W70741  18.638  42.301   0.787
11305W        W70742  13.227  14.827  13.988
11306W        W70743   1.883  31.917   0.829
11307W        W70744  40.396  24.099   1.827
11308W        W70745  16.186  44.990   5.135
11309W        W70746  12.829   2.266   4.824
11310W        W70747  14.258  16.655   3.382
11311W        W70748  23.089  15.248   3.286
11312W        W70749   8.392  11.310   4.354
11313W        W70750   7.788  15.714   2.358
11314W        W70751  27.624  26.046  14.001
11315W        W70752  17.306   0.847   2.373
11316W        W70753  42.480  12.319  12.394
11317W        W70754  10.363  43.378   9.996
11318W        W70755  42.401  40.918  10.628
11319W        W70756  40.990   6.869  12.490
11320W        W70757  29.573  31.036  14.331
11321W        W70758  22.079  10.838   0.874
11322W        W70759  31.423  20.182   4.235
11323W        W70760  27.022  31.605   2.239
11324W        W70761  24.094   8.884  10.109
11325W        W70762  14.288  14.301  10.892
11326W        W70763  36.090   7.181  12.339
11327W        W70764   7.221   5.883   4.115
11328W        W70765  29.570   6.748  11.077
11329W        W70766  21.051  18.057  13.054
11330W        W70767  12.331  37.028  11.905
11331W        W70768  36.984  40.393  14.359
11332W        W70769   9.731   8.813  13.376
11333W        W70770  13.691  13.701   1.439
11334W        W70771  29.502   9.325  14.476
11335W        W70772  27.173  40.883  11.122
11336W        W70773  16.136  20.274  14.776
11337W        W70774  28.178   8.202  13.960
11338W        W70775   7.364  28.617   2.227
11339W        W70776   2.238  33.593   3.209
11340W        W70777  27.493   4.713   3.370
11341W        W70778  29.562  28.658   4.606
11342W        W70779  24.574  19.723   3.826
11343W        W70780  15.105  23.631   1.241
11344W        W70781   0.333  44.491  13.925
11345W        W70782  19.672  28.448  13.860
11346W        W70783   8.312  14.247   2.183
11347W        W70784  44.827  41.513  13.826
11348W        W70785  12.361  24.649   2.817
11349W        W70786  34.040   5.791   4.674
11350W        W70787  16.747  33.888  10.561
11351W        W70788  25.216  38.447  13.872
11352W        W70789   5.292  13.686   2.178
11353W        W70790  24.988  35.883   3.709
11354W        W70791   4.373  24.062   5.745
11355W        W70792  23.112  20.552  11.525
11356W        W70793  40.033  22.074  13.513
11357W        W70794  43.504  21.123   3.176
11358W        W70795  27.150  23.729  14.316
11359W        W70796  41.848  36.370  13.880
11360W        W70797  35.921  30.054   2.292
11361W        W70798  13.657  22.610  12.449
11362W        W70799  38.846  16.726  11.555
11363W        W70800  35.023  44.300  10.531
11364W        W70801   8.284   7.386  14.891
11365W        W70802  36.491  37.457  12.939
11366W        W70803  11.171  34.075  11.051
11367W        W70804  10.690  35.573  11.126
11368W        W70805  14.614  26.058  12.392
11369W        W70806  40.876  16.176  11.898
11370W        W70807  14.150  25.574   0.315
11371W        W70808  24.557  28.525  14.429
11372W        W70809  19.646  20.677  10.978
11373W        W70810  13.241  11.348   1.358
11374W        W70811  29.090   9.281  11.450
11375W        W70812  34.086   8.291   3.753
11376W        W70813  29.430   8.859  11.968
11377W        W70814  31.518  17.790  11.571
11378W        W70815  14.598  44.497  14.790
11379W        W70816   8.244  19.654   5.162
11380W        W70817  16.667  27.688  11.977
11381W        W70818  31.983   9.732  14.772
11382W        W70819  20.161  22.230  13.441
11383W        W70820  13.796  42.480   3.818
11384W        W70821  38.933   0.931   1.257
11385W        W70822  44.307  23.025  11.399
11386W        W70823   6.828  12.722   2.265
11387W        W70824  43.907  21.057   4.253
11388W        W70825  20.143  43.837  10.579
11389W        W70826  38.561  28.531   4.327
11390W        W70827  29.131  17.098  10.926
11391W        W70828  27.009  14.734   2.781
11392W        W70829  15.798  44.360   1.724
11393W        W70830   9.207   1.846  11.857
11394W        W70831  30.589  12.299   1.428
11395W        W70832  35.562  16.640   0.819
11396W        W70833   5.401  20.045   4.331
11397W        W70834  35.867   0.456  13.975
11398W        W70835  29.460  27.555   2.765
11399W        W70836  33.889  23.053  10.981
11400W        W70837  17.644   0.385  11.451
11401W        W70838  39.519  41.332   0.760
11402W        W70839  16.726   6.251  14.361
11403W        W70840  41.498  20.055   0.392
11404W        W70841  11.293  44.484  12.362
11405W        W70842   3.808  31.477  14.446
11406W        W70843  11.667  15.221   1.392
11407W        W70844  34.033  33.079  14.480
11408W        W70845  26.534  15.600  12.841
11409W        W70846  22.036  28.115   2.750
11410W        W70847   5.811   1.945   2.680
11411W        W70848  30.110  42.396  13.045
11412W        W70849   1.364   3.764  12.482
11413W        W70850  13.753  30.628   4.185
11414W        W70851   5.777  44.465   1.702
11415W        W70852  34.875   3.256   2.196
11416W        W70853  28.505  22.571  14.995
11417W        W70854  21.258  43.786   4.137
11418W        W70855  44.483  24.530  10.901
11419W        W70856  24.033  44.411  10.047
11420W        W70857  20.243  18.706   1.310
11421W        W70858  42.486  38.985  14.770
11422W        W70859  34.479  28.492  12.393
11423W        W70860  44.273   0.292   1.869
11424W        W70861   4.794  24.682  11.423
11425W        W70862  29.567   5.835  10.938
11426W        W70863   7.835  25.192  13.930
11427W        W70864  31.516  20.174  11.518
11428W        W70865   7.753   2.860  14.848
11429W        W70866  29.118  44.942   1.300
11430W        W70867  39.546  22.070   1.430
11431W        W70868   9.752  39.874  12.458
11432W        W70869   6.807  17.730   0.270
11433W        W70870  16.108  39.348  12.916
11434W        W70871  44.949   8.770   1.725
11435W        W70872  16.175   9.736  11.087
11436W        W70873  20.081  42.802  10.558
11437W        W70874  23.144  44.888  10.899
11438W        W70875  42.867  10.683   3.787
11439W        W70876  23.157  16.788  14.477
11440W        W70877  29.958  18.223  13.935
11441W        W70878  43.006  19.544  10.447
11442W        W70879   1.240   9.688   1.267
11443W        W70880  14.335  16.799   3.834
11444W        W70881  16.312  21.685  13.020
11445W        W70882  20.761  42.849  11.862
11446W        W70883  18.278  20.569   1.303
11447W        W70884  44.309  38.941   1.838
11448W        W70885  29.654  42.309  12.889
11449W        W70886  44.461  11.271   3.340
11450W        W70887  20.712  41.525   1.341
11451W        W70888  30.610  30.637  11.431
11452W        W70889  31.132   7.257   4.348
11453W        W70890  28.051  28.500  12.017
11454W        W70891  44.282  35.583   4.323
11455W        W70892  26.020  23.141   5.570
11456W        W70893  40.534   9.646   2.671
11457W        W70894   1.752  33.956   4.715
11458W        W70895  27.988  27.565  11.563
11459W        W70896  34.513   2.294  14.486
11460W        W70897  36.468  13.173  12.541
11461W        W70898  32.438   9.654   2.270
11462W        W70899  31.583  42.843   2.183
11463W        W70900  32.490  10.813  10.452
11464W        W70901  32.418  42.478  11.086
11465W        W70902  21.218  18.098   1.421
11466W        W70903  17.212  31.971  10.105
11467W        W70904  36.885   6.691   3.381
11468W        W70905   4.250  16.812   3.845
11469W        W70906   4.288   6.700  12.567
11470W        W70907  41.440  30.098   1.428
11471W        W70908  42.785  29.947   0.807
11472W        W70909  29.431  24.515  12.466
11473W        W70910  41.499  22.163   1.823
11474W        W70911  12.186  23.558  14.842
11475W        W70912  39.371  15.292   1.349
11476W        W70913  33.939  29.473   2.409
11477W        W70914  37.872   4.244  12.578
11478W        W70915  15.758   3.725  12.833
11479W        W70916  17.559  38.408  11.094
11480W        W70917  34.988  38.378   0.307
11481W        W70918  12.304  23.123  13.420
11482W        W70919  27.991  29.608  13.975
11483W        W70920   0.901  17.183  10.944
11484W        W70921  44.278  18.178  12.040
11485W        W70922   0.262  13.183  11.930
11486W        W70923  24.160  12.143   2.709
11487W        W70924  39.945  11.235   0.344
11488W        W70925   2.790  27.097   0.396
11489W        W70926   3.828  11.700  12.375
11490W        W70927  23.666  43.431   4.817
11491W        W70928   1.258  32.394  11.534
11492W        W70929   5.885  33.913  11.417
11493W        W70930  22.057  34.437  13.022
11494W        W70931  32.058  23.512  11.582
11495W        W70932  26.482   8.873  11.991
11496W        W70933  26.480  40.957  14.935
11497W        W70934   7.176  28.627   4.217
11498W        W70935   0.863  44.451  14.923
11499W        W70936  34.098  42.811   0.894
11500W        W70937   7.249   3.820   0.870
11501W        W70938   6.411   0.917  13.944
11502W        W70939  11.849  32.059   1.376
11503W        W70940   7.171  29.091  11.587
11504W        W70941  30.567  19.776  12.064
11505W        W70942  38.892  13.204   3.353
11506W        W70943  34.937  31.469  14.355
11507W        W70944  20.644  35.362   4.316
11508W        W70945  43.431  31.968   4.165
11509W        W70946  11.128   8.693   3.768
11510W        W70947  39.394  28.549  11.927
11511W        W70948  41.952  27.089   3.276
11512W        W70949  26.072   2.274   3.208
11513W        W70950   6.885   7.348   4.760
11514W        W70951  31.498  40.520  13.948
11515W        W70952  44.471  44.902   0.362
11516W        W70953  29.989  16.140   2.266
11517W        W70954  44.319  15.634   2.683
11518W        W70955  22.232  18.554  11.523
11519W        W70956   5.342  17.635  12.353
11520W        W70957  30.091  16.080   1.297
11521W        W70958  31.994  30.559   2.216
11522W        W70959  27.038  37.536  13.980
11523W        W70960  23.106  37.036  12.044
11524W        W70961   1.428  30.917   3.730
11525W        W70962  20.162  13.790   3.378
11526W        W70963  33.056   1.239  13.871
11527W        W70964   0.923  33.013   0.289
11528W        W70965  31.619  40.913   1.418
11529W        W70966  11.232  41.879   1.757
11530W        W70967   1.276   3.417   3.653
11531W        W70968  27.961  40.423   4.823
11532W        W70969  22.219   6.747   1.823
11533W        W70970  41.295   5.258   3.691
11534W        W70971  23.646  35.057  13.537
11535W        W70972   2.456  30.120  11.391
11536W        W70973   2.938   7.212  11.054
11537W        W70974  15.604  33.926   4.316
11538W        W70975  25.665  17.283   2.239
11539W        W70976  13.647  20.552   2.834
11540W        W70977   4.432  36.022   3.197
11541W        W70978  24.990  13.112  14.867
11542W        W70979   1.961   9.234   3.344
11543W        W70980   0.761  24.502  10.562
11544W        W70981  39.820   4.345  14.005
11545W        W70982   6.293  23.153   1.431
11546W        W70983  43.458  28.158  14.026
11547W        W70984  22.580  13.339   4.814
11548W        W70985  42.495  20.579  10.641
11549W        W70986  42.910  28.082  14.030
11550W        W70987  42.841   3.315   1.288
11551W        W70988   3.955  19.663   2.902
11552W        W70989  43.929  40.420   4.831
11553W        W70990   0.388  24.017  13.365
11554W        W70991  36.028  24.623  14.989
11555W        W70992  22.119  42.781   3.866
11556W        W70993   3.266  28.973  11.088
11557W        W70994   6.368   3.797  13.322
11558W        W70995  31.616  39.031   9.645
11559W        W70996  27.591   6.677  13.023
11560W        W70997  39.540  35.452  10.593
11561W        W70998  12.787  23.021   4.614
11562W        W70999  42.972  20.232   1.821
11563W        W71000  36.488  43.503  12.426
11564W        W71001   0.331  19.560   1.303
11565W        W71002  39.976  20.577   4.656
11566W        W71003  26.665  27.055   1.338
11567W        W71004  27.476   4.801  12.014
11568W        W71005   2.379  22.186   4.158
11569W        W71006  27.039  22.217  13.920
11570W        W71007  41.023  21.638  14.394
11571W        W71008   0.411  30.534  13.013
11572W        W71009  23.230   8.671   4.227
11573W        W71010   3.439  29.163  14.943
11574W        W71011  31.438  38.506   5.204
11575W        W71012  31.500  18.255  12.936
11576W        W71013  11.373  38.569   3.747
11577W        W71014  14.801  38.922   4.197
11578W        W71015  37.409  42.302   0.902
11579W        W71016  25.519   1.418  11.509
11580W        W71017  11.175   4.711  14.432
11581W        W71018  41.894  20.765  12.081
11582W        W71019  11.163   3.949   4.354
11583W        W71020  29.443  31.919   1.840
11584W        W71021  15.757  24.522  13.456
11585W        W71022  20.744   3.363  13.954
11586W        W71023  24.585  41.923   2.345
11587W        W71024  17.136  22.066   3.373
11588W        W71025  10.329  41.980  14.451
11589W        W71026  14.187  33.970  13.057
11590W        W71027   8.177  31.619   2.401
11591W        W71028  12.622  22.081  14.993
11592W        W71029  12.125  13.117   4.130
11593W        W71030   2.415  26.203  10.460
11594W        W71031  22.611  37.383  12.496
11595W        W71032  24.035  12.616  12.884
11596W        W71033  18.554   3.276   2.755
11597W        W71034   9.376  15.181   3.648
11598W        W71035   3.737  16.115  14.999
11599W        W71036   8.280  42.895   3.211
11600W        W71037  22.544   0.752  11.554
11601W        W71038  24.639  33.111  11.938
11602W        W71039  41.528  31.100   0.736
11603W        W71040  21.618   3.399  12.018
11604W        W71041  29.541  39.559  10.630
11605W        W71042  19.148  28.087   2.884
11606W        W71043  32.070  18.751   2.180
11607W        W71044  14.719  38.856   2.227
11608W        W71045  41.436  13.310  11.542
11609W        W71046  14.203  18.061  11.530
11610W        W71047  15.300  35.583  14.759
11611W        W71048  35.508  15.100  11.514
11612W        W71049  40.031  38.395  13.040
11613W        W71050  25.190  11.302   1.897
11614W        W71051  22.614  17.191  11.043
11615W        W71052  34.563  27.486   2.758
11616W        W71053  24.195  17.263   0.252
11617W        W71054  17.227  16.235  12.911
11618W        W71055   1.388  21.232  10.907
11619W        W71056  13.740   1.300   2.818
11620W        W71057  24.611  11.228  13.536
11621W        W71058  36.410   4.812  14.001
11622W        W71059  29.615  18.269   4.616
11623W        W71060   2.932  13.615   0.358
11624W        W71061   8.741  35.443   0.860
11625W        W71062  32.574  33.468  14.513
11626W        W71063   5.323  37.473  13.906
11627W        W71064  22.546  12.281  14.331
11628W        W71065  22.518  23.559   3.669
11629W        W71066  12.715  28.513  14.480
11630W        W71067  23.552  26.670  12.017
11631W        W71068  44.938  14.761   3.214
11632W        W71069  11.657  10.179   3.779
11633W        W71070  23.598  20.066   0.740
11634W        W71071  43.995   2.768  12.043
11635W        W71072  35.896  14.270  12.007
11636W        W71073  28.103  41.449  13.895
11637W        W71074   8.218   8.395   4.756
11638W        W71075  29.464  22.672  12.918
11639W        W71076   7.805  38.029  14.433
11640W        W71077  14.735   8.826   0.299
11641W        W71078  37.509  18.259   1.315
11642W        W71079  19.237   9.172   0.941
11643W        W71080  17.213   4.833   2.849
11644W        W71081  38.358  19.066  11.023
11645W        W71082  19.708  42.790   0.813
11646W        W71083  34.443  27.485  10.642
11647W        W71084  13.256   7.900  12.030
11648W        W71085  22.518  18.102  14.951
11649W        W71086  28.632  22.079   4.352
11650W        W71087  13.165   1.833   0.396
11651W        W71088  14.593  43.808   1.260
11652W        W71089  34.420  13.145   3.195
11653W        W71090  35.025  12.281   0.843
11654W        W71091  21.659  34.488   3.178
11655W        W71092   0.478  16.115   4.305
11656W        W71093   5.276  37.060  13.360
11657W        W71094  39.966  39.559   3.149
11658W        W71095  36.360  10.359  11.896
11659W        W71096   1.931  39.337  10.142
11660W        W71097  14.136  26.109   4.762
11661W        W71098  33.609  32.134   2.876
11662W        W71099   8.203  40.897  13.395
11663W        W71100  27.682  19.227   2.780
11664W        W71101  35.496  16.755  11.454
11665W        W71102   2.353   2.338  10.582
11666W        W71103   4.724  38.874   5.099
11667W        W71104  36.918  44.484  12.547
11668W        W71105  23.679  16.094  12.405
11669W        W71106  32.465  35.074  14.961
11670W        W71107  19.151  29.560  11.538
11671W        W71108  37.410  23.042  13.904
11672W        W71109  41.366  42.937   2.825
11673W        W71110  12.794   6.370  14.964
11674W        W71111   5.771   4.810   9.941
11675W        W71112  25.154  29.636   3.705
11676W        W71113  28.520  25.209   3.691
11677W        W71114  41.521   9.199   4.303
11678W        W71115  42.796   3.287  12.527
11679W        W71116   5.345  10.261   2.246
11680W        W71117   1.267  37.478  12.091
11681W        W71118  17.073   2.814   0.268
11682W        W71119  37.880  36.075  11.440
11683W        W71120   9.220   3.446  11.480
11684W        W71121  29.938  23.058  12.516
11685W        W71122  14.328  35.411  14.831
11686W        W71123  36.465  14.162   4.347
11687W        W71124  25.166  29.540   1.907
11688W        W71125  43.471   3.832  11.991
11689W        W71126  17.801  13.677   3.320
11690W        W71127   2.285  18.155   3.386
11691W        W71128  37.514  30.916   2.328
11692W        W71129  19.232   1.294  14.846
11693W        W71130  28.551  38.443   2.849
11694W        W71131  15.232  37.349  13.376
11695W        W71132  17.730  35.976  12.051
11696W        W71133  15.721  36.883  12.339
11697W        W71134  15.800  36.975   1.214
11698W        W71135  31.979   7.675  11.440
11699W        W71136   9.769  34.505  11.432
11700W        W71137  41.830  34.938   2.812
11701W        W71138   0.410  40.829   4.608
11702W        W71139  22.032   7.897  14.003
11703W        W71140   3.429  23.515  14.761
11704W        W71141  38.379  36.412  14.881
11705W        W71142  41.413  13.247  14.029
11706W        W71143  28.024  42.797   4.634
11707W        W71144  33.131  12.295  14.935
11708W        W71145  39.878   2.385  11.878
11709W        W71146  32.069  26.459   2.705
11710W        W71147  18.233  33.622  12.860
11711W        W71148  25.490  36.905   5.265
11712W        W71149  40.507  44.488  12.076
11713W        W71150  39.418  37.908   3.276
11714W        W71151  28.437  41.952   0.413
11715W        W71152  39.932  26.973  11.047
11716W        W71153  31.070  17.217   3.159
11717W        W71154   2.343   7.715   4.625
11718W        W71155   2.393  26.164  13.002
11719W        W71156  10.695  35.451  13.406
11720W        W71157  18.587  26.997   2.727
11721W        W71158  17.570  18.619  13.391
11722W        W71159   4.745   3.367  12.367
11723W        W71160  33.069  11.755   4.326
11724W        W71161  43.370  20.074  11.059
11725W        W71162  34.450  41.490  13.312
11726W        W71163  15.603   1.289   4.346
11727W        W71164  16.176  29.921  12.577
11728W        W71165  35.012   4.266   2.342
11729W        W71166  21.163  44.420  14.955
11730W        W71167  26.483  17.732  13.833
11731W        W71168   6.241  25.059   0.737
11732W        W71169   3.915  30.567   4.265
11733W        W71170  22.162   0.350  11.552
11734W        W71171   0.915  19.685  11.518
11735W        W71172   7.233  12.218  11.372
11736W        W71173  43.791  34.603  10.431
11737W        W71174  42.506  42.943  11.058
11738W        W71175  31.531   9.303   2.384
11739W        W71176  23.555  39.521  11.570
11740W        W71177  14.660  29.562   0.962
11741W        W71178  35.977   1.828  14.358
11742W        W71179  11.324   4.226  12.348
11743W        W71180  25.977   9.862   3.846
11744W        W71181   5.423  29.587  14.347
11745W        W71182  44.445  20.167   0.396
11746W        W71183  37.508  12.797  12.399
11747W        W71184  26.489  14.258  11.389
11748W        W71185  11.826  23.166   1.239
11749W        W71186  22.573  41.942  10.127
11750W        W71187  23.088  24.536   4.350
11751W        W71188  40.930  36.038   2.261
11752W        W71189  27.052  31.504   1.831
11753W        W71190  28.018   8.728  12.824
11754W        W71191  13.263  38.003   4.310
11755W        W71192   4.805  40.982  10.582
11756W        W71193   9.860  33.127  12.377
11757W        W71194  40.053  14.629  10.510
11758W        W71195  30.068  21.620   1.302
11759W        W71196  19.117  32.048   1.867
11760W        W71197  26.120   6.208  13.855
11761W        W71198   5.842  12.320   3.850
11762W        W71199  37.532   8.760   1.290
11763W        W71200  18.549   1.291   3.254
11764W        W71201  15.667  23.613  10.907
11765W        W71202  16.675   4.354  12.078
11766W        W71203  40.325  22.582  14.773
11767W        W71204  40.899  17.783  14.346
11768W        W71205  19.569  42.341   2.751
11769W        W71206  36.366   2.312   1.220
11770W        W71207  11.848  22.149   3.643
11771W        W71208  39.546  35.497  13.486
11772W        W71209  43.363  23.555   1.776
11773W        W71210  26.060   1.345   3.811
11774W        W71211  27.466  33.014   3.821
11775W        W71212  32.416  42.905   5.143
11776W        W71213  31.414  28.127   4.673
11777W        W71214  10.670   4.319  11.421
11778W        W71215   9.808  12.775   0.788
11779W        W71216   2.380   6.420  14.783
11780W        W71217  23.522  20.086  13.538
11781W        W71218  30.102  11.810  10.473
11782W        W71219  28.607  44.425  14.984
11783W        W71220  17.248  12.328  11.066
11784W        W71221  22.144  43.798  13.996
11785W        W71222   6.697  34.516   0.266
11786W        W71223  44.846   5.429  12.541
11787W        W71224  38.860  22.513  11.889
11788W        W71225  26.698  24.982   2.848
11789W        W71226  21.552  44.443  11.904
11790W        W71227   3.335  25.145   1.749
11791W        W71228  29.152  40.951   1.802
11792W        W71229  27.954  31.944   3.373
11793W        W71230  10.878   6.333  12.963
11794W        W71231  35.412  36.448  10.495
11795W        W71232  13.298  13.753   4.674
11796W        W71233  34.593  31.417   1.296
11797W        W71234  27.480  14.155  14.818
11798W        W71235  40.920   0.747   4.257
11799W        W71236  23.122  31.933   3.775
11800W        W71237  31.092  38.912   9.586
11801W        W71238  18.640  27.512  13.313
11802W        W71239  30.969  38.004  11.462
11803W        W71240  19.193  23.630   1.873
11804W        W71241  12.622  33.617  13.811
11805W        W71242  33.087  22.656  13.528
11806W        W71243  17.624  40.019  13.982
11807W        W71244   9.233  40.035   3.296
11808W        W71245   0.818  33.439  13.415
11809W        W71246   6.290  34.599  13.432
11810W        W71247  32.116  26.567   1.766
11811W        W71248  17.097  19.768  11.568
11812W        W71249  43.481  13.845  13.366
11813W        W71250  29.957  42.979  10.489
11814W        W71251  41.506  14.633  11.503
11815W        W71252   8.764  44.498  14.392
11816W        W71253  40.388  39.372  12.998
11817W        W71254  37.522  27.542   3.221
11818W        W71255  14.269   6.352  12.867
11819W        W71256   8.341  37.465   0.291
11820W        W71257   5.254  44.304   4.706
11821W        W71258   5.310  22.739   1.908
11822W        W71259   6.397  13.236   2.256
11823W        W71260   5.222  17.093  13.388
11824W        W71261  17.132  25.118  14.320
11825W        W71262  41.985  21.534   4.620
11826W        W71263  10.252  32.140   5.099
11827W        W71264  34.490  27.018  11.111
11828W        W71265  27.621  33.452  14.934
11829W        W71266  16.637   4.449  14.997
11830W        W71267  17.115  13.746   2.839
11831W        W71268  33.487   1.805  10.429
11832W        W71269  28.123  10.223   0.922
11833W        W71270   6.875  19.248   2.396
11834W        W71271   8.346   3.333   3.195
11835W        W71272   8.364  34.920  12.530
11836W        W71273   5.427  17.654   2.857
11837W        W71274  17.577  17.655   2.339
11838W        W71275  29.035  12.289  10.890
11839W        W71276  25.167  38.454  12.974
11840W        W71277  29.071  43.291   1.339
11841W        W71278  35.450  37.476   0.903
11842W        W71279  41.934  44.781  14.290
11843W        W71280  33.617  38.526   3.814
11844W        W71281  25.622  42.023  13.439
11845W        W71282  18.650  26.604  11.990
11846W        W71283  13.334  42.338   1.694
11847W        W71284  18.791   5.306   0.416
11848W        W71285   0.470   3.902   2.278
11849W        W71286   3.843  27.189   2.355
11850W        W71287   2.913  20.617  13.425
11851W        W71288  44.348  23.229  14.442
11852W        W71289  15.149  37.550   4.621
11853W        W71290  18.667   7.781   1.933
11854W        W71291  41.422  24.605  11.858
11855W        W71292  32.566   0.955  13.974
11856W        W71293  26.496  22.124   9.943
11857W        W71294  28.065  43.350   2.901
11858W        W71295  10.652  24.226  10.492
11859W        W71296  19.657  21.579   3.315
11860W        W71297  35.528  26.468   4.209
11861W        W71298  39.053  33.461  14.857
11862W        W71299  37.531  17.226   5.248
11863W        W71300  40.380  34.999  14.307
11864W        W71301  20.733  40.970  12.402
11865W        W71302   4.342   7.689   0.800
11866W        W71303  21.571  40.468   4.616
11867W        W71304  36.876  10.293  13.025
11868W        W71305   4.344  18.682  13.413
11869W        W71306  17.715   7.256   3.727
11870W        W71307  41.908  33.576   4.283
11871W        W71308  28.985  29.587   2.322
11872W        W71309  27.545   8.233   2.298
11873W        W71310  15.223  39.534  10.538
11874W        W71311  34.017  27.075   2.887
11875W        W71312  17.772  13.769  14.394
11876W        W71313  27.197  15.586   3.642
11877W        W71314  18.162  35.059   3.824
11878W        W71315  22.506  16.196  13.452
11879W        W71316  44.293  40.013  14.339
11880W        W71317  18.230  21.131   2.361
11881W        W71318  29.567  37.035  12.096
11882W        W71319  37.468  44.928  14.489
11883W        W71320  26.086   9.354  11.577
11884W        W71321   7.330  28.477  12.981
11885W        W71322  10.336  12.732  13.415
11886W        W71323  22.672  17.743  12.357
11887W        W71324  25.650   0.380  10.415
11888W        W71325  43.907  38.569  14.835
11889W        W71326  18.773   9.710   4.616
11890W        W71327  22.109  10.251  12.060
11891W        W71328  14.784   3.294   4.316
11892W        W71329  18.154  20.767  13.799
11893W        W71330  28.171  40.394   4.321
11894W        W71331   5.242  28.042   2.382
11895W        W71332  12.197  28.014  12.383
11896W        W71333  11.682  21.106   2.299
11897W        W71334  30.113   6.361   3.764
11898W        W71335   3.426  40.505   3.342
11899W        W71336   6.773  16.692   3.369
11900W        W71337  41.355  43.773  14.031
11901W        W71338  26.050  39.955   3.249
11902W        W71339  22.598  21.124   2.306
11903W        W71340   2.273  37.857   2.746
11904W        W71341  12.804  43.439  11.121
11905W        W71342  36.894  15.095  10.948
11906W        W71343  17.698   5.324  11.961
11907W        W71344  31.126   3.258  14.435
11908W        W71345   4.308   4.210   2.676
11909W        W71346  10.866  21.256  12.500
11910W        W71347   0.919  42.988   3.356
11911W        W71348  11.745  36.874  11.379
11912W        W71349  40.452  36.445  13.963
11913W        W71350  21.033  36.930   4.681
11914W        W71351  29.165  11.739  12.040
11915W        W71352  17.624  11.304  11.604
11916W        W71353  21.039  13.689   3.680
11917W        W71354  30.081  36.541   2.847
11918W        W71355  12.259  28.610  14.324
11919W        W71356  41.820  23.559   4.311
11920W        W71357  13.728  13.284   0.412
11921W        W71358  32.103  40.415  13.441
11922W        W71359  23.686  27.024   0.802
11923W        W71360   3.242  12.660  14.388
11924W        W71361  34.014  18.667   3.687
11925W        W71362  16.266   6.312  13.814
11926W        W71363  34.611  41.523   1.922
11927W        W71364   8.290  31.410  11.062
11928W        W71365  11.187  36.882  13.478
11929W        W71366  44.794   6.258   4.120
11930W        W71367  35.604  20.639  14.430
11931W        W71368  15.724  42.991  13.807
11932W        W71369  36.567  41.006  14.873
11933W        W71370  27.103  15.619   2.333
11934W        W71371  20.227  42.991   2.683
11935W        W71372  37.572  18.230   0.455
11936W        W71373   3.238  29.550  10.611
11937W        W71374   7.718  26.060  13.829
11938W        W71375   4.819   0.802  14.850
11939W        W71376   0.289   3.439  12.087
11940W        W71377  10.827  41.807  10.526
11941W        W71378  41.376  41.477  10.642
11942W        W71379  38.491  24.165   1.742
11943W        W71380  16.220  43.822   4.174
11944W        W71381  24.151  42.481  12.500
11945W        W71382  40.012  22.219  12.500
11946W        W71383  36.855  12.343  12.544
11947W        W71384  23.565  24.498   4.776
11948W        W71385  43.345   7.750   2.673
11949W        W71386  30.053  29.475   2.757
11950W        W71387  30.599  36.006   1.924
11951W        W71388  25.155  17.287  13.475
11952W        W71389  31.532  24.987  13.527
11953W        W71390   4.347  32.064  10.570
11954W        W71391  43.322  14.136   0.740
11955W        W71392  41.015  11.249   1.703
11956W        W71393  18.729  20.653  11.000
11957W        W71394  23.113  26.547   1.288
11958W        W71395  41.971  12.126   4.642
11959W        W71396  21.668  40.321  14.938
11960W        W71397  44.399  24.691   4.643
11961W        W71398   0.411   5.820   4.697
11962W        W71399  12.811  13.295  13.486
11963W        W71400  23.492  37.029   1.388
11964W        W71401   2.776  40.430  14.894
11965W        W71402  13.158  31.042  11.554
11966W        W71403  44.298   2.855   3.681
11967W        W71404  13.129  23.510  11.516
11968W        W71405   7.399  25.577  11.923
11969W        W71406  32.615  38.523  13.497
11970W        W71407  39.880  12.676  10.985
11971W        W71408   3.379  40.449   2.387
11972W        W71409  29.583  14.284   5.093
11973W        W71410  20.649   9.303   3.207
11974W        W71411  35.489  22.191  11.000
11975W        W71412  14.244  31.633  12.365
11976W        W71413  16.787  30.534  10.598
11977W        W71414  26.175  13.267   5.291
11978W        W71415  22.546  44.927   3.203
11979W        W71416  31.981  22.177  10.927
11980W        W71417   7.324  30.571   1.435
11981W        W71418  17.681   9.224  13.546
11982W        W71419  10.783  43.868   1.369
11983W        W71420  16.613  25.485   0.742
11984W        W71421   8.325  15.209   1.358
11985W        W71422  18.060  18.093  13.340
11986W        W71423  27.471  28.087   0.482
11987W        W71424  22.013  18.215   3.333
11988W        W71425   9.671  29.503   4.709
11989W        W71426  31.532  38.474  10.095
11990W        W71427   0.402  31.585  12.387
11991W        W71428   1.320   8.667  13.861
11992W        W71429  34.006  38.529  11.594
11993W        W71430  20.769  32.957   2.302
11994W        W71431  21.730   8.782  11.532
11995W        W71432  28.553  26.560  11.371
11996W        W71433   5.688  29.486  14.848
11997W        W71434  17.678  11.200   3.215
11998W        W71435   5.277  41.481   4.305
11999W        W71436  37.848  34.388  14.764
12000W        W71437  22.733  11.197  10.577
12001W        W71438  36.501   0.771   1.699
12002W        W71439  21.642  43.786   2.208
12003W        W71440  29.487  17.302   2.701
12004W        W71441  16.246  33.975   4.670
12005W        W71442   6.862   2.833   1.298
12006W        W71443  38.891  37.532   0.900
12007W        W71444   5.383  39.950   2.766
12008W        W71445  22.506  20.627   4.247
12009W        W71446  32.624  10.312  11.034
12010W        W71447  26.618  42.796   3.768
12011W        W71448  12.191   1.911  11.460
12012W        W71449  30.161  36.509   4.309
12013W        W71450   8.809  22.074  11.489
12014W        W71451  39.382  36.363  12.941
12015W        W71452  44.348   6.776   1.370
12016W        W71453  10.837  17.784   2.307
12017W        W71454  43.444  11.759   4.224
12018W        W71455  28.952  13.316  14.999
12019W        W71456  22.112  44.274  12.410
12020W        W71457  26.675  24.505  11.959
12021W        W71458  44.886  27.543   3.846
12022W        W71459  30.526  36.063   4.127
12023W        W71460   7.896  24.638  10.580
12024W        W71461  10.867  41.913  12.523
12025W        W71462  40.392   6.235  11.489
12026W        W71463  34.053  38.543  13.820
12027W        W71464  19.751  29.963  13.543
12028W        W71465  35.970  38.519  14.355
12029W        W71466  35.434  17.677  10.554
12030W        W71467  39.548  21.653  12.029
12031W        W71468  43.919  39.882  14.002
12032W        W71469   4.790  21.041  12.526
12033W        W71470  32.122   1.401  14.305
12034W        W71471   3.430  26.687  13.039
12035W        W71472  22.151   9.367   3.640
12036W        W71473  32.039  16.712   3.368
12037W        W71474  19.723  27.690  11.861
12038W        W71475  26.671   0.436  14.325
12039W        W71476  44.798  32.080  10.986
12040W        W71477  41.308  37.905  12.069
12041W        W71478  32.893  31.058   3.828
12042W        W71479  17.556  32.394  13.998
12043W        W71480  34.495  36.988   4.737
12044W        W71481  14.205  24.680   1.310
12045W        W71482  16.579  37.041   2.889
12046W        W71483  13.625  10.293  14.514
12047W        W71484  28.085  44.866   3.816
12048W        W71485  10.348  29.090   4.821
12049W        W71486  23.219  20.112  13.397
12050W        W71487  41.852  15.613   2.812
12051W        W71488  17.254  39.039  14.909
12052W        W71489  15.753  42.424  12.419
12053W        W71490  26.575   7.848   1.718
12054W        W71491  22.636   2.759   1.239
12055W        W71492   7.314  29.591   0.915
12056W        W71493  44.813  34.982   1.257
12057W        W71494  38.038  42.413   2.336
12058W        W71495   0.382   5.312  14.887
12059W        W71496  26.514  27.098   2.710
12060W        W71497   1.272  41.477  13.529
12061W        W71498  31.981   5.870   5.241
12062W        W71499  33.518  24.682  11.603
12063W        W71500   1.391  32.951   4.617
12064W        W71501  14.105  35.533  13.395
12065W        W71502  39.008  27.155   1.408
12066W        W71503  17.214   0.266  10.096
12067W        W71504   2.828  25.546   1.934
12068W        W71505  36.446  17.711   3.262
12069W        W71506  32.519   3.805  13.319
12070W        W71507  24.140  11.237  14.504
12071W        W71508  34.965   0.398   9.996
12072W        W71509  20.092  35.375  11.440
12073W        W71510   0.872  11.741   9.591
12074W        W71511  34.060   6.246  10.617
12075W        W71512  21.693  17.190   2.746
12076W        W71513  14.704  37.076   0.957
12077W        W71514  17.176   7.741   3.732
12078W        W71515  13.306  16.669   2.892
12079W        W71516  22.644   9.305   4.776
12080W        W71517  42.290  20.040   3.827
12081W        W71518   6.319  10.186  13.484
12082W        W71519  42.350  30.048  14.286
12083W        W71520  32.407  43.458  14.499
12084W        W71521  14.831  32.056   0.917
12085W        W71522  18.172  26.033  10.556
12086W        W71523  25.472  30.501   2.856
12087W        W71524   3.261  20.760   3.358
12088W        W71525  13.228   8.848   2.211
12089W        W71526  37.416  15.678   1.866
12090W        W71527  33.929  17.157  14.853
12091W        W71528  30.039  15.704   1.905
12092W        W71529  38.514   7.377  12.385
12093W        W71530  26.703   6.183   2.663
12094W        W71531  26.625   4.380   1.813
12095W        W71532  27.969  11.707  12.841
12096W        W71533  29.631  40.817   0.919
12097W        W71534  18.087  14.160  14.886
12098W        W71535   1.341  41.418  13.013
12099W        W71536  39.976  29.536   3.235
12100W        W71537  44.448   1.875  12.558
12101W        W71538  22.213  12.630  11.971
12102W        W71539  25.191  37.448  10.111
12103W        W71540  25.969  37.349   1.761
12104W        W71541  19.087  15.265  10.081
12105W        W71542  37.939  29.070  10.592
12106W        W71543  44.449   1.754   1.928
12107W        W71544  25.650  37.573  12.976
12108W        W71545  20.159   2.817   3.196
12109W        W71546  27.576  33.414   2.294
12110W        W71547  19.177  30.151  10.514
12111W        W71548  25.607  11.314  11.438
12112W        W71549  37.970  39.323   3.631
12113W        W71550  42.781  26.600  11.870
12114W        W71551   1.321  16.244  11.572
12115W        W71552  31.111   5.739   1.230
12116W        W71553  42.465  29.647   1.899
12117W        W71554   7.770   7.310   4.255
12118W        W71555  15.733  25.583  11.565
12119W        W71556   1.470  10.204  11.395
12120W        W71557   0.318  28.544  11.468
12121W        W71558   5.910  25.118  10.454
12122W        W71559  15.653  41.818   0.461
12123W        W71560  11.166  12.147  14.862
12124W        W71561  29.651  29.487   1.263
12125W        W71562   3.374   2.453  10.918
12126W        W71563  26.470  34.009  13.442
12127W        W71564  42.390  20.665  11.058
12128W        W71565  26.615   4.728   5.196
12129W        W71566  41.948  30.108   2.852
12130W        W71567  25.204   4.336  11.040
12131W        W71568  26.046   8.678  14.016
12132W        W71569  23.510  29.136   3.370
12133W        W71570  31.639  22.705  14.014
12134W        W71571  16.748  23.083   3.764
12135W        W71572  42.351  38.447   4.222
12136W        W71573  38.438  28.146   2.273
12137W        W71574  42.881  24.577  12.854
12138W        W71575  25.990   2.789  13.035
12139W        W71576  25.012  36.590  12.396
12140W        W71577   6.322  42.890   0.810
12141W        W71578   3.239  17.579  13.921
12142W        W71579  31.086  16.650  10.629
12143W        W71580  14.723  25.096  14.407
12144W        W71581  31.138   2.352   4.663
12145W        W71582   6.297  36.848   2.361
12146W        W71583  25.584  32.397   2.823
12147W        W71584   1.821  17.187   2.793
12148W        W71585   4.928  26.615  14.882
12149W        W71586  30.117  31.486  12.010
12150W        W71587  40.850  42.367   4.125
12151W        W71588  19.679  26.025  13.944
12152W        W71589   3.795   5.263   3.798
12153W        W71590  11.227  25.473  13.525
12154W        W71591   2.769  16.243  12.823
12155W        W71592  37.391   4.756  10.513
12156W        W71593  38.903  23.680   4.730
12157W        W71594  17.275  43.929  14.404
12158W        W71595  37.961  32.466   0.408
12159W        W71596  39.810  44.792  14.902
12160W        W71597  44.302  20.044  10.895
12161W        W71598  19.196  35.542  14.984
12162W        W71599  27.649  39.393   3.729
12163W        W71600  26.513  38.490  13.453
12164W        W71601  13.161   5.200  12.393
12165W        W71602  28.436  26.474  10.638
12166W        W71603  23.659  18.633  13.467
12167W        W71604  24.059  19.643  14.776
12168W        W71605  25.666  10.717  11.875
12169W        W71606   7.684  26.094   1.789
12170W        W71607  12.650  41.928  14.766
12171W        W71608  23.541   1.313  12.070
12172W        W71609  42.025  21.669  10.952
12173W        W71610  23.640  41.497  13.011
12174W        W71611   5.792  43.818  13.462
12175W        W71612   2.286   4.747   5.092
12176W        W71613  43.939   1.825  10.527
12177W        W71614  23.713  16.732   4.644
12178W        W71615  41.377   9.348   3.256
12179W        W71616   1.263   2.354  13.330
12180W        W71617  20.749  32.394   1.783
12181W        W71618  25.504  27.011   4.311
12182W        W71619  30.929  41.398   4.251
12183W        W71620  38.430  44.428   3.183
12184W        W71621  44.977  38.527  11.855
12185W        W71622   3.945  23.029  12.020
12186W        W71623  20.601   8.737   2.300
12187W        W71624  30.484  40.020  12.506
12188W        W71625  24.649  27.568   3.299
12189W        W71626  40.505   6.849  10.481
12190W        W71627  20.134  23.563  10.027
12191W        W71628  15.809  18.057   1.346
12192W        W71629   0.975   3.916   3.795
12193W        W71630  15.155  34.057   0.331
12194W        W71631  19.712  38.938   3.242
12195W        W71632  14.676  25.511   0.930
12196W        W71633  24.607   9.841  11.880
12197W        W71634  42.494  24.010   4.194
12198W        W71635  11.314  21.072   0.728
12199W        W71636  43.951  39.857   1.337
12200W        W71637  18.712  32.556  11.074
12201W        W71638  11.831  19.762   3.707
12202W        W71639  34.925  37.060  11.421
12203W        W71640   5.689  12.742  14.861
12204W        W71641  40.045   2.816   1.338
12205W        W71642  25.546  16.749   1.764
12206W        W71643  33.626  43.361  11.905
12207W        W71644  35.034   2.404  14.955
12208W        W71645  15.647  25.975  10.964
12209W        W71646   0.396  36.426   0.744
12210W        W71647  36.356  19.699   1.850
12211W        W71648  11.731  34.933   1.840
12212W        W71649  34.932  34.533   0.900
12213W        W71650  26.673  41.466   3.168
12214W        W71651   7.409  16.090   2.391
12215W        W71652  31.507  43.788   3.648
12216W        W71653  36.482   2.754  10.440
12217W        W71654  15.801  42.351  13.317
12218W        W71655  36.481  39.039   3.150
12219W        W71656  42.901  12.826  10.451
12220W        W71657  28.098  44.844  10.427
12221W        W71658  15.319  23.009  13.539
12222W        W71659  35.860   7.259   2.888
12223W        W71660  27.065  39.954  11.442
12224W        W71661  12.672   0.385   4.619
12225W        W71662  35.032  27.945   0.813
12226W        W71663  34.891  12.120   3.315
12227W        W71664   3.351  39.325   0.966
12228W        W71665  34.533  31.038   2.830
12229W        W71666  29.620  32.551  14.864
12230W        W71667  25.073  26.572  11.051
12231W        W71668  29.483  33.081   2.704
12232W        W71669  39.058  16.292  12.529
12233W        W71670  29.927   6.700   4.818
12234W        W71671   9.191  42.457  12.410
12235W        W71672  15.741  19.182   0.844
12236W        W71673  43.997  20.196   4.813
12237W        W71674  32.077  34.993   5.175
12238W        W71675   0.436  25.089   0.253
12239W        W71676  41.919  32.447   2.188
12240W        W71677  19.710  24.582   3.802
12241W        W71678  29.609  29.097   2.278
12242W        W71679  19.215  26.581  12.024
12243W        W71680  12.755  24.585   4.793
12244W        W71681  19.239  28.103   3.160
12245W        W71682  11.798  20.621   4.633
12246W        W71683   1.910  31.459   2.765
12247W        W71684  24.016  43.785   4.747
12248W        W71685  28.054   7.232   1.429
12249W        W71686  44.998  43.312  13.376
12250W        W71687  35.862  26.195   4.194
12251W        W71688  37.484  13.829   2.295
12252W        W71689  42.958  24.676  10.567
12253W        W71690  25.021  33.503   3.336
12254W        W71691  28.477  34.896   3.724
12255W        W71692   4.767  30.481  11.458
12256W        W71693  21.035   5.885  12.352
12257W        W71694  41.296  35.592   0.270
12258W        W71695  22.155  44.336  12.968
12259W        W71696  26.627  43.883   3.333
12260W        W71697  15.620  15.257   4.161
12261W        W71698  28.951   3.815   4.730
12262W        W71699  27.659  20.096   4.753
12263W        W71700  21.112  27.056  13.865
12264W        W71701  34.536  31.551   2.400
12265W        W71702   4.223   5.252  14.422
12266W        W71703  38.354  42.372  14.914
12267W        W71704  12.188  15.215  12.376
12268W        W71705   8.683  16.293  11.480
12269W        W71706   6.201  13.291  11.425
12270W        W71707  23.661   1.361  11.117
12271W        W71708  28.675  16.242  10.956
12272W        W71709  44.867  12.116  11.981
12273W        W71710   7.684  10.284   0.868
12274W        W71711  17.662  43.906   1.242
12275W        W71712   2.436  35.883  10.078
12276W        W71713  20.074  21.667  14.340
12277W        W71714  11.359  26.999  10.950
12278W        W71715  26.045  38.872   1.344
12279W        W71716  31.149  36.068  14.492
12280W        W71717  41.018  15.782  14.345
12281W        W71718   4.860  26.599   1.770
12282W        W71719  17.222   2.298   0.950
12283W        W71720  18.730  22.619  13.802
12284W        W71721  29.653  30.558   1.736
12285W        W71722   7.322  34.959  12.448
12286W        W71723  38.023  14.173   2.225
12287W        W71724   3.263  42.010  10.956
12288W        W71725  17.622   1.288  11.435
12289W        W71726  24.189  24.059  12.949
12290W        W71727   0.491   6.260  11.040
12291W        W71728  41.852  28.588  14.987
12292W        W71729  26.107   0.256   0.356
12293W        W71730  20.588  44.789   4.608
12294W        W71731  33.088  42.869   1.796
12295W        W71732  41.042   1.409   0.409
12296W        W71733  11.638  34.439  11.562
12297W        W71734  28.654  26.190   4.172
12298W        W71735   8.734  24.544  13.477
12299W        W71736  33.017  12.754  14.355
12300W        W71737   0.402  31.066  11.029
12301W        W71738  37.970  37.063  11.922
12302W        W71739   3.429   7.310   3.254
12303W        W71740  15.322   3.782  12.988
12304W        W71741  26.528  41.922  11.882
12305W        W71742  10.250   4.700   4.342
12306W        W71743  19.052   1.850  13.884
12307W        W71744   6.322  41.463  10.524
12308W        W71745   8.172  25.117   1.393
12309W        W71746   4.908   8.816   4.820
12310W        W71747  18.290  28.096  14.490
12311W        W71748  37.085  22.109   0.418
12312W        W71749   4.243   4.275  10.946
12313W        W71750   0.935   1.883  10.594
12314W        W71751  38.354   3.455   2.239
12315W        W71752  21.210  24.127  13.052
12316W        W71753  26.569  37.080  14.779
12317W        W71754  32.025   0.845   3.207
12318W        W71755  37.517   6.218  11.081
12319W        W71756  30.088  15.116   2.190
12320W        W71757   2.801  35.383  12.974
12321W        W71758  26.675   7.348  11.402
12322W        W71759  34.005   8.864   0.775
12323W        W71760  37.927  26.179   0.818
12324W        W71761  39.892  39.936   3.203
12325W        W71762  15.092  36.566   3.801
12326W        W71763  21.651  41.437  10.416
12327W        W71764  28.623  36.966  10.026
12328W        W71765  33.050   1.732   2.337
12329W        W71766  38.827  25.169   0.768
12330W        W71767  13.179  34.517   3.637
12331W        W71768   0.284   0.786   3.335
12332W        W71769  40.007   2.297  13.462
12333W        W71770  44.448  29.548   2.820
12334W        W71771  31.535  19.090   4.188
12335W        W71772  39.894  16.135   4.293
12336W        W71773  27.979  15.699   9.942
12337W        W71774  36.506  38.002   3.714
12338W        W71775  33.027  43.009   2.734
12339W        W71776  43.477  40.472  13.383
12340W        W71777  16.583  42.826   5.236
12341W        W71778  28.511   8.261  13.515
12342W        W71779  14.824   3.349   0.859
12343W        W71780  13.169  10.256  13.007
12344W        W71781  22.038  38.363  10.419
12345W        W71782  31.498  14.132  12.462
12346W        W71783   0.946   8.237   4.704
12347W        W71784  11.759  21.528  14.275
12348W        W71785  32.950  43.864  14.997
12349W        W71786  22.650   1.243  12.030
12350W        W71787  31.528  37.518  13.994
12351W        W71788  28.518   4.356   4.162
12352W        W71789  22.673  18.713   3.690
12353W        W71790  20.257   8.289  10.615
12354W        W71791  38.356  43.774  11.103
12355W        W71792  24.205  24.021  11.063
12356W        W71793  25.006  33.039   4.137
12357W        W71794  44.352  43.814   0.254
12358W        W71795  33.621  41.337   2.821
12359W        W71796   9.678   0.916   3.323
12360W        W71797  15.794  26.562  11.376
12361W        W71798  10.316  36.392   0.414
12362W        W71799  41.962   3.357   3.151
12363W        W71800  10.153  31.647  13.419
12364W        W71801  15.248  17.716   1.715
12365W        W71802  14.153  30.039  14.494
12366W        W71803  19.728  19.666  13.942
12367W        W71804  29.052  41.394  14.824
12368W        W71805  42.525  27.474  12.528
12369W        W71806  25.215  36.469   0.782
12370W        W71807   6.910   4.918   3.866
12371W        W71808  38.467  43.771  14.882
12372W        W71809   9.377  27.542   2.774
12373W        W71810   7.800  17.630  10.439
12374W        W71811   3.837   7.192  11.430
12375W        W71812  43.794  25.542  11.379
12376W        W71813  25.067  10.727  13.978
12377W        W71814   2.456   5.830   2.843
12378W        W71815  19.193   0.295   0.472
12379W        W71816  20.705   6.713  10.573
12380W        W71817  40.488   9.669  14.462
12381W        W71818  20.602  34.464  13.504
12382W        W71819   9.217  17.277  14.476
12383W        W71820  41.929  21.574  12.442
12384W        W71821  34.543   9.874  12.936
12385W        W71822  28.952  28.020   1.893
12386W        W71823  44.440  39.826   4.721
12387W        W71824  16.735  39.966   3.852
12388W        W71825   5.278  32.053  11.482
12389W        W71826  26.021  22.719   3.841
12390W        W71827  20.058   0.910  13.953
12391W        W71828  14.235   3.727   2.210
12392W        W71829  42.830  41.410  12.000
12393W        W71830   1.405   4.230  12.545
12394W        W71831  31.958  24.608  14.401
12395W        W71832  38.351  28.501   2.375
12396W        W71833   1.451  12.148   2.244
12397W        W71834   0.488  30.941   1.788
12398W        W71835  29.428  10.297   0.264
12399W        W71836   3.716  10.164   3.706
12400W        W71837  25.034  25.609  11.906
12401W        W71838  26.469  36.378   4.119
12402W        W71839  34.997  36.500   2.195
12403W        W71840  40.814  35.499   0.389
12404W        W71841  31.918  38.858   3.255
12405W        W71842  23.136  40.303  12.412
12406W        W71843  31.110  22.025  10.554
12407W        W71844  24.190  30.464  11.110
12408W        W71845   9.700  20.091   4.684
12409W        W71846  43.789  26.093   4.621
12410W        W71847   7.242  18.749   4.160
12411W        W71848  29.498  18.711  11.972
12412W        W71849  36.424   1.379   2.373
12413W        W71850  23.036  12.357  10.934
12414W        W71851   0.956  24.171  14.808
12415W        W71852   1.370  35.896  13.005
12416W        W71853   0.968  37.420  12.825
12417W        W71854  16.699  10.815   3.203
12418W        W71855  16.603   7.249   0.368
12419W        W71856  29.632  18.574  13.315
12420W        W71857   1.401  32.441  12.429
12421W        W71858   2.329   1.392   0.847
12422W        W71859  28.011  21.124   3.374
12423W        W71860   0.413  18.280  12.428
12424W        W71861  25.996   1.302   4.295
12425W        W71862  35.030  43.885  11.085
12426W        W71863  20.222   0.855  11.531
12427W        W71864  10.762  37.924  11.056
12428W        W71865  24.973  29.589  13.041
12429W        W71866   4.884   1.321   4.317
12430W        W71867  25.686   6.221  10.431
12431W        W71868  40.404   6.375  12.361
12432W        W71869  13.755  39.313  11.094
12433W        W71870   7.903  20.675   3.200
12434W        W71871  16.708  22.143  12.080
12435W        W71872  38.046   7.405  13.464
12436W        W71873   8.400   1.919   2.819
12437W        W71874  18.781  14.829   9.605
12438W        W71875  24.679  34.894  10.956
12439W        W71876  30.498  17.711  12.861
12440W        W71877  38.498  11.244  12.379
12441W        W71878  44.875   1.847   5.300
12442W        W71879  26.007  33.461   1.222
12443W        W71880  24.054  10.208   0.951
12444W        W71881  12.257  20.160   0.952
12445W        W71882  29.095  17.189   1.351
12446W        W71883  40.467  27.465  12.575
12447W        W71884  27.569  39.381  14.379
12448W        W71885   6.353  12.698  12.574
12449W        W71886  38.891  43.354   2.262
12450W        W71887  22.108  15.606  13.813
12451W        W71888  18.552  23.032   4.611
12452W        W71889  29.961  27.008  14.342
12453W        W71890  18.096   3.409   2.281
12454W        W71891  20.599  30.067   3.663
12455W        W71892  40.533   7.215   9.961
12456W        W71893  41.803  40.857  13.848
12457W        W71894  34.942  25.036   1.349
12458W        W71895  39.560  44.753   1.373
12459W        W71896   4.206  36.902  11.049
12460W        W71897  43.987  39.412   1.440
12461W        W71898  30.933  22.594  13.809
12462W        W71899  39.465  30.487  14.895
12463W        W71900  29.581  28.175   2.400
12464W        W71901  28.678  12.664  14.447
12465W        W71902   9.768  34.536  11.121
12466W        W71903  26.006   3.330  10.406
12467W        W71904   3.439   9.370   2.842
12468W        W71905  38.849   3.940   0.850
12469W        W71906  41.031  23.494   3.269
12470W        W71907   5.790  32.601  13.010
12471W        W71908  19.134  33.949  12.978
12472W        W71909   8.382  26.593   4.254
12473W        W71910  21.109  29.668  11.057
12474W        W71911   6.279   4.834  12.416
12475W        W71912  36.457  39.948   5.202
12476W        W71913   7.323  24.615  14.804
12477W        W71914  41.808   3.305  12.576
12478W        W71915   2.721  29.945   4.246
12479W        W71916  42.399  24.165  12.471
12480W        W71917   0.286  18.565  11.052
12481W        W71918  18.743  34.502  11.528
12482W        W71919   5.269  41.381   0.269
12483W        W71920  38.555   0.744  12.555
12484W        W71921  28.081  19.738  10.956
12485W        W71922   1.331  37.541  13.871
12486W        W71923   9.376   1.398   4.789
12487W        W71924  33.520   1.816   2.326
12488W        W71925  30.589   2.251   1.796
12489W        W71926  18.060  15.085  10.644
12490W        W71927  38.360   6.269   3.358
12491W        W71928  15.214  25.208  10.636
12492W        W71929   8.673  18.666  11.564
12493W        W71930  42.911  19.556   2.703
12494W        W71931  30.644  34.560  12.457
12495W        W71932  40.022  30.600  14.410
12496W        W71933  10.786  15.751   0.380
12497W        W71934  40.375   5.687  10.060
12498W        W71935  27.633   1.330  13.062
12499W        W71936  19.559  33.047   1.396
12500W        W71937   3.856   4.319  11.109
12501W        W71938  23.188  35.953  12.969
12502W        W71939  29.450  38.059  14.784
12503W        W71940  10.633  34.568   3.677
12504W        W71941  24.070  29.942   3.296
12505W        W71942  29.105  29.606  13.811
12506W        W71943  30.991   1.243   1.414
12507W        W71944  32.925  26.989   3.776
12508W        W71945  42.957  31.645   2.767
12509W        W71946  25.051  11.746   0.876
12510W        W71947  20.621  21.533  14.445
12511W        W71948  35.016  35.034   1.262
12512W        W71949  20.215  25.212   2.300
12513W        W71950   5.927  27.190  12.443
12514W        W71951  39.955   1.783  10.546
12515W        W71952  27.107  43.870  14.804
12516W        W71953   2.931   9.659  14.341
12517W        W71954  33.464  22.701  11.925
12518W        W71955  12.729   5.413   3.675
12519W        W71956  17.775   8.274   2.220
12520W        W71957  39.986  37.525  14.824
12521W        W71958   8.290  29.058   4.327
12522W        W71959  12.226   4.781   1.763
12523W        W71960  24.524  25.993  13.450
12524W        W71961  16.607  30.063   3.858
12525W        W71962  17.701  27.958   0.952
12526W        W71963  25.622  13.214   1.343
12527W        W71964  35.953  35.550   4.735
12528W        W71965  40.973  43.777   0.449
12529W        W71966  19.040  36.964   1.379
12530W        W71967   6.406  32.925   4.207
12531W        W71968  26.495  29.450   2.694
12532W        W71969  35.406  16.625   4.182
12533W        W71970  13.179  38.837  14.827
12534W        W71971   3.231  28.669  10.946
12535W        W71972  39.999  31.139   3.833
12536W        W71973  35.470  35.429  14.334
12537W        W71974  29.077  35.370  11.525
12538W        W71975  30.926  29.651   1.285
12539W        W71976   9.659  31.575   3.787
12540W        W71977  15.174   6.340   3.234
12541W        W71978  11.354  44.270  13.877
12542W        W71979  12.685  13.334  13.827
12543W        W71980  36.890  19.590  12.937
12544W        W71981  40.532  34.524  13.518
12545W        W71982  22.607  39.939   4.265
12546W        W71983  31.643  37.834  12.912
12547W        W71984   1.473   4.854  14.334
12548W        W71985   6.363  12.196  11.030
12549W        W71986  40.017  28.970   1.315
12550W        W71987  44.401  17.090  12.013
12551W        W71988  26.597   5.368   1.855
12552W        W71989  12.822   2.336  12.489
12553W        W71990  41.519  21.235   3.751
12554W        W71991   0.987  26.604   4.725
12555W        W71992  14.728  34.421  13.428
12556W        W71993   1.803   9.863   0.340
12557W        W71994  11.778  39.469  10.160
12558W        W71995   5.265   5.854  14.897
12559W        W71996  13.283  32.892   4.622
12560W        W71997  19.568   1.363   1.221
12561W        W71998   8.682  31.948   3.647
12562W        W71999   6.282  44.395   0.456
12563W        W72000  37.374  30.106   0.284
12564W        W72001  12.177   2.841  10.642
12565W        W72002  38.027  25.974   2.746
12566W        W72003  35.053   0.903  12.891
12567W        W72004   2.379  44.303  12.948
12568W        W72005  22.503  32.513   0.425
12569W        W72006  19.196  41.965  14.772
12570W        W72007  18.220  23.500  11.050
12571W        W72008  43.283   1.876  14.817
12572W        W72009  24.039  28.183  11.880
12573W        W72010   7.398  42.949  10.448
12574W        W72011  43.354  24.530  14.474
12575W        W72012  27.503   3.329   3.795
12576W        W72013   2.848   9.311  11.495
12577W        W72014  36.935  30.533  12.574
12578W        W72015   3.809   6.885  12.381
12579W        W72016  34.574  27.058   1.397
12580W        W72017  39.935   3.310  12.058
12581W        W72018   3.429  27.619   2.209
12582W        W72019  17.606  32.069   1.827
12583W        W72020  20.108  13.819   2.859
12584W        W72021  36.021   8.272  10.941
12585W        W72022  24.503  12.757  10.491
12586W        W72023  44.880  15.671  14.314
12587W        W72024   4.854  41.838   3.832
12588W        W72025   8.815  33.607  14.408
12589W        W72026  39.966  35.072  13.990
12590W        W72027   7.687  30.087  10.581
12591W        W72028  29.986   6.268  13.953
12592W        W72029  43.888  10.736   1.420
12593W        W72030   5.259  44.431  12.515
12594W        W72031  33.131  17.102   0.872
12595W        W72032  24.014  14.825   0.954
12596W        W72033  39.391   0.756  10.894
12597W        W72034  17.253  16.591   1.795
12598W        W72035  34.918   5.690   3.240
12599W        W72036  37.577  21.097   2.856
12600W        W72037   4.393   1.929  14.448
12601W        W72038  22.010  42.485  13.449
12602W        W72039  36.915  24.205  14.422
12603W        W72040  28.958   4.256   1.339
12604W        W72041  19.234  29.611   3.336
12605W        W72042   8.320  24.571  12.532
12606W        W72043  44.343   1.328  13.928
12607W        W72044  37.001  34.554   0.345
12608W        W72045   2.320  29.980  11.857
12609W        W72046  10.364  11.682  13.979
12610W        W72047  44.944  15.585   0.382
12611W        W72048  31.530  33.489   2.297
12612W        W72049  25.981  44.920  11.474
12613W        W72050  26.086  41.029   3.754
12614W        W72051  35.399  42.345  14.018
12615W        W72052   0.822  42.886  13.526
12616W        W72053   0.445  20.571   1.727
12617W        W72054  23.618  18.115   3.215
12618W        W72055  37.865  30.587   3.835
12619W        W72056  28.476  44.819   0.284
12620W        W72057  15.772  13.186  10.518
12621W        W72058  40.042  34.479  10.572
12622W        W72059  17.191  31.992   1.870
12623W        W72060  42.379  15.690  14.426
12624W        W72061  13.120   4.418  14.870
12625W        W72062  10.658  14.178   2.225
12626W        W72063  34.009  24.144  13.030
12627W        W72064  43.457  24.030  11.865
12628W        W72065  23.076   1.391   4.304
12629W        W72066  33.929  15.635   4.810
12630W        W72067  19.169   2.383  13.387
12631W        W72068   1.734  29.658  11.960
12632W        W72069  38.901  31.955  14.348
12633W        W72070  16.258   7.772   0.832
12634W        W72071  17.193  30.547   5.186
12635W        W72072   7.380  20.723  12.042
12636W        W72073   9.392   6.857   4.778
12637W        W72074  24.179  14.754   1.753
12638W        W72075   0.488  35.466  14.420
12639W        W72076  40.372  29.958  12.356
12640W        W72077   8.265  29.639  14.908
12641W        W72078  41.866   4.309  11.976
12642W        W72079  41.349   8.810  11.446
12643W        W72080  18.267  27.064  11.530
12644W        W72081   4.414  28.631  10.927
12645W        W72082  41.825  24.224  12.886
12646W        W72083   8.195   7.670   3.757
12647W        W72084  24.695  29.021  13.870
12648W        W72085  35.098  12.185   1.372
12649W        W72086  23.205  37.055  11.111
12650W        W72087  17.212  22.133  10.499
12651W        W72088  24.216  19.215   9.944
12652W        W72089   7.219  15.762  14.345
12653W        W72090  31.119  12.719   2.292
12654W        W72091  16.155  42.844   4.274
12655W        W72092  24.153  19.625  14.000
12656W        W72093  29.120   3.244   2.697
12657W        W72094  10.217  43.800  13.364
12658W        W72095  25.656  29.922  12.543
12659W        W72096  43.486  10.365   9.971
12660W        W72097   3.363  42.785  11.028
12661W        W72098  21.069  34.497   1.920
12662W        W72099   4.278   8.225   2.217
12663W        W72100  38.851  32.467   1.889
12664W        W72101  23.671   1.444   1.787
12665W        W72102  38.417   5.287   0.886
12666W        W72103   7.270  31.520   0.464
12667W        W72104   7.816  16.598  14.365
12668W        W72105  11.692  44.000  14.957
12669W        W72106   9.297  15.757  14.374
12670W        W72107   2.430  43.965   0.877
12671W        W72108  19.136  26.599   1.808
12672W        W72109   4.712  36.088   2.275
12673W        W72110   2.234  18.183   4.764
12674W        W72111  35.013   2.952  14.374
12675W        W72112   0.375  44.317   3.706
12676W        W72113  29.039   0.363   0.404
12677W        W72114  36.874   4.405   2.324
12678W        W72115  38.058  16.810   2.357
12679W        W72116  21.022   9.812   1.220
12680W        W72117  15.811   6.798   2.715
12681W        W72118  15.636  40.927  12.498
12682W        W72119   2.818  43.020   4.757
12683W        W72120   5.799  37.385  13.496
12684W        W72121  23.671  11.291  10.146
12685W        W72122  38.553   2.739  14.387
12686W        W72123  22.516  16.733  13.434
12687W        W72124  37.580  13.182  13.477
12688W        W72125  10.788   8.868   3.850
12689W        W72126  44.944  40.955  12.474
12690W        W72127  17.705  31.094   1.262
12691W        W72128   5.856  13.299  10.930
12692W        W72129  40.380  14.610   3.776
12693W        W72130  20.218  37.416  13.384
12694W        W72131  17.280   7.699  12.059
12695W        W72132  43.288  22.739   3.747
12696W        W72133   0.963   6.826  14.824
12697W        W72134  42.941   1.830   4.662
12698W        W72135  13.241  42.519   2.241
12699W        W72136  37.580  21.245  10.907
12700W        W72137  13.713   4.908  12.054
12701W        W72138   9.317  19.745   4.689
12702W        W72139  12.303   5.273   2.318
12703W        W72140  43.341  14.151   0.414
12704W        W72141   4.269  10.316  13.470
12705W        W72142  25.986  31.632  14.332
12706W        W72143  12.233  25.567   3.836
12707W        W72144   6.251  42.880   1.375
12708W        W72145   7.241  44.423   2.400
12709W        W72146  12.634  35.025  12.489
12710W        W72147   2.741  27.985   3.868
12711W        W72148   5.286  27.450   5.298
12712W        W72149  41.868  24.687  11.375
12713W        W72150   3.304  26.557  11.985
12714W        W72151  38.881   3.288  11.577
12715W        W72152   6.780  17.250   4.120
12716W        W72153  17.648   7.691   1.726
12717W        W72154  24.014  43.491  11.565
12718W        W72155  35.867  42.954   3.692
12719W        W72156  10.200   4.939  13.487
12720W        W72157  44.361  42.995   2.359
12721W        W72158  21.598  24.083   1.398
12722W        W72159  24.152  12.737  13.861
12723W        W72160   3.774  13.834   4.623
12724W        W72161  12.855   2.770  12.420
12725W        W72162  31.032  17.105   1.921
12726W        W72163   1.856  43.969  11.426
12727W        W72164  38.431   2.945  11.462
12728W        W72165  34.416  22.119  13.424
12729W        W72166   8.864  10.299  12.396
12730W        W72167  20.673  41.856   4.740
12731W        W72168   6.203   6.733   2.280
12732W        W72169  41.830   9.280   0.390
12733W        W72170  31.594   7.860  14.007
12734W        W72171  14.330  31.626   3.719
12735W        W72172  33.023  11.653  11.521
12736W        W72173  21.092   4.330   4.255
12737W        W72174  31.420   2.335   2.892
12738W        W72175   8.777  39.853   0.310
12739W        W72176  17.670  36.504   3.299
12740W        W72177  19.699  17.727  13.509
12741W        W72178   9.393   8.838   1.931
12742W        W72179   6.241   3.823  11.983
12743W        W72180  44.983  34.511  13.885
12744W        W72181  21.519  34.080   2.414
12745W        W72182   7.864   7.876  12.388
12746W        W72183  19.576   2.728   2.270
12747W        W72184  30.947  39.503   2.337
12748W        W72185  12.738  39.814   9.982
12749W        W72186   2.872   5.764   4.808
12750W        W72187   4.425  42.815   0.834
12751W        W72188  13.192  38.546  10.535
12752W        W72189  25.483  30.945  12.401
12753W        W72190  19.573   3.290   1.830
12754W        W72191   1.434  21.758   4.158
12755W        W72192   3.259  27.446   0.964
12756W        W72193  44.391   6.207  13.800
12757W        W72194  42.870  35.886  12.431
12758W        W72195  13.146   9.748   0.764
12759W        W72196  30.088  39.482  12.002
12760W        W72197  22.219  39.948   3.676
12761W        W72198  34.078  23.630  13.481
12762W        W72199   0.874  14.295   3.200
12763W        W72200  19.695  25.714   4.165
12764W        W72201  38.390  22.044  12.569
12765W        W72202  41.301  31.616   1.418
12766W        W72203  32.900  29.461  12.049
12767W        W72204  36.005  38.565   1.294
12768W        W72205  30.423  15.581   4.185
12769W        W72206  32.069  30.602  14.997
12770W        W72207  37.072  21.673  11.856
12771W        W72208  26.646   1.468   2.792
12772W        W72209  12.735  18.127  12.536
12773W        W72210  29.966  24.110  12.011
12774W        W72211  30.544  41.484   3.783
12775W        W72212  26.106   4.220   0.917
12776W        W72213  34.001   9.750   2.338
12777W        W72214  25.587  33.593   3.840
12778W        W72215   2.263  43.991   4.187
12779W        W72216  42.311   8.340   3.305
12780W        W72217  42.460  19.689  10.632
12781W        W72218  28.667  11.678   3.282
12782W        W72219  31.581  24.209   1.877
12783W        W72220   1.901  34.532   3.671
12784W        W72221  13.118  12.274   0.375
12785W        W72222   4.418  13.822   0.314
12786W        W72223  41.860  26.478   4.274
12787W        W72224  24.554  26.090  11.411
12788W        W72225  44.298  36.419   3.206
12789W        W72226  35.475   9.802  14.007
12790W        W72227  29.457   8.882   5.285
12791W        W72228   0.328   5.336  13.476
12792W        W72229  23.014  24.594   1.776
12793W        W72230   8.271   8.345   3.774
12794W        W72231  39.534  32.975  14.277
12795W        W72232  28.052  28.502  14.514
12796W        W72233  27.984   5.925  11.928
12797W        W72234   8.792   3.800   3.753
12798W        W72235  31.587   3.736  11.466
12799W        W72236  18.256  40.379  14.483
12800W        W72237  42.028  11.234  12.441
12801W        W72238  36.500  40.355   0.947
12802W        W72239  40.410   5.366   2.332
12803W        W72240  16.166  41.924  10.950
12804W        W72241   7.752   6.271   1.745
12805W        W72242  22.212   3.290   0.284
12806W        W72243  21.746  39.467  11.941
12807W        W72244  28.034   4.425   2.266
12808W        W72245  10.226   3.788   1.814
12809W        W72246  20.143  27.014  10.519
12810W        W72247  13.799  11.843   0.866
12811W        W72248  33.563  32.921   1.241
12812W        W72249  10.676  27.011   2.892
12813W        W72250  43.344  38.363   4.252
12814W        W72251  13.709  24.568  13.898
12815W        W72252  28.466   8.751  10.468
12816W        W72253  18.208  15.285  13.504
12817W        W72254  25.045  21.545   5.766
12818W        W72255   7.413  30.973  13.349
12819W        W72256  13.182  42.976  12.919
12820W        W72257  29.004  34.491  14.965
12821W        W72258  23.011  12.229  12.499
12822W        W72259  11.822   0.463  14.346
12823W        W72260  16.692  27.191   4.188
12824W        W72261  44.834   3.264   0.396
12825W        W72262  16.742  38.343  14.790
12826W        W72263  33.515  29.141  12.937
12827W        W72264   9.711  40.011  11.075
12828W        W72265  31.946  13.629   2.243
12829W        W72266  29.069  22.149  11.497
12830W        W72267  13.311  14.815   4.750
12831W        W72268  35.896  22.016   4.207
12832W        W72269   9.764  41.851  14.029
12833W        W72270  22.517   3.244  12.562
12834W        W72271  39.941  24.677  13.468
12835W        W72272  23.503  18.178   2.235
12836W        W72273  38.053   0.343  14.489
12837W        W72274  21.694  25.615  11.961
12838W        W72275  37.474  17.578   2.236
12839W        W72276  13.688   6.417  12.383
12840W        W72277  37.459  28.092  12.947
12841W        W72278   5.389  24.067   3.181
12842W        W72279   7.886  41.323   5.258
12843W        W72280  43.989   4.929  13.846
12844W        W72281  10.641  36.425  10.492
12845W        W72282  33.060   9.356  10.596
12846W        W72283   8.376  23.556   1.324
12847W        W72284  34.868  25.997   0.932
12848W        W72285  11.678  30.042   2.408
12849W        W72286   2.330   7.682   1.903
12850W        W72287   8.875  40.806  14.844
12851W        W72288  22.115  12.801   2.363
12852W        W72289  19.101  16.265  10.494
12853W        W72290  17.741   4.756  12.946
12854W        W72291  33.396  18.755  12.513
12855W        W72292  43.990   7.735  12.567
12856W        W72293  13.662  36.087  13.819
12857W        W72294  16.573   3.336   1.892
12858W        W72295  18.749  41.454  11.483
12859W        W72296   7.702  21.054   3.379
12860W        W72297   1.910  13.703  10.942
12861W        W72298  12.347  18.279   2.706
12862W        W72299   2.902  42.838  14.918
12863W        W72300  13.820   4.764  10.527
12864W        W72301  11.641   9.831   0.341
12865W        W72302  41.379  19.120   0.366
12866W        W72303  24.691  40.335  14.336
12867W        W72304   2.766  15.206   1.739
12868W        W72305  36.975  28.625   2.876
12869W        W72306   9.194  42.352  12.927
12870W        W72307   1.937  11.829  11.400
12871W        W72308  14.190  32.586   1.741
12872W        W72309  25.713  41.007   0.359
12873W        W72310  10.688  24.559  12.093
12874W        W72311  19.234  39.317   3.380
12875W        W72312   6.845   4.354  11.464
12876W        W72313  16.108  26.173  10.911
12877W        W72314  32.049  35.011  11.610
12878W        W72315  12.335  14.290  11.964
12879W        W72316   5.203  37.062   3.713
12880W        W72317  34.016   7.399  14.987
12881W        W72318  30.488  34.919  14.312
12882W        W72319  26.076  22.109  10.948
12883W        W72320  27.655  34.079  13.800
12884W        W72321  23.069  12.627  11.380
12885W        W72322  17.731  28.962  13.453
12886W        W72323  39.391  32.633  14.314
12887W        W72324  20.768  28.522   2.770
12888W        W72325  20.230  11.739  11.961
12889W        W72326  25.100   6.212  13.809
12890W        W72327   3.329  37.868   3.225
12891W        W72328  24.648  23.096   5.252
12892W        W72329   1.397   1.977   2.861
12893W        W72330  18.159   8.677   0.883
12894W        W72331  17.118  35.580   2.754
12895W        W72332  26.491  34.086   3.670
12896W        W72333   0.973   7.386  13.532
12897W        W72334  23.696  41.789  13.524
12898W        W72335  22.656  33.589   4.813
12899W        W72336  12.251  30.950  11.094
12900W        W72337  10.858  13.768  10.494
12901W        W72338   6.371  29.598   2.809
12902W        W72339  26.197  18.745  10.430
12903W        W72340   0.787   3.439   3.871
12904W        W72341  29.655   5.209   4.785
12905W        W72342  34.995  25.658   0.886
12906W        W72343  12.347   7.220  10.610
12907W        W72344   8.295  19.189   1.373
12908W        W72345  13.611  19.280   2.758
12909W        W72346   0.850   3.733   0.863
12910W        W72347  38.063  26.473  10.560
12911W        W72348  12.726  16.719   4.268
12912W        W72349  20.111  41.369   0.474
12913W        W72350  27.486  44.849   2.354
12914W        W72351  38.526  12.216   4.179
12915W        W72352   0.802  20.614  14.384
12916W        W72353  18.206  25.528   3.157
12917W        W72354   5.740  39.890   3.157
12918W        W72355  28.652  43.505  11.095
12919W        W72356   5.309  27.085   4.697
12920W        W72357  29.474   4.385  12.851
12921W        W72358  27.135  38.337   0.380
12922W        W72359   0.827   2.236  13.837
12923W        W72360  26.087  13.638   2.810
12924W        W72361  39.956   5.360  11.545
12925W        W72362  20.245   1.397  13.317
12926W        W72363   0.388  22.034   4.701
12927W        W72364   8.867   8.368  13.351
12928W        W72365   7.335   4.420   4.822
12929W        W72366  32.421   6.823  11.444
12930W        W72367  17.148   9.808  14.471
12931W        W72368  18.558  39.514   5.657
12932W        W72369  21.231  34.600  10.412
12933W        W72370  19.545   6.802   2.388
12934W        W72371   2.303  43.987  10.526
12935W        W72372   3.412  40.804  13.869
12936W        W72373  26.499  30.929  14.459
12937W        W72374   1.406  13.841   0.816
12938W        W72375  42.947  42.799   5.243
12939W        W72376  15.134  15.812   0.462
12940W        W72377   3.405   8.729   0.874
12941W        W72378  28.107  12.634  13.813
12942W        W72379  25.524  13.657  14.376
12943W        W72380   5.903  18.683  12.341
12944W        W72381   2.760  31.086   2.837
12945W        W72382  21.608  25.690  10.128
12946W        W72383   8.688  41.488   2.348
12947W        W72384  22.164  30.568   2.812
12948W        W72385   2.783  28.628   4.276
12949W        W72386   7.222  27.090  11.475
12950W        W72387   7.822  35.956  13.373
12951W        W72388   2.374  32.605   2.701
12952W        W72389   5.850   3.444  12.027
12953W        W72390  20.262  34.049   0.867
12954W        W72391  40.020  11.260  14.844
12955W        W72392   1.746  13.120   3.689
12956W        W72393  15.309   0.320   2.671
12957W        W72394  21.132  18.612   2.344
12958W        W72395  11.625  19.045   4.619
12959W        W72396   9.362  43.430  12.897
12960W        W72397  10.668  11.638   4.263
12961W        W72398   9.379  26.104   0.805
12962W        W72399  12.177  34.421   2.757
12963W        W72400   3.226  25.173   2.326
12964W        W72401  43.832  26.526   3.294
12965W        W72402  24.208   0.322   3.365
12966W        W72403  39.053  16.083   4.758
12967W        W72404  39.429  31.048   2.836
12968W        W72405  41.803  30.626  10.457
12969W        W72406  32.028  12.742  14.840
12970W        W72407   1.801  28.112  10.440
12971W        W72408  11.637  19.681   4.815
12972W        W72409  29.645  14.607  10.942
12973W        W72410  25.675  12.296  14.967
12974W        W72411  23.140  41.348   1.761
12975W        W72412  21.130  43.960   3.715
12976W        W72413  12.308  16.738   0.337
12977W        W72414   3.296   7.189  11.526
12978W        W72415  10.171  17.679  13.983
12979W        W72416  31.093  34.585  13.879
12980W        W72417   6.821  26.533  11.101
12981W        W72418  35.078  17.305   3.327
12982W        W72419  31.055  24.687  14.342
12983W        W72420  44.375  32.005   5.287
12984W        W72421  38.342  26.677  11.564
12985W        W72422  16.758  41.003   5.316
12986W        W72423   1.921  17.561   1.789
12987W        W72424   6.263  18.748  13.356
12988W        W72425  41.936  30.507  13.353
12989W        W72426   0.294  28.482  14.415
12990W        W72427  18.719  39.346   4.663
12991W        W72428  22.601  26.034   9.546
12992W        W72429  40.390  39.970  11.121
12993W        W72430  17.776   1.262   3.855
12994W        W72431  34.013  13.682   1.363
12995W        W72432  23.580  11.363   0.820
12996W        W72433  18.741  41.356   4.623
12997W        W72434   7.193  35.517  13.408
12998W        W72435   5.211  42.310  12.044
12999W        W72436  10.667  26.602  13.914
13000W        W72437  36.898   0.425  10.915
13001W        W72438  37.844  30.493   1.775
13002W        W72439  18.601   6.305   2.379
13003W        W72440  24.483  21.653  11.997
13004W        W72441  33.947  34.999  14.455
13005W        W72442  43.839  25.677  14.992
13006W        W72443   7.373  32.592   1.319
13007W        W72444  35.512  10.853   4.809
13008W        W72445  42.009  19.079  10.931
13009W        W72446  27.526  31.641   1.870
13010W        W72447  14.309  32.111   1.931
13011W        W72448  26.975  19.183  12.866
13012W        W72449  43.819   6.331   4.353
13013W        W72450   6.189  10.351  12.496
13014W        W72451  36.867  17.629  11.967
13015W        W72452  20.221  36.539  14.308
13016W        W72453  30.645   9.700   2.324
13017W        W72454  22.560   2.904  11.904
13018W        W72455  43.851  40.874   5.666
13019W        W72456   2.258  17.126   4.651
13020W        W72457   7.862  14.277  14.780
13021W        W72458  14.807  11.288   3.829
13022W        W72459   1.302  40.845   1.920
13023W        W72460  42.833  39.362  14.013
13024W        W72461  30.095   1.284  13.053
13025W        W72462  41.933  16.691  14.912
13026W        W72463  14.164   6.696  13.879
13027W        W72464  11.664  18.092  13.513
13028W        W72465  34.049  37.030   2.700
13029W        W72466  33.045  30.931  13.854
13030W        W72467   6.776  16.087   4.627
13031W        W72468   5.436  43.333  14.791
13032W        W72469  38.405   9.203  11.491
13033W        W72470  33.459  39.352  13.398
13034W        W72471  37.529   9.169   2.783
13035W        W72472  26.115   3.401   0.428
13036W        W72473  31.646   9.880   0.367
13037W        W72474  42.849  29.495   2.307
13038W        W72475  40.345  43.016  14.806
13039W        W72476   4.918  13.710  12.904
13040W        W72477   2.826   0.921  12.883
13041W        W72478  24.019  34.589  11.455
13042W        W72479  28.047  16.606   0.808
13043W        W72480  39.997  28.555   2.314
13044W        W72481  13.310  26.493   0.863
13045W        W72482  32.113  23.694   3.681
13046W        W72483  16.757  23.114  13.423
13047W        W72484   7.349  42.426  10.498
13048W        W72485  22.689  41.938  10.524
13049W        W72486  22.166  21.224  11.930
13050W        W72487  23.117   4.703   0.310
13051W        W72488  22.524  20.588   2.701
13052W        W72489  35.882  24.147  11.003
13053W        W72490  15.808  30.643   2.239
13054W        W72491  27.674  31.448   0.945
13055W        W72492  29.955  27.466   2.712
13056W        W72493  40.918  20.714  14.892
13057W        W72494  36.871  11.170   0.880
13058W        W72495  36.464  21.049  11.921
13059W        W72496   9.238   4.303  14.969
13060W        W72497  34.558   4.917  14.897
13061W        W72498   7.903  24.011  13.485
13062W        W72499  16.304  44.984  13.453
13063W        W72500   2.264   4.221   3.382
13064W        W72501  41.929  36.984   2.272
13065W        W72502  37.440  15.794  12.052
13066W        W72503  10.699   1.868   3.293
13067W        W72504   6.822  29.459   3.217
13068W        W72505   7.672  13.342  11.946
13069W        W72506  39.384  43.363  12.419
13070W        W72507  39.978  19.774  10.451
13071W        W72508  26.685  23.675  13.432
13072W        W72509   6.826  19.092  14.341
13073W        W72510   3.321  44.391   0.762
13074W        W72511  16.317  20.765  13.480
13075W        W72512  22.194  37.007  11.073
13076W        W72513  39.057   1.920   0.317
13077W        W72514  19.729  19.082  11.073
13078W        W72515  39.887   7.286   3.780
13079W        W72516  43.496  20.086   3.158
13080W        W72517  22.505   9.728  10.455
13081W        W72518  41.004   5.253  12.046
13082W        W72519  27.564  26.123  14.791
13083W        W72520  41.429  44.800   3.648
13084W        W72521  43.328  23.566  13.340
13085W        W72522  25.678  23.625  11.596
13086W        W72523  27.466  16.111  11.982
13087W        W72524  36.387  35.986   4.279
13088W        W72525  31.926   5.855   4.318
13089W        W72526  11.294  29.088  14.458
13090W        W72527  41.352  27.518  11.931
13091W        W72528  19.627  33.960  11.938
13092W        W72529  34.420  31.427   3.326
13093W        W72530  18.279   2.435   1.427
13094W        W72531  34.523  20.121   0.874
13095W        W72532  10.706  35.939  10.464
13096W        W72533   2.448  17.755   0.750
13097W        W72534  22.013  16.632   3.789
13098W        W72535  27.004   2.879  12.960
13099W        W72536   4.285  14.315  11.920
13100W        W72537  24.701  40.012  12.992
13101W        W72538  37.081   5.787  11.900
13102W        W72539  29.469   9.851   0.900
13103W        W72540   0.859  25.681  13.907
13104W        W72541  34.453  11.129   3.184
13105W        W72542   7.414   9.347  12.943
13106W        W72543   9.729  20.537  12.993
13107W        W72544  18.158   1.426   1.344
13108W        W72545  28.178  37.448   3.778
13109W        W72546  18.067  21.689  14.764
13110W        W72547   9.686  40.018   1.876
13111W        W72548  42.518  20.108  12.066
13112W        W72549  37.015   9.759  12.564
13113W        W72550  23.533   2.379  10.466
13114W        W72551  38.432   0.401  13.851
13115W        W72552  13.189  40.341   4.298
13116W        W72553  33.561   3.886  11.542
13117W        W72554  27.633   0.749  12.949
13118W        W72555  36.845  21.700  14.776
13119W        W72556  32.406   2.912   3.182
13120W        W72557  16.220  37.833   0.752
13121W        W72558  14.278  34.376  11.942
13122W        W72559  13.697  43.348  11.531
13123W        W72560  21.671  36.859   0.420
13124W        W72561  16.692  13.649  10.465
13125W        W72562  39.876  15.223   1.302
13126W        W72563  29.002   4.797  12.062
13127W        W72564  22.518  27.521   0.413
13128W        W72565   7.410  29.103  13.978
13129W        W72566   0.296  31.932   5.091
13130W        W72567  41.429  30.028  14.989
13131W        W72568  30.059   8.899  11.863
13132W        W72569  30.564   7.349   1.844
13133W        W72570  15.249  13.295   3.163
13134W        W72571  30.558   6.410  11.610
13135W        W72572  11.656   1.388  12.507
13136W        W72573  27.198   4.278   4.779
13137W        W72574  29.568  39.889  14.383
13138W        W72575  38.886  13.332  12.560
13139W        W72576  25.005   1.328  11.967
13140W        W72577  27.081   3.948   3.639
13141W        W72578  22.653  18.059  12.001
13142W        W72579   5.242  34.373  14.809
13143W        W72580  36.890  18.220   2.372
13144W        W72581  38.407  42.953  13.442
13145W        W72582   6.813  24.194   1.831
13146W        W72583   9.149  29.523   1.770
13147W        W72584  19.217  16.597  14.297
13148W        W72585   0.762  15.764  11.101
13149W        W72586  33.969  44.377   2.754
13150W        W72587  39.019  37.904   4.614
13151W        W72588  38.329  17.731  10.627
13152W        W72589  18.138  22.195  14.015
13153W        W72590   6.388  41.435  11.475
13154W        W72591  44.488   4.939   1.433
13155W        W72592  17.257  32.966  13.873
13156W        W72593  10.195   7.838   1.720
13157W        W72594  25.562  21.623   3.149
13158W        W72595  19.238   6.244  13.507
13159W        W72596   8.692   4.281   4.325
13160W        W72597  35.375  26.167  10.961
13161W        W72598  11.209   3.848  14.817
13162W        W72599  35.979  28.550   3.168
13163W        W72600  28.525   4.831   2.682
13164W        W72601  27.037  20.043  10.597
13165W        W72602  24.705  21.674  12.383
13166W        W72603  16.307   2.462   4.138
13167W        W72604  21.062  10.377  12.909
13168W        W72605  17.706  11.803   0.892
13169W        W72606  28.633  44.923  14.504
13170W        W72607  30.154  14.824   4.621
13171W        W72608   9.163   4.317  13.939
13172W        W72609  36.369  28.659   1.805
13173W        W72610  22.543  20.710   3.151
13174W        W72611  32.135  40.318   3.651
13175W        W72612  38.897  21.223   3.216
13176W        W72613  42.882  36.996  12.982
13177W        W72614  33.463  32.530  14.886
13178W        W72615  11.714   1.930   0.873
13179W        W72616   6.319  16.191  13.942
13180W        W72617   3.308  37.503   1.771
13181W        W72618   6.407   1.300  12.912
13182W        W72619  20.046  31.448   3.172
13183W        W72620  18.134   0.289   4.800
13184W        W72621  39.499  12.700  13.888
13185W        W72622  13.752  44.457  12.577
13186W        W72623  41.328  35.889  12.840
13187W        W72624  35.906  18.242   3.688
13188W        W72625   5.198   8.165  10.946
13189W        W72626  29.437  22.014  13.381
13190W        W72627  44.959  37.073   2.338
13191W        W72628  37.578   7.700  13.878
13192W        W72629  16.170  25.150   4.628
13193W        W72630   2.817  37.954  14.776
13194W        W72631  14.784   7.258   5.311
13195W        W72632   1.844  42.446  11.018
13196W        W72633  26.106  16.155   2.793
13197W        W72634  20.219   0.981   3.227
13198W        W72635  22.697  18.068  14.362
13199W        W72636  25.972  30.587   1.834
13200W        W72637  11.758  35.408   4.753
13201W        W72638  20.712  25.023   4.264
13202W        W72639  10.319  36.028   2.722
13203W        W72640  12.617  18.244  13.903
13204W        W72641   3.825  35.412  12.520
13205W        W72642  26.035  13.225   4.708
13206W        W72643  35.563  11.650   1.882
13207W        W72644  13.784  41.921  14.326
13208W        W72645  39.466   5.860  10.912
13209W        W72646  35.387  36.968  13.487
13210W        W72647  12.244  27.105  11.489
13211W        W72648  10.809  40.001  10.962
13212W        W72649  34.934  29.478   0.930
13213W        W72650  22.554  17.104  14.879
13214W        W72651  12.706  15.325  14.939
13215W        W72652  25.597  24.225  12.056
13216W        W72653  16.661  10.269  12.899
13217W        W72654  26.632  37.463  14.984
13218W        W72655   0.439   6.211   1.904
13219W        W72656  21.585  23.579   4.312
13220W        W72657  29.033  11.210  10.643
13221W        W72658  11.336  26.145   0.737
13222W        W72659  26.467  11.628  13.061
13223W        W72660  11.233   3.255   1.299
13224W        W72661  38.848  27.683  12.040
13225W        W72662   2.374  27.097  14.762
13226W        W72663   4.801  19.687  14.337
13227W        W72664   1.317  17.591  14.843
13228W        W72665  32.902   3.770   2.236
13229W        W72666  44.847  43.975  11.027
13230W        W72667  22.615  14.625   2.183
13231W        W72668  17.761  11.238   4.316
13232W        W72669  38.432  33.950  13.016
13233W        W72670  41.804  22.219  10.598
13234W        W72671  22.078  34.930   4.777
13235W        W72672  24.175  40.421  11.419
13236W        W72673   1.307  23.595  13.053
13237W        W72674   7.705  14.803  11.420
13238W        W72675  28.545  36.490  13.387
13239W        W72676  32.513  20.145  10.961
13240W        W72677  23.656   5.417   0.783
13241W        W72678  14.817  17.279  14.844
13242W        W72679  19.563   0.459  11.557
13243W        W72680  40.996  32.967   3.659
13244W        W72681  37.360  32.537   3.824
13245W        W72682  15.735  43.775  10.422
13246W        W72683  21.141  35.010  13.984
13247W        W72684  26.047   4.232  11.969
13248W        W72685  29.980  15.325  12.353
13249W        W72686  26.640   1.824  11.533
13250W        W72687   0.918  24.529  13.519
13251W        W72688  42.969  14.606   1.805
13252W        W72689   4.398   2.443   0.298
13253W        W72690   4.869  42.823  11.475
13254W        W72691  10.206  37.838  11.391
13255W        W72692  40.322  32.953  11.904
13256W        W72693  17.140  33.408  13.502
13257W        W72694  11.216   4.834   2.333
13258W        W72695  19.278   5.335  14.813
13259W        W72696  33.512  30.912  14.966
13260W        W72697  32.136  33.415   4.251
13261W        W72698  34.447  26.632   2.898
13262W        W72699  14.267  23.022   4.158
13263W        W72700  28.642  19.263  14.881
13264W        W72701  15.168  41.023   4.113
13265W        W72702  12.233  18.603  13.492
13266W        W72703   3.338  28.658  12.979
13267W        W72704   7.372  23.561  12.541
13268W        W72705  41.480  16.641   3.158
13269W        W72706  22.743  44.916   2.259
13270W        W72707  24.118  41.985   3.203
13271W        W72708  12.133  24.531   0.944
13272W        W72709   1.950   0.798  10.953
13273W        W72710  44.377   1.301   4.644
13274W        W72711  29.596  40.854   2.179
13275W        W72712  12.210  37.995   4.225
13276W        W72713  29.486  30.628  12.838
13277W        W72714  15.616  17.661  11.883
13278W        W72715  11.646  10.171  11.098
13279W        W72716  41.894   6.808  12.879
13280W        W72717  41.798  28.506   1.385
13281W        W72718   9.382  26.650  10.527
13282W        W72719  36.079  15.805  11.544
13283W        W72720  24.995  42.454  14.779
13284W        W72721   8.268   9.175   1.699
13285W        W72722  19.586   1.769  10.895
13286W        W72723  39.828  22.067   3.311
13287W        W72724  36.377  34.404  14.921
13288W        W72725  11.679  30.965  11.934
13289W        W72726  32.492  39.882   5.254
13290W        W72727  19.064   6.847   2.335
13291W        W72728  40.313  31.124   4.658
13292W        W72729  40.527  28.037   4.606
13293W        W72730  35.555  18.203  14.463
13294W        W72731  34.886  22.155   4.668
13295W        W72732   0.878   1.343  13.805
13296W        W72733  23.679  16.582  11.573
13297W        W72734  43.295  12.771   2.418
13298W        W72735  33.879  39.905   4.187
13299W        W72736  22.089  22.505  14.932
13300W        W72737  11.275  29.660   0.889
13301W        W72738   1.412   4.740  13.461
13302W        W72739  34.995  13.224   2.300
13303W        W72740  17.184  24.178  10.583
13304W        W72741  37.537  27.081  10.977
13305W        W72742  30.544  15.279   1.418
13306W        W72743   6.902  37.048   3.286
13307W        W72744  43.985  39.839   3.290
13308W        W72745  30.440  28.985   4.163
13309W        W72746  28.020  42.355   3.157
13310W        W72747  14.221  39.351  11.505
13311W        W72748  43.824  36.021   3.830
13312W        W72749  21.133  18.170  13.809
13313W        W72750  39.448  14.145  14.007
13314W        W72751  26.177  16.267  12.081
13315W        W72752  40.003  37.363  14.507
13316W        W72753   0.965  17.734  14.305
13317W        W72754  18.747  12.163  11.856
13318W        W72755  13.777  11.690  10.964
13319W        W72756   4.389  37.973  10.462
13320W        W72757  40.453  32.623  11.050
13321W        W72758   5.309  16.691  10.575
13322W        W72759  24.482  26.691  14.956
13323W        W72760  10.311  19.095  12.403
13324W        W72761  14.796   5.196  14.495
13325W        W72762  31.580  35.415  13.883
13326W        W72763  22.722  37.033   0.374
13327W        W72764   6.311  12.333   2.244
13328W        W72765  30.430  37.844  11.554
13329W        W72766  39.889  14.103  11.060
13330W        W72767  42.002  31.548  12.084
13331W        W72768  13.634  34.943   2.338
13332W        W72769  28.056  33.908   4.150
13333W        W72770  31.600  11.691   3.156
13334W        W72771  29.018   1.848  11.950
13335W        W72772  14.331  28.160  13.322
13336W        W72773  33.955   6.905   2.725
13337W        W72774  26.624  44.421   2.892
13338W        W72775   9.847   8.862  12.370
13339W        W72776  21.543  15.783   1.757
13340W        W72777   5.271  42.300  11.007
13341W        W72778  23.178  23.603   2.180
13342W        W72779  38.895   7.674   0.884
13343W        W72780   2.899  23.030  11.030
13344W        W72781   0.977   4.211  12.492
13345W        W72782  21.084  40.965  14.951
13346W        W72783  36.015  33.986  14.872
13347W        W72784   7.392  21.524  13.517
13348W        W72785  42.387  33.600  14.856
13349W        W72786  10.701  18.557   0.759
13350W        W72787  10.321  42.025  13.799
13351W        W72788  35.591  16.280   4.684
13352W        W72789  22.217   5.426   1.752
13353W        W72790  23.135  17.152  11.378
13354W        W72791  24.486  37.020   0.482
13355W        W72792   9.217   9.672  13.866
13356W        W72793  17.254  28.021   3.251
13357W        W72794  24.015  27.567  14.386
13358W        W72795  13.329  38.945   3.268
13359W        W72796  21.207  17.621  13.905
13360W        W72797  21.086  18.264   0.371
13361W        W72798  18.680  35.971   4.177
13362W        W72799  43.846  29.985   3.794
13363W        W72800  32.954  15.666   4.824
13364W        W72801  31.586   7.350   2.391
13365W        W72802  44.909   1.751  11.947
13366W        W72803  40.844  16.298  14.929
13367W        W72804   7.370   1.889  12.043
13368W        W72805  32.603  27.054  10.604
13369W        W72806  22.745   9.819  14.298
13370W        W72807  34.908  20.652  13.958
13371W        W72808  21.066  22.031   0.356
13372W        W72809  19.098  41.354   1.303
13373W        W72810  36.096  37.576  12.006
13374W        W72811  41.504  27.007   0.381
13375W        W72812  18.087  15.280  11.930
13376W        W72813  28.063  13.688  13.846
13377W        W72814  41.875  23.720  14.803
13378W        W72815  28.629   3.250   1.843
13379W        W72816  41.424  18.678   0.793
13380W        W72817  25.195   7.672   0.407
13381W        W72818  21.256  37.016   0.427
13382W        W72819   9.260   8.294  10.540
13383W        W72820  31.618  40.373  10.410
13384W        W72821  21.164   9.870   0.257
13385W        W72822  29.125  21.220  14.786
13386W        W72823  13.290  12.317   4.317
13387W        W72824   6.328  40.525  11.379
13388W        W72825  25.545  41.512   0.952
13389W        W72826  41.970  40.433   0.290
13390W        W72827   4.730  27.644   0.776
13391W        W72828  11.745  21.706  10.906
13392W        W72829   8.684   8.772   4.636
13393W        W72830  30.592   6.191   4.158
13394W        W72831   4.811  11.209  14.027
13395W        W72832  30.130  12.347   2.767
13396W        W72833  23.644  27.981  11.068
13397W        W72834   0.263  35.868   2.217
13398W        W72835  35.932  29.613  14.023
13399W        W72836   9.729  41.802   2.701
13400W        W72837  21.041   6.688   4.677
13401W        W72838  22.522  30.016  13.441
13402W        W72839  21.159  36.043   2.694
13403W        W72840  38.008  18.122   4.748
13404W        W72841  41.448  26.670   2.412
13405W        W72842   2.404  10.258   5.174
13406W        W72843  31.571   1.322   1.270
13407W        W72844  24.513  37.949  13.871
13408W        W72845  10.222  39.404   2.333
13409W        W72846  11.707   3.245  14.884
13410W        W72847  39.050  30.501  10.464
13411W        W72848   6.711  18.240   2.828
13412W        W72849  10.294  14.130  12.480
13413W        W72850  17.176  18.719  14.956
13414W        W72851  11.636  37.540  14.318
13415W        W72852  14.825   8.712   5.177
13416W        W72853  37.417  44.861  11.470
13417W        W72854  11.792   4.382  14.376
13418W        W72855  34.450  35.535  12.561
13419W        W72856   9.794   0.434  13.998
13420W        W72857  28.081  40.392  11.050
13421W        W72858  23.001  30.524  12.406
13422W        W72859  21.042  41.954  14.462
13423W        W72860  43.296  28.139   3.186
13424W        W72861  23.602   8.218  14.861
13425W        W72862  20.697  44.767   2.368
13426W        W72863   4.387  38.012   4.237
13427W        W72864  33.970   3.832   4.210
13428W        W72865  16.756  19.634   4.627
13429W        W72866   7.224  25.652   1.911
13430W        W72867  31.509  27.467   0.885
13431W        W72868   1.297  31.953  11.446
13432W        W72869  43.334  28.059   0.943
13433W        W72870   0.409  28.533   3.280
13434W        W72871   8.383  41.533  14.515
13435W        W72872  29.542  39.353   4.694
13436W        W72873  20.595  13.139  10.953
13437W        W72874  25.005  27.466   0.736
13438W        W72875  14.110  12.277  11.593
13439W        W72876  21.176  43.948  13.514
13440W        W72877   6.411   8.798  13.022
13441W        W72878   4.875  31.110   3.239
13442W        W72879   4.801   3.398   1.777
13443W        W72880  39.059   5.385  12.561
13444W        W72881  17.286  21.743   3.852
13445W        W72882  31.016   1.833  11.946
13446W        W72883   9.725  36.847   4.834
13447W        W72884  27.070  34.373  13.379
13448W        W72885   8.167  19.773   0.801
13449W        W72886  31.150  13.693  12.022
13450W        W72887  42.422   5.418  11.857
13451W        W72888  39.830  23.560  11.971
13452W        W72889   7.772   5.876   0.404
13453W        W72890  34.391  36.374  10.044
13454W        W72891  40.382  43.922   1.906
13455W        W72892  37.480  19.167   2.278
13456W        W72893  25.484  37.077   3.322
13457W        W72894   0.328   8.695  11.418
13458W        W72895   9.216   0.743  10.579
13459W        W72896  34.117  10.819  11.061
13460W        W72897  21.197  23.188  13.890
13461W        W72898   2.328  27.468   0.359
13462W        W72899  40.363  24.544   1.288
13463W        W72900  43.827  33.933  10.540
13464W        W72901  27.544  19.267   3.796
13465W        W72902  28.166  15.743  12.462
13466W        W72903  20.068  10.739  11.035
13467W        W72904   6.884   8.734  13.375
13468W        W72905  19.698   3.720   3.342
13469W        W72906  39.526  12.313  11.079
13470W        W72907   9.246  34.943  14.856
13471W        W72908  18.276  37.369  11.074
13472W        W72909  36.888  24.545   1.700
13473W        W72910  13.242   7.267  11.116
13474W        W72911   5.835  22.117  14.448
13475W        W72912  10.789  24.980   0.359
13476W        W72913  13.660  36.514  14.340
13477W        W72914  13.699  44.774   3.160
13478W        W72915   5.341  20.197  13.506
13479W        W72916  17.568  20.265  13.802
13480W        W72917   3.888  36.003   1.437
13481W        W72918  38.967  35.008   4.794
13482W        W72919  34.921   3.875   2.696
13483W        W72920  37.564  19.072   1.833
13484W        W72921   0.299  11.336  11.516
13485W        W72922  41.944   8.807  11.058
13486W        W72923  39.329  39.392  10.905
13487W        W72924  28.497  26.064   0.944
13488W        W72925  19.179  43.491   0.763
13489W        W72926  29.447  39.844   1.359
13490W        W72927  20.057  31.087  14.767
13491W        W72928  25.693  43.271   3.323
13492W        W72929  27.006  10.641   1.763
13493W        W72930  20.203  22.575   2.390
13494W        W72931  32.556   7.766  11.930
13495W        W72932  43.887  20.115  12.829
13496W        W72933  12.751  12.135   3.242
13497W        W72934   7.340  25.969   2.738
13498W        W72935  25.638  36.492  14.809
13499W        W72936  30.646   5.369  14.969
13500W        W72937   0.858  12.240   3.244
13501W        W72938  13.128  42.407  11.527
13502W        W72939  30.925   9.211  14.898
13503W        W72940  26.001  22.128  12.836
13504W        W72941   4.794  24.031  13.535
13505W        W72942  36.556   1.822  12.449
13506W        W72943  33.542  43.339   5.664
13507W        W72944  41.504  41.964   3.185
13508W        W72945  37.830  21.021  13.484
13509W        W72946  22.594  24.045  14.326
13510W        W72947  31.917  42.286   1.882
13511W        W72948   0.923  40.538  12.880
13512W        W72949  16.605   5.796   4.143
13513W        W72950  12.657   9.223  10.642
13514W        W72951  13.648   5.217   3.382
13515W        W72952  37.853  12.288  11.490
13516W        W72953  23.082  12.133   1.799
13517W        W72954  25.553   1.432   2.183
13518W        W72955  19.137  42.033   0.443
13519W        W72956  27.195  33.083   3.830
13520W        W72957  23.125  34.562   3.339
13521W        W72958  30.034  34.475  12.001
13522W        W72959  36.933   9.735  10.441
13523W        W72960  25.078  42.477   4.626
13524W        W72961  23.612   6.766   0.460
13525W        W72962  34.942  17.661  13.520
13526W        W72963   1.762   7.795  11.479
13527W        W72964   6.402  33.453   9.955
13528W        W72965   8.680  37.877   3.800
13529W        W72966  26.112  15.273  14.476
13530W        W72967   7.735  32.627   1.403
13531W        W72968  41.336  19.739  13.324
13532W        W72969  25.692   9.864   2.713
13533W        W72970  20.236  37.473  12.053
13534W        W72971  21.676  15.815  12.972
13535W        W72972  30.478  12.658   1.246
13536W        W72973   7.388  17.767  13.405
13537W        W72974  24.019   7.714  11.900
13538W        W72975   1.812  43.357   3.331
13539W        W72976  36.022  15.692   0.257
13540W        W72977  17.269  43.394   2.297
13541W        W72978  37.915   1.264  12.012
13542W        W72979  31.490  39.432   3.171
13543W        W72980  24.553  36.370   3.228
13544W        W72981  12.778  44.489   1.792
13545W        W72982  28.528  11.257  11.525
13546W        W72983  42.408   4.234  14.962
13547W        W72984  39.827  38.400  14.799
13548W        W72985  10.375  15.177  11.896
13549W        W72986   1.741   3.269   1.750
13550W        W72987  29.590  12.690   3.339
13551W        W72988  38.033  21.609  11.909
13552W        W72989  35.364  15.302   3.729
13553W        W72990  22.622  44.790   4.824
13554W        W72991  29.931  10.775   0.416
13555W        W72992   6.791  26.981   0.244
13556W        W72993  30.144  14.694   0.740
13557W        W72994  18.770  27.179   3.653
13558W        W72995  25.711   0.304  14.363
13559W        W72996  39.932  29.919   4.219
13560W        W72997   2.853  18.073   4.266
13561W        W72998  37.926  19.578   1.905
13562W        W72999   5.363  18.644  14.350
13563W        W73000  18.246   2.751   0.365
13564W        W73001  13.285   4.895   1.785
13565W        W73002  44.936  25.521   4.774
13566W        W73003  31.139  14.218   0.865
13567W        W73004  34.999   8.769   5.269
13568W        W73005  16.587  24.625  11.023
13569W        W73006   6.283  33.042   2.716
13570W        W73007  42.481  42.308   4.327
13571W        W73008  43.319  26.171   2.358
13572W        W73009  21.106  24.626  14.886
13573W        W73010  41.390  42.496   2.278
13574W        W73011  38.929  16.730  11.127
13575W        W73012  37.406  36.077   3.702
13576W        W73013  29.473   0.327   2.869
13577W        W73014  41.024  20.545  11.070
13578W        W73015  26.638  26.525  11.929
13579W        W73016  40.017  32.546  10.591
13580W        W73017   9.711  36.384   4.605
13581W        W73018   3.306  29.434   2.876
13582W        W73019  19.723  33.468   2.839
13583W        W73020  22.077  17.239   3.151
13584W        W73021  20.238  14.339   2.319
13585W        W73022  40.504  44.486   1.366
13586W        W73023  31.068  38.505   4.267
13587W        W73024  40.396  36.349   2.686
13588W        W73025  37.072  22.548  12.992
13589W        W73026  27.149  31.530   3.680
13590W        W73027   4.754  16.154   4.296
13591W        W73028  31.037  21.076   2.286
13592W        W73029  16.238  27.983   2.316
13593W        W73030  13.778  34.423  14.784
13594W        W73031  20.707  19.769   0.961
13595W        W73032  35.444  24.047   1.733
13596W        W73033  27.989  44.785   1.371
13597W        W73034  17.776  31.631  11.442
13598W        W73035  21.240   5.895  14.512
13599W        W73036  24.028  42.306  12.951
13600W        W73037  10.322  38.986   0.360
13601W        W73038  15.693  37.919  10.596
13602W        W73039  33.421  17.134  10.109
13603W        W73040  38.852  34.944  13.893
13604W        W73041  15.673  22.021   2.417
13605W        W73042  44.277  19.690  12.946
13606W        W73043  40.409   7.397  11.498
13607W        W73044  26.028   4.226  14.797
13608W        W73045  31.451  25.642  13.895
13609W        W73046  14.297  31.449  14.316
13610W        W73047   0.806   3.365  14.461
13611W        W73048  14.688  23.065   4.788
13612W        W73049  18.734  31.593  13.839
13613W        W73050  21.624  43.274   4.198
13614W        W73051  19.228  43.820  14.430
13615W        W73052  40.439   4.916  12.512
13616W        W73053  23.514  21.658  12.049
13617W        W73054  26.491  39.873  13.456
13618W        W73055  30.093   0.892   2.891
13619W        W73056  19.275  42.831   2.297
13620W        W73057  44.932  29.119   3.320
13621W        W73058  20.615  22.679   9.973
13622W        W73059  23.701  21.629  13.392
13623W        W73060   4.927  40.370   1.934
13624W        W73061  27.658  31.146  10.635
13625W        W73062   5.367   2.838  13.009
13626W        W73063  21.689   7.909  12.081
13627W        W73064  29.665  15.309   2.864
13628W        W73065  13.642  31.457   0.316
13629W        W73066  17.709  32.960  12.421
13630W        W73067  12.340  22.130  14.285
13631W        W73068  28.165  28.671   4.744
13632W        W73069  43.903   0.443   2.313
13633W        W73070  18.739  29.461  11.474
13634W        W73071   0.910   8.293  10.524
13635W        W73072  33.885   3.378  10.908
13636W        W73073  29.088  16.294   3.757
13637W        W73074  29.444  33.567   4.197
13638W        W73075  17.674  22.604  12.025
13639W        W73076   8.369  42.423   4.295
13640W        W73077  37.843  19.072  14.452
13641W        W73078  38.545   3.871   2.821
13642W        W73079  16.579  35.023   4.220
13643W        W73080  22.723   9.349   3.381
13644W        W73081  31.452  26.616  10.504
13645W        W73082  23.205  15.814   1.925
13646W        W73083   6.784  25.005   4.757
13647W        W73084  33.916   2.946   2.753
13648W        W73085  44.324  17.074  13.830
13649W        W73086  35.509  22.660   0.465
13650W        W73087  39.005  11.217  12.075
13651W        W73088  39.924   8.385   2.409
13652W        W73089  44.392  36.556  13.519
13653W        W73090  25.127   7.674  14.361
13654W        W73091  26.072  26.559  13.467
13655W        W73092   9.301  31.900   3.197
13656W        W73093  34.433  18.254   1.320
13657W        W73094  24.989  44.776   4.187
13658W        W73095  21.102  21.538  10.490
13659W        W73096  31.646  24.993   1.259
13660W        W73097  39.046  28.096  11.864
13661W        W73098  23.114   8.346  14.389
13662W        W73099  15.616  11.650  14.010
13663W        W73100  11.364  11.778  12.418
13664W        W73101   3.365  34.954   2.269
13665W        W73102  10.713  40.511   4.657
13666W        W73103   1.825   1.388  12.565
13667W        W73104  21.221  21.017  11.540
13668W        W73105  44.895  26.644  14.301
13669W        W73106  22.996  41.968  10.020
13670W        W73107  34.007  25.055  13.336
13671W        W73108  21.162  29.464   4.230
13672W        W73109  30.063  22.723  14.308
13673W        W73110  28.586  41.411  11.430
13674W        W73111  31.011  16.119   1.350
13675W        W73112  25.114   7.385   0.830
13676W        W73113  43.768   1.845   3.844
13677W        W73114  30.518  37.485  14.911
13678W        W73115   7.378  44.295  14.373
13679W        W73116  42.325  19.220  13.051
13680W        W73117   3.900  29.939  14.806
13681W        W73118  28.494  44.830  13.349
13682W        W73119   7.330  36.035   0.446
13683W        W73120  10.768  42.454   2.844
13684W        W73121  28.478   5.293  10.539
13685W        W73122  30.545   6.848   2.697
13686W        W73123   4.810  21.043   3.325
13687W        W73124  15.789  29.598   0.280
13688W        W73125   3.309  12.177  13.041
13689W        W73126   4.210  38.988  14.318
13690W        W73127   0.466  13.640   2.685
13691W        W73128   1.413  42.378   1.721
13692W        W73129   2.459   1.735   0.389
13693W        W73130  21.077  11.253   3.358
13694W        W73131  26.469  35.451   3.702
13695W        W73132   6.760  38.055   0.914
13696W        W73133  31.979  19.600  14.855
13697W        W73134  32.458  44.830   4.317
13698W        W73135   4.727  21.136  13.534
13699W        W73136  10.857  38.459  14.441
13700W        W73137  27.486  26.553   1.890
13701W        W73138   1.895  34.529   1.838
13702W        W73139  39.846  16.282   2.248
13703W        W73140   4.336  36.992   4.667
13704W        W73141  43.305  41.512  14.482
13705W        W73142  30.413  26.666  12.373
13706W        W73143  36.593  22.173  10.988
13707W        W73144  41.917   1.848   2.413
13708W        W73145   6.276   6.389   4.314
13709W        W73146   8.872  26.966  12.352
13710W        W73147   9.790  16.079  12.932
13711W        W73148   7.361  10.717   4.220
13712W        W73149  11.130  14.743   2.700
13713W        W73150  33.479   6.891  10.626
13714W        W73151  32.465  30.641  12.881
13715W        W73152  35.539   5.437   0.355
13716W        W73153  38.907  25.574   0.406
13717W        W73154  43.404   0.328   3.670
13718W        W73155  33.409  28.117   0.319
13719W        W73156  32.595  44.335   0.862
13720W        W73157  28.982  13.300   3.632
13721W        W73158   1.281  14.673   3.658
13722W        W73159  27.019  18.567   1.415
13723W        W73160  35.376  13.150   4.123
13724W        W73161  15.098  23.627   4.633
13725W        W73162   5.746   5.404   2.258
13726W        W73163  18.211  27.630  12.500
13727W        W73164  31.450  41.968   0.933
13728W        W73165  31.985  15.123   2.195
13729W        W73166  35.432  33.520   3.237
13730W        W73167  30.487  29.446   3.170
13731W        W73168   6.725  16.629   0.380
13732W        W73169  37.439  39.020  13.954
13733W        W73170  29.087  17.083  11.980
13734W        W73171  15.656   5.797  14.885
13735W        W73172  38.351  35.582   4.644
13736W        W73173  32.580   5.824  10.896
13737W        W73174  16.748  21.116  12.572
13738W        W73175   4.819  33.547   0.837
13739W        W73176  20.714  13.273   4.667
13740W        W73177   6.349  20.715   2.705
13741W        W73178  19.776   7.670   0.953
13742W        W73179  29.117  33.984   0.876
13743W        W73180  10.653  40.376   3.244
13744W        W73181  31.153  36.435   4.820
13745W        W73182  19.582  14.669  14.914
13746W        W73183  10.853  35.078  10.467
13747W        W73184  14.239  12.189   3.759
13748W        W73185   4.366   2.458   4.170
13749W        W73186  26.465  39.907  14.860
13750W        W73187   5.438  35.596  13.877
13751W        W73188   1.381  11.216   9.465
13752W        W73189  38.525  12.731   1.241
13753W        W73190  44.368  39.509  11.544
13754W        W73191  43.807  21.688   4.793
13755W        W73192  43.464  34.104  12.913
13756W        W73193   5.258  24.487   0.860
13757W        W73194  43.947  23.088   3.296
13758W        W73195  36.351  36.348  10.541
13759W        W73196   3.329   0.478   4.807
13760W        W73197  12.354   1.801   0.436
13761W        W73198   9.305   6.735   3.679
13762W        W73199  18.734  33.606   1.800
13763W        W73200  25.571  14.727   0.314
13764W        W73201  30.970  19.735  12.093
13765W        W73202  23.163   3.269   2.667
13766W        W73203  27.612  27.511  13.920
13767W        W73204  21.700  17.738  14.404
13768W        W73205  41.021  16.695  10.592
13769W        W73206  13.134  16.592   1.234
13770W        W73207  36.011   6.816   4.291
13771W        W73208  11.370  33.540   0.908
13772W        W73209   0.404  37.890  13.514
13773W        W73210  24.985  28.131  12.515
13774W        W73211  11.817  40.805   0.264
13775W        W73212   5.350  33.431   3.763
13776W        W73213   1.861   1.769   4.273
13777W        W73214  12.158  16.238  11.398
13778W        W73215  43.971  16.674  12.945
13779W        W73216   0.428  12.854   2.254
13780W        W73217  24.030  10.234  12.441
13781W        W73218  32.920  33.013   2.266
13782W        W73219   6.258  24.138  14.302
13783W        W73220  37.087  43.447   1.331
13784W        W73221  34.096   1.385   0.342
13785W        W73222   1.404  38.854   4.144
13786W        W73223  41.373  44.843   3.298
13787W        W73224  41.304   7.356   2.777
13788W        W73225   9.299  25.569   0.836
13789W        W73226  31.149  10.860  13.423
13790W        W73227  35.081  14.137   4.800
13791W        W73228  21.049  30.486  11.037
13792W        W73229  33.571  23.033   4.771
13793W        W73230  25.175  23.670   1.881
13794W        W73231  21.673  21.605   0.301
13795W        W73232   4.786  33.874   1.750
13796W        W73233  29.453  23.729   1.787
13797W        W73234  43.469  22.690   1.747
13798W        W73235   9.250  44.501   9.975
13799W        W73236   8.305  40.892   0.460
13800W        W73237  38.074  27.188   3.168
13801W        W73238  20.604  18.677  13.794
13802W        W73239   1.869   7.242  14.979
13803W        W73240  35.385  19.250   1.742
13804W        W73241  27.945  34.019   1.925
13805W        W73242  37.992  29.627  11.899
13806W        W73243  19.136   6.393   1.845
13807W        W73244  27.025  27.452  13.883
13808W        W73245  37.849  31.127  10.611
13809W        W73246  29.951  12.614  10.497
13810W        W73247   3.710  25.138  10.977
13811W        W73248  38.930  11.235   4.837
13812W        W73249  19.767  37.859   1.224
13813W        W73250  17.077   2.269  13.863
13814W        W73251  25.188   7.250  14.369
13815W        W73252  11.710  17.717   0.391
13816W        W73253   0.269  28.142  12.508
13817W        W73254  37.418  20.249  11.870
13818W        W73255   0.277  10.713  14.790
13819W        W73256  43.808   6.706   0.914
13820W        W73257  20.722  10.308  12.088
13821W        W73258  10.278  13.796   4.116
13822W        W73259   2.944  42.835  14.510
13823W        W73260  42.385  33.099  14.440
13824W        W73261  28.929   6.317   1.316
13825W        W73262  39.825  25.218  12.871
13826W        W73263  24.021  27.990  12.472
13827W        W73264  38.970  17.632  11.016
13828W        W73265  43.964  39.403  10.479
13829W        W73266  33.462  34.459  10.941
13830W        W73267  18.196  40.461   0.460
13831W        W73268  23.040  29.050   1.240
13832W        W73269   1.251  22.599  13.493
13833W        W73270  22.233  28.144  14.321
13834W        W73271  43.330  34.572  14.922
13835W        W73272  12.301  24.523  11.974
13836W        W73273   0.835  41.891   2.814
13837W        W73274   7.205  12.263   4.223
13838W        W73275  22.181   0.381   3.789
13839W        W73276  33.466   2.845   5.220
13840W        W73277  27.592  14.294   0.929
13841W        W73278   7.685   2.829  13.532
13842W        W73279  13.283  38.960  10.453
13843W        W73280  28.501  43.497  14.329
13844W        W73281  20.604   5.915   2.748
13845W        W73282  38.436  27.618   3.286
13846W        W73283  43.369   0.862  12.382
13847W        W73284  33.126   8.866   3.760
13848W        W73285  23.710  11.135  13.314
13849W        W73286  31.430  30.657  14.396
13850W        W73287  31.439  40.544   4.751
13851W        W73288  14.209  16.074  12.913
13852W        W73289  12.171   2.279  12.452
13853W        W73290  27.661  13.264  12.919
13854W        W73291  19.724  37.855   5.122
13855W        W73292  40.934  28.946   2.720
13856W        W73293  24.576  39.524  11.960
13857W        W73294  22.538  10.806   2.895
13858W        W73295  37.973  28.947  10.973
13859W        W73296  22.092  44.838  11.021
13860W        W73297  12.795  10.876  12.363
13861W        W73298   5.702  13.772  14.963
13862W        W73299  28.042  34.933  10.428
13863W        W73300  14.132  34.101   4.282
13864W        W73301  15.670   3.910  13.956
13865W        W73302  33.472  23.047   1.425
13866W        W73303  39.811  20.642   3.270
13867W        W73304  41.831  39.941  14.397
13868W        W73305  33.058  35.403   3.299
13869W        W73306   5.250  41.036  13.973
13870W        W73307  24.219   8.900  14.393
13871W        W73308  10.635  33.568  10.626
13872W        W73309  10.348  18.142  10.056
13873W        W73310   4.718  25.215   0.938
13874W        W73311  24.102  41.913  14.819
13875W        W73312  42.477  31.916  13.425
13876W        W73313  37.899  23.013  10.555
13877W        W73314  40.010   9.878   4.762
13878W        W73315  13.726  30.942  12.413
13879W        W73316   2.785  10.168  12.419
13880W        W73317  18.567  11.351   3.846
13881W        W73318  24.016  44.378  12.451
13882W        W73319  23.531  33.901  11.870
13883W        W73320  26.583   1.238   3.205
13884W        W73321  37.873  13.802   3.369
13885W        W73322  41.870  14.152   2.290
13886W        W73323  37.398  20.734   1.899
13887W        W73324  25.140  29.921   0.754
13888W        W73325  24.227  40.877   4.300
13889W        W73326  23.528  42.368  12.935
13890W        W73327  35.908   8.788  12.942
13891W        W73328  23.727  22.603   1.372
13892W        W73329  30.610  38.930  11.544
13893W        W73330  38.340   4.272  11.570
13894W        W73331  21.627  27.646   0.802
13895W        W73332  36.401  40.802  13.315
13896W        W73333  19.576  13.768   4.352
13897W        W73334  15.659   6.335  12.467
13898W        W73335  26.056  29.479  14.890
13899W        W73336  31.124   7.797   3.333
13900W        W73337  24.018   9.762  12.463
13901W        W73338  14.296  21.682   2.780
13902W        W73339  16.237   3.405  13.906
13903W        W73340  40.335   2.774  14.818
13904W        W73341  11.738  24.193   2.259
13905W        W73342  22.091  13.347   2.784
13906W        W73343  43.838  34.028  11.105
13907W        W73344   1.262  17.255   4.626
13908W        W73345  26.063  43.501   0.339
13909W        W73346  16.577   5.813   4.762
13910W        W73347  28.574  22.677   2.820
13911W        W73348  42.871  17.564   1.799
13912W        W73349  40.834  44.817   3.725
13913W        W73350  42.030  13.753  10.485
13914W        W73351   4.743  20.031   1.234
13915W        W73352   6.712  20.546   0.814
13916W        W73353  38.061  43.482   2.309
13917W        W73354  32.588   1.297  13.401
13918W        W73355  22.561  38.345  13.392
13919W        W73356  20.599  19.174  14.820
13920W        W73357   9.795  38.884  14.028
13921W        W73358   8.844   9.656  12.855
13922W        W73359   6.250   3.924   2.702
13923W        W73360  36.474  42.867   4.115
13924W        W73361   8.336  31.953  14.280
13925W        W73362  32.972  31.117   0.905
13926W        W73363  11.765   7.416  11.862
13927W        W73364  40.346  11.824   4.157
13928W        W73365  31.522   6.741   1.837
13929W        W73366   9.229  33.904   4.721
13930W        W73367  28.116  18.072   9.936
13931W        W73368   1.949  17.172   3.682
13932W        W73369  19.726   2.440  11.984
13933W        W73370  19.175  34.388  13.504
13934W        W73371  43.869  10.683  12.412
13935W        W73372  32.100  34.933  13.469
13936W        W73373  28.498  12.180   2.189
13937W        W73374  34.982  20.115  10.943
13938W        W73375  23.583   2.758  13.012
13939W        W73376  15.317  44.003   3.637
13940W        W73377  39.853  29.515   0.910
13941W        W73378  19.136  39.348   9.542
13942W        W73379  44.004   7.884   1.368
13943W        W73380  26.642  23.211  12.940
13944W        W73381   3.327   9.644  14.450
13945W        W73382  13.620   6.277   1.897
13946W        W73383  32.513  44.978  13.054
13947W        W73384  33.085  20.671  10.548
13948W        W73385  30.542  43.785  12.910
13949W        W73386  30.077  20.739  11.021
13950W        W73387  36.974  11.629   4.265
13951W        W73388  13.320  23.697  10.160
13952W        W73389  24.499  11.148  11.949
13953W        W73390  16.290  33.916   3.657
13954W        W73391  29.975  42.283  13.963
13955W        W73392  43.280  16.752  11.425
13956W        W73393  22.134   5.197   0.911
13957W        W73394  34.863  30.453   3.742
13958W        W73395  34.511  17.257  10.592
13959W        W73396  35.560   3.455   1.385
13960W        W73397  14.316  41.942  12.953
13961W        W73398   2.953  37.483   3.713
13962W        W73399  22.170  20.269  12.517
13963W        W73400  43.513  42.315   0.882
13964W        W73401  23.220  24.199   4.752
13965W        W73402  25.685  36.435  11.873
13966W        W73403  24.546  42.989  11.464
13967W        W73404  38.347  36.575  10.511
13968W        W73405  41.040  27.126  11.581
13969W        W73406  23.065  37.042  12.923
13970W        W73407   7.826  32.062  11.529
13971W        W73408  17.620   6.419   0.312
13972W        W73409   3.876  15.603   2.750
13973W        W73410  32.408  11.325   2.762
13974W        W73411  25.030  33.062   2.873
13975W        W73412  32.043   5.367  10.427
13976W        W73413  33.584  25.182  14.404
13977W        W73414  32.444   9.244  11.519
13978W        W73415  18.674  43.389   0.288
13979W        W73416  22.065  10.858   1.799
13980W        W73417   0.281  21.144   3.317
13981W        W73418  41.833  17.716  14.830
13982W        W73419  36.859   3.402   5.302
13983W        W73420  14.258   3.289  11.966
13984W        W73421  15.755   1.448  11.913
13985W        W73422   4.315  17.214   4.648
13986W        W73423  13.131   9.869  11.581
13987W        W73424   5.414  31.475   2.869
13988W        W73425  42.887  36.998   2.295
13989W        W73426  13.788  43.382   2.898
13990W        W73427  10.207  38.073   4.646
13991W        W73428  43.944  23.689   4.631
13992W        W73429  27.950  19.737   4.189
13993W        W73430  35.037   9.282  12.554
13994W        W73431  25.120  22.509   2.663
13995W        W73432  31.903  43.417  13.823
13996W        W73433  19.196  31.629   2.180
13997W        W73434  24.172   7.868   4.261
13998W        W73435  11.811   9.840   0.760
13999W        W73436  42.895  36.953   2.822
14000W        W73437  43.864  24.563   4.129
14001W        W73438  25.154   3.283   5.206
14002W        W73439   7.883  27.493  11.570
14003W        W73440  11.269   4.855  11.508
14004W        W73441   0.895  34.084  14.020
14005W        W73442  34.037   3.873   1.740
14006W        W73443   3.788  13.673   2.787
14007W        W73444  41.440  28.466   4.667
14008W        W73445  21.631  29.440   3.716
14009W        W73446  28.136  28.051  14.316
14010W        W73447   3.417   2.967  13.984
14011W        W73448   5.887  37.491   0.417
14012W        W73449  20.649  14.171  14.984
14013W        W73450  43.893  27.519  14.322
14014W        W73451   3.717  27.509  12.512
14015W        W73452   4.853  37.412  11.046
14016W        W73453  33.127  42.891   4.828
14017W        W73454  17.265  23.490  12.992
14018W        W73455  31.121  16.231  12.409
14019W        W73456   7.755  41.504  12.497
14020W        W73457   2.251  28.149   0.414
14021W        W73458  29.050   6.348  12.093
14022W        W73459   2.361  13.635   9.648
14023W        W73460  17.635   7.724   2.715
14024W        W73461  23.670   6.753   3.282
14025W        W73462  38.072  21.652  12.378
14026W        W73463  44.424  16.658   4.236
14027W        W73464  11.705  40.488   1.830
14028W        W73465   6.337  23.622  10.084
14029W        W73466  10.850  30.083   3.160
14030W        W73467   2.299  22.189  13.899
14031W        W73468  11.225   8.845   2.194
14032W        W73469   4.366  17.767  11.086
14033W        W73470  11.259  44.281  14.829
14034W        W73471  26.097  23.594  14.420
14035W        W73472  28.478   3.794   4.332
14036W        W73473  41.826  15.179  12.094
14037W        W73474  43.350   8.388  10.573
14038W        W73475  21.231  26.041   4.162
14039W        W73476  32.110  34.895  11.886
14040W        W73477  23.194  23.562   3.851
14041W        W73478   6.329  37.871   0.443
14042W        W73479  37.978  36.084   1.434
14043W        W73480  43.442  40.053  12.442
14044W        W73481  42.351  34.105  13.316
14045W        W73482  31.627  28.083   5.133
14046W        W73483  18.731  25.660  11.611
14047W        W73484  26.642  13.263  14.980
14048W        W73485  14.199  29.147  12.543
14049W        W73486  20.162  38.522  14.440
14050W        W73487   3.870  15.118  14.856
14051W        W73488   2.732  34.509   2.343
14052W        W73489   2.383  31.019   1.427
14053W        W73490   3.824  34.377   3.758
14054W        W73491  32.896  12.245  13.829
14055W        W73492  35.980  24.036  12.391
14056W        W73493   9.750   0.958  12.846
14057W        W73494   1.870   4.311   3.868
14058W        W73495   9.657  21.218   3.669
14059W        W73496  18.757   6.399  12.863
14060W        W73497  23.143   5.322   0.891
14061W        W73498  28.037  41.039  10.965
14062W        W73499   5.856   1.844   1.731
14063W        W73500  13.617  23.687  11.936
14064W        W73501  43.396  37.056   1.705
14065W        W73502  24.069  35.055  11.123
14066W        W73503  16.211  38.387  11.860
14067W        W73504  22.533  31.048   3.691
14068W        W73505  26.033  27.636  11.016
14069W        W73506  32.134   3.248  14.877
14070W        W73507  37.955   6.392  11.010
14071W        W73508  19.234   2.311  10.405
14072W        W73509  31.049   0.272   2.676
14073W        W73510   1.825   7.200  13.315
14074W        W73511  34.064  19.780  12.469
14075W        W73512  24.497  44.865   0.442
14076W        W73513  36.358  19.282   4.631
14077W        W73514  12.358   0.440   4.120
14078W        W73515  18.241  22.016   1.755
14079W        W73516  22.626   9.789   3.184
14080W        W73517  22.090   4.434   1.695
14081W        W73518  38.979   8.736  14.788
14082W        W73519  26.471  22.195   0.448
14083W        W73520  14.616   0.981  10.123
14084W        W73521  23.502  10.315  12.389
14085W        W73522  42.288  36.401   9.515
14086W        W73523  11.743   1.884  11.098
14087W        W73524   1.260  21.206   2.351
14088W        W73525  11.623  20.535  11.510
14089W        W73526  20.094  34.468  10.915
14090W        W73527  38.005  23.697   3.642
14091W        W73528  42.954  19.040   1.910
14092W        W73529  43.804   3.271   3.732
14093W        W73530  20.561  24.693  11.108
14094W        W73531  28.039  25.656   1.811
14095W        W73532  42.844   1.807  11.074
14096W        W73533  15.722  14.276   2.225
14097W        W73534   0.344   6.338  13.487
14098W        W73535  15.591  14.096   3.145
14099W        W73536  28.119  19.536   1.823
14100W        W73537  18.778  22.221   2.773
14101W        W73538  35.358   4.887  10.908
14102W        W73539  28.138  14.223   0.931
14103W        W73540  41.537  17.244   2.809
14104W        W73541   8.217   6.324  11.872
14105W        W73542  12.613   8.862   2.193
14106W        W73543   1.854  31.565   0.789
14107W        W73544   5.745   9.688  11.512
14108W        W73545   1.956  10.686   3.179
14109W        W73546  20.724   9.340   4.610
14110W        W73547   1.404  21.093   0.868
14111W        W73548   1.731  10.320   4.182
14112W        W73549  20.151  19.252   1.256
14113W        W73550  37.933  15.268  10.597
14114W        W73551  29.166  15.215  11.066
14115W        W73552  16.230  40.425  14.936
14116W        W73553  27.633  15.683  12.548
14117W        W73554  38.892  23.986   0.395
14118W        W73555   5.299  31.002  11.074
14119W        W73556  42.356   5.803   4.744
14120W        W73557  24.488  20.077  13.336
14121W        W73558  27.503   7.906   0.770
14122W        W73559  22.621   9.701   0.949
14123W        W73560  26.106  21.651   2.822
14124W        W73561   7.284   0.888   1.806
14125W        W73562   7.737  16.643   3.304
14126W        W73563  14.790  24.504  11.463
14127W        W73564  15.195  22.207  11.873
14128W        W73565  14.112  36.501   2.887
14129W        W73566  22.095  15.626  14.806
14130W        W73567  41.807   5.845  13.519
14131W        W73568  29.523  29.923   0.829
14132W        W73569  22.747  28.049  12.891
14133W        W73570   1.315  20.709  11.982
14134W        W73571   9.356  37.413   3.634
14135W        W73572  41.798  20.160  12.342
14136W        W73573  12.261  35.600   3.782
14137W        W73574   3.455  32.122   9.922
14138W        W73575  37.835  19.755  13.032
14139W        W73576  26.553  18.086  11.460
14140W        W73577  15.256  17.607  11.103
14141W        W73578  33.457   2.389   4.759
14142W        W73579   2.810  33.506  12.503
14143W        W73580  21.127   1.928  13.479
14144W        W73581  25.080  15.282   0.873
14145W        W73582  24.662   4.839   0.388
14146W        W73583  35.858  30.969  10.404
14147W        W73584  18.585   0.911   0.891
14148W        W73585  44.836   5.297   2.892
14149W        W73586  43.388  20.544  12.001
14150W        W73587   3.797   3.219   4.665
14151W        W73588  10.702  18.654   4.764
14152W        W73589   2.805  26.650  10.127
14153W        W73590  19.129  10.318  15.000
14154W        W73591   6.333  40.539   5.228
14155W        W73592  12.237  28.140   3.325
14156W        W73593  34.524  38.065  14.789
14157W        W73594  15.753  15.692   5.176
14158W        W73595   3.900  11.673  10.584
14159W        W73596  12.710  19.211  11.119
14160W        W73597  30.914  26.119   3.249
14161W        W73598   1.750  23.192  12.908
14162W        W73599   6.839  20.593   4.286
14163W        W73600   6.297  22.082   1.827
14164W        W73601  31.624  11.198   4.719
14165W        W73602  15.657  41.469  14.403
14166W        W73603  29.040  33.894  13.454
14167W        W73604  37.460  19.040   4.740
14168W        W73605  37.931  42.782  10.451
14169W        W73606  12.828  12.759   3.719
14170W        W73607  23.508  41.026  13.415
14171W        W73608  40.903  40.326  13.987
14172W        W73609  38.928  27.504   0.289
14173W        W73610  22.647  38.418   4.795
14174W        W73611   1.873   5.252   0.415
14175W        W73612  14.192  42.501   4.210
14176W        W73613  40.979  29.103  13.513
14177W        W73614  26.491  15.267  14.886
14178W        W73615  14.189  11.262   0.385
14179W        W73616  43.394  29.924  13.428
14180W        W73617  21.632   1.340  10.602
14181W        W73618  16.190   1.975   4.216
14182W        W73619   7.269  32.428   3.698
14183W        W73620  30.920  29.003  10.975
14184W        W73621  28.148  35.482  11.540
14185W        W73622  31.910  13.836  12.471
14186W        W73623  24.699  38.403   1.927
14187W        W73624  23.718  24.647  11.045
14188W        W73625  32.063   6.729   0.877
14189W        W73626  15.202  30.583  10.974
14190W        W73627  15.133  34.982  11.519
14191W        W73628  10.183  26.063   3.251
14192W        W73629  19.111  39.410   3.703
14193W        W73630  33.581   4.216  10.892
14194W        W73631  33.543   8.198  13.874
14195W        W73632  33.025   2.417  13.387
14196W        W73633  42.983  42.525  11.970
14197W        W73634  30.123  26.477  14.483
14198W        W73635  21.091   5.822  13.982
14199W        W73636   2.255   0.890   2.714
14200W        W73637  30.550  11.756   3.861
14201W        W73638  35.040  25.475  11.452
14202W        W73639  11.244  35.957  13.371
14203W        W73640  30.019  35.898  13.896
14204W        W73641  13.187  32.487  14.016
14205W        W73642  13.711  20.527  10.628
14206W        W73643  14.294  38.486  14.407
14207W        W73644  29.537   4.850  13.535
14208W        W73645  15.647   3.289   1.383
14209W        W73646  24.542  35.881   5.297
14210W        W73647   5.305  23.111   0.345
14211W        W73648  15.135  12.846  12.957
14212W        W73649   3.874  13.621   9.507
14213W        W73650   2.816  44.313  14.808
14214W        W73651  28.605  35.076   2.366
14215W        W73652  35.429  31.076  11.914
14216W        W73653   3.292  27.029   3.336
14217W        W73654  33.073   7.706   3.696
14218W        W73655  21.096  15.280   0.888
14219W        W73656  27.667  18.738   0.904
14220W        W73657  43.369  34.938   9.592
14221W        W73658  31.536  23.565  13.852
14222W        W73659  40.041   3.360   5.182
14223W        W73660  34.030  29.040  13.828
14224W        W73661   6.868   1.747  14.860
14225W        W73662  38.071  22.723  13.352
14226W        W73663  13.156  26.099  11.459
14227W        W73664  36.435   8.223   4.703
14228W        W73665   2.303  38.893   2.266
14229W        W73666  17.579  41.815  13.529
14230W        W73667  14.098   0.254  13.992
14231W        W73668   7.766  38.830  12.431
14232W        W73669  39.369  16.248   4.616
14233W        W73670  15.271   9.192   0.437
14234W        W73671  10.149   0.339   4.114
14235W        W73672  28.503  17.696   2.318
14236W        W73673  44.780  34.950   3.168
14237W        W73674  14.619  30.459   5.125
14238W        W73675  41.024  39.441   3.836
14239W        W73676   8.226  44.489  10.619
14240W        W73677  30.517  41.897   3.209
14241W        W73678  15.615  41.010   2.816
14242W        W73679   6.203  23.675   1.424
14243W        W73680  15.705  12.839  13.026
14244W        W73681  21.620  20.573   4.291
14245W        W73682  17.631   9.372  11.405
14246W        W73683  34.403   1.409   1.292
14247W        W73684  43.919   5.239   0.845
14248W        W73685  32.901  19.748  10.942
14249W        W73686  26.497  35.965  12.372
14250W        W73687   9.702  39.836  13.406
14251W        W73688   1.445   0.841  13.396
14252W        W73689  28.997  34.060  11.517
14253W        W73690  17.654  17.148  12.346
14254W        W73691   7.272   9.338   3.834
14255W        W73692  39.036   9.768  13.542
14256W        W73693   0.948  42.448   0.836
14257W        W73694  12.803  10.360  11.098
14258W        W73695  11.621   9.253   4.143
14259W        W73696  17.629  13.251  11.425
14260W        W73697  40.425  44.277  12.451
14261W        W73698  39.344  21.696  12.978
14262W        W73699   0.881  10.289   5.759
14263W        W73700  22.158  20.764  14.799
14264W        W73701  14.319  40.849  11.496
14265W        W73702  41.329  38.544  14.982
14266W        W73703  31.567  22.198   3.633
14267W        W73704  37.370   7.401  13.518
14268W        W73705  43.930  11.665   1.833
14269W        W73706  21.689   6.308   1.331
14270W        W73707  28.150  20.683  13.386
14271W        W73708  36.083   7.719  11.978
14272W        W73709  32.133   9.797  10.076
14273W        W73710  29.562  12.723  11.574
14274W        W73711  12.291  26.553  13.424
14275W        W73712   5.795   9.318   4.336
14276W        W73713  39.832  32.121   2.241
14277W        W73714   0.280  41.360   0.769
14278W        W73715  14.740  28.528   2.664
14279W        W73716  12.352  34.013  11.382
14280W        W73717  34.033  10.296  11.127
14281W        W73718   5.729  42.350  14.774
14282W        W73719  15.763  41.528   0.408
14283W        W73720   3.925  33.414   2.869
14284W        W73721  11.766  17.201  14.973
14285W        W73722   1.858   8.199   3.377
14286W        W73723  38.988   7.318   1.374
14287W        W73724   7.173  32.990   3.278
14288W        W73725  10.841  28.175  13.424
14289W        W73726  22.042  37.890  11.399
14290W        W73727  36.404   8.272  11.884
14291W        W73728  20.244  18.243   0.835
14292W        W73729  11.343  29.655  13.507
14293W        W73730  37.005  37.493  14.830
14294W        W73731  10.184   8.737   2.875
14295W        W73732  25.997  10.855   2.806
14296W        W73733  18.271  15.183   4.187
14297W        W73734  11.752  29.930  13.864
14298W        W73735  11.803  15.778  11.004
14299W        W73736  12.133  12.318  11.873
14300W        W73737  23.074   0.283  13.933
14301W        W73738   3.418  43.320   0.830
14302W        W73739  41.934  23.662  11.405
14303W        W73740  29.652  33.904  14.899
14304W        W73741  21.121  44.383  12.841
14305W        W73742  28.099  34.997  12.974
14306W        W73743  22.611   6.194  11.586
14307W        W73744  14.267  26.531  11.386
14308W        W73745  28.500  44.967   2.773
14309W        W73746   0.971  22.579   2.370
14310W        W73747  18.785  30.153  12.508
14311W        W73748  28.525  38.055   9.510
14312W        W73749  14.251  26.143  14.354
14313W        W73750  16.083  11.214  12.915
14314W        W73751  26.179  42.458  11.449
14315W        W73752  39.350   5.736   3.725
14316W        W73753  31.499   0.343  13.522
14317W        W73754  18.610  37.500   9.950
14318W        W73755  15.103  11.348   2.379
14319W        W73756  41.478   2.841  11.902
14320W        W73757  15.117   4.303   2.319
14321W        W73758   4.329   7.798  13.941
14322W        W73759   8.334  30.567  13.359
14323W        W73760  22.707  33.983  10.629
14324W        W73761   5.793   9.791  10.471
14325W        W73762  11.743  34.509  13.962
14326W        W73763   2.758  29.442   1.694
14327W        W73764  21.714  20.203  11.510
14328W        W73765   1.751  11.697  13.478
14329W        W73766  15.797  33.477   3.369
14330W        W73767  16.654   5.770   0.881
14331W        W73768  43.305  14.666   2.197
14332W        W73769  28.161  13.317  14.441
14333W        W73770  13.824  30.067  11.072
14334W        W73771  10.855  19.039   2.881
14335W        W73772   4.760  10.310  12.914
14336W        W73773  40.931  35.437   2.371
14337W        W73774  32.058  26.972  12.890
14338W        W73775   3.365   1.802  13.359
14339W        W73776   1.422  44.989   2.418
14340W        W73777  37.999  30.460   0.922
14341W        W73778  31.630   0.374  12.353
14342W        W73779   0.803  16.172   0.289
14343W        W73780  15.670  39.042   1.225
14344W        W73781  33.570  30.151   1.336
14345W        W73782  24.564  32.956   4.830
14346W        W73783  17.082  29.024   1.400
14347W        W73784  15.152  14.810   0.252
14348W        W73785  16.712   0.791   0.782
14349W        W73786  31.472  24.002   1.289
14350W        W73787  42.300   1.343   4.118
14351W        W73788  17.636   8.311   2.849
14352W        W73789  23.162  35.505  11.432
14353W        W73790  33.503  37.487  13.545
14354W        W73791  40.998  14.700   4.267
14355W        W73792   7.675   7.835   3.228
14356W        W73793  18.111   6.358   1.439
14357W        W73794  24.205  23.125   5.276
14358W        W73795   1.282  34.001   2.862
14359W        W73796  26.610  23.118   9.467
14360W        W73797  25.028  19.240  14.958
14361W        W73798  19.051  38.339   0.447
14362W        W73799  11.185  43.859  12.470
14363W        W73800  37.541  35.552   0.810
14364W        W73801  41.386  38.450   2.777
14365W        W73802  28.030  12.215  12.050
14366W        W73803  28.553  11.801   1.880
14367W        W73804  20.249  22.603   0.276
14368W        W73805  19.684  41.477   2.725
14369W        W73806  35.105  14.660  10.606
14370W        W73807  26.023   6.905  10.920
14371W        W73808  35.434  21.120   2.180
14372W        W73809  11.128  15.286   0.809
14373W        W73810  33.433  26.061  14.413
14374W        W73811  33.423  43.411  11.378
14375W        W73812  22.682  15.730  12.435
14376W        W73813  28.676   3.805  14.839
14377W        W73814  31.004  35.416  11.129
14378W        W73815  17.106  24.567   0.344
14379W        W73816  25.548  15.803   4.197
14380W        W73817   6.795  41.461  14.295
14381W        W73818   8.699   2.754  14.504
14382W        W73819  32.098  32.003   4.635
14383W        W73820  16.286   4.417  13.521
14384W        W73821  28.489  43.879   2.261
14385W        W73822  26.611  37.039  13.015
14386W        W73823   0.441  37.505   2.719
14387W        W73824  40.448  12.666  13.354
14388W        W73825   9.292  38.940  13.965
14389W        W73826   2.929   5.429   0.273
14390W        W73827  15.611   4.405   0.425
14391W        W73828  33.981  24.706   9.510
14392W        W73829  13.182  21.160  13.855
14393W        W73830  39.043   4.348  12.556
14394W        W73831  12.147  33.116  10.892
14395W        W73832  44.896  10.336  13.532
14396W        W73833  21.629  16.752  12.825
14397W        W73834   2.411  11.257   2.194
14398W        W73835   5.829  12.270  12.368
14399W        W73836  35.947  40.034  12.942
14400W        W73837  31.607  27.068  13.358
14401W        W73838  22.698   8.701  10.968
14402W        W73839  36.396  44.494  10.943
14403W        W73840   8.740   2.274  10.908
14404W        W73841  12.343  43.879   4.718
14405W        W73842  33.447  20.197   2.899
14406W        W73843  43.351  33.919  13.860
14407W        W73844  36.988   2.417   1.386
14408W        W73845  14.212  40.016  12.967
14409W        W73846  13.790  32.010   3.678
14410W        W73847  15.725  41.327  11.095
14411W        W73848   7.911  40.927  13.482
14412W        W73849   5.766  35.587   2.700
14413W        W73850  20.691   6.913  13.505
14414W        W73851  33.966  36.572  13.416
14415W        W73852   0.902  36.358  14.404
14416W        W73853   8.206  35.411  13.453
14417W        W73854  32.395  20.619  10.459
14418W        W73855  12.177   7.184   1.354
14419W        W73856  20.729  10.297  14.908
14420W        W73857  26.190  13.199   0.446
14421W        W73858  32.066  17.251   4.810
14422W        W73859  17.066  25.090   3.277
14423W        W73860  31.487   8.266   1.406
14424W        W73861  43.814  25.680   1.737
14425W        W73862  38.504  31.603  11.575
14426W        W73863   5.341  26.146   4.288
14427W        W73864  10.648  44.292   3.716
14428W        W73865  32.899  28.531   1.935
14429W        W73866  43.804   3.449  12.542
14430W        W73867  20.220   4.884   5.267
14431W        W73868   0.273  38.460   4.200
14432W        W73869  13.689   3.317  11.403
14433W        W73870  33.972  10.274  10.541
14434W        W73871  12.801   0.890  10.537
14435W        W73872  36.986   3.355  13.364
14436W        W73873  39.406  23.131  13.547
14437W        W73874  11.344  29.961   4.176
14438W        W73875  30.112   8.289  11.914
14439W        W73876  28.506  43.019   4.756
14440W        W73877  19.735   5.352  14.394
14441W        W73878  39.366  12.825   4.223
14442W        W73879  10.219  26.100   2.283
14443W        W73880  31.457  16.304  10.579
14444W        W73881  18.590  21.138   1.931
14445W        W73882  18.748  27.100   4.323
14446W        W73883  10.167   5.839   1.788
14447W        W73884  30.088   8.814   4.184
14448W        W73885  17.779  33.083  10.557
14449W        W73886  25.137  31.455  11.532
14450W        W73887  14.216  11.646   4.685
14451W        W73888  14.648  26.643  14.303
14452W        W73889  19.041  27.021   1.326
14453W        W73890   7.387  22.230  12.953
14454W        W73891  39.334  33.962   0.344
14455W        W73892  43.469  17.186  10.043
14456W        W73893  19.199  25.700  12.843
14457W        W73894  15.670  11.747  14.905
14458W        W73895  10.645  31.408   3.738
14459W        W73896  23.163  22.168  10.905
14460W        W73897  43.391  33.464   5.577
14461W        W73898  33.389  11.731  12.979
14462W        W73899  25.506  21.512   0.841
14463W        W73900   1.964  15.183  11.066
14464W        W73901  13.611  44.448  10.614
14465W        W73902  34.058  19.082  11.539
14466W        W73903   5.891  23.649   4.261
14467W        W73904  18.768  40.500   3.281
14468W        W73905   2.773  44.885   2.253
14469W        W73906   5.438  30.024   0.405
14470W        W73907  20.233   2.949   1.760
14471W        W73908   0.256  33.437  12.911
14472W        W73909  24.720  15.308  10.542
14473W        W73910   0.816  40.876   3.184
14474W        W73911   0.787  32.946  12.906
14475W        W73912  20.268  19.722  10.439
14476W        W73913   4.899  12.292   9.943
14477W        W73914  16.711  29.500   1.361
14478W        W73915  25.109   4.438   0.910
14479W        W73916  19.592  19.193  11.865
14480W        W73917  11.738  27.033   1.275
14481W        W73918  29.938  10.862  14.360
14482W        W73919  42.781  15.750   4.660
14483W        W73920  41.916  11.850  13.981
14484W        W73921  26.668   7.247   9.954
14485W        W73922  25.138  43.444  12.055
14486W        W73923  10.659  32.990   4.613
14487W        W73924  41.916  35.370  12.945
14488W        W73925   8.393  38.327  12.361
14489W        W73926  12.831  40.813  11.119
14490W        W73927   1.434  31.446   4.151
14491W        W73928  27.606  42.349  12.953
14492W        W73929  22.251  33.560  10.960
14493W        W73930  40.053   8.233   4.663
14494W        W73931  22.539  37.071  13.864
14495W        W73932  36.962  30.430  11.406
14496W        W73933  13.738   4.401   3.747
14497W        W73934   4.439  39.881   3.723
14498W        W73935  22.594   9.166  12.854
14499W        W73936  15.817  26.693   0.296
14500W        W73937  30.165  41.880   0.357
14501W        W73938  29.599  24.573   2.267
14502W        W73939  23.578  13.724   0.413
14503W        W73940  35.006   6.359   1.226
14504W        W73941  13.191  44.261  12.401
14505W        W73942  27.147  30.492   4.777
14506W        W73943  32.887  16.285  13.900
14507W        W73944  41.833  42.799  11.556
14508W        W73945  36.379  35.899   5.253
14509W        W73946  40.534   1.932  12.996
14510W        W73947   5.270  26.047  11.471
14511W        W73948  31.072   2.321   1.875
14512W        W73949  42.304  33.415   0.883
14513W        W73950   0.862  32.459   4.818
14514W        W73951  10.209  16.660   2.850
14515W        W73952  16.272  34.962   4.238
14516W        W73953  35.508  14.095   4.751
14517W        W73954  37.938  31.441   0.860
14518W        W73955   9.837  36.467  12.534
14519W        W73956  39.847  36.037   4.144
14520W        W73957   3.771   6.231   4.252
14521W        W73958  21.053  34.520   4.737
14522W        W73959  10.638  23.179  10.431
14523W        W73960  28.033  21.178  13.445
14524W        W73961  29.616  15.683  13.446
14525W        W73962  16.086  28.064  12.577
14526W        W73963  32.050   2.803   4.128
14527W        W73964  38.932  14.175  11.078
14528W        W73965   5.851  41.473   4.343
14529W        W73966  42.857  26.522  10.027
14530W        W73967  42.482  23.044   0.903
14531W        W73968  42.294  26.569   2.829
14532W        W73969  14.594  13.825   2.780
14533W        W73970  40.500  23.672   1.296
14534W        W73971  13.193  22.056   4.777
14535W        W73972   3.391  43.430  14.423
14536W        W73973  14.177  29.544  13.018
14537W        W73974  37.851  16.256   1.347
14538W        W73975   8.197   6.427  10.462
14539W        W73976   1.773  27.110  13.391
14540W        W73977  17.276  19.271  13.465
14541W        W73978   5.406  21.750   0.337
14542W        W73979   1.240  28.100  12.915
14543W        W73980  37.912   7.383  11.461
14544W        W73981  34.515   7.372  13.033
14545W        W73982  34.579  41.405  11.024
14546W        W73983  27.629  18.552   4.646
14547W        W73984  17.623  20.757  10.946
14548W        W73985  24.216  16.134   2.732
14549W        W73986  19.674  18.697  13.876
14550W        W73987  17.567  12.748  12.512
14551W        W73988   1.892  19.572   2.372
14552W        W73989  22.545  18.776  11.525
14553W        W73990   3.928   8.275  14.491
14554W        W73991  17.180  34.581  12.961
14555W        W73992  30.164  11.165   4.325
14556W        W73993   2.926  22.556   0.379
14557W        W73994  23.098  31.557  11.021
14558W        W73995  10.249  26.562  10.419
14559W        W73996  37.473  43.318   3.149
14560W        W73997   2.341   4.871  14.888
14561W        W73998   2.803  12.155   5.181
14562W        W73999  16.779  43.410  11.875
14563W        W74000   6.865  39.920   3.182
14564W        W74001  43.874  25.167  12.961
14565W        W74002   6.734  20.152   3.182
14566W        W74003  32.025  20.087  13.792
14567W        W74004  32.583  32.392   2.294
14568W        W74005  13.227  20.753   4.816
14569W        W74006  37.994  42.855   0.799
14570W        W74007   2.462  41.896   1.366
14571W        W74008  40.832  40.338  14.395
14572W        W74009  37.374  32.403  10.557
14573W        W74010   1.898  39.540   0.306
14574W        W74011  10.263   9.260   2.212
14575W        W74012  18.098  26.595   5.162
14576W        W74013   1.288  31.573  11.470
14577W        W74014  22.514  24.622  11.936
14578W        W74015  19.609  19.253   1.917
14579W        W74016  15.588  24.534  14.828
14580W        W74017   1.949   1.304  14.956
14581W        W74018  39.367   9.367  10.487
14582W        W74019  30.606   4.443   2.234
14583W        W74020  22.104  16.111   1.834
14584W        W74021  19.043  34.020   0.825
14585W        W74022  12.356  44.414   2.319
14586W        W74023  43.498   1.937   2.400
14587W        W74024  40.498  24.713   4.816
14588W        W74025  19.756  29.075   3.360
14589W        W74026  20.069  39.471   0.870
14590W        W74027  18.181  21.538   0.301
14591W        W74028  16.594  21.514   2.182
14592W        W74029  17.209  17.598  12.072
14593W        W74030  44.940  24.130   1.343
14594W        W74031  35.502  32.105  10.413
14595W        W74032  44.387  30.006  12.924
14596W        W74033   8.893   6.219   5.302
14597W        W74034  35.004   3.354  11.929
14598W        W74035  15.287  24.083   1.364
14599W        W74036  11.829  27.180  11.911
14600W        W74037  10.160  38.072   1.745
14601W        W74038   4.739  36.522   3.789
14602W        W74039   4.724  22.103   2.732
14603W        W74040  33.031  17.686   4.795
14604W        W74041  26.562   2.470  13.801
14605W        W74042  25.135   3.323   4.758
14606W        W74043  24.610   0.305  12.470
14607W        W74044  29.617  15.824   4.753
14608W        W74045  33.418  42.387   3.774
14609W        W74046  30.639   7.327   2.240
14610W        W74047  24.026   5.734   4.756
14611W        W74048   8.761   1.356   0.273
14612W        W74049  36.876  18.552   3.635
14613W        W74050  33.584   8.866  11.516
14614W        W74051  15.689  27.082   0.927
14615W        W74052   5.893  21.142   1.354
14616W        W74053  43.863  12.132   4.333
14617W        W74054  26.700  28.503   4.193
14618W        W74055  23.213  14.771  14.787
14619W        W74056  14.339   7.679  14.513
14620W        W74057  32.572   4.230  11.982
14621W        W74058  19.149  10.341  10.092
14622W        W74059   4.373  23.088  11.086
14623W        W74060   2.879  12.675  13.998
14624W        W74061  34.114  43.895  14.453
14625W        W74062  17.062  28.488   0.896
14626W        W74063  42.282   2.891  14.847
14627W        W74064  15.614   2.405   5.101
14628W        W74065  33.595  13.808   2.778
14629W        W74066  30.051   3.282   3.864
14630W        W74067  22.199   1.737   3.833
14631W        W74068  31.950  17.243  11.910
14632W        W74069  40.980  39.376   4.643
14633W        W74070  10.854   9.789   0.252
14634W        W74071   7.198  34.392   3.797
14635W        W74072  20.227  31.630  12.501
14636W        W74073  37.885  44.908  12.923
14637W        W74074  40.364  44.920   2.294
14638W        W74075  38.326  36.548   3.831
14639W        W74076   3.903   2.767   1.297
14640W        W74077  21.075  44.395   4.632
14641W        W74078  15.598   2.744   4.312
14642W        W74079   8.823  21.594   2.302
14643W        W74080   7.184   3.430  12.407
14644W        W74081  14.760  25.659  11.489
14645W        W74082   4.374   4.415  12.398
14646W        W74083  31.038  33.952   4.825
14647W        W74084  40.403  26.513   1.853
14648W        W74085  11.264  14.691   3.266
14649W        W74086  29.614  27.148  11.379
14650W        W74087  31.541  17.092   1.884
14651W        W74088  37.527  33.464   0.747
14652W        W74089  16.137  30.993  13.333
14653W        W74090  29.073  13.169  14.317
14654W        W74091  27.088  10.213  11.001
14655W        W74092  34.947  42.338  13.043
14656W        W74093  31.583  28.130  12.559
14657W        W74094  19.142  43.887   5.621
14658W        W74095  10.708  13.802   1.240
14659W        W74096  17.671  27.512  10.904
14660W        W74097   4.810  34.917   4.815
14661W        W74098   1.859   0.851   2.836
14662W        W74099  25.653   4.922   1.322
14663W        W74100   0.411  11.625  13.431
14664W        W74101  22.592  14.315   3.735
14665W        W74102  30.590  44.340   5.147
14666W        W74103   7.341  22.237  13.452
14667W        W74104   0.383  17.224  11.107
14668W        W74105  19.695  23.615   5.230
14669W        W74106  34.600   5.833   3.162
14670W        W74107  13.269  32.551   4.253
14671W        W74108  32.108  40.941  10.930
14672W        W74109  44.407  37.518   5.729
14673W        W74110   8.747  41.457  12.973
14674W        W74111  40.484   2.885   3.710
14675W        W74112  27.517  22.695  13.932
14676W        W74113  24.196  25.569   0.904
14677W        W74114  37.909  19.116  11.899
14678W        W74115  28.087   5.328   2.730
14679W        W74116  39.037  15.321   3.285
14680W        W74117   1.766  43.303  13.811
14681W        W74118   3.950  31.451   0.382
14682W        W74119  33.917  37.573   4.636
14683W        W74120  14.251  41.381   4.679
14684W        W74121  24.186   2.293  11.920
14685W        W74122  28.110   7.395   0.822
14686W        W74123  36.429  21.576   2.816
14687W        W74124   7.280  23.711  12.959
14688W        W74125  17.087  33.421   1.781
14689W        W74126  17.725   3.956  11.015
14690W        W74127  43.442  28.941   0.804
14691W        W74128   8.361  21.717  10.404
14692W        W74129  30.581  38.367  13.929
14693W        W74130  12.268   3.713   0.817
14694W        W74131  16.794   6.692  13.826
14695W        W74132  35.370  19.148  11.021
14696W        W74133  23.656  44.866   0.941
14697W        W74134  31.032  11.740   2.760
14698W        W74135   7.398  14.633   0.414
14699W        W74136   0.759   5.778  11.585
14700W        W74137   7.808  18.252  11.118
14701W        W74138   7.721   2.769   0.856
14702W        W74139   6.370  16.713  10.042
14703W        W74140  41.023  39.479  13.451
14704W        W74141  33.076  20.265   1.383
14705W        W74142  38.549  43.927   4.831
14706W        W74143  23.593  35.369   4.722
14707W        W74144   0.819  16.249  12.853
14708W        W74145  31.536   8.356   0.245
14709W        W74146   8.345  41.325   2.264
14710W        W74147  23.694   3.884   3.688
14711W        W74148  21.250  30.943   0.928
14712W        W74149  20.064  37.017  11.472
14713W        W74150  40.907   8.322   1.319
14714W        W74151   2.246   8.340   3.858
14715W        W74152  18.778  42.876   1.913
14716W        W74153   6.878   4.875   2.693
14717W        W74154   3.751  11.335   4.605
14718W        W74155  22.151   9.718   3.830
14719W        W74156  19.561  44.974  12.398
14720W        W74157  18.105  19.223   4.293
14721W        W74158   9.369  20.166   3.830
14722W        W74159  10.366  40.432   0.346
14723W        W74160  33.534   8.298   1.223
14724W        W74161  12.642  39.833  14.786
14725W        W74162   5.809   4.829  11.007
14726W        W74163  32.072  15.766   2.751
14727W        W74164  18.674  21.528   3.153
14728W        W74165  12.336  37.508  11.399
14729W        W74166  28.608  29.136   2.790
14730W        W74167  16.084  30.044   0.418
14731W        W74168  15.127  25.635  13.424
14732W        W74169  31.475   4.940   2.213
14733W        W74170  31.141  17.264  13.829
14734W        W74171   8.888  38.463  14.945
14735W        W74172  28.995  31.488   1.312
14736W        W74173  11.212  12.333  10.922
14737W        W74174  22.521  31.424  12.949
14738W        W74175   5.744  30.152  11.991
14739W        W74176   6.829  19.130   0.436
14740W        W74177  32.615  35.976   0.831
14741W        W74178  16.223  44.340  13.910
14742W        W74179   7.781   3.297   3.280
14743W        W74180   5.311  24.629   4.167
14744W        W74181  23.071   8.786   1.742
14745W        W74182  42.387   1.371  14.022
14746W        W74183  23.689  44.967   4.268
14747W        W74184  17.597   4.778   3.672
14748W        W74185  13.247  24.216   3.277
14749W        W74186  20.251   4.416  14.489
14750W        W74187  13.663   6.335  13.970
14751W        W74188  36.445  42.965   1.300
14752W        W74189  28.006  41.512   0.861
14753W        W74190   3.730  31.423  12.097
14754W        W74191  35.887  36.388  12.927
14755W        W74192  15.159  27.664  10.545
14756W        W74193  16.092  23.180  12.520
14757W        W74194   0.782  16.809   2.332
14758W        W74195   6.291  43.438   0.904
14759W        W74196   3.221  11.846   1.369
14760W        W74197  36.369  35.095   2.392
14761W        W74198  38.344  18.149   3.194
14762W        W74199   8.277   4.833   0.915
14763W        W74200   1.931  23.187   2.246
14764W        W74201  31.604  14.190   2.263
14765W        W74202   7.802  43.768   3.858
14766W        W74203   2.418   5.207  12.507
14767W        W74204  30.412  12.741   3.301
14768W        W74205  10.794  15.146   0.243
14769W        W74206  32.972  40.846  11.091
14770W        W74207   7.887  16.184  10.954
14771W        W74208  17.720  14.780   0.790
14772W        W74209  11.155  18.118   1.711
14773W        W74210  24.223  11.808   0.890
14774W        W74211   9.682  44.818   3.262
14775W        W74212  33.020   0.777  10.458
14776W        W74213  30.999  14.252  14.323
14777W        W74214  32.533  39.853   0.412
14778W        W74215  17.630   9.362   1.930
14779W        W74216   4.312  28.569  12.076
14780W        W74217  17.658  10.305   0.801
14781W        W74218  12.660  35.491   3.689
14782W        W74219  33.078  30.535  14.926
14783W        W74220   0.794  20.543   2.760
14784W        W74221  16.694  42.511  13.467
14785W        W74222   7.749   5.895  14.369
14786W        W74223  41.532  21.245  10.911
14787W        W74224  10.769  17.296   2.220
14788W        W74225  29.063   4.800   4.785
14789W        W74226  31.025  19.696  14.767
14790W        W74227  16.688  33.969  13.820
14791W        W74228  36.460   2.380   2.228
14792W        W74229  41.850  17.623   3.755
14793W        W74230  22.516   4.835  13.495
14794W        W74231   6.712  12.145  14.490
14795W        W74232  31.478  32.037  11.426
14796W        W74233   7.223  44.383  10.439
14797W        W74234  21.757   8.841  12.826
14798W        W74235   2.928  33.394  13.018
14799W        W74236  25.108  27.035  12.926
14800W        W74237  19.234  32.025  12.374
14801W        W74238  42.022   6.851   4.348
14802W        W74239  16.639  26.500   3.194
14803W        W74240  20.578  23.504   1.296
14804W        W74241   7.208  35.931  14.357
14805W        W74242  41.016  27.198   3.322
14806W        W74243  39.056  21.706   4.838
14807W        W74244   9.653  21.732  10.460
14808W        W74245  23.223  43.440  13.006
14809W        W74246  22.616  44.952  12.551
14810W        W74247   4.868  22.510   3.385
14811W        W74248  22.566  34.553  11.386
14812W        W74249  13.716   5.195  11.613
14813W        W74250  38.555  18.092   4.827
14814W        W74251  29.457  24.529   2.764
14815W        W74252   8.775  24.709   4.349
14816W        W74253   8.744  18.718  14.341
14817W        W74254  12.232  36.450  13.844
14818W        W74255  34.414  30.139   0.339
14819W        W74256  33.402   9.858   4.258
14820W        W74257  34.397  22.560  14.487
14821W        W74258  28.506  12.258  11.121
14822W        W74259  32.487  44.268  14.823
14823W        W74260  15.611  11.819   2.259
14824W        W74261  24.662  24.619   2.812
14825W        W74262  32.543  25.528  12.961
14826W        W74263  36.420  40.516   1.383
14827W        W74264  42.281  21.702   0.275
14828W        W74265  14.736  21.686   4.342
14829W        W74266   9.854   5.725  13.961
14830W        W74267   6.806   4.907  14.833
14831W        W74268   0.442  10.297  12.845
14832W        W74269  28.443   8.778   3.656
14833W        W74270  43.380  31.579  10.983
14834W        W74271  10.183  36.872  10.621
14835W        W74272   6.797   4.291  13.311
14836W        W74273  19.557   7.707  13.377
14837W        W74274   4.927  29.964   0.477
14838W        W74275  29.985  14.814  11.384
14839W        W74276  35.894  20.231  11.104
14840W        W74277   3.236  16.310   3.859
14841W        W74278  28.629  13.697   3.785
14842W        W74279   0.989   8.279  11.449
14843W        W74280  21.119  13.731   3.221
14844W        W74281  38.415  29.120   2.696
14845W        W74282  11.775  14.133  14.379
14846W        W74283  27.537   8.808   2.271
14847W        W74284   5.790  27.573   5.254
14848W        W74285  34.931  20.097   1.902
14849W        W74286   3.360  25.706  14.976
14850W        W74287  43.856   2.881  14.327
14851W        W74288   2.281  19.697  12.040
14852W        W74289  34.611  25.501   4.325
14853W        W74290  18.768   1.308  11.390
14854W        W74291  36.986  29.060  11.589
14855W        W74292  24.006  35.951   2.835
14856W        W74293  43.915  21.228  14.396
14857W        W74294   3.750   2.403  11.920
14858W        W74295  20.667  29.085  11.053
14859W        W74296  38.951  41.306   2.903
14860W        W74297  24.099  30.526   3.796
14861W        W74298   4.243  14.319   4.228
14862W        W74299   4.368  41.938   3.311
14863W        W74300  32.011  11.367   0.783
14864W        W74301   5.248   7.181   2.415
14865W        W74302   9.697   2.812   4.666
14866W        W74303  40.355   2.784  11.525
14867W        W74304   5.338   3.432  11.438
14868W        W74305  18.242  15.143  10.161
14869W        W74306  35.031  24.697  11.978
14870W        W74307  34.007   1.371   0.848
14871W        W74308  37.035   6.212  14.798
14872W        W74309   2.783   2.287   1.324
14873W        W74310  25.501  12.349   2.305
14874W        W74311   5.365  19.225  14.897
14875W        W74312   5.795  35.918  14.815
14876W        W74313   5.761  35.561   1.427
14877W        W74314  10.202  26.469  13.025
14878W        W74315  19.735  26.968   3.709
14879W        W74316   3.919  18.644  12.517
14880W        W74317  38.896  17.657  14.510
14881W        W74318  32.090  29.165  12.342
14882W        W74319  38.872  38.571   3.699
14883W        W74320   2.239  32.504   0.942
14884W        W74321  20.097  30.486   2.704
14885W        W74322  18.736  43.819   4.250
14886W        W74323  11.138  34.005   3.856
14887W        W74324   4.819   8.724   1.864
14888W        W74325  22.572  30.033   4.199
14889W        W74326  38.361  40.383  10.436
14890W        W74327  11.779   8.332  12.883
14891W        W74328  42.943  14.248  12.340
14892W        W74329   6.402   0.362   3.858
14893W        W74330  39.376  33.010  11.397
14894W        W74331   3.742  44.820   3.683
14895W        W74332  23.576  34.602   0.469
14896W        W74333  37.555  20.140   4.210
14897W        W74334  36.505  38.921   2.190
14898W        W74335  11.284  17.718   0.769
14899W        W74336  15.696  21.587  11.511
14900W        W74337   7.351  41.300   4.121
14901W        W74338  28.577  10.693  14.840
14902W        W74339  37.425  13.695  13.462
14903W        W74340  36.504   1.419   1.931
14904W        W74341   3.741  24.054  11.593
14905W        W74342   9.157  42.972  13.498
14906W        W74343  40.959  22.634  14.346
14907W        W74344  27.495  10.345  12.875
14908W        W74345  32.572  24.637   0.769
14909W        W74346  39.476  30.974  14.427
14910W        W74347   6.707  36.415  13.449
14911W        W74348  34.551  18.247  14.781
14912W        W74349   3.216  18.180   4.154
14913W        W74350   1.246  28.464   0.391
14914W        W74351  18.741   1.976   1.896
14915W        W74352  24.146   2.383  10.435
14916W        W74353  28.968   5.411   2.865
14917W        W74354   2.399  18.081  13.504
14918W        W74355  10.356  31.595  11.526
14919W        W74356  36.363   6.814   1.297
14920W        W74357  40.454  37.407  11.506
14921W        W74358  13.715  25.185  10.891
14922W        W74359  10.743   3.308  11.949
14923W        W74360  19.273   9.351   3.815
14924W        W74361  21.025   1.270  12.899
14925W        W74362   8.248  16.193   3.697
14926W        W74363  34.919  11.156   4.354
14927W        W74364  20.582  38.043   4.137
14928W        W74365  27.127  29.611   1.803
14929W        W74366  40.886  11.286  14.922
14930W        W74367  21.608  43.951  10.975
14931W        W74368  38.034   1.937  11.899
14932W        W74369  20.567  44.398   3.190
14933W        W74370  12.196  35.405  11.601
14934W        W74371  19.198   3.813   3.640
14935W        W74372  19.747  33.399  10.510
14936W        W74373  44.316   0.886  12.538
14937W        W74374  36.933  37.467  11.519
14938W        W74375  28.640  11.804   0.954
14939W        W74376  27.074  36.571   0.401
14940W        W74377  43.856  23.025  13.995
14941W        W74378  10.868  20.641   4.293
14942W        W74379  24.717  20.103   1.305
14943W        W74380  25.080  24.628  12.339
14944W        W74381  33.107  25.963   1.801
14945W        W74382  25.047  44.397  13.404
14946W        W74383  43.293   0.408  11.074
14947W        W74384  27.547  31.905   0.785
14948W        W74385  10.238  27.640  12.507
14949W        W74386  31.982  42.943  13.918
14950W        W74387  10.260  24.512   0.903
14951W        W74388   8.813  10.751  10.475
14952W        W74389  13.134  44.803   1.738
14953W        W74390  34.412  31.950  11.388
14954W        W74391  20.722  31.069   0.841
14955W        W74392  14.152  19.665   0.925
14956W        W74393   4.705   8.776  11.444
14957W        W74394  23.586  19.768   2.218
14958W        W74395  30.562  42.844   1.223
14959W        W74396   1.837   1.857  10.636
14960W        W74397  20.676  25.092  12.006
14961W        W74398  28.148  42.997  14.502
14962W        W74399  36.468   9.374   4.814
14963W        W74400  25.564   3.793   3.870
14964W        W74401  43.887  29.987   1.245
14965W        W74402  32.072   6.377   5.184
14966W        W74403  41.459  40.863  12.040
14967W        W74404  33.984   6.321   1.274
14968W        W74405  28.059  36.579   3.839
14969W        W74406   0.894  19.750  12.942
14970W        W74407  38.892  27.075  13.049
14971W        W74408  20.059  39.345   4.805
14972W        W74409  26.560  11.667   2.734
14973W        W74410  25.624  36.988   9.530
14974W        W74411  13.742   7.305  13.470
14975W        W74412   5.912  38.989   3.843
14976W        W74413   4.917  18.732   2.860
14977W        W74414   1.898  41.467  14.789
14978W        W74415   5.699  42.316   1.891
14979W        W74416  15.717  11.646  11.040
14980W        W74417  21.214  40.523   4.277
14981W        W74418  25.536  38.937   2.792
14982W        W74419  21.076  21.626  14.479
14983W        W74420  14.677  44.936  12.901
14984W        W74421  23.059  18.161  13.824
14985W        W74422  23.003  34.397   1.830
14986W        W74423  38.019  44.300  13.905
14987W        W74424  38.397  30.490   1.925
14988W        W74425  20.064  42.440  13.888
14989W        W74426   8.699  25.161  10.427
14990W        W74427  34.024  24.156   0.942
14991W        W74428  32.593  26.122   0.845
14992W        W74429  26.194  36.039  13.349
14993W        W74430  23.226   0.402   0.468
14994W        W74431  37.403  43.325  11.589
14995W        W74432  34.569  27.124  10.451
14996W        W74433  26.565   1.807   0.308
14997W        W74434  11.715   9.307   2.755
14998W        W74435   6.263   1.243   1.924
14999W        W74436  19.052  12.229  14.975
15000W        W74437  21.030   8.717  10.637
15001W        W74438  35.064   0.438  10.960
15002W        W74439  13.617  43.299  10.944
15003W        W74440   0.461  17.645   1.915
15004W        W74441   6.384  30.004   2.260
15005W        W74442   2.448  23.036   4.298
15006W        W74443   5.194  29.101   0.350
15007W        W74444  18.072  38.346   1.235
15008W        W74445  19.651  28.093  13.792
15009W        W74446   8.856   7.416   3.714
15010W        W74447  25.640   1.807   2.215
15011W        W74448  11.823  33.028   4.730
15012W        W74449  44.300  14.610   3.307
15013W        W74450  16.229   1.952   4.690
15014W        W74451  43.465  40.449  11.889
15015W        W74452  42.923  10.205  10.626
15016W        W74453  42.871   9.244  11.951
15017W        W74454   0.804   9.232   1.369
15018W        W74455  26.495  12.683   3.347
15019W        W74456  22.611  38.541  10.566
15020W        W74457  11.290  18.055   0.747
15021W        W74458  19.677   9.354   0.261
15022W        W74459  24.489  29.075   0.290
15023W        W74460  21.173  24.107  13.352
15024W        W74461  25.075  26.020  14.959
15025W        W74462  12.341   2.463   3.756
15026W        W74463  22.130   6.710   0.408
15027W        W74464   1.763  36.423  13.460
15028W        W74465  44.375  23.530   2.774
15029W        W74466  20.153   5.780  13.019
15030W        W74467  18.564  44.355   3.164
15031W        W74468  36.841  43.389  14.472
15032W        W74469  44.386  35.050  11.474
15033W        W74470  14.792  18.734   2.302
15034W        W74471   1.265  22.055   4.642
15035W        W74472   2.723  16.221   1.911
15036W        W74473   3.395  22.159  12.481
15037W        W74474  15.210  24.089  13.043
15038W        W74475  38.859  31.646  13.928
15039W        W74476  40.362  20.211  13.936
15040W        W74477   2.768   7.813  14.007
15041W        W74478  38.848  19.708   1.723
15042W        W74479  13.289  40.434   2.280
15043W        W74480  27.607  13.769  13.535
15044W        W74481  14.729   7.904  14.975
15045W        W74482  13.688   9.651   3.845
15046W        W74483   3.249  16.246   9.666
15047W        W74484  26.690  22.092   3.689
15048W        W74485  30.581   0.928   3.720
15049W        W74486  42.990  29.545   3.825
15050W        W74487   4.296  12.204  12.880
15051W        W74488  29.558  41.337  14.477
15052W        W74489  15.762   5.250  13.014
15053W        W74490  30.161  22.703   2.362
15054W        W74491  22.585  29.094  10.423
15055W        W74492   6.275  19.044  12.388
15056W        W74493  28.582  10.799   2.710
15057W        W74494  36.445  33.943   2.777
15058W        W74495   8.712  43.803  13.376
15059W        W74496  40.864  32.519  11.046
15060W        W74497  40.913   3.862  11.605
15061W        W74498  11.622   3.921  12.021
15062W        W74499  14.711  36.390   3.751
15063W        W74500  21.135  37.368   2.784
15064W        W74501  28.076   2.410  13.820
15065W        W74502   8.851   9.824   2.242
15066W        W74503   2.937  27.508   3.692
15067W        W74504  27.615   3.764  12.929
15068W        W74505  41.834  16.699   3.848
15069W        W74506  25.707  31.571   2.363
15070W        W74507  40.921  34.474  13.528
15071W        W74508  34.030  15.149   4.650
15072W        W74509  24.571  14.180   0.437
15073W        W74510  22.067  12.263   2.813
15074W        W74511  42.969  17.062  12.900
15075W        W74512  18.064  20.631   3.790
15076W        W74513  39.011  13.789  13.541
15077W        W74514  39.483  22.523   2.244
15078W        W74515  22.022  37.851   4.296
15079W        W74516  28.067  36.084  10.929
15080W        W74517  17.798   7.302   1.755
15081W        W74518  22.650  28.144   2.343
15082W        W74519  34.093   1.309  11.974
15083W        W74520  17.141  26.630  14.891
15084W        W74521  15.758  33.976   2.837
15085W        W74522  17.624  15.767  13.828
15086W        W74523   7.218  36.096  12.572
15087W        W74524   3.238  38.558   2.781
15088W        W74525  35.025  40.033   2.327
15089W        W74526  13.140  40.500  13.967
15090W        W74527  34.425  31.148   3.666
15091W        W74528  37.439   3.281   4.323
15092W        W74529  31.144  24.001   0.854
15093W        W74530  12.329  24.057   1.782
15094W        W74531  16.189  11.656  11.417
15095W        W74532  16.204  34.029  13.945
15096W        W74533   4.849  39.455  12.373
15097W        W74534  36.452   0.945  12.085
15098W        W74535  16.241  30.535  14.022
15099W        W74536  40.525   8.698  10.974
15100W        W74537  36.383  24.485  10.513
15101W        W74538  37.991   8.740   0.839
15102W        W74539  22.010  24.676   0.249
15103W        W74540  33.546  12.660   1.712
15104W        W74541   2.889  27.111  11.901
15105W        W74542   5.214  43.880  12.520
15106W        W74543  10.268   0.801   0.349
15107W        W74544  23.661  15.722  12.964
15108W        W74545  24.114  24.055  14.015
15109W        W74546  15.650  25.707  10.947
15110W        W74547  25.586  25.044  12.537
15111W        W74548  27.545  29.594   3.331
15112W        W74549  10.639  30.464  14.835
15113W        W74550  21.739  40.470  12.067
15114W        W74551  33.388  28.102   4.819
15115W        W74552  33.942  41.320   3.263
15116W        W74553   6.888  33.436   2.865
15117W        W74554  37.472  30.456   2.723
15118W        W74555   9.158  31.647  13.408
15119W        W74556  19.666  32.083   4.312
15120W        W74557  37.436   7.334   3.632
15121W        W74558  27.038  35.029   4.715
15122W        W74559  24.505  43.443   0.346
15123W        W74560  35.887   0.913   3.265
15124W        W74561   1.289  14.132   2.331
15125W        W74562  28.103  27.603   0.791
15126W        W74563  29.549  10.656  10.606
15127W        W74564  30.015  27.983   3.194
15128W        W74565  22.704  36.064   5.185
15129W        W74566  35.918  41.865   0.904
15130W        W74567   1.369  28.631   1.303
15131W        W74568  16.768  41.382   5.211
15132W        W74569  32.899   8.216  13.345
15133W        W74570  20.195  13.724  10.544
15134W        W74571  35.553  27.980  10.952
15135W        W74572  42.817  26.631   2.285
15136W        W74573   3.838  38.913   0.430
15137W        W74574   6.818  28.434   2.282
15138W        W74575  18.063  27.055  11.982
15139W        W74576  12.681  15.656  12.951
15140W        W74577  28.939   4.301  11.501
15141W        W74578  36.990   8.221   1.278
15142W        W74579   2.461  19.697  10.979
15143W        W74580  43.369  11.700   2.184
15144W        W74581  26.170  12.850  13.035
15145W        W74582   8.855  14.796   5.248
15146W        W74583   0.313  40.410  10.524
15147W        W74584  18.188  10.696   2.765
15148W        W74585  28.665  13.230   1.434
15149W        W74586  40.047   5.859  11.863
15150W        W74587  15.786  41.893  14.288
15151W        W74588  38.544  10.695  12.085
15152W        W74589   1.344   1.811   1.725
15153W        W74590  30.009  16.128  10.574
15154W        W74591  15.741  20.528   3.235
15155W        W74592  36.854  23.165  12.347
15156W        W74593  41.525  39.861   1.220
15157W        W74594  40.034   0.448  14.982
15158W        W74595  10.757   3.291  13.387
15159W        W74596  13.142   0.933   0.408
15160W        W74597  19.662  40.820   0.379
15161W        W74598  44.468   4.859  12.375
15162W        W74599  34.863  24.222  14.434
15163W        W74600  34.980  39.903  11.499
15164W        W74601  22.210  21.135  13.965
15165W        W74602  38.842  44.859  10.633
15166W        W74603  12.121  21.589   1.441
15167W        W74604  16.569  21.239  11.570
15168W        W74605  34.381  35.389  14.785
15169W        W74606  34.963   6.317  11.426
15170W        W74607  44.003  21.068   3.314
15171W        W74608   2.346  39.508   1.291
15172W        W74609  33.007  29.162  14.842
15173W        W74610  40.877   2.394   1.903
15174W        W74611  34.609   6.418   4.785
15175W        W74612  39.542  26.125   2.868
15176W        W74613  11.734  24.172   0.273
15177W        W74614  40.988   4.879   3.664
15178W        W74615   1.239  17.090  13.308
15179W        W74616  38.564   2.918  13.434
15180W        W74617  38.467  36.861   0.851
15181W        W74618  28.606  34.571   2.771
15182W        W74619  39.409  38.819  14.417
15183W        W74620  41.930  41.439  12.513
15184W        W74621  10.635  38.854   1.418
15185W        W74622  40.881   8.806   2.335
15186W        W74623   9.243  12.320  12.831
15187W        W74624  19.541   6.245   4.224
15188W        W74625  44.787  23.127  11.037
15189W        W74626  11.654  43.328   3.267
15190W        W74627  27.571  43.966   0.885
15191W        W74628  43.341  33.568  14.810
15192W        W74629   9.818   9.822   0.392
15193W        W74630  28.610  25.713   9.451
15194W        W74631  35.589   9.805   1.273
15195W        W74632   7.715  12.795   4.300
15196W        W74633  11.251  30.919  14.395
15197W        W74634   2.730  30.991   1.845
15198W        W74635  31.430  27.664  13.917
15199W        W74636  42.325  17.660   4.247
15200W        W74637  16.097  30.641   3.243
15201W        W74638  32.608   8.398   1.821
15202W        W74639  18.168  28.505   2.287
15203W        W74640  29.084   8.273   4.196
15204W        W74641  13.844  39.948  11.105
15205W        W74642  12.142  36.883  12.932
15206W        W74643  18.769  22.701   5.197
15207W        W74644  38.490   3.373   3.346
15208W        W74645   7.383   6.352  11.066
15209W        W74646   3.322  40.833   4.830
15210W        W74647  23.156   2.300  10.952
15211W        W74648  32.065   9.779  13.052
15212W        W74649  29.451  19.242  13.955
15213W        W74650  28.548  18.200  14.813
15214W        W74651  32.095  44.872  11.551
15215W        W74652  25.008  30.480  11.392
15216W        W74653   4.848   4.260   1.323
15217W        W74654   4.389  25.610   0.382
15218W        W74655  36.092  15.248   3.312
15219W        W74656  32.480  16.249  14.516
15220W        W74657   0.986  19.241   4.662
15221W        W74658   2.364  39.323  11.477
15222W        W74659   2.354  17.303  12.466
15223W        W74660  18.564  40.900  11.499
15224W        W74661  37.391   7.866   2.246
15225W        W74662  25.176  16.721   3.653
15226W        W74663  14.762   6.334   4.646
15227W        W74664  40.040  20.586   0.963
15228W        W74665  10.845  40.839  11.532
15229W        W74666  28.948  38.935   2.855
15230W        W74667  42.455  36.557   0.376
15231W        W74668  27.071  42.282   0.269
15232W        W74669  33.087   6.197  11.433
15233W        W74670   3.243  26.170   5.696
15234W        W74671  42.465  40.948  13.434
15235W        W74672  37.349  41.327   1.874
15236W        W74673  42.012   7.388   4.345
15237W        W74674   3.346  34.949   1.452
15238W        W74675   2.433  13.692  11.075
15239W        W74676  41.313  11.798   0.786
15240W        W74677  13.731  31.967  11.549
15241W        W74678  40.311  40.524   0.767
15242W        W74679  34.523  36.873  13.406
15243W        W74680  34.019  44.788   1.294
15244W        W74681   9.244  25.579  11.015
15245W        W74682   1.760  31.431  13.317
15246W        W74683  34.092  26.590  11.068
15247W        W74684  17.770  41.886   1.439
15248W        W74685  35.029  23.649   0.889
15249W        W74686  41.533  35.902   0.260
15250W        W74687   6.752  37.859   0.482
15251W        W74688  33.988  34.388   4.650
15252W        W74689  32.431   8.392   4.208
15253W        W74690  44.295  11.640   4.317
15254W        W74691  33.461   3.790  13.802
15255W        W74692   3.234  33.460   1.248
15256W        W74693  33.080  11.241   3.213
15257W        W74694  26.526   5.900   9.925
15258W        W74695  44.767  21.708  11.605
15259W        W74696  32.931  22.646   3.666
15260W        W74697  18.054  29.111  14.314
15261W        W74698  22.231  10.740   2.315
15262W        W74699  26.575   3.438  11.986
15263W        W74700  15.095   1.452  12.913
15264W        W74701   8.901  43.396  11.376
15265W        W74702  42.026  25.523  11.410
15266W        W74703  22.614   4.719  13.998
15267W        W74704   9.381  27.482  11.114
15268W        W74705  23.156  30.111  13.345
15269W        W74706  26.641   2.367   4.309
15270W        W74707  20.528  36.366   2.793
15271W        W74708  22.702  23.684  13.815
15272W        W74709   2.320   2.779   1.327
15273W        W74710  38.382  24.598   4.619
15274W        W74711  38.060  19.735  13.945
15275W        W74712  26.687  19.129  12.983
15276W        W74713  12.773  33.000   2.903
15277W        W74714  39.381   2.343  12.503
15278W        W74715  14.780  42.398   4.791
15279W        W74716  10.230  43.412  10.900
15280W        W74717  30.993  33.590  12.964
15281W        W74718  22.122  44.367   2.415
15282W        W74719  39.823  38.489  11.504
15283W        W74720  25.549  24.169  10.535
15284W        W74721  10.675  25.153  12.483
15285W        W74722  27.006  36.493  13.538
15286W        W74723  14.270  37.878   2.786
15287W        W74724  16.656  29.148   2.797
15288W        W74725  41.469  23.723   4.307
15289W        W74726  39.525   1.374  10.429
15290W        W74727  30.939  38.935   4.186
15291W        W74728  39.017  34.458  12.565
15292W        W74729  15.329  43.909  11.060
15293W        W74730  17.747  10.263  12.492
15294W        W74731   8.705  43.973   4.819
15295W        W74732   7.691   6.188  13.949
15296W        W74733   8.662   5.219  13.509
15297W        W74734  17.675   4.434  13.016
15298W        W74735   6.280  21.646  12.935
15299W        W74736  42.012   1.828   3.268
15300W        W74737  23.597  15.822  13.447
15301W        W74738  17.243  25.493  11.502
15302W        W74739  43.922  44.922  13.792
15303W        W74740  31.032  38.549  13.052
15304W        W74741   4.928  17.072   4.335
15305W        W74742  26.187  22.155  14.341
15306W        W74743  26.175  19.195   3.764
15307W        W74744   4.233  32.030  12.836
15308W        W74745  44.479   9.315   2.783
15309W        W74746  27.485   9.358   0.404
15310W        W74747  35.571  33.959  13.806
15311W        W74748  10.767  13.130  10.489
15312W        W74749  42.311  18.787   4.277
15313W        W74750  17.561  12.181  14.958
15314W        W74751  42.926   5.852  12.902
15315W        W74752  44.000  28.979  10.505
15316W        W74753  39.412  41.862  11.934
15317W        W74754  24.084  25.193  10.553
15318W        W74755  27.517  15.715  13.053
15319W        W74756  15.246  32.101  10.991
15320W        W74757   0.288   9.309  14.006
15321W        W74758  26.015  24.577   2.878
15322W        W74759  15.324  14.317  13.934
15323W        W74760  43.832   7.209  11.500
15324W        W74761  29.647   9.764  14.382
15325W        W74762  30.162  40.959  11.925
15326W        W74763   7.343   1.733  10.596
15327W        W74764  42.457  16.621  12.359
15328W        W74765  17.762  40.521   1.316
15329W        W74766  38.903  34.417   3.820
15330W        W74767  40.377   7.351  13.879
15331W        W74768   9.806  27.164   4.675
15332W        W74769  16.618  39.973   4.342
15333W        W74770   9.157  17.680   4.288
15334W        W74771  20.054   5.429   1.411
15335W        W74772   0.829  17.077   0.287
15336W        W74773  44.408  38.463  14.989
15337W        W74774  27.615  23.998  12.832
15338W        W74775  39.461   3.303   5.281
15339W        W74776   3.322  25.101  14.437
15340W        W74777  15.164  11.373  12.035
15341W        W74778   8.811  11.280   4.239
15342W        W74779  19.267  41.344  14.381
15343W        W74780  14.251   1.420   4.759
15344W        W74781  13.689  15.110   1.798
15345W        W74782  30.919  23.596  10.075
15346W        W74783  24.647  17.174  13.419
15347W        W74784  15.179  22.632   3.312
15348W        W74785  13.796  18.735   2.363
15349W        W74786  23.657  33.090   4.796
15350W        W74787  28.515  41.396   3.658
15351W        W74788  42.357  16.607   3.792
15352W        W74789   1.924   4.259  11.385
15353W        W74790  44.276  17.678  12.410
15354W        W74791  23.492  37.392   1.699
15355W        W74792  20.661  29.010  11.451
15356W        W74793   7.209   9.320   0.866
15357W        W74794   5.762  41.803  14.764
15358W        W74795  19.675  34.430   4.730
15359W        W74796  39.372  29.940   1.909
15360W        W74797  17.596  13.618   1.776
15361W        W74798   3.783  18.552   0.253
15362W        W74799  28.499  37.571   0.817
15363W        W74800  10.739  12.348   3.357
15364W        W74801  19.064  25.581   0.860
15365W        W74802   6.894  25.541   0.374
15366W        W74803  18.105  25.962  12.942
15367W        W74804  38.490  32.127  13.318
15368W        W74805  43.378  32.898  12.431
15369W        W74806  25.615  36.357   2.186
15370W        W74807  21.645  26.139  14.840
15371W        W74808  29.562   4.267   3.200
15372W        W74809  13.289   1.960   2.880
15373W        W74810   0.936  31.123   2.746
15374W        W74811  33.482  20.681   3.210
15375W        W74812  23.224  44.312   3.355
15376W        W74813  27.641   5.886  10.605
15377W        W74814  21.702  26.956   1.831
15378W        W74815  23.200   9.360   4.214
15379W        W74816   6.395  27.992  11.899
15380W        W74817  35.027   6.371   4.340
15381W        W74818  24.224  44.321   3.697
15382W        W74819  43.900  29.615   0.960
15383W        W74820  25.693  22.533   2.228
15384W        W74821   1.848  43.444   0.941
15385W        W74822  44.960   4.287   3.267
15386W        W74823  22.566  35.421  14.991
15387W        W74824   5.329  18.238  14.818
15388W        W74825  14.607  15.614   5.241
15389W        W74826  43.890   4.399  13.448
15390W        W74827   4.848  19.158  14.945
15391W        W74828   7.411  27.532   1.916
15392W        W74829   9.270   2.407   1.765
15393W        W74830  20.177   4.941  13.332
15394W        W74831  42.470  25.677   1.821
15395W        W74832   1.273  10.333   2.669
15396W        W74833   5.910  28.183  12.550
15397W        W74834  26.649   6.836  12.836
15398W        W74835  13.715  25.475  10.933
15399W        W74836  13.237  29.148  12.355
15400W        W74837  26.059  35.381  11.029
15401W        W74838   2.249   1.784  14.467
15402W        W74839  43.431  39.381   3.156
15403W        W74840  12.742  21.148   4.344
15404W        W74841  24.104  16.079   3.842
15405W        W74842   3.748  36.581  12.978
15406W        W74843  30.632  41.497   1.384
15407W        W74844   7.833  23.195  11.376
15408W        W74845   3.761  24.587   0.897
15409W        W74846  17.662  26.671  14.493
15410W        W74847  28.539  39.469   4.769
15411W        W74848  33.928  20.123   1.240
15412W        W74849  18.616  32.005  10.965
15413W        W74850  18.623  34.482  14.303
15414W        W74851  44.825  28.125   2.717
15415W        W74852   2.724   0.377  11.971
15416W        W74853  16.243  17.560   0.450
15417W        W74854  19.725   2.393  10.579
15418W        W74855  19.051  37.938  14.794
15419W        W74856   2.855  13.679  13.408
15420W        W74857  35.427  31.622  10.462
15421W        W74858  15.134  18.064  10.952
15422W        W74859  10.730  42.989  13.046
15423W        W74860  43.986  12.622   4.272
15424W        W74861  20.192  28.526   4.635
15425W        W74862  37.513  35.581   2.767
15426W        W74863  25.665   3.323   1.261
15427W        W74864   0.872  42.366  13.406
15428W        W74865  37.463  34.968   4.693
15429W        W74866  34.529  42.338   1.318
15430W        W74867  29.620  42.778  11.596
15431W        W74868  37.409  38.471  14.017
15432W        W74869  19.743  23.519  14.501
15433W        W74870  38.034  44.407   4.287
15434W        W74871  11.128  14.133   2.211
15435W        W74872  36.483  23.629  10.088
15436W        W74873  37.463   6.772  12.914
15437W        W74874  36.360  15.189   3.856
15438W        W74875   2.852   6.289  10.911
15439W        W74876  24.019  36.076  11.122
15440W        W74877   6.815  20.716  13.906
15441W        W74878   1.313  30.126  13.455
15442W        W74879  32.554  27.477   2.774
15443W        W74880  21.561  31.902   1.343
15444W        W74881  14.210  34.478   0.329
15445W        W74882  27.038  33.588  13.321
15446W        W74883  18.618  11.298  11.392
15447W        W74884  36.470  26.628   2.823
15448W        W74885   4.226  21.619  12.896
15449W        W74886  22.111   1.815  13.820
15450W        W74887  37.873  12.182   0.759
15451W        W74888  40.959  26.997   2.850
15452W        W74889   9.727  35.089  12.840
15453W        W74890   2.323   3.427   4.169
15454W        W74891  43.889   0.297   1.717
15455W        W74892  16.234  35.411  14.810
15456W        W74893  10.868   9.852   2.834
15457W        W74894  14.257  10.700  10.455
15458W        W74895  21.158  39.862  13.322
15459W        W74896   6.923  38.477  13.490
15460W        W74897   4.259  11.186   4.267
15461W        W74898  17.733  19.588  11.371
15462W        W74899   4.825  43.788   2.881
15463W        W74900  29.115   2.967   0.413
15464W        W74901  43.948  31.416  12.520
15465W        W74902  37.843  27.103  12.883
15466W        W74903  15.628  18.725  14.796
15467W        W74904  30.609  35.484   0.877
15468W        W74905  30.589  33.083  11.475
15469W        W74906   1.294  43.355  11.550
15470W        W74907  42.859   7.730  14.409
15471W        W74908  26.576  33.600  10.994
15472W        W74909  18.199   0.753   2.306
15473W        W74910  39.392  16.604  11.524
15474W        W74911  32.421  23.636   9.593
15475W        W74912  33.984  39.001  14.909
15476W        W74913   3.729   9.355   4.687
15477W        W74914  33.543  26.510  14.844
15478W        W74915   0.299  43.946   0.898
15479W        W74916  40.375  31.423  14.479
15480W        W74917  22.662   4.729   2.832
15481W        W74918  27.004  13.698   0.255
15482W        W74919  39.557   9.296  14.013
15483W        W74920   1.365  24.195  14.403
15484W        W74921  44.430  41.486  11.474
15485W        W74922  20.272  13.255   2.205
15486W        W74923  17.655  22.658   1.865
15487W        W74924  32.602  30.607   3.254
15488W        W74925  14.732  44.870   3.172
15489W        W74926  16.107  27.542   0.827
15490W        W74927  17.267   1.271   4.286
15491W        W74928   6.324  31.035  12.381
15492W        W74929  13.682  38.053  14.274
15493W        W74930  36.082  41.015  11.971
15494W        W74931  42.289   4.232  12.354
15495W        W74932  16.580  35.455  12.546
15496W        W74933   8.848  34.394   4.234
15497W        W74934   6.416  43.495   2.748
15498W        W74935  22.699  40.018   3.226
15499W        W74936   7.182   2.917  12.404
15500W        W74937  31.973   0.413  12.975
15501W        W74938   1.395  10.666  13.865
15502W        W74939  22.534  21.204  13.963
15503W        W74940  32.621  30.045   1.358
15504W        W74941  15.639   9.275  11.936
15505W        W74942  20.233  29.091  11.410
15506W        W74943   4.859  38.970  10.611
15507W        W74944  33.548  14.737  10.923
15508W        W74945  13.148  31.122   3.387
15509W        W74946  26.976  20.148   3.195
15510W        W74947  20.075  43.834  13.050
15511W        W74948   9.712  28.576   3.816
15512W        W74949  30.951  17.197  13.034
15513W        W74950  28.674  22.021  12.495
15514W        W74951   5.688   2.869  14.908
15515W        W74952  19.621  38.419   2.200
15516W        W74953   9.293   6.365  10.453
15517W        W74954  12.618  40.013   2.823
15518W        W74955  29.133  18.232   3.669
15519W        W74956  40.044  21.541  12.905
15520W        W74957  42.493  17.582  11.545
15521W        W74958  19.208   0.972  13.536
15522W        W74959   9.315   4.252   0.869
15523W        W74960  33.963   3.409  12.916
15524W        W74961  42.952  34.599   0.430
15525W        W74962  18.550   1.969  14.908
15526W        W74963  40.538  26.458   4.139
15527W        W74964  43.361  18.249   2.418
15528W        W74965  21.751  37.368   1.710
15529W        W74966   3.320   3.303  13.358
15530W        W74967  28.498  35.477  13.825
15531W        W74968  27.151  16.150   0.416
15532W        W74969  42.954  31.054  13.877
15533W        W74970  15.225  28.601   4.600
15534W        W74971  27.632  31.946   4.628
15535W        W74972  44.293   5.277   1.830
15536W        W74973  33.055  26.556  11.956
15537W        W74974  35.450  23.047  10.938
15538W        W74975  34.531  26.982  14.428
15539W        W74976  44.490  44.381  13.459
15540W        W74977   1.377   2.946  12.577
15541W        W74978   1.955  26.681   1.435
15542W        W74979  42.956  23.205   0.828
15543W        W74980  13.194  25.655   0.320
15544W        W74981  24.482   4.943   3.209
15545W        W74982  42.427  44.801  12.475
15546W        W74983  32.547  39.555  13.392
15547W        W74984  20.037  22.215  10.543
15548W        W74985   7.337   7.808  13.535
15549W        W74986  12.229  44.389  14.775
15550W        W74987  18.707   3.884   1.873
15551W        W74988  26.156   2.884   1.401
15552W        W74989  29.514   9.234  11.082
15553W        W74990  25.138  34.506  10.644
15554W        W74991   5.425  23.229  14.998
15555W        W74992  38.362   6.273  14.970
15556W        W74993  37.924   4.798   4.261
15557W        W74994  32.115   8.765   0.414
15558W        W74995  13.687   6.922   4.693
15559W        W74996  10.175  20.766  13.355
15560W        W74997  25.143  29.956   3.689
15561W        W74998  30.459  18.684  14.839
15562W        W74999  35.904  43.441  13.899
15563W        W75000  25.498  11.624   0.331
15564W        W75001  13.136   9.338  12.517
15565W        W75002  40.496   9.243  12.035
15566W        W75003  42.395  23.067   2.182
15567W        W75004  33.011  33.948   3.314
15568W        W75005  32.061   8.659  13.934
15569W        W75006  16.312  26.635   3.186
15570W        W75007  17.186  27.964  11.892
15571W        W75008   7.178  36.932   2.709
15572W        W75009  43.846  35.963   2.407
15573W        W75010  26.463  34.923   5.238
15574W        W75011  43.340  34.013  13.339
15575W        W75012  29.995  16.586   4.286
15576W        W75013  26.528  16.318   5.149
15577W        W75014  14.282  30.919   3.696
15578W        W75015  40.478  10.153   1.431
15579W        W75016  38.947  17.141   5.194
15580W        W75017  27.118  31.023  11.516
15581W        W75018   8.385  27.497  10.982
15582W        W75019   7.311  26.703   5.673
15583W        W75020  32.101  12.789   1.808
15584W        W75021   1.926  33.996  10.562
15585W        W75022   5.425  37.513   1.821
15586W        W75023  25.682  41.301   1.835
15587W        W75024  14.829   6.396   1.842
15588W        W75025   9.336   1.744  12.900
15589W        W75026  27.047  40.332  13.017
15590W        W75027  12.263  22.164  10.982
15591W        W75028  16.267  17.727  12.552
15592W        W75029  23.204   9.302  14.912
15593W        W75030  34.113  38.059  13.017
15594W        W75031  37.992  16.654   2.856
15595W        W75032  37.472  27.563  14.356
15596W        W75033   6.291  31.903  12.414
15597W        W75034  30.635  20.631  11.044
15598W        W75035  40.014  24.071   2.895
15599W        W75036  10.646   9.395  10.486
15600W        W75037  39.052  24.122   2.822
15601W        W75038  36.899  36.498   0.461
15602W        W75039  26.190  43.294   5.639
15603W        W75040   5.846  41.392  11.857
15604W        W75041  40.821  15.242  12.093
15605W        W75042  21.684  34.432  10.972
15606W        W75043  30.051   2.782   2.836
15607W        W75044  32.493  10.165   1.298
15608W        W75045   2.371   2.367  13.505
15609W        W75046  13.740  44.298  14.437
15610W        W75047  35.447  33.931   1.254
15611W        W75048   4.224  25.024  14.447
15612W        W75049  34.498   8.873   2.678
15613W        W75050  39.517   0.859  11.544
15614W        W75051  19.771   9.652   1.776
15615W        W75052   1.969   9.885   2.768
15616W        W75053  36.589  21.239   3.737
15617W        W75054   0.944   7.260  13.033
15618W        W75055  29.035  17.666  14.392
15619W        W75056  37.508  31.547  11.103
15620W        W75057  11.852  32.490  12.920
15621W        W75058   5.772   9.817  12.427
15622W        W75059  34.995  41.876  12.358
15623W        W75060  13.241  15.611  11.001
15624W        W75061  43.434  30.639   0.257
15625W        W75062  18.232  13.677   0.795
15626W        W75063  35.012  44.894  13.833
15627W        W75064   8.781  20.237   4.268
15628W        W75065  23.193  16.304  11.542
15629W        W75066   6.862   0.322   3.279
15630W        W75067  11.278  36.462   0.383
15631W        W75068  13.705  20.742  13.538
15632W        W75069  42.507   9.156  10.960
15633W        W75070   0.901  43.508   3.296
15634W        W75071  26.066   1.914   3.720
15635W        W75072  31.532  33.618   4.183
15636W        W75073   3.251  23.525  10.974
15637W        W75074   1.952  18.595   3.322
15638W        W75075  35.411   7.187   1.854
15639W        W75076  35.481  23.566  10.940
15640W        W75077  37.578  27.956   3.639
15641W        W75078  25.066   5.374  13.871
15642W        W75079  24.677  42.360  11.967
15643W        W75080  20.197  21.230   1.308
15644W        W75081   6.310   4.907  14.288
15645W        W75082  34.894  16.590  12.990
15646W        W75083   1.817  34.559  11.420
15647W        W75084  14.218  13.172  12.073
15648W        W75085   7.866  32.546   2.334
15649W        W75086  16.604  30.073  11.431
15650W        W75087  24.558  27.620  11.557
15651W        W75088  35.852  32.997   1.818
15652W        W75089  17.169  32.116  10.528
15653W        W75090  42.954  21.537  12.368
15654W        W75091  34.485  36.562  14.928
15655W        W75092   6.195  20.090   0.825
15656W        W75093  16.202  21.107  14.795
15657W        W75094  40.927  13.149  12.048
15658W        W75095  33.516  10.371  10.083
15659W        W75096  18.245  33.617   2.742
15660W        W75097  21.684  10.685   0.830
15661W        W75098   6.252   2.741   1.806
15662W        W75099  13.327   5.792  13.910
15663W        W75100  13.278  11.767  13.456
15664W        W75101  35.545  42.977  10.558
15665W        W75102   5.281   5.694   4.749
15666W        W75103  10.157  43.348  11.584
15667W        W75104   5.264  16.582   0.958
15668W        W75105   8.310  29.609   4.173
15669W        W75106  14.301  44.466  13.013
15670W        W75107   8.657  37.506   3.376
15671W        W75108  17.190  16.783   5.707
15672W        W75109  13.648  24.620   0.888
15673W        W75110  20.709  27.158  11.392
15674W        W75111  20.160  29.002   0.323
15675W        W75112  40.945   8.680  11.494
15676W        W75113  22.676  27.032  11.488
15677W        W75114  38.874  42.495   3.228
15678W        W75115   9.801  24.694   4.760
15679W        W75116  33.898   8.305   4.653
15680W        W75117   2.963  40.527   4.217
15681W        W75118  29.083   3.367   4.829
15682W        W75119   3.914  14.334  11.524
15683W        W75120  17.683  12.727  14.767
15684W        W75121  34.613  20.061   2.735
15685W        W75122  17.607  33.068   3.374
15686W        W75123  41.484  30.922   2.743
15687W        W75124  24.217   5.858   0.470
15688W        W75125  34.436   8.827  10.922
15689W        W75126  37.359   7.175  10.622
15690W        W75127   9.205  32.068  14.857
15691W        W75128  35.917   1.253  13.809
15692W        W75129   6.304  22.171  10.638
15693W        W75130  29.649   0.834  14.819
15694W        W75131  12.788   4.392  14.346
15695W        W75132  27.561  33.914   0.446
15696W        W75133  15.606  16.649  10.503
15697W        W75134  41.934  11.624   3.229
15698W        W75135   0.984  37.336  14.472
15699W        W75136  17.072   9.169  13.430
15700W        W75137  16.709  24.725   2.804
15701W        W75138  12.821  33.884  11.533
15702W        W75139  17.087  44.396  14.487
15703W        W75140   6.818  25.154  11.012
15704W        W75141   3.814  35.406  13.452
15705W        W75142  24.163   3.291  13.837
15706W        W75143  11.621  31.611   0.763
15707W        W75144  43.948  41.024   3.150
15708W        W75145  40.927  16.270   2.842
15709W        W75146   5.810   7.812   4.741
15710W        W75147  12.810  24.095  12.371
15711W        W75148  13.815  11.848  14.778
15712W        W75149  31.113   7.240  14.769
15713W        W75150   2.812  25.651  13.898
15714W        W75151  17.240  43.481  12.853
15715W        W75152  20.661  39.868  14.817
15716W        W75153  42.026  39.380   1.704
15717W        W75154  15.657   5.260   4.176
15718W        W75155   0.839  25.008  11.547
15719W        W75156  38.377  19.179   1.359
15720W        W75157   6.263  40.868  12.915
15721W        W75158  27.573  28.539  11.595
15722W        W75159  40.823  21.742  11.861
15723W        W75160   2.886  36.367  11.971
15724W        W75161   6.428   9.882   3.217
15725W        W75162   1.828  36.970   3.349
15726W        W75163  39.406  32.550  13.857
15727W        W75164   7.763  11.786  12.845
15728W        W75165   2.338  24.182  12.910
15729W        W75166  11.744  30.472  12.911
15730W        W75167  30.559  39.372  13.407
15731W        W75168  26.628  24.139   4.686
15732W        W75169  20.647  41.967  13.864
15733W        W75170  26.567  43.885   0.737
15734W        W75171  37.965   0.761  14.985
15735W        W75172   0.899   7.209   2.183
15736W        W75173  29.517  14.704  10.446
15737W        W75174   4.802  24.992  12.046
15738W        W75175   2.434   5.287   0.409
15739W        W75176   4.810  21.236  11.056
15740W        W75177   0.274  10.812   1.265
15741W        W75178  44.358  36.370   3.768
15742W        W75179  31.995   9.334  14.351
15743W        W75180  26.173  26.113  11.936
15744W        W75181  31.589  40.941   2.757
15745W        W75182  31.914  43.786   0.951
15746W        W75183  44.873  23.105   4.735
15747W        W75184  10.355  19.564  12.534
15748W        W75185  44.333   0.480   4.831
15749W        W75186   4.250  31.596  13.932
15750W        W75187  28.637  33.016  13.988
15751W        W75188  38.000  36.858  13.328
15752W        W75189  10.304  30.152   4.193
15753W        W75190  32.041  10.797  10.506
15754W        W75191  36.956   6.698  11.468
15755W        W75192   6.744  42.457   0.921
15756W        W75193  16.567  13.818  13.859
15757W        W75194   5.860  23.123  14.942
15758W        W75195  30.032  26.609  11.968
15759W        W75196  25.184  14.289   3.751
15760W        W75197  14.665   7.733  10.911
15761W        W75198   9.386  28.170  14.310
15762W        W75199  13.328  29.996  14.307
15763W        W75200  37.439  43.426  10.636
15764W        W75201  16.593   9.220   3.820
15765W        W75202  11.183  26.173  14.484
15766W        W75203  18.555  39.366   1.927
15767W        W75204  15.698  21.618  13.441
15768W        W75205  31.475  35.573   1.739
15769W        W75206  18.202   7.219  11.382
15770W        W75207  42.491  16.690  13.833
15771W        W75208  32.465  13.178  13.024
15772W        W75209  31.053   0.747  12.037
15773W        W75210  40.828  11.270  14.465
15774W        W75211  27.952  37.889   4.663
15775W        W75212  41.966  41.849  10.626
15776W        W75213  13.658  13.836   4.808
15777W        W75214  31.616  27.005  12.851
15778W        W75215  32.496  13.657  14.809
15779W        W75216   6.733  38.392  11.462
15780W        W75217   1.342  30.050  10.562
15781W        W75218   1.426  11.693   2.770
15782W        W75219  30.563   1.764  11.990
15783W        W75220  29.525  14.677   1.765
15784W        W75221  15.215  23.588  11.491
15785W        W75222   5.406   4.419  12.972
15786W        W75223  17.637   9.338  14.948
15787W        W75224   6.725   2.343   1.215
15788W        W75225  14.597   7.895  12.865
15789W        W75226  39.394  22.607  12.823
15790W        W75227   5.241  24.165  14.404
15791W        W75228  23.721   2.938  14.806
15792W        W75229  22.548  26.995  10.904
15793W        W75230   4.730  17.632  12.551
15794W        W75231  43.276  42.795  13.828
15795W        W75232  37.962  11.341  12.935
15796W        W75233   2.919  18.634  13.331
15797W        W75234  44.440  29.487   4.260
15798W        W75235  40.469   7.268   3.382
15799W        W75236  40.414  39.841  12.096
15800W        W75237  23.013  28.056   2.808
15801W        W75238  26.121  24.047   0.259
15802W        W75239  44.461  27.134   4.127
15803W        W75240  29.987  26.080   1.422
15804W        W75241  32.530  27.459  10.567
15805W        W75242   8.336  33.499  14.856
15806W        W75243  24.019  28.587   4.779
15807W        W75244   9.370  35.545  14.360
15808W        W75245   6.335  11.224  14.316
15809W        W75246  22.530  37.395  10.621
15810W        W75247   5.296  28.950   0.847
15811W        W75248  17.581  36.895  13.890
15812W        W75249  11.322  30.164  12.093
15813W        W75250   9.822  13.310   2.295
15814W        W75251  20.271  34.454   0.843
15815W        W75252  10.715  15.685   3.738
15816W        W75253  10.259  10.201   2.333
15817W        W75254  18.777  14.238   0.427
15818W        W75255  18.215  28.016  12.923
15819W        W75256  37.493  44.814   4.213
15820W        W75257  38.877   9.725   1.823
15821W        W75258  31.148  27.557  10.967
15822W        W75259  18.664  37.935   2.842
15823W        W75260  31.474  32.569   3.729
15824W        W75261   0.810  38.477   0.467
15825W        W75262  38.376  30.456  11.928
15826W        W75263  27.482  41.370  14.781
15827W        W75264  15.627  19.269   4.308
15828W        W75265  20.583  17.142   9.514
15829W        W75266   5.439  14.215  10.615
15830W        W75267   5.342   1.432   2.365
15831W        W75268  14.669  42.419  14.369
15832W        W75269  19.217  34.526  12.413
15833W        W75270   3.337  15.599   0.931
15834W        W75271  16.745  31.030   4.639
15835W        W75272  27.981  41.794  10.427
15836W        W75273   1.437  12.231  11.428
15837W        W75274  36.431  33.559  13.349
15838W        W75275  36.848  15.793  12.890
15839W        W75276  41.883  29.167   2.260
15840W        W75277   6.708  31.989  14.983
15841W        W75278  32.996  35.570   4.325
15842W        W75279  25.994  38.366  12.959
15843W        W75280  26.977  24.147   4.235
15844W        W75281   8.667   5.830  13.379
15845W        W75282   6.853  41.838  14.438
15846W        W75283  31.973  37.542  12.531
15847W        W75284  30.520  43.311  12.577
15848W        W75285   6.293  21.084  13.392
15849W        W75286  37.401  15.204   3.315
15850W        W75287  23.997  32.533  12.420
15851W        W75288   2.291  18.572  10.543
15852W        W75289  23.214  42.453   3.237
15853W        W75290  23.654   0.955  10.502
15854W        W75291  34.482  43.792  11.503
15855W        W75292  38.028  43.785  13.318
15856W        W75293  36.467  17.168   3.150
15857W        W75294  36.447  39.437   4.262
15858W        W75295  31.423  16.182   0.476
15859W        W75296  44.303   5.315  14.848
15860W        W75297  32.111  17.127   2.745
15861W        W75298  14.732   3.372   4.695
15862W        W75299  44.835  44.276  11.564
15863W        W75300  28.145  42.490   1.292
15864W        W75301  43.911   3.919  11.997
15865W        W75302  23.678  38.997   5.588
15866W        W75303   2.831   4.369   3.668
15867W        W75304  24.134   6.232   3.190
15868W        W75305  35.868   3.252  11.486
15869W        W75306  25.651  22.084  12.930
15870W        W75307  35.011  24.055  13.893
15871W        W75308   1.413   5.738  11.924
15872W        W75309   8.793  13.651   2.697
15873W        W75310  34.029   7.336  11.117
15874W        W75311  13.314  40.866   1.373
15875W        W75312  36.912   7.357   1.827
15876W        W75313  22.746  37.077   3.771
15877W        W75314   6.834   2.953   4.610
15878W        W75315  11.216  20.185  10.976
15879W        W75316  15.143  33.987   2.279
15880W        W75317  44.804  30.635   4.347
15881W        W75318  30.473  15.093   0.782
15882W        W75319  40.332  11.252   1.884
15883W        W75320  12.622  39.858  11.479
15884W        W75321   4.379  31.993  13.980
15885W        W75322  15.183   6.770   2.388
15886W        W75323  21.104  23.178  14.501
15887W        W75324   8.265  42.002  10.954
15888W        W75325  43.455  41.322  14.019
15889W        W75326  27.502   7.893   1.442
15890W        W75327  43.454  15.644  10.470
15891W        W75328  20.108   9.663   2.255
15892W        W75329   9.242  44.356   4.739
15893W        W75330  36.993  23.632  14.285
15894W        W75331  18.787   2.407  11.965
15895W        W75332  30.058   6.785  12.999
15896W        W75333  24.088   2.272   1.929
15897W        W75334   5.769  25.046   3.365
15898W        W75335  35.894  13.264  12.971
15899W        W75336  11.134  11.373  14.771
15900W        W75337  40.033  10.701  13.997
15901W        W75338  32.135  29.060   1.722
15902W        W75339  37.907  18.130  10.134
15903W        W75340   1.260  30.485  13.038
15904W        W75341  18.182  18.620   0.396
15905W        W75342  25.169  23.645  12.045
15906W        W75343  34.466  13.210  11.603
15907W        W75344  17.082   3.458   1.440
15908W        W75345  34.069  42.007  12.367
15909W        W75346   0.797  32.574  11.905
15910W        W75347  11.233  43.933   2.755
15911W        W75348  10.289  25.509  13.813
15912W        W75349  15.822   6.280  14.944
15913W        W75350  17.560  31.637   3.853
15914W        W75351  26.597   8.881   4.813
15915W        W75352  10.784  23.221  14.375
15916W        W75353  21.026  18.263   4.755
15917W        W75354  29.054  37.875  11.075
15918W        W75355  27.114  32.960  13.330
15919W        W75356  15.210  18.733   9.940
15920W        W75357  37.932   7.401   3.257
15921W        W75358  43.479  32.461   1.814
15922W        W75359   4.914  32.634  12.432
15923W        W75360  35.978   5.884  12.402
15924W        W75361   7.897  26.177   5.136
15925W        W75362  12.684   8.725  10.902
15926W        W75363  32.600  29.610   0.750
15927W        W75364  27.621  15.730   4.755
15928W        W75365  40.013  15.083   0.778
15929W        W75366   8.775  14.285   4.795
15930W        W75367  21.244  20.604  13.441
15931W        W75368   5.408   4.840  13.022
15932W        W75369   3.332  25.163   3.202
15933W        W75370  25.533  36.082   1.850
15934W        W75371  22.123  38.533   3.199
15935W        W75372   8.242  12.639   3.237
15936W        W75373  31.499   5.727   3.638
15937W        W75374  20.196  12.614  10.539
15938W        W75375  15.249  21.027   3.701
15939W        W75376  27.044   8.883  11.019
15940W        W75377  38.965  32.552  12.878
15941W        W75378  32.928  42.345  14.955
15942W        W75379   8.380  37.516  14.288
15943W        W75380  11.807  27.165   3.685
15944W        W75381  34.560  17.662   4.354
15945W        W75382  43.921  20.143  10.455
15946W        W75383  37.072  21.020   3.847
15947W        W75384  11.735  12.199  14.414
15948W        W75385  34.961  24.042   2.187
15949W        W75386  13.255  33.473   3.364
15950W        W75387  18.738  35.492   3.224
15951W        W75388   0.324  41.862   2.885
15952W        W75389  17.802  29.565   4.809
15953W        W75390  25.560  36.949  14.315
15954W        W75391  25.535  21.728  14.767
15955W        W75392  28.486   3.324  14.394
15956W        W75393  29.168   7.887  10.515
15957W        W75394  20.163  36.387  10.937
15958W        W75395  28.134  15.147  11.914
15959W        W75396  26.624  40.351   4.168
15960W        W75397  18.139  39.061   1.293
15961W        W75398   9.874  10.226  11.123
15962W        W75399  19.103  15.133   5.113
15963W        W75400   7.767  13.349   2.829
15964W        W75401   3.247  11.702   1.798
15965W        W75402  18.766  34.443   2.875
15966W        W75403  23.112  42.432   4.306
15967W        W75404   5.273  33.574   3.296
15968W        W75405  22.167  15.276  14.783
15969W        W75406   8.894  13.762   1.869
15970W        W75407   4.938  35.078  12.889
15971W        W75408  44.334  30.534   3.163
15972W        W75409  26.139  21.067  14.019
15973W        W75410  37.930  14.636   0.287
15974W        W75411  33.882  28.477  12.867
15975W        W75412  40.875  18.731  11.497
15976W        W75413  27.692  19.075  12.419
15977W        W75414   9.702  36.364  11.037
15978W        W75415  13.260  31.635   1.712
15979W        W75416  38.984  21.088  10.112
15980W        W75417   4.862  36.579   2.832
15981W        W75418   9.319  12.281  12.408
15982W        W75419  31.622  10.737  14.491
15983W        W75420   3.282  42.025   1.314
15984W        W75421  43.925   6.373  13.936
15985W        W75422  38.891  40.977   4.193
15986W        W75423   4.720  42.888   1.841
15987W        W75424  15.819  44.407  14.818
15988W        W75425  23.630  20.154   2.318
15989W        W75426  21.730  41.352   2.892
15990W        W75427  44.952  20.203  11.558
15991W        W75428  15.802  18.724  12.480
15992W        W75429  30.953  32.528  14.340
15993W        W75430  17.743   7.356   2.737
15994W        W75431  29.586  17.620   3.723
15995W        W75432  21.725   2.915  14.958
15996W        W75433  18.251  10.340   4.690
15997W        W75434  28.501  29.612  13.903
15998W        W75435   4.360  39.548   2.311
15999W        W75436  29.969  12.300   1.441
16000W        W75437  38.542  13.661  12.929
16001W        W75438  34.015  13.750  13.464
16002W        W75439   0.484  25.639  11.088
16003W        W75440  23.067  40.823  10.925
16004W        W75441   0.324  31.956   1.920
16005W        W75442  31.004  14.251  12.556
16006W        W75443   6.774  42.962   2.767
16007W        W75444  36.972  31.918  12.924
16008W        W75445  32.973  30.540  12.044
16009W        W75446  35.904  25.971   3.765
16010W        W75447   1.247  13.187  12.463
16011W        W75448  36.485  20.605   3.220
16012W        W75449  19.667  20.088   0.334
16013W        W75450   5.379  23.187   1.269
16014W        W75451   8.274  43.008  14.500
16015W        W75452  44.977  32.895   4.302
16016W        W75453   5.757  18.745  14.938
16017W        W75454  22.515  17.590  11.378
16018W        W75455  18.275  30.968   2.366
16019W        W75456  11.193  41.979  11.994
16020W        W75457  15.719  35.570  13.042
16021W        W75458  38.880  36.465  14.444
16022W        W75459  31.626  41.918  10.529
16023W        W75460  25.636  19.686   3.193
16024W        W75461  43.314   4.714  14.024
16025W        W75462  18.281   0.327   2.894
16026W        W75463  19.067  31.487  13.055
16027W        W75464  34.009  37.944   0.898
16028W        W75465  10.828  25.137   2.812
16029W        W75466  15.806  17.739   2.736
16030W        W75467   9.694  31.023  12.856
16031W        W75468  11.251  12.748  10.989
16032W        W75469  18.626  29.108  12.433
16033W        W75470  32.895  38.332   0.881
16034W        W75471  26.956  42.998   0.967
16035W        W75472  21.556  13.303   4.123
16036W        W75473   3.925  23.498   3.210
16037W        W75474  40.870  37.062   0.437
16038W        W75475  15.816  40.543  12.514
16039W        W75476  37.526  14.264   2.871
16040W        W75477   6.209  34.949   1.906
16041W        W75478  28.591   4.406   3.167
16042W        W75479  20.183  26.186   4.289
16043W        W75480  13.765  27.650  14.499
16044W        W75481  12.135   3.945  14.460
16045W        W75482  36.012  20.727   1.913
16046W        W75483   5.233  14.195   1.924
16047W        W75484  38.557  23.117   0.965
16048W        W75485  13.115  32.086  13.959
16049W        W75486  25.626  44.755  13.457
16050W        W75487   5.862  25.197   3.740
16051W        W75488   5.285  18.066  13.351
16052W        W75489  22.245  14.303   2.679
16053W        W75490   2.269  16.783   1.718
16054W        W75491  18.611  18.660   3.685
16055W        W75492  39.964   0.945   3.203
16056W        W75493  29.143  21.260  12.446
16057W        W75494  20.545   4.283  14.310
16058W        W75495   9.824  42.283   0.382
16059W        W75496  26.503  44.291   5.283
16060W        W75497  26.606  29.072   3.869
16061W        W75498  41.378  29.626  12.980
16062W        W75499  43.439  43.994   0.480
16063W        W75500  35.590  18.629  13.872
16064W        W75501  18.089  40.002  13.836
16065W        W75502  31.597  20.741   4.325
16066W        W75503  17.143   3.885   3.857
16067W        W75504  16.787  40.807   4.349
16068W        W75505   4.766  29.939  13.373
16069W        W75506  28.045  44.913  13.341
16070W        W75507  43.836  22.010   3.817
16071W        W75508  17.230  23.685   3.341
16072W        W75509  28.452  20.172  14.881
16073W        W75510  10.685  21.675   3.867
16074W        W75511  14.261  19.109   3.249
16075W        W75512   2.957  37.002  10.461
16076W        W75513  11.271  19.774   0.847
16077W        W75514   3.408  12.620   0.403
16078W        W75515  22.178  43.475  13.478
16079W        W75516  28.931  19.271  10.563
16080W        W75517  41.414   2.397   2.710
16081W        W75518  11.626  29.953   4.667
16082W        W75519  19.260  35.087   4.203
16083W        W75520  41.977  17.247  13.042
16084W        W75521  36.432  17.177  10.477
16085W        W75522  40.367  39.487   1.229
16086W        W75523  17.110  23.010  10.597
16087W        W75524  28.662   1.840   3.271
16088W        W75525  40.995  38.983   4.779
16089W        W75526  17.096   8.247   0.943
16090W        W75527  28.126  23.027   2.248
16091W        W75528   9.844   5.203   3.631
16092W        W75529   8.867  34.900  13.452
16093W        W75530  23.659  18.745  14.777
16094W        W75531  24.155  25.683   9.936
16095W        W75532  24.050  16.095  11.582
16096W        W75533  35.912   0.937   1.907
16097W        W75534  31.578  20.046   0.419
16098W        W75535  22.664  21.740  12.349
16099W        W75536  26.589  14.675  13.958
16100W        W75537  25.504  38.904   3.249
16101W        W75538  19.592   6.213   0.923
16102W        W75539  36.952  37.840   9.524
16103W        W75540  44.772  44.870  10.549
16104W        W75541  10.878  16.663   1.225
16105W        W75542   6.313  44.791   2.184
16106W        W75543   6.414   8.734   2.820
16107W        W75544  25.083  14.219   0.880
16108W        W75545   8.682  28.660  11.082
16109W        W75546  27.485  25.654   1.224
16110W        W75547  23.030  21.599   4.725
16111W        W75548   3.895  41.456  10.907
16112W        W75549  22.549  44.002   0.410
16113W        W75550  18.693  13.642   4.666
16114W        W75551   1.432  22.139  14.815
16115W        W75552  25.063  37.859  14.443
16116W        W75553   4.919   0.382  14.935
16117W        W75554   8.678  25.040  11.999
16118W        W75555   7.358   6.186  12.864
16119W        W75556   1.266   3.928  11.055
16120W        W75557  29.954  31.110   1.304
16121W        W75558   8.798  39.387  12.833
16122W        W75559  22.209  31.141   1.250
16123W        W75560  25.123  42.403   2.288
16124W        W75561  37.963   6.848   0.866
16125W        W75562   3.945   7.194   5.259
16126W        W75563  14.671  35.034   0.358
16127W        W75564  30.103  21.054   0.861
16128W        W75565  21.069  32.969   9.920
16129W        W75566  12.798  35.514  11.911
16130W        W75567   8.763  29.140  14.900
16131W        W75568  18.108  19.103  11.401
16132W        W75569  13.840   8.393   3.810
16133W        W75570  37.839  17.721  13.807
16134W        W75571   4.299   8.823   2.417
16135W        W75572   9.851   3.418   2.228
16136W        W75573  36.984  12.632   2.788
16137W        W75574  43.440   3.240  13.543
16138W        W75575  25.614  43.777  11.574
16139W        W75576  13.330  31.938   0.801
16140W        W75577   4.737  20.682  12.449
16141W        W75578  36.531  17.270   4.128
16142W        W75579  19.752  37.426  11.382
16143W        W75580  21.748   0.950  10.415
16144W        W75581  38.445  28.963  10.456
16145W        W75582  25.702   9.856   3.310
16146W        W75583  43.940  38.904  11.867
16147W        W75584  33.598  19.047   9.983
16148W        W75585  23.113  28.030  11.408
16149W        W75586  15.244  23.012  11.472
16150W        W75587   3.808  14.647  12.075
16151W        W75588  10.282  39.368   4.209
16152W        W75589  23.187  25.197   1.252
16153W        W75590  38.539  27.173   2.740
16154W        W75591   5.273  30.991   5.281
16155W        W75592  34.103  35.008   1.866
16156W        W75593   3.892  27.195   1.933
16157W        W75594  12.614   7.208  12.530
16158W        W75595  22.657  30.578   3.721
16159W        W75596   9.272  35.092   1.716
16160W        W75597   3.361  19.252  12.928
16161W        W75598  27.446  43.863   4.727
16162W        W75599  30.164   7.287   1.801
16163W        W75600  14.196  13.191   4.177
16164W        W75601   3.343  27.064   3.680
16165W        W75602  29.574   3.452   2.212
16166W        W75603  32.044  21.752   0.827
16167W        W75604   0.277   5.374  10.939
16168W        W75605  14.635  10.864   3.686
16169W        W75606  29.010  39.542  13.813
16170W        W75607  33.513   5.249   2.404
16171W        W75608  43.797  28.027  14.940
16172W        W75609  24.994  29.535  12.012
16173W        W75610   4.337  19.612   3.174
16174W        W75611   0.936  35.038  10.917
16175W        W75612  31.988  29.027  11.082
16176W        W75613  10.330  23.239  13.319
16177W        W75614  14.599  39.871   2.864
16178W        W75615  41.812  27.097  10.417
16179W        W75616  41.040  30.989  12.576
16180W        W75617  25.587  34.978  13.529
16181W        W75618   3.797   3.832   4.759
16182W        W75619   0.288   9.290   4.248
16183W        W75620  19.559  28.658   4.189
16184W        W75621  29.981   4.327  13.428
16185W        W75622  26.119   5.802  13.956
16186W        W75623  37.569  35.044  13.821
16187W        W75624  20.744  41.956   2.889
16188W        W75625  31.018  25.602   4.297
16189W        W75626  13.243  13.611   3.185
16190W        W75627  13.822  11.241  10.448
16191W        W75628  15.234  24.506  13.793
16192W        W75629  38.846   9.689  14.478
16193W        W75630  20.203  39.928  11.109
16194W        W75631  39.825  12.729   3.294
16195W        W75632  26.532  17.568  11.515
16196W        W75633  44.884   5.309  14.780
16197W        W75634  22.179  16.315   2.205
16198W        W75635   5.929  30.949   3.811
16199W        W75636  27.168   2.397   1.760
16200W        W75637   8.281  10.633   0.728
16201W        W75638   2.836  35.383   4.289
16202W        W75639   6.902  30.540   4.295
16203W        W75640   1.863  35.415  11.877
16204W        W75641  20.689   3.787   1.755
16205W        W75642  37.958  26.076   2.284
16206W        W75643   8.828  36.438  10.532
16207W        W75644   3.859  11.215   0.278
16208W        W75645  37.460  13.724  13.933
16209W        W75646  27.139  16.718  14.928
16210W        W75647  19.133  13.846  13.053
16211W        W75648  21.049  21.702  11.482
16212W        W75649  15.221  42.935   3.704
16213W        W75650  44.435  43.515  13.836
16214W        W75651  29.585  27.163   1.759
16215W        W75652  14.153   8.243   2.889
16216W        W75653  20.693   3.917  13.503
16217W        W75654  41.796  40.322   2.767
16218W        W75655  27.187  39.348  10.579
16219W        W75656  12.844  43.301  10.513
16220W        W75657   0.336  31.960   2.789
16221W        W75658  10.365   8.835   9.982
16222W        W75659  41.496  23.220  11.554
16223W        W75660  29.501  12.707   2.685
16224W        W75661  16.717  40.914  14.476
16225W        W75662  17.579  21.117   4.804
16226W        W75663  24.692  16.631   2.347
16227W        W75664   1.966  19.746   4.838
16228W        W75665   9.850  23.163  14.837
16229W        W75666   8.694  42.524   3.383
16230W        W75667  14.707  43.961   0.932
16231W        W75668  28.454  31.485  13.505
16232W        W75669  28.018  33.075  11.945
16233W        W75670  14.816  14.160   4.155
16234W        W75671   4.389  28.513   3.187
16235W        W75672  12.614  44.372   4.639
16236W        W75673  12.118  17.686   1.381
16237W        W75674  30.115  30.008   0.412
16238W        W75675  33.611  38.025  14.512
16239W        W75676   6.269  18.210   1.767
16240W        W75677  22.535   8.852  11.403
16241W        W75678   3.810  20.170  12.068
16242W        W75679  11.147  15.636  10.452
16243W        W75680  16.260  42.995  11.867
16244W        W75681  14.621  43.013  13.995
16245W        W75682   0.930   5.841   2.296
16246W        W75683   5.758  23.009   3.239
16247W        W75684  33.464  44.293  14.992
16248W        W75685  30.438  16.746   4.253
16249W        W75686  36.540  33.611   2.876
16250W        W75687  44.841  27.582  12.546
16251W        W75688  12.823  31.957   4.319
16252W        W75689  44.759  40.375  10.935
16253W        W75690  16.186  17.606   1.333
16254W        W75691  16.175  41.821   0.869
16255W        W75692  12.349   6.375  10.634
16256W        W75693  27.493  18.730  12.006
16257W        W75694  17.745   9.846  14.832
16258W        W75695  16.249  14.667   2.743
16259W        W75696  14.240  15.821   5.302
16260W        W75697  16.640  12.837  11.597
16261W        W75698  25.010   6.863   3.177
16262W        W75699  28.022  11.221  13.940
16263W        W75700  23.032  44.439   2.306
16264W        W75701  11.806  44.476  12.968
16265W        W75702  29.017  19.122  13.808
16266W        W75703  27.559  17.773  13.930
16267W        W75704   2.453  40.892   2.215
16268W        W75705   2.852  31.001  11.964
16269W        W75706  26.685  40.393  13.035
16270W        W75707  19.069  23.593   0.275
16271W        W75708  22.542  30.454   5.313
16272W        W75709  41.531   4.315  11.046
16273W        W75710  22.710  17.583   9.461
16274W        W75711   6.901   2.738   3.195
16275W        W75712  17.575  10.156  11.069
16276W        W75713  11.324  32.005   2.389
16277W        W75714   6.384   5.373   3.804
16278W        W75715   4.731  28.002  11.579
16279W        W75716   4.334  18.100   1.279
16280W        W75717  38.474  30.937   1.899
16281W        W75718  17.707  34.447   0.750
16282W        W75719  21.690   2.464   4.320
16283W        W75720  36.499  27.133   0.728
16284W        W75721  35.473  19.557   4.313
16285W        W75722  27.102  15.161   3.232
16286W        W75723  20.545  20.746   2.676
16287W        W75724  44.940  21.615  13.537
16288W        W75725  13.324  17.218   3.313
16289W        W75726   5.930   1.309  14.932
16290W        W75727  40.828  39.989  11.930
16291W        W75728  18.289  30.971   0.802
16292W        W75729  41.984   4.863   1.790
16293W        W75730  17.796   3.354  12.417
16294W        W75731  39.883  25.555   0.290
16295W        W75732  13.303  17.712   1.271
16296W        W75733  23.077  30.984   3.716
16297W        W75734   1.749   9.376  11.473
16298W        W75735   1.778  35.462   1.835
16299W        W75736  10.678  13.795  11.517
16300W        W75737  44.002   9.838   3.645
16301W        W75738  28.621  27.123   0.317
16302W        W75739  37.489   1.901  12.896
16303W        W75740  37.444  10.376  14.455
16304W        W75741  25.974   5.237  13.937
16305W        W75742  33.525  28.037   3.179
16306W        W75743  16.705  32.129  13.890
16307W        W75744   6.337  34.872  10.109
16308W        W75745   0.870  25.161   2.286
16309W        W75746  20.643  14.786   4.348
16310W        W75747  29.627  36.492   0.265
16311W        W75748   1.949  26.700   0.299
16312W        W75749  36.023  16.723   4.718
16313W        W75750   9.284  36.387   3.223
16314W        W75751  34.038  30.608   4.139
16315W        W75752  24.163  18.207   3.821
16316W        W75753  11.745   1.755  13.851
16317W        W75754  16.571  16.623  13.012
16318W        W75755  28.617  11.163  11.901
16319W        W75756  42.291  22.525   3.363
16320W        W75757   1.890   5.778   4.179
16321W        W75758  34.597   2.264   3.725
16322W        W75759   9.150  42.931   0.786
16323W        W75760  43.397  16.108   0.776
16324W        W75761  17.122  30.966  14.486
16325W        W75762   9.885   9.302  13.442
16326W        W75763  15.208  22.248   0.736
16327W        W75764  44.840  14.780   2.284
16328W        W75765  22.650  40.370   3.748
16329W        W75766   6.811  40.350   2.891
16330W        W75767  24.146  43.983   1.709
16331W        W75768   1.946   5.383  11.383
16332W        W75769   2.830  16.214   9.626
16333W        W75770  28.050  25.595  14.862
16334W        W75771  24.162   2.948   1.372
16335W        W75772  32.107  12.779  11.942
16336W        W75773  30.972  28.460   2.315
16337W        W75774  19.534  20.546  13.437
16338W        W75775  17.087  12.273  12.055
16339W        W75776  14.191  37.337  13.399
16340W        W75777  26.020  41.941  12.491
16341W        W75778  19.689  18.726   1.723
16342W        W75779  43.374   0.247   3.214
16343W        W75780   0.903  14.631  13.873
16344W        W75781   5.774  40.937  13.344
16345W        W75782  22.635  41.963   0.819
16346W        W75783  28.935  24.666   3.635
16347W        W75784   7.197  37.917  11.453
16348W        W75785  19.744  33.960   3.183
16349W        W75786  30.917  13.318  14.371
16350W        W75787  33.045   0.844  11.987
16351W        W75788  30.134  42.460  11.525
16352W        W75789  11.157   8.340   2.264
16353W        W75790  42.009  30.420   3.657
16354W        W75791  44.288   6.363   0.863
16355W        W75792  39.391  44.281  11.598
16356W        W75793  38.328  12.357   1.744
16357W        W75794   9.175  31.976  12.990
16358W        W75795  39.404  11.858  14.796
16359W        W75796   7.825  43.376  12.427
16360W        W75797  24.683  36.951   1.925
16361W        W75798  33.457   6.694  13.363
16362W        W75799  19.758  41.494   2.406
16363W        W75800  32.103  22.126  13.485
16364W        W75801  30.578   5.783  13.385
16365W        W75802  24.977  27.044   3.234
16366W        W75803   8.749  18.164   1.382
16367W        W75804  44.291  42.502   0.323
16368W        W75805   3.395  22.115   1.371
16369W        W75806   8.272  34.419  13.837
16370W        W75807   6.239   7.258   3.725
16371W        W75808  12.160   2.393   2.898
16372W        W75809  27.461  17.255   0.291
16373W        W75810  40.462  14.819  13.862
16374W        W75811  12.720  15.588   3.749
16375W        W75812  28.488  32.627  11.505
16376W        W75813  36.042  19.660   1.210
16377W        W75814  37.497  15.676  11.106
16378W        W75815   5.319  19.244   0.339
16379W        W75816  21.161  40.441  13.527
16380W        W75817  34.968   9.209   0.341
16381W        W75818  19.545  29.989   1.770
16382W        W75819   8.307  34.468   3.833
16383W        W75820  38.006  39.359  14.409
16384W        W75821   0.457   3.901   1.231
16385W        W75822  40.477  30.625  13.831
16386W        W75823  29.496  34.567  10.563
16387W        W75824  31.453  29.604   0.738
16388W        W75825  22.513  22.087  14.002
16389W        W75826  34.415  32.516   2.297
16390W        W75827  31.516   0.839  13.001
16391W        W75828  31.912  35.995  12.845
16392W        W75829  40.365  34.553  14.979
16393W        W75830  25.191  32.431  14.394
16394W        W75831  12.330  30.040   0.280
16395W        W75832  20.744  44.837   3.746
16396W        W75833  33.486  38.329  14.015
16397W        W75834  38.481  24.541   3.216
16398W        W75835  13.720  40.423   2.256
16399W        W75836  12.721  42.842  13.883
16400W        W75837  40.989  40.969   1.405
16401W        W75838   8.249  29.996  12.860
16402W        W75839  26.994  17.594   2.757
16403W        W75840  43.450  20.135   4.202
16404W        W75841  42.330  40.512  12.354
16405W        W75842  17.626  41.885  14.016
16406W        W75843  14.319   3.344  10.618
16407W        W75844  10.244  30.469  12.535
16408W        W75845  44.891  12.207  10.639
16409W        W75846   4.875  39.918   1.781
16410W        W75847  11.153   4.308   0.837
16411W        W75848  26.961  25.626  11.003
16412W        W75849  43.464   2.862   0.967
16413W        W75850  36.576   1.260   1.437
16414W        W75851  41.417  37.342   2.813
16415W        W75852  10.838   1.872  11.901
16416W        W75853  30.473   1.264   4.172
16417W        W75854  32.901  19.089  14.916
16418W        W75855  38.421  39.540   2.711
16419W        W75856  23.629  18.109  11.577
16420W        W75857  10.686  33.095  13.821
16421W        W75858  25.133  16.648   2.724
16422W        W75859  34.116   1.905  14.017
16423W        W75860  29.944   2.255   4.180
16424W        W75861  26.960  39.477  13.346
16425W        W75862   2.459  42.897  13.853
16426W        W75863   0.834  27.961  13.873
16427W        W75864  21.614  33.408   2.816
16428W        W75865  28.163  19.674  12.877
16429W        W75866  22.600  43.974  13.486
16430W        W75867  44.797  26.470  10.422
16431W        W75868  19.717   8.769  13.039
16432W        W75869  35.960  21.537  12.963
16433W        W75870  34.506  28.128   3.672
16434W        W75871  16.576   3.915   1.767
16435W        W75872  34.978  27.471  11.552
16436W        W75873  41.393  11.634   2.708
16437W        W75874  22.700   7.855   0.297
16438W        W75875  30.126   6.362  13.321
16439W        W75876  36.907  30.074  14.284
16440W        W75877   6.353  15.583   5.095
16441W        W75878  26.553   2.726  13.526
16442W        W75879  43.498  34.012   1.894
16443W        W75880  35.862  28.952  14.783
16444W        W75881  21.136  37.530  14.026
16445W        W75882  21.541  41.481  13.844
16446W        W75883   9.787  40.351  10.619
16447W        W75884  39.332   1.441   0.788
16448W        W75885   4.373  18.575   2.316
16449W        W75886  15.745  29.008   3.374
16450W        W75887  29.167  44.769  12.854
16451W        W75888   4.331  33.032  11.112
16452W        W75889  23.074  36.881  13.960
16453W        W75890  27.517  39.512  10.483
16454W        W75891   4.327   9.675  11.027
16455W        W75892  12.717  15.291  11.028
16456W        W75893   9.322  20.545   2.348
16457W        W75894   9.695  13.688   0.362
16458W        W75895   6.248  11.719   3.698
16459W        W75896  13.278  30.415   3.860
16460W        W75897   4.774  13.174  11.970
16461W        W75898  14.325  33.558  10.529
16462W        W75899   6.194  16.282   0.452
16463W        W75900  11.843  34.426  11.038
16464W        W75901  26.593  29.030  14.453
16465W        W75902  36.555  44.766   2.886
16466W        W75903  12.206  35.980  12.040
16467W        W75904  21.035   4.901  11.492
16468W        W75905   7.683   6.310  10.001
16469W        W75906   9.373   7.228  12.404
16470W        W75907  29.577  41.009   2.666
16471W        W75908   8.840  15.109  11.101
16472W        W75909  44.792  35.442  12.979
16473W        W75910  43.279  13.188   1.230
16474W        W75911  20.698  10.847   4.288
16475W        W75912  14.647  16.723   4.800
16476W        W75913  37.451  28.530   2.787
16477W        W75914  24.179  32.633   1.302
16478W        W75915  17.579   7.285   1.323
16479W        W75916  18.568  19.120  12.012
16480W        W75917  32.454  12.333  11.415
16481W        W75918  29.001  29.114  13.838
16482W        W75919  42.938   9.155  13.533
16483W        W75920  17.749  33.050   3.754
16484W        W75921  18.275  29.470  12.482
16485W        W75922   0.770  10.746  14.913
16486W        W75923  19.276  27.035   2.278
16487W        W75924  43.986  19.547  12.452
16488W        W75925  34.411   5.269  12.047
16489W        W75926  30.126  26.629  10.504
16490W        W75927  25.708   7.856   3.730
16491W        W75928  24.055  17.731  10.638
16492W        W75929   1.250  32.545  12.964
16493W        W75930  31.136  21.104  11.417
16494W        W75931  39.830   8.772  11.077
16495W        W75932  19.678  33.946  10.508
16496W        W75933  26.035  21.219  11.921
16497W        W75934  33.575  16.624  13.394
16498W        W75935   9.291  21.736  10.494
16499W        W75936   7.823  44.422  13.309
16500W        W75937   6.296  16.582   2.685
16501W        W75938  37.980  13.190   0.764
16502W        W75939  11.289   6.356   4.667
16503W        W75940   6.219  21.717   3.292
16504W        W75941  14.793  22.252   3.830
16505W        W75942  26.062  12.772  11.537
16506W        W75943  19.675   8.732   0.815
16507W        W75944  39.888  37.046   1.832
16508W        W75945  38.467   2.461  12.993
16509W        W75946  28.487  35.019   4.255
16510W        W75947  40.859  40.419   3.172
16511W        W75948  27.661   0.797  13.457
16512W        W75949   0.321  21.533   3.272
16513W        W75950  21.171  43.418  10.992
16514W        W75951  11.762  41.335  11.551
16515W        W75952  31.124  11.297   2.771
16516W        W75953  22.107  27.495  12.340
16517W        W75954  30.458  30.058   3.788
16518W        W75955  24.675  40.953  11.866
16519W        W75956  20.233   5.866  11.512
16520W        W75957   9.860  39.418  13.935
16521W        W75958  30.046  21.567   2.314
16522W        W75959  28.166   5.916   4.675
16523W        W75960  44.900  26.028   3.858
16524W        W75961   2.388  39.340  10.640
16525W        W75962  38.901  28.031  11.390
16526W        W75963   0.743  21.056  12.483
16527W        W75964  33.606  27.105   3.376
16528W        W75965   5.866  22.018  13.799
16529W        W75966  14.596   4.888   4.751
16530W        W75967  22.732   3.819   1.446
16531W        W75968  28.138  32.972   3.182
16532W        W75969  26.006  10.767  10.419
16533W        W75970  10.327   1.264  10.960
16534W        W75971  32.926  12.675  12.972
16535W        W75972  16.311  30.007  11.454
16536W        W75973  38.037  43.515  12.375
16537W        W75974   8.237   9.231  14.384
16538W        W75975  43.830  36.917  13.445
16539W        W75976  12.240  36.523  14.843
16540W        W75977  27.531  17.719  10.901
16541W        W75978  31.977  40.001   0.357
16542W        W75979  24.990  24.218   0.951
16543W        W75980  26.976  11.256  11.906
16544W        W75981  25.069  17.646   0.899
16545W        W75982  17.738   5.419  11.391
16546W        W75983  33.977  24.683   2.246
16547W        W75984  38.433  31.406   0.294
16548W        W75985   7.299  15.283   1.914
16549W        W75986  29.084  42.812  12.054
16550W        W75987  23.018  20.669  12.042
16551W        W75988   7.399   7.366  13.939
16552W        W75989  13.328  18.078   2.795
16553W        W75990  30.472  32.093  13.316
16554W        W75991  13.206  33.529   0.760
16555W        W75992  36.912  15.226   1.779
16556W        W75993  40.413  35.900   4.627
16557W        W75994  39.811  17.156   2.235
16558W        W75995  27.678   1.434   1.870
16559W        W75996  20.216  40.334   1.266
16560W        W75997  39.979  39.872   1.867
16561W        W75998  27.486  40.459   0.794
16562W        W75999  42.488  32.080   5.256
16563W        W76000  36.012  17.229  13.437
16564W        W76001  41.890   0.777  12.085
16565W        W76002   0.899  30.983  12.085
16566W        W76003  13.845  42.917  13.322
16567W        W76004  23.719  43.284   3.734
16568W        W76005  43.867  15.726  11.950
16569W        W76006  18.720  29.521  12.050
16570W        W76007  35.877  35.970  11.988
16571W        W76008   5.855  28.991   4.762
16572W        W76009  10.694  44.871   3.798
16573W        W76010  33.057  41.961   1.801
16574W        W76011  23.550  43.285   2.345
16575W        W76012   3.737   4.220   1.800
16576W        W76013  36.438  27.660   3.869
16577W        W76014   2.805   8.900   2.403
16578W        W76015   0.920   6.359  11.940
16579W        W76016   8.861  32.996  12.343
16580W        W76017  35.429  36.576  11.052
16581W        W76018  10.270  40.333  14.366
16582W        W76019   3.927   6.744   1.436
16583W        W76020  11.852  17.615  13.451
16584W        W76021   9.799  42.499  10.923
16585W        W76022   8.658   4.738   3.746
16586W        W76023  17.226  34.533  11.434
16587W        W76024  24.504  30.938  14.021
16588W        W76025  30.446  22.581  13.339
16589W        W76026  37.382  35.881   3.184
16590W        W76027  27.055  41.899   1.422
16591W        W76028  40.482  22.209   0.909
16592W        W76029   5.351  37.887  13.545
16593W        W76030  23.142  32.492  12.405
16594W        W76031  24.668  33.034  13.912
16595W        W76032   8.735  36.095  12.482
16596W        W76033  42.032  32.973  11.448
16597W        W76034   3.423  42.504  12.914
16598W        W76035  42.438  36.994   1.820
16599W        W76036  41.353  36.898   2.223
16600W        W76037  30.428   4.842   4.163
16601W        W76038   5.290  25.216   0.754
16602W        W76039  22.195   0.897   4.621
16603W        W76040  15.733   4.258   3.200
16604W        W76041  29.626  42.495   1.309
16605W        W76042   0.942  14.696   4.197
16606W        W76043  31.001   2.776  11.873
16607W        W76044  28.185  35.365   1.245
16608W        W76045  35.077  18.258   4.804
16609W        W76046  30.128  34.507  13.870
16610W        W76047  18.760  35.854  12.522
16611W        W76048  36.355  19.597  14.760
16612W        W76049  39.553  14.806   3.259
16613W        W76050  39.370  33.389   3.827
16614W        W76051  29.980  25.701  11.610
16615W        W76052  30.074  21.203   3.176
16616W        W76053  38.949  30.981  14.911
16617W        W76054  39.944  27.683   2.683
16618W        W76055  41.834  30.620   4.297
16619W        W76056  13.158   7.846  12.435
16620W        W76057  29.523  27.624  12.376
16621W        W76058   4.902  38.414  14.504
16622W        W76059  11.658  44.004   4.725
16623W        W76060   5.867  34.535   2.417
16624W        W76061   7.275  35.583   4.766
16625W        W76062  26.624   9.735   2.777
16626W        W76063   2.291  29.031   4.608
16627W        W76064  44.455  34.101   5.244
16628W        W76065  18.602   2.392   2.797
16629W        W76066  19.225  37.448  14.330
16630W        W76067  44.438  18.254   4.317
16631W        W76068  10.697  29.061   0.942
16632W        W76069   2.797  25.669  10.946
16633W        W76070  17.102  24.171  12.856
16634W        W76071  37.956  31.453   4.118
16635W        W76072  42.885  22.242  12.906
16636W        W76073  36.007  27.665   1.769
16637W        W76074  10.678  37.999  13.038
16638W        W76075  19.754  41.995   3.210
16639W        W76076  14.176  27.685  12.386
16640W        W76077  16.097   0.816  13.921
16641W        W76078  28.560  18.678   1.757
16642W        W76079  15.674  15.807   1.805
16643W        W76080  43.413  15.814   1.721
16644W        W76081  17.730  16.591  14.002
16645W        W76082  15.323  36.453   0.727
16646W        W76083  24.542   6.325   0.406
16647W        W76084  10.747  42.818  12.501
16648W        W76085  39.441  11.316   1.293
16649W        W76086  40.447  42.498  12.382
16650W        W76087  44.787  20.056  13.344
16651W        W76088  44.347   6.305   1.707
16652W        W76089  37.927   5.707  12.074
16653W        W76090  19.164  29.573   1.355
16654W        W76091  20.187   2.783   4.287
16655W        W76092   1.841  35.543   2.878
16656W        W76093  35.859  38.020  14.842
16657W        W76094  25.711  29.496   3.804
16658W        W76095  17.713  22.134   3.639
16659W        W76096  13.301  14.102   2.728
16660W        W76097  25.513   8.229   3.820
16661W        W76098  22.156  13.743   4.766
16662W        W76099  38.495  29.937  12.042
16663W        W76100  41.475   4.712   3.208
16664W        W76101  21.054  24.103  13.820
16665W        W76102   9.328  44.490  14.011
16666W        W76103  37.399   4.285   0.793
16667W        W76104  18.720   8.359  12.516
16668W        W76105  28.150  21.675  11.095
16669W        W76106   3.801   9.336   1.423
16670W        W76107  36.970  32.006  11.484
16671W        W76108  44.328  20.582  14.333
16672W        W76109  11.715  26.664   1.753
16673W        W76110  37.992  25.625   1.283
16674W        W76111  30.929  42.424  14.427
16675W        W76112  30.415  43.368   0.389
16676W        W76113   6.244  12.685  10.491
16677W        W76114   5.220  12.744  11.861
16678W        W76115  30.997  22.177   1.301
16679W        W76116   1.798  34.541   3.174
16680W        W76117  20.533  32.077   4.643
16681W        W76118  33.089  28.028  11.600
16682W        W76119   4.242  10.217   2.253
16683W        W76120   3.335  44.919  10.569
16684W        W76121  28.538   6.291  12.402
16685W        W76122  31.483  24.552  13.364
16686W        W76123  15.631   6.311  12.870
16687W        W76124  22.174  11.754   1.310
16688W        W76125   3.754  42.438  11.040
16689W        W76126  32.413  39.918   1.762
16690W        W76127  27.944  37.888   4.226
16691W        W76128  23.664  29.524   3.146
16692W        W76129  19.724  11.186  14.446
16693W        W76130   3.239  15.731  12.992
16694W        W76131  24.568  11.320  14.280
16695W        W76132  32.622   2.727  12.555
16696W        W76133   7.868  41.313   0.737
16697W        W76134  40.417   8.735  13.819
16698W        W76135   5.764  43.884   0.283
16699W        W76136  26.698  28.463   4.804
16700W        W76137  28.621   2.955   2.407
16701W        W76138  10.656  18.787  12.428
16702W        W76139  18.706   4.704  11.971
16703W        W76140  15.714  32.056   2.888
16704W        W76141   5.722   9.881   0.389
16705W        W76142  25.476  15.650  10.448
16706W        W76143  40.496  25.180   2.791
16707W        W76144  23.495   5.374   1.307
16708W        W76145  33.062  31.034   4.277
16709W        W76146  36.435  44.284   0.252
16710W        W76147  42.453  18.293  14.870
16711W        W76148   3.327   9.757   4.617
16712W        W76149  21.160  29.156  11.984
16713W        W76150  43.853  32.896   1.838
16714W        W76151  17.629  13.285  14.885
16715W        W76152  27.564  27.636  12.039
16716W        W76153  19.180  25.180  12.964
16717W        W76154  21.551  34.959  14.798
16718W        W76155  15.248   2.275   2.204
16719W        W76156  12.222  22.655  12.512
16720W        W76157  37.490  42.004  11.095
16721W        W76158  21.741  36.399  13.003
16722W        W76159  17.296   4.829  11.557
16723W        W76160   3.314  17.183  11.878
16724W        W76161  39.348   0.874  11.868
16725W        W76162  10.285  39.826  11.569
16726W        W76163  13.172  41.300  14.824
16727W        W76164  31.615  42.964   1.828
16728W        W76165  15.782  31.985   0.382
16729W        W76166  17.614   3.275   0.288
16730W        W76167  29.427  38.934   2.725
16731W        W76168  34.930  17.653  12.864
16732W        W76169   3.236  30.435  13.013
16733W        W76170   4.255  19.114   2.872
16734W        W76171  42.385   6.794  13.321
16735W        W76172  36.353  19.215  14.895
16736W        W76173   1.771  34.502   2.339
16737W        W76174   3.922  34.452  12.885
16738W        W76175  37.985  30.980   3.188
16739W        W76176  26.986  32.060   2.408
16740W        W76177  26.050  10.318  12.407
16741W        W76178  31.573   8.323  13.435
16742W        W76179  18.547   2.857   0.848
16743W        W76180  32.049  38.460   0.453
16744W        W76181  28.676   5.234   2.804
16745W        W76182  44.383   8.665  13.910
16746W        W76183  42.512  28.463  14.362
16747W        W76184  23.010  36.004   9.939
16748W        W76185  16.265  14.591  13.994
16749W        W76186  31.004  17.198   4.601
16750W        W76187  16.179   2.240   3.705
16751W        W76188  33.566  24.693  11.119
16752W        W76189  20.119  12.657  13.515
16753W        W76190  12.248  23.999   0.394
16754W        W76191   0.936  21.159  13.462
16755W        W76192  36.580   8.245   2.306
16756W        W76193  21.019   2.962   0.476
16757W        W76194  13.688  39.848  13.395
16758W        W76195  27.188  12.657   0.409
16759W        W76196  40.428  19.539  11.520
16760W        W76197  36.873  43.810  14.444
16761W        W76198  38.496   7.212   2.189
16762W        W76199  31.569  19.619   3.336
16763W        W76200  25.024  22.601  12.996
16764W        W76201   1.315  29.926   2.230
16765W        W76202  26.597  30.654   1.234
16766W        W76203  31.986  42.444  14.021
16767W        W76204  23.149  10.368   0.777
16768W        W76205  17.242  11.134  11.570
16769W        W76206  38.332  24.976   1.784
16770W        W76207   0.419   2.470   0.925
16771W        W76208  40.811   3.385  13.456
16772W        W76209  42.977  33.526  11.446
16773W        W76210  26.142  22.089   2.745
16774W        W76211  23.228  19.572   4.238
16775W        W76212   4.425  39.916   0.743
16776W        W76213  13.119  18.740   0.811
16777W        W76214  15.119  38.372  14.356
16778W        W76215  25.502  19.181   4.714
16779W        W76216  44.853   2.780   2.263
16780W        W76217  14.822   5.410   2.872
16781W        W76218  28.478  18.163  12.056
16782W        W76219  23.228  38.484  12.853
16783W        W76220  35.049  23.031  12.032
16784W        W76221   8.403  30.111  14.281
16785W        W76222   5.786  28.670   4.329
16786W        W76223  22.575   2.344   5.275
16787W        W76224  42.813  13.821   2.405
16788W        W76225  18.763  12.243   2.376
16789W        W76226  12.834   2.306  11.068
16790W        W76227  40.436  20.111   0.943
16791W        W76228   4.793  25.215  10.577
16792W        W76229   0.837   1.969  12.554
16793W        W76230   0.769  44.848   2.329
16794W        W76231  36.013  13.699  14.319
16795W        W76232  30.959  34.114  10.559
16796W        W76233  11.212   3.712  13.881
16797W        W76234  36.958  37.371   2.718
16798W        W76235  31.898  10.695  13.493
16799W        W76236  10.719  19.602  14.934
16800W        W76237  17.684   6.213  11.927
16801W        W76238  31.404  27.188   5.597
16802W        W76239  14.651  13.623  14.487
16803W        W76240  33.007   0.274  11.946
16804W        W76241  37.440  26.662   1.834
16805W        W76242  44.888  30.943   0.923
16806W        W76243  28.138  25.549  11.086
16807W        W76244  16.086   1.481   0.771
16808W        W76245  15.123  38.407  11.128
16809W        W76246  21.068  42.340  14.331
16810W        W76247  35.975  21.724  10.904
16811W        W76248  20.751   6.884  11.998
16812W        W76249   1.263  38.018  12.560
16813W        W76250  43.010  36.558   1.839
16814W        W76251  32.921  32.410   4.321
16815W        W76252  33.451   5.701  14.456
16816W        W76253  18.633   6.216  11.514
16817W        W76254  15.273  16.110  10.972
16818W        W76255  28.672  35.459   0.244
16819W        W76256  21.693  20.683   3.815
16820W        W76257   7.174   7.279   4.723
16821W        W76258  25.003   2.277   3.629
16822W        W76259  18.235  34.572  12.925
16823W        W76260  20.075  12.267   2.893
16824W        W76261   3.874  38.879  13.929
16825W        W76262  24.230  42.008  12.855
16826W        W76263  25.602  12.820   0.773
16827W        W76264  11.182  12.131  12.976
16828W        W76265  13.759   9.809   2.340
16829W        W76266  33.131  12.306   3.324
16830W        W76267  30.611   9.232  13.310
16831W        W76268  38.938   0.343   3.836
16832W        W76269  20.712  44.486  14.883
16833W        W76270  35.035   7.296   3.304
16834W        W76271   7.695   9.348  12.016
16835W        W76272  36.454   9.369  10.405
16836W        W76273  12.729   4.839  10.408
16837W        W76274   5.344   9.317  10.602
16838W        W76275  25.650  30.497  10.940
16839W        W76276  40.466   5.715  10.631
16840W        W76277  33.585  16.649  13.799
16841W        W76278  26.126  31.566  13.856
16842W        W76279   4.788   1.398   3.831
16843W        W76280  33.487   9.757   4.640
16844W        W76281  33.550  32.956   2.279
16845W        W76282  14.305  27.070  10.607
16846W        W76283   9.805  42.885  10.965
16847W        W76284   6.244  13.631  13.904
16848W        W76285  26.606   6.292  14.358
16849W        W76286   1.760  23.542   4.723
16850W        W76287  43.854  22.153  13.422
16851W        W76288  31.415  22.697   3.352
16852W        W76289  12.805  27.034  12.454
16853W        W76290  24.608  27.614  13.436
16854W        W76291   4.850  16.693   3.288
16855W        W76292   5.325   2.874  13.831
16856W        W76293  22.085  34.052  13.403
16857W        W76294  42.481   1.791  14.770
16858W        W76295   4.897  43.816  10.001
16859W        W76296   8.755  11.856   0.467
16860W        W76297  36.430  43.510  13.975
16861W        W76298  28.662  16.166   0.407
16862W        W76299  41.299  41.970  12.535
16863W        W76300  41.795  38.560   0.783
16864W        W76301   8.223  36.844   2.228
16865W        W76302  17.698  27.989  14.336
16866W        W76303  27.498   0.318  13.422
16867W        W76304  38.337  44.475  11.424
16868W        W76305  27.178  30.041   1.774
16869W        W76306  10.753  34.022   2.780
16870W        W76307   8.734  37.496   4.324
16871W        W76308  27.627  12.169   2.215
16872W        W76309   0.919  23.170   2.295
16873W        W76310  12.257   9.844   0.316
16874W        W76311   8.754  21.720   4.758
16875W        W76312  38.962  10.776   1.928
16876W        W76313  19.278  10.327   0.433
16877W        W76314   6.843  19.246  13.401
16878W        W76315  23.157  26.480  12.473
16879W        W76316  14.773  14.789  12.932
16880W        W76317  41.966  37.575  11.402
16881W        W76318  14.771   0.841   1.261
16882W        W76319  21.148  31.440   3.347
16883W        W76320  28.087  40.371  13.326
16884W        W76321  26.690  33.442   5.320
16885W        W76322  29.976  33.878   2.761
16886W        W76323   7.274  34.897  12.828
16887W        W76324  16.263  14.281  12.043
16888W        W76325  43.374  42.969   1.440
16889W        W76326   0.805  44.854   4.326
16890W        W76327  12.315   6.886   2.202
16891W        W76328   6.244  12.702  13.900
16892W        W76329  18.589   9.217   4.785
16893W        W76330   9.173  31.095   1.834
16894W        W76331  23.530  42.520  12.058
16895W        W76332  27.100  19.125  10.928
16896W        W76333  22.743  21.067   5.721
16897W        W76334   0.379   4.449  13.986
16898W        W76335  22.114  34.569   2.784
16899W        W76336   1.434  11.195  12.462
16900W        W76337  37.504  11.297  11.891
16901W        W76338  22.185  42.978  12.402
16902W        W76339  40.538  21.625   4.755
16903W        W76340  12.720  12.184  12.918
16904W        W76341  39.472  15.254   2.378
16905W        W76342  19.178   7.809   4.760
16906W        W76343  40.011  28.569  13.059
16907W        W76344  38.354  23.167  14.965
16908W        W76345  44.498  25.159  10.019
16909W        W76346  39.832   5.396   0.391
16910W        W76347   5.840  34.938  10.946
16911W        W76348   4.213  35.863   1.258
16912W        W76349  14.780   3.940   3.666
16913W        W76350  21.026  11.835   1.903
16914W        W76351   0.846  31.125  11.376
16915W        W76352  32.991   5.782   0.406
16916W        W76353  12.695  29.958   3.188
16917W        W76354  19.216  15.746  13.039
16918W        W76355   2.765  19.209   2.853
16919W        W76356   0.458   5.761  10.931
16920W        W76357  32.977  17.282   3.207
16921W        W76358  22.222  44.968  12.501
16922W        W76359  12.620   2.733   3.198
16923W        W76360  34.529  24.211  14.481
16924W        W76361   1.274  37.975   0.826
16925W        W76362  25.213  17.683  10.620
16926W        W76363  33.117  17.594   2.877
16927W        W76364  23.579  12.342   4.688
16928W        W76365  13.214   0.351   4.718
16929W        W76366   2.777  16.101  10.105
16930W        W76367  25.541  35.878   4.603
16931W        W76368  10.203  19.218  14.027
16932W        W76369  34.021  39.945  10.465
16933W        W76370   1.812  33.442   4.712
16934W        W76371  39.370   3.904  13.848
16935W        W76372   9.340   2.332  12.980
16936W        W76373   4.815   4.852  14.949
16937W        W76374  11.629  13.264   0.849
16938W        W76375  13.639  24.154   2.324
16939W        W76376  20.221   4.869   1.746
16940W        W76377  16.633  36.926  11.970
16941W        W76378  16.128  16.292   2.269
16942W        W76379   7.733  39.907   4.344
16943W        W76380  37.991  17.258  10.128
16944W        W76381  31.958   6.785   1.401
16945W        W76382  42.422  12.118  14.989
16946W        W76383   4.823  11.845   3.855
16947W        W76384  16.752  15.792   0.428
16948W        W76385  10.318  25.966  13.522
16949W        W76386  14.175  30.012   3.380
16950W        W76387  19.058  40.461  14.770
16951W        W76388   2.311  24.011   5.288
16952W        W76389  38.508  39.496   1.716
16953W        W76390  16.171  26.590   4.832
16954W        W76391  26.066  36.908  12.844
16955W        W76392  10.364   7.771  11.564
16956W        W76393   6.856  30.462  10.624
16957W        W76394  24.047  20.547   4.714
16958W        W76395  32.044  13.657  11.015
16959W        W76396  31.906  38.507  12.370
16960W        W76397  15.788  24.216   3.291
16961W        W76398  12.219  37.339  10.466
16962W        W76399  29.472   2.753   4.246
16963W        W76400  36.914  10.733   2.829
16964W        W76401  21.743   9.333   2.853
16965W        W76402  33.969  29.006  12.017
16966W        W76403  35.002  37.981   1.271
16967W        W76404  21.170  34.560   3.685
16968W        W76405  20.561  35.043   0.263
16969W        W76406  22.626  18.235  13.423
16970W        W76407   8.297  17.229   4.262
16971W        W76408  15.268  16.262   0.281
16972W        W76409  33.039  43.344   5.678
16973W        W76410  42.424  11.294  13.928
16974W        W76411  23.060  31.944   4.831
16975W        W76412  30.141  36.028  10.598
16976W        W76413  15.582  27.111  11.593
16977W        W76414  32.504  16.699  10.893
16978W        W76415  43.456  39.424   5.733
16979W        W76416   2.827   5.250  13.546
16980W        W76417  42.302  26.559  10.616
16981W        W76418  35.398   1.883   1.836
16982W        W76419  16.706  39.392  11.109
16983W        W76420   7.242  24.080  14.918
16984W        W76421  18.633  12.687  10.571
16985W        W76422   0.298   0.865   2.695
16986W        W76423  14.289  34.996   4.229
16987W        W76424  37.992  16.607  11.439
16988W        W76425  14.268  12.782   1.806
16989W        W76426  19.633  22.511   1.882
16990W        W76427  15.208  11.280  14.847
16991W        W76428  10.189  37.077  14.470
16992W        W76429  11.743   0.963   4.272
16993W        W76430   1.941  30.129   3.158
16994W        W76431   4.267  43.001  13.965
16995W        W76432  13.169  15.734  13.333
16996W        W76433  42.313  31.538   3.379
16997W        W76434   2.900  18.281   2.203
16998W        W76435   1.819  12.204  14.865
16999W        W76436  25.159  26.541   4.234
17000W        W76437  18.621  27.964   0.748
17001W        W76438  27.065  12.256  12.501
17002W        W76439  21.256  36.531   1.409
17003W        W76440  39.353  27.671  12.015
17004W        W76441  34.876  30.613   0.848
17005W        W76442  31.004  44.499   3.254
17006W        W76443  11.780  41.330   3.292
17007W        W76444  22.523  19.536   2.378
17008W        W76445  38.008  37.850  10.459
17009W        W76446  29.952  37.928   3.744
17010W        W76447  42.429  22.243  14.277
17011W        W76448  28.600  13.613  11.577
17012W        W76449   6.778  28.572   1.701
17013W        W76450  37.442  19.684   4.615
17014W        W76451  13.809  23.197   3.328
17015W        W76452  19.224  18.247  14.389
17016W        W76453  18.660  44.442  11.867
17017W        W76454  25.514   6.188  13.062
17018W        W76455  20.616  20.263  10.588
17019W        W76456  43.344  10.158  14.396
17020W        W76457  31.410  38.057   3.830
17021W        W76458  26.666  19.756   0.256
17022W        W76459  26.068   3.361   1.776
17023W        W76460  32.582  28.462   3.739
17024W        W76461  21.028  20.214   1.415
17025W        W76462  10.227  17.707  11.393
17026W        W76463   9.837   9.685  12.370
17027W        W76464   3.933  14.151   2.243
17028W        W76465  18.744  40.364  13.037
17029W        W76466  27.651  16.793   1.440
17030W        W76467  20.651  13.281   1.301
17031W        W76468  30.036  38.873   2.264
17032W        W76469  36.371  10.754   3.765
17033W        W76470  20.744  33.031  11.983
17034W        W76471  23.536  35.008   2.806
17035W        W76472  35.921  25.113  13.358
17036W        W76473  39.481  37.016  12.485
17037W        W76474   1.343  23.117  13.313
17038W        W76475  26.165   4.814  11.085
17039W        W76476  17.227   1.334   0.807
17040W        W76477  18.068  29.982   0.361
17041W        W76478   7.237  20.107  10.417
17042W        W76479  36.461  19.559  11.951
17043W        W76480  25.168   1.816  14.376
17044W        W76481  38.548  13.811  10.955
17045W        W76482  10.315  36.438   3.362
17046W        W76483  38.012  13.157  11.092
17047W        W76484   8.329   7.314  12.565
17048W        W76485  15.668  12.225   1.418
17049W        W76486   2.856  42.460  11.430
17050W        W76487  20.541   8.346   3.260
17051W        W76488  15.241   1.459  12.551
17052W        W76489  35.007   0.858  13.524
17053W        W76490   0.389  19.588   4.280
17054W        W76491   4.943  32.042   2.903
17055W        W76492  12.641  31.541   3.313
17056W        W76493   7.871   9.241   2.868
17057W        W76494  13.320  41.526   4.813
17058W        W76495  45.000   9.671   4.727
17059W        W76496   1.917  30.583  11.106
17060W        W76497  37.362  35.545  11.429
17061W        W76498   3.365  42.302   2.336
17062W        W76499  39.541   6.843   4.655
17063W        W76500   7.726  31.039   0.826
17064W        W76501  27.652  32.542  12.371
17065W        W76502  41.841  16.597  10.100
17066W        W76503  12.189  37.459  10.913
17067W        W76504   3.348  35.525   0.293
17068W        W76505  24.096  11.766  13.411
17069W        W76506  11.830  35.932   0.748
17070W        W76507  36.591  20.037   0.907
17071W        W76508  40.382  16.141   4.136
17072W        W76509  32.000  21.596   2.718
17073W        W76510  35.578   4.809   1.751
17074W        W76511  32.080  39.534   0.866
17075W        W76512  24.721  32.014  13.501
17076W        W76513  30.035  38.994   1.273
17077W        W76514  24.046  25.081   3.210
17078W        W76515  27.501  40.917  12.877
17079W        W76516  11.225  35.494   4.820
17080W        W76517  43.400   1.289   4.778
17081W        W76518  38.385  38.453  14.923
17082W        W76519   5.344  19.725  12.868
17083W        W76520  31.089  11.789   4.251
17084W        W76521  34.915  12.278   2.238
17085W        W76522  25.165  14.834  11.013
17086W        W76523  30.603   3.851  12.888
17087W        W76524   1.477  33.026   2.203
17088W        W76525  21.017  37.009  13.382
17089W        W76526  28.118  21.195  11.114
17090W        W76527  25.160   7.281   0.393
17091W        W76528  24.642  33.067   0.441
17092W        W76529  11.772  36.847  14.941
17093W        W76530  24.591   4.879   4.232
17094W        W76531  38.564   6.334  11.884
17095W        W76532  19.599   0.256  12.417
17096W        W76533  22.607  10.313  14.277
17097W        W76534   0.490   0.415  11.965
17098W        W76535  14.810  43.987  14.891
17099W        W76536   7.863  14.726  11.079
17100W        W76537  22.035  34.504  10.921
17101W        W76538  33.604  14.662  13.517
17102W        W76539  19.552  26.956   3.195
17103W        W76540   1.766   3.366  14.905
17104W        W76541  23.025  16.636  11.977
17105W        W76542  11.153   7.337   2.813
17106W        W76543  41.394  25.647   2.736
17107W        W76544  22.528  36.976  11.547
17108W        W76545  25.673  14.601  10.476
17109W        W76546  23.567  20.613   5.298
17110W        W76547   1.810   2.925   3.776
17111W        W76548  24.180   7.892   2.817
17112W        W76549  30.162  43.358  11.560
17113W        W76550   1.298  31.543  11.876
17114W        W76551  21.026  23.050   4.318
17115W        W76552  34.368  38.987  13.061
17116W        W76553   9.354   5.426  13.840
17117W        W76554  37.544  35.897  12.380
17118W        W76555  18.160  25.530   2.394
17119W        W76556  13.250  43.832   3.731
17120W        W76557  22.664  10.341  10.542
17121W        W76558   4.341  16.601   2.365
17122W        W76559  26.033   8.334   0.764
17123W        W76560  40.051  24.058   1.392
17124W        W76561  15.651   9.310   5.190
17125W        W76562  15.093  43.765  14.870
17126W        W76563  10.305  11.350   3.649
17127W        W76564  37.552  22.730   1.302
17128W        W76565  38.401   3.740   2.321
17129W        W76566  23.030  14.728   0.798
17130W        W76567   4.411  35.367  11.413
17131W        W76568  30.127  34.016  11.963
17132W        W76569  29.582  28.146   1.385
17133W        W76570  30.602   6.365   0.351
17134W        W76571   7.842  13.308   3.355
17135W        W76572  23.691  40.805  14.508
17136W        W76573   1.301   1.737  13.346
17137W        W76574  43.948  12.672  12.408
17138W        W76575  33.080  23.121  10.058
17139W        W76576  31.616  44.985   1.436
17140W        W76577  18.266   5.933  10.917
17141W        W76578  29.086  42.945   0.932
17142W        W76579  34.929  43.308   0.256
17143W        W76580  37.424  41.338   4.205
17144W        W76581  22.140  32.070   3.766
17145W        W76582  36.581   3.438   0.417
17146W        W76583   6.906  24.187   4.162
17147W        W76584  37.521  43.970  14.378
17148W        W76585  40.368   0.745  11.974
17149W        W76586  43.955  40.814   1.795
17150W        W76587  18.597  25.618   4.179
17151W        W76588  23.528  16.231  13.921
17152W        W76589  44.000  30.621   4.300
17153W        W76590  43.335  25.502  14.967
17154W        W76591   7.709  36.566  13.034
17155W        W76592   4.739  34.462  14.912
17156W        W76593  23.122  36.977   2.333
17157W        W76594  36.078  26.096   2.784
17158W        W76595   5.382  42.831  11.905
17159W        W76596   9.725  41.515  12.984
17160W        W76597  43.817  37.498  13.032
17161W        W76598  13.117   0.276  12.519
17162W        W76599  27.074  22.057  10.532
17163W        W76600  15.183  17.271  14.413
17164W        W76601  18.062  36.528  14.862
17165W        W76602  19.167  29.535   3.649
17166W        W76603  43.919  14.634  11.118
17167W        W76604  18.659  33.887   0.843
17168W        W76605  24.678   3.723  10.427
17169W        W76606  39.549  18.062   0.392
17170W        W76607  35.993   5.300   3.279
17171W        W76608   0.753  32.492   1.695
17172W        W76609  12.192  44.774   3.641
17173W        W76610  30.967  42.474   2.664
17174W        W76611  15.714  33.933   4.659
17175W        W76612   6.197  36.568  13.966
17176W        W76613  13.302   0.251   3.321
17177W        W76614  20.549  34.924   3.199
17178W        W76615   9.868   1.338  12.407
17179W        W76616  34.596  34.881   4.318
17180W        W76617  43.337  29.497  10.600
17181W        W76618  27.540  33.434   2.767
17182W        W76619   7.317  16.219   2.898
17183W        W76620  24.202  19.764   4.256
17184W        W76621  17.170  11.368  11.952
17185W        W76622  35.949  14.317  10.598
17186W        W76623  36.984   6.365  13.791
17187W        W76624  25.068  27.490  10.902
17188W        W76625  14.296  21.718  12.883
17189W        W76626  20.263   0.374   4.705
17190W        W76627  13.780  21.224  13.861
17191W        W76628   9.301   0.984  12.550
17192W        W76629  36.990  29.571   3.165
17193W        W76630  20.086  17.189   2.315
17194W        W76631   2.390  26.638  13.510
17195W        W76632  18.632  32.993  12.389
17196W        W76633  13.190  39.826  14.881
17197W        W76634  25.114  30.554   1.406
17198W        W76635  44.906   4.403   4.818
17199W        W76636  10.876  42.975  10.554
17200W        W76637  25.094  22.681  11.993
17201W        W76638  44.387  43.838  13.890
17202W        W76639  40.940  41.951   3.315
17203W        W76640  41.534   8.222   0.301
17204W        W76641   0.417  38.361  13.023
17205W        W76642  11.178  14.126   3.173
17206W        W76643   4.922  38.067  11.935
17207W        W76644  44.759  22.090   0.742
17208W        W76645  30.948  12.702  11.884
17209W        W76646   2.255   5.868  15.000
17210W        W76647  41.901  27.628  11.110
17211W        W76648   6.719  22.722  13.001
17212W        W76649   6.362  19.629   1.404
17213W        W76650   8.706  18.694   3.744
17214W        W76651  43.829  42.516  13.985
17215W        W76652   4.725  10.761   4.671
17216W        W76653  33.880  23.699   0.462
17217W        W76654   1.813  28.567   3.147
17218W        W76655  11.130  35.548   2.380
17219W        W76656   1.434  42.959  13.020
17220W        W76657  31.516  23.693  14.413
17221W        W76658  38.889  11.821  12.021
17222W        W76659  31.027   0.247  11.577
17223W        W76660  44.823  18.112  13.051
17224W        W76661  33.568  14.200  11.514
17225W        W76662  27.521  23.518   0.936
17226W        W76663  22.553  32.514  14.880
17227W        W76664  26.018  35.056  10.527
17228W        W76665  36.908  44.950   0.406
17229W        W76666  39.538  22.665   1.934
17230W        W76667  11.352   7.211  13.803
17231W        W76668  13.125   0.422   0.770
17232W        W76669  19.149  16.658   3.674
17233W        W76670  16.720  16.101   1.413
17234W        W76671   2.371   9.206   2.386
17235W        W76672  10.734  24.132   4.668
17236W        W76673  34.868   2.280   4.698
17237W        W76674  34.004  22.688  13.511
17238W        W76675  15.681   8.757  14.333
17239W        W76676  34.889  37.511   0.419
17240W        W76677  30.028   7.387   0.330
17241W        W76678  10.360   9.329   0.377
17242W        W76679   5.247  19.672   2.848
17243W        W76680  42.775  17.128   0.438
17244W        W76681  12.645  16.283  11.441
17245W        W76682  36.447  25.044   3.261
17246W        W76683  22.535  11.297   3.214
17247W        W76684  43.984  43.454  11.037
17248W        W76685  29.626  43.491   4.187
17249W        W76686   5.348  12.232  13.950
17250W        W76687   9.644  19.284   4.669
17251W        W76688  32.095  14.306   0.732
17252W        W76689  13.328  10.312   2.871
17253W        W76690   7.735   7.186  13.900
17254W        W76691   2.728  14.159  10.057
17255W        W76692  31.624  36.097   3.743
17256W        W76693  10.378  39.377  11.942
17257W        W76694   3.247   1.905  14.455
17258W        W76695   7.908  17.101   1.315
17259W        W76696  28.634  23.517   5.258
17260W        W76697   3.443  27.003   2.808
17261W        W76698  14.636  42.383  12.440
17262W        W76699   5.219  34.089  12.086
17263W        W76700  28.487  40.499  10.540
17264W        W76701  43.348  30.573   1.761
17265W        W76702  36.047  44.801   2.387
17266W        W76703  24.635  21.170   3.350
17267W        W76704  15.168   8.684  12.060
17268W        W76705  15.104  24.628   2.402
17269W        W76706  15.592   0.864  13.529
17270W        W76707  15.321   2.320   2.690
17271W        W76708  15.174  27.949   3.636
17272W        W76709  13.321  19.705   0.256
17273W        W76710  18.148   3.940  14.310
17274W        W76711  10.855  43.323  14.429
17275W        W76712  14.272  21.697  10.443
17276W        W76713  43.286  17.187   0.926
17277W        W76714   9.858  19.539   0.358
17278W        W76715  42.515  22.627  13.969
17279W        W76716  39.450   4.804  13.968
17280W        W76717  42.297   6.715  12.871
17281W        W76718  43.805  15.608  14.346
17282W        W76719   4.270  12.753  11.384
17283W        W76720   9.826  26.143  12.989
17284W        W76721  36.524   7.231  12.358
17285W        W76722  35.604   8.340   1.746
17286W        W76723  33.894   2.885   3.368
17287W        W76724  11.283  44.846  12.507
17288W        W76725  17.720  32.018   2.191
17289W        W76726  27.038   9.664  12.063
17290W        W76727  10.646  23.567   0.285
17291W        W76728  23.103  26.043   4.723
17292W        W76729  12.695  23.013  12.096
17293W        W76730  17.182  41.022  14.842
17294W        W76731   9.365  15.599  13.021
17295W        W76732  10.165  19.154   0.824
17296W        W76733  34.561  21.551   0.794
17297W        W76734  32.141  15.113  12.545
17298W        W76735  39.816  19.777   0.743
17299W        W76736  21.248  35.031  11.907
17300W        W76737  32.114  36.481   3.384
17301W        W76738  11.645  19.272   4.192
17302W        W76739  23.612  18.199   1.868
17303W        W76740  12.253  44.419  13.908
17304W        W76741   2.825  27.504   4.741
17305W        W76742  20.626  22.047   3.326
17306W        W76743  44.271  41.016   5.751
17307W        W76744  23.633  36.914   3.331
17308W        W76745   3.219  32.400  14.985
17309W        W76746  20.658  42.327  13.400
17310W        W76747  36.460  44.296  12.037
17311W        W76748  19.613  11.658   4.308
17312W        W76749   0.850  31.085   0.414
17313W        W76750  18.252   3.754   0.327
17314W        W76751   6.725  29.127  12.359
17315W        W76752  20.648   7.890   0.763
17316W        W76753  41.306  14.112   0.918
17317W        W76754  41.413  19.615  12.431
17318W        W76755  23.104   1.443   0.884
17319W        W76756   6.202   5.921  14.842
17320W        W76757  13.842   6.203   2.355
17321W        W76758   9.878  21.718   2.384
17322W        W76759  30.083   0.403   4.248
17323W        W76760  24.692  27.016  10.506
17324W        W76761  21.724  15.587  14.460
17325W        W76762   9.282  16.299  14.422
17326W        W76763  37.917   8.166   1.796
17327W        W76764  26.083  19.592   3.188
17328W        W76765   7.861  12.234   2.812
17329W        W76766  18.665   3.353  14.974
17330W        W76767  22.202  23.068  12.430
17331W        W76768  16.721  19.103   4.700
17332W        W76769  37.379   8.730  14.504
17333W        W76770  11.646   7.692   1.417
17334W        W76771   8.803   5.367   4.262
17335W        W76772  25.700  28.566  10.933
17336W        W76773  40.440  27.981  10.411
17337W        W76774   9.327   0.411   1.790
17338W        W76775   6.225  28.007   0.325
17339W        W76776   2.751  20.272  11.466
17340W        W76777  19.213  21.204  14.791
17341W        W76778  29.152   1.909  14.804
17342W        W76779  34.517  30.029   1.926
17343W        W76780  13.804  39.987   9.464
17344W        W76781  39.432  27.973   2.274
17345W        W76782   3.359  38.983  13.429
17346W        W76783  21.663  19.202   3.682
17347W        W76784  23.023  35.413   3.254
17348W        W76785  18.574  31.507   2.899
17349W        W76786  28.631  25.081   2.247
17350W        W76787  33.926   2.831   2.310
17351W        W76788  41.808  34.574   3.218
17352W        W76789  25.117  16.567  12.428
17353W        W76790  11.695  44.929   4.615
17354W        W76791  32.520  10.657   0.258
17355W        W76792  34.551  20.596  10.602
17356W        W76793  27.448  19.738  14.501
17357W        W76794   2.463  40.016  10.977
17358W        W76795   1.313  21.087   4.783
17359W        W76796   1.377  37.836  11.976
17360W        W76797  28.975   4.348  12.885
17361W        W76798  19.538  15.111   1.861
17362W        W76799  12.224  33.950   2.305
17363W        W76800  21.136  42.316  12.350
17364W        W76801  30.082  16.144   0.257
17365W        W76802  44.437  15.091  12.965
17366W        W76803  13.190  19.146  14.491
17367W        W76804  11.348  17.139  14.825
17368W        W76805  26.956  32.521  12.340
17369W        W76806  13.738  10.710  14.024
17370W        W76807   7.757   4.940  11.009
17371W        W76808  39.015  13.131   0.929
17372W        W76809   0.294  26.481  14.921
17373W        W76810  34.399  41.395   3.648
17374W        W76811  27.983  34.484  14.430
17375W        W76812  25.678  19.163   4.209
17376W        W76813  23.140  37.577   3.252
17377W        W76814  23.619  30.542  11.003
17378W        W76815  23.650  23.007  14.977
17379W        W76816  26.958   1.933   4.668
17380W        W76817  11.208  43.337  14.274
17381W        W76818  40.316  28.490   0.294
17382W        W76819  30.972  38.325   1.449
17383W        W76820  43.985  40.839   9.923
17384W        W76821  25.668  12.644  10.639
17385W        W76822  40.045  30.438   2.307
17386W        W76823  31.090  26.549  11.038
17387W        W76824   7.335   2.797   0.482
17388W        W76825  14.215  26.136   4.148
17389W        W76826  39.064  28.508   0.406
17390W        W76827  10.330  42.325   3.846
17391W        W76828  14.155  38.344   1.696
17392W        W76829  14.316  41.024   3.188
17393W        W76830   9.888   2.260   1.801
17394W        W76831   7.289   7.240   3.717
17395W        W76832  10.823  27.098  13.324
17396W        W76833   4.884   9.240  13.930
17397W        W76834  36.857  34.878   4.726
17398W        W76835  24.084  44.411  11.452
17399W        W76836  13.247  27.163   2.246
17400W        W76837  38.346  39.893  14.800
17401W        W76838  43.476  28.042  11.587
17402W        W76839   6.848  10.660   4.228
17403W        W76840  18.657  17.107   2.888
17404W        W76841  22.054  27.504  13.981
17405W        W76842   7.875  11.326  13.327
17406W        W76843  32.445  15.209  12.834
17407W        W76844  42.452  42.409  14.007
17408W        W76845   6.301  34.078  11.971
17409W        W76846  10.274  12.716  14.895
17410W        W76847  41.901  13.175   5.180
17411W        W76848  35.396  30.153  14.828
17412W        W76849   2.370  22.194   2.671
17413W        W76850  18.601  14.629   4.767
17414W        W76851   2.937   8.712  12.856
17415W        W76852  15.684  32.420   3.814
17416W        W76853  41.300  13.260   1.334
17417W        W76854   4.848  14.818  13.832
17418W        W76855   3.906  35.406   3.774
17419W        W76856  33.433  16.699   0.253
17420W        W76857   9.750  26.583   0.958
17421W        W76858  32.002  44.930   0.754
17422W        W76859  37.071   8.279  11.881
17423W        W76860  21.023  27.092  14.340
17424W        W76861  29.557  18.179   0.832
17425W        W76862  44.293  17.129  13.443
17426W        W76863   5.223  15.812  10.580
17427W        W76864  22.732  24.623  13.339
17428W        W76865  13.210   4.834   9.945
17429W        W76866   8.761  43.381  14.462
17430W        W76867  14.825  23.682   0.445
17431W        W76868  20.532  32.562   3.798
17432W        W76869  15.288   1.293   3.668
17433W        W76870  36.930  40.816  12.410
17434W        W76871  13.837   5.747   1.703
17435W        W76872  18.569  19.667  10.043
17436W        W76873  18.558  16.789  14.880
17437W        W76874  35.855  36.984  13.899
17438W        W76875  34.997  44.992  10.426
17439W        W76876   1.449  36.538   0.779
17440W        W76877  25.691  40.316  14.325
17441W        W76878  36.967  20.653   4.625
17442W        W76879   8.845  33.576   0.303
17443W        W76880  42.479  17.168   3.290
17444W        W76881   0.255   2.738  12.879
17445W        W76882  36.969  31.587   1.290
17446W        W76883  16.699  44.283  14.451
17447W        W76884  12.326  15.234  12.926
17448W        W76885  29.538  22.104   0.886
17449W        W76886  28.620  39.428  10.512
17450W        W76887  34.890  44.328   5.092
17451W        W76888  14.298  43.509   0.963
17452W        W76889  42.859  32.889   3.818
17453W        W76890  35.087  11.790  13.313
17454W        W76891  40.822  30.125  10.435
17455W        W76892  10.273   0.390  10.608
17456W        W76893   2.847  30.987  14.296
17457W        W76894  22.680  25.992  11.987
17458W        W76895   9.312  13.743  14.286
17459W        W76896  17.688  13.203   2.199
17460W        W76897  17.200   3.712   1.706
17461W        W76898  23.628  15.771  12.564
17462W        W76899   9.843  27.978   1.896
17463W        W76900  42.904  23.533  11.489
17464W        W76901  29.638  40.992  12.062
17465W        W76902  20.636   0.758   4.234
17466W        W76903  27.173  17.580   4.673
17467W        W76904  20.645   3.814   0.863
17468W        W76905  12.824  24.644   4.181
17469W        W76906  11.201   1.439   2.378
17470W        W76907  26.185  17.773  12.400
17471W        W76908  30.534   3.300  14.511
17472W        W76909  26.473  15.656  10.033
17473W        W76910  27.091  15.142   4.237
17474W        W76911  39.422  21.754   4.644
17475W        W76912  30.534  12.762   2.735
17476W        W76913  21.564  30.137  14.387
17477W        W76914   7.299  13.816   1.448
17478W        W76915  34.975  39.877  14.761
17479W        W76916  10.320  43.934   3.230
17480W        W76917   8.283   3.269   2.194
17481W        W76918   5.234  44.763  13.539
17482W        W76919   0.762  39.910   0.421
17483W        W76920  21.617  18.571  10.631
17484W        W76921  43.011  36.462   2.851
17485W        W76922  25.178   4.819  14.431
17486W        W76923   2.342  32.544   0.319
17487W        W76924  36.421  30.527   2.829
17488W        W76925   3.787   8.658   2.235
17489W        W76926   5.909  28.980  10.537
17490W        W76927  20.036  23.987  12.385
17491W        W76928  24.118   8.824  13.876
17492W        W76929  24.161  39.811  12.936
17493W        W76930   6.295  39.870   3.260
17494W        W76931  34.918  39.334   0.869
17495W        W76932  27.633   5.719   3.176
17496W        W76933  35.100  36.897  12.077
17497W        W76934  34.496  28.065   4.609
17498W        W76935   0.865   0.276   2.266
17499W        W76936  31.070  38.915   3.197
17500W        W76937   5.231  17.243   3.665
17501W        W76938  42.915  27.512  11.581
17502W        W76939  14.140  19.550   4.212
17503W        W76940  18.273  14.254   5.643
17504W        W76941  25.514  34.562  11.978
17505W        W76942  13.260  40.974  12.894
17506W        W76943  11.235  29.573  11.380
17507W        W76944  13.622   2.459  14.427
17508W        W76945   8.278  29.515   2.217
17509W        W76946  22.019  31.465  14.954
17510W        W76947   0.414  12.633   3.207
17511W        W76948  22.506   2.741   0.919
17512W        W76949  31.432   6.231   2.839
17513W        W76950  38.918  26.100   0.954
17514W        W76951  44.900  42.949   4.774
17515W        W76952  16.190  39.400   0.278
17516W        W76953  12.799  19.195  13.855
17517W        W76954  32.915  15.116   4.204
17518W        W76955  28.102  20.192  13.410
17519W        W76956  27.489  10.782  11.033
17520W        W76957  12.856  13.709  10.570
17521W        W76958  32.597  31.593   4.242
17522W        W76959  31.978   4.873  13.959
17523W        W76960  29.951  37.401   2.398
17524W        W76961  35.953  27.008   2.310
17525W        W76962  21.630   7.243   3.216
17526W        W76963  27.018  15.161  10.544
17527W        W76964  41.940  34.513   0.817
17528W        W76965   6.372  38.975   2.316
17529W        W76966  14.834   6.718  13.934
17530W        W76967  24.618  13.753  10.979
17531W        W76968  33.385   0.905  13.916
17532W        W76969  26.194  24.657   3.209
17533W        W76970  41.398  36.083  14.302
17534W        W76971  22.109   8.771  10.907
17535W        W76972   2.800  23.675   2.373
17536W        W76973  10.199  33.103   1.439
17537W        W76974  44.866  40.329   3.732
17538W        W76975  30.496  12.137   3.870
17539W        W76976  26.466  18.238   1.734
17540W        W76977  13.259  30.527  10.590
17541W        W76978  41.432  43.282  12.530
17542W        W76979  13.261   7.356  13.054
17543W        W76980  39.368  37.889  11.941
17544W        W76981  18.689  41.531   1.699
17545W        W76982   2.930  39.440  10.622
17546W        W76983  40.542  32.921   2.839
17547W        W76984  14.723  33.598  13.886
17548W        W76985   5.818  16.591  13.377
17549W        W76986  20.194  29.978  13.479
17550W        W76987  42.816  26.696  11.095
17551W        W76988  28.642  42.922   0.820
17552W        W76989  40.006  22.160   0.967
17553W        W76990  24.615  18.188  13.490
17554W        W76991  36.901  23.075  10.959
17555W        W76992  31.462  13.332   4.619
17556W        W76993  39.511  13.786  12.376
17557W        W76994  19.769  43.359  12.942
17558W        W76995   1.955  20.535   4.284
17559W        W76996  29.985   8.288   1.847
17560W        W76997  35.908  20.716  14.819
17561W        W76998  21.153  24.590  13.010
17562W        W76999  44.978  14.106   2.894
17563W        W77000  21.669  21.031  11.896
17564W        W77001  25.576   8.727  11.004
17565W        W77002  44.340  21.118  12.515
17566W        W77003  37.029  43.291   4.135
17567W        W77004  29.158  20.753   1.838
17568W        W77005  40.517  37.500  12.981
17569W        W77006  33.968  25.992   4.771
17570W        W77007   8.729  30.546  14.763
17571W        W77008  19.646  15.602   3.249
17572W        W77009  22.722  14.739   3.682
17573W        W77010  25.612  15.237   3.757
17574W        W77011  19.119  18.197  10.969
17575W        W77012   8.223  25.197  12.917
17576W        W77013  21.639  37.895   4.250
17577W        W77014  27.575  32.930  12.823
17578W        W77015  12.330  16.192  12.006
17579W        W77016  25.102  42.363  13.311
17580W        W77017  38.375  41.295   3.198
17581W        W77018  27.577  22.573  10.088
17582W        W77019   4.346  27.581   9.932
17583W        W77020  18.550  39.543  11.001
17584W        W77021   8.675  16.593  12.500
17585W        W77022  34.591   2.335  11.988
17586W        W77023  29.646   6.695   3.658
17587W        W77024  18.629  33.457  14.462
17588W        W77025  35.564  39.412   3.246
17589W        W77026  18.585   0.297  10.969
17590W        W77027  23.735  18.161   2.881
17591W        W77028  13.599   4.710   3.322
17592W        W77029  34.506  40.383  12.097
17593W        W77030   9.817   3.860  11.065
17594W        W77031   4.734  43.876  10.962
17595W        W77032  35.968  39.925  11.594
17596W        W77033  12.784   6.683   1.286
17597W        W77034  19.064  37.548   0.944
17598W        W77035  13.791   5.326   1.233
17599W        W77036  14.749  41.464  13.811
17600W        W77037  11.865   4.288  10.495
17601W        W77038  24.662  13.688   1.318
17602W        W77039  44.907  39.969  11.373
17603W        W77040  41.929  12.207   2.747
17604W        W77041  13.814  33.934   1.897
17605W        W77042   0.812  10.306   2.268
17606W        W77043   1.971  18.123   0.734
17607W        W77044  10.659  40.809  13.976
17608W        W77045  17.572  23.665  11.892
17609W        W77046  10.788   5.718  10.588
17610W        W77047  40.320  26.138   2.287
17611W        W77048   1.944  18.228  10.600
17612W        W77049  15.696  26.615  14.402
17613W        W77050   1.314   0.954  10.584
17614W        W77051  15.694  41.509   1.794
17615W        W77052  16.763   8.866  12.578
17616W        W77053   3.871  43.970   3.218
17617W        W77054  35.897  37.358   3.356
17618W        W77055  40.322   9.168   0.297
17619W        W77056   6.786   1.409   0.393
17620W        W77057  34.586  28.112   4.130
17621W        W77058   4.817   7.406  12.855
17622W        W77059  18.588  43.340   4.201
17623W        W77060  20.597  36.031   3.285
17624W        W77061  30.991  28.140   1.825
17625W        W77062  29.482  10.811  13.999
17626W        W77063  12.165   5.319   4.631
17627W        W77064  23.572  36.456   2.684
17628W        W77065  19.148   0.425   0.733
17629W        W77066  25.019  38.930  11.471
17630W        W77067  32.081  20.217   4.247
17631W        W77068  10.195  10.711   2.278
17632W        W77069  27.586  34.914   2.818
17633W        W77070  43.372  11.662  11.501
17634W        W77071  44.269  30.117   0.316
17635W        W77072  40.816  17.267  11.953
17636W        W77073  39.956   7.408   0.418
17637W        W77074  19.711   0.756   2.827
17638W        W77075   4.913  13.769   2.360
17639W        W77076  27.975  22.585  13.830
17640W        W77077   3.355  14.804   1.738
17641W        W77078   1.253  41.956   3.726
17642W        W77079   9.277  35.549  13.837
17643W        W77080  21.130  35.572   4.629
17644W        W77081  13.248  41.901   0.384
17645W        W77082  21.044  28.139  13.454
17646W        W77083   6.908  44.350   3.685
17647W        W77084  22.145  22.178  13.393
17648W        W77085   9.794  37.403   0.784
17649W        W77086  31.630  35.991   0.810
17650W        W77087  30.049  13.693   2.837
17651W        W77088   5.309   0.487  11.518
17652W        W77089   5.794  31.643   3.825
17653W        W77090  13.695   1.735  13.043
17654W        W77091  30.069  18.262  12.910
17655W        W77092  29.000   3.925   1.330
17656W        W77093  30.529  38.529   1.925
17657W        W77094   0.851  41.842   1.719
17658W        W77095   7.310  17.628   0.359
17659W        W77096  29.100  22.707   9.942
17660W        W77097  43.953   4.768  12.038
17661W        W77098  26.029  11.288  10.917
17662W        W77099   1.352   7.890   0.364
17663W        W77100  13.133  37.381  13.028
17664W        W77101  35.401  39.986  13.916
17665W        W77102  14.305  35.968  10.603
17666W        W77103   6.197  37.463  14.353
17667W        W77104  34.120  29.652  13.491
17668W        W77105  24.654  30.117  12.083
17669W        W77106  14.169  44.935  12.876
17670W        W77107  42.987  41.499  13.486
17671W        W77108  35.553  14.336   2.271
17672W        W77109   7.279  12.760  10.909
17673W        W77110   5.845  24.693   1.699
17674W        W77111   7.903   1.795   3.731
17675W        W77112  20.074   6.792   4.321
17676W        W77113  34.430  23.491   3.366
17677W        W77114  27.086  23.639   3.689
17678W        W77115  26.078   4.828  11.438
17679W        W77116  17.595   8.876  11.996
17680W        W77117  22.676  26.521  10.093
17681W        W77118   5.898  30.621   1.211
17682W        W77119   3.805   2.824  12.574
17683W        W77120   7.333  44.822   4.278
17684W        W77121  29.136  11.330  11.519
17685W        W77122  24.499  32.122   4.742
17686W        W77123  34.550  11.709   4.157
17687W        W77124  18.204  19.158  12.514
17688W        W77125   4.910  22.140  10.494
17689W        W77126   2.281  40.890   0.833
17690W        W77127  15.152  24.614  14.845
17691W        W77128  44.403  23.030  14.907
17692W        W77129  13.200   2.399  12.912
17693W        W77130  36.455  43.272  10.938
17694W        W77131  37.356  29.054   4.239
17695W        W77132   7.390  38.847  11.578
17696W        W77133  21.729  10.784   0.468
17697W        W77134   6.289  39.995   2.316
17698W        W77135  26.965  24.628   1.817
17699W        W77136   4.800   4.773  12.063
17700W        W77137  43.457   6.283  11.961
17701W        W77138  16.211  16.088  14.023
17702W        W77139  19.144  17.226   2.232
17703W        W77140  27.448  16.631   0.262
17704W        W77141  20.664  28.500  13.821
17705W        W77142  23.690  10.215  14.324
17706W        W77143  43.827  41.991   0.852
17707W        W77144  40.432  19.278   4.615
17708W        W77145  29.996  35.057  11.976
17709W        W77146  23.661  11.687   2.380
17710W        W77147  31.923   8.382   3.735
17711W        W77148  23.205   9.671   0.965
17712W        W77149   6.893  44.901  11.463
17713W        W77150  14.094  20.073   5.253
17714W        W77151   3.716  40.394  10.503
17715W        W77152  37.884   0.801   2.668
17716W        W77153  18.600   9.696   1.266
17717W        W77154   4.323  39.453  12.947
17718W        W77155  15.801   2.920   3.658
17719W        W77156  38.927  36.019  13.919
17720W        W77157  16.660   9.702  10.622
17721W        W77158  26.079   1.915   1.766
17722W        W77159  31.553   8.870  12.373
17723W        W77160  24.110  23.126   2.384
17724W        W77161   6.736  38.978   0.302
17725W        W77162  28.086  44.496  10.019
17726W        W77163  24.722   4.431  14.293
17727W        W77164  44.812   3.298  13.540
17728W        W77165  14.128  44.496   1.229
17729W        W77166  40.401  20.702  14.378
17730W        W77167  21.082  23.656   4.292
17731W        W77168  29.974  15.186   0.439
17732W        W77169  15.255  13.120   1.881
17733W        W77170  26.010  28.091   4.228
17734W        W77171  23.104  13.149  13.418
17735W        W77172  34.008  21.172  14.025
17736W        W77173   9.266  38.434  11.482
17737W        W77174  22.178  28.551  13.890
17738W        W77175  14.749  39.317  14.277
17739W        W77176  22.142   2.393   0.414
17740W        W77177  17.695  21.637  12.380
17741W        W77178  35.909  29.109  11.612
17742W        W77179  15.317   0.928   2.869
17743W        W77180  20.531  43.823  14.980
17744W        W77181  40.389  13.689   0.851
17745W        W77182  14.300   6.229   4.184
17746W        W77183  14.293  23.160   1.780
17747W        W77184  43.931   9.784  11.093
17748W        W77185  17.267  41.463   4.332
17749W        W77186  15.607  33.001   4.182
17750W        W77187  29.644   2.276  11.975
17751W        W77188  18.665   6.319  14.786
17752W        W77189   4.286  43.489   1.314
17753W        W77190  44.352  35.941  11.955
17754W        W77191  43.001  31.057   0.245
17755W        W77192  14.833  26.068   2.794
17756W        W77193  12.239   4.921   0.255
17757W        W77194   3.321  32.909   3.158
17758W        W77195   1.770  42.464   2.736
17759W        W77196  29.500  20.268   4.229
17760W        W77197  28.953  15.718   0.909
17761W        W77198   9.869  23.150   3.146
17762W        W77199  13.727  38.950   0.807
17763W        W77200  25.071  13.801  11.014
17764W        W77201  31.143  27.953  12.919
17765W        W77202  24.180  31.523   4.348
17766W        W77203  20.762  41.960  11.486
17767W        W77204   8.895   7.342  13.950
17768W        W77205  10.666  37.529   0.943
17769W        W77206  30.419  19.674  13.007
17770W        W77207  24.574  39.409   2.806
17771W        W77208  14.144  21.177  10.530
17772W        W77209  20.062  35.067  12.913
17773W        W77210  42.471  30.910   4.748
17774W        W77211   9.322   7.695   0.429
17775W        W77212   4.767  17.183   1.345
17776W        W77213  16.681  13.124   4.671
17777W        W77214  40.005   5.811  11.376
17778W        W77215  13.842   6.742  11.404
17779W        W77216   3.834  32.077  14.980
17780W        W77217  23.993  41.326   1.232
17781W        W77218  28.457  34.942  12.071
17782W        W77219  38.867  18.732   4.816
17783W        W77220  32.917  38.383   2.335
17784W        W77221   4.285  44.910  14.402
17785W        W77222  26.604  24.038  12.036
17786W        W77223  14.328  17.558   1.706
17787W        W77224  43.309   4.888   1.754
17788W        W77225   4.446  44.376   1.387
17789W        W77226   5.764  15.794   1.290
17790W        W77227  37.420  22.522  12.046
17791W        W77228  10.732  40.537   3.794
17792W        W77229  16.180  39.447   2.729
17793W        W77230  35.502   6.266   3.860
17794W        W77231  25.217  34.466   3.792
17795W        W77232  40.028   3.939  12.897
17796W        W77233  34.952   9.784   0.802
17797W        W77234  41.408  43.303   4.175
17798W        W77235  22.199  36.842   1.267
17799W        W77236  19.740  27.451  14.282
17800W        W77237  25.523   8.373   2.761
17801W        W77238  15.782  25.047   4.746
17802W        W77239   6.278  35.505   0.779
17803W        W77240   0.981   8.365   1.327
17804W        W77241  38.924  39.980  12.386
17805W        W77242  26.622  40.352  13.825
17806W        W77243  28.553  29.608   1.446
17807W        W77244  15.162  41.316  14.991
17808W        W77245  33.073  27.616  12.072
17809W        W77246   1.347  25.516  14.968
17810W        W77247   6.365  43.437   4.729
17811W        W77248   6.733  22.158   0.329
17812W        W77249  11.270  23.057  11.603
17813W        W77250   4.919  43.503  11.448
17814W        W77251  43.989   8.391  10.897
17815W        W77252  32.996  44.802   1.370
17816W        W77253  22.059  11.328  13.492
17817W        W77254  31.565  33.073   3.323
17818W        W77255   5.222  38.367   4.301
17819W        W77256   4.259  44.754   3.262
17820W        W77257  20.629  29.025  10.598
17821W        W77258  22.610  11.701   1.905
17822W        W77259  21.032  20.164  14.002
17823W        W77260  44.461  11.782  10.560
17824W        W77261  38.881   4.801   1.236
17825W        W77262  34.479  29.148   0.786
17826W        W77263  30.480  22.098  14.935
17827W        W77264  39.431  41.318  12.491
17828W        W77265  43.910   5.294  11.982
17829W        W77266  33.470  25.085   0.337
17830W        W77267   6.852  40.912   2.400
17831W        W77268  43.006   6.206  12.374
17832W        W77269  27.604  40.505  10.470
17833W        W77270  37.964  27.980   3.292
17834W        W77271  19.233  39.511   0.414
17835W        W77272  17.203   3.889  11.539
17836W        W77273  23.122   0.811  10.418
17837W        W77274  36.917  32.560   2.705
17838W        W77275  27.597  40.839   4.231
17839W        W77276  23.614  22.037   2.754
17840W        W77277  12.163  22.158   1.898
17841W        W77278  36.080  33.098  12.879
17842W        W77279  10.657  32.090  14.848
17843W        W77280  33.420  20.768  10.606
17844W        W77281  37.471   6.346  13.052
17845W        W77282   1.453  24.520   0.277
17846W        W77283   5.850  37.511   1.320
17847W        W77284   9.647   4.699  13.800
17848W        W77285  38.482  32.099   1.396
17849W        W77286  21.530  44.789  12.935
17850W        W77287  18.162  25.653  14.473
17851W        W77288  42.889  14.661  14.397
17852W        W77289  19.088  33.039  11.106
17853W        W77290  17.795  11.365  11.936
17854W        W77291   1.425   9.755  13.320
17855W        W77292  20.642  29.571   2.835
17856W        W77293  14.780  33.407   1.765
17857W        W77294  26.586  10.291   4.344
17858W        W77295  33.023  42.478   4.760
17859W        W77296  10.154  35.556   4.305
17860W        W77297  20.660  31.500   4.644
17861W        W77298  44.303  13.831   2.227
17862W        W77299  29.146  33.522  12.350
17863W        W77300  17.567   8.236   4.646
17864W        W77301  21.026  41.893  10.449
17865W        W77302  43.283  12.713  12.477
17866W        W77303  18.742  44.480   4.799
17867W        W77304  14.654  17.152   4.251
17868W        W77305  12.769   4.226   2.196
17869W        W77306  23.127  20.180  12.060
17870W        W77307  42.981   1.904  13.885
17871W        W77308  18.074  11.625   4.248
17872W        W77309  43.014  32.448   4.230
17873W        W77310  28.063  26.641  13.871
17874W        W77311  36.096  28.661   0.310
17875W        W77312  29.580   6.335   0.409
17876W        W77313  36.843   5.818  11.061
17877W        W77314  39.869   8.813  11.972
17878W        W77315   1.909  30.623   2.716
17879W        W77316  40.344  25.978   1.410
17880W        W77317  38.861  16.644  13.852
17881W        W77318  20.745   9.218  10.589
17882W        W77319  14.287  11.255   1.448
17883W        W77320  12.312  41.411  12.946
17884W        W77321  31.922  32.565   3.260
17885W        W77322  20.170   0.852   0.392
17886W        W77323  21.547  18.082   3.670
17887W        W77324  29.026  41.857   4.201
17888W        W77325   8.276   6.419  14.963
17889W        W77326  10.327   6.315  14.837
17890W        W77327  10.199   5.278   2.878
17891W        W77328  21.596  31.125  13.954
17892W        W77329  16.103  18.630  13.800
17893W        W77330  43.783  28.997   4.685
17894W        W77331  30.509  29.587  12.052
17895W        W77332  11.787  22.017   4.131
17896W        W77333  30.969  24.712   0.259
17897W        W77334  40.386  40.452   3.170
17898W        W77335  23.094  16.238  10.929
17899W        W77336  29.582  30.966  13.868
17900W        W77337  23.610  30.595   3.282
17901W        W77338  28.988   9.164   0.336
17902W        W77339  29.147  31.067   1.243
17903W        W77340  13.707  18.713  11.485
17904W        W77341  32.634  10.314   1.817
17905W        W77342  15.254  20.071   1.881
17906W        W77343  19.648  43.890   2.332
17907W        W77344  24.043  22.166   3.349
17908W        W77345   3.274  12.833  14.914
17909W        W77346   6.290  10.642  12.519
17910W        W77347  11.320   0.256  11.888
17911W        W77348   5.831  15.718   4.121
17912W        W77349  24.548  10.218   1.708
17913W        W77350  40.364  23.648   2.241
17914W        W77351  26.532  21.205  11.942
17915W        W77352  32.530  17.796  11.070
17916W        W77353   3.321   0.929   4.646
17917W        W77354  35.911   9.177  13.407
17918W        W77355   7.197  41.468   3.731
17919W        W77356   7.712  23.649  10.498
17920W        W77357  20.640  17.784   1.395
17921W        W77358  21.700  15.594  10.465
17922W        W77359  42.824  22.726   3.778
17923W        W77360  38.373  36.954  12.391
17924W        W77361  17.789   4.350   0.793
17925W        W77362  15.701  24.656   3.634
17926W        W77363  29.616  33.930   4.223
17927W        W77364  14.230  11.731   3.367
17928W        W77365   3.877   3.796   3.788
17929W        W77366  43.918  33.563  13.388
17930W        W77367  12.846   8.381   3.296
17931W        W77368  10.766  21.737  14.404
17932W        W77369  19.745  11.688  14.405
17933W        W77370  31.461  16.773  11.987
17934W        W77371   3.215   4.267  10.554
17935W        W77372  22.172  12.327   0.778
17936W        W77373  23.028  15.259   1.237
17937W        W77374  11.217   4.849  10.894
17938W        W77375  32.576   4.894  10.429
17939W        W77376  39.471  18.146   0.845
17940W        W77377  37.398  24.520  14.361
17941W        W77378  44.471  14.285   4.182
17942W        W77379  34.448   6.297   4.219
17943W        W77380  26.098  24.587  11.483
17944W        W77381  28.021   1.958   0.367
17945W        W77382  24.563  28.435  13.322
17946W        W77383   3.733  36.037   0.864
17947W        W77384  30.076  33.593  11.397
17948W        W77385  37.522  42.337  14.374
17949W        W77386   5.430  22.639  13.802
17950W        W77387  10.650  41.446   2.682
17951W        W77388  40.394  42.483   0.888
17952W        W77389  38.393  17.142  10.424
17953W        W77390   8.226  16.773   2.827
17954W        W77391  20.566  11.128   4.183
17955W        W77392   3.953  43.316  14.905
17956W        W77393   2.839  27.945  10.910
17957W        W77394  25.058   3.836  12.093
17958W        W77395  41.426  32.891  10.532
17959W        W77396  24.114  20.172  13.456
17960W        W77397  42.018  42.902  10.513
17961W        W77398  22.677  34.073  13.530
17962W        W77399  11.777  44.360   0.449
17963W        W77400  33.973  13.339   0.359
17964W        W77401  30.641  19.203  12.030
17965W        W77402  34.569  38.933   2.308
17966W        W77403   3.768   8.831  10.020
17967W        W77404  31.975  21.657  12.398
17968W        W77405   3.259  25.127   4.322
17969W        W77406  23.106  30.129   2.741
17970W        W77407  20.273  38.397  10.550
17971W        W77408  30.150  41.039  10.986
17972W        W77409  25.090  24.087  11.941
17973W        W77410  17.678  26.023   2.686
17974W        W77411  40.532  43.271  11.861
17975W        W77412  33.085   4.886  13.982
17976W        W77413  25.534   9.305  10.940
17977W        W77414   9.866  28.573  14.282
17978W        W77415  41.923  44.394   3.213
17979W        W77416  24.078  22.519   1.704
17980W        W77417  22.633  17.673  14.758
17981W        W77418  40.996  26.540   1.234
17982W        W77419  39.363  13.828  10.931
17983W        W77420  27.595  11.775   2.786
17984W        W77421  16.201  36.047  14.326
17985W        W77422  12.649  10.816   4.243
17986W        W77423  20.211  23.240   4.612
17987W        W77424  38.986  13.754   1.892
17988W        W77425  30.618   7.887  11.890
17989W        W77426  34.055  25.679  11.582
17990W        W77427   0.852  38.499  12.961
17991W        W77428  27.150   8.204   1.926
17992W        W77429  30.032  34.442   2.329
17993W        W77430  22.618   4.309  11.578
17994W        W77431  23.226  30.085   4.313
17995W        W77432  33.532  31.089   0.378
17996W        W77433  23.513   6.279  12.086
17997W        W77434   4.376  10.865  10.954
17998W        W77435  42.930  12.810   4.668
17999W        W77436  21.244  35.962   3.297
18000W        W77437  10.786   5.854   2.365
18001W        W77438  19.115   9.718  13.030
18002W        W77439  25.611  13.806   3.717
18003W        W77440  23.174   3.214  14.997
18004W        W77441  14.765  32.586   2.742
18005W        W77442   8.373  11.737   2.398
18006W        W77443   8.785  23.156   0.323
18007W        W77444  18.562  17.076   3.179
18008W        W77445  16.750  22.638  10.623
18009W        W77446  42.962  11.816  13.052
18010W        W77447   4.748  42.944   5.122
18011W        W77448  42.986  30.596  12.359
18012W        W77449  30.507  13.195   2.260
18013W        W77450  31.613  30.584   2.704
18014W        W77451  29.602  15.128  12.505
18015W        W77452  17.575  14.658  11.099
18016W        W77453  31.096   5.874   3.677
18017W        W77454  14.784  30.112   2.185
18018W        W77455   5.830  23.689   1.892
18019W        W77456  14.628  11.749  14.934
18020W        W77457  15.233  34.570  12.938
18021W        W77458   5.751  39.916   0.435
18022W        W77459  43.866   7.311   2.227
18023W        W77460  37.941   5.419  14.801
18024W        W77461   8.404  39.943   2.267
18025W        W77462  44.942  38.879   3.254
18026W        W77463  38.345  19.640   1.393
18027W        W77464  11.645  40.924   0.869
18028W        W77465  26.477  12.717  12.006
18029W        W77466  18.062  41.314   4.281
18030W        W77467  34.098  40.425  10.998
18031W        W77468  28.969  44.928   2.208
18032W        W77469  21.681  16.084   2.227
18033W        W77470  12.137  33.625  10.406
18034W        W77471  35.395  23.495  11.541
18035W        W77472  38.539   0.807  14.279
18036W        W77473  11.763  13.215   3.333
18037W        W77474  33.512  27.193  13.451
18038W        W77475   3.827   1.923  11.397
18039W        W77476   9.765  13.696  13.360
18040W        W77477  16.773  41.460  14.303
18041W        W77478  25.713  31.932   0.389
18042W        W77479  35.914  40.870   3.649
18043W        W77480   7.259  44.994  10.599
18044W        W77481   4.716  38.949   0.949
18045W        W77482  35.449   0.288  13.413
18046W        W77483  39.430  29.919  12.387
18047W        W77484  19.055  35.908  12.969
18048W        W77485  40.889  34.449  10.533
18049W        W77486  28.980   5.841  12.372
18050W        W77487   3.797   5.728   0.873
18051W        W77488  39.859  25.026  14.809
18052W        W77489  21.516   9.752   1.380
18053W        W77490  42.294   9.276  12.392
18054W        W77491  39.485  12.116   1.369
18055W        W77492  25.601   7.801   4.614
18056W        W77493  44.280  43.312  12.509
18057W        W77494   3.761  39.922   1.870
18058W        W77495  26.481  11.667   0.846
18059W        W77496   8.171  12.764   0.403
18060W        W77497   9.257  31.924   0.727
18061W        W77498  10.834  16.583  12.093
18062W        W77499  30.155   2.843   4.803
18063W        W77500   2.912  42.295   4.264
18064W        W77501  22.668  23.570   3.232
18065W        W77502  41.493   7.772  10.509
18066W        W77503  22.689  12.831  14.029
18067W        W77504  24.197  33.047   0.937
18068W        W77505   6.351  38.364  12.548
18069W        W77506  35.427  44.345   3.855
18070W        W77507  41.446  28.436   1.292
18071W        W77508  10.189  41.496   3.363
18072W        W77509   3.939   4.223   4.128
18073W        W77510  27.173  11.744   3.729
18074W        W77511  20.570  12.139  10.641
18075W        W77512  42.415   6.358  14.413
18076W        W77513  29.560  34.603   4.321
18077W        W77514  33.487   2.961  12.457
18078W        W77515  40.827  15.702  10.447
18079W        W77516  12.828  39.532   2.820
18080W        W77517  28.002   5.321  12.874
18081W        W77518  24.201  37.876   5.714
18082W        W77519  39.508  22.077   4.739
18083W        W77520  38.474  44.363   1.934
18084W        W77521  40.010  37.504   1.248
18085W        W77522   1.384  23.049   4.269
18086W        W77523   3.940   3.282  10.963
18087W        W77524  40.010  39.417  10.581
18088W        W77525   9.757  29.101  11.581
18089W        W77526  21.076  24.696   4.259
18090W        W77527  41.922  17.292   4.823
18091W        W77528  30.004   3.453  13.021
18092W        W77529  30.611   3.444   2.338
18093W        W77530  17.087   6.818   0.340
18094W        W77531  36.975  27.963  11.897
18095W        W77532  23.526  31.593  12.433
18096W        W77533  22.603  16.571  13.054
18097W        W77534  31.598  23.027   2.251
18098W        W77535  15.619   3.356   0.886
18099W        W77536   5.853  44.329  13.923
18100W        W77537  25.606  34.082   2.709
18101W        W77538  24.507  24.518   0.727
18102W        W77539  37.396  38.009  14.842
18103W        W77540  39.442  41.887  13.397
18104W        W77541   4.448  13.261   0.464
18105W        W77542  30.595  20.586  10.466
18106W        W77543  12.188   7.817   3.216
18107W        W77544  19.607  25.149  13.808
18108W        W77545  18.607   9.374  11.927
18109W        W77546  44.894  14.239   0.746
18110W        W77547   7.804  17.576  14.839
18111W        W77548  43.503  18.716  12.062
18112W        W77549   6.867   3.377   3.761
18113W        W77550  17.178  39.493   1.867
18114W        W77551  37.018  36.894   4.761
18115W        W77552  37.026  24.629   1.441
18116W        W77553  37.475  42.372  10.609
18117W        W77554   1.760  27.160  11.055
18118W        W77555  33.486  15.780   3.674
18119W        W77556  14.296   5.906   0.308
18120W        W77557  34.962  41.829  11.602
18121W        W77558   1.978  24.514  12.076
18122W        W77559  35.985  36.014   0.339
18123W        W77560   2.334  31.593  14.888
18124W        W77561   3.423  29.962  13.979
18125W        W77562  19.539  41.439  12.389
18126W        W77563  33.408  15.147  10.455
18127W        W77564  22.007   1.246   2.212
18128W        W77565   7.677  10.315  14.984
18129W        W77566  12.734  22.717  10.517
18130W        W77567  44.415  31.079  14.861
18131W        W77568  37.933  42.343  11.885
18132W        W77569  43.885   7.215  13.484
18133W        W77570  42.418  21.027   3.160
18134W        W77571  31.037   5.433   4.605
18135W        W77572  13.119  38.924  11.387
18136W        W77573  20.752  31.911  12.072
18137W        W77574  24.625   0.795   0.329
18138W        W77575  33.470  14.158   3.768
18139W        W77576  28.591   3.761   3.820
18140W        W77577  22.144  13.337  13.906
18141W        W77578  23.687  44.467   4.707
18142W        W77579   9.171  10.217  12.446
18143W        W77580   2.360  30.438   4.247
18144W        W77581  37.910  14.804  12.570
18145W        W77582  21.042  10.639  14.906
18146W        W77583  14.659   0.493  13.374
18147W        W77584  40.479  33.490   0.427
18148W        W77585  16.266  28.154  14.324
18149W        W77586  24.600  37.034  13.485
18150W        W77587  12.627  43.779  10.894
18151W        W77588  37.344  30.504   0.463
18152W        W77589  39.370   5.789  13.532
18153W        W77590  43.961  37.576   9.979
18154W        W77591  29.934   2.870   1.263
18155W        W77592  21.657  24.202   2.744
18156W        W77593  36.874   1.390   1.925
18157W        W77594  25.690  12.361  13.326
18158W        W77595   1.478   4.212   1.729
18159W        W77596   0.475  19.255   1.234
18160W        W77597  13.221  25.088   4.340
18161W        W77598  10.688  43.926   4.824
18162W        W77599   6.373   2.334  14.344
18163W        W77600   4.885  41.537   0.780
18164W        W77601  30.464  18.686  14.441
18165W        W77602   6.264  29.170   0.345
18166W        W77603   9.208  43.850   1.303
18167W        W77604  27.966   6.899  13.884
18168W        W77605  15.194  16.080  11.864
18169W        W77606   1.821  40.043   0.953
18170W        W77607  27.066  38.854   2.272
18171W        W77608  40.456  11.753   2.901
18172W        W77609  21.555  34.994   2.679
18173W        W77610   7.173  26.142   0.903
18174W        W77611  16.654   9.158  12.995
18175W        W77612  28.481  14.745   1.335
18176W        W77613  22.632  16.107  12.537
18177W        W77614  17.111  11.262   4.634
18178W        W77615  36.946  31.941   4.175
18179W        W77616  43.400   9.771  10.933
18180W        W77617  42.511  40.492  10.460
18181W        W77618   0.318  44.462  14.466
18182W        W77619  26.196   8.800   1.437
18183W        W77620  40.419   0.307   1.872
18184W        W77621  28.075  34.446   0.317
18185W        W77622  19.566  36.006   0.868
18186W        W77623   5.881  25.559   2.861
18187W        W77624   9.247  44.372   2.368
18188W        W77625  26.952   0.492  11.528
18189W        W77626  16.719  39.376   4.816
18190W        W77627  15.768   3.232   2.341
18191W        W77628   9.356  44.812   2.680
18192W        W77629  10.689  26.695   2.723
18193W        W77630  16.571  21.631  11.123
18194W        W77631  20.589  14.706   0.291
18195W        W77632  22.628  16.291   2.321
18196W        W77633  24.992  32.000   0.732
18197W        W77634  18.683  40.471   2.754
18198W        W77635  20.590  12.131  12.923
18199W        W77636  44.445  22.625  13.536
18200W        W77637  37.512  36.467   3.204
18201W        W77638  17.662  42.796   3.208
18202W        W77639  39.020  27.048   1.809
18203W        W77640   8.885  10.712   2.704
18204W        W77641  17.245  33.879   0.301
18205W        W77642  43.767  23.054   3.664
18206W        W77643  30.415   4.759   3.188
18207W        W77644  21.576   7.417   3.636
18208W        W77645  24.532  29.630   2.323
18209W        W77646  28.496  16.771   0.796
18210W        W77647  37.385  13.182  12.984
18211W        W77648  10.791   7.384  14.966
18212W        W77649  24.090   2.355   2.255
18213W        W77650   8.266  10.299   4.809
18214W        W77651  31.044   7.296   1.880
18215W        W77652  15.707  11.822  12.848
18216W        W77653  42.435   9.788   1.907
18217W        W77654  41.980  39.057   3.381
18218W        W77655   5.794  39.885  13.538
18219W        W77656  24.061   6.228  11.610
18220W        W77657  32.599   1.405   2.814
18221W        W77658  12.165  39.519  13.886
18222W        W77659  37.507   6.684   4.734
18223W        W77660  33.972  36.973   3.665
18224W        W77661  26.010  28.551   1.726
18225W        W77662  10.731  29.944  14.478
18226W        W77663   4.860  11.308  11.537
18227W        W77664   6.723  21.165  14.449
18228W        W77665  22.213  43.893  11.380
18229W        W77666  18.777  43.492   1.385
18230W        W77667  43.492  29.426   4.128
18231W        W77668  29.618   3.253  13.433
18232W        W77669  28.081  17.186  14.370
18233W        W77670   5.229  28.499  14.509
18234W        W77671  20.043  43.005  11.993
18235W        W77672  30.625  18.758   0.781
18236W        W77673  43.005  20.555   4.350
18237W        W77674   4.398  39.922   1.928
18238W        W77675  13.802  13.835   2.829
18239W        W77676  25.166  18.086   4.646
18240W        W77677  19.165  33.465  14.840
18241W        W77678  15.787   1.453  12.339
18242W        W77679   8.170  40.862   2.820
18243W        W77680  22.686  23.127  14.500
18244W        W77681  11.759  38.964   3.156
18245W        W77682  19.170  22.217  12.484
18246W        W77683  15.223  33.452   4.324
18247W        W77684  29.091   4.876   0.941
18248W        W77685  36.592  31.932  12.986
18249W        W77686   1.309  40.376  11.075
18250W        W77687  34.414  42.812   3.843
18251W        W77688   1.425  24.112  11.597
18252W        W77689  12.130  23.202   3.637
18253W        W77690  27.573  37.443  10.477
18254W        W77691  34.076  36.008  12.441
18255W        W77692   4.257  34.904  13.533
18256W        W77693  41.021  41.346   1.744
18257W        W77694  40.819   6.699  14.359
18258W        W77695  38.513   1.820  11.096
18259W        W77696  29.113  18.710  14.017
18260W        W77697  32.930  10.734  11.494
18261W        W77698   1.776   6.744  12.997
18262W        W77699  28.095   0.906  11.473
18263W        W77700  36.036  21.608  13.384
18264W        W77701   2.254  34.405  14.384
18265W        W77702  38.949  31.132   0.966
18266W        W77703  18.564  13.289   3.714
18267W        W77704  26.652  27.070  14.392
18268W        W77705  14.708   3.729   1.859
18269W        W77706  17.210  16.207  11.523
18270W        W77707   3.402  33.558  11.049
18271W        W77708  43.014   4.221  11.491
18272W        W77709   9.222  37.925  13.904
18273W        W77710   0.448  28.042   0.727
18274W        W77711  15.205  41.450  10.933
18275W        W77712   1.826  26.969  11.566
18276W        W77713  28.599  10.236   2.418
18277W        W77714  13.310  10.272   1.869
18278W        W77715  35.908  35.105  12.454
18279W        W77716  23.575   1.924   1.718
18280W        W77717  42.312  40.823  14.886
18281W        W77718  19.170   8.803  12.571
18282W        W77719  44.443  29.130   2.334
18283W        W77720  42.477  40.445   2.880
18284W        W77721  38.341  17.628   3.685
18285W        W77722  18.097  31.032  10.478
18286W        W77723   6.842  10.187   1.780
18287W        W77724  16.155  22.644   4.771
18288W        W77725  18.697  39.007  11.452
18289W        W77726  16.266  44.452  11.111
18290W        W77727   9.737   0.973   1.926
18291W        W77728  24.035  17.156  13.312
18292W        W77729  37.858  32.440   2.867
18293W        W77730   4.790  17.708   3.380
18294W        W77731  44.844  32.086  10.560
18295W        W77732  38.937  18.220  14.987
18296W        W77733  29.531  17.281  14.484
18297W        W77734  41.952  17.586  11.904
18298W        W77735  42.301  24.216  10.426
18299W        W77736  18.562  22.710   3.711
18300W        W77737   6.290  29.065  13.855
18301W        W77738  31.106  15.788   4.327
18302W        W77739  23.040  32.062  14.283
18303W        W77740  44.305  34.501  10.982
18304W        W77741   8.300  18.567  13.800
18305W        W77742  13.167  41.535   1.335
18306W        W77743  30.122  43.503  11.044
18307W        W77744  36.493   1.329  11.377
18308W        W77745  22.680  43.889   1.256
18309W        W77746  29.011  14.113  10.547
18310W        W77747  33.545   5.329  13.431
18311W        W77748  29.568  29.099  12.381
18312W        W77749   9.793   8.849   0.809
18313W        W77750  33.061  22.099   3.336
18314W        W77751  29.522   5.893   3.245
18315W        W77752  14.835  23.712  11.477
18316W        W77753   5.750  15.601  12.399
18317W        W77754  17.270   7.321  11.573
18318W        W77755  39.431  40.937  12.530
18319W        W77756  16.316   8.862  14.993
18320W        W77757  21.138  43.920   0.320
18321W        W77758   0.335   1.864   0.441
18322W        W77759  40.812  11.641   3.721
18323W        W77760  23.686   7.791  11.982
18324W        W77761  41.858  21.559  10.569
18325W        W77762  36.407  30.158   2.841
18326W        W77763  43.982   4.881  11.000
18327W        W77764   2.418   1.372  13.330
18328W        W77765  33.498   6.226   3.747
18329W        W77766   4.410  24.120   0.963
18330W        W77767  24.035  16.806  11.093
18331W        W77768  40.019  27.556   3.675
18332W        W77769  36.963   1.456   0.894
18333W        W77770  41.962   1.923  13.363
18334W        W77771  14.623   3.264  14.000
18335W        W77772  10.302  25.063  12.422
18336W        W77773   6.250  24.665  13.486
18337W        W77774  37.416  24.170   4.265
18338W        W77775  30.079  22.095   3.363
18339W        W77776  16.616  15.325   1.737
18340W        W77777  33.465   7.786   4.294
18341W        W77778  34.069  39.328   2.760
18342W        W77779  40.359  11.680  14.465
18343W        W77780   8.347   9.262  12.008
18344W        W77781  32.086  18.774  13.808
18345W        W77782   8.676   7.731  11.969
18346W        W77783   5.232   7.717  14.921
18347W        W77784  43.817  35.399   3.272
18348W        W77785  10.837  40.984   1.803
18349W        W77786  11.827  14.789   2.742
18350W        W77787   1.314  29.549  13.831
18351W        W77788  24.700  29.441  14.843
18352W        W77789  39.889  14.315  14.814
18353W        W77790  41.878  15.145   4.167
18354W        W77791  13.845  26.015  12.021
18355W        W77792  43.360  19.578   4.159
18356W        W77793  32.503   8.313  13.897
18357W        W77794  29.645   7.772  11.607
18358W        W77795   8.882  37.971  10.956
18359W        W77796   6.355  24.156   0.476
18360W        W77797  17.646  15.787  13.409
18361W        W77798  34.949  30.068  10.614
18362W        W77799   9.831   7.796   3.690
18363W        W77800  26.960  19.559  13.358
18364W        W77801   5.288  32.121   0.933
18365W        W77802   7.860  37.417  14.823
18366W        W77803  19.195  28.065   3.695
18367W        W77804  32.912  17.139  12.432
18368W        W77805  21.164  41.515  12.985
18369W        W77806  12.624  37.340   3.277
18370W        W77807   8.396  33.437  13.012
18371W        W77808  33.396  10.877  14.883
18372W        W77809  16.633   5.254  10.629
18373W        W77810  12.291  43.344   3.276
18374W        W77811  39.438  43.770   0.801
18375W        W77812  20.042  36.545   3.794
18376W        W77813  20.530   1.823  11.445
18377W        W77814   2.337   9.345   1.721
18378W        W77815  16.804  22.633   0.889
18379W        W77816  11.827  41.501  10.578
18380W        W77817  38.326  30.952   4.597
18381W        W77818  16.633  39.489  14.932
18382W        W77819  22.526  38.515  13.934
18383W        W77820  41.940   9.786  13.451
18384W        W77821  33.967  25.122   0.431
18385W        W77822  38.884  14.655  13.898
18386W        W77823   8.299  33.467  11.420
18387W        W77824   0.289  13.676  12.870
18388W        W77825  22.201  38.848   1.245
18389W        W77826  27.154  22.102  14.454
18390W        W77827  16.749  21.151  10.117
18391W        W77828  39.031  28.513  11.564
18392W        W77829  38.854  16.216  12.998
18393W        W77830  12.662  24.598  11.585
18394W        W77831  28.967  33.399   0.761
18395W        W77832  34.374  16.764   4.603
18396W        W77833  11.263  21.546   3.846
18397W        W77834  21.031  34.439   0.879
18398W        W77835  35.394  32.025   0.733
18399W        W77836   9.260  11.846   0.946
18400W        W77837  13.750  13.206  14.821
18401W        W77838  25.700   8.798  14.485
18402W        W77839  41.368  19.168  12.470
18403W        W77840   9.770  39.982   1.350
18404W        W77841  40.449  37.842  13.330
18405W        W77842  10.180  42.835   0.330
18406W        W77843   3.252   4.717   1.409
18407W        W77844  32.942  21.531  10.953
18408W        W77845  37.854  37.577   0.953
18409W        W77846  16.277  29.941  13.016
18410W        W77847  40.485  30.023  10.587
18411W        W77848  44.815  18.722   0.320
18412W        W77849  11.734   6.882   1.812
18413W        W77850   2.319  31.508   2.772
18414W        W77851   4.448  26.985   9.951
18415W        W77852  32.633  28.067   0.248
18416W        W77853   9.670  16.230  12.347
18417W        W77854  38.460  16.630  10.519
18418W        W77855  44.999   7.320  13.963
18419W        W77856  14.696  20.056   1.905
18420W        W77857  38.868  23.654  11.381
18421W        W77858  12.813  29.667   3.208
18422W        W77859  32.105   8.889  10.481
18423W        W77860  36.979   2.852  11.082
18424W        W77861  37.559  44.950   4.786
18425W        W77862   4.935  26.017   3.284
18426W        W77863   4.722  15.107  13.400
18427W        W77864  35.947  33.610   0.476
18428W        W77865   6.227   3.931   3.737
18429W        W77866   1.893  27.463   4.346
18430W        W77867  38.379  18.697   2.764
18431W        W77868  16.793  15.190   0.467
18432W        W77869   9.787  19.631   3.154
18433W        W77870  28.124  26.459   4.177
18434W        W77871  31.595  28.018  11.403
18435W        W77872  26.043  12.329  10.027
18436W        W77873  19.702  43.422   9.474
18437W        W77874  13.210  31.447  14.011
18438W        W77875  34.105  37.484  10.965
18439W        W77876  22.232  32.512   4.821
18440W        W77877  42.922  32.961  14.504
18441W        W77878  11.261  15.638  13.865
18442W        W77879  30.079  24.646   0.455
18443W        W77880   5.315  26.042   3.292
18444W        W77881   2.723  21.247   4.694
18445W        W77882  36.010  28.949  10.631
18446W        W77883  43.441  11.273   2.697
18447W        W77884  32.102  33.068  12.467
18448W        W77885  43.943  10.819  13.515
18449W        W77886  11.850  23.696  10.520
18450W        W77887   0.473  41.043  14.368
18451W        W77888  22.250  29.579  11.930
18452W        W77889  44.470  44.273  10.447
18453W        W77890   9.340  11.138   1.246
18454W        W77891   7.842  13.671   4.163
18455W        W77892   9.788   6.743   4.740
18456W        W77893  25.696  40.050   4.283
18457W        W77894  22.535  13.311  12.862
18458W        W77895   9.231  12.826   5.118
18459W        W77896  26.678  18.639   1.765
18460W        W77897   6.919  37.991  11.954
18461W        W77898   7.232  11.317  13.947
18462W        W77899   3.866  23.623   4.217
18463W        W77900  16.698   3.324   5.299
18464W        W77901  39.345   8.179  13.533
18465W        W77902   4.438  37.921   1.810
18466W        W77903  35.062  11.712  13.855
18467W        W77904  38.380   4.275   4.740
18468W        W77905  11.715  20.044   3.372
18469W        W77906  10.809  13.317   1.843
18470W        W77907  15.100  11.134  14.281
18471W        W77908  40.912  24.215  10.532
18472W        W77909  21.059   2.288   2.860
18473W        W77910  14.301  37.068  14.353
18474W        W77911   4.244   7.370  11.556
18475W        W77912  21.116  20.242   4.256
18476W        W77913   9.179  26.096   1.717
18477W        W77914   8.757   1.284  14.769
18478W        W77915  22.636  10.838  13.961
18479W        W77916  23.216  11.368  13.373
18480W        W77917  35.455  25.569  13.417
18481W        W77918  18.597  28.935  13.386
18482W        W77919  41.013  39.488   2.395
18483W        W77920  41.022  33.067  10.577
18484W        W77921   6.189   0.395  10.130
18485W        W77922  36.040  22.603  11.470
18486W        W77923  35.089  31.638   1.736
18487W        W77924  44.366  31.987  14.902
18488W        W77925  36.968  29.924   4.127
18489W        W77926  31.080  44.261   1.410
18490W        W77927  44.386  32.016   1.699
18491W        W77928  11.794   4.343   2.378
18492W        W77929  12.285  36.400  10.931
18493W        W77930  42.479   8.253   4.251
18494W        W77931  29.088  11.726  12.456
18495W        W77932  43.822  10.722   0.479
18496W        W77933  19.723  19.594   0.482
18497W        W77934  15.744  29.598   4.114
18498W        W77935  37.973   1.746  12.542
18499W        W77936  17.572  22.544   2.199
18500W        W77937  44.763   4.276  13.367
18501W        W77938   7.870  13.679  13.478
18502W        W77939  32.542  32.916  13.885
18503W        W77940   0.485   8.400   2.399
18504W        W77941   6.804  42.448   3.709
18505W        W77942  30.979   0.896   4.240
18506W        W77943  21.066  30.509  12.556
18507W        W77944  27.166  30.535   1.421
18508W        W77945  44.457  17.570  13.932
18509W        W77946  38.557  38.068  11.022
18510W        W77947  42.004  29.999  14.511
18511W        W77948  41.935  30.646   5.311
18512W        W77949  41.874  37.079  12.921
18513W        W77950  37.884  35.370  10.615
18514W        W77951  43.350  23.182  11.404
18515W        W77952  13.278  37.397   1.267
18516W        W77953  32.099  41.911  14.768
18517W        W77954  13.753  18.104  12.355
18518W        W77955  44.444  20.719  10.888
18519W        W77956   3.766   7.369   3.677
18520W        W77957  20.749  33.480  11.488
18521W        W77958  27.958  32.440  12.455
18522W        W77959  10.789   8.782  10.479
18523W        W77960  40.002  11.307   3.181
18524W        W77961  38.994   2.901  13.523
18525W        W77962   6.202  44.358  12.389
18526W        W77963  23.566  18.576  11.469
18527W        W77964   0.939  35.953  14.855
18528W        W77965  15.636  31.464  14.961
18529W        W77966  23.209   5.810   1.900
18530W        W77967  29.111   7.816  12.529
18531W        W77968  40.052   7.184  10.578
18532W        W77969  44.790  44.979   0.309
18533W        W77970   0.878   6.184  10.920
18534W        W77971  43.976  28.562   3.380
18535W        W77972  10.176  25.033  13.443
18536W        W77973   4.349  20.702   4.283
18537W        W77974  10.167  33.545  14.382
18538W        W77975  11.186  28.181  10.478
18539W        W77976   9.789  23.529   4.292
18540W        W77977  21.638  40.514  13.312
18541W        W77978  14.314  39.810   0.253
18542W        W77979  36.083  35.059   0.919
18543W        W77980  28.570  30.611   0.284
18544W        W77981  20.157   9.291   3.761
18545W        W77982  21.204  22.081   9.630
18546W        W77983   2.399  30.514   1.739
18547W        W77984  29.439   4.253   4.143
18548W        W77985  35.079  33.128  13.039
18549W        W77986   6.280  36.526   2.199
18550W        W77987  35.560   7.881   3.291
18551W        W77988  32.516  33.383   4.322
18552W        W77989   6.209  36.537   3.664
18553W        W77990  31.079  42.872   1.231
18554W        W77991  42.784  35.904   0.912
18555W        W77992  25.104  31.539  10.473
18556W        W77993   2.322  18.685   3.808
18557W        W77994  21.200  35.008   2.809
18558W        W77995  44.455  33.395   3.308
18559W        W77996   8.187   4.778  14.497
18560W        W77997  26.495  34.957  10.989
18561W        W77998  16.785  17.166  10.049
18562W        W77999  37.013  29.001   4.622
18563W        W78000  44.780  31.597  13.001
18564W        W78001  40.344  17.256  11.934
18565W        W78002   6.183  31.118   0.753
18566W        W78003  33.443  39.415   3.704
18567W        W78004   6.412  13.319  14.454
18568W        W78005   5.210   3.314   1.932
18569W        W78006  39.892   4.932  11.565
18570W        W78007  27.543  12.795   1.212
18571W        W78008   7.304  11.767   2.276
18572W        W78009  19.622  15.657  14.329
18573W        W78010  27.953  43.822   1.771
18574W        W78011  34.471  40.943  13.928
18575W        W78012  40.500  26.124   4.167
18576W        W78013  41.347  31.612   3.770
18577W        W78014  25.674  21.598  11.868
18578W        W78015   5.855  35.918   2.415
18579W        W78016  44.489  34.498  14.843
18580W        W78017  36.547  37.461   2.270
18581W        W78018  25.028  13.836   2.393
18582W        W78019  23.596  30.536  11.490
18583W        W78020  17.727  25.621  11.427
18584W        W78021  20.235   2.909   4.659
18585W        W78022  18.100  35.431  14.889
18586W        W78023   7.261  21.694   0.317
18587W        W78024  39.524  13.770   1.220
18588W        W78025   6.682   2.370  10.480
18589W        W78026  35.866  14.204  13.909
18590W        W78027  28.606  21.724   0.838
18591W        W78028  10.169  43.943  11.002
18592W        W78029  40.529  27.193   1.794
18593W        W78030   1.954  43.324  11.884
18594W        W78031  42.452  18.648  10.593
18595W        W78032  29.167  38.457   4.257
18596W        W78033  28.668   6.271   3.336
18597W        W78034  36.384  38.930  14.446
18598W        W78035   6.407  30.460  12.046
18599W        W78036  31.022  30.595  10.595
18600W        W78037  38.016   7.752   3.838
18601W        W78038  28.061  39.441  10.065
18602W        W78039   2.327   9.699  13.401
18603W        W78040   5.727   0.341  12.342
18604W        W78041  14.772   1.850  10.563
18605W        W78042  41.941  43.331  12.525
18606W        W78043   4.792   7.674  10.546
18607W        W78044  44.347  33.057   4.637
18608W        W78045  36.059   5.392  14.830
18609W        W78046  16.659   7.256  11.560
18610W        W78047   4.888  18.061  10.567
18611W        W78048  10.195   3.887   0.397
18612W        W78049  44.268  21.154  11.434
18613W        W78050  17.251   6.201  11.522
18614W        W78051  22.113  44.360  10.626
18615W        W78052  24.580  23.687  13.471
18616W        W78053  40.827  38.956   3.665
18617W        W78054  11.828  31.901  14.451
18618W        W78055  39.864   8.376   0.956
18619W        W78056  40.541  28.082   3.770
18620W        W78057  28.045   8.854  10.919
18621W        W78058  25.672  31.587   1.307
18622W        W78059  12.663  29.087   3.640
18623W        W78060  36.021   9.378   1.227
18624W        W78061  31.538  10.659   1.878
18625W        W78062   6.303  33.530   5.256
18626W        W78063  18.775  25.196   2.806
18627W        W78064   5.398  32.059  11.071
18628W        W78065  30.116  21.728  14.350
18629W        W78066  13.706  40.304  13.399
18630W        W78067   0.939  36.540  12.003
18631W        W78068  35.073  31.527  13.834
18632W        W78069   4.328  38.040   1.402
18633W        W78070   5.852  23.220   4.645
18634W        W78071  29.497  17.113   0.439
18635W        W78072  33.545  42.914  12.074
18636W        W78073  17.635   8.810   0.354
18637W        W78074  30.000   8.403   3.181
18638W        W78075  18.216  44.768   4.130
18639W        W78076  19.048  11.684   4.650
18640W        W78077  28.606  33.565  12.881
18641W        W78078  25.078  10.255  10.900
18642W        W78079   8.735  37.878  12.535
18643W        W78080  22.553  36.520   3.351
18644W        W78081  27.122  41.033  13.507
18645W        W78082  38.405  34.472   0.314
18646W        W78083   4.796  18.711  14.025
18647W        W78084  11.127  36.561  10.435
18648W        W78085  17.159  38.452  10.509
18649W        W78086  11.678   7.242  14.830
18650W        W78087  17.081  24.517   4.714
18651W        W78088  30.068  14.812   1.238
18652W        W78089   9.747  41.426   0.915
18653W        W78090  40.442  34.988  12.563
18654W        W78091  16.571  39.055   2.819
18655W        W78092   4.289  32.081   5.082
18656W        W78093  15.708  23.166  13.495
18657W        W78094  17.127  20.194   2.688
18658W        W78095  29.512  40.457   1.381
18659W        W78096  38.972  11.265   3.852
18660W        W78097  24.676  34.060   0.446
18661W        W78098  10.146  14.186   5.184
18662W        W78099  44.463  41.900  14.398
18663W        W78100  34.380  14.263   0.754
18664W        W78101  42.024  44.879  12.360
18665W        W78102  26.963  13.318   3.198
18666W        W78103  34.484  35.086  11.906
18667W        W78104   6.211  35.946   1.434
18668W        W78105  38.914   2.909   1.830
18669W        W78106  44.864   8.828   2.236
18670W        W78107   9.157   9.287   2.832
18671W        W78108  20.055   9.346   2.729
18672W        W78109   7.813  18.178  14.386
18673W        W78110  33.441  19.146   1.721
18674W        W78111  12.698  25.602   0.804
18675W        W78112  28.149   4.274   0.893
18676W        W78113  32.511  33.024  11.087
18677W        W78114  16.089   9.676   4.207
18678W        W78115   1.359   9.812  11.030
18679W        W78116  23.735  39.360  12.570
18680W        W78117   9.692   8.394   2.829
18681W        W78118  12.234   4.845  12.968
18682W        W78119   5.696  24.607   5.229
18683W        W78120  31.466  42.377   9.969
18684W        W78121  40.429  26.487   3.296
18685W        W78122  30.938  17.238   1.316
18686W        W78123  34.056  12.342  13.340
18687W        W78124  35.927   9.235  10.567
18688W        W78125  34.376   0.981   3.709
18689W        W78126  42.295  21.033  12.090
18690W        W78127  31.969  34.381  11.888
18691W        W78128   1.403   1.284  14.982
18692W        W78129   0.402  39.941  14.860
18693W        W78130  34.088  19.565   4.690
18694W        W78131  31.984  27.549  13.000
18695W        W78132  22.192  11.763  12.940
18696W        W78133  42.982  24.534   3.268
18697W        W78134  19.598  10.145   1.268
18698W        W78135  19.651   9.271   3.673
18699W        W78136   9.751  29.614  13.791
18700W        W78137  13.200   5.387  13.356
18701W        W78138  25.593  43.388   0.858
18702W        W78139   9.872  36.409  14.374
18703W        W78140  21.750  39.004   2.888
18704W        W78141  30.615  42.328  12.538
18705W        W78142   6.206  30.606  14.455
18706W        W78143   6.185  10.176  14.898
18707W        W78144  25.981  40.455   2.218
18708W        W78145  14.689  36.886  12.040
18709W        W78146  34.120  43.946  13.425
18710W        W78147   7.262  43.928   0.335
18711W        W78148  38.072  16.318  13.056
18712W        W78149  42.414  26.020   3.248
18713W        W78150  17.228   3.271   2.253
18714W        W78151  13.681  10.210  13.414
18715W        W78152  16.232  41.397   4.656
18716W        W78153  26.007  10.746  10.923
18717W        W78154  23.491  39.011  12.545
18718W        W78155  40.371  36.860  10.938
18719W        W78156  17.678  29.147   3.840
18720W        W78157  32.400   1.797  10.630
18721W        W78158  39.001  40.474  11.572
18722W        W78159  30.067  39.517  12.884
18723W        W78160  28.660  26.551   1.917
18724W        W78161  44.845  24.589   3.345
18725W        W78162  15.235  24.021  10.532
18726W        W78163  38.571   8.356   2.358
18727W        W78164   5.285  39.937  12.026
18728W        W78165  37.359  42.877   0.313
18729W        W78166  11.630  13.296  14.471
18730W        W78167  12.761  42.802  11.560
18731W        W78168  38.887   1.930   4.261
18732W        W78169   1.444  23.725  14.022
18733W        W78170  29.576  32.393  13.530
18734W        W78171  36.579  39.332   0.876
18735W        W78172  32.107  16.591   4.348
18736W        W78173  18.708  30.597  12.897
18737W        W78174   5.400   8.338   1.926
18738W        W78175   7.318  33.081   0.794
18739W        W78176   8.788   1.928  10.496
18740W        W78177  18.238  33.419  13.483
18741W        W78178  40.415  15.714   5.216
18742W        W78179   4.427  38.872   4.206
18743W        W78180  38.930  42.917  10.965
18744W        W78181  41.419  18.780  11.602
18745W        W78182  33.987  12.770   2.243
18746W        W78183  42.508  32.441   0.418
18747W        W78184   4.225  44.855  12.554
18748W        W78185  37.847   9.832  11.858
18749W        W78186  10.853  15.726  14.349
18750W        W78187  29.055  40.460   0.869
18751W        W78188  29.070  18.129  13.816
18752W        W78189  10.740  16.707  11.075
18753W        W78190  44.343  19.668  10.978
18754W        W78191   0.324  28.162  13.997
18755W        W78192  34.398  30.953  12.844
18756W        W78193  30.003  36.999  10.888
18757W        W78194   6.902  15.303   4.827
18758W        W78195  31.600  32.968   0.872
18759W        W78196  15.779   3.221   3.157
18760W        W78197  31.565  22.158   5.319
18761W        W78198  29.175  34.522  12.852
18762W        W78199  34.913  26.162  13.391
18763W        W78200  16.610  31.067   1.441
18764W        W78201  28.031  21.756  12.895
18765W        W78202  37.930  38.856  13.414
18766W        W78203  36.965  42.381   2.214
18767W        W78204  37.342  30.443   1.804
18768W        W78205   1.888  40.382  12.994
18769W        W78206  34.904  27.608  14.387
18770W        W78207  27.947  40.940   4.176
18771W        W78208   0.887  14.632  13.416
18772W        W78209  34.604  29.464   3.634
18773W        W78210  23.210  16.266  13.478
18774W        W78211  34.451  29.068  11.600
18775W        W78212  27.532  31.929  12.932
18776W        W78213  26.045  29.066  14.966
18777W        W78214  39.353   5.701  12.522
18778W        W78215  24.564  34.109   3.673
18779W        W78216   5.806  26.090  12.442
18780W        W78217  43.011  11.656  10.599
18781W        W78218  22.680  33.935  12.897
18782W        W78219  14.747  22.635   2.829
18783W        W78220  37.978  44.901  11.544
18784W        W78221   9.312  12.842  13.815
18785W        W78222   3.879  23.190  14.410
18786W        W78223  21.056  36.953  10.935
18787W        W78224  23.532   7.313   0.375
18788W        W78225  28.437   5.807   2.362
18789W        W78226  26.477  43.906  14.777
18790W        W78227  13.328  35.583  14.485
18791W        W78228  40.994  16.146  10.504
18792W        W78229   9.192  33.117  12.416
18793W        W78230  16.169  38.823  14.959
18794W        W78231  36.985  37.570   0.868
18795W        W78232  38.510  33.887  14.447
18796W        W78233  12.652  19.742   4.266
18797W        W78234  20.168  17.639  12.359
18798W        W78235  21.629   8.833   0.417
18799W        W78236  22.198  31.002  12.903
18800W        W78237  34.427  40.986   0.944
18801W        W78238   4.894   5.799  12.905
18802W        W78239   1.478  34.368   3.286
18803W        W78240   3.885  14.760  12.913
18804W        W78241  36.991  27.667  12.000
18805W        W78242  17.198   7.675   2.274
18806W        W78243  38.944   3.423  13.524
18807W        W78244  35.404  12.211  12.547
18808W        W78245  14.663  23.726  12.402
18809W        W78246  19.152  31.525   4.159
18810W        W78247  33.517  43.494   4.763
18811W        W78248  38.446  24.161  14.901
18812W        W78249  35.411   0.806   1.214
18813W        W78250  40.405   5.336   1.241
18814W        W78251   3.826   5.913  14.863
18815W        W78252  41.429  38.887  11.433
18816W        W78253  31.077  43.468  14.963
18817W        W78254   1.806  40.920  12.352
18818W        W78255  10.644   5.260   0.324
18819W        W78256   2.298  20.546   0.809
18820W        W78257  29.948  44.272  12.455
18821W        W78258  27.627  39.415  12.975
18822W        W78259  29.113  16.244  12.503
18823W        W78260  10.337  44.862   2.265
18824W        W78261  24.724   4.857  13.341
18825W        W78262  11.652  40.929   3.778
18826W        W78263   8.671  28.484   3.346
18827W        W78264  42.817  41.843   4.788
18828W        W78265  11.741   9.711  14.951
18829W        W78266  13.794  11.299  12.038
18830W        W78267  19.693   7.390  12.871
18831W        W78268  40.463  33.103  13.478
18832W        W78269  40.340  10.865   3.299
18833W        W78270  16.193  37.855  10.915
18834W        W78271  21.196  37.978   1.804
18835W        W78272  31.009  38.411  13.979
18836W        W78273  32.103  39.863   3.823
18837W        W78274  25.154  42.807  14.979
18838W        W78275  44.812  26.701   3.241
18839W        W78276   4.865  15.671   3.860
18840W        W78277  17.125  31.411  14.421
18841W        W78278   4.874  41.896   3.194
18842W        W78279  25.188  40.032  12.465
18843W        W78280  12.680  30.534  11.449
18844W        W78281  15.317  19.232   1.699
18845W        W78282   6.348  32.140   3.248
18846W        W78283  10.672  18.773  11.064
18847W        W78284  39.441  29.941   2.209
18848W        W78285  23.530  43.279  13.988
18849W        W78286   1.761  32.977   0.404
18850W        W78287  35.369  11.136   0.937
18851W        W78288  31.107  30.026   0.461
18852W        W78289  16.134  17.601  13.539
18853W        W78290  29.624  22.226  11.011
18854W        W78291  12.223   4.430   3.237
18855W        W78292  16.680   7.369  13.522
18856W        W78293   8.206  21.707  14.455
18857W        W78294  11.659  21.056   4.717
18858W        W78295  31.472  14.728  13.853
18859W        W78296  38.838  25.968  10.041
18860W        W78297  20.601  11.655  14.406
18861W        W78298  34.977  18.082  13.025
18862W        W78299  41.961   8.805  13.451
18863W        W78300  19.071  23.695  13.854
18864W        W78301  11.655  37.371   2.837
18865W        W78302   2.828  27.569  14.854
18866W        W78303  30.518  10.323  13.917
18867W        W78304  35.076  42.443  14.852
18868W        W78305  27.105  17.791  11.073
18869W        W78306  10.802   3.928   2.876
18870W        W78307  15.675  24.492   3.203
18871W        W78308  35.487   2.467  11.988
18872W        W78309  37.914  24.990  11.401
18873W        W78310   3.805  42.434   0.920
18874W        W78311   2.400  36.958   3.828
18875W        W78312  27.146  39.994  11.028
18876W        W78313   9.760  33.398  12.389
18877W        W78314  27.605   4.343  11.856
18878W        W78315   8.853  18.118   0.912
18879W        W78316  39.917   1.938  14.472
18880W        W78317  32.623  23.683  12.004
18881W        W78318   5.785   4.903   2.325
18882W        W78319   0.437  23.207  11.434
18883W        W78320   1.923   6.360  10.931
18884W        W78321  21.085  22.575   1.825
18885W        W78322  10.722  29.470   3.281
18886W        W78323  28.599  18.556  11.075
18887W        W78324  39.349  27.994   3.273
18888W        W78325  33.532   2.262   0.350
18889W        W78326   3.342  15.137  11.102
18890W        W78327   9.210  10.233  14.008
18891W        W78328  12.738  28.672  14.844
18892W        W78329  30.010  27.509   3.259
18893W        W78330  30.461  23.708   1.799
18894W        W78331  10.247   7.399  11.415
18895W        W78332  31.024  11.241  11.886
18896W        W78333  12.350  43.917   3.848
18897W        W78334  15.177   6.790  12.854
18898W        W78335  31.644   7.883  13.367
18899W        W78336  28.609  15.689   4.613
18900W        W78337   9.764  40.051   0.812
18901W        W78338  42.385  18.134   1.451
18902W        W78339  31.928   1.455   1.308
18903W        W78340  35.414  18.228  12.924
18904W        W78341  13.636   4.903   0.291
18905W        W78342   2.381  32.608  14.013
18906W        W78343   9.842  36.572  13.349
18907W        W78344  27.149  20.542   4.116
18908W        W78345  15.705  20.074  14.490
18909W        W78346  40.461   5.291   0.777
18910W        W78347   3.279  10.837  14.806
18911W        W78348  13.296  18.782  13.888
18912W        W78349   8.250  38.885   4.597
18913W        W78350  23.112  32.611  13.500
18914W        W78351  42.412  40.827  12.965
18915W        W78352  40.470   8.817   1.898
18916W        W78353  12.855  39.947  13.881
18917W        W78354  34.883  36.019   2.668
18918W        W78355  20.745  11.310  14.295
18919W        W78356  41.996   4.353  12.863
18920W        W78357  18.075  23.120   2.268
18921W        W78358  30.608  44.809   1.399
18922W        W78359  17.761  39.852  11.924
18923W        W78360  34.121  28.014  10.935
18924W        W78361  13.181  29.051   5.184
18925W        W78362  35.999   5.274   1.302
18926W        W78363  38.526   3.286   0.428
18927W        W78364  22.723  33.457  14.305
18928W        W78365  22.692  38.890  13.548
18929W        W78366  18.279  41.952  14.816
18930W        W78367  16.308   8.385   3.262
18931W        W78368   1.405   6.263  13.464
18932W        W78369  14.783  33.054   2.414
18933W        W78370   4.392  22.558   0.831
18934W        W78371  20.160  32.097   5.315
18935W        W78372  25.169  34.869  10.488
18936W        W78373  14.617  39.341  12.882
18937W        W78374  11.682  34.027  12.569
18938W        W78375  19.609  31.435   2.236
18939W        W78376  33.404  44.812  12.519
18940W        W78377  10.660  36.588  11.475
18941W        W78378   9.352  41.319  12.987
18942W        W78379  16.794   7.204   2.747
18943W        W78380  37.058  44.964  13.964
18944W        W78381  28.184  19.650  14.441
18945W        W78382  26.095  13.738   3.760
18946W        W78383   6.730  31.081  14.861
18947W        W78384   2.852  11.812  14.985
18948W        W78385  31.081  44.877  13.832
18949W        W78386  28.021  36.907   2.406
18950W        W78387  42.896  13.291   2.410
18951W        W78388   7.689  26.548  12.374
18952W        W78389  16.687  14.121  13.903
18953W        W78390  38.902  35.018  10.514
18954W        W78391  30.562  14.259  10.417
18955W        W78392  18.086  15.218   2.674
18956W        W78393  36.582  24.124  14.279
18957W        W78394  10.842   6.751  12.014
18958W        W78395  23.633  34.562   3.699
18959W        W78396   7.882  41.876   2.295
18960W        W78397   6.300  14.781   3.676
18961W        W78398   9.729  26.560  11.077
18962W        W78399  41.882  31.403  11.413
18963W        W78400  11.342  34.393  14.283
18964W        W78401  36.583  41.018  13.855
18965W        W78402  22.244  44.797  13.347
18966W        W78403   9.204  15.215   2.870
18967W        W78404  11.654  25.097  13.327
18968W        W78405  40.444  18.692  13.845
18969W        W78406  40.900  43.882  14.967
18970W        W78407  25.636  14.656   1.883
18971W        W78408  27.143  29.510   2.781
18972W        W78409  38.443  42.914   0.347
18973W        W78410   6.279  39.326  14.438
18974W        W78411  20.075  21.073   3.679
18975W        W78412  14.266  42.952   3.214
18976W        W78413  20.669   3.890   2.316
18977W        W78414  19.069  35.063  12.528
18978W        W78415  39.489  24.540  11.906
18979W        W78416  11.816  10.715  14.359
18980W        W78417  26.085   2.756  10.642
18981W        W78418  16.653   8.820   4.147
18982W        W78419  22.656   0.447  10.900
18983W        W78420  23.565  10.736   1.274
18984W        W78421  11.180   3.912  11.090
18985W        W78422  31.000   2.935  13.853
18986W        W78423  43.290   8.811   3.247
18987W        W78424  19.571  43.917   1.327
18988W        W78425  22.542   0.897   1.842
18989W        W78426  34.434  25.056  12.482
18990W        W78427  42.511   7.280   2.204
18991W        W78428   3.391   7.889  11.030
18992W        W78429  44.956   6.868  14.004
18993W        W78430  29.508  35.063   1.256
18994W        W78431  16.194  13.173  10.562
18995W        W78432  35.597  36.567  13.520
18996W        W78433  19.684  34.994  14.895
18997W        W78434  17.196  40.502  14.841
18998W        W78435  31.120  27.505   3.176
18999W        W78436  41.332  24.081   4.329
19000W        W78437  24.161  35.414  13.920
19001W        W78438  29.965  34.927  14.446
19002W        W78439   1.926  41.919  14.972
19003W        W78440  18.096  26.039   3.801
19004W        W78441  44.975  41.828  13.950
19005W        W78442   1.870   3.794  13.033
19006W        W78443  16.265  13.211   3.698
19007W        W78444  18.696  24.111   0.943
19008W        W78445  44.802  43.429  14.794
19009W        W78446  11.648  17.064  11.019
19010W        W78447  13.187  14.675   3.169
19011W        W78448  26.135   4.769   0.953
19012W        W78449   5.342  20.066  12.568
19013W        W78450  33.043  12.212  13.438
19014W        W78451  10.778  34.929  12.063
19015W        W78452  10.337  22.079   0.367
19016W        W78453   2.406   0.298  11.526
19017W        W78454  18.680  41.937  14.312
19018W        W78455  38.963  36.858  12.097
19019W        W78456  17.789  25.517   4.803
19020W        W78457  27.660  40.461  11.084
19021W        W78458   6.676  17.307  11.399
19022W        W78459  30.567  23.557  14.353
19023W        W78460  28.945  29.469  14.965
19024W        W78461  17.667  14.318  13.968
19025W        W78462  11.656  43.482  13.453
19026W        W78463  19.775  14.221   3.769
19027W        W78464  34.106  14.300  12.917
19028W        W78465  15.722   7.293   1.258
19029W        W78466   3.831  15.133  11.563
19030W        W78467  10.242   3.243  10.961
19031W        W78468  15.256   7.702   1.735
19032W        W78469  39.979  37.906  12.034
19033W        W78470  21.183  11.216   2.685
19034W        W78471  42.825  30.649  14.448
19035W        W78472  19.770  27.523  10.474
19036W        W78473  30.586  35.979   0.884
19037W        W78474   9.234  26.494   4.766
19038W        W78475  14.204  31.899   5.269
19039W        W78476  16.578   5.261   2.784
19040W        W78477  42.014  11.747  10.075
19041W        W78478  15.658  29.027  11.855
19042W        W78479  41.035  44.369  10.992
19043W        W78480  12.221   4.941   0.849
19044W        W78481  42.474   6.241   0.434
19045W        W78482  39.020   9.646  13.871
19046W        W78483  20.676   3.228  14.310
19047W        W78484  35.947  30.156   3.285
19048W        W78485  44.325  36.458  12.845
19049W        W78486  33.905   5.373   3.870
19050W        W78487   4.920  22.536   4.321
19051W        W78488   8.346  43.898   1.274
19052W        W78489  37.839  36.469  12.992
19053W        W78490   9.323  21.696   3.815
19054W        W78491  18.588  34.072  11.583
19055W        W78492  42.982   6.222   1.774
19056W        W78493  14.232  39.914   1.424
19057W        W78494  14.129  43.892  12.952
19058W        W78495  12.831  16.706  14.473
19059W        W78496  12.358  26.588  12.510
19060W        W78497  40.323  38.520   1.413
19061W        W78498  14.643  37.968   3.651
19062W        W78499  26.080  31.527  14.822
19063W        W78500   8.698   8.879  14.987
19064W        W78501   2.293   3.222  14.300
19065W        W78502  41.035  13.228  10.632
19066W        W78503  43.277  24.633   4.701
19067W        W78504  11.867  16.584  13.812
19068W        W78505  37.004   8.730  13.425
19069W        W78506  14.660  36.505   4.759
19070W        W78507  41.947  12.194   3.267
19071W        W78508  34.608   5.812   2.267
19072W        W78509   8.202   7.283  10.413
19073W        W78510  31.031  12.739   0.429
19074W        W78511  10.302  40.438   4.824
19075W        W78512  31.914  13.235  13.871
19076W        W78513  28.128  29.044   0.735
19077W        W78514  43.289   3.816   4.216
19078W        W78515  22.139  41.438  11.016
19079W        W78516  23.591  21.120   2.343
19080W        W78517   9.316  39.378   1.727
19081W        W78518  12.650  11.737  10.543
19082W        W78519   4.942  42.008   4.190
19083W        W78520  30.653  40.483  12.436
19084W        W78521  44.453  29.161   4.335
19085W        W78522  17.194  20.734  14.782
19086W        W78523  16.730  19.114  12.894
19087W        W78524  36.962  40.358   4.813
19088W        W78525  40.859   7.824   4.338
19089W        W78526  41.813  15.717  11.482
19090W        W78527   8.710  13.712  12.028
19091W        W78528  13.344  18.162  14.276
19092W        W78529  40.947  11.684   0.960
19093W        W78530  44.770  36.955  13.027
19094W        W78531   6.798  23.091  12.871
19095W        W78532  41.453   8.739   5.262
19096W        W78533  36.430  25.074   0.253
19097W        W78534  34.039  14.243  11.517
19098W        W78535  40.990  31.030  11.388
19099W        W78536  40.369  43.423   0.766
19100W        W78537  36.911  17.295  13.430
19101W        W78538  32.974  21.257  14.274
19102W        W78539  37.407  20.577  13.917
19103W        W78540  42.302   0.986  13.821
19104W        W78541   6.322  28.526   0.465
19105W        W78542  31.623  21.112  13.830
19106W        W78543  24.136  44.889   0.352
19107W        W78544  26.164   0.251   3.350
19108W        W78545  24.149   2.963   4.642
19109W        W78546   1.343  24.123  13.477
19110W        W78547  23.200  24.683   2.351
19111W        W78548  37.489  15.174  14.953
19112W        W78549   4.299   8.716   0.964
19113W        W78550  29.565   4.723   4.354
19114W        W78551  34.556  12.155   2.206
19115W        W78552  40.848  14.137   4.790
19116W        W78553  15.738  19.073  14.890
19117W        W78554  20.077  26.644  12.038
19118W        W78555  35.099  30.993   3.747
19119W        W78556  18.575  12.790  11.005
19120W        W78557  44.856  39.026   0.451
19121W        W78558  36.497   5.429   0.918
19122W        W78559   1.339  20.608   3.730
19123W        W78560  18.577  26.458  11.527
19124W        W78561  27.559  20.227   3.798
19125W        W78562  29.990  21.682  12.440
19126W        W78563  32.561  10.688   4.236
19127W        W78564  38.460  31.124  12.351
19128W        W78565   6.782  30.969   0.383
19129W        W78566  16.744  35.548   1.241
19130W        W78567  26.506  18.113   4.828
19131W        W78568  32.432  15.693  12.094
19132W        W78569  37.408  28.145  14.817
19133W        W78570  12.640   1.391  13.476
19134W        W78571   1.258  13.603  12.986
19135W        W78572  39.904   5.758   4.677
19136W        W78573   1.361  29.487  14.303
19137W        W78574  30.946  31.054   2.248
19138W        W78575  27.158  17.181   0.773
19139W        W78576  17.300  25.606  11.025
19140W        W78577  14.763  24.095   2.388
19141W        W78578  11.859  31.534  12.072
19142W        W78579  25.692  10.657  11.018
19143W        W78580  17.248  31.510  14.996
19144W        W78581   1.474  16.098   3.314
19145W        W78582   0.476  20.165  10.645
19146W        W78583  31.064  15.796  11.489
19147W        W78584  24.202  38.048   0.471
19148W        W78585  12.290   5.876  11.375
19149W        W78586   9.387  34.489  12.551
19150W        W78587  29.121  44.426   0.359
19151W        W78588  43.325   0.927   3.840
19152W        W78589  34.453  25.200  10.925
19153W        W78590  10.266  17.243  13.829
19154W        W78591   9.701  15.169   4.657
19155W        W78592  42.308  12.164   3.650
19156W        W78593  37.409  33.535  14.339
19157W        W78594  41.901   8.740   3.307
19158W        W78595  38.473  17.648   3.149
19159W        W78596  36.471  18.107   2.836
19160W        W78597  12.794   3.894   0.287
19161W        W78598   4.719  10.786  14.937
19162W        W78599  43.924  37.986   1.265
19163W        W78600  14.832  26.968   3.292
19164W        W78601  33.970   9.705   0.301
19165W        W78602   6.875  41.428   3.686
19166W        W78603  26.015   4.397  13.915
19167W        W78604  34.015  12.844  14.315
19168W        W78605  25.093  44.818   0.846
19169W        W78606  12.326  30.937   0.951
19170W        W78607   5.210  33.884  11.423
19171W        W78608  36.432  19.658   5.131
19172W        W78609  13.245  25.522  10.453
19173W        W78610  11.711   9.249  12.561
19174W        W78611  36.577  22.010  12.342
19175W        W78612  24.036  28.080   4.754
19176W        W78613  14.720  37.084  12.840
19177W        W78614  34.520  41.909   0.271
19178W        W78615  30.138  14.187   4.331
19179W        W78616   5.303  25.665  14.018
19180W        W78617  24.673  18.082   2.409
19181W        W78618   9.861  29.647  11.507
19182W        W78619  33.016  25.676   3.221
19183W        W78620  16.079  29.172  13.934
19184W        W78621  42.928  13.797  12.886
19185W        W78622  22.614  16.615  13.980
19186W        W78623  32.457   1.238   1.863
19187W        W78624  23.164  28.465  12.956
19188W        W78625  30.413  37.448   3.735
19189W        W78626   7.279   9.343   3.236
19190W        W78627  39.836  35.854   2.731
19191W        W78628  24.228  30.125  12.549
19192W        W78629   4.369  35.999  14.298
19193W        W78630  29.925  11.313  12.494
19194W        W78631  18.187  18.565   4.134
19195W        W78632  27.138   9.307   3.299
19196W        W78633   0.282  12.278   1.921
19197W        W78634  30.613   3.323  13.486
19198W        W78635  37.033  44.840  12.395
19199W        W78636  36.087   0.813  13.461
19200W        W78637  16.588  20.273  14.365
19201W        W78638  23.022  25.585  12.521
19202W        W78639  16.074  20.650  14.836
19203W        W78640   8.802  27.009   5.284
19204W        W78641  26.690  38.854  12.527
19205W        W78642  40.844   3.342   2.798
19206W        W78643   0.956   0.922   5.092
19207W        W78644  17.778  42.520  13.403
19208W        W78645  10.857  30.564  13.008
19209W        W78646  39.957  43.965   1.760
19210W        W78647  35.039  19.609  11.575
19211W        W78648  41.363   8.861   2.673
19212W        W78649   9.733   5.383  11.931
19213W        W78650  17.084  12.725  13.009
19214W        W78651  25.151   7.726  13.458
19215W        W78652   5.863  32.896  12.355
19216W        W78653  10.805   1.342  12.886
19217W        W78654  39.835  10.701   2.749
19218W        W78655  13.281  21.171  13.529
19219W        W78656  41.906  43.788  14.784
19220W        W78657  38.858  11.171  14.858
19221W        W78658   4.382  43.284   3.844
19222W        W78659  10.210   7.259  10.599
19223W        W78660   3.342  43.796  12.096
19224W        W78661  16.639  37.366   2.372
19225W        W78662  19.176  31.594  13.963
19226W        W78663  31.485  11.853   1.735
19227W        W78664   6.316  32.028  13.908
19228W        W78665   5.298  20.626   4.676
19229W        W78666  29.145  37.834   3.718
19230W        W78667  28.567  34.952   4.599
19231W        W78668   7.716   6.791  13.942
19232W        W78669   0.436  27.096  14.469
19233W        W78670  16.174  16.606   0.937
19234W        W78671  40.866   2.742   4.767
19235W        W78672  32.006  43.866   3.839
19236W        W78673  22.619  33.921  13.910
19237W        W78674  12.293  22.700  10.997
19238W        W78675   3.458  41.528  11.055
19239W        W78676  23.152  28.558   1.756
19240W        W78677  27.075  18.599   4.241
19241W        W78678   9.153   1.872  14.449
19242W        W78679   0.830  10.685   0.838
19243W        W78680  36.569  36.964   0.741
19244W        W78681  19.633  22.042   2.341
19245W        W78682   3.713  38.394  14.481
19246W        W78683  32.070  40.341   4.807
19247W        W78684  23.733  12.855   2.903
19248W        W78685  34.534  35.896  14.822
19249W        W78686  31.091   9.225  11.927
19250W        W78687  34.403  31.098  12.570
19251W        W78688  19.042  36.014  14.828
19252W        W78689   8.841   0.872  13.918
19253W        W78690  19.778   1.732  13.909
19254W        W78691   5.833  34.999  12.509
19255W        W78692  15.139  10.679   1.732
19256W        W78693  26.653   0.363  12.863
19257W        W78694  42.910   9.799   4.656
19258W        W78695   3.871  42.993   1.703
19259W        W78696  41.507  19.646   4.789
19260W        W78697  38.925   6.905   1.254
19261W        W78698  16.625  34.453  14.803
19262W        W78699  36.846  42.005   2.304
19263W        W78700  13.826  27.071  10.552
19264W        W78701  31.443  19.077   4.615
19265W        W78702  15.160  43.993  14.405
19266W        W78703  27.458  19.569   0.456
19267W        W78704  25.187   2.441   0.367
19268W        W78705   0.293  40.415  11.072
19269W        W78706  42.991  27.533  13.885
19270W        W78707   9.257  28.141  12.388
19271W        W78708  33.882   3.336   2.341
19272W        W78709  22.500  43.920   1.796
19273W        W78710   5.856  41.870  11.564
19274W        W78711  36.909  27.069   4.133
19275W        W78712  35.088  43.310  10.536
19276W        W78713  16.200  25.688   4.283
19277W        W78714  44.991  17.754  13.895
19278W        W78715  31.456  12.750  12.933
19279W        W78716  42.946   5.881  13.329
19280W        W78717  31.453  25.154  14.310
19281W        W78718  12.160   6.284   0.321
19282W        W78719  28.041  41.918  13.534
19283W        W78720  30.939  28.467   0.906
19284W        W78721   6.905   6.232  10.558
19285W        W78722  15.115  18.740  10.907
19286W        W78723  21.718  26.600  13.791
19287W        W78724  14.111  13.328  14.287
19288W        W78725  21.753   8.314   2.346
19289W        W78726   4.321  36.961  14.762
19290W        W78727   7.727  24.494   4.297
19291W        W78728   7.836  29.046  10.077
19292W        W78729  15.724  18.667   2.212
19293W        W78730  24.051   3.731  12.892
19294W        W78731  42.375  29.947   0.850
19295W        W78732  33.070   1.418   1.388
19296W        W78733  44.493   8.400  11.986
19297W        W78734  25.067  11.166   0.344
19298W        W78735  17.127  28.673   1.384
19299W        W78736  20.552   3.817   2.828
19300W        W78737  16.751  20.246  10.106
19301W        W78738  11.254  41.318   2.231
19302W        W78739  42.283  26.079  12.550
19303W        W78740   0.328  15.198  11.942
19304W        W78741  41.339   4.763   4.833
19305W        W78742   7.192  29.450   1.264
19306W        W78743  37.920  33.564   0.740
19307W        W78744  23.062  31.578  13.870
19308W        W78745  34.997  29.562   4.330
19309W        W78746  22.646  25.516  13.426
19310W        W78747  20.092   0.822   1.763
19311W        W78748   8.370  36.919  13.391
19312W        W78749   6.847  33.468  13.893
19313W        W78750   4.885  10.255   4.259
19314W        W78751  14.709  37.023   0.324
19315W        W78752  43.004  25.623  11.908
19316W        W78753  16.725  44.773   1.793
19317W        W78754   5.230   6.212   3.766
19318W        W78755  16.633  11.664  14.315
19319W        W78756  16.274  33.587  11.967
19320W        W78757  12.810   6.332   0.827
19321W        W78758  20.188  33.427   4.271
19322W        W78759  21.576  27.662  13.951
19323W        W78760  15.276  15.606  13.381
19324W        W78761   0.753  31.411   3.366
19325W        W78762   1.959  31.529   4.818
19326W        W78763   4.860   7.379   1.322
19327W        W78764  19.778  34.005   0.423
19328W        W78765  43.803  29.500   0.413
19329W        W78766   2.333  12.332  14.410
19330W        W78767  27.157   9.821   3.728
19331W        W78768  42.783  27.483  13.365
19332W        W78769  19.091  37.049  12.450
19333W        W78770  43.276  17.697   0.276
19334W        W78771  28.932  31.914  10.501
19335W        W78772  17.777  43.892  13.442
19336W        W78773  16.726  14.308   1.409
19337W        W78774  41.514  40.331  12.504
19338W        W78775   3.906  35.398  10.618
19339W        W78776  36.887   1.897   0.258
19340W        W78777  42.923  39.847  11.981
19341W        W78778   2.437  32.896  11.445
19342W        W78779  38.382  10.215  14.382
19343W        W78780  10.383  13.784  12.349
19344W        W78781  37.555   8.352  13.398
19345W        W78782  41.826  22.580   4.626
19346W        W78783  14.267   8.736  14.817
19347W        W78784  22.713   2.421  10.440
19348W        W78785  33.472  41.017   0.328
19349W        W78786   0.450   1.884   3.302
19350W        W78787  33.614  36.580   1.732
19351W        W78788   4.264   4.384  12.879
19352W        W78789  30.424  36.428  10.965
19353W        W78790  25.189  37.056  10.121
19354W        W78791  15.243   3.226  12.874
19355W        W78792  37.541  18.274   1.887
19356W        W78793  13.781  16.172  13.843
19357W        W78794  33.895  30.532   3.346
19358W        W78795  13.122  29.565  10.608
19359W        W78796  29.624  40.843   9.618
19360W        W78797  35.521  42.437  10.942
19361W        W78798  41.863  21.589   0.473
19362W        W78799  30.579  17.668   0.746
19363W        W78800   4.417  43.400   4.712
19364W        W78801  22.130  39.028   5.236
19365W        W78802  43.987   9.735   0.371
19366W        W78803  26.533   9.314  11.528
19367W        W78804   6.753   3.316  11.968
19368W        W78805  26.505  33.882   0.778
19369W        W78806  24.705  31.058   3.675
19370W        W78807   7.838  15.656  10.016
19371W        W78808  24.688  22.559  13.047
19372W        W78809  26.074  37.954  12.566
19373W        W78810  28.157  34.530   4.695
19374W        W78811  28.153  20.043  14.349
19375W        W78812  44.989   4.911   1.853
19376W        W78813  21.184  14.633   5.788
19377W        W78814  22.151  32.939   0.362
19378W        W78815   4.381  31.625  11.912
19379W        W78816  30.094   9.224  10.547
19380W        W78817  28.984   7.842  12.068
19381W        W78818  43.347  33.562   4.323
19382W        W78819  28.638  30.935   1.812
19383W        W78820  44.885   0.900   0.761
19384W        W78821   0.817  42.471   1.851
19385W        W78822  18.642   5.722   0.386
19386W        W78823  35.953  14.639  11.545
19387W        W78824   5.423  26.202  14.456
19388W        W78825  30.087  39.821  14.362
19389W        W78826  14.694   5.407   4.348
19390W        W78827   9.844   2.449  11.493
19391W        W78828  13.166   1.338  12.522
19392W        W78829  42.442  23.655  12.041
19393W        W78830  44.919   7.258   2.749
19394W        W78831  18.259  19.163   2.800
19395W        W78832  11.289  26.463   2.238
19396W        W78833  29.087  10.676   0.294
19397W        W78834  21.222  17.733  10.934
19398W        W78835  34.513  43.513   0.867
19399W        W78836   0.790   0.454   4.333
19400W        W78837   8.222   4.290  12.413
19401W        W78838  24.562  23.017  11.103
19402W        W78839   7.877  31.436  14.288
19403W        W78840  34.951   3.915   0.926
19404W        W78841  30.630  35.497   1.300
19405W        W78842   3.714  27.568   1.921
19406W        W78843   2.803  44.929  11.977
19407W        W78844  14.654  26.005  13.430
19408W        W78845  41.013  12.638  12.436
19409W        W78846   7.188  30.658  13.062
19410W        W78847  36.020  42.931   1.292
19411W        W78848  12.328  13.173   2.689
19412W        W78849  43.466  30.543   4.681
19413W        W78850  41.858   5.868   0.942
19414W        W78851  33.898  20.736   2.235
19415W        W78852  18.606   0.956  11.019
19416W        W78853  12.687  21.218  13.377
19417W        W78854  22.661  10.270   4.706
19418W        W78855  24.083  28.159   1.377
19419W        W78856   6.899  36.885  14.334
19420W        W78857  42.789  34.889   1.373
19421W        W78858  21.153   9.832  14.010
19422W        W78859  28.457  23.083   2.231
19423W        W78860  15.189  25.613   1.833
19424W        W78861  36.899  39.873  14.328
19425W        W78862   0.485   9.857   1.224
19426W        W78863   1.897  42.509   3.274
19427W        W78864   1.844  14.111  14.379
19428W        W78865  36.842   8.655   2.894
19429W        W78866  26.689  25.972  14.471
19430W        W78867  37.448  28.134  10.464
19431W        W78868  32.947  20.550  12.546
19432W        W78869   7.820  35.978  10.114
19433W        W78870  22.657  15.124   5.228
19434W        W78871  34.104  21.599  10.887
19435W        W78872  17.580   8.253  11.410
19436W        W78873  44.357  43.347  12.090
19437W        W78874  31.905   9.195   5.322
19438W        W78875  12.702  32.083   4.735
19439W        W78876  21.111  40.014   0.733
19440W        W78877  12.674  22.547  11.102
19441W        W78878   0.983  13.167  12.047
19442W        W78879   3.256   5.879   3.765
19443W        W78880  25.112   4.911  13.862
19444W        W78881  17.252  28.083  13.045
19445W        W78882  40.035  40.432  13.315
19446W        W78883  14.616   6.313  11.999
19447W        W78884  16.109  10.380   0.256
19448W        W78885  31.545  30.548  10.440
19449W        W78886  19.282  38.545   3.269
19450W        W78887  32.508  18.202   1.700
19451W        W78888  29.646   2.420  11.584
19452W        W78889  17.624  19.719  12.065
19453W        W78890  34.119  27.626  10.606
19454W        W78891  12.331  43.300  11.048
19455W        W78892   2.956  25.492   2.244
19456W        W78893  33.423  44.864  14.441
19457W        W78894   4.757  43.445   2.673
19458W        W78895  12.687  39.318  10.887
19459W        W78896  43.856  19.041   1.403
19460W        W78897  22.543  24.145  10.452
19461W        W78898  38.906   8.809   5.200
19462W        W78899  28.125  11.651  12.474
19463W        W78900  14.694   3.864  14.998
19464W        W78901  35.599  15.186  13.894
19465W        W78902  10.751  41.386  11.551
19466W        W78903   4.421  12.309  14.999
19467W        W78904  22.183  40.409   2.366
19468W        W78905  11.338   1.787  12.433
19469W        W78906  35.528  43.992   3.765
19470W        W78907   5.423   4.207   0.809
19471W        W78908  33.008  41.801   3.667
19472W        W78909  19.043  26.136   1.908
19473W        W78910  41.533  27.945  11.956
19474W        W78911  29.926  14.191  14.275
19475W        W78912  17.691  14.646   1.831
19476W        W78913  15.677  38.032  14.911
19477W        W78914  10.727  22.506  12.395
19478W        W78915  34.001  31.543  12.501
19479W        W78916   5.871  34.884  14.908
19480W        W78917  12.827  25.184   1.325
19481W        W78918  37.078  41.909  11.022
19482W        W78919  43.318  43.431  12.348
19483W        W78920  42.817  37.984  12.850
19484W        W78921  25.696   8.170  12.072
19485W        W78922  18.631   3.908   0.271
19486W        W78923   1.937  32.499   1.863
19487W        W78924  38.525  25.471  12.875
19488W        W78925  38.556   4.381   3.805
19489W        W78926  13.224  36.919   1.401
19490W        W78927  29.604  22.657   3.374
19491W        W78928  16.111  15.582   0.411
19492W        W78929  43.386  19.060   3.868
19493W        W78930  35.032  27.642   2.396
19494W        W78931   2.466  40.482   4.821
19495W        W78932  44.865  21.068   3.870
19496W        W78933  38.922  30.519   5.089
19497W        W78934  15.181  14.602   1.412
19498W        W78935  24.056  26.015  10.115
19499W        W78936   9.731   0.440   4.653
19500W        W78937  20.587  11.244  10.980
19501W        W78938  34.503   1.929   2.376
19502W        W78939  28.978   0.458   1.418
19503W        W78940   0.250  23.564  12.884
19504W        W78941  34.995  14.182  11.537
19505W        W78942  44.407  26.675  14.449
19506W        W78943  40.027  16.650  10.466
19507W        W78944  19.126  42.498  12.549
19508W        W78945   7.183  20.666   4.830
19509W        W78946  11.279  42.366  11.089
19510W        W78947  34.429  38.475  12.941
19511W        W78948  37.383   4.853   1.735
19512W        W78949  21.033  31.104   2.286
19513W        W78950  34.370  41.505  13.850
19514W        W78951  14.140  25.559  12.545
19515W        W78952   5.363  12.822   0.343
19516W        W78953   7.666  14.732   1.731
19517W        W78954  10.209  17.584  14.901
19518W        W78955   2.910   9.808   3.686
19519W        W78956   8.377   5.409  14.801
19520W        W78957  15.147  29.060   2.295
19521W        W78958   1.402  26.534  10.428
19522W        W78959  15.778  16.102  13.914
19523W        W78960  27.085  25.084   1.928
19524W        W78961  35.066  24.032   0.434
19525W        W78962   3.850   4.935   3.211
19526W        W78963  14.316  44.375   5.174
19527W        W78964  29.655  16.101  11.931
19528W        W78965   3.298  39.020  14.944
19529W        W78966  18.253  42.842  13.956
19530W        W78967  13.668  42.982  10.461
19531W        W78968  35.554  37.047   2.671
19532W        W78969  38.918  39.366   2.764
19533W        W78970   0.886  29.168   3.718
19534W        W78971  26.055  30.999  10.526
19535W        W78972  39.059   4.214   0.350
19536W        W78973  17.565  35.956   4.339
19537W        W78974   2.242  24.687   3.347
19538W        W78975   5.277  39.325   2.702
19539W        W78976   1.327   4.233   4.157
19540W        W78977  16.163  35.862   2.677
19541W        W78978  14.170   5.879   3.307
19542W        W78979  27.086  40.902   4.328
19543W        W78980  27.155  24.190   3.697
19544W        W78981   4.865   8.249  11.085
19545W        W78982  18.699  11.161  14.007
19546W        W78983   1.246  37.909   4.836
19547W        W78984  24.126  34.921  10.421
19548W        W78985  33.418   5.344   3.670
19549W        W78986  24.116  41.455  11.471
19550W        W78987  31.490  18.664  14.360
19551W        W78988  19.557  11.744   5.270
19552W        W78989  22.510  39.316  11.075
19553W        W78990  44.312  24.229   5.296
19554W        W78991  27.686  34.068   1.823
19555W        W78992   4.273  38.970   0.456
19556W        W78993   5.198  37.376   3.164
19557W        W78994  22.550   4.299   3.193
19558W        W78995  12.706  25.010  11.448
19559W        W78996  38.559  40.930  14.837
19560W        W78997  13.234  26.181  14.506
19561W        W78998  13.328  33.573   1.373
19562W        W78999  44.912  19.096   1.448
19563W        W79000  12.729  23.649  13.386
19564W        W79001  16.583  31.459   1.395
19565W        W79002  15.238  36.863  12.916
19566W        W79003  37.515   2.805  11.098
19567W        W79004  36.423  27.070  12.383
19568W        W79005   8.777  18.288  13.541
19569W        W79006  31.405  26.121   0.452
19570W        W79007  37.839  38.384   3.657
19571W        W79008   0.457   7.297   4.820
19572W        W79009  24.113  22.613  13.323
19573W        W79010   8.879   1.803  11.538
19574W        W79011  32.483  40.843  11.463
19575W        W79012  18.706   1.339  13.955
19576W        W79013  14.790  22.060   3.245
19577W        W79014  10.270   5.339  14.464
19578W        W79015  25.061  24.012  14.341
19579W        W79016  33.400  34.055   0.745
19580W        W79017  22.651  31.048  14.313
19581W        W79018   1.863  33.614  13.536
19582W        W79019  33.461   5.801   4.775
19583W        W79020  30.131  44.445  11.589
19584W        W79021  22.073  36.443   2.680
19585W        W79022  20.074   2.780   2.191
19586W        W79023  41.400  36.055  11.469
19587W        W79024   8.879  29.508  11.090
19588W        W79025  37.358   2.853   4.219
19589W        W79026  18.055  11.202   4.213
19590W        W79027   4.237   7.209   0.814
19591W        W79028  34.121  44.497  14.765
19592W        W79029  10.252  29.106   5.170
19593W        W79030  43.319  34.975   4.658
19594W        W79031   5.402   4.943  11.863
19595W        W79032  36.527   6.830   4.252
19596W        W79033  32.055   5.733  10.586
19597W        W79034  26.078  33.613  11.939
19598W        W79035  43.330  33.540   2.405
19599W        W79036   8.790  24.091   0.755
19600W        W79037  24.164   4.223  10.941
19601W        W79038  23.541  18.166  12.859
19602W        W79039  26.988  43.359  13.991
19603W        W79040  26.560   8.716   3.766
19604W        W79041  13.273   8.663   1.733
19605W        W79042  24.681   9.799   2.766
19606W        W79043  33.883   0.272  11.430
19607W        W79044   5.911  24.506  13.059
19608W        W79045  31.405   2.280  14.283
19609W        W79046  15.621   3.354  14.341
19610W        W79047  22.065  43.988   2.835
19611W        W79048  10.173   5.775   4.223
19612W        W79049  12.638  35.967   3.681
19613W        W79050  29.938  15.164  13.339
19614W        W79051  30.120  21.167  13.907
19615W        W79052  43.998  17.702  14.816
19616W        W79053   5.422  16.199  13.009
19617W        W79054  22.178   6.795   0.881
19618W        W79055  30.069  42.875  14.319
19619W        W79056  19.157   9.688   0.277
19620W        W79057  44.960  12.358   2.867
19621W        W79058  21.646  10.288  12.339
19622W        W79059  29.121  44.977  13.366
19623W        W79060  19.772   7.181  10.474
19624W        W79061  14.105  10.824   2.744
19625W        W79062   1.391  15.291   2.872
19626W        W79063  28.607  28.578   3.780
19627W        W79064  30.481  40.984   9.451
19628W        W79065  37.924  25.483  10.411
19629W        W79066  23.560  14.777   1.444
19630W        W79067  30.516  12.653  13.937
19631W        W79068  13.159  24.154   0.384
19632W        W79069  13.621  19.769  13.893
19633W        W79070   1.969  21.219  13.309
19634W        W79071  40.522  36.513   2.202
19635W        W79072  25.698  13.782  10.958
19636W        W79073   1.479  13.123  14.506
19637W        W79074   9.317  29.514   4.160
19638W        W79075   1.898  24.141   4.778
19639W        W79076  37.043  28.017  12.909
19640W        W79077  37.901   7.770   0.820
19641W        W79078  43.771  32.581  12.893
19642W        W79079   2.939  22.712   3.767
19643W        W79080   0.283  41.999   3.258
19644W        W79081  19.099  38.988  13.374
19645W        W79082  22.625  28.648  13.459
19646W        W79083  16.640  17.241   3.213
19647W        W79084  41.008  26.658   4.698
19648W        W79085   3.224  15.203  13.794
19649W        W79086  17.076   7.773  13.048
19650W        W79087  27.071  37.913   2.706
19651W        W79088   8.852   2.243   3.379
19652W        W79089  16.722   8.168  11.417
19653W        W79090  30.428   2.805  12.476
19654W        W79091  21.754  19.600   1.267
19655W        W79092  40.004  23.072  11.100
19656W        W79093  38.524   0.948   4.698
19657W        W79094  18.087  13.675  12.466
19658W        W79095   6.740  36.034  10.564
19659W        W79096  18.057  33.969  11.042
19660W        W79097   2.388   5.355   4.209
19661W        W79098  28.948  29.956  14.426
19662W        W79099  18.259  19.256  11.967
19663W        W79100   4.245  14.190   0.321
19664W        W79101  18.074  14.247  10.001
19665W        W79102  38.411   1.300   0.422
19666W        W79103  31.434  44.270  10.579
19667W        W79104  42.909  36.385   1.431
19668W        W79105  25.534   3.790  14.391
19669W        W79106  44.811  30.495   0.419
19670W        W79107  19.591   5.875   0.312
19671W        W79108  25.162  23.592   4.776
19672W        W79109  13.208  43.017   3.303
19673W        W79110  26.969  17.203  12.863
19674W        W79111  22.053  41.454   3.694
19675W        W79112   2.272   5.362   1.216
19676W        W79113   4.383  18.189   2.198
19677W        W79114  31.083  10.334   0.838
19678W        W79115  39.893  42.474  10.434
19679W        W79116  11.366  21.592   0.461
19680W        W79117  14.729   0.875  10.417
19681W        W79118  19.563  39.523   3.758
19682W        W79119  22.128  25.512  10.996
19683W        W79120   2.835  36.905   1.824
19684W        W79121  42.802  33.387   0.269
19685W        W79122   5.353  20.684  13.851
19686W        W79123  13.745  41.530   1.918
19687W        W79124   0.376  29.008  13.936
19688W        W79125  37.490  40.044   3.739
19689W        W79126   3.434   8.275  10.408
19690W        W79127   1.256  35.502  14.904
19691W        W79128  26.651   7.789  12.062
19692W        W79129  32.072  22.129   1.263
19693W        W79130  20.114  37.984   0.876
19694W        W79131  32.910   5.430  10.570
19695W        W79132   5.699  33.033   4.158
19696W        W79133  38.840  32.512   0.926
19697W        W79134   0.747   4.308   0.296
19698W        W79135  41.025  43.325  11.001
19699W        W79136  26.601   7.346  14.463
19700W        W79137  43.825  21.123   0.434
19701W        W79138   0.342  42.318  13.523
19702W        W79139  29.976  33.617   0.784
19703W        W79140  21.111  24.134   3.192
19704W        W79141  39.535  19.623  13.799
19705W        W79142  40.009   0.382   2.847
19706W        W79143   2.413   0.854   0.421
19707W        W79144   9.753   8.721  12.006
19708W        W79145  42.511  35.941  13.817
19709W        W79146  24.516  34.869  12.934
19710W        W79147  11.804   8.227   1.272
19711W        W79148  16.739  28.958  10.437
19712W        W79149  28.553   0.398   0.960
19713W        W79150  42.955   7.347   2.230
19714W        W79151   3.266  11.371   1.933
19715W        W79152  20.637   3.294   2.220
19716W        W79153  32.513  17.131   4.708
19717W        W79154  16.653  14.724   2.265
19718W        W79155  41.913  37.868   3.684
19719W        W79156  42.438  15.582   2.698
19720W        W79157  44.955  18.626   1.907
19721W        W79158   1.416   9.189  11.911
19722W        W79159  22.623  29.446  11.415
19723W        W79160  14.202   7.198   0.464
19724W        W79161  33.110  37.995   0.895
19725W        W79162  15.634  17.294  14.979
19726W        W79163  41.520  32.083   4.798
19727W        W79164  42.992  24.723   1.741
19728W        W79165  33.577  25.158  10.629
19729W        W79166  36.975   9.783   0.839
19730W        W79167  33.593  28.465  12.348
19731W        W79168  38.001  22.701  14.883
19732W        W79169   6.234  14.602  11.060
19733W        W79170  19.214  17.588  13.857
19734W        W79171  44.855   7.868   2.332
19735W        W79172  39.558  20.536  13.445
19736W        W79173  33.473  42.376  12.048
19737W        W79174  16.782  12.837  10.485
19738W        W79175  22.055  34.094   2.695
19739W        W79176  21.661  14.262   5.166
19740W        W79177  23.684  14.657  13.544
19741W        W79178  41.918  28.557  13.902
19742W        W79179  31.978  43.895  13.327
19743W        W79180  27.500  41.800   3.168
19744W        W79181  17.586  38.335   1.880
19745W        W79182  43.019   7.815   4.642
19746W        W79183  22.704  26.035   0.810
19747W        W79184  14.609  44.963   2.249
19748W        W79185  42.033   2.455  12.538
19749W        W79186  16.244  36.910  10.627
19750W        W79187  19.687  18.594   4.334
19751W        W79188  41.827  32.552  11.434
19752W        W79189  10.679  20.609   3.325
19753W        W79190   2.736  18.152  14.274
19754W        W79191  16.632  23.548   3.350
19755W        W79192  21.122   1.352  13.816
19756W        W79193   0.418  25.614   2.690
19757W        W79194  30.639  27.991   2.898
19758W        W79195  20.659  24.229   0.954
19759W        W79196   7.807   6.890   1.849
19760W        W79197  38.936  15.579  12.424
19761W        W79198   9.276  19.276  14.855
19762W        W79199  14.255  19.110  11.586
19763W        W79200  11.356   8.236  14.922
19764W        W79201  17.632  25.589   1.795
19765W        W79202  38.873   8.328  14.395
19766W        W79203  11.849  15.162   0.888
19767W        W79204  38.058  42.875  14.982
19768W        W79205   1.388  19.084   1.448
19769W        W79206  17.304  30.551   3.767
19770W        W79207   3.286  28.132   0.388
19771W        W79208  37.504  21.525  14.788
19772W        W79209  30.594   0.805   1.699
19773W        W79210  15.821  33.517  13.401
19774W        W79211  38.845  25.966  11.045
19775W        W79212  13.334   9.829   4.699
19776W        W79213  41.842   9.755  11.484
19777W        W79214  44.469   7.898   2.820
19778W        W79215  27.151   8.312   2.311
19779W        W79216  37.576   6.911  12.053
19780W        W79217  11.180  11.730  10.457
19781W        W79218  34.446  17.602   0.292
19782W        W79219  29.509  12.327   2.234
19783W        W79220  37.458   1.761  14.799
19784W        W79221  41.878  27.957  10.899
19785W        W79222  13.603  20.122  11.567
19786W        W79223  30.949  28.001  14.017
19787W        W79224  36.580   2.803   1.335
19788W        W79225  44.331   9.757  13.511
19789W        W79226  30.146   4.344   0.802
19790W        W79227  18.176  29.145  12.096
19791W        W79228  10.205  20.690   0.726
19792W        W79229  38.551  29.955   2.768
19793W        W79230  26.598  29.559   4.802
19794W        W79231  27.594   2.908  13.443
19795W        W79232   8.332  42.829  13.406
19796W        W79233  21.026  43.346  14.302
19797W        W79234  12.284  34.080  11.964
19798W        W79235  37.850  20.166  12.087
19799W        W79236  21.580   1.976   4.675
19800W        W79237  34.493   6.384   2.717
19801W        W79238  18.094  20.036   2.373
19802W        W79239   2.405  31.990   4.620
19803W        W79240   6.264   0.493  12.535
19804W        W79241  42.848  34.445  11.969
19805W        W79242  16.720   8.269   1.392
19806W        W79243  19.153  14.655   4.686
19807W        W79244  44.289   9.841  11.433
19808W        W79245  42.339  33.531  13.856
19809W        W79246  43.764  21.228   2.792
19810W        W79247  23.735  27.971   0.837
19811W        W79248  16.310  33.026  11.433
19812W        W79249  29.453  11.756  11.544
19813W        W79250  33.505  16.810  10.599
19814W        W79251   2.960  24.714  13.997
19815W        W79252  21.071  41.346   4.717
19816W        W79253  31.065  44.437   3.799
19817W        W79254  44.856   4.738  12.461
19818W        W79255  12.278   1.379  13.347
19819W        W79256  39.008  42.373   2.355
19820W        W79257  15.598   2.460  12.375
19821W        W79258  23.687   9.201  10.640
19822W        W79259  40.039  25.621   2.363
19823W        W79260  16.171  21.177  11.070
19824W        W79261   4.931   6.411  11.903
19825W        W79262  24.996   6.290   2.775
19826W        W79263  18.623  28.029  12.066
19827W        W79264  10.225  37.006   0.427
19828W        W79265  10.754  39.482   0.864
19829W        W79266  20.064   9.355   2.217
19830W        W79267   9.806  37.480  11.963
19831W        W79268  10.313  17.778   1.404
19832W        W79269  44.330  15.609  11.029
19833W        W79270  37.419   4.736  14.854
19834W        W79271  33.560  33.923   3.820
19835W        W79272  18.128  34.026   4.287
19836W        W79273  38.006   5.768   1.231
19837W        W79274  23.507  14.172  14.969
19838W        W79275  21.250  31.593   4.781
19839W        W79276  33.061  26.579   2.244
19840W        W79277  14.124  12.703   0.274
19841W        W79278  33.476  13.313  10.146
19842W        W79279  22.713  29.108   1.894
19843W        W79280  10.676  28.603  11.997
19844W        W79281   9.377  44.798  12.000
19845W        W79282  14.704  44.371   0.753
19846W        W79283  39.367  11.264   4.256
19847W        W79284  21.103  27.010  14.820
19848W        W79285  43.990  22.181  13.996
19849W        W79286  32.097  15.755  12.972
19850W        W79287  21.076  43.885  10.587
19851W        W79288  19.664  19.224   2.823
19852W        W79289  12.794  35.957   2.824
19853W        W79290   3.712  17.095   4.210
19854W        W79291  23.014   8.817  13.477
19855W        W79292  31.978  23.701  14.481
19856W        W79293   1.772   0.493   0.256
19857W        W79294  33.999  14.138  12.474
19858W        W79295   9.667  42.812  12.921
19859W        W79296  19.617   5.821  10.979
19860W        W79297   2.273   4.778   0.961
19861W        W79298  44.459  28.437  11.102
19862W        W79299  31.498  33.095   4.146
19863W        W79300  27.984  29.068   4.312
19864W        W79301  20.718  15.765   2.287
19865W        W79302  16.573  11.848   1.736
19866W        W79303  37.881  19.209  11.602
19867W        W79304  42.839  28.459   3.798
19868W        W79305  40.941  20.213   0.930
19869W        W79306  23.147  37.445   0.249
19870W        W79307  28.141  24.540  11.426
19871W        W79308  39.010  29.036   3.829
19872W        W79309  21.094  44.315  14.325
19873W        W79310  11.718  19.588  13.974
19874W        W79311  25.499  27.524   1.795
19875W        W79312  12.220  17.283  14.898
19876W        W79313  26.101  17.792   0.889
19877W        W79314  32.405  25.159   2.702
19878W        W79315  41.989  29.130  10.051
19879W        W79316  12.785  12.680  13.827
19880W        W79317  30.573   9.199   1.792
19881W        W79318  37.879  27.610   3.855
19882W        W79319  39.874   0.887  14.339
19883W        W79320  43.369   1.889   0.861
19884W        W79321  39.925   3.261  10.439
19885W        W79322  33.947   9.798   4.832
19886W        W79323   8.215  36.968   1.359
19887W        W79324  40.961  15.215   3.171
19888W        W79325  36.029  23.069  12.429
19889W        W79326  20.635  39.339   0.744
19890W        W79327  23.706  30.147  14.286
19891W        W79328   2.960  37.354   0.737
19892W        W79329  43.339  16.731  12.367
19893W        W79330  38.063  11.152   0.381
19894W        W79331  22.066   3.826   3.835
19895W        W79332  41.812  23.671   4.780
19896W        W79333  23.511  24.514  14.945
19897W        W79334  16.309  26.586  13.022
19898W        W79335  30.578   6.766   0.336
19899W        W79336  38.569   7.834  12.575
19900W        W79337  29.055  34.578   4.771
19901W        W79338  23.041  11.672   2.255
19902W        W79339  12.765  14.282  10.405
19903W        W79340  36.036  31.455  11.065
19904W        W79341   5.327  13.343   1.337
19905W        W79342  24.088  15.178  10.476
19906W        W79343  43.782  17.648  11.942
19907W        W79344  14.325  26.466   1.245
19908W        W79345   4.412  16.184  10.515
19909W        W79346  28.136  36.928  13.510
19910W        W79347  20.198  42.924   4.186
19911W        W79348  20.693  35.454  11.006
19912W        W79349  10.737  23.238  13.852
19913W        W79350  36.882  25.998   3.733
19914W        W79351  29.445   1.277   1.726
19915W        W79352  34.968   3.235  12.876
19916W        W79353   5.246  17.727   3.293
19917W        W79354  16.219  11.280   1.715
19918W        W79355  36.367  11.831   0.437
19919W        W79356  38.387  10.186   4.185
19920W        W79357  40.038  11.867  14.969
19921W        W79358  23.162   4.292  11.977
19922W        W79359  43.875  18.591  12.532
19923W        W79360  34.597   1.311   0.423
19924W        W79361  37.501  44.913   3.343
19925W        W79362  16.709   1.306  12.950
19926W        W79363   5.695   9.329   3.666
19927W        W79364  38.853  16.213  14.011
19928W        W79365  36.929  22.150  11.096
19929W        W79366  33.575  29.656  14.766
19930W        W79367  39.421  21.035   2.256
19931W        W79368  38.877  31.108   2.837
19932W        W79369  41.930   4.346  11.415
19933W        W79370  12.253   0.440  14.012
19934W        W79371  29.602  26.191   3.842
19935W        W79372  40.929  33.494   4.334
19936W        W79373   3.873  29.042   4.127
19937W        W79374  36.560  16.236   0.924
19938W        W79375  22.700   5.881   2.804
19939W        W79376  44.459  20.552  13.512
19940W        W79377  11.237  11.253  11.886
19941W        W79378  27.495   3.802  11.098
19942W        W79379  28.588   8.291   0.749
19943W        W79380  17.679  32.902   1.321
19944W        W79381   7.362  29.474   2.383
19945W        W79382  39.808  12.141  13.035
19946W        W79383   9.176  41.789   4.766
19947W        W79384   4.703  32.998  13.944
19948W        W79385  39.965  44.462  10.037
19949W        W79386  12.117  29.004  12.346
19950W        W79387  38.848  38.854   1.851
19951W        W79388   5.770   2.810   4.759
19952W        W79389  43.442   8.718  10.476
19953W        W79390  10.378  22.647  12.420
19954W        W79391  20.173  21.586  11.924
19955W        W79392  22.724  41.971   3.216
19956W        W79393  13.659  31.466  11.040
19957W        W79394  32.903  39.970   2.312
19958W        W79395  32.454  31.036   2.737
19959W        W79396  31.406  11.766  10.557
19960W        W79397  17.117  31.982   4.136
19961W        W79398   1.364  39.998   1.280
19962W        W79399  32.615  18.231   0.841
19963W        W79400  34.462   1.474   0.871
19964W        W79401  30.435  44.871   3.312
19965W        W79402  25.608  35.556  13.896
19966W        W79403  29.441  25.124  10.888
19967W        W79404  23.662  38.992   2.704
19968W        W79405  24.522  35.602   3.649
19969W        W79406  35.505  26.077   0.346
19970W        W79407  26.003   4.409   4.620
19971W        W79408  27.111   2.906   2.372
19972W        W79409  19.099   0.334   1.873
19973W        W79410  16.240  42.296   9.455
19974W        W79411  26.486  37.519  12.914
19975W        W79412  23.206  30.003  14.815
19976W        W79413  35.452   9.776   4.682
19977W        W79414   1.853  24.607  10.504
19978W        W79415   4.729  30.582   2.861
19979W        W79416   7.836  22.691  12.488
19980W        W79417  26.150   7.755   4.272
19981W        W79418   7.366  32.552   2.380
19982W        W79419  21.106  37.918  12.983
19983W        W79420  25.696  16.282   3.179
19984W        W79421  39.059   3.450  12.477
19985W        W79422   5.818  34.936   0.966
19986W        W79423  27.678  36.979   3.362
19987W        W79424   9.303  21.197   4.760
19988W        W79425  14.226  19.103  14.457
19989W        W79426  29.554  21.680   2.758
19990W        W79427  37.918  33.963  12.095
19991W        W79428  25.169  41.935   2.776
19992W        W79429  28.957  24.144  11.076
19993W        W79430  27.100  15.695  11.581
19994W        W79431  15.293  26.527   3.269
19995W        W79432   6.419   4.774   4.833
19996W        W79433  12.283  11.353  14.473
19997W        W79434  44.859  20.646   3.649
19998W        W79435  27.093   5.790  10.561
19999W        W79436  24.617  19.674   0.938
20000W        W79437  43.818  20.112  13.871
20001W        W79438  23.733   5.850   0.809
20002W        W79439  41.819  14.187   1.826
20003W        W79440  28.187   4.877  14.809
20004W        W79441  34.073  35.603   3.246
20005W        W79442   2.873  20.526   4.354
20006W        W79443  33.603  27.518  13.890
20007W        W79444  19.693  36.032  12.996
20008W        W79445  27.036   0.788   2.273
20009W        W79446  37.541  23.595  13.970
20010W        W79447  26.559  17.592   0.923
20011W        W79448  13.210  12.685   3.313
20012W        W79449  20.208  15.264  10.644
20013W        W79450  37.456  25.638  13.334
20014W        W79451   3.904  27.108  12.471
20015W        W79452  11.256   8.809   2.688
20016W        W79453   5.267  35.591   1.877
20017W        W79454  24.993  32.093   2.865
20018W        W79455  33.063  32.908  10.597
20019W        W79456  23.992  25.535  14.848
20020W        W79457   2.301  19.039  10.422
20021W        W79458   3.449  29.465   1.369
20022W        W79459   0.958   6.765   4.784
20023W        W79460  42.871   1.470  12.019
20024W        W79461  15.235  14.767   2.393
20025W        W79462  29.110  39.358  13.480
20026W        W79463  13.748  44.345  13.545
20027W        W79464   4.865   3.786  12.364
20028W        W79465   1.807  19.129  13.433
20029W        W79466   6.918   5.777  13.928
20030W        W79467  23.532  17.139  10.978
20031W        W79468  19.089  37.340   5.236
20032W        W79469  31.012  38.407   3.803
20033W        W79470  41.973  26.174   2.727
20034W        W79471  10.714  32.044   1.219
20035W        W79472   0.257   6.911   2.323
20036W        W79473  17.300  12.650  12.500
20037W        W79474  18.772   6.856  11.868
20038W        W79475  42.894  29.524   4.302
20039W        W79476   4.892  23.039   9.507
20040W        W79477  10.195   7.196  13.363
20041W        W79478  37.529  44.439   3.829
20042W        W79479  31.148  37.506  10.446
20043W        W79480  41.519  30.058  12.571
20044W        W79481  39.439  21.517  10.599
20045W        W79482  37.984  21.153  12.960
20046W        W79483  27.125   1.908  13.972
20047W        W79484  32.045   4.272   0.861
20048W        W79485  41.810  14.754  10.515
20049W        W79486  38.945  11.155   0.825
20050W        W79487  44.259   4.281   4.805
20051W        W79488  36.551  17.133  11.873
20052W        W79489  33.581  25.034  11.899
20053W        W79490  22.127  36.857  10.033
20054W        W79491  26.094  21.520   0.430
20055W        W79492   5.892  11.218   1.315
20056W        W79493   5.843   4.784   2.677
20057W        W79494   0.757  11.629  12.913
20058W        W79495  24.016   0.490  10.438
20059W        W79496  13.225  16.162  13.831
20060W        W79497   9.827  11.669  12.060
20061W        W79498  43.016  12.356  14.847
20062W        W79499  40.813   3.367   4.764
20063W        W79500  35.447   2.918  14.385
20064W        W79501  19.258   0.744  11.995
20065W        W79502  24.659  18.576   3.364
20066W        W79503   1.327  16.614   0.361
20067W        W79504  12.129  43.357   4.659
20068W        W79505  21.514  44.289   1.927
20069W        W79506  33.055  21.540  11.400
20070W        W79507  21.069  42.295   1.715
20071W        W79508  40.484  21.144  12.078
20072W        W79509  13.722   7.819  12.994
20073W        W79510  21.553  37.449  13.001
20074W        W79511   5.311  16.607   1.243
20075W        W79512  42.336   8.664   0.403
20076W        W79513   8.362  32.117   1.317
20077W        W79514  40.814  39.885  10.996
20078W        W79515  26.128  28.447   3.711
20079W        W79516  24.040  36.097   1.372
20080W        W79517   5.194   7.905  14.483
20081W        W79518  25.494   0.753  11.083
20082W        W79519  16.601   0.400   3.757
20083W        W79520  40.457  19.691   4.823
20084W        W79521  38.404  29.515   3.203
20085W        W79522  17.216  31.100   3.869
20086W        W79523  12.297  19.590  11.978
20087W        W79524  27.960   5.825  10.926
20088W        W79525  43.424   5.272   4.598
20089W        W79526   8.808  37.374   1.894
20090W        W79527  44.321  39.009   1.272
20091W        W79528  15.211  28.147  14.798
20092W        W79529   7.804  12.735   9.940
20093W        W79530  44.354  18.177   2.780
20094W        W79531   3.900  41.924   1.359
20095W        W79532  25.023  21.100  12.871
20096W        W79533  11.162  13.339   0.283
20097W        W79534  21.724   1.453  13.350
20098W        W79535  38.926   9.843  12.372
20099W        W79536  27.606  41.533  11.374
20100W        W79537  14.692   4.267  12.427
20101W        W79538  40.539  25.975   2.768
20102W        W79539  30.481  31.991   4.167
20103W        W79540  27.649  34.608   2.308
20104W        W79541  12.230  10.139   2.260
20105W        W79542   8.866  37.945   5.136
20106W        W79543  38.043  39.531  12.435
20107W        W79544  29.125  10.694  10.585
20108W        W79545   6.699  33.115   1.910
20109W        W79546   3.850  39.825  10.945
20110W        W79547  21.732   9.383   3.859
20111W        W79548  15.759  39.960   3.305
20112W        W79549   8.755  38.970   1.789
20113W        W79550  22.707  13.336  13.513
20114W        W79551  15.294  13.115  14.940
20115W        W79552  23.114  13.735   3.267
20116W        W79553  14.306   5.791   2.357
20117W        W79554  18.165  40.457  13.415
20118W        W79555  33.573  23.500   2.715
20119W        W79556  13.158  13.763   2.205
20120W        W79557  27.546   6.336   4.675
20121W        W79558  30.093  40.305  12.070
20122W        W79559  21.602  28.056  12.063
20123W        W79560  36.073  27.112  11.105
20124W        W79561   8.701   1.371  13.959
20125W        W79562  23.663  36.448  13.059
20126W        W79563  16.135  37.980   5.761
20127W        W79564  16.086  25.645   2.776
20128W        W79565  42.822  33.093   4.676
20129W        W79566  38.382  26.701   5.198
20130W        W79567  33.622  37.389  12.841
20131W        W79568  33.072  41.464  14.428
20132W        W79569  13.178  34.990  14.777
20133W        W79570  40.525  11.790  12.457
20134W        W79571   2.960  31.050  13.918
20135W        W79572  23.731  32.987   3.690
20136W        W79573  32.466  29.169  11.396
20137W        W79574  11.237  17.790  13.313
20138W        W79575  37.421  25.983  12.454
20139W        W79576   2.783  11.831   1.760
20140W        W79577  41.894  34.019  12.939
20141W        W79578   4.404  40.486   4.601
20142W        W79579  10.825  40.460  13.896
20143W        W79580  31.935   8.292   3.269
20144W        W79581  28.556  28.478   2.778
20145W        W79582   5.745  24.218   3.266
20146W        W79583  41.524   5.918  14.958
20147W        W79584  33.553  40.839  11.496
20148W        W79585   0.900  15.642   1.760
20149W        W79586  16.717  33.446   2.322
20150W        W79587  28.151   6.732   0.386
20151W        W79588  28.087   5.782  10.616
20152W        W79589   7.846  33.468   3.268
20153W        W79590  26.956  43.805   4.248
20154W        W79591   1.896  25.698  14.002
20155W        W79592  15.763  18.193   2.724
20156W        W79593  15.178  16.585  12.535
20157W        W79594   4.792  31.619   4.237
20158W        W79595  25.485  35.084   4.121
20159W        W79596  24.501  42.828   0.806
20160W        W79597   1.757   8.197  13.942
20161W        W79598   3.714  44.839  13.935
20162W        W79599  10.761  44.804  10.455
20163W        W79600  18.088  40.913  13.038
20164W        W79601  41.320  13.690   4.303
20165W        W79602  36.943   7.281  13.009
20166W        W79603   2.907   0.268   0.745
20167W        W79604  13.300  24.974   5.294
20168W        W79605  14.819   0.441  11.123
20169W        W79606  18.577   7.899  14.987
20170W        W79607  41.809  32.958   4.669
20171W        W79608  18.655   9.373  11.580
20172W        W79609  10.361  26.650   4.833
20173W        W79610   1.914  41.866  11.501
20174W        W79611  27.483  14.771   2.236
20175W        W79612  18.079  35.099   4.322
20176W        W79613   3.819  33.620   4.245
20177W        W79614  33.891  42.953  10.493
20178W        W79615   0.750  44.312  12.365
20179W        W79616  44.843  31.610   2.695
20180W        W79617  12.786  14.118   4.711
20181W        W79618  39.932   6.735   3.655
20182W        W79619   1.829  36.412  10.614
20183W        W79620  29.924   8.778  12.965
20184W        W79621  40.957  20.075   0.342
20185W        W79622   9.667  32.930  10.579
20186W        W79623  28.938  14.180  14.807
20187W        W79624   9.257  34.531  10.529
20188W        W79625  14.701  27.183  11.541
20189W        W79626   0.776   1.466   3.701
20190W        W79627  42.463  43.827  12.561
20191W        W79628  31.614  31.580  14.972
20192W        W79629   4.250  20.096  12.352
20193W        W79630  12.330   5.881   1.352
20194W        W79631  21.747  24.482  12.876
20195W        W79632  44.916  22.112   1.786
20196W        W79633  42.391  25.527  14.369
20197W        W79634  35.852  13.680  12.037
20198W        W79635  23.188  39.503   1.248
20199W        W79636  42.925   6.340   4.227
20200W        W79637  17.638  24.651   1.387
20201W        W79638  43.376   4.759  11.389
20202W        W79639  10.719  17.190   0.949
20203W        W79640  13.630   5.726   0.844
20204W        W79641   5.415  30.582  14.993
20205W        W79642  33.916   0.966  13.808
20206W        W79643   7.846  22.536   3.386
20207W        W79644  20.112  12.243   1.419
20208W        W79645  13.780  13.179  10.985
20209W        W79646   9.344  38.909  13.331
20210W        W79647  11.747  43.323   2.883
20211W        W79648   1.898  15.624   1.265
20212W        W79649  27.153  10.243  12.840
20213W        W79650  29.957  20.075  11.005
20214W        W79651  40.999   4.436   3.778
20215W        W79652  17.799   5.859  11.061
20216W        W79653   9.724  35.596  13.519
20217W        W79654  31.943  36.865  13.400
20218W        W79655  18.147  11.137   3.633
20219W        W79656  13.812  25.689   2.364
20220W        W79657  26.071  30.621   3.212
20221W        W79658  36.847  29.663   4.150
20222W        W79659   4.894  43.863  13.822
20223W        W79660   2.841   2.232   4.793
20224W        W79661  40.898   4.762   1.252
20225W        W79662  17.560  28.114   3.227
20226W        W79663  30.625  41.495  13.959
20227W        W79664   8.877  26.525   4.165
20228W        W79665  25.015  11.785   0.359
20229W        W79666  12.221  28.965   4.232
20230W        W79667  40.903  15.735  11.910
20231W        W79668  34.006  42.953  13.059
20232W        W79669  44.429   4.442  14.997
20233W        W79670  20.631  39.944   1.899
20234W        W79671   8.880  32.408   4.788
20235W        W79672   3.259  26.138  13.059
20236W        W79673   8.831  29.581   4.664
20237W        W79674  40.026  22.170  11.011
20238W        W79675   8.795  31.014  11.899
20239W        W79676   1.468   5.883   3.371
20240W        W79677  16.284  24.606   0.299
20241W        W79678  41.830  37.078  11.469
20242W        W79679  40.397  36.584  13.516
20243W        W79680  20.098  27.989   4.730
20244W        W79681  29.473   7.175  14.343
20245W        W79682  24.109  31.531  13.020
20246W        W79683  27.550  20.568  11.506
20247W        W79684  20.270   5.414   3.843
20248W        W79685  40.891  20.550   2.735
20249W        W79686  18.057  42.301  12.344
20250W        W79687  12.254  27.140   0.797
20251W        W79688   3.951  27.522  13.952
20252W        W79689  27.165  14.277   1.304
20253W        W79690  13.630  28.567  11.957
20254W        W79691  28.042  33.421  10.506
20255W        W79692  21.585  13.277  13.446
20256W        W79693   8.873  18.789  14.971
20257W        W79694   6.424  32.973   1.408
20258W        W79695   1.250   8.876  13.445
20259W        W79696  29.630  17.657  10.969
20260W        W79697  22.599   0.465  11.962
20261W        W79698  41.953  37.469  11.034
20262W        W79699   6.800  37.057  12.991
20263W        W79700  15.238  26.094  13.538
20264W        W79701  15.792  41.398   1.293
20265W        W79702  40.531  23.613   3.326
20266W        W79703  38.428   3.226  12.523
20267W        W79704  43.863  37.418   1.880
20268W        W79705  13.643  15.267  13.351
20269W        W79706  44.782  28.659   0.284
20270W        W79707  44.421   0.422  11.545
20271W        W79708  10.725  17.754  13.010
20272W        W79709  11.351  20.128  14.310
20273W        W79710  14.223  36.392   1.847
20274W        W79711  12.120  34.104   4.261
20275W        W79712  33.985  21.256   2.319
20276W        W79713   2.456   2.789  11.496
20277W        W79714  15.097  27.085   2.764
20278W        W79715   4.819  39.545   1.270
20279W        W79716  14.253   6.247   1.804
20280W        W79717   5.327  28.438  10.484
20281W        W79718  23.068  44.390  11.513
20282W        W79719  27.521  29.652   0.936
20283W        W79720  13.165  34.375  10.424
20284W        W79721  26.644   4.801   1.259
20285W        W79722  23.085  29.980   3.667
20286W        W79723  37.371  26.160   4.205
20287W        W79724  15.208   1.780   1.768
20288W        W79725  21.618  13.641  12.463
20289W        W79726  14.648  44.422   5.138
20290W        W79727  24.973  42.502  14.503
20291W        W79728  38.918  14.150   5.264
20292W        W79729  35.079  31.613   0.786
20293W        W79730  29.606  35.419  12.506
20294W        W79731  15.672  43.773  11.589
20295W        W79732  35.858  13.782   0.915
20296W        W79733  34.455   6.843  12.049
20297W        W79734  10.285  21.579  13.545
20298W        W79735   6.205  23.547  13.814
20299W        W79736   5.883  40.799   4.169
20300W        W79737  15.703  44.449   0.883
20301W        W79738   8.268  29.954   1.883
20302W        W79739  13.139  36.989   4.269
20303W        W79740  36.907   3.409  10.990
20304W        W79741  17.718  44.460   4.258
20305W        W79742  22.556  27.590  11.559
20306W        W79743  38.976   5.883  10.938
20307W        W79744  36.412  21.055  13.038
20308W        W79745  27.499  25.603  12.355
20309W        W79746  29.502   7.873  14.923
20310W        W79747  37.444  42.855   1.851
20311W        W79748   9.699   6.324   3.739
20312W        W79749  12.238   6.872  10.917
20313W        W79750  33.905  42.282  14.002
20314W        W79751   1.424  27.948   4.256
20315W        W79752   3.436   0.863  13.448
20316W        W79753  19.200  22.606   1.911
20317W        W79754   8.219   6.898   0.258
20318W        W79755  31.996  13.670  14.790
20319W        W79756  20.076   7.229  11.935
20320W        W79757  10.784  16.627   3.826
20321W        W79758  20.147  42.856  11.421
20322W        W79759  27.609  44.349   4.162
20323W        W79760  33.597   1.439  13.925
20324W        W79761  25.489  32.558  10.567
20325W        W79762  12.308  32.014   1.805
20326W        W79763  37.063  20.065  13.796
20327W        W79764  27.192  14.674  12.994
20328W        W79765  26.992  16.125   1.424
20329W        W79766   6.792  40.045   4.769
20330W        W79767   6.281  15.129  10.996
20331W        W79768  25.558  25.714   3.728
20332W        W79769  32.615  43.812  13.951
20333W        W79770  24.979   1.967   2.211
20334W        W79771  27.479  11.816   0.814
20335W        W79772   5.250  44.897   3.652
20336W        W79773  22.708  34.908   2.326
20337W        W79774  30.979   4.245   1.414
20338W        W79775  15.743  26.543  13.379
20339W        W79776  34.964  30.094   3.344
20340W        W79777   4.319   9.227  12.477
20341W        W79778  23.144  16.583  13.810
20342W        W79779  17.734  19.657  10.934
20343W        W79780  17.607  35.381  11.005
20344W        W79781  27.569  16.247   0.400
20345W        W79782  44.351  38.517   5.596
20346W        W79783   5.349  34.549  14.312
20347W        W79784   2.448  38.534   0.260
20348W        W79785  41.479  14.224  12.023
20349W        W79786  29.504  11.811  13.814
20350W        W79787  14.338  25.974   0.863
20351W        W79788  33.582   2.760   4.788
20352W        W79789  21.082  41.837  10.896
20353W        W79790  36.933  42.976   2.836
20354W        W79791   3.876  30.572   1.873
20355W        W79792  13.728  15.634   1.826
20356W        W79793  42.965  23.226  12.027
20357W        W79794  19.550   8.772   4.328
20358W        W79795  35.854  40.485   0.787
20359W        W79796  14.705  17.608  13.393
20360W        W79797   2.748  17.743  11.959
20361W        W79798  17.769  17.703  13.365
20362W        W79799  24.634   2.794  14.406
20363W        W79800  40.429  19.602  11.885
20364W        W79801  44.269  14.148   0.454
20365W        W79802  43.318  23.644  14.459
20366W        W79803  17.213   4.257   1.317
20367W        W79804  39.867   5.319   2.895
20368W        W79805  34.999  30.929   2.836
20369W        W79806   5.923  22.080  11.605
20370W        W79807  38.819   5.416  13.395
20371W        W79808  34.073   6.801   1.445
20372W        W79809  14.697  38.016   4.244
20373W        W79810  38.473   2.763   4.268
20374W        W79811  23.084   3.795  14.304
20375W        W79812   2.740  12.651  13.445
20376W        W79813  35.590  43.456  10.608
20377W        W79814  35.559  30.458   0.876
20378W        W79815   2.425  41.355  11.541
20379W        W79816  12.249   0.755  12.970
20380W        W79817  31.550  33.939  14.309
20381W        W79818  31.571  29.033   2.233
20382W        W79819  24.205  28.056   1.749
20383W        W79820   8.204  44.904   2.336
20384W        W79821  32.045  27.002   4.265
20385W        W79822  18.669  26.140   2.669
20386W        W79823  38.497  29.666   4.289
20387W        W79824  17.786  34.448  11.122
20388W        W79825  39.881  43.918   2.318
20389W        W79826  23.538  29.958   4.200
20390W        W79827  23.542   9.859   0.481
20391W        W79828  40.856   2.750   4.180
20392W        W79829  35.418   7.204   2.767
20393W        W79830  30.510  37.930  10.634
20394W        W79831  23.632  38.018   4.603
20395W        W79832  16.663  34.017   2.268
20396W        W79833   6.286  14.794  14.945
20397W        W79834  32.896   0.825  12.443
20398W        W79835  26.174  19.276   1.294
20399W        W79836  28.580  39.879  11.057
20400W        W79837  27.614  16.232   4.734
20401W        W79838  22.242   8.828  13.344
20402W        W79839  32.627  15.200  14.333
20403W        W79840  13.672  11.631   1.713
20404W        W79841  10.196   1.348   1.303
20405W        W79842  16.775  44.459   4.261
20406W        W79843   0.459  38.372  11.997
20407W        W79844  24.582  19.257  10.425
20408W        W79845  33.588  29.949   3.339
20409W        W79846  39.379  18.262   3.666
20410W        W79847   8.708  31.479  14.990
20411W        W79848  35.936   5.306   2.850
20412W        W79849  21.663  15.646   0.962
20413W        W79850  26.593  14.830   0.871
20414W        W79851  14.222  38.474   4.723
20415W        W79852  25.120   7.828  11.475
20416W        W79853  18.696  37.357  11.599
20417W        W79854  39.883  15.141  11.388
20418W        W79855   5.344  23.582  12.404
20419W        W79856  39.840   8.694  13.422
20420W        W79857  34.102  36.891   0.728
20421W        W79858  16.724  18.229  14.513
20422W        W79859   0.442  40.499   5.247
20423W        W79860  25.063  35.565  12.000
20424W        W79861  39.909  41.016  11.902
20425W        W79862   8.350  27.082  12.012
20426W        W79863  29.167  23.650  14.758
20427W        W79864  36.555  37.416   2.692
20428W        W79865  13.350  32.489   3.750
20429W        W79866  21.058  35.528  10.580
20430W        W79867  14.193  31.899   3.304
20431W        W79868   3.247  20.049   4.713
20432W        W79869  20.237  22.250   4.675
20433W        W79870  15.595  36.913  11.858
20434W        W79871   5.410  35.416   0.838
20435W        W79872  32.964   7.748   1.408
20436W        W79873  28.504  41.893  13.917
20437W        W79874  25.657  22.141  12.079
20438W        W79875   7.322  43.009  14.853
20439W        W79876  11.726  22.233  10.986
20440W        W79877   9.773   9.387   0.261
20441W        W79878  18.078   1.270   1.734
20442W        W79879  31.147  31.552  14.970
20443W        W79880   0.919  29.088  11.016
20444W        W79881  30.506   5.695   4.144
20445W        W79882   0.839   4.914  12.385
20446W        W79883  11.759  21.037   0.276
20447W        W79884  24.215  34.467  12.983
20448W        W79885   9.314   8.661  10.983
20449W        W79886  26.023  14.105   2.777
20450W        W79887   4.725  11.800   0.365
20451W        W79888   2.238  34.532  12.003
20452W        W79889  33.591   1.941  11.944
20453W        W79890  29.465  35.501  10.474
20454W        W79891  27.956   3.310  12.512
20455W        W79892  22.616   5.244  10.528
20456W        W79893  32.474   7.763   2.221
20457W        W79894  39.423  23.626  12.847
20458W        W79895  35.541  16.644  13.411
20459W        W79896  24.181   6.865  12.933
20460W        W79897  22.629  10.732   0.420
20461W        W79898  35.901   5.307   0.432
20462W        W79899   0.278  22.572  13.328
20463W        W79900  15.699   1.330   2.694
20464W        W79901  30.975   6.340   4.615
20465W        W79902  12.234  11.348   3.370
20466W        W79903  38.508  21.068   0.946
20467W        W79904  26.606   1.964   0.858
20468W        W79905   1.360  39.053   3.689
20469W        W79906  22.715  10.813  11.477
20470W        W79907  16.682  13.170  11.077
20471W        W79908  44.795  41.022  11.878
20472W        W79909  43.867  23.654  14.937
20473W        W79910  16.628   6.216   1.225
20474W        W79911  44.335  27.466  13.347
20475W        W79912   9.729   8.336  12.828
20476W        W79913  41.424   9.675   3.780
20477W        W79914   0.843  10.671   1.395
20478W        W79915  44.262  10.737   4.729
20479W        W79916  22.738  33.079  11.590
20480W        W79917  36.898  21.686  12.442
20481W        W79918  34.477  34.957   0.846
20482W        W79919  39.384  25.546   2.813
20483W        W79920  17.784  23.492  10.520
20484W        W79921  22.138  32.493   0.453
20485W        W79922  12.307  34.507  10.411
20486W        W79923  44.957  15.777   2.277
20487W        W79924  25.053  13.269  14.506
20488W        W79925  25.692  30.646  13.900
20489W        W79926  32.608  29.164   0.445
20490W        W79927   5.437  12.633   4.287
20491W        W79928  25.696   5.832   2.792
20492W        W79929  25.039  13.334  10.888
20493W        W79930  23.610  13.348   2.758
20494W        W79931   2.865  14.138  11.903
20495W        W79932  19.705  24.200   0.243
20496W        W79933  41.462   3.710   3.261
20497W        W79934  22.540  10.384   2.179
20498W        W79935   0.487   6.829  11.384
20499W        W79936   7.256   7.825   0.288
20500W        W79937   5.814  14.775   4.270
20501W        W79938  41.511  32.900  13.452
20502W        W79939  39.857  41.936   0.964
20503W        W79940  38.419  17.619  14.380
20504W        W79941   9.863  33.543  13.884
20505W        W79942  34.872  15.667   2.803
20506W        W79943  19.734  27.040   4.671
20507W        W79944  26.630  42.289   2.857
20508W        W79945  20.201   8.354   4.117
20509W        W79946  35.417  37.502  13.025
20510W        W79947   1.266  27.176  14.312
20511W        W79948  38.460  27.595   4.320
20512W        W79949   8.263   3.807  12.911
20513W        W79950  10.743  17.169   4.218
20514W        W79951  25.172   7.690   3.737
20515W        W79952  21.678  21.142  10.990
20516W        W79953  20.708  12.178  11.558
20517W        W79954  26.588  16.695  10.075
20518W        W79955  23.141  38.970  12.004
20519W        W79956  43.398  35.062  13.985
20520W        W79957   4.409   6.253   2.665
20521W        W79958  13.178  17.644  13.844
20522W        W79959  33.504  19.208   2.786
20523W        W79960  16.629  34.101   1.236
20524W        W79961  36.047   8.216   4.669
20525W        W79962  36.968   6.305   0.933
20526W        W79963   3.738  18.130   0.423
20527W        W79964  33.530  11.633   4.687
20528W        W79965  43.455  19.714   2.233
20529W        W79966  40.313  10.695  13.395
20530W        W79967   8.358  15.108  14.397
20531W        W79968  29.093  10.300   0.775
20532W        W79969   3.790  38.470  14.784
20533W        W79970  41.438  37.851  12.823
20534W        W79971  36.010  20.769   0.834
20535W        W79972  39.467  14.203  12.462
20536W        W79973   4.395   0.281   0.399
20537W        W79974   5.281  15.094  10.891
20538W        W79975  15.762  23.619   1.847
20539W        W79976   1.957  41.039   4.799
20540W        W79977  35.932  14.784   0.946
20541W        W79978  19.271  35.935  11.504
20542W        W79979   3.767   0.298   1.403
20543W        W79980   6.361   3.254  13.309
20544W        W79981  13.731   9.290  14.027
20545W        W79982  18.704  24.099  13.522
20546W        W79983  42.307  33.958   4.309
20547W        W79984  21.185  26.009   0.795
20548W        W79985  35.013  10.854  11.510
20549W        W79986  43.793  40.973   1.436
20550W        W79987  34.991  25.570  14.945
20551W        W79988   0.291  18.191  13.343
20552W        W79989  19.542  24.648   9.953
20553W        W79990   3.806  29.128   2.262
20554W        W79991  43.872  28.640  11.893
20555W        W79992  19.279  36.916   3.752
20556W        W79993  35.000  30.572  11.990
20557W        W79994  21.667  36.567   2.180
20558W        W79995  29.950  35.042  13.934
20559W        W79996  41.423   8.745   3.745
20560W        W79997  17.297  43.458   3.833
20561W        W79998  17.682  30.918  11.959
20562W        W79999  11.197  12.643  11.416
20563W        W80000  15.208   3.380  14.019
20564W        W80001   5.408   4.244   3.320
20565W        W80002  16.311  43.334   0.342
20566W        W80003  33.059   7.269  14.502
20567W        W80004  17.228   7.244  10.531
20568W        W80005  11.301  16.730   4.143
20569W        W80006  34.118  27.040   0.819
20570W        W80007  13.283   6.423   3.635
20571W        W80008  13.203  41.317   4.339
20572W        W80009  43.931  12.706   4.622
20573W        W80010  23.528  10.709  10.968
20574W        W80011  20.593  23.691  13.390
20575W        W80012  24.704  20.551   1.844
20576W        W80013  32.075  25.965   3.219
20577W        W80014   0.400  16.748   0.963
20578W        W80015   8.298  23.666  14.797
20579W        W80016  44.327   7.889   0.257
20580W        W80017  23.141  18.272   2.871
20581W        W80018   4.935  26.062  14.814
20582W        W80019  20.128   8.324  11.939
20583W        W80020  35.575  41.849   1.355
20584W        W80021   5.344   8.661   4.300
20585W        W80022  28.108  42.876   2.331
20586W        W80023  43.801   6.292   4.668
20587W        W80024  26.623   4.212  11.927
20588W        W80025  32.016  22.189  14.811
20589W        W80026  35.372   4.385  11.976
20590W        W80027  25.965  33.052  12.865
20591W        W80028   9.671  37.582   3.155
20592W        W80029   4.445  41.329  10.893
20593W        W80030  36.069  33.943  10.974
20594W        W80031  40.971  42.454   3.811
20595W        W80032  31.435  18.747   3.157
20596W        W80033   5.328   1.977   2.776
20597W        W80034  34.910  29.508   2.797
20598W        W80035  11.815  29.173   1.416
20599W        W80036  13.764  32.554   1.695
20600W        W80037  21.143  40.883   2.363
20601W        W80038   2.838   5.754  12.430
20602W        W80039  41.965   2.883  11.905
20603W        W80040   4.404  12.698  14.285
20604W        W80041  24.703   0.290   1.899
20605W        W80042   6.183  22.517   0.748
20606W        W80043  24.526   7.227   4.790
20607W        W80044  17.108  27.063  13.479
20608W        W80045  33.530  21.069   2.372
20609W        W80046  11.259  39.894   4.658
20610W        W80047   9.306   2.946   3.644
20611W        W80048  36.406  12.672  14.338
20612W        W80049  12.311   0.977   4.697
20613W        W80050  15.233  24.075   2.753
20614W        W80051  19.269  11.793   1.440
20615W        W80052  15.266  44.407   4.781
20616W        W80053  39.874  29.465   1.801
20617W        W80054  37.045  32.626  14.953
20618W        W80055  24.672  23.692   1.281
20619W        W80056  26.032  11.252  13.403
20620W        W80057  43.967  37.515  12.042
20621W        W80058  36.387  41.466   3.234
20622W        W80059  25.049  33.990   3.230
20623W        W80060  19.250  39.946   0.864
20624W        W80061  30.440  26.954   4.674
20625W        W80062   7.837  14.340  11.004
20626W        W80063  14.215   1.848   1.277
20627W        W80064   7.851  14.252   2.338
20628W        W80065   0.946  38.484   2.409
20629W        W80066  16.659  22.231  12.425
20630W        W80067  22.173  44.923   4.239
20631W        W80068   5.747  26.560  12.400
20632W        W80069  44.326   5.707  14.026
20633W        W80070  12.746  22.592   1.821
20634W        W80071   9.151  14.153   3.328
20635W        W80072   0.813  29.553  14.824
20636W        W80073  40.943  40.914  13.944
20637W        W80074  15.328  32.427  12.480
20638W        W80075  16.102   9.683   2.418
20639W        W80076  38.959  22.597   4.120
20640W        W80077  18.771  43.295  14.824
20641W        W80078  38.831  40.454  10.496
20642W        W80079  35.406  29.967  11.600
20643W        W80080  18.092  24.719   0.813
20644W        W80081   8.782   4.912   4.333
20645W        W80082   3.778   2.935   3.629
20646W        W80083  31.033  41.444  11.561
20647W        W80084  30.032  25.157  14.415
20648W        W80085  26.129  41.010   2.333
20649W        W80086  37.020  42.852   3.152
20650W        W80087  18.603  38.008  14.502
20651W        W80088  41.306  42.332   1.360
20652W        W80089  18.674  39.558  14.764
20653W        W80090  35.904  40.864   4.289
20654W        W80091  18.738  35.420  14.405
20655W        W80092  15.308  33.509   2.695
20656W        W80093  13.234   2.787  10.976
20657W        W80094  11.335  23.518   1.369
20658W        W80095   8.200  19.261  14.333
20659W        W80096  13.645  12.155  14.292
20660W        W80097  39.894  33.480   2.790
20661W        W80098  44.410  35.932  14.863
20662W        W80099  12.325  32.010  14.287
20663W        W80100  36.847   9.250  11.585
20664W        W80101  20.175   7.844   2.360
20665W        W80102  44.919  16.602  11.402
20666W        W80103  43.904  32.965  13.455
20667W        W80104  40.358   5.376  12.972
20668W        W80105   3.258  22.197   0.406
20669W        W80106  31.935  25.107   2.415
20670W        W80107  33.917  31.525  13.381
20671W        W80108  36.361  10.679  14.798
20672W        W80109  18.065  41.489   4.739
20673W        W80110  31.912  17.203  13.048
20674W        W80111  11.839  19.724  11.104
20675W        W80112  16.633  23.072  14.512
20676W        W80113  16.099  37.410   5.177
20677W        W80114   0.315  20.265   1.356
20678W        W80115  32.071  24.215   0.368
20679W        W80116  42.824   7.874  14.953
20680W        W80117  27.971  20.128   4.149
20681W        W80118  43.837  38.952   3.334
20682W        W80119  16.182  20.675   0.726
20683W        W80120  29.081  14.638  11.943
20684W        W80121  39.960  15.663   3.672
20685W        W80122   6.254  32.928   0.467
20686W        W80123   3.765   8.813  13.465
20687W        W80124  25.543   1.974   5.313
20688W        W80125  36.874  19.250  11.414
20689W        W80126  22.502  25.514   1.799
20690W        W80127  19.537   2.892  12.384
20691W        W80128  21.193  32.924   1.392
20692W        W80129  20.109  26.658  12.371
20693W        W80130   7.767  28.019   1.926
20694W        W80131  20.057  11.702  12.919
20695W        W80132  35.973  40.504   2.179
20696W        W80133  38.885   8.881   4.131
20697W        W80134   1.750  13.827  14.765
20698W        W80135  39.529  18.763   2.735
20699W        W80136  38.928   5.311  10.465
20700W        W80137  31.133  21.565   3.635
20701W        W80138  34.391  35.371  12.840
20702W        W80139  29.476  22.012  13.873
20703W        W80140  28.580  32.521   2.397
20704W        W80141  38.569  13.268  13.356
20705W        W80142  18.609  22.703  14.958
20706W        W80143  24.623  35.928   4.175
20707W        W80144  19.754   1.771   0.458
20708W        W80145  18.242  19.736   3.726
20709W        W80146  35.980   8.672   3.357
20710W        W80147  36.372  44.808  13.927
20711W        W80148  27.081   1.758   0.315
20712W        W80149   1.289  28.101  10.903
20713W        W80150   1.237   5.278  10.971
20714W        W80151  21.104  22.546   0.790
20715W        W80152  15.751   6.808  13.940
20716W        W80153   5.248  39.058   0.876
20717W        W80154  41.863  42.881   1.743
20718W        W80155   7.331  21.519   0.825
20719W        W80156  32.622  42.427   2.415
20720W        W80157  15.605   9.389  12.432
20721W        W80158  34.099   0.921   0.814
20722W        W80159  44.912   8.304  14.826
20723W        W80160  36.388  23.075   1.449
20724W        W80161  36.451  29.640   0.262
20725W        W80162   9.217  19.193  14.481
20726W        W80163  25.205  34.547   0.799
20727W        W80164   6.306  18.212  14.472
20728W        W80165   9.839  35.912   2.726
20729W        W80166  42.491  36.451  12.381
20730W        W80167  10.312  30.964   3.775
20731W        W80168  44.467   3.408   1.905
20732W        W80169  12.710  21.163   0.740
20733W        W80170  41.851  14.217  10.939
20734W        W80171  14.769   4.805  11.501
20735W        W80172  38.552   7.174  13.991
20736W        W80173  31.898  10.327  11.453
20737W        W80174   8.218  22.104   3.323
20738W        W80175   6.231   7.337   4.159
20739W        W80176  14.827  40.931   3.832
20740W        W80177  12.633  21.201  11.612
20741W        W80178  27.467  10.289  14.295
20742W        W80179  38.960  10.231   3.261
20743W        W80180  31.515  29.593  13.881
20744W        W80181  29.942  30.092   1.297
20745W        W80182  41.972  36.079   3.629
20746W        W80183  10.799   5.883   1.273
20747W        W80184  27.064  11.814   0.933
20748W        W80185  25.590  15.717  14.462
20749W        W80186  10.358  38.063  11.033
20750W        W80187  36.371   8.402   3.256
20751W        W80188   2.940  26.007   1.702
20752W        W80189  10.268  42.400  11.872
20753W        W80190  14.186  35.591   1.720
20754W        W80191  20.083  20.664  12.971
20755W        W80192  15.686   2.871   1.339
20756W        W80193  22.692   3.317   4.243
20757W        W80194   3.253  24.714  13.884
20758W        W80195   6.813  35.053   2.311
20759W        W80196  42.478  34.997   4.307
20760W        W80197  31.547  20.187   3.202
20761W        W80198  43.474  33.059  13.414
20762W        W80199  44.810   9.186   2.775
20763W        W80200  13.783  21.731  12.466
20764W        W80201  33.889   3.868  12.827
20765W        W80202  44.909  44.931   4.735
20766W        W80203  40.855  27.597  11.387
20767W        W80204   0.351  40.432  12.426
20768W        W80205  18.205  27.609   4.820
20769W        W80206  25.664  44.812   3.151
20770W        W80207   9.662  44.845  14.449
20771W        W80208  19.578   3.930  13.921
20772W        W80209   2.864  38.000  14.366
20773W        W80210  39.396   9.347   4.654
20774W        W80211  29.047  42.499  13.851
20775W        W80212  13.161  14.752  14.761
20776W        W80213   9.351  22.572   4.631
20777W        W80214   7.306  40.877   0.368
20778W        W80215  15.229  27.613  10.982
20779W        W80216  42.867  24.645  11.022
20780W        W80217  31.143  31.982   2.875
20781W        W80218   5.705  31.106   4.136
20782W        W80219  28.995  30.135   0.782
20783W        W80220  41.890  36.894   3.283
20784W        W80221  44.391  24.482   3.831
20785W        W80222  36.866   9.360   1.860
20786W        W80223  35.861  36.945  11.038
20787W        W80224   6.854   8.401   0.884
20788W        W80225   6.220   8.171  14.914
20789W        W80226   5.761   9.364   2.733
20790W        W80227  12.359  20.581   4.734
20791W        W80228  10.326   3.731   2.854
20792W        W80229  29.502  18.133  13.876
20793W        W80230  22.653   2.828  12.884
20794W        W80231  29.102  34.030  13.017
20795W        W80232   2.388  44.489   2.396
20796W        W80233  28.621  31.642  12.485
20797W        W80234  11.812  33.991  12.012
20798W        W80235  36.964  39.822  11.579
20799W        W80236  27.688   5.224   4.757
20800W        W80237  43.015  25.632   1.374
20801W        W80238  19.536   7.360   3.190
20802W        W80239  10.783  24.546   0.747
20803W        W80240  40.987   2.865  11.546
20804W        W80241  39.966  43.290   1.743
20805W        W80242  10.743  22.515  14.889
20806W        W80243  24.551  23.541   4.715
20807W        W80244   4.432  28.674  13.996
20808W        W80245   8.180  22.650  13.471
20809W        W80246   9.344   9.331   1.316
20810W        W80247  34.378   6.722   4.732
20811W        W80248   7.762   9.366  11.046
20812W        W80249  13.782   5.919   4.341
20813W        W80250  34.031  15.329  13.336
20814W        W80251  28.144   2.352   3.326
20815W        W80252  20.648  22.236   4.763
20816W        W80253   4.728  43.783  13.031
20817W        W80254  23.171   0.387   4.232
20818W        W80255  10.178  40.895   2.742
20819W        W80256   7.188  28.629   0.386
20820W        W80257  28.558  35.513  12.873
20821W        W80258  19.057   8.371   1.267
20822W        W80259  15.320  36.531  12.929
20823W        W80260   6.826  33.511  10.578
20824W        W80261   1.971   7.264   3.749
20825W        W80262   3.785  38.836  14.930
20826W        W80263  18.610  29.949   1.913
20827W        W80264  30.646   1.883   2.345
20828W        W80265  24.684  13.304  12.071
20829W        W80266  24.557  21.736   4.347
20830W        W80267   2.929  44.371   3.361
20831W        W80268  35.499  10.235  12.476
20832W        W80269  21.022  11.164  14.494
20833W        W80270  15.820  15.684   3.303
20834W        W80271   9.739  19.151   2.688
20835W        W80272   2.284   4.336   4.682
20836W        W80273  25.978  41.983  14.918
20837W        W80274  39.031  21.101  13.426
20838W        W80275  36.474  29.591   3.786
20839W        W80276  13.171  17.226   1.891
20840W        W80277  32.927  36.515  13.455
20841W        W80278  19.186  34.590   3.764
20842W        W80279  11.317  35.068  13.006
20843W        W80280  34.905  36.364   4.723
20844W        W80281  21.048  34.484   4.323
20845W        W80282  15.127   5.734   2.790
20846W        W80283  33.623   6.923  14.998
20847W        W80284  27.580  21.255  11.933
20848W        W80285  22.713  33.961  12.476
20849W        W80286  43.276  14.678   3.832
20850W        W80287   2.286   1.906   5.304
20851W        W80288   7.898   4.246   4.799
20852W        W80289  43.971  21.177  11.581
20853W        W80290  14.271   9.329  11.457
20854W        W80291  17.101  27.117  12.970
20855W        W80292  29.462  14.794  12.447
20856W        W80293  26.131   9.789  13.529
20857W        W80294  28.515  20.658  12.933
20858W        W80295   9.821  25.042  12.840
20859W        W80296  32.082   0.351  14.389
20860W        W80297  14.733   8.838  13.801
20861W        W80298  13.313  21.217  14.968
20862W        W80299  35.008  20.702   2.837
20863W        W80300  40.341  32.956   0.315
20864W        W80301   6.208   0.796  11.588
20865W        W80302   7.759  36.386  11.545
20866W        W80303  40.544  31.150  14.835
20867W        W80304  36.852  40.536   4.224
20868W        W80305  30.101   1.443   1.365
20869W        W80306  42.954  39.414   3.175
20870W        W80307   7.891  18.577   3.734
20871W        W80308  21.585  25.665  11.407
20872W        W80309  31.007  36.495  11.557
20873W        W80310  40.841   0.420  14.973
20874W        W80311  22.111  29.006  12.082
20875W        W80312  17.645  15.329  14.354
20876W        W80313  16.604  25.486  11.500
20877W        W80314   0.442  34.959   3.327
20878W        W80315   1.475  18.280   3.159
20879W        W80316  44.461  39.828   0.923
20880W        W80317  44.477  25.150  13.930
20881W        W80318   7.265  25.108   1.396
20882W        W80319  12.678  28.951  10.518
20883W        W80320  28.631  26.693  13.360
20884W        W80321   7.362  13.179  14.309
20885W        W80322  33.923   6.922  11.563
20886W        W80323  21.566  43.303   0.802
20887W        W80324  32.447   5.788   1.772
20888W        W80325  37.494  33.950  14.411
20889W        W80326  36.097   1.786  14.887
20890W        W80327  39.029   0.752  10.439
20891W        W80328  39.420  18.102   2.760
20892W        W80329  30.591   9.673   1.219
20893W        W80330  35.874  44.426  14.772
20894W        W80331  15.220   5.730   2.371
20895W        W80332  43.368  26.028  11.088
20896W        W80333  10.319  39.331   1.797
20897W        W80334   3.732  42.837   0.393
20898W        W80335  19.543  29.458  14.797
20899W        W80336  14.701  28.938   0.262
20900W        W80337  33.510  28.967  10.442
20901W        W80338   8.219  44.929  11.083
20902W        W80339  44.770  33.107  14.761
20903W        W80340  27.132  24.049   5.629
20904W        W80341  23.640  36.954  10.934
20905W        W80342  40.054  23.210   2.321
20906W        W80343  11.313  31.548   0.290
20907W        W80344  16.210   2.962  14.803
20908W        W80345  21.101  15.766  10.922
20909W        W80346  32.075   3.734   1.341
20910W        W80347  17.584  33.563  12.568
20911W        W80348  43.322  10.345   4.675
20912W        W80349   0.932  25.167   1.901
20913W        W80350  13.813  29.966   2.356
20914W        W80351  42.911  40.536  11.490
20915W        W80352  25.528  35.891  10.549
20916W        W80353  35.992   5.314   1.827
20917W        W80354  16.574  20.701  12.087
20918W        W80355  42.796   3.349   3.225
20919W        W80356  18.721   9.313  12.961
20920W        W80357  23.218   3.288  13.547
20921W        W80358  44.887   1.257  14.304
20922W        W80359  36.454   2.365   0.747
20923W        W80360  31.555  25.521  11.050
20924W        W80361  21.737  24.645  13.381
20925W        W80362  37.343  41.948  13.345
20926W        W80363  13.606  17.609  13.535
20927W        W80364   0.829  30.939  14.775
20928W        W80365  23.731  40.520  13.411
20929W        W80366   4.787  31.145  10.974
20930W        W80367  20.728  25.599   0.441
20931W        W80368  39.340  15.670  10.524
20932W        W80369  19.598  28.082   1.846
20933W        W80370  14.155  20.558   2.868
20934W        W80371  37.070   8.845   4.778
20935W        W80372  14.760  29.156   3.308
20936W        W80373  30.081  40.906   2.685
20937W        W80374  28.977  13.814   3.154
20938W        W80375  22.141  21.201   9.495
20939W        W80376  33.384  32.959  14.928
20940W        W80377  30.594  18.745  12.971
20941W        W80378  23.605   0.905  11.923
20942W        W80379  23.609   4.433  13.963
20943W        W80380  16.667   2.471  10.581
20944W        W80381   3.736  21.529  14.515
20945W        W80382  22.699  26.490   1.776
20946W        W80383  20.138  41.378  10.561
20947W        W80384  13.296  27.954  13.953
20948W        W80385   6.246  21.588  14.977
20949W        W80386  10.740  17.104  13.501
20950W        W80387   7.264  34.430   4.197
20951W        W80388  26.569   8.680   4.123
20952W        W80389  11.851   3.424   3.665
20953W        W80390   3.427  25.663  10.610
20954W        W80391   4.338  14.337   4.700
20955W        W80392  26.952  23.153   3.761
20956W        W80393  23.699  41.001   3.870
20957W        W80394  43.435  44.808   4.210
20958W        W80395   5.771  41.314  10.915
20959W        W80396  41.945  43.395  13.496
20960W        W80397   0.761   6.209   1.244
20961W        W80398   9.209   2.947  14.420
20962W        W80399  20.243  36.447   2.767
20963W        W80400  39.506  14.327   2.813
20964W        W80401  12.217   9.697   1.798
20965W        W80402  13.824  22.519  13.392
20966W        W80403   5.334   6.878  10.603
20967W        W80404  23.700  21.065   4.130
20968W        W80405  38.536  11.283  11.976
20969W        W80406  12.328  29.634   2.882
20970W        W80407  43.970  15.673  10.977
20971W        W80408  23.994  32.075  14.869
20972W        W80409   3.443  12.703  12.974
20973W        W80410  14.770  32.115   2.778
20974W        W80411  39.829  18.260  12.094
20975W        W80412  20.147  21.250  14.785
20976W        W80413  12.162  40.945  12.523
20977W        W80414  17.671  24.035   4.698
20978W        W80415   1.237  28.170   4.751
20979W        W80416   3.459  29.061  14.393
20980W        W80417  12.194  12.359   0.955
20981W        W80418   9.880  31.024  10.948
20982W        W80419  44.900  32.469   2.226
20983W        W80420  38.037  23.516  12.041
20984W        W80421  31.091  24.141   0.242
20985W        W80422   5.910  43.342   0.826
20986W        W80423  43.283  40.389   0.795
20987W        W80424  11.303   4.279  12.936
20988W        W80425   2.387  38.533   4.620
20989W        W80426  27.954  31.091  12.035
20990W        W80427   6.770   7.176  12.536
20991W        W80428  40.458  39.437   3.631
20992W        W80429  33.506   0.304  10.959
20993W        W80430  29.568  29.602  13.468
20994W        W80431  40.965  22.188  14.444
20995W        W80432  27.473  39.499  11.987
20996W        W80433  42.801  13.669  13.469
20997W        W80434  23.691  43.462  13.031
20998W        W80435   1.977  16.663  10.533
20999W        W80436   2.777   2.841  14.915
21000W        W80437  13.178  39.896   1.914
21001W        W80438  29.635  25.215   0.314
21002W        W80439  16.685  23.537  14.931
21003W        W80440  13.215  25.997   0.922
21004W        W80441  12.740  41.043  14.883
21005W        W80442   1.338  28.522   1.777
21006W        W80443   0.861  44.350   2.211
21007W        W80444  40.503   7.843  13.444
21008W        W80445  44.434  40.817   1.826
21009W        W80446   1.895  14.694  13.911
21010W        W80447  20.636  37.539  10.580
21011W        W80448   9.349  14.631  12.882
21012W        W80449  34.990  35.390   2.849
21013W        W80450  30.446   4.942  13.504
21014W        W80451  29.149   2.233  11.077
21015W        W80452   4.763   5.419  11.611
21016W        W80453  22.628  35.554   1.357
21017W        W80454  32.587   9.808   0.286
21018W        W80455  14.739  18.544   1.716
21019W        W80456  18.669  16.721  12.046
21020W        W80457  12.745   3.359  10.987
21021W        W80458  41.313  12.148   1.832
21022W        W80459   3.372  32.100  12.531
21023W        W80460  19.251  28.570   2.816
21024W        W80461  32.517   6.318  14.282
21025W        W80462  34.414  19.601   4.216
21026W        W80463  44.424  11.841   2.249
21027W        W80464   5.231   6.732   4.241
21028W        W80465   8.320  11.775  14.880
21029W        W80466  25.701  37.523  10.485
21030W        W80467   0.296   8.729  11.070
21031W        W80468  14.652  32.974   4.270
21032W        W80469  33.952   0.429  12.891
21033W        W80470  42.928  17.573  11.579
21034W        W80471  37.404  44.894   2.345
21035W        W80472  12.828   2.947  14.308
21036W        W80473  19.211  17.794   4.273
21037W        W80474  36.906  22.223   1.738
21038W        W80475  15.618  30.920   2.190
21039W        W80476  28.047  43.901   0.781
21040W        W80477   8.765  32.960  14.874
21041W        W80478   6.314  12.693   5.104
21042W        W80479  41.849  44.913   0.259
21043W        W80480   5.857  24.993  11.024
21044W        W80481  21.516  10.207   1.307
21045W        W80482   6.738  37.886   2.847
21046W        W80483  30.094  19.090  11.380
21047W        W80484  12.226   9.208  14.777
21048W        W80485   5.202   2.232   1.884
21049W        W80486  40.014  41.924  12.872
21050W        W80487  18.708  30.604  11.579
21051W        W80488  30.100  21.689  10.597
21052W        W80489  21.590  36.025  10.440
21053W        W80490  23.528  10.790   2.721
21054W        W80491  32.909   9.174  13.916
21055W        W80492  27.630  34.419   0.341
21056W        W80493  43.889  26.111   0.420
21057W        W80494  16.630  44.269  11.473
21058W        W80495  34.437  35.868   0.270
21059W        W80496  34.476  38.475  13.937
21060W        W80497   6.680  38.405   4.783
21061W        W80498  19.157  16.172  13.893
21062W        W80499  12.239  34.978   3.858
21063W        W80500  28.654   6.838  14.295
21064W        W80501  31.054  17.201   0.726
21065W        W80502  25.601  13.224   1.874
21066W        W80503  37.883  22.239   0.303
21067W        W80504  40.340   2.410   3.221
21068W        W80505  43.789  28.609   2.855
21069W        W80506   2.276  36.093   3.771
21070W        W80507  37.080  33.907  12.387
21071W        W80508   5.692  35.549  10.633
21072W        W80509   8.861   7.697  14.859
21073W        W80510   9.289  27.187  12.413
21074W        W80511  28.124  17.151   2.837
21075W        W80512  20.746  33.544  10.566
21076W        W80513  41.000   4.730  13.005
21077W        W80514  25.500  24.522   0.815
21078W        W80515   6.859  25.026  11.574
21079W        W80516  33.559  30.447   2.231
21080W        W80517   2.272  15.086   4.270
21081W        W80518   6.705  42.894  13.997
21082W        W80519  20.170  36.425   0.320
21083W        W80520  12.190  21.126  11.443
21084W        W80521  11.859  42.986   2.385
21085W        W80522  26.543   5.205  10.940
21086W        W80523  39.489  42.878   2.719
21087W        W80524  21.172   8.183   3.705
21088W        W80525   0.310  27.164   4.169
21089W        W80526  34.087   4.864  11.865
21090W        W80527  20.081  32.629   3.170
21091W        W80528   7.739  32.001  14.869
21092W        W80529  40.927  16.186   0.815
21093W        W80530   1.252  18.104  14.766
21094W        W80531   9.393  12.347  10.977
21095W        W80532  43.311   0.474   1.363
21096W        W80533  19.566   7.300  14.487
21097W        W80534   6.861   4.229   1.716
21098W        W80535  41.932  33.892   0.244
21099W        W80536  30.971  32.438  13.936
21100W        W80537  43.283  22.687   0.290
21101W        W80538  35.447  33.487   4.629
21102W        W80539  13.147  27.588   4.835
21103W        W80540  16.587  14.111   5.228
21104W        W80541  23.124   9.707  11.025
21105W        W80542  19.587  35.939  11.543
21106W        W80543   5.316  24.677   1.863
21107W        W80544  11.857  35.487   2.386
21108W        W80545   2.749  15.244  13.942
21109W        W80546   3.447  16.081   3.326
21110W        W80547  36.411  28.667  11.939
21111W        W80548  41.502  33.929  13.365
21112W        W80549  31.021  41.298  12.964
21113W        W80550   2.720  28.169   2.362
21114W        W80551  33.935  35.853  12.958
21115W        W80552  21.739   5.816  11.535
21116W        W80553  26.659  19.740  10.504
21117W        W80554   9.751   7.900  13.452
21118W        W80555   2.934  34.907  11.469
21119W        W80556  36.910  32.427  11.085
21120W        W80557  27.562  32.953   4.304
21121W        W80558  26.134  34.438   4.806
21122W        W80559  27.019  33.394   3.346
21123W        W80560  13.770  31.055   2.804
21124W        W80561  29.978  39.055   2.758
21125W        W80562  34.574  41.906  13.500
21126W        W80563   3.216  10.636  13.828
21127W        W80564  21.030  27.616   1.935
21128W        W80565   4.870  10.208  11.114
21129W        W80566  37.830   6.837   2.889
21130W        W80567  27.051  26.083   0.269
21131W        W80568  33.008  16.083   3.703
21132W        W80569  42.431  40.329  14.406
21133W        W80570  39.537  38.328  13.875
21134W        W80571   9.738  24.550   4.354
21135W        W80572  41.507  29.475   1.830
21136W        W80573  35.451  27.166  14.011
21137W        W80574  19.203  10.256   2.670
21138W        W80575  44.950  26.109  13.944
21139W        W80576   5.266  28.607   1.848
21140W        W80577  42.383  13.801   2.320
21141W        W80578  24.030  34.611  13.876
21142W        W80579  24.197  24.648  13.042
21143W        W80580  14.110  43.930   4.282
21144W        W80581  19.062  42.888  14.760
21145W        W80582  44.393  33.537   1.288
21146W        W80583   8.829  37.969   2.813
21147W        W80584   0.862   6.733   1.753
21148W        W80585  30.635  22.159   0.762
21149W        W80586   6.287  41.518  12.479
21150W        W80587  12.176  33.904  13.012
21151W        W80588  33.969  37.342  12.378
21152W        W80589  37.064  18.568  10.956
21153W        W80590  42.006  30.431  10.135
21154W        W80591  43.426  15.716  13.407
21155W        W80592  44.942   8.396   2.327
21156W        W80593  41.004   2.471  13.444
21157W        W80594  19.685  42.356  11.539
21158W        W80595  11.724  21.652   2.783
21159W        W80596  12.831   0.290   4.302
21160W        W80597  25.053   6.711  11.938
21161W        W80598   2.916  16.081  12.472
21162W        W80599  33.516  35.091  14.484
21163W        W80600  37.896  14.338  14.956
21164W        W80601  19.113  29.517  13.913
21165W        W80602   5.712   4.761  11.553
21166W        W80603  18.214  27.462   0.352
21167W        W80604  43.498  22.651  14.830
21168W        W80605  37.422   8.817  11.036
21169W        W80606  23.103  10.238   1.921
21170W        W80607  18.572  20.632   3.178
21171W        W80608  41.499  42.972  14.901
21172W        W80609  31.463  35.603  13.438
21173W        W80610  35.051  19.062   3.299
21174W        W80611  21.034  34.541  11.953
21175W        W80612  32.446  17.784  14.861
21176W        W80613  27.176  38.835  14.311
21177W        W80614  29.123  28.085   0.419
21178W        W80615   4.758  26.104   1.768
21179W        W80616  33.106  26.589  13.312
21180W        W80617  16.645  41.001  14.006
21181W        W80618   2.822   8.357   2.355
21182W        W80619  24.716  37.922  12.568
21183W        W80620   5.877  31.602  12.469
21184W        W80621  39.943  13.716  11.515
21185W        W80622  22.199   3.799   4.621
21186W        W80623  34.894  18.260  11.377
21187W        W80624   8.206   3.930  10.509
21188W        W80625  30.420  29.063   2.822
21189W        W80626   0.960   4.825  11.031
21190W        W80627  14.745   4.829  13.805
21191W        W80628   3.274  33.047  11.991
21192W        W80629  41.959  28.057   2.755
21193W        W80630   6.233  40.866   1.732
21194W        W80631   0.276  19.722  13.450
21195W        W80632  34.978   7.332   2.713
21196W        W80633   7.274  22.510  13.411
21197W        W80634  24.675   4.896   0.787
21198W        W80635  38.350   8.900   2.207
21199W        W80636  17.610  30.592   3.336
21200W        W80637  31.008  42.516   0.266
21201W        W80638  26.469  44.950  12.021
21202W        W80639  11.813  15.724   1.395
21203W        W80640   1.884  21.647   3.311
21204W        W80641  42.806  18.233   4.262
21205W        W80642  22.050  30.610  11.972
21206W        W80643  18.546  42.906   3.221
21207W        W80644  23.489  19.049   3.857
21208W        W80645   4.761  17.178  14.962
21209W        W80646  12.351   1.376  10.465
21210W        W80647  24.503  28.115   1.923
21211W        W80648   0.952   1.355  10.634
21212W        W80649  40.548  15.799   4.253
21213W        W80650  20.040   9.745  14.763
21214W        W80651  34.053   2.784   1.817
21215W        W80652  42.777  22.150  11.067
21216W        W80653   1.438  21.115   0.335
21217W        W80654   9.301  11.305  14.927
21218W        W80655  11.285  24.157   1.712
21219W        W80656  23.217   6.697   2.874
21220W        W80657  11.852  21.129   1.325
21221W        W80658  24.988   9.269  12.481
21222W        W80659  10.758   4.887  12.894
21223W        W80660  30.054  29.534  12.078
21224W        W80661  15.644  13.665  14.929
21225W        W80662  12.777   4.902   4.611
21226W        W80663  39.364  11.689   1.795
21227W        W80664  36.530  26.050   4.761
21228W        W80665  27.490   7.189   2.863
21229W        W80666  20.123   6.905   2.364
21230W        W80667  17.229   3.875  14.486
21231W        W80668  29.956  17.071   1.930
21232W        W80669  24.979  15.737   1.349
21233W        W80670   4.849  26.152   1.368
21234W        W80671  27.048  44.450   0.298
21235W        W80672   8.656  30.032  14.462
21236W        W80673   3.775  41.378   4.756
21237W        W80674  14.778  16.659   0.374
21238W        W80675   1.955  24.197  14.431
21239W        W80676  16.683  10.649  13.062
21240W        W80677  13.282  32.049  14.463
21241W        W80678  27.656  18.646   1.218
21242W        W80679  34.508  29.092   3.330
21243W        W80680  32.604  35.490   1.711
21244W        W80681  34.424  16.606  11.392
21245W        W80682  35.597  14.672   0.258
21246W        W80683  28.485  27.684  12.410
21247W        W80684  39.903  16.294   4.649
21248W        W80685  42.946  22.092   2.376
21249W        W80686  11.192  19.217   4.220
21250W        W80687   0.442  12.180  14.480
21251W        W80688  10.319  26.671  12.032
21252W        W80689   5.248  36.978  13.026
21253W        W80690  24.501  43.906   1.266
21254W        W80691  33.036  33.431  12.468
21255W        W80692  18.272  33.608  13.971
21256W        W80693  23.523  14.246   0.344
21257W        W80694  35.465  28.990  11.951
21258W        W80695  24.667  22.588   1.420
21259W        W80696   9.166  27.002  13.042
21260W        W80697   2.388   3.369  10.442
21261W        W80698  21.576   0.956   0.365
21262W        W80699  44.321  23.711   1.349
21263W        W80700  21.740  29.424  10.936
21264W        W80701   8.673  40.803  11.583
21265W        W80702  27.682  23.708  11.376
21266W        W80703  33.126   2.896   1.447
21267W        W80704  42.475  38.469   2.411
21268W        W80705   5.723  34.881  13.825
21269W        W80706  38.427  36.919  13.370
21270W        W80707  22.684   2.897   4.355
21271W        W80708  37.428  25.150   0.785
21272W        W80709  23.222   9.168   0.917
21273W        W80710  38.065  16.631  14.758
21274W        W80711  21.026  35.088   2.215
21275W        W80712  11.213  17.259   4.622
21276W        W80713  37.893  27.051  14.864
21277W        W80714   0.746  24.586   3.748
21278W        W80715  22.623   6.867  11.544
21279W        W80716  21.224   5.757  11.883
21280W        W80717  30.914  32.908  12.077
21281W        W80718  28.118  14.148   1.902
21282W        W80719  14.334  41.454  11.006
21283W        W80720   2.765  27.541   1.824
21284W        W80721   8.358  13.210   1.383
21285W        W80722  23.111  18.615  12.837
21286W        W80723  12.121  21.537   3.255
21287W        W80724  10.828  33.432  12.914
21288W        W80725   5.289  14.704   1.271
21289W        W80726  20.523  16.240  10.475
21290W        W80727  26.032  25.529  13.861
21291W        W80728  40.337  34.395   0.469
21292W        W80729  41.475  35.540  12.850
21293W        W80730  25.176   1.804  11.606
21294W        W80731  12.176  28.075  14.027
21295W        W80732  19.630  25.193  12.577
21296W        W80733   9.251  33.413   1.747
21297W        W80734  38.512   2.787   3.745
21298W        W80735  37.536  33.392   4.283
21299W        W80736  11.861   2.832   1.431
21300W        W80737  36.411   7.806   4.716
21301W        W80738  17.630  16.770  12.468
21302W        W80739  23.497  35.929   4.778
21303W        W80740  32.098   3.857   4.184
21304W        W80741  22.183   7.357  14.335
21305W        W80742  43.987  19.579   3.295
21306W        W80743  28.045  35.414   0.404
21307W        W80744  24.646  26.501  13.012
21308W        W80745  18.782  24.641  14.373
21309W        W80746   1.877  23.178  14.798
21310W        W80747  33.418  26.522   0.266
21311W        W80748   0.785   9.733  11.457
21312W        W80749  17.701  10.790  12.939
21313W        W80750  20.061  20.657   0.386
21314W        W80751   0.476  21.188  13.533
21315W        W80752  41.523  13.704   2.191
21316W        W80753  36.899  31.454  14.948
21317W        W80754  44.464   9.243   3.777
21318W        W80755  19.182  16.167   5.270
21319W        W80756  39.017   5.386  14.953
21320W        W80757  25.603  36.495  12.430
21321W        W80758  29.550  12.277   1.857
21322W        W80759  19.245  32.475  12.835
21323W        W80760  42.946  26.069   4.247
21324W        W80761  44.978  21.693   3.197
21325W        W80762  25.630  13.241  12.016
21326W        W80763  36.957  11.629  12.490
21327W        W80764  14.333  38.541  11.905
21328W        W80765   7.273   4.764  11.066
21329W        W80766  11.159  38.548  10.920
21330W        W80767  12.168  36.577  12.912
21331W        W80768   5.245  22.088   2.751
21332W        W80769  17.643  43.881  10.983
21333W        W80770   0.326  21.026   3.694
21334W        W80771  37.898   3.720  11.958
21335W        W80772  11.247  13.725   3.305
21336W        W80773  15.580  41.852   3.870
21337W        W80774  40.037  34.418  14.515
21338W        W80775  18.722  29.616   0.299
21339W        W80776  33.545  43.446  14.002
21340W        W80777   6.914  44.412  14.328
21341W        W80778  20.102  10.222   2.393
21342W        W80779  11.197  34.893   3.313
21343W        W80780  12.679  33.027   4.792
21344W        W80781  10.870  21.052  12.021
21345W        W80782  27.622  25.653   1.712
21346W        W80783  17.629   6.378   4.214
21347W        W80784  16.780  15.780   3.187
21348W        W80785  14.761   8.237  10.569
21349W        W80786  32.491  24.057  14.934
21350W        W80787  43.401  34.517   5.103
21351W        W80788  38.544  32.608  10.461
21352W        W80789   0.943   7.678  14.337
21353W        W80790  41.320   5.348  13.022
21354W        W80791  10.778  16.104  14.785
21355W        W80792   3.725  11.329  13.369
21356W        W80793   9.746  13.806   4.615
21357W        W80794  41.980  18.779  14.872
21358W        W80795  33.393   3.217   5.147
21359W        W80796  30.579  25.647  14.434
21360W        W80797   3.370   7.391   0.767
21361W        W80798  29.500   5.860  11.550
21362W        W80799   1.932  43.905  12.911
21363W        W80800  44.268  17.178  11.606
21364W        W80801  16.668  23.591   3.651
21365W        W80802  12.188  15.768   1.288
21366W        W80803   4.262  40.352  12.058
21367W        W80804  14.694  44.864  12.000
21368W        W80805  27.652   7.783  10.615
21369W        W80806  25.214  33.023   3.264
21370W        W80807  38.886   8.400   0.821
21371W        W80808  21.684  29.107   0.838
21372W        W80809  37.450   1.910  12.503
21373W        W80810   4.733  44.813  14.893
21374W        W80811  19.257  10.789   0.421
21375W        W80812  15.580   4.877  13.457
21376W        W80813  31.931  24.230   2.830
21377W        W80814  27.141  44.855   2.843
21378W        W80815  37.383  24.704   3.181
21379W        W80816  23.117  26.193   2.405
21380W        W80817   9.270  23.637  13.887
21381W        W80818  18.146  16.233  12.382
21382W        W80819  35.020  24.175   2.863
21383W        W80820  14.122  20.595  13.924
21384W        W80821   7.282  10.212   3.326
21385W        W80822  34.075  29.033   1.360
21386W        W80823  35.063  11.687   3.364
21387W        W80824   1.412  43.945   4.326
21388W        W80825  43.465  24.106  11.500
21389W        W80826  39.819   1.468   1.720
21390W        W80827  22.050   5.318  12.513
21391W        W80828  25.567  28.051   2.345
21392W        W80829  17.674  19.149   2.222
21393W        W80830  31.582  43.367   4.336
21394W        W80831  15.111   0.967  14.301
21395W        W80832  42.881   2.919  12.971
21396W        W80833  44.411  26.166  12.983
21397W        W80834  32.505  17.720   4.623
21398W        W80835  39.861  44.870   1.241
21399W        W80836  19.049  10.359  11.535
21400W        W80837  37.047  42.425  10.481
21401W        W80838   6.683   6.355  13.311
21402W        W80839  20.645  26.156  13.340
21403W        W80840  43.018  16.713  14.020
21404W        W80841  34.519  23.625  11.524
21405W        W80842  38.437  37.343   4.117
21406W        W80843  42.424  39.817  14.982
21407W        W80844   9.645  12.272   3.319
21408W        W80845  13.269  25.696  13.437
21409W        W80846  36.559  40.930   3.858
21410W        W80847  17.584  42.947  12.396
21411W        W80848  21.534  30.131   1.696
21412W        W80849  25.969   3.930   2.852
21413W        W80850  32.410  26.090   1.749
21414W        W80851  20.168  24.608   1.864
21415W        W80852   1.244  14.714   4.236
21416W        W80853   6.336  23.029  13.912
21417W        W80854  27.021  21.619   4.609
21418W        W80855  29.620  13.826   3.366
21419W        W80856  28.514   8.663  14.913
21420W        W80857  41.956  22.056  13.966
21421W        W80858  30.481  39.430   3.218
21422W        W80859  40.003  39.526   4.630
21423W        W80860  17.130  28.178   4.663
21424W        W80861  26.673   5.700   1.350
21425W        W80862  23.717  40.506  14.803
21426W        W80863  26.537  44.763   1.731
21427W        W80864  18.667  25.077  12.562
21428W        W80865  38.052   5.870   1.841
21429W        W80866  20.099   8.842  10.448
21430W        W80867  35.969  32.949  10.947
21431W        W80868  19.212  35.363   2.273
21432W        W80869  39.832  29.089  12.365
21433W        W80870  22.638  20.125  13.008
21434W        W80871  44.440  15.617   1.385
21435W        W80872  19.133  43.004   1.713
21436W        W80873   0.352  33.384   1.828
21437W        W80874  26.521   3.726  12.824
21438W        W80875   6.285  26.011  14.447
21439W        W80876  42.849   9.294   3.297
21440W        W80877  40.369  28.547  14.420
21441W        W80878   5.318  14.154  12.959
21442W        W80879  12.359  38.925   0.967
21443W        W80880   3.235  30.580  13.964
21444W        W80881   6.296  21.039   3.817
21445W        W80882  31.607  41.923  13.051
21446W        W80883  18.703  15.627  11.603
21447W        W80884  44.756  17.276   4.682
21448W        W80885   7.743  18.588   2.236
21449W        W80886  21.252  12.191  14.513
21450W        W80887  35.906  31.436   3.183
21451W        W80888  33.918  18.125   0.432
21452W        W80889  12.675   0.293   3.733
21453W        W80890  17.140   2.926   2.369
21454W        W80891  33.999  19.182   3.222
21455W        W80892  32.412  14.122   2.721
21456W        W80893  31.530  13.176  13.849
21457W        W80894  44.372  42.481  14.334
21458W        W80895  22.675  42.888  12.442
21459W        W80896   7.886  35.404   0.386
21460W        W80897  34.063  33.996   1.915
21461W        W80898  40.831   6.187  14.437
21462W        W80899  25.526  11.863  11.015
21463W        W80900  23.730  44.290   1.915
21464W        W80901  30.463  36.930  14.402
21465W        W80902  33.047  25.650  14.348
21466W        W80903  36.430  29.048   1.418
21467W        W80904  24.989   8.795   0.364
21468W        W80905  24.515   2.340  12.535
21469W        W80906   9.797  23.993   1.875
21470W        W80907  26.538  39.064  14.474
21471W        W80908  31.937  43.016   0.412
21472W        W80909  24.553  19.570  11.427
21473W        W80910  38.983  25.514   1.394
21474W        W80911  17.304  26.997   2.711
21475W        W80912  43.791   1.465   1.793
21476W        W80913  31.934  23.003  12.499
21477W        W80914  42.841  17.093  10.903
21478W        W80915  17.095  37.072   4.814
21479W        W80916  24.499  34.491  12.974
21480W        W80917  44.807  19.204  14.023
21481W        W80918  36.566  38.355   1.759
21482W        W80919   5.881  10.786  12.341
21483W        W80920  30.505  42.776   3.260
21484W        W80921  25.066  24.635   4.282
21485W        W80922  22.124  35.408   2.410
21486W        W80923  33.464   7.415  13.384
21487W        W80924  39.315  30.015  10.403
21488W        W80925  40.480  10.267  10.969
21489W        W80926   4.849  17.580   2.189
21490W        W80927   6.738  39.890  13.329
21491W        W80928   7.351   6.689  13.805
21492W        W80929   5.330   6.201  10.562
21493W        W80930  16.703  11.698   0.323
21494W        W80931   5.237   9.743   0.243
21495W        W80932  44.994  33.019   3.288
21496W        W80933  19.735   1.925  10.467
21497W        W80934  28.933  20.137  14.307
21498W        W80935   3.379   8.176  14.351
21499W        W80936  25.705  30.463   2.262
21500W        W80937  42.806  13.274   4.217
21501W        W80938  36.026  17.590  13.346
21502W        W80939  29.620  13.113  14.358
21503W        W80940  16.186  43.292   9.455
21504W        W80941   0.300  44.797   1.933
21505W        W80942  20.560  43.303   3.379
21506W        W80943  21.574  31.094  11.934
21507W        W80944  43.473  19.150  12.872
21508W        W80945  34.878   5.392   0.918
21509W        W80946  23.181   9.749   3.289
21510W        W80947  11.219  42.283  13.369
21511W        W80948   2.328  37.358   5.765
21512W        W80949   8.712  34.484  13.480
21513W        W80950  33.069  31.533   4.248
21514W        W80951  22.202  15.217  12.004
21515W        W80952  13.340  32.418   2.392
21516W        W80953  28.117  41.966   1.435
21517W        W80954  41.457  10.848  14.858
21518W        W80955   1.796  18.787  11.009
21519W        W80956   4.211   1.247   4.699
21520W        W80957   7.223  38.852   4.808
21521W        W80958  33.008  17.605  13.830
21522W        W80959  10.150   1.760   1.283
21523W        W80960  14.646  36.909   2.839
21524W        W80961  13.678  19.193  14.815
21525W        W80962  25.656   4.241   3.222
21526W        W80963  15.583  33.889  12.396
21527W        W80964  20.153  17.765   1.269
21528W        W80965  43.789  32.127  14.292
21529W        W80966  15.252  30.943  14.304
21530W        W80967  32.901  36.551   3.707
21531W        W80968   6.716  27.064   1.796
21532W        W80969  22.085  11.641  14.336
21533W        W80970  18.620  27.688   4.811
21534W        W80971  10.338  23.494  12.936
21535W        W80972  25.698   9.227   3.180
21536W        W80973  21.115  21.040  14.943
21537W        W80974  41.488  10.774   3.870
21538W        W80975   4.847  24.699   4.243
21539W        W80976  21.078  25.493   5.181
21540W        W80977  36.355  41.353   1.403
21541W        W80978  28.435  19.548   4.288
21542W        W80979  18.589  26.644   3.313
21543W        W80980   3.426  39.018   4.290
21544W        W80981  12.818  23.598   2.701
21545W        W80982  11.770  24.492   0.255
21546W        W80983  19.732   7.406  11.487
21547W        W80984  26.487  41.327  12.966
21548W        W80985  13.185  20.062  12.576
21549W        W80986  44.767  40.011   2.758
21550W        W80987   6.293  32.074  12.875
21551W        W80988  12.697  38.943  14.822
21552W        W80989  11.820  33.983   4.291
21553W        W80990  13.617  24.638   4.130
21554W        W80991  44.926  25.680  13.453
21555W        W80992  20.136  27.952   2.734
21556W        W80993   9.658  13.829  11.384
21557W        W80994  10.355   6.312  10.457
21558W        W80995  30.512  34.392   2.244
21559W        W80996  15.242  14.194  11.447
21560W        W80997  34.505  20.121  14.958
21561W        W80998   6.194  32.550  14.844
21562W        W80999  28.007   4.912  14.009
21563W        W81000  32.556  34.565   0.332
21564W        W81001   2.948   3.743  10.605
21565W        W81002  22.618   3.886   4.619
21566W        W81003  17.612  34.911   2.870
21567W        W81004  16.735   1.928  11.544
21568W        W81005   7.173   8.329   3.765
21569W        W81006  10.361  43.380   0.792
21570W        W81007   0.900   2.406   2.340
21571W        W81008  22.637  28.549  13.832
21572W        W81009   4.399  17.558  14.935
21573W        W81010   6.343   0.747  13.509
21574W        W81011   9.180  26.050   3.649
21575W        W81012   1.878  30.645   3.257
21576W        W81013  39.010  42.339  12.991
21577W        W81014   1.413   6.313   3.698
21578W        W81015  28.110   7.173  12.515
21579W        W81016  21.642  32.602  13.980
21580W        W81017  25.136  35.108  13.856
21581W        W81018  34.057   9.370   4.120
21582W        W81019  27.608  43.904  11.122
21583W        W81020  21.706   9.815   3.149
21584W        W81021  25.669  16.724   3.691
21585W        W81022  18.769  21.067   0.935
21586W        W81023  30.436  16.675  14.819
21587W        W81024   2.845   5.874   3.338
21588W        W81025  40.399  14.676  13.532
21589W        W81026   0.448   5.267   1.387
21590W        W81027   1.797  41.369   0.749
21591W        W81028  42.906   8.282   2.267
21592W        W81029  33.557  42.024   2.215
21593W        W81030  23.204   9.286  12.038
21594W        W81031  36.987  36.037   2.350
21595W        W81032  32.969  35.007   0.804
21596W        W81033  30.019   6.857   0.913
21597W        W81034  43.858  15.217  10.927
21598W        W81035   2.454  32.509   1.729
21599W        W81036   5.436  24.172  12.987
21600W        W81037  33.423   8.832  12.539
21601W        W81038   6.736  23.079  10.979
21602W        W81039   5.271  23.698  12.887
21603W        W81040  12.639   7.709   2.760
21604W        W81041  27.557  13.122  11.084
21605W        W81042  24.025  30.574  14.459
21606W        W81043  11.814   4.870   3.689
21607W        W81044  12.250  41.341   3.286
21608W        W81045  26.979  29.918  13.872
21609W        W81046  35.877  14.221   2.188
21610W        W81047  44.433  40.411   4.692
21611W        W81048  17.168  13.691  11.108
21612W        W81049  39.335   4.340   1.803
21613W        W81050   9.364  14.177  13.374
21614W        W81051   1.412  19.047   3.372
21615W        W81052   9.234  17.785   2.782
21616W        W81053  21.109  39.372   3.155
21617W        W81054  36.552  21.575   0.824
21618W        W81055  26.160   6.223   4.781
21619W        W81056  36.947  16.219  12.345
21620W        W81057  16.125  32.472   0.326
21621W        W81058   8.869  20.099  13.812
21622W        W81059  18.771  21.140  10.051
21623W        W81060   0.824  26.100   4.141
21624W        W81061  37.893  27.973   0.967
21625W        W81062   9.299  37.397   0.876
21626W        W81063   8.757   3.910  12.908
21627W        W81064  37.336  36.923  11.858
21628W        W81065  43.784  12.735   0.727
21629W        W81066  27.572  22.579   1.764
21630W        W81067  15.620  34.882   0.829
21631W        W81068   6.862  35.541   2.843
21632W        W81069  14.265  39.939   3.310
21633W        W81070   0.820  38.046   2.329
21634W        W81071  16.254  36.460   2.701
21635W        W81072   5.723  34.070   1.289
21636W        W81073  28.580   4.772   5.115
21637W        W81074   4.278  16.798   4.137
21638W        W81075  31.575  34.978  14.894
21639W        W81076  31.424  23.722  11.873
21640W        W81077  32.102  18.066  12.005
21641W        W81078   5.824  25.647   0.881
21642W        W81079   7.836  15.254   3.840
21643W        W81080   4.915  16.760  11.480
21644W        W81081  40.888  43.344   0.371
21645W        W81082  18.771  41.348   2.694
21646W        W81083   7.886   6.712   3.188
21647W        W81084  36.071  33.501   2.380
21648W        W81085  24.069  31.946   2.320
21649W        W81086  42.484  13.770  12.357
21650W        W81087  37.902  11.347  12.012
21651W        W81088   6.771  36.533   1.433
21652W        W81089  37.452   0.306  13.851
21653W        W81090  30.478  23.081  14.790
21654W        W81091  23.216   0.791  12.356
21655W        W81092  32.393  24.653  13.335
21656W        W81093  20.203  35.482  10.962
21657W        W81094  42.327  41.332   2.739
21658W        W81095  42.014  42.986   0.382
21659W        W81096  17.090   1.827  11.099
21660W        W81097   2.356  29.636  10.439
21661W        W81098  18.072  32.458   3.815
21662W        W81099  18.063  10.783   0.316
21663W        W81100  13.764  43.006  10.971
21664W        W81101  28.539  12.852  12.030
21665W        W81102  44.279  26.058   2.862
21666W        W81103  42.844  43.003   3.697
21667W        W81104  42.831  26.955   1.786
21668W        W81105  28.936  17.064   0.885
21669W        W81106  43.274  25.612   4.200
21670W        W81107  28.582   8.229  11.577
21671W        W81108  38.009  29.078   1.384
21672W        W81109   1.468  19.579   0.811
21673W        W81110  21.556  30.007  11.558
21674W        W81111  28.613  10.678   4.320
21675W        W81112  43.802  41.415   3.241
21676W        W81113  25.617   7.888   0.394
21677W        W81114  37.856  34.994   2.749
21678W        W81115  15.202  12.268   2.320
21679W        W81116  18.739  14.825  14.804
21680W        W81117  44.830  42.474  11.017
21681W        W81118   9.773  29.972   2.713
21682W        W81119   7.285   6.698  14.906
21683W        W81120  43.482  26.684   0.766
21684W        W81121   7.367  13.199  14.904
21685W        W81122  21.711   8.775  10.580
21686W        W81123  37.373  33.020  11.523
21687W        W81124   1.739  37.499   0.341
21688W        W81125  10.772   2.250  13.536
21689W        W81126  30.433  10.696   1.240
21690W        W81127   3.329   8.406  12.866
21691W        W81128  21.063  44.503   3.243
21692W        W81129  30.981  35.543  14.882
21693W        W81130  32.492  34.552  13.989
21694W        W81131  33.382   7.728   0.909
21695W        W81132   2.432  22.143   3.642
21696W        W81133  12.300  24.643   3.184
21697W        W81134   7.836   5.868  12.370
21698W        W81135  14.803  17.652   2.243
21699W        W81136  40.474  10.748   2.803
21700W        W81137  34.379  40.027   2.882
21701W        W81138  12.625   1.347  12.578
21702W        W81139  13.203  33.111   4.308
21703W        W81140  43.289  33.380  10.545
21704W        W81141   0.776  27.076  14.907
21705W        W81142  34.594  24.658   5.673
21706W        W81143  10.342   0.765   4.240
21707W        W81144  43.329  25.145  13.335
21708W        W81145  22.052  40.425  12.032
21709W        W81146  40.537  40.828  10.927
21710W        W81147  15.757   7.704  14.961
21711W        W81148   7.753  11.346  13.904
21712W        W81149  34.054  30.949  13.921
21713W        W81150  18.130   7.197  14.323
21714W        W81151  29.101  39.533  11.084
21715W        W81152  42.884  29.563   4.825
21716W        W81153  17.698  17.677  14.014
21717W        W81154  41.375  44.332  14.030
21718W        W81155  33.607   9.240   2.698
21719W        W81156  42.788  41.833   1.920
21720W        W81157   3.948   0.883   2.297
21721W        W81158   3.370  34.077  13.882
21722W        W81159   4.890  34.470  10.074
21723W        W81160   5.412  30.523  11.986
21724W        W81161  31.468  38.934   0.257
21725W        W81162   7.253  24.653  11.514
21726W        W81163  25.663  16.676   4.200
21727W        W81164  26.142  26.127  10.567
21728W        W81165  32.558  12.792  12.392
21729W        W81166  29.058  16.244  11.918
21730W        W81167   4.865   0.852   0.852
21731W        W81168  20.559  32.495  12.881
21732W        W81169  11.189  22.579  12.369
21733W        W81170   3.888   5.754   3.777
21734W        W81171  28.146   4.421  10.556
21735W        W81172  20.762   7.313  11.489
21736W        W81173  20.561   4.865  11.889
21737W        W81174  40.878  13.239  12.521
21738W        W81175  38.379  38.475   2.311
21739W        W81176  15.778  34.447  11.531
21740W        W81177  43.305  33.601   3.291
21741W        W81178  36.528  44.893  11.404
21742W        W81179  17.679  42.865  10.019
21743W        W81180  37.434  21.102   3.715
21744W        W81181  21.176   3.367  10.971
21745W        W81182  18.608  15.297   9.989
21746W        W81183  24.542  43.301  12.094
21747W        W81184  30.992   4.215   3.186
21748W        W81185  10.243   3.867   0.940
21749W        W81186   9.681  13.717   2.855
21750W        W81187   0.454  27.555  13.885
21751W        W81188  38.059  39.064   1.248
21752W        W81189  22.034   9.325   1.775
21753W        W81190   8.756  27.508   0.306
21754W        W81191  33.049  19.211   2.367
21755W        W81192  28.093  10.671  11.065
21756W        W81193  38.870  14.185   1.818
21757W        W81194  17.274  17.301  14.306
21758W        W81195   0.379   8.325   4.183
21759W        W81196  22.623  30.065  14.325
21760W        W81197   1.733  42.998  12.853
21761W        W81198  16.586   7.763  14.467
21762W        W81199   5.237  36.068  11.581
21763W        W81200  36.397  26.541  12.572
21764W        W81201  42.356  13.162   3.293
21765W        W81202  42.491  44.929   2.710
21766W        W81203  19.176  30.143   2.679
21767W        W81204   8.307  11.180  14.375
21768W        W81205   8.262  42.488  12.011
21769W        W81206  31.622  17.728  14.291
21770W        W81207  41.033   8.858   4.294
21771W        W81208  17.692  25.975  13.827
21772W        W81209  33.079  43.468  10.543
21773W        W81210  23.510  28.672   2.315
21774W        W81211  21.154   9.813  11.374
21775W        W81212  28.944  44.494  13.871
21776W        W81213  37.419   4.241  14.941
21777W        W81214  28.101  35.980   3.710
21778W        W81215   4.874  33.459   2.837
21779W        W81216  15.200  43.332  10.581
21780W        W81217  29.159  36.982   1.211
21781W        W81218   5.242  14.311  11.951
21782W        W81219   1.740  15.776  12.970
21783W        W81220  17.640  40.525   0.414
21784W        W81221  37.839  10.225  10.595
21785W        W81222  24.591  33.587   3.368
21786W        W81223  27.034   5.262   1.908
21787W        W81224  19.143   2.923   4.186
21788W        W81225  30.975  27.118   3.218
21789W        W81226   0.904  25.602   3.338
21790W        W81227  34.964  21.092   1.935
21791W        W81228  30.156  44.496   1.873
21792W        W81229   5.703  38.554   3.367
21793W        W81230  21.570   1.818  12.954
21794W        W81231  28.956  27.119  13.486
21795W        W81232  37.408  10.871  13.818
21796W        W81233  31.609  43.481   4.662
21797W        W81234  19.571  30.949   3.190
21798W        W81235  42.792  39.946  12.833
21799W        W81236  41.393  39.053   0.429
21800W        W81237  30.537  39.396  10.580
21801W        W81238  35.479  14.652  12.450
21802W        W81239  33.477  18.059  12.540
21803W        W81240  42.510  16.700   2.810
21804W        W81241  16.643  34.932  13.920
21805W        W81242  20.157   9.377  13.425
21806W        W81243  40.037  21.165  12.455
21807W        W81244  13.638  13.118   3.277
21808W        W81245  31.589  36.987  13.944
21809W        W81246  35.913  25.552   1.814
21810W        W81247  15.189   3.730   2.803
21811W        W81248  42.325  24.145   1.909
21812W        W81249  29.470  11.658   2.201
21813W        W81250   8.695  29.986   0.788
21814W        W81251  42.391  30.932  11.505
21815W        W81252   6.266  17.290   1.402
21816W        W81253  36.348   3.450   2.206
21817W        W81254  24.114  36.987  14.763
21818W        W81255  33.114  21.080  13.520
21819W        W81256   9.289  43.470  13.829
21820W        W81257   6.368  28.635  14.955
21821W        W81258   1.847  19.256  12.547
21822W        W81259  15.166   0.743  12.823
21823W        W81260  22.689  40.418  14.452
21824W        W81261  35.878   5.764   3.267
21825W        W81262  38.007   0.316  12.475
21826W        W81263  39.011  40.812   3.177
21827W        W81264   6.763   3.237   0.246
21828W        W81265  25.061   2.849  11.959
21829W        W81266  38.077  14.754  12.024
21830W        W81267  23.119  25.048  11.986
21831W        W81268  22.739  43.927   4.265
21832W        W81269  28.579  44.778   3.262
21833W        W81270   1.309   0.906  11.377
21834W        W81271  14.611  20.183   4.625
21835W        W81272  26.599  10.377  12.966
21836W        W81273  32.947  12.328   0.269
21837W        W81274  16.737  15.819   1.255
21838W        W81275  16.091   4.853   4.259
21839W        W81276  41.817   8.755  11.890
21840W        W81277   4.858  42.817   1.449
21841W        W81278   7.831  42.415   4.277
21842W        W81279  33.120   3.367  14.838
21843W        W81280  22.164  38.368   0.822
21844W        W81281  30.446  29.954  10.558
21845W        W81282  16.663  36.979   3.856
21846W        W81283  19.535   8.335  13.456
21847W        W81284   1.871  41.806   0.408
21848W        W81285  16.179  37.875  14.347
21849W        W81286   0.826   9.335   4.782
21850W        W81287  43.425  10.661   1.389
21851W        W81288  43.781  10.341  14.806
21852W        W81289  27.628  24.625  14.405
21853W        W81290  19.650  11.292   0.368
21854W        W81291  28.933   4.926   2.676
21855W        W81292  37.933  11.340   4.174
21856W        W81293  21.747   3.935  14.785
21857W        W81294  44.358   2.924   0.939
21858W        W81295  21.132   7.295   3.283
21859W        W81296  26.461   2.461   1.736
21860W        W81297  42.425   0.378   0.374
21861W        W81298   3.713   9.253  11.012
21862W        W81299   8.811  13.673   4.805
21863W        W81300  13.343  17.685   2.367
21864W        W81301  11.676  24.010   5.313
21865W        W81302   7.686  28.182   3.192
21866W        W81303  24.110  13.622   2.191
21867W        W81304  23.078  36.422  11.493
21868W        W81305  38.004  40.959   3.219
21869W        W81306  32.061  33.437  14.961
21870W        W81307   6.352   4.897   4.183
21871W        W81308  35.871  32.558  14.840
21872W        W81309   4.890  30.533   0.878
21873W        W81310  42.392  26.487  12.975
21874W        W81311  11.153   6.220   1.263
21875W        W81312  22.009  22.171   1.806
21876W        W81313   0.409   8.899   0.435
21877W        W81314  33.899  19.713  13.934
21878W        W81315  10.366  16.218   4.718
21879W        W81316  25.511  21.743   4.311
21880W        W81317  18.156  17.228   0.465
21881W        W81318  30.082  20.619   5.248
21882W        W81319  31.140  10.843   1.743
21883W        W81320  35.394  29.989  11.927
21884W        W81321   3.750   3.316  11.610
21885W        W81322  18.783  43.352  14.280
21886W        W81323   3.772   9.244  12.541
21887W        W81324  20.745   4.427  12.404
21888W        W81325  34.108  41.341  14.392
21889W        W81326   0.950  41.380   0.885
21890W        W81327   0.425  10.383  13.934
21891W        W81328  21.631  13.765  11.039
21892W        W81329  26.502  40.856  10.611
21893W        W81330   8.764  37.439   2.375
21894W        W81331   8.172   0.249   3.173
21895W        W81332  15.761  36.862  13.007
21896W        W81333  44.790  22.148   3.273
21897W        W81334  38.881  17.681  12.986
21898W        W81335  23.561  13.691  13.002
21899W        W81336  21.192  34.043   1.338
21900W        W81337  38.055  35.467  11.577
21901W        W81338  29.997  32.061   2.780
21902W        W81339  28.661   2.459   1.891
21903W        W81340  26.149  32.431  12.411
21904W        W81341  35.884  44.780  14.915
21905W        W81342   4.855  18.075   1.863
21906W        W81343  40.890   8.823  11.056
21907W        W81344  18.118  17.768  13.316
21908W        W81345   9.292   1.908   4.598
21909W        W81346  38.966  44.304  11.043
21910W        W81347  25.633   1.962   3.671
21911W        W81348  44.430  19.050   3.821
21912W        W81349  13.306  41.965   4.290
21913W        W81350  40.363  35.519  13.363
21914W        W81351  21.116  37.415  10.557
21915W        W81352   7.396  13.301   0.262
21916W        W81353  29.585  22.237   9.947
21917W        W81354  15.169   2.788   0.359
21918W        W81355  43.272  33.069  10.124
21919W        W81356  13.661  36.572   0.958
21920W        W81357  44.955  33.081   2.871
21921W        W81358  22.142   1.397  14.826
21922W        W81359  27.165  29.547  10.499
21923W        W81360   0.895  28.474   3.211
21924W        W81361  34.968  17.305   4.631
21925W        W81362  31.145  35.550  11.588
21926W        W81363  31.098  39.925   4.208
21927W        W81364  35.039  18.265   1.330
21928W        W81365  24.064  34.930  12.875
21929W        W81366   3.952   9.791  12.028
21930W        W81367  28.454  12.775  13.897
21931W        W81368  10.162  36.063   3.728
21932W        W81369  25.536  25.044   0.469
21933W        W81370  21.577  43.904  13.402
21934W        W81371  15.118  34.460   0.365
21935W        W81372  16.172  21.622  13.502
21936W        W81373  25.064  17.755   3.755
21937W        W81374   5.691  22.023   1.417
21938W        W81375  33.005  17.186   1.923
21939W        W81376   2.887   4.843   0.802
21940W        W81377  13.131  34.389   4.150
21941W        W81378  10.148  17.780  12.469
21942W        W81379  28.978  23.230   2.351
21943W        W81380  33.540   7.790   1.411
21944W        W81381  38.526  42.284   4.278
21945W        W81382   2.429  13.167  14.484
21946W        W81383  27.457   8.762  11.403
21947W        W81384   5.781  13.308  13.064
21948W        W81385   5.236  37.346  10.082
21949W        W81386  28.634  20.198   4.300
21950W        W81387   5.781  23.069  12.926
21951W        W81388  16.089  11.714   3.252
21952W        W81389  28.031  13.608  14.329
21953W        W81390  32.511  37.082   3.670
21954W        W81391  44.807  32.076  14.955
21955W        W81392   5.337   2.385  13.863
21956W        W81393  11.169  30.483  10.469
21957W        W81394  22.660  11.834   4.607
21958W        W81395  25.616  27.139  10.617
21959W        W81396  27.996  31.638  13.891
21960W        W81397  30.094  36.028   1.347
21961W        W81398  26.091  17.148   2.263
21962W        W81399  11.370  18.065  12.876
21963W        W81400  13.844  31.142   4.204
21964W        W81401  12.682  38.023   0.308
21965W        W81402  23.654  37.980   3.756
21966W        W81403  15.744  21.042  11.534
21967W        W81404  35.862  17.202   0.390
21968W        W81405  35.461  26.132  12.525
21969W        W81406  34.489  36.952  11.483
21970W        W81407  43.369  39.465   1.723
21971W        W81408  42.844  44.851   2.863
21972W        W81409  36.472  32.560  14.932
21973W        W81410  22.112   4.363  12.884
21974W        W81411  30.946  30.980  10.603
21975W        W81412  12.770  36.497  13.358
21976W        W81413  19.638  33.508   2.402
21977W        W81414   9.235  16.274   0.802
21978W        W81415  15.707   0.491  14.303
21979W        W81416  23.597  33.057  14.426
21980W        W81417  23.170  41.462   9.959
21981W        W81418  26.655  19.224   3.362
21982W        W81419  13.188  30.944   0.385
21983W        W81420  41.904  39.894  12.968
21984W        W81421  22.704   8.870  12.836
21985W        W81422  22.550  25.629   4.706
21986W        W81423  26.554  42.913  12.991
21987W        W81424  35.557  34.092   2.238
21988W        W81425  25.016  10.358  11.396
21989W        W81426   2.809  42.388  11.080
21990W        W81427  37.992  42.991   1.866
21991W        W81428  32.014  40.379   0.809
21992W        W81429  20.689  32.032  13.879
21993W        W81430  37.580   8.311   2.214
21994W        W81431  40.320  14.720   1.426
21995W        W81432   4.211   2.811   4.772
21996W        W81433  29.557  16.275   2.379
21997W        W81434   5.251  13.273   2.848
21998W        W81435  42.899  35.063   3.288
21999W        W81436  32.023  14.132   2.836
22000W        W81437  33.966   0.895   4.700
22001W        W81438  11.676  42.364   4.270
22002W        W81439   9.304  31.026  12.960
22003W        W81440  21.700   3.274  11.546
22004W        W81441   2.835   5.817  14.356
22005W        W81442  41.405  33.461  14.869
22006W        W81443  10.222  43.330  12.974
22007W        W81444   4.758   6.736  10.959
22008W        W81445  25.093   2.261   2.826
22009W        W81446  19.156  13.256  12.969
22010W        W81447  26.160  18.700   0.837
22011W        W81448  28.602  15.691   2.662
22012W        W81449  41.000  13.738  11.994
22013W        W81450  39.961  12.251   1.326
22014W        W81451  11.715  25.552  14.867
22015W        W81452  15.597  24.682   2.416
22016W        W81453  23.997  40.426  13.467
22017W        W81454  11.856  30.951   4.124
22018W        W81455  11.162  38.011  10.481
22019W        W81456  14.293  29.489   3.336
22020W        W81457  31.622  42.969   3.371
22021W        W81458  37.914   0.297   0.808
22022W        W81459  36.357   3.222   9.966
22023W        W81460  30.447  18.729  11.880
22024W        W81461  11.185  10.318   2.805
22025W        W81462  26.129  16.137  13.009
22026W        W81463  39.844   9.836   0.841
22027W        W81464  30.100  21.715   5.124
22028W        W81465  44.789  15.090   2.348
22029W        W81466   9.208  44.303   0.730
22030W        W81467  42.954   7.898  12.974
22031W        W81468   5.335  15.164   3.282
22032W        W81469  36.451  17.284  13.947
22033W        W81470  27.647   9.376   1.391
22034W        W81471  23.123  28.452   3.234
22035W        W81472  20.057  10.198   1.820
22036W        W81473  13.297   4.274  11.091
22037W        W81474  21.077  34.116   1.804
22038W        W81475  41.917  39.543   3.181
22039W        W81476   3.852   3.260   0.857
22040W        W81477  28.548  33.529   4.282
22041W        W81478   2.765  13.735   2.379
22042W        W81479  14.178  25.566  10.430
22043W        W81480   7.296  27.973   1.214
22044W        W81481  25.110  27.493   1.772
22045W        W81482  14.271  22.210   1.423
22046W        W81483  44.773   1.416  11.553
22047W        W81484  24.065  12.827  10.458
22048W        W81485  16.712  17.271  12.913
22049W        W81486  26.475   2.433  14.426
22050W        W81487  14.195  26.471  13.425
22051W        W81488  11.805  35.956  11.497
22052W        W81489   2.960  20.611  14.911
22053W        W81490  40.411  36.496  11.940
22054W        W81491  39.989  37.499  11.115
22055W        W81492  21.191  33.383   4.757
22056W        W81493   7.787   7.738  10.535
22057W        W81494  13.141  11.194  10.605
22058W        W81495  33.930  36.898  12.936
22059W        W81496  34.100  21.060   4.708
22060W        W81497  35.938  30.520   3.369
22061W        W81498  14.222  43.469  10.109
22062W        W81499  27.007  25.023   2.677
22063W        W81500  43.777  35.392  13.041
22064W        W81501   3.268  13.184   2.269
22065W        W81502   8.659  44.359   1.335
22066W        W81503   7.748   7.345   9.948
22067W        W81504  30.653  25.535  12.002
22068W        W81505  11.724  22.997   3.368
22069W        W81506  21.718  16.208   2.727
22070W        W81507  29.032  23.092   0.874
22071W        W81508  25.607   7.229   1.903
22072W        W81509  31.056  23.990  14.459
22073W        W81510  21.672  41.926   1.400
22074W        W81511  15.587  32.136  11.075
22075W        W81512  30.911   9.874  13.841
22076W        W81513  16.212   0.759  13.509
22077W        W81514   1.968  23.630   4.140
22078W        W81515   6.744  22.056   2.685
22079W        W81516   1.949  34.533  11.930
22080W        W81517  42.496   4.709   1.282
22081W        W81518   6.290  28.154   4.298
22082W        W81519  27.520   3.369   1.889
22083W        W81520   9.678  38.391   2.761
22084W        W81521  43.356   8.864   4.131
22085W        W81522  23.693  43.881   0.272
22086W        W81523  18.644  24.054  12.428
22087W        W81524  19.617  44.369   1.701
22088W        W81525  31.142  23.567   2.178
22089W        W81526   2.245  10.349   1.443
22090W        W81527  36.447  24.999   2.318
22091W        W81528  37.946  20.085   1.912
22092W        W81529  31.109  10.200  12.365
22093W        W81530  31.941  30.065  12.501
22094W        W81531  21.727  16.092  13.884
22095W        W81532  30.518  18.129   0.259
22096W        W81533  18.163  41.863  13.307
22097W        W81534  38.864  42.971   2.842
22098W        W81535  38.562  31.624  14.302
22099W        W81536  29.053  20.755   0.438
22100W        W81537  18.718  22.117  11.941
22101W        W81538  21.679  22.501   3.841
22102W        W81539  35.965  33.457   3.240
22103W        W81540   7.189   8.684  13.033
22104W        W81541  30.546  27.546   4.758
22105W        W81542  10.237  20.544   3.641
22106W        W81543  40.892  25.164   4.708
22107W        W81544   9.730   9.183  10.917
22108W        W81545   3.879  32.442  11.590
22109W        W81546  20.632  34.930   1.729
22110W        W81547   3.815  14.141   0.964
22111W        W81548  42.854   6.422   3.640
22112W        W81549  29.610  41.298   2.732
22113W        W81550  10.696  16.103   3.350
22114W        W81551  33.943   3.378  12.073
22115W        W81552  11.332   6.704   4.782
22116W        W81553   2.820   9.357   3.232
22117W        W81554  17.141  13.807  14.475
22118W        W81555  42.801  31.007  14.817
22119W        W81556   2.287   9.394   3.266
22120W        W81557   1.305  30.616   1.299
22121W        W81558  44.490  34.508   3.632
22122W        W81559  18.574  12.801   1.231
22123W        W81560  20.683  26.676  14.307
22124W        W81561  38.077  40.501  10.966
22125W        W81562  12.672  27.068   4.709
22126W        W81563  23.594  32.548  14.937
22127W        W81564   2.346   0.971  14.012
22128W        W81565   2.471   0.395  14.277
22129W        W81566   9.171  44.817  12.884
22130W        W81567   9.372  28.623   2.246
22131W        W81568  14.790   6.186  12.569
22132W        W81569  29.446  37.064  11.382
22133W        W81570  13.817  43.824   0.772
22134W        W81571  25.648  44.812   1.242
22135W        W81572   1.803  21.716  14.362
22136W        W81573  15.580  37.922   1.410
22137W        W81574  23.634  31.535   1.789
22138W        W81575  15.818  14.330  12.493
22139W        W81576  38.014  38.458   2.699
22140W        W81577  30.657  16.235   4.143
22141W        W81578   5.336   5.383  13.384
22142W        W81579  25.993  34.566  14.949
22143W        W81580  31.136  42.322  10.533
22144W        W81581  42.426   3.901  13.307
22145W        W81582  29.526  11.847   1.365
22146W        W81583  32.444  32.562   1.350
22147W        W81584  37.381  42.000   2.665
22148W        W81585  19.057  25.700  13.797
22149W        W81586  21.574  14.277   9.970
22150W        W81587  30.477  40.943  11.563
22151W        W81588  24.525  22.665  14.987
22152W        W81589  16.694   4.826   3.225
22153W        W81590  16.697  30.646  13.914
22154W        W81591  35.914   4.901  14.929
22155W        W81592  41.359  30.110  13.002
22156W        W81593  23.722  12.266  11.974
22157W        W81594  27.547  28.935  12.990
22158W        W81595  19.651  24.180  13.064
22159W        W81596  18.641  34.597   3.683
22160W        W81597  22.636  16.806  11.005
22161W        W81598  24.025   8.372  14.444
22162W        W81599   0.898   0.922  10.997
22163W        W81600  28.675   4.271   2.357
22164W        W81601  44.426   5.371   1.236
22165W        W81602  12.835  15.800   4.225
22166W        W81603  24.556  15.090   3.381
22167W        W81604  11.164   7.390   0.291
22168W        W81605  27.513  28.635   3.711
22169W        W81606  43.765   1.941  13.467
22170W        W81607  37.467  16.587  13.997
22171W        W81608   0.411  32.955   3.692
22172W        W81609  11.693  19.041   1.280
22173W        W81610  33.565   5.809   0.899
22174W        W81611  37.431   7.806   0.858
22175W        W81612  22.548  17.179  14.382
22176W        W81613  32.395  22.504  12.506
22177W        W81614   2.765  25.208  13.811
22178W        W81615   4.870  23.519  14.938
22179W        W81616  30.545  12.142   1.754
22180W        W81617  22.242  11.367   3.240
22181W        W81618   1.344   8.344  12.502
22182W        W81619  29.450  42.303   1.757
22183W        W81620  20.128  39.913   0.871
22184W        W81621  37.572   0.931   3.787
22185W        W81622  14.776  42.483  12.961
22186W        W81623   4.260  44.979   1.353
22187W        W81624  11.145  10.801   4.816
22188W        W81625  25.065  19.665  13.031
22189W        W81626   5.294  12.271   0.386
22190W        W81627  35.424  13.660   4.619
22191W        W81628  12.699  43.834  11.921
22192W        W81629   2.445  14.246  14.797
22193W        W81630  27.602  43.445   2.285
22194W        W81631  10.344  41.886   1.288
22195W        W81632  11.263   0.266   0.793
22196W        W81633  28.620  34.405  14.890
22197W        W81634   6.694  39.055   3.803
22198W        W81635  33.571   2.801   2.872
22199W        W81636  28.935  10.323  12.569
22200W        W81637  39.025  33.065   2.306
22201W        W81638  25.191  25.681   0.890
22202W        W81639  11.745  15.736   3.335
22203W        W81640  39.001  17.130   3.321
22204W        W81641   7.729  22.680   1.373
22205W        W81642  30.056   2.302   2.778
22206W        W81643   3.262  42.424   1.811
22207W        W81644  42.390  32.587  11.536
22208W        W81645  18.244  20.103  12.373
22209W        W81646  34.447  29.645   0.323
22210W        W81647  14.596  41.315  10.550
22211W        W81648  23.064   7.281   3.692
22212W        W81649   4.872   1.332   4.818
22213W        W81650  21.745  31.552  12.522
22214W        W81651  15.225  38.544  13.472
22215W        W81652  33.504  44.961   0.270
22216W        W81653  12.629   6.215  13.475
22217W        W81654  32.486   6.723  14.961
22218W        W81655  17.281  10.646  13.058
22219W        W81656  34.561  44.489   1.793
22220W        W81657  39.864  36.874  12.429
22221W        W81658  13.679  35.073   4.135
22222W        W81659  14.703  16.082   2.870
22223W        W81660  25.010  25.629   3.148
22224W        W81661  14.145  38.512  12.828
22225W        W81662  44.780   6.426   0.402
22226W        W81663  10.700  26.179   0.787
22227W        W81664  42.426  25.494  12.860
22228W        W81665  41.400  17.263   1.858
22229W        W81666  28.000  29.538  12.973
22230W        W81667  11.700   0.819  12.477
22231W        W81668   6.706  30.964  13.528
22232W        W81669  28.443   9.344   2.367
22233W        W81670  39.361  10.268  11.593
22234W        W81671  19.218  19.693   0.838
22235W        W81672  32.474   0.312  12.063
22236W        W81673  18.636  19.284  13.548
22237W        W81674   7.239  20.575  14.015
22238W        W81675  41.532   2.861  11.481
22239W        W81676  19.060   0.806  11.525
22240W        W81677  43.800   0.841   1.912
22241W        W81678   9.365  12.805   3.716
22242W        W81679  12.329  27.502  13.340
22243W        W81680  14.176  11.329  13.520
22244W        W81681   1.384  39.528  14.895
22245W        W81682  33.031  19.689   0.277
22246W        W81683  22.551  24.615   5.092
22247W        W81684  23.168   6.836  14.452
22248W        W81685  43.288  14.727  10.962
22249W        W81686   7.392   0.873  13.845
22250W        W81687  24.570   3.399   4.334
22251W        W81688  17.591  34.976  11.431
22252W        W81689  43.015  15.323   1.434
22253W        W81690  36.990   0.878  13.902
22254W        W81691  12.187  42.455  12.389
22255W        W81692  11.293  17.273   3.276
22256W        W81693  39.439  19.119  11.381
22257W        W81694  35.009  19.639   1.710
22258W        W81695  16.081  27.459   0.469
22259W        W81696   5.833   2.788   1.890
22260W        W81697  20.245  42.023   9.637
22261W        W81698  41.518  18.079   1.748
22262W        W81699  37.903   9.307   2.781
22263W        W81700  31.419  32.489  12.881
22264W        W81701  41.828  24.003  12.459
22265W        W81702  42.300  13.818   4.640
22266W        W81703  12.270  40.350   0.363
22267W        W81704  36.843  16.085  14.458
22268W        W81705  12.839  43.800  13.962
22269W        W81706  38.453  25.509   1.875
22270W        W81707  37.957  31.987   4.627
22271W        W81708  28.576   8.703  13.386
22272W        W81709  24.153   5.717  12.868
22273W        W81710  28.017  11.764  13.869
22274W        W81711  30.646   1.938   4.705
22275W        W81712  16.163  38.502   5.725
22276W        W81713   1.918  10.155  11.493
22277W        W81714   6.279  36.937   3.193
22278W        W81715  42.499  22.193   3.707
22279W        W81716  41.384   3.762  13.924
22280W        W81717   5.199  11.772   2.204
22281W        W81718   1.453   8.294  14.920
22282W        W81719  30.481  28.053  13.527
22283W        W81720  17.694  28.043   1.874
22284W        W81721  13.815  23.582  14.850
22285W        W81722   9.736   3.718   4.174
22286W        W81723  16.275  33.529  11.424
22287W        W81724  22.562  38.998   0.752
22288W        W81725   4.272   4.304   4.602
22289W        W81726  11.366  23.575  12.885
22290W        W81727  40.038   5.220   3.760
22291W        W81728  25.083   5.908  12.519
22292W        W81729   7.346   8.868   0.887
22293W        W81730   7.194   4.936   2.664
22294W        W81731  26.699  11.868  11.067
22295W        W81732   8.272  17.602  10.423
22296W        W81733  19.148  10.705  13.800
22297W        W81734  22.549  43.785  14.431
22298W        W81735   4.861  21.117   2.289
22299W        W81736  35.885  26.680   4.339
22300W        W81737  33.969  44.857  13.865
22301W        W81738  14.277  17.594   2.785
22302W        W81739  42.365  32.535  12.983
22303W        W81740  37.857  40.894   4.323
22304W        W81741  10.869   8.814   0.329
22305W        W81742  36.964   6.839  13.335
22306W        W81743  21.620  38.995   0.810
22307W        W81744   7.312  25.159   3.709
22308W        W81745  43.444  12.704  10.437
22309W        W81746  44.926  31.921  11.513
22310W        W81747  33.493  29.437   4.784
22311W        W81748  42.395  14.830   0.797
22312W        W81749  14.218  26.045  13.871
22313W        W81750  15.195  27.983  14.021
22314W        W81751  32.472  36.860  11.063
22315W        W81752  32.440  12.703  13.056
22316W        W81753   1.768  21.645  10.976
22317W        W81754   7.395   6.419  12.481
22318W        W81755  44.998  30.571  14.376
22319W        W81756  12.627   2.269   3.685
22320W        W81757  32.110  14.221   1.841
22321W        W81758  37.545  32.432   2.234
22322W        W81759  24.981   4.267  14.760
22323W        W81760   1.263  13.785   1.750
22324W        W81761  28.525  23.693   1.851
22325W        W81762  20.178   8.311  12.536
22326W        W81763  21.040   7.903  12.091
22327W        W81764  12.269  23.168   2.401
22328W        W81765   5.931  17.680   1.254
22329W        W81766  28.036  38.018  14.806
22330W        W81767  44.974  18.100  14.827
22331W        W81768   2.351  17.724  14.916
22332W        W81769  12.136  40.895   1.219
22333W        W81770  10.332  27.035   4.129
22334W        W81771  30.476   5.798   3.653
22335W        W81772  15.277  26.625  14.413
22336W        W81773  38.347   2.420  11.020
22337W        W81774  40.820  34.947  11.022
22338W        W81775  41.841   5.291   0.945
22339W        W81776  25.612  37.429  14.960
22340W        W81777  37.390  24.043   3.758
22341W        W81778  14.589  35.038   3.146
22342W        W81779  18.210  39.529  14.903
22343W        W81780   2.855  43.397   0.322
22344W        W81781  42.968  39.381   2.410
22345W        W81782  23.088  21.125   3.833
22346W        W81783  14.303  36.046  13.847
22347W        W81784  25.058  34.865  11.549
22348W        W81785   0.764  18.761  13.830
22349W        W81786  31.929  15.778  14.444
22350W        W81787  43.412  10.736  12.541
22351W        W81788   6.236  32.406  10.424
22352W        W81789  25.616  29.592  13.844
22353W        W81790   4.885  14.187   5.099
22354W        W81791   1.938  15.694  13.932
22355W        W81792   8.204  27.999   0.443
22356W        W81793  27.615   4.390  14.797
22357W        W81794  23.490  14.698   5.139
22358W        W81795   5.737   7.226  14.436
22359W        W81796  35.867   4.845   0.919
22360W        W81797  39.809  42.812   4.157
22361W        W81798  32.434  18.290  11.924
22362W        W81799  14.783  11.256  11.535
22363W        W81800  43.935  22.152  14.905
22364W        W81801   7.308  20.149   1.856
22365W        W81802  16.628   0.939   2.279
22366W        W81803  19.209  13.267   3.255
22367W        W81804  40.386  41.394  12.380
22368W        W81805  39.845  35.440  13.021
22369W        W81806   6.326   8.329  11.462
22370W        W81807  20.206  21.048   0.439
22371W        W81808  36.543   3.432  11.488
22372W        W81809   6.374  31.577  12.488
22373W        W81810  12.156  23.658  14.387
22374W        W81811  20.243  19.058   4.752
22375W        W81812  17.656  34.465   2.244
22376W        W81813  35.492  32.979  11.477
22377W        W81814  30.473  42.844   5.214
22378W        W81815  43.346  20.056   1.712
22379W        W81816  26.663  30.139   1.406
22380W        W81817  32.585  28.998  13.492
22381W        W81818   0.247  17.776   4.727
22382W        W81819  32.390  34.049  10.560
22383W        W81820  29.571  41.007   1.801
22384W        W81821  23.112  34.561  13.343
22385W        W81822  35.443   7.179  10.412
22386W        W81823   0.309  14.227   4.619
22387W        W81824  37.489  17.201   3.761
22388W        W81825   8.204  29.941   0.245
22389W        W81826  32.921  16.677  11.069
22390W        W81827   3.286  38.832   5.124
22391W        W81828  40.017  25.002   3.764
22392W        W81829   2.244  25.606  10.107
22393W        W81830  14.166  42.309   3.842
22394W        W81831  18.562  12.835   2.275
22395W        W81832  14.693  17.199  10.511
22396W        W81833  11.303  35.904  14.900
22397W        W81834  18.223  43.405  11.888
22398W        W81835  30.458   1.805  11.393
22399W        W81836   0.773  15.579  13.817
22400W        W81837  39.056   8.817   4.668
22401W        W81838  14.242  12.306  14.376
22402W        W81839  26.536  11.346  14.373
22403W        W81840  13.309  20.274  14.891
22404W        W81841   3.439  14.833  14.969
22405W        W81842  32.618   4.278  13.376
22406W        W81843  32.521   6.218   4.139
22407W        W81844  13.650  33.444   0.374
22408W        W81845  25.575  35.863  13.546
22409W        W81846   4.741  42.786  13.795
22410W        W81847   2.888  35.411   2.360
22411W        W81848  37.490  42.820  11.856
22412W        W81849   1.340  18.560   0.290
22413W        W81850  10.214  13.838  11.993
22414W        W81851  16.175   9.185  10.947
22415W        W81852   6.863  36.071   0.314
22416W        W81853   4.746   1.265  14.352
22417W        W81854  32.605   9.296  12.928
22418W        W81855  18.617  19.083   2.884
22419W        W81856  43.829   1.325  12.073
22420W        W81857  15.254  44.779   2.868
22421W        W81858   4.376  33.623   0.918
22422W        W81859   8.375  21.164  13.005
22423W        W81860  36.891  10.364   1.823
22424W        W81861   3.749  24.604  12.033
22425W        W81862   6.373  44.815   4.218
22426W        W81863  27.060  18.202   4.747
22427W        W81864  19.244   9.262   4.306
22428W        W81865  16.197  37.445   3.223
22429W        W81866  10.793  19.256  14.870
22430W        W81867  18.154  30.454   2.415
22431W        W81868  18.582   3.289  11.065
22432W        W81869  33.452  13.151  13.949
22433W        W81870  24.202  27.059  13.467
22434W        W81871  26.122  19.227   4.331
22435W        W81872  28.119  13.692  11.422
22436W        W81873  25.500  42.962  11.465
22437W        W81874   4.942  15.322   2.329
22438W        W81875  29.055   1.920  10.955
22439W        W81876  10.654  44.931  12.031
22440W        W81877  28.181   8.321  11.887
22441W        W81878  35.971   9.711   0.318
22442W        W81879  35.922  44.385   3.763
22443W        W81880   7.342  18.115  11.975
22444W        W81881  24.482  12.137  10.045
22445W        W81882  16.699  20.219   4.304
22446W        W81883   4.759   8.386   4.757
22447W        W81884   0.285  29.464  12.551
22448W        W81885   6.874   9.665   4.244
22449W        W81886   7.678   3.407   3.650
22450W        W81887   4.314   5.933  11.506
22451W        W81888  36.920  21.023   0.835
22452W        W81889  38.882   5.709   2.276
22453W        W81890  36.492  37.899   0.319
22454W        W81891  41.527  26.991   1.213
22455W        W81892  32.991  21.160  13.862
22456W        W81893  11.364  23.598   1.710
22457W        W81894  17.213  19.280  14.858
22458W        W81895  38.040   4.426   2.397
22459W        W81896  44.354  36.054   0.812
22460W        W81897  29.524  16.797  11.859
22461W        W81898  40.485  18.272   3.200
22462W        W81899  17.242  30.428  12.468
22463W        W81900  41.806   4.208   3.371
22464W        W81901  38.412  26.184   3.352
22465W        W81902   9.786  15.655  14.483
22466W        W81903   8.259  11.737  11.999
22467W        W81904  18.199  38.427   1.697
22468W        W81905  28.024  27.145  10.576
22469W        W81906  38.887   4.841  10.968
22470W        W81907  44.894  39.486  13.859
22471W        W81908  20.274  27.013  12.837
22472W        W81909   0.830  30.983  10.924
22473W        W81910  39.986  35.909   1.808
22474W        W81911  44.965  20.235  10.605
22475W        W81912  44.923  23.606  12.473
22476W        W81913   4.879  21.671  12.902
22477W        W81914  37.970   1.976   4.777
22478W        W81915  19.217  38.830   4.799
22479W        W81916  33.113  31.964   2.348
22480W        W81917   6.394  31.092  12.834
22481W        W81918  19.154   2.373   2.750
22482W        W81919  42.328  11.146   3.840
22483W        W81920  38.929  31.552   4.290
22484W        W81921   8.789  27.521   4.759
22485W        W81922  10.715  40.429   0.259
22486W        W81923  25.476   1.267  13.817
22487W        W81924  19.551  39.368  10.417
22488W        W81925  42.987  34.100   2.717
22489W        W81926  15.304  13.839  13.800
22490W        W81927   4.855   4.708   2.741
22491W        W81928  40.414  40.914   3.640
22492W        W81929   7.817  10.237   3.170
22493W        W81930  16.577  41.807   5.304
22494W        W81931  15.597   4.214   2.240
22495W        W81932   1.901  41.432  13.836
22496W        W81933  43.313  22.016   2.826
22497W        W81934  21.728  33.955   3.854
22498W        W81935  40.434  11.346  13.512
22499W        W81936  14.811  31.119   1.797
22500W        W81937  44.296   4.379  12.452
22501W        W81938   0.864  22.731  10.046
22502W        W81939  24.657  43.441  14.792
22503W        W81940  44.905  29.108  12.962
22504W        W81941  30.631  28.521   1.374
22505W        W81942  32.023  37.867   0.889
22506W        W81943  37.359  11.769  14.495
22507W        W81944  20.679  15.814  10.128
22508W        W81945  41.892  10.841   3.213
22509W        W81946  15.639  43.017  14.298
22510W        W81947   9.219  43.417  10.496
22511W        W81948  13.283  21.685   2.897
22512W        W81949  21.201  21.631   9.638
22513W        W81950  37.345   6.897  14.501
22514W        W81951  12.819  25.540   1.853
22515W        W81952  33.567   0.276   5.222
22516W        W81953   1.798   7.788  14.448
22517W        W81954  13.645  33.901   4.615
22518W        W81955   6.781  22.045   1.784
22519W        W81956  20.753  23.173  13.468
22520W        W81957   6.324  40.401   2.283
22521W        W81958   3.827   6.764   3.658
22522W        W81959  20.156  29.608  10.626
22523W        W81960  21.548   9.727  14.874
22524W        W81961  29.994  10.194   2.891
22525W        W81962   6.189  26.556  13.314
22526W        W81963   0.288   5.224   0.434
22527W        W81964  19.690  14.232   4.716
22528W        W81965  44.943  33.521  11.422
22529W        W81966   9.728  33.909  13.865
22530W        W81967  28.516  19.086  13.379
22531W        W81968  24.019  27.503   2.894
22532W        W81969  23.195   5.695  14.887
22533W        W81970  12.357  43.808   4.287
22534W        W81971   3.398  22.234   4.249
22535W        W81972  21.088  18.136   1.906
22536W        W81973  35.484   4.388  10.417
22537W        W81974   6.860   0.785  13.374
22538W        W81975  12.335  40.823  11.438
22539W        W81976  38.846  32.898  12.462
22540W        W81977   5.771  21.059   2.263
22541W        W81978  17.737  25.117   0.396
22542W        W81979  27.634  25.205   3.738
22543W        W81980  42.912  10.869   3.220
22544W        W81981  42.478  14.207   1.414
22545W        W81982  25.559  17.729   3.220
22546W        W81983   3.736  44.328  12.879
22547W        W81984   0.339   6.879   3.765
22548W        W81985  29.107  10.826   5.263
22549W        W81986  43.358  43.434  12.019
22550W        W81987  18.106  27.023  12.422
22551W        W81988   7.859  36.575   4.277
22552W        W81989  11.647  32.005   0.758
22553W        W81990  13.300  21.119   3.236
22554W        W81991  38.060  44.962   0.813
22555W        W81992  37.491   9.652   3.661
22556W        W81993  38.972  12.660  10.906
22557W        W81994  21.753  18.180  12.428
22558W        W81995  38.538  34.419   1.392
22559W        W81996  26.486  27.600   2.748
22560W        W81997  33.514  12.188  12.438
22561W        W81998  37.859  17.607   2.414
22562W        W81999  18.256  40.396  11.505
22563W        W82000  40.504  27.481  13.892
22564W        W82001  12.723   5.238   0.877
22565W        W82002  18.268  10.807  12.038
22566W        W82003  17.267  13.622   0.772
22567W        W82004   4.270  43.504  13.404
22568W        W82005   7.843   7.738  14.885
22569W        W82006  23.003  10.208   3.318
22570W        W82007  41.530  11.186   0.893
22571W        W82008   1.471  19.240   1.801
22572W        W82009  42.881   5.375   4.726
22573W        W82010  31.904  20.235  11.445
22574W        W82011  13.181   7.667   0.865
22575W        W82012  13.312  40.438  13.372
22576W        W82013  13.298   4.276   0.834
22577W        W82014  23.639   4.799   0.843
22578W        W82015   7.718   8.739  11.863
22579W        W82016   2.425  27.572  13.399
22580W        W82017  22.170   1.873   1.331
22581W        W82018  13.254   0.470   4.274
22582W        W82019  40.325   2.446  10.631
22583W        W82020   8.719  30.532  12.432
22584W        W82021  11.207  33.513  11.592
22585W        W82022  27.173  22.009  11.009
22586W        W82023  23.011  39.399   0.252
22587W        W82024  14.832  38.388  13.941
22588W        W82025   9.192  44.272   3.691
22589W        W82026   5.325  29.049   2.419
22590W        W82027  23.734  10.715  13.378
22591W        W82028   2.388  13.635  10.474
22592W        W82029  29.120  15.321  13.431
22593W        W82030   3.766   2.954   0.892
22594W        W82031  28.059  21.659   1.242
22595W        W82032  36.520  41.798   1.734
22596W        W82033  19.712  27.190   2.798
22597W        W82034  19.612  14.814  10.541
22598W        W82035  14.608  14.119  13.921
22599W        W82036  38.558  23.722   3.859
22600W        W82037  35.597  22.102   2.693
22601W        W82038  28.563  44.359  13.411
22602W        W82039   7.321  31.069  14.877
22603W        W82040  34.440  42.950   1.852
22604W        W82041  22.747  42.787   0.336
22605W        W82042  40.018  22.104  14.898
22606W        W82043  32.444  24.012  10.616
22607W        W82044  26.521  28.586  14.005
22608W        W82045  41.799   3.418   0.885
22609W        W82046  38.916  41.874   1.417
22610W        W82047  14.249  26.582   4.662
22611W        W82048  13.316  34.572   0.324
22612W        W82049   0.331  13.748   1.742
22613W        W82050  16.160  18.231  12.894
22614W        W82051  28.137  41.833   2.797
22615W        W82052  12.738  22.652  12.943
22616W        W82053  41.388   4.853  14.448
22617W        W82054  30.150  39.476  13.882
22618W        W82055  37.028  30.527  13.935
22619W        W82056  14.821  26.545  13.437
22620W        W82057  15.746  11.782   4.145
22621W        W82058  36.464  41.962  12.534
22622W        W82059  38.474   9.356   0.409
22623W        W82060  28.074  28.021   3.214
22624W        W82061   5.294  44.898  14.514
22625W        W82062  37.048  15.234  14.415
22626W        W82063  43.020   7.256  13.313
22627W        W82064  20.233  26.030   4.691
22628W        W82065  18.710  37.440   1.265
22629W        W82066  11.372  38.499  10.544
22630W        W82067  29.073  37.480   2.879
22631W        W82068  10.751  29.918  11.908
22632W        W82069  23.733  17.598   4.610
22633W        W82070  32.121  43.931  14.796
22634W        W82071   5.381  18.101   3.363
22635W        W82072  16.638  10.329   1.260
22636W        W82073  29.954  30.951  14.507
22637W        W82074  28.605  33.883   3.655
22638W        W82075  14.219  24.626  10.625
22639W        W82076  36.460  37.390  13.847
22640W        W82077  22.660  27.565  14.977
22641W        W82078  29.509   3.871   4.820
22642W        W82079  37.545   3.840   4.305
22643W        W82080   3.796   5.925  11.888
22644W        W82081   6.295  30.644  11.385
22645W        W82082  24.527  24.603   4.145
22646W        W82083  31.560   8.849  14.964
22647W        W82084   6.898  29.160   9.542
22648W        W82085  25.989   8.396  13.922
22649W        W82086  22.560  40.438   2.857
22650W        W82087  11.662  38.348  11.929
22651W        W82088  30.578   0.449  14.784
22652W        W82089  42.422  36.960   0.283
22653W        W82090  33.429  41.464  13.057
22654W        W82091   7.322  35.412  14.904
22655W        W82092  32.575   1.763   4.745
22656W        W82093  43.934   8.346   0.461
22657W        W82094  30.995  32.544  12.087
22658W        W82095   7.388  10.376   9.994
22659W        W82096  43.795   8.186  11.987
22660W        W82097  33.982  42.456   3.333
22661W        W82098  34.407   6.314  11.083
22662W        W82099  20.555  41.044   2.185
22663W        W82100  19.234  23.722  14.430
22664W        W82101  11.707   0.857  13.503
22665W        W82102  12.224  22.630  12.917
22666W        W82103  19.615  34.423   2.356
22667W        W82104   8.353   1.851   4.133
22668W        W82105  32.993  25.201  14.923
22669W        W82106  34.888  27.061   2.282
22670W        W82107   0.320  25.146  13.042
22671W        W82108  37.044  43.974  11.067
22672W        W82109  31.443  44.344  11.609
22673W        W82110  11.247  29.456   2.227
22674W        W82111  43.952  44.266   4.218
22675W        W82112  25.074   4.847   1.843
22676W        W82113  24.629  31.466  13.503
22677W        W82114  39.532  37.882  14.876
22678W        W82115   4.936  15.782  14.847
22679W        W82116  42.879  15.203   1.735
22680W        W82117  10.248  29.099   4.311
22681W        W82118  15.150  41.018   4.711
22682W        W82119   4.425   1.889   2.254
22683W        W82120   7.361   7.315   1.775
22684W        W82121  44.497   2.416   1.874
22685W        W82122  36.857  39.376  11.571
22686W        W82123  36.422  31.573   3.268
22687W        W82124  39.506  25.986  14.956
22688W        W82125  29.516  44.393  14.456
22689W        W82126   9.154   4.832   4.128
22690W        W82127  33.879  10.266  12.864
22691W        W82128  22.232  36.423  11.506
22692W        W82129  38.825   9.389  11.075
22693W        W82130  27.510  16.618   3.304
22694W        W82131   6.344  22.741  12.051
22695W        W82132   7.204  36.450  11.111
22696W        W82133  19.693  39.961  10.991
22697W        W82134  42.991  33.480  14.821
22698W        W82135  25.594  41.367  12.468
22699W        W82136  30.451  39.369   1.820
22700W        W82137  32.591  27.496   3.634
22701W        W82138  42.863   9.643   4.274
22702W        W82139  31.922  18.661  12.053
22703W        W82140  11.759  17.099  14.296
22704W        W82141  32.410   6.204  11.045
22705W        W82142  14.261  34.034   4.620
22706W        W82143  41.383   2.783  10.577
22707W        W82144  23.540  26.535  14.938
22708W        W82145  22.151  13.785   3.173
22709W        W82146  18.611   5.903  13.441
22710W        W82147  25.700  23.699   2.228
22711W        W82148  38.841  16.568  10.597
22712W        W82149  10.778  31.946  10.480
22713W        W82150  28.078  30.002  12.896
22714W        W82151  27.608   0.753   1.698
22715W        W82152  21.161  40.484  13.946
22716W        W82153  43.911   9.225   2.715
22717W        W82154   0.945  19.686   0.829
22718W        W82155  24.695  44.315   2.199
22719W        W82156  32.022  34.867   2.881
22720W        W82157  11.241  31.540   2.774
22721W        W82158  42.007   0.894  11.021
22722W        W82159  34.511  19.144  13.801
22723W        W82160  44.866  44.781   3.288
22724W        W82161  32.590  42.447  12.032
22725W        W82162  28.948  32.601   4.296
22726W        W82163  37.974   2.787  11.967
22727W        W82164  34.390  35.992  14.338
22728W        W82165  35.391  15.188  12.477
22729W        W82166  24.633   3.866  14.765
22730W        W82167  29.122  38.861   3.180
22731W        W82168  43.857  29.919  13.411
22732W        W82169   3.924  19.261  11.425
22733W        W82170  11.265  24.516   0.737
22734W        W82171  16.238  16.721   9.514
22735W        W82172  35.976   8.319  14.481
22736W        W82173   8.293  24.655  14.322
22737W        W82174  38.477  18.201   0.458
22738W        W82175  43.314  10.860   2.692
22739W        W82176  31.409  39.870  12.570
22740W        W82177  40.348  18.735  14.867
22741W        W82178   9.193  22.149  12.906
22742W        W82179  40.361  24.614  10.951
22743W        W82180  15.692   0.844  12.080
22744W        W82181  13.700  41.848   2.190
22745W        W82182  38.895  43.842  11.119
22746W        W82183  18.109   3.405   0.797
22747W        W82184   6.782  13.624  12.374
22748W        W82185  27.161  33.933  13.846
22749W        W82186   7.252   8.701   0.290
22750W        W82187  21.751   8.710   2.335
22751W        W82188  10.722  27.623   3.689
22752W        W82189  13.769  13.347   1.313
22753W        W82190   3.947  18.121  13.843
22754W        W82191  28.565  36.395   4.194
22755W        W82192  10.702  35.480   3.833
22756W        W82193  38.503   2.342   2.366
22757W        W82194   0.324   4.331  11.919
22758W        W82195   4.348  18.111  10.503
22759W        W82196  26.699  26.037   1.400
22760W        W82197  15.734  33.615   4.154
22761W        W82198  38.390  15.279   1.427
22762W        W82199  20.660   1.406  14.921
22763W        W82200  25.138  21.750  10.062
22764W        W82201   5.407  21.541  12.371
22765W        W82202  13.845  29.947   3.320
22766W        W82203  20.260  30.560  13.537
22767W        W82204  27.973  40.309  11.403
22768W        W82205  22.139  31.430  11.381
22769W        W82206  44.370  15.640   1.870
22770W        W82207  23.556  25.483   2.708
22771W        W82208  36.436  31.129  14.471
22772W        W82209  36.470  28.075  11.858
22773W        W82210  40.342  42.980  11.470
22774W        W82211  13.141  28.440  13.520
22775W        W82212  44.772   3.722   3.350
22776W        W82213  24.049   0.872   2.223
22777W        W82214  20.579  38.996  13.438
22778W        W82215  14.635  33.994   2.272
22779W        W82216  22.122  35.577   0.888
22780W        W82217  40.940  37.895   3.198
22781W        W82218   3.773  21.683   2.777
22782W        W82219   5.193  12.238   4.269
22783W        W82220   7.332   0.944   5.154
22784W        W82221  40.877  32.433  12.431
22785W        W82222  18.102  36.866   4.785
22786W        W82223  28.150  10.815   3.740
22787W        W82224   2.812  21.528   4.305
22788W        W82225  18.648  24.009   1.312
22789W        W82226  33.408  35.491  14.881
22790W        W82227  13.669  19.533   2.717
22791W        W82228  10.856  39.475  11.420
22792W        W82229  34.515  29.637   1.756
22793W        W82230  21.054   6.783  12.849
22794W        W82231  25.651  13.606   0.963
22795W        W82232  18.290   5.332   4.668
22796W        W82233  32.586  23.579  12.566
22797W        W82234  26.197  42.000  11.128
22798W        W82235  42.422  12.706   2.698
22799W        W82236   3.927  30.577  12.970
22800W        W82237  44.833  11.280   0.959
22801W        W82238  12.181  20.751  14.840
22802W        W82239  31.918   2.897   2.719
22803W        W82240  28.179  20.736  11.378
22804W        W82241  22.557  23.677  12.579
22805W        W82242  10.637  20.067   3.653
22806W        W82243  33.937  22.648   0.874
22807W        W82244  40.920  12.756   0.941
22808W        W82245  36.562  34.984  13.013
22809W        W82246  15.181  43.019  11.521
22810W        W82247   2.436  13.187   1.346
22811W        W82248  29.946  36.574   4.798
22812W        W82249  15.753  29.536  14.442
22813W        W82250  43.457  22.695   4.629
22814W        W82251  25.130  35.048   5.241
22815W        W82252  30.979  43.325   4.786
22816W        W82253   6.691  21.150  14.009
22817W        W82254   7.838  28.147  14.423
22818W        W82255  31.112  39.944  14.773
22819W        W82256   9.227  22.643  13.985
22820W        W82257  28.453  22.049   2.770
22821W        W82258  12.619  18.711  12.939
22822W        W82259  16.649  19.182   0.938
22823W        W82260   2.782  35.585  14.919
22824W        W82261   0.886   4.833   0.860
22825W        W82262  42.437  35.083  14.462
22826W        W82263  44.368  25.089  11.452
22827W        W82264   2.852  19.052  14.947
22828W        W82265  41.432  43.934   3.726
22829W        W82266  40.867  28.467   0.244
22830W        W82267  15.763   0.381  11.583
22831W        W82268  17.788   2.846  11.455
22832W        W82269  26.508   2.927  14.481
22833W        W82270  21.548  15.085   3.340
22834W        W82271  15.590   5.392  10.456
22835W        W82272  21.742   5.377  12.474
22836W        W82273   3.746  28.999  12.032
22837W        W82274  42.971  40.413  13.960
22838W        W82275  39.345  43.493  10.600
22839W        W82276  29.592   1.424   2.676
22840W        W82277  15.144  42.026  12.927
22841W        W82278  24.547  36.404  10.479
22842W        W82279  21.183  23.224  12.391
22843W        W82280  16.236  11.306   1.350
22844W        W82281  15.798  16.683   1.919
22845W        W82282  18.726   6.191   3.796
22846W        W82283  23.727  26.969   4.750
22847W        W82284  23.706  20.198   1.347
22848W        W82285  25.558   8.899   0.963
22849W        W82286  39.487  25.063   2.355
22850W        W82287  27.983  29.482   3.655
22851W        W82288   3.846  42.406   4.330
22852W        W82289  23.664  16.257   0.387
22853W        W82290  12.256  25.490  14.016
22854W        W82291   2.832  27.556  10.491
22855W        W82292  14.826  21.609   3.238
22856W        W82293  32.608  11.161   0.940
22857W        W82294  44.331  32.100   0.911
22858W        W82295  15.257  29.502  11.514
22859W        W82296  13.614  33.028   2.740
22860W        W82297   1.909  17.209   3.192
22861W        W82298   1.386   9.300   3.809
22862W        W82299  18.063  22.196   2.271
22863W        W82300  29.964  14.763   3.787
22864W        W82301  19.152  21.612  14.904
22865W        W82302   6.822  22.502   2.205
22866W        W82303  15.583  16.181  11.110
22867W        W82304  35.415  12.700  12.390
22868W        W82305  23.692  16.593  12.900
22869W        W82306  31.976  12.738   2.221
22870W        W82307  29.981   5.379  11.429
22871W        W82308  29.122  14.164  13.928
22872W        W82309  32.615  43.965  11.570
22873W        W82310  16.782   0.489  10.574
22874W        W82311  25.207  36.932  11.021
22875W        W82312  27.097  36.064   4.352
22876W        W82313   4.429  32.966   0.773
22877W        W82314  18.146  12.221  13.887
22878W        W82315  28.596  37.534  13.909
22879W        W82316  25.025   7.190  12.564
22880W        W82317  37.987  34.382   4.126
22881W        W82318  39.338  27.611  10.891
22882W        W82319  22.567   6.716   0.856
22883W        W82320  11.182   8.810   3.229
22884W        W82321   5.401   7.729  13.925
22885W        W82322  19.211  38.003   0.342
22886W        W82323   3.827   3.882   1.433
22887W        W82324  40.443  44.384  14.405
22888W        W82325  41.879  13.242  14.759
22889W        W82326  35.456  12.629   4.230
22890W        W82327   2.471  39.002  12.441
22891W        W82328  39.026   3.260  14.925
22892W        W82329  43.794  23.529  12.029
22893W        W82330  40.957  34.051  13.826
22894W        W82331   5.911  17.762  14.963
22895W        W82332   1.925  25.111  12.495
22896W        W82333  13.796   6.862   4.322
22897W        W82334  36.511  11.146   1.332
22898W        W82335  21.722   4.220  14.759
22899W        W82336  37.490   2.909   1.895
22900W        W82337  25.036   6.199  11.461
22901W        W82338  24.067  29.629   3.366
22902W        W82339  31.520  27.512  12.026
22903W        W82340  22.589  39.950  12.840
22904W        W82341  14.218   1.808  10.994
22905W        W82342  23.646  35.888  14.762
22906W        W82343  34.900  35.474  12.951
22907W        W82344  21.548  34.905  12.829
22908W        W82345   4.889  40.473  12.924
22909W        W82346   5.754  25.690  13.936
22910W        W82347   7.328  30.125   2.757
22911W        W82348  35.950   0.771   0.308
22912W        W82349  39.811  13.199  11.985
22913W        W82350  32.535  30.071  13.450
22914W        W82351  14.211  41.945   3.189
22915W        W82352  36.563   4.769  13.507
22916W        W82353  34.944  33.120   4.802
22917W        W82354  43.508   1.967   4.199
22918W        W82355  34.995  43.932  12.826
22919W        W82356  36.458  21.573  12.384
22920W        W82357   2.404  34.601  11.011
22921W        W82358  28.123  13.820   3.673
22922W        W82359  17.703  21.756   3.690
22923W        W82360  31.927  26.978  13.345
22924W        W82361  10.869  10.184   4.222
22925W        W82362   1.757  24.033  12.484
22926W        W82363  25.069  11.639   1.267
22927W        W82364   5.385  40.873  10.448
22928W        W82365   2.869   1.931   4.754
22929W        W82366   9.242   4.805  12.900
22930W        W82367   9.219  21.206  13.048
22931W        W82368  16.314   3.731  10.616
22932W        W82369  11.645  18.091  10.938
22933W        W82370  38.371  35.986  14.335
22934W        W82371  14.159   1.335  12.441
22935W        W82372   6.321  27.605  14.372
22936W        W82373  26.457  33.931   2.292
22937W        W82374  20.671  25.658  11.444
22938W        W82375  10.244   1.966   3.229
22939W        W82376  32.561  20.728  10.974
22940W        W82377   7.807  12.149   0.243
22941W        W82378  13.178   2.734   1.445
22942W        W82379   4.820  34.392   3.300
22943W        W82380  37.570  31.605  11.863
22944W        W82381  25.134  30.590  12.866
22945W        W82382  23.730  27.601   3.338
22946W        W82383   6.254  40.450   1.442
22947W        W82384  11.351  13.278   1.764
22948W        W82385  26.552   4.886  13.343
22949W        W82386   8.361  43.504   0.412
22950W        W82387   1.856  32.946   4.235
22951W        W82388   9.789  28.586  14.772
22952W        W82389  33.094  41.920   2.302
22953W        W82390   5.895  29.600  12.368
22954W        W82391  38.954  35.052  13.434
22955W        W82392  22.149  10.789  14.509
22956W        W82393  22.246  36.485  14.843
22957W        W82394  18.703  18.101   4.837
22958W        W82395  18.106  28.512   2.860
22959W        W82396  10.371  13.148  12.022
22960W        W82397   7.854  42.879   0.808
22961W        W82398  29.552  37.037   2.791
22962W        W82399  18.129   0.918   3.767
22963W        W82400  20.221  29.568   0.788
22964W        W82401  34.079   5.386  11.952
22965W        W82402  31.648  12.266   0.411
22966W        W82403  21.159  30.608   3.171
22967W        W82404  33.915  13.642   0.394
22968W        W82405  33.411  10.183   1.300
22969W        W82406  12.765   3.774  10.568
22970W        W82407  34.032  31.915   0.844
22971W        W82408  30.612  28.061   3.684
22972W        W82409  29.649   6.822   1.337
22973W        W82410  17.163  14.234  13.926
22974W        W82411   5.932   4.918  13.440
22975W        W82412  24.225  13.228  12.059
22976W        W82413   7.236   3.306   4.118
22977W        W82414  16.780   1.828   1.741
22978W        W82415  42.776  25.009  14.856
22979W        W82416   2.411   4.337   2.882
22980W        W82417  12.273  27.099  10.929
22981W        W82418  19.198  31.645   3.211
22982W        W82419  25.473  39.369  11.466
22983W        W82420  22.227  21.124   3.660
22984W        W82421  14.690  36.528   2.742
22985W        W82422  17.648  43.294  12.989
22986W        W82423  33.489  15.182   2.364
22987W        W82424  31.127  40.972  13.877
22988W        W82425  23.648  20.236   0.293
22989W        W82426  13.135  21.709  11.544
22990W        W82427   2.844   1.360  10.992
22991W        W82428  37.351  32.115   0.818
22992W        W82429  36.985  30.926   2.831
22993W        W82430  22.203  25.632  13.470
22994W        W82431  44.500  42.299  10.574
22995W        W82432   0.328  21.678  13.889
22996W        W82433  31.646  39.833  11.990
22997W        W82434  30.995   9.663  12.986
22998W        W82435   8.892   2.765  11.547
22999W        W82436  36.558   8.325   0.383
23000W        W82437  13.740  39.401  13.427
23001W        W82438  37.581  37.952   3.762
23002W        W82439  38.564  22.115   1.751
23003W        W82440   0.265  38.914  13.933
23004W        W82441  41.402  40.035   3.793
23005W        W82442  34.915  35.947  10.108
23006W        W82443  20.208  21.572  13.545
23007W        W82444  34.033  32.574   1.766
23008W        W82445  42.328   2.376  12.444
23009W        W82446   1.765   0.837  13.389
23010W        W82447  16.091  39.435   1.451
23011W        W82448  37.926  23.498   4.675
23012W        W82449  27.654  16.252  11.041
23013W        W82450  29.666  21.065   1.811
23014W        W82451  21.755  28.099   4.746
23015W        W82452  23.099  11.341   4.204
23016W        W82453  38.523  28.555  12.045
23017W        W82454  12.197   8.342   4.703
23018W        W82455  32.548  24.551  13.834
23019W        W82456  41.857  41.469   2.834
23020W        W82457  42.413  42.320   3.163
23021W        W82458  40.972  33.894   3.358
23022W        W82459   5.337  10.325  10.423
23023W        W82460  33.509  37.458  14.981
23024W        W82461  21.524  16.732   9.630
23025W        W82462   8.662  38.517   1.763
23026W        W82463  25.673  38.489  12.465
23027W        W82464   2.750   3.225   3.851
23028W        W82465  14.130   9.269  10.602
23029W        W82466  26.008  32.589   2.867
23030W        W82467  15.708  24.703   1.747
23031W        W82468  20.273  37.435   9.972
23032W        W82469  19.134  23.210   4.809
23033W        W82470   6.912  12.666   3.720
23034W        W82471   6.309  43.473   2.200
23035W        W82472   7.195  21.245   4.712
23036W        W82473  27.952  17.096  12.914
23037W        W82474  14.280  16.209  11.505
23038W        W82475   4.364  15.284   4.708
23039W        W82476  35.938   0.758  14.945
23040W        W82477  11.696  28.465   3.635
23041W        W82478  13.325  21.696  12.440
23042W        W82479  26.136   6.764   0.777
23043W        W82480  26.139  34.570   2.774
23044W        W82481  16.208  23.687   2.394
23045W        W82482  26.087  38.914  10.939
23046W        W82483  36.462   9.366   0.855
23047W        W82484  31.147   1.945  14.325
23048W        W82485  25.990  32.465  14.444
23049W        W82486   2.302  18.668  14.947
23050W        W82487   6.229  16.600  13.481
23051W        W82488  10.677  13.659   1.903
23052W        W82489  28.639  41.380   4.692
23053W        W82490  10.139  15.286  14.813
23054W        W82491   1.743   0.329  11.006
23055W        W82492  36.865  39.410  14.927
23056W        W82493  36.428  16.728  11.573
23057W        W82494  31.509   1.767  13.011
23058W        W82495  22.564  26.124   1.387
23059W        W82496  34.399  23.502  10.497
23060W        W82497  34.554  11.365   1.421
23061W        W82498   5.894  18.616   0.825
23062W        W82499   8.314   5.434   1.375
23063W        W82500  18.736  18.774  14.805
23064W        W82501   5.820  10.822  14.814
23065W        W82502  26.099  14.826   3.743
23066W        W82503  29.141  42.976   4.251
23067W        W82504  15.100  32.554  11.900
23068W        W82505   7.771  35.461  10.546
23069W        W82506  10.245  35.064  10.566
23070W        W82507  16.626  22.012   2.787
23071W        W82508   9.351  10.633   4.263
23072W        W82509   3.221  40.405   4.669
23073W        W82510   6.858   1.280  10.635
23074W        W82511  18.191  42.345   1.325
23075W        W82512   6.803  12.343   0.824
23076W        W82513  24.620  39.377   3.297
23077W        W82514  41.376  31.463  13.321
23078W        W82515  31.544  18.572   0.827
23079W        W82516   1.750   4.879  12.427
23080W        W82517  17.198  10.243  12.028
23081W        W82518   8.869  34.463   3.658
23082W        W82519  21.527  43.949  14.378
23083W        W82520  21.707   6.820   4.323
23084W        W82521  37.929   9.217   0.835
23085W        W82522  29.612  32.100   3.199
23086W        W82523  41.886  24.147  11.944
23087W        W82524  11.137   9.653   2.200
23088W        W82525   7.260  23.133  14.964
23089W        W82526   9.152  23.196  14.867
23090W        W82527  23.188  29.627  11.518
23091W        W82528   8.326   1.359   3.247
23092W        W82529  17.704  22.235  14.821
23093W        W82530  18.728   8.668   4.312
23094W        W82531   5.263  41.326   1.760
23095W        W82532  20.214  23.540  10.459
23096W        W82533  23.564   8.856   0.471
23097W        W82534  23.507   7.806  12.383
23098W        W82535  35.428  34.932   2.730
23099W        W82536   5.797  12.236   3.337
23100W        W82537  32.946  38.880   1.390
23101W        W82538   8.279   7.232  13.324
23102W        W82539  15.237  23.018  12.923
23103W        W82540   2.767   7.801   0.247
23104W        W82541  42.454  35.407  11.937
23105W        W82542  18.667   4.777   4.325
23106W        W82543   9.238  34.001   0.435
23107W        W82544  22.564  11.827   9.924
23108W        W82545  19.098   9.776   2.210
23109W        W82546   0.819  33.544   0.763
23110W        W82547  37.945  19.748  10.428
23111W        W82548  28.054  11.678  14.383
23112W        W82549   8.341  23.006   2.742
23113W        W82550  30.043  39.508   4.170
23114W        W82551  15.087  22.031  14.275
23115W        W82552   6.309  18.192   2.323
23116W        W82553  39.413  25.030  12.463
23117W        W82554   4.700  12.275   1.748
23118W        W82555   6.860   4.294   4.822
23119W        W82556  35.370  32.021  11.482
23120W        W82557  26.070   1.264   2.347
23121W        W82558  32.541  22.095   4.140
23122W        W82559   0.290  18.691  14.281
23123W        W82560  36.395  15.146  11.031
23124W        W82561   3.275  28.563  10.534
23125W        W82562  37.929  28.173   4.731
23126W        W82563  35.525  18.614  12.415
23127W        W82564  24.167  38.857  12.046
23128W        W82565  32.083   0.961   3.815
23129W        W82566  32.920   7.806   2.320
23130W        W82567  21.179  17.787   3.185
23131W        W82568  40.478  30.983  12.921
23132W        W82569  26.013  16.250   3.241
23133W        W82570  15.223   1.939   2.689
23134W        W82571  35.091  13.686   4.262
23135W        W82572  41.322  24.598   1.217
23136W        W82573  37.982  26.053   3.248
23137W        W82574  36.932   6.714   4.660
23138W        W82575  43.385   5.409   3.251
23139W        W82576  41.797   6.415   4.180
23140W        W82577  38.892  16.191   2.318
23141W        W82578  34.010  28.180   0.767
23142W        W82579  38.903  43.281  13.351
23143W        W82580   7.245  43.815  13.348
23144W        W82581  40.814  22.100   2.851
23145W        W82582  40.426  36.971   1.297
23146W        W82583  30.440  27.127  11.927
23147W        W82584   9.189  28.620  10.427
23148W        W82585  44.268  14.621  13.358
23149W        W82586  28.594  26.188  12.855
23150W        W82587  22.601  42.490  10.980
23151W        W82588   9.303  31.973  12.372
23152W        W82589  29.636   8.172   3.837
23153W        W82590  22.550  10.745   0.955
23154W        W82591   9.316   0.987   4.207
23155W        W82592   1.333   0.808  12.988
23156W        W82593  28.944  16.124   2.886
23157W        W82594  37.467  20.213  12.410
23158W        W82595  44.442  31.428   1.227
23159W        W82596   0.356   1.914  11.536
23160W        W82597   8.359  25.534  13.370
23161W        W82598   6.260   5.231   0.355
23162W        W82599   2.811  15.817   2.377
23163W        W82600  22.688   4.407   1.421
23164W        W82601  17.269  36.517  12.356
23165W        W82602  35.898  41.471   0.285
23166W        W82603  15.617   7.789   0.867
23167W        W82604  21.752  29.590  11.556
23168W        W82605  28.484   9.814  14.396
23169W        W82606  41.381  33.476  12.931
23170W        W82607  39.478  15.741  14.427
23171W        W82608  30.541  11.255   1.839
23172W        W82609   4.789  42.850   0.275
23173W        W82610  32.391  42.780   4.635
23174W        W82611  16.568  38.415  11.077
23175W        W82612   9.322  26.522  12.537
23176W        W82613  26.530  17.659   4.732
23177W        W82614  28.643  42.008  12.927
23178W        W82615  23.074  16.620  14.796
23179W        W82616  18.623  28.994  11.035
23180W        W82617  15.116  16.691   2.192
23181W        W82618   4.437  16.652  14.964
23182W        W82619   8.682  38.415  11.965
23183W        W82620  35.033  28.155   2.772
23184W        W82621  16.189  32.970   3.164
23185W        W82622  38.902  18.236  14.328
23186W        W82623  38.471  12.130   0.808
23187W        W82624  38.463  37.976   2.202
23188W        W82625  32.031  27.468   0.737
23189W        W82626   6.876  10.376  13.801
23190W        W82627  37.865  32.395  12.025
23191W        W82628  33.548  15.240  12.041
23192W        W82629  10.307   6.899  12.580
23193W        W82630  44.492  30.639   1.735
23194W        W82631  13.192  20.711  14.282
23195W        W82632  32.545  14.617  13.061
23196W        W82633  20.547  21.207  12.572
23197W        W82634  21.636  34.402  10.521
23198W        W82635  22.706  16.734  10.485
23199W        W82636  17.599   3.808   0.954
23200W        W82637   3.843  36.013  14.900
23201W        W82638  22.192   6.251  14.921
23202W        W82639  24.006   0.777   4.680
23203W        W82640  22.160  33.086   4.282
23204W        W82641  40.998   6.732   2.382
23205W        W82642  21.625   7.867  11.569
23206W        W82643  11.751  32.485  11.382
23207W        W82644  19.590  32.580   4.719
23208W        W82645  31.630  11.349   1.911
23209W        W82646   2.349   2.324  14.407
23210W        W82647  25.505  19.212  10.470
23211W        W82648  33.408  38.998  13.494
23212W        W82649  44.444  11.192  12.988
23213W        W82650  31.521  31.907   0.910
23214W        W82651   9.199   1.435   3.239
23215W        W82652  31.992  28.525   3.318
23216W        W82653  27.566  29.057  13.358
23217W        W82654  31.912   7.302  13.383
23218W        W82655  20.766  33.085   4.636
23219W        W82656  43.407  32.952   5.172
23220W        W82657   0.814  20.183  10.499
23221W        W82658  10.817   4.724   2.799
23222W        W82659  17.120   9.300   4.684
23223W        W82660  36.904  14.813   4.179
23224W        W82661  33.089  32.899  13.821
23225W        W82662   2.806   7.312   0.469
23226W        W82663  38.896  38.552  11.592
23227W        W82664  15.185  20.603  11.395
23228W        W82665   8.714  28.062  11.391
23229W        W82666  27.008  28.478   0.399
23230W        W82667   2.948  16.756   2.279
23231W        W82668  32.001   2.831   0.320
23232W        W82669  15.248  26.649   5.132
23233W        W82670  20.558  21.196  10.645
23234W        W82671  27.174  43.278  14.306
23235W        W82672  18.122  22.208  10.951
23236W        W82673  43.425  30.003   4.212
23237W        W82674  18.649  28.132   2.258
23238W        W82675  11.369   2.359   0.364
23239W        W82676   7.844  30.558   0.927
23240W        W82677   2.966   6.726  13.493
23241W        W82678   3.843  12.740  10.571
23242W        W82679  13.179  10.333   0.318
23243W        W82680  10.349  12.648   4.232
23244W        W82681  39.025   2.933   0.847
23245W        W82682  24.637   8.402   3.770
23246W        W82683  41.398   7.363   4.233
23247W        W82684  34.426  22.059   0.341
23248W        W82685   1.291  32.503   4.121
23249W        W82686   8.327   1.437  11.517
23250W        W82687  44.272  23.079  13.331
23251W        W82688  18.255  41.019   1.710
23252W        W82689  43.462   5.892   2.871
23253W        W82690  32.912  32.576   1.442
23254W        W82691   5.819  26.596  11.556
23255W        W82692  25.995  21.096   2.286
23256W        W82693  24.560   8.813  12.353
23257W        W82694  34.868  15.688   5.186
23258W        W82695  20.172   3.826  13.318
23259W        W82696  39.335  33.469   9.928
23260W        W82697  11.794  35.392   0.919
23261W        W82698  29.939  25.208  10.970
23262W        W82699  12.827  41.487   3.276
23263W        W82700  34.421  32.612  11.015
23264W        W82701   5.425  15.773  11.605
23265W        W82702  11.242   5.918  14.300
23266W        W82703  15.158   2.811  12.013
23267W        W82704  31.623   2.304   3.339
23268W        W82705  19.284   9.681  14.343
23269W        W82706  44.754   7.676   3.866
23270W        W82707  38.041  43.445  10.404
23271W        W82708  23.091  13.751  12.051
23272W        W82709  18.560  15.747   1.792
23273W        W82710   4.289  30.590  12.399
23274W        W82711  33.073  28.656  10.949
23275W        W82712  16.798   5.769  11.047
23276W        W82713  24.980   9.240   2.273
23277W        W82714  10.643  24.534  14.868
23278W        W82715  15.249  36.092  10.539
23279W        W82716  36.899  19.229  13.816
23280W        W82717   1.259   8.752   4.602
23281W        W82718  29.470  13.333  12.844
23282W        W82719  42.803  29.542   0.331
23283W        W82720  20.270   7.870   1.789
23284W        W82721  19.746  20.145   2.745
23285W        W82722  18.636  12.635   3.253
23286W        W82723  37.983  13.124   3.817
23287W        W82724  29.660  30.043  12.547
23288W        W82725  29.050   7.815  13.807
23289W        W82726  31.153   6.803   0.429
23290W        W82727  35.883  30.044  10.614
23291W        W82728  42.910   2.798   4.300
23292W        W82729  12.801   1.895  10.891
23293W        W82730  35.101  34.937   4.221
23294W        W82731   4.247   6.390  13.334
23295W        W82732   5.884  12.834   2.335
23296W        W82733   0.284   4.827   0.358
23297W        W82734   6.710   4.734  13.357
23298W        W82735  24.590  38.009   1.898
23299W        W82736   5.843   3.863   0.372
23300W        W82737   6.882   4.939   0.748
23301W        W82738  31.505  38.477   0.311
23302W        W82739  40.500  14.643  14.334
23303W        W82740  16.240  35.015   2.691
23304W        W82741   0.945  29.659  14.302
23305W        W82742  14.131  21.695   0.941
23306W        W82743   2.954   3.359   1.324
23307W        W82744   4.707  23.123   2.292
23308W        W82745  13.639  28.934  12.566
23309W        W82746  11.728  42.965  11.511
23310W        W82747  15.664  10.315  14.949
23311W        W82748  28.096  36.474  13.962
23312W        W82749  42.023  44.309  14.769
23313W        W82750  30.928  42.486   2.320
23314W        W82751   5.402  10.801   1.421
23315W        W82752  21.172  43.333   2.363
23316W        W82753  39.975  33.063  14.416
23317W        W82754  44.380  21.050  13.792
23318W        W82755  20.744  33.433   4.722
23319W        W82756  25.162  42.512  11.117
23320W        W82757  41.422  11.749  12.513
23321W        W82758  14.257  34.041   0.739
23322W        W82759  38.871   1.354   3.827
23323W        W82760  34.048  22.073   1.312
23324W        W82761  25.037  13.130  11.963
23325W        W82762  22.628   5.807  13.831
23326W        W82763  22.542  33.539   0.333
23327W        W82764  17.683   1.343  10.457
23328W        W82765  34.903  20.742   1.765
23329W        W82766  11.659  38.415   4.263
23330W        W82767  39.522  10.309   3.674
23331W        W82768  18.789  28.075   4.622
23332W        W82769  26.687  17.115  11.122
23333W        W82770  40.385  13.340  11.872
23334W        W82771  42.450  40.954  13.890
23335W        W82772  15.139   9.219  13.877
23336W        W82773  30.550   2.899  13.344
23337W        W82774  15.798  10.339  10.004
23338W        W82775  24.162  20.639   0.401
23339W        W82776  37.052  39.531  10.601
23340W        W82777  39.417  40.489   3.774
23341W        W82778  15.167  11.255   1.268
23342W        W82779  40.529  12.153   4.720
23343W        W82780  16.811  19.543  12.494
23344W        W82781  21.711  27.029   4.238
23345W        W82782   7.183   2.286   4.622
23346W        W82783  12.136  26.995  14.347
23347W        W82784   9.668  33.045   1.244
23348W        W82785  12.244  35.053   0.800
23349W        W82786  39.831  30.142   0.346
23350W        W82787   9.220  27.018   4.773
23351W        W82788   8.225   1.871  14.872
23352W        W82789   2.317  11.621   0.265
23353W        W82790  42.521  38.901   3.274
23354W        W82791   1.438   3.439  13.021
23355W        W82792  16.186  38.038   5.317
23356W        W82793  39.556  13.186   2.878
23357W        W82794  23.989  13.109  11.028
23358W        W82795  32.445  17.170   3.823
23359W        W82796   1.948  44.422  11.525
23360W        W82797   5.289  23.713  11.948
23361W        W82798  43.790  38.472   4.634
23362W        W82799  43.318   8.699  12.931
23363W        W82800  28.035  23.702  13.526
23364W        W82801  18.606   1.733  12.053
23365W        W82802   6.290  18.672  12.952
23366W        W82803  38.400  24.127   0.943
23367W        W82804   8.215  33.506  10.952
23368W        W82805  11.364  26.002  11.593
23369W        W82806   3.724  37.895  14.312
23370W        W82807  33.005  25.977  13.901
23371W        W82808  16.801  11.278  11.107
23372W        W82809  17.581   7.371  13.058
23373W        W82810  15.189  24.590   0.483
23374W        W82811  39.539  43.770   0.447
23375W        W82812  19.604  42.985   0.406
23376W        W82813   2.959  26.530  11.461
23377W        W82814  33.507  20.167   1.446
23378W        W82815  31.911  19.267  14.467
23379W        W82816  16.594  27.146  13.311
23380W        W82817  28.164  43.295  11.375
23381W        W82818  31.469  22.215   1.265
23382W        W82819  28.051  17.589   1.863
23383W        W82820  22.713  29.963  14.887
23384W        W82821  14.307  33.918  14.462
23385W        W82822  20.607  28.976  12.450
23386W        W82823   0.312  16.756  11.936
23387W        W82824  23.606  13.789   1.415
23388W        W82825  34.072  17.698   4.167
23389W        W82826  39.363  39.062  12.993
23390W        W82827  30.938  26.502  10.525
23391W        W82828  42.498   6.427   0.889
23392W        W82829  28.180   9.843   3.337
23393W        W82830  36.917  44.953   1.355
23394W        W82831  41.992  35.550   0.351
23395W        W82832  31.560   3.363  12.964
23396W        W82833  21.671   3.738  11.944
23397W        W82834  14.820   8.675  14.820
23398W        W82835  20.265   9.826   4.628
23399W        W82836  15.720  40.441   1.429
23400W        W82837  11.163   8.762   1.264
23401W        W82838  43.468  23.170   3.196
23402W        W82839  31.966  44.430   4.301
23403W        W82840  32.099  15.663   4.142
23404W        W82841  39.817  19.695  11.089
23405W        W82842  17.271  16.761  13.475
23406W        W82843  40.458  38.568   4.306
23407W        W82844  41.409  44.298   2.306
23408W        W82845   4.825  31.586  13.834
23409W        W82846  37.447   0.943   2.342
23410W        W82847   2.331  16.289   0.870
23411W        W82848  27.651  22.218   1.719
23412W        W82849  34.439  44.433  10.506
23413W        W82850  24.995  14.143   2.227
23414W        W82851  24.012  41.964   2.800
23415W        W82852  28.452  12.771   3.749
23416W        W82853  35.091   9.811  12.498
23417W        W82854  34.982  44.373  14.874
23418W        W82855  23.988  10.871   3.325
23419W        W82856  32.082  10.254  10.554
23420W        W82857  10.744   9.357   0.881
23421W        W82858  32.570  34.397   1.784
23422W        W82859  24.217  34.506  10.607
23423W        W82860   1.757  14.130  14.823
23424W        W82861  42.458  17.698  13.832
23425W        W82862  37.531   7.772   1.363
23426W        W82863   8.386   9.867   3.162
23427W        W82864  17.672  10.145  14.970
23428W        W82865   9.671  12.815   4.776
23429W        W82866  12.767  36.929   3.235
23430W        W82867   8.747  43.969  14.938
23431W        W82868  18.257  24.672   3.163
23432W        W82869   8.786  10.362  10.098
23433W        W82870   1.922   6.320   1.449
23434W        W82871  14.686  37.393  11.884
23435W        W82872  38.408   9.332  13.531
23436W        W82873   5.241  11.334  11.895
23437W        W82874  36.013  11.154  12.558
23438W        W82875  10.867  29.042  11.084
23439W        W82876  22.729   1.881   2.696
23440W        W82877  33.552  24.135  11.059
23441W        W82878   8.404  14.103   1.439
23442W        W82879  33.473  16.784  10.903
23443W        W82880  22.045  36.954  14.027
23444W        W82881   2.335  29.474  11.477
23445W        W82882  11.258   1.435  14.379
23446W        W82883  13.755  36.513  14.979
23447W        W82884   5.241  34.963   1.865
23448W        W82885  29.560  39.975  13.444
23449W        W82886  40.426   5.365  11.511
23450W        W82887  25.608  35.089   2.267
23451W        W82888  17.093  27.611  13.998
23452W        W82889   4.807  19.077   1.809
23453W        W82890  19.258   3.849  14.982
23454W        W82891  12.777  29.645  11.994
23455W        W82892  37.858  36.077   4.662
23456W        W82893  16.125  14.620   2.307
23457W        W82894  43.468  13.767  11.579
23458W        W82895   5.213  32.927   0.932
23459W        W82896  40.453  39.492  14.833
23460W        W82897  17.226  21.196  10.625
23461W        W82898  11.329  10.866   2.903
23462W        W82899  15.584  10.714   2.337
23463W        W82900  28.674  37.352  12.979
23464W        W82901  25.504  17.217  12.072
23465W        W82902   4.871   4.706  12.562
23466W        W82903   9.752  37.007   1.764
23467W        W82904  18.109  23.656  13.014
23468W        W82905  34.505   2.398  10.456
23469W        W82906  33.971  22.646   0.412
23470W        W82907  30.084  34.440   4.676
23471W        W82908  38.518   6.198  11.473
23472W        W82909  15.751   2.730   0.788
23473W        W82910  30.570  20.186   4.831
23474W        W82911  33.015   4.439  11.898
23475W        W82912   7.205   6.293  11.926
23476W        W82913  34.496  44.365  12.446
23477W        W82914  42.929  32.038   2.738
23478W        W82915  30.050  36.937   3.709
23479W        W82916   1.349   8.871   2.851
23480W        W82917  35.556  31.024  10.580
23481W        W82918  38.965  34.577  11.389
23482W        W82919   4.831  24.501  12.527
23483W        W82920  16.626  28.027   3.223
23484W        W82921  11.825  33.097  12.412
23485W        W82922  37.412  39.832  11.454
23486W        W82923  11.195  23.197   3.250
23487W        W82924  36.552  28.499  10.915
23488W        W82925  20.034  44.456   4.309
23489W        W82926  34.379  38.324   3.170
23490W        W82927  28.117  14.224  13.442
23491W        W82928  22.656  38.027  13.450
23492W        W82929  22.603  21.547   0.942
23493W        W82930  23.209  24.191   0.371
23494W        W82931  18.159  38.329   4.183
23495W        W82932   9.718  30.457   2.898
23496W        W82933  30.441  10.288  12.399
23497W        W82934   7.263  23.008   3.228
23498W        W82935  23.622   5.324  11.918
23499W        W82936  42.025  23.219  12.460
23500W        W82937  23.241   9.861   3.765
23501W        W82938  25.041  21.720   0.254
23502W        W82939  25.539  32.629   3.170
23503W        W82940  15.819   0.404  13.899
23504W        W82941  10.653  24.090  12.858
23505W        W82942  11.173  19.057  13.348
23506W        W82943  27.623  33.015  11.463
23507W        W82944  37.007  40.968  13.837
23508W        W82945   2.800   0.315  14.916
23509W        W82946  21.660  24.973   3.275
23510W        W82947  33.088  23.720   5.198
23511W        W82948  16.615  13.175   2.744
23512W        W82949  39.852  21.111   4.273
23513W        W82950  29.667  29.988  14.329
23514W        W82951  22.074  41.019   1.240
23515W        W82952  27.487  18.228   0.357
23516W        W82953  21.603  33.475  10.634
23517W        W82954   1.969   1.247   1.244
23518W        W82955  43.996  29.634  12.901
23519W        W82956  36.412  41.899  13.501
23520W        W82957  24.110  34.433  12.088
23521W        W82958  26.154  25.562   0.417
23522W        W82959  20.168  40.305  11.473
23523W        W82960  18.716  33.957  11.971
23524W        W82961   1.864   6.303   5.271
23525W        W82962  26.557  26.207  11.928
23526W        W82963   4.381   3.385   5.107
23527W        W82964   1.469  16.293   4.283
23528W        W82965  32.444  11.688  12.448
23529W        W82966  19.653  15.765   0.362
23530W        W82967  18.596  18.130   1.917
23531W        W82968  36.978   7.723  11.106
23532W        W82969  39.062  10.237   9.970
23533W        W82970   8.815  19.776   3.673
23534W        W82971  11.854  18.727   2.264
23535W        W82972  29.063  20.642  14.450
23536W        W82973   5.219  14.618   5.606
23537W        W82974  33.923   1.257  10.928
23538W        W82975  16.672  12.267  14.968
23539W        W82976  44.863  13.742   3.283
23540W        W82977  38.484  10.649   2.845
23541W        W82978  12.124  27.606  12.970
23542W        W82979  23.608  16.679   1.843
23543W        W82980   0.858  40.365   5.126
23544W        W82981  27.631  44.976   2.785
23545W        W82982   5.291   1.853   1.234
23546W        W82983  44.804   1.427   3.296
23547W        W82984  22.176   4.892  12.492
23548W        W82985  12.825  44.307   3.832
23549W        W82986  13.661  14.123   1.257
23550W        W82987   1.265   9.703   2.401
23551W        W82988   9.151   0.394  11.967
23552W        W82989  23.125   0.358   1.217
23553W        W82990  14.258  11.622  12.374
23554W        W82991   9.181  34.501  10.019
23555W        W82992  13.837  20.687   1.712
23556W        W82993  12.774  31.643   2.797
23557W        W82994   2.342   0.332   1.315
23558W        W82995  42.394  16.226  13.325
23559W        W82996  19.651  23.677   4.351
23560W        W82997  33.963   6.896  14.363
23561W        W82998  31.622   0.259   2.271
23562W        W82999  40.801   5.335  14.288
23563W        W83000  39.334   1.846  12.517
23564W        W83001  24.534  44.995  14.474
23565W        W83002  41.516  25.596   4.766
23566W        W83003  31.149  33.980   0.808
23567W        W83004  30.969  16.747   3.743
23568W        W83005  11.339   5.776  14.891
23569W        W83006  22.638  34.880  13.426
23570W        W83007  40.947  23.689   1.697
23571W        W83008   6.678  18.100   3.195
23572W        W83009  35.484  27.643  10.481
23573W        W83010   5.721  44.378  11.983
23574W        W83011   0.474  29.048   4.248
23575W        W83012  38.884  39.322   1.250
23576W        W83013  10.784  16.775   1.824
23577W        W83014  22.674  31.443  14.960
23578W        W83015  43.325   9.350   4.801
23579W        W83016  23.135  10.242   0.424
23580W        W83017  25.627  22.654   4.669
23581W        W83018   2.260  21.243   3.702
23582W        W83019  38.055  14.754   1.823
23583W        W83020  29.583  21.617   3.733
23584W        W83021   5.750  12.787  12.878
23585W        W83022  34.040  12.826  12.059
23586W        W83023   0.873  15.626   2.187
23587W        W83024  20.065  18.225  13.359
23588W        W83025  18.711  28.163  10.055
23589W        W83026  43.276   1.917  12.039
23590W        W83027   1.929  33.502   1.418
23591W        W83028   4.449   4.771  10.910
23592W        W83029  18.744  14.314   0.963
23593W        W83030  31.006  22.744  14.989
23594W        W83031  25.963  15.583  11.500
23595W        W83032  38.013  10.316  13.345
23596W        W83033  10.364   0.383   1.913
23597W        W83034  12.159  41.967   1.767
23598W        W83035  22.226  27.537   0.248
23599W        W83036   4.769  23.120  11.934
23600W        W83037  40.332   9.762   0.346
23601W        W83038  30.653   8.742  12.428
23602W        W83039  28.652   6.891   4.791
23603W        W83040  34.910  35.571   0.892
23604W        W83041  22.648  44.834   3.808
23605W        W83042  10.230  29.046  13.435
23606W        W83043  11.859  29.648  12.528
23607W        W83044  27.039  12.285   1.753
23608W        W83045  38.917   7.402  11.431
23609W        W83046  41.421  30.589  11.886
23610W        W83047  20.257  39.867  14.948
23611W        W83048   6.829  31.457  10.587
23612W        W83049  39.891  31.555  10.525
23613W        W83050  22.010   8.218   3.639
23614W        W83051   0.769   3.272   5.247
23615W        W83052   1.334  31.620   1.852
23616W        W83053  38.421  12.338   2.847
23617W        W83054   9.246  12.650  11.480
23618W        W83055  38.397  30.141   1.707
23619W        W83056  42.845  29.633  10.631
23620W        W83057   6.303   8.695  11.125
23621W        W83058   1.477  31.619  12.518
23622W        W83059  27.072  35.854  12.056
23623W        W83060   4.799  42.857   2.815
23624W        W83061  16.254  15.155   2.402
23625W        W83062  38.037  17.240  13.411
23626W        W83063  33.019  34.017   4.741
23627W        W83064  11.638  33.122   1.374
23628W        W83065  16.137  22.245   1.785
23629W        W83066   8.823  33.399   5.254
23630W        W83067  23.099  11.301   9.604
23631W        W83068  10.710  35.420  14.479
23632W        W83069  16.804  44.842   0.954
23633W        W83070  15.142  19.076  11.936
23634W        W83071  44.999  44.831   1.349
23635W        W83072  31.601  23.730  11.084
23636W        W83073  40.496   9.253  14.462
23637W        W83074  21.121  39.382  11.903
23638W        W83075  25.581  10.851  13.015
23639W        W83076  28.162  44.961  13.796
23640W        W83077  34.450  33.524   0.302
23641W        W83078   6.868  43.375   4.212
23642W        W83079   1.342   0.837   2.735
23643W        W83080  23.712  28.640  11.884
23644W        W83081   2.350   5.335  10.574
23645W        W83082  17.650  35.043   4.173
23646W        W83083  17.594  27.000  13.507
23647W        W83084  18.719  38.827   3.149
23648W        W83085  36.401   0.918   3.360
23649W        W83086  17.721  42.495   0.477
23650W        W83087  30.547  43.862  13.937
23651W        W83088   2.823  12.713   3.235
23652W        W83089   0.472  27.969  11.055
23653W        W83090  12.825   6.362   4.311
23654W        W83091  38.964  18.652  10.462
23655W        W83092  19.536  17.638   0.882
23656W        W83093  15.744  13.816  11.433
23657W        W83094  26.032   0.267  14.449
23658W        W83095  40.481  21.673   2.709
23659W        W83096  23.570  23.732  13.354
23660W        W83097   7.398  14.214   0.289
23661W        W83098  11.710   3.955  13.827
23662W        W83099  36.569   7.180   5.083
23663W        W83100  18.625   6.683   2.290
23664W        W83101  13.242  20.551   4.287
23665W        W83102  29.945  29.468   4.611
23666W        W83103  35.601  30.006   3.380
23667W        W83104  17.177  10.868   1.755
23668W        W83105  32.035   7.831  11.967
23669W        W83106   7.267   7.266   2.728
23670W        W83107  42.936   8.279   0.861
23671W        W83108  14.320  31.928  11.514
23672W        W83109  27.119  26.463  13.853
23673W        W83110  16.574  26.574   3.659
23674W        W83111  28.502  42.340   4.609
23675W        W83112  31.436   8.372  14.942
23676W        W83113  22.724  17.175  13.377
23677W        W83114  37.391   4.741  13.903
23678W        W83115  33.599  36.969   4.697
23679W        W83116   7.809   8.740  13.454
23680W        W83117  43.511  27.167   1.309
23681W        W83118  21.185  21.261  13.426
23682W        W83119  43.836   7.412  11.125
23683W        W83120  22.097  25.655   2.223
23684W        W83121  17.779  39.809   2.313
23685W        W83122   3.404  18.143  14.509
23686W        W83123  39.997  44.261  12.855
23687W        W83124   6.259  19.077  12.824
23688W        W83125  31.906  38.419   2.763
23689W        W83126  16.240  40.821   3.153
23690W        W83127  11.787   0.255   2.835
23691W        W83128  27.096  42.903   2.706
23692W        W83129  34.582  38.371   2.689
23693W        W83130  24.217  23.591   2.348
23694W        W83131   8.867  30.547   1.757
23695W        W83132  11.690   3.952  12.864
23696W        W83133  26.460  10.238   4.757
23697W        W83134  34.605  39.838   2.336
23698W        W83135  39.533  38.381   1.356
23699W        W83136  40.516  25.650   3.234
23700W        W83137  43.403   6.682  11.430
23701W        W83138  33.486   1.383  11.934
23702W        W83139  30.144  40.351  11.433
23703W        W83140  27.519  17.273  12.554
23704W        W83141  21.184  33.445  11.947
23705W        W83142  15.187  41.961   3.788
23706W        W83143  28.437   5.196   1.873
23707W        W83144  11.221  28.097   2.225
23708W        W83145  23.610  23.173   3.213
23709W        W83146  28.943  41.868  12.980
23710W        W83147   2.403   3.764   1.812
23711W        W83148  25.551  38.506  13.823
23712W        W83149  10.775   8.180   1.866
23713W        W83150   8.704   9.328  10.619
23714W        W83151  20.182  23.187  11.103
23715W        W83152  37.525   4.269   0.275
23716W        W83153   8.817  14.252   1.750
23717W        W83154  27.534  13.208   3.730
23718W        W83155  20.709   7.209  11.944
23719W        W83156   0.326  35.574   0.941
23720W        W83157  35.024  31.138   3.224
23721W        W83158   3.761  42.350  11.941
23722W        W83159   4.364  27.680  14.890
23723W        W83160   4.825  30.033   3.259
23724W        W83161  36.885  25.011   4.653
23725W        W83162  13.279  20.057   0.284
23726W        W83163   7.366  11.292  10.946
23727W        W83164  41.324  16.679   0.404
23728W        W83165  35.374  37.406   3.330
23729W        W83166  41.301  22.066   1.266
23730W        W83167  40.919  39.527   2.734
23731W        W83168  16.724  44.939  13.894
23732W        W83169  39.960  15.328   2.354
23733W        W83170  44.913  27.948   0.351
23734W        W83171  27.132  13.765  13.903
23735W        W83172   3.426  18.056   4.836
23736W        W83173  10.295  20.735  11.396
23737W        W83174  39.898  43.337  13.848
23738W        W83175  42.893  22.633  14.313
23739W        W83176  38.882  38.896  12.559
23740W        W83177  41.805   9.826   3.374
23741W        W83178  34.492  15.667   1.736
23742W        W83179  16.800  17.625   3.846
23743W        W83180  10.370  11.321   2.246
23744W        W83181  19.633  26.531  14.416
23745W        W83182  13.328  17.605  10.643
23746W        W83183  26.958  10.167   2.251
23747W        W83184  36.516  24.103  11.093
23748W        W83185   6.790  19.235  12.978
23749W        W83186  24.201   4.822   5.262
23750W        W83187  16.291   4.875   1.709
23751W        W83188  23.697  36.427  11.912
23752W        W83189  27.178   5.911   1.706
23753W        W83190   5.249   5.361   1.314
23754W        W83191  29.007   6.745   4.718
23755W        W83192  32.578  38.469  12.579
23756W        W83193  17.293   4.825   5.281
23757W        W83194   8.720  39.907  10.501
23758W        W83195  26.985   5.420  14.379
23759W        W83196  26.470   3.950  13.828
23760W        W83197  21.575  41.457   1.778
23761W        W83198  32.937   8.169  12.348
23762W        W83199  27.983  35.899   4.259
23763W        W83200  10.375  42.502  13.836
23764W        W83201  41.324  10.284  11.002
23765W        W83202  16.164   3.723   2.723
23766W        W83203  23.217   8.861   2.214
23767W        W83204  20.768   8.718   4.754
23768W        W83205  17.086   1.398  14.288
23769W        W83206  35.392  21.735   4.347
23770W        W83207  31.431  11.702  12.568
23771W        W83208  19.709  27.162  14.799
23772W        W83209  30.462  23.627   3.703
23773W        W83210  16.201  33.002  13.405
23774W        W83211   0.880   9.715   1.367
23775W        W83212  36.961   1.403  12.406
23776W        W83213  24.644  25.512   2.831
23777W        W83214   9.327   8.396   4.287
23778W        W83215  39.947  31.638  14.290
23779W        W83216  36.563  13.612  11.010
23780W        W83217   5.315  32.074  13.328
23781W        W83218   5.787  13.839  13.901
23782W        W83219  34.938   5.245  10.889
23783W        W83220  32.903  35.594   2.681
23784W        W83221  17.171  38.368  10.018
23785W        W83222  37.976  30.528  12.544
23786W        W83223  31.440  30.484  14.769
23787W        W83224   7.692  26.023   1.403
23788W        W83225  13.108   8.259   0.330
23789W        W83226  17.066  35.892  10.594
23790W        W83227  31.024  40.368  10.898
23791W        W83228  28.650  15.618  10.547
23792W        W83229  16.103  43.994  12.907
23793W        W83230   9.255   2.965  10.566
23794W        W83231  16.313  35.969   4.603
23795W        W83232  41.975  23.600   1.291
23796W        W83233  39.992   2.946   3.291
23797W        W83234   4.777  12.354  13.883
23798W        W83235   4.702   3.811  14.390
23799W        W83236   1.348  44.405   3.674
23800W        W83237  29.068  26.979   1.441
23801W        W83238  39.999  22.695   4.284
23802W        W83239  33.959  10.152  10.000
23803W        W83240  13.649  19.617   3.651
23804W        W83241  33.944   8.847  13.357
23805W        W83242  24.648  39.886   2.400
23806W        W83243  17.772  22.528  13.851
23807W        W83244  18.273  25.073   4.644
23808W        W83245  26.032   5.356  10.890
23809W        W83246  10.838  29.490   2.802
23810W        W83247  38.936   5.814   0.438
23811W        W83248   3.871  29.595   0.463
23812W        W83249  13.795   1.481  14.862
23813W        W83250  22.631   5.748  14.824
23814W        W83251  16.093  21.073  13.444
23815W        W83252  32.998  40.887  13.535
23816W        W83253  25.147  43.974  11.862
23817W        W83254  35.063   8.800   3.197
23818W        W83255   4.301  35.891   3.775
23819W        W83256  43.868   3.917  13.524
23820W        W83257  12.134  31.441   3.161
23821W        W83258  36.415  10.827   1.394
23822W        W83259  38.519  37.505  10.544
23823W        W83260  43.303  33.089   2.895
23824W        W83261  26.657  21.552  14.366
23825W        W83262  30.065  36.039  11.384
23826W        W83263  10.305  21.706   0.882
23827W        W83264  12.856  44.393  14.292
23828W        W83265  11.196   6.877   2.783
23829W        W83266  10.876  30.127   4.710
23830W        W83267  39.345   2.380  11.080
23831W        W83268  10.687   8.385   3.359
23832W        W83269   1.838  13.325  11.427
23833W        W83270  33.036  20.169  14.313
23834W        W83271  23.011  33.927  14.308
23835W        W83272  27.448  21.045   0.378
23836W        W83273  33.877  21.615   0.906
23837W        W83274  36.860  15.220   3.752
23838W        W83275   4.876  33.430  12.832
23839W        W83276  23.987   3.451  11.117
23840W        W83277  32.088  16.190  13.943
23841W        W83278   8.353  28.554   1.349
23842W        W83279  40.441  41.995  11.953
23843W        W83280   5.227  11.257   1.425
23844W        W83281  19.171  11.198   4.598
23845W        W83282   1.806  39.344  14.880
23846W        W83283   5.924  30.641   1.782
23847W        W83284  18.141  29.983  13.411
23848W        W83285  34.484   7.744  12.033
23849W        W83286  20.637  26.530  12.379
23850W        W83287   2.346  27.583   3.307
23851W        W83288  43.857   8.197  10.476
23852W        W83289  16.776  10.297   4.249
23853W        W83290  22.229  18.257   2.213
23854W        W83291  25.660  38.505   0.774
23855W        W83292  17.560  24.554   0.855
23856W        W83293  27.986  15.185   3.228
23857W        W83294  12.664  28.096  10.620
23858W        W83295  43.466  37.027   2.374
23859W        W83296  35.062  21.096   5.147
23860W        W83297  38.014  44.307  12.492
23861W        W83298  39.546  38.851   4.177
23862W        W83299  42.835  40.919  12.019
23863W        W83300  24.615  37.500   0.831
23864W        W83301  28.443   8.768   3.321
23865W        W83302  42.023   5.361  14.817
23866W        W83303  27.112  43.396   4.276
23867W        W83304  43.288   1.737  12.835
23868W        W83305   4.300  26.615   2.224
23869W        W83306  23.163   8.337  14.939
23870W        W83307  39.996  10.174  12.919
23871W        W83308   5.808  21.741   2.325
23872W        W83309   7.213   3.221   1.403
23873W        W83310  23.160  20.047   9.523
23874W        W83311  41.437  14.152   2.315
23875W        W83312  37.410  26.041  13.465
23876W        W83313  17.610  26.980  12.843
23877W        W83314  15.181   9.729   1.335
23878W        W83315  11.853  41.039   3.312
23879W        W83316   7.326  39.933   0.303
23880W        W83317   4.371  35.066  11.873
23881W        W83318  32.923  23.555  13.451
23882W        W83319  10.765  41.882   0.454
23883W        W83320  31.496  42.405  12.094
23884W        W83321  30.507  35.445   2.760
23885W        W83322  34.486  24.498   4.637
23886W        W83323  12.762  35.902  13.043
23887W        W83324  41.797   6.902   3.359
23888W        W83325  16.652  41.332   1.766
23889W        W83326  20.699  22.020   1.295
23890W        W83327  29.108  11.320   2.790
23891W        W83328   2.310  28.640   1.843
23892W        W83329   6.720  35.905  14.283
23893W        W83330   7.700   3.853  14.879
23894W        W83331  27.535  41.351   2.724
23895W        W83332  41.321  24.028  12.005
23896W        W83333  17.194  28.049   3.754
23897W        W83334   4.272   3.421   0.355
23898W        W83335   7.397  40.841   0.879
23899W        W83336  22.525   4.770  14.515
23900W        W83337  29.642  36.402   4.711
23901W        W83338  38.021  16.168  12.378
23902W        W83339   5.737  15.767  12.953
23903W        W83340  34.594  21.649  14.861
23904W        W83341  18.662   0.828   1.711
23905W        W83342  29.164  25.035  11.429
23906W        W83343  34.956  11.299  11.433
23907W        W83344   9.217   5.844   1.730
23908W        W83345  36.394  35.568  14.357
23909W        W83346  19.776  24.182   1.928
23910W        W83347   9.821  39.887  10.622
23911W        W83348   1.839  31.404  12.460
23912W        W83349  19.606  19.133   4.199
23913W        W83350  10.671  26.630  12.464
23914W        W83351  14.797  35.096   4.297
23915W        W83352  20.061   8.776  11.973
23916W        W83353  28.000  40.877  12.901
23917W        W83354   1.430   5.356   2.693
23918W        W83355  12.762   1.873   3.752
23919W        W83356   6.794  40.525   2.179
23920W        W83357  26.168   1.837   4.660
23921W        W83358   3.882  26.637  12.498
23922W        W83359  13.780  25.058  14.818
23923W        W83360  23.547  33.476  14.477
23924W        W83361  14.105  38.032   2.342
23925W        W83362   4.213   4.859  14.032
23926W        W83363  10.331  10.754  10.962
23927W        W83364  15.288  24.106   3.241
23928W        W83365  18.742  31.898   0.252
23929W        W83366  30.968  41.894   0.468
23930W        W83367  15.122  43.399   2.681
23931W        W83368  13.668  24.189  14.473
23932W        W83369  21.215  19.693  14.502
23933W        W83370  38.891  37.923  10.632
23934W        W83371   7.281   5.290  10.490
23935W        W83372  36.871  21.174  13.953
23936W        W83373  35.381   0.262  13.991
23937W        W83374  17.637  16.660   2.378
23938W        W83375  29.462  31.581  14.783
23939W        W83376  29.437  13.116  12.550
23940W        W83377  20.173  12.765  10.073
23941W        W83378  39.850  16.771   1.248
23942W        W83379   1.929  23.119  14.468
23943W        W83380  18.140   1.270  11.433
23944W        W83381   5.891   3.454  11.569
23945W        W83382  39.416  43.867  10.600
23946W        W83383  41.987  42.351   2.296
23947W        W83384  23.093  20.126  10.037
23948W        W83385  38.366   0.957  13.797
23949W        W83386  42.858   6.897  12.500
23950W        W83387   5.265  11.628   3.640
23951W        W83388  33.100  19.603   2.802
23952W        W83389  44.311   9.796   4.309
23953W        W83390  17.722  41.042   1.213
23954W        W83391  15.804  11.349  12.022
23955W        W83392   8.757  17.719   4.726
23956W        W83393  17.296  25.475   1.255
23957W        W83394  28.076  31.577  14.921
23958W        W83395  44.847  22.688   4.696
23959W        W83396  15.658  35.449   4.626
23960W        W83397  20.168  34.883   0.812
23961W        W83398  16.277  40.406   3.311
23962W        W83399   6.829  27.589  14.856
23963W        W83400  40.975  34.396   3.280
23964W        W83401   5.225  41.432   4.729
23965W        W83402  40.335  13.610   1.402
23966W        W83403  38.020  34.867  11.063
23967W        W83404   0.456  37.442   1.391
23968W        W83405  35.908  11.753   3.218
23969W        W83406  15.650  31.038  13.363
23970W        W83407  32.428  35.053  10.953
23971W        W83408   5.296  20.246  13.879
23972W        W83409  17.592  32.432   3.315
23973W        W83410  40.947  33.081  13.047
23974W        W83411  37.561   6.677  13.544
23975W        W83412  30.997  14.687  10.451
23976W        W83413  13.305  20.573  11.015
23977W        W83414  28.007  38.894  13.884
23978W        W83415  32.079  28.061  11.955
23979W        W83416  17.145  41.883   4.292
23980W        W83417  19.199  29.572  13.014
23981W        W83418  35.507  37.991   2.271
23982W        W83419  38.922   4.891   9.947
23983W        W83420   9.773  22.661  11.887
23984W        W83421  28.159  20.185   1.400
23985W        W83422  27.525   4.771   4.638
23986W        W83423  16.701  20.126   4.828
23987W        W83424  28.179  43.871  10.993
23988W        W83425  37.342   6.713   1.872
23989W        W83426  35.555  13.167   1.217
23990W        W83427   8.167  36.544  13.838
23991W        W83428  26.152  34.573  10.939
23992W        W83429  34.509  30.521  13.322
23993W        W83430   0.373  28.467   1.349
23994W        W83431  32.462  32.462  14.907
23995W        W83432   1.335  16.125   2.776
23996W        W83433  29.987  18.228   2.404
23997W        W83434   0.889  13.285  13.483
23998W        W83435   1.810  28.627  12.985
23999W        W83436  10.139  27.961  12.030
24000W        W83437  37.442  25.075  13.465
24001W        W83438  29.622  21.651   1.413
24002W        W83439  43.971  43.318  11.526
24003W        W83440  11.628   8.255  14.939
24004W        W83441  11.237  34.883   1.385
24005W        W83442  11.288  16.269   2.794
24006W        W83443  23.523  14.244  11.467
24007W        W83444   9.719  28.946   4.237
24008W        W83445  33.962  20.158  10.932
24009W        W83446  21.261  29.034   9.930
24010W        W83447  44.332  35.433   1.421
24011W        W83448  30.496  34.427  10.613
24012W        W83449  39.538   6.354   0.263
24013W        W83450  41.890  33.607   2.663
24014W        W83451  17.073  36.033   2.340
24015W        W83452  13.198  21.677  14.867
24016W        W83453  35.592   1.396   0.823
24017W        W83454   6.312   2.805   1.341
24018W        W83455  23.523  23.066  12.964
24019W        W83456  25.110   7.290   4.721
24020W        W83457  35.471  10.760  12.363
24021W        W83458  14.782  41.438   3.809
24022W        W83459  39.369  16.777  11.998
24023W        W83460  17.579   0.413  12.537
24024W        W83461  23.681  19.715   4.307
24025W        W83462  20.567  19.232  14.347
24026W        W83463  12.266   1.394   1.884
24027W        W83464  34.030  39.888   1.917
24028W        W83465  24.724  43.386  12.838
24029W        W83466  43.440   9.732  12.061
24030W        W83467  36.854  27.516   2.280
24031W        W83468  44.895  11.178   4.267
24032W        W83469  40.523   7.724   4.729
24033W        W83470  20.037   1.797   0.288
24034W        W83471  25.119  36.505   5.109
24035W        W83472   0.449   8.816  13.395
24036W        W83473  42.829  14.167   3.670
24037W        W83474   0.435  42.025   2.246
24038W        W83475  12.197   5.854   2.276
24039W        W83476  33.483  21.731  14.004
24040W        W83477  36.497   9.687   1.816
24041W        W83478  16.265  37.941  14.801
24042W        W83479  39.980  17.132  12.388
24043W        W83480  21.639  41.011   4.238
24044W        W83481  40.936  39.835   2.775
24045W        W83482  39.356  18.292   1.260
24046W        W83483   2.321  38.848   1.838
24047W        W83484   8.874   7.870   2.222
24048W        W83485  43.494  12.196   3.705
24049W        W83486  19.095   5.726  12.569
24050W        W83487  28.023  28.931  11.064
24051W        W83488  26.526  30.536  11.581
24052W        W83489  44.807   6.281   0.864
24053W        W83490   5.320  20.128  10.547
24054W        W83491  44.964  37.958   4.673
24055W        W83492  41.923  38.493   3.336
24056W        W83493  26.055   0.421  13.489
24057W        W83494   9.684  32.112  14.296
24058W        W83495   2.824  42.856   0.922
24059W        W83496  20.533  12.752  11.913
24060W        W83497  35.385  16.246   2.242
24061W        W83498   8.815  26.012  11.484
24062W        W83499  43.366  20.198   1.411
24063W        W83500  34.953  10.209   4.318
24064W        W83501  30.596  14.282   1.342
24065W        W83502  38.819  25.052  10.536
24066W        W83503  31.637  39.455   1.398
24067W        W83504  38.059  27.062  14.375
24068W        W83505   2.793   3.233   4.274
24069W        W83506  25.611  29.438  14.793
24070W        W83507  25.982  22.071   3.235
24071W        W83508  16.681  34.079  11.556
24072W        W83509  16.638  29.131   0.836
24073W        W83510  16.080  39.967  11.857
24074W        W83511  42.462  29.582   3.865
24075W        W83512  37.048  14.643  14.904
24076W        W83513  17.149  20.589   3.696
24077W        W83514  13.633  12.836   3.639
24078W        W83515   3.710  41.311   1.410
24079W        W83516   1.354   2.729   4.179
24080W        W83517   9.271   1.382   0.268
24081W        W83518  14.148  10.711   4.789
24082W        W83519  37.833  30.925   2.416
24083W        W83520   9.725  29.524  12.862
24084W        W83521  20.563  31.123  11.114
24085W        W83522  40.876   5.312   2.903
24086W        W83523  24.633  40.520  13.991
24087W        W83524   1.340  43.444  14.897
24088W        W83525  44.436  24.155   4.632
24089W        W83526  23.023  27.621  11.467
24090W        W83527  25.163  37.023  12.485
24091W        W83528  40.519  35.990  12.829
24092W        W83529  27.472   1.364   3.820
24093W        W83530  21.708  28.036   0.331
24094W        W83531   9.361  23.120  12.364
24095W        W83532   9.180  35.916  11.871
24096W        W83533  26.086  30.550  11.565
24097W        W83534  43.461   5.792   0.772
24098W        W83535   3.737  38.996  12.512
24099W        W83536  38.034   8.170   3.844
24100W        W83537  21.232  35.858  12.458
24101W        W83538  40.525  44.353  13.312
24102W        W83539  31.024  10.214  11.922
24103W        W83540  16.122   8.348   4.224
24104W        W83541   0.799  25.640   3.686
24105W        W83542  27.980   9.772  11.959
24106W        W83543  28.118  21.690   2.276
24107W        W83544  37.510  39.437   4.673
24108W        W83545  33.565  22.561   0.431
24109W        W83546  17.633  14.814   4.300
24110W        W83547  40.868  11.251   0.475
24111W        W83548  41.379  33.936  14.406
24112W        W83549   4.779  24.993  10.916
24113W        W83550  12.307  44.440   3.350
24114W        W83551  18.548  31.032   2.237
24115W        W83552  44.776  34.478   4.199
24116W        W83553  42.399   3.868   1.826
24117W        W83554  33.110  10.729  12.020
24118W        W83555  12.273  40.431   3.669
24119W        W83556  29.490  41.911   4.206
24120W        W83557  16.621  14.165  10.137
24121W        W83558  41.493  19.541  14.287
24122W        W83559  39.414  12.701   0.928
24123W        W83560  11.254  15.818  12.409
24124W        W83561  22.162   2.917  12.942
24125W        W83562  28.988  18.636  12.025
24126W        W83563  23.019  26.204   0.889
24127W        W83564  42.430  23.538   3.239
24128W        W83565   8.305  36.540   2.247
24129W        W83566  17.670   9.858   3.205
24130W        W83567   6.704  10.751  13.466
24131W        W83568  38.845  38.913  13.001
24132W        W83569  38.064   8.713   0.462
24133W        W83570  34.904  14.162   2.824
24134W        W83571  35.974   2.886  11.551
24135W        W83572   5.710  24.681  11.020
24136W        W83573  10.159  11.646  13.467
24137W        W83574  41.820   4.927  11.597
24138W        W83575  14.177  12.734   3.273
24139W        W83576  38.928  31.626   1.836
24140W        W83577   2.854  25.510  11.588
24141W        W83578   2.439  15.256   1.303
24142W        W83579  11.369   6.874  12.453
24143W        W83580  16.186  16.798  11.503
24144W        W83581   2.447   2.284  11.883
24145W        W83582  22.559   9.377  10.644
24146W        W83583  44.372  31.052  12.992
24147W        W83584   2.432   2.421   2.834
24148W        W83585   8.654   5.791   1.306
24149W        W83586  28.629  32.539   3.298
24150W        W83587   2.804  17.103  13.821
24151W        W83588  19.180  11.804   0.732
24152W        W83589  22.580  26.046   3.763
24153W        W83590  26.666  41.357  10.430
24154W        W83591  35.048  33.543   1.901
24155W        W83592  43.331  21.750   0.413
24156W        W83593   4.830  21.034  10.026
24157W        W83594  13.293   8.162  12.074
24158W        W83595  42.992  24.600   0.478
24159W        W83596  10.728   7.698  10.478
24160W        W83597  27.052  42.829  13.938
24161W        W83598  16.251  39.443  13.342
24162W        W83599   1.944  21.591   3.754
24163W        W83600  39.979  13.822   2.672
24164W        W83601   5.790  29.582  11.107
24165W        W83602   5.422  22.134  10.975
24166W        W83603  10.691  15.201   2.896
24167W        W83604  41.031  34.933  13.391
24168W        W83605  36.914  33.126  12.492
24169W        W83606  37.561  16.178   1.902
24170W        W83607  10.245   2.809   4.186
24171W        W83608  30.152  33.890  11.075
24172W        W83609  10.312  32.111   0.285
24173W        W83610  27.480  16.795   2.818
24174W        W83611  26.468  35.497   1.897
24175W        W83612  28.050  40.959   3.754
24176W        W83613  32.958  23.188  12.901
24177W        W83614  28.974  28.479  13.502
24178W        W83615  19.105  22.576  13.512
24179W        W83616   9.310  25.121   4.122
24180W        W83617  26.158  42.303   1.370
24181W        W83618  39.812  18.084  10.887
24182W        W83619  32.559  13.619   1.726
24183W        W83620  25.165  43.475  11.013
24184W        W83621  11.310   3.220   4.728
24185W        W83622  27.189  32.981  14.999
24186W        W83623  43.326  27.190   2.683
24187W        W83624  36.498  23.586   1.286
24188W        W83625   5.296  40.351   3.289
24189W        W83626  13.842   8.787  14.329
24190W        W83627  42.781  43.928   1.836
24191W        W83628  17.119  27.062   1.721
24192W        W83629   9.811  24.648  11.903
24193W        W83630  31.031   9.712  12.498
24194W        W83631  43.381  39.376   9.984
24195W        W83632   2.298  44.864  14.973
24196W        W83633  19.242   6.276  11.539
24197W        W83634  25.518  29.102  10.068
24198W        W83635  15.815   4.410   1.419
24199W        W83636  11.855  29.144   4.225
24200W        W83637   0.971   2.385  14.365
24201W        W83638  14.773  36.013  14.792
24202W        W83639  31.576  21.260   0.408
24203W        W83640   7.265  13.780  12.010
24204W        W83641   7.335  12.827  13.423
24205W        W83642  39.550  17.232  11.095
24206W        W83643  20.208  33.551  10.520
24207W        W83644  44.759  31.946  12.428
24208W        W83645  41.028   5.387  14.847
24209W        W83646  28.666  38.348  13.062
24210W        W83647  28.141  20.625   0.833
24211W        W83648  11.731  23.183  14.887
24212W        W83649   1.969  25.057  14.868
24213W        W83650  16.101  19.695   1.349
24214W        W83651  14.231  17.121  10.595
24215W        W83652  10.709  16.292   2.807
24216W        W83653  26.965  43.395   3.382
24217W        W83654  42.962  33.401   3.215
24218W        W83655   1.791  25.089  14.023
24219W        W83656  18.277  42.791   0.889
24220W        W83657  24.196   6.689   0.853
24221W        W83658   8.671   5.765  14.940
24222W        W83659  26.461  23.710  12.989
24223W        W83660  26.494  42.919  11.031
24224W        W83661  15.147   1.843  10.552
24225W        W83662   4.346   8.376  12.960
24226W        W83663  20.749  21.599   3.330
24227W        W83664  21.749  32.531   1.319
24228W        W83665  12.626  32.107  12.069
24229W        W83666  43.287  10.194  13.419
24230W        W83667   1.330   9.373   1.742
24231W        W83668  36.096  40.374  12.043
24232W        W83669   3.273  13.679   3.344
24233W        W83670  17.092  11.747  12.884
24234W        W83671  23.709   0.475  12.887
24235W        W83672   0.943  43.861   3.303
24236W        W83673  29.095  12.218  11.542
24237W        W83674  25.545   5.923  10.508
24238W        W83675  14.709  26.546   3.173
24239W        W83676  15.303  34.937   1.349
24240W        W83677  11.682  14.339   3.851
24241W        W83678  39.328   6.713  12.059
24242W        W83679  43.998  10.874   4.659
24243W        W83680  11.635  43.477   4.165
24244W        W83681  19.100  19.246   4.213
24245W        W83682  28.155   9.718  10.997
24246W        W83683   1.946  40.545  14.954
24247W        W83684  17.578  41.860   0.255
24248W        W83685  35.878  40.370   1.767
24249W        W83686  43.781  37.026  12.908
24250W        W83687  26.603  44.006   2.804
24251W        W83688  37.055   0.965  12.874
24252W        W83689  39.445  28.043   0.921
24253W        W83690  19.595   2.887  14.482
24254W        W83691  15.244  15.176  11.447
24255W        W83692  26.558  11.853   9.936
24256W        W83693  17.233  37.469   1.367
24257W        W83694  20.686  36.432  14.355
24258W        W83695  33.004  44.425  12.023
24259W        W83696  32.950  16.313  12.986
24260W        W83697  33.488   6.387   2.411
24261W        W83698   1.798  10.342   3.690
24262W        W83699   9.798  40.397  12.483
24263W        W83700  15.313  38.419   4.207
24264W        W83701  32.555  17.781  12.976
24265W        W83702  23.517  26.203   1.299
24266W        W83703  22.585   4.776   1.920
24267W        W83704  16.767  38.962   5.238
24268W        W83705  42.286  37.056  12.487
24269W        W83706  13.277  35.866   1.317
24270W        W83707  25.084  39.428   0.910
24271W        W83708  15.756  37.457  11.512
24272W        W83709   8.340  22.112  11.956
24273W        W83710  23.149   2.768   2.286
24274W        W83711  43.951  36.458  11.065
24275W        W83712  32.477  18.114   1.428
24276W        W83713  20.550  44.877  11.491
24277W        W83714   8.198  37.381  12.342
24278W        W83715   8.214   6.402   3.800
24279W        W83716  16.633  22.090  14.351
24280W        W83717   5.709   3.278   3.860
24281W        W83718  28.161  22.998  14.925
24282W        W83719  37.486  28.068  12.383
24283W        W83720  17.062   5.329   3.218
24284W        W83721   7.341  42.938   1.244
24285W        W83722  37.936  44.761  14.418
24286W        W83723  40.965  23.222  14.454
24287W        W83724  14.164  21.120  14.925
24288W        W83725  22.716  41.994   0.311
24289W        W83726  17.579  36.030   3.870
24290W        W83727   0.413   1.298  14.408
24291W        W83728   2.924   3.838  12.399
24292W        W83729   0.856   7.377   1.423
24293W        W83730  41.828  27.020   3.852
24294W        W83731  27.514   0.467  12.912
24295W        W83732  11.316  18.219  11.987
24296W        W83733  20.744   6.425   4.727
24297W        W83734  39.920   1.412  10.519
24298W        W83735  26.506  10.375  12.009
24299W        W83736  19.634  19.128   4.724
24300W        W83737   1.267  25.193  14.374
24301W        W83738  15.221  27.972  10.997
24302W        W83739  25.075   3.384  11.597
24303W        W83740  15.317   2.889  10.963
24304W        W83741   2.415  23.731  12.069
24305W        W83742  29.062   4.386  10.411
24306W        W83743  18.119  37.580  10.495
24307W        W83744   5.843  39.987   4.808
24308W        W83745  15.796  30.418   4.620
24309W        W83746  13.251  25.581  13.808
24310W        W83747  29.497   9.340  14.783
24311W        W83748  15.160  43.276  10.007
24312W        W83749  19.656  31.560  11.595
24313W        W83750  27.078  18.703   0.322
24314W        W83751  26.530   9.767   0.865
24315W        W83752   8.248  19.583   3.183
24316W        W83753   9.202  32.057  12.005
24317W        W83754  17.666  30.542  14.283
24318W        W83755  32.542  22.011   0.961
24319W        W83756   8.277  31.135   2.217
24320W        W83757   1.397  20.163  12.831
24321W        W83758  15.110  18.063   5.179
24322W        W83759  43.430  30.613  12.403
24323W        W83760   2.334  27.059  13.879
24324W        W83761  40.455  37.526   2.244
24325W        W83762   4.847  43.817   0.397
24326W        W83763   7.399  27.503  14.371
24327W        W83764  36.517  42.816  13.957
24328W        W83765  33.401   4.723  10.462
24329W        W83766  16.229  38.973   0.845
24330W        W83767  20.222   5.321   1.864
24331W        W83768  39.460  34.954   2.379
24332W        W83769  28.961  22.711   4.190
24333W        W83770  21.539  16.080   9.474
24334W        W83771   7.750  29.117   2.204
24335W        W83772  42.389   9.820   2.372
24336W        W83773   4.345  43.331  11.960
24337W        W83774  17.305  30.992  14.864
24338W        W83775   2.939   4.831   2.790
24339W        W83776  44.309  18.213  14.298
24340W        W83777   3.842  31.030  13.341
24341W        W83778   3.818  33.918  11.045
24342W        W83779  25.479  35.520  13.028
24343W        W83780  14.688  41.959   3.250
24344W        W83781   7.734  19.699   1.724
24345W        W83782  18.158   1.821   0.771
24346W        W83783  42.388   9.170   2.682
24347W        W83784  27.487   9.199   2.209
24348W        W83785  19.602  27.027  11.855
24349W        W83786  22.539   0.857  14.955
24350W        W83787  28.492   7.736  14.917
24351W        W83788  32.060  33.043   1.275
24352W        W83789  12.165  25.580  12.407
24353W        W83790   4.869  34.890   2.199
24354W        W83791  19.564  23.127  14.488
24355W        W83792  12.721   5.695   2.816
24356W        W83793  41.489  39.963  11.421
24357W        W83794  25.629  27.161   3.242
24358W        W83795  33.480  44.461   3.223
24359W        W83796  15.284  34.431   3.300
24360W        W83797   8.863  13.276   0.853
24361W        W83798  44.503  13.342   2.869
24362W        W83799   7.244  20.570  12.345
24363W        W83800  28.667   7.878   1.852
24364W        W83801  13.266  23.579  10.628
24365W        W83802   1.849  36.513   0.372
24366W        W83803  23.089  14.734  13.983
24367W        W83804  37.888  17.084   4.145
24368W        W83805  21.152  44.390  12.429
24369W        W83806  30.570   5.790  10.110
24370W        W83807  36.480  41.793  10.549
24371W        W83808  19.076  25.197  12.477
24372W        W83809  39.482  27.618   3.187
24373W        W83810  17.253   3.907  13.877
24374W        W83811  19.587  27.690  14.997
24375W        W83812  32.043  16.804   0.933
24376W        W83813   6.692  12.740   3.162
24377W        W83814   4.377  31.088   3.184
24378W        W83815  32.970  19.216  12.529
24379W        W83816  22.656  30.477   4.214
24380W        W83817  26.629  23.707   2.330
24381W        W83818  40.368   5.263   2.714
24382W        W83819  12.250  22.113  12.054
24383W        W83820  27.676  28.647  12.458
24384W        W83821  39.418   8.896   4.168
24385W        W83822  29.524  30.434   4.229
24386W        W83823   2.929  12.354  12.883
24387W        W83824  37.832  31.964   1.738
24388W        W83825  25.684  44.763  12.031
24389W        W83826  32.405  30.597  14.391
24390W        W83827  16.096  33.946  12.050
24391W        W83828  25.128   4.831   1.443
24392W        W83829  33.087   2.252   0.925
24393W        W83830  16.214  37.429  11.598
24394W        W83831  22.038  38.465   9.445
24395W        W83832  15.186  24.722  12.895
24396W        W83833  43.925  13.827  11.945
24397W        W83834  27.000  19.642  10.981
24398W        W83835  17.592  35.055  13.488
24399W        W83836  34.459   2.397   3.310
24400W        W83837  42.012  23.057  14.954
24401W        W83838  21.153   7.893   5.275
24402W        W83839  36.396  12.732  12.374
24403W        W83840  19.135   2.833  14.328
24404W        W83841  25.697   6.384  11.598
24405W        W83842  25.639  24.626   3.718
24406W        W83843  38.539  27.592  14.474
24407W        W83844  37.838   1.862   2.400
24408W        W83845  27.461  41.949  14.495
24409W        W83846  15.593   0.825   1.901
24410W        W83847  14.340  10.333  11.387
24411W        W83848  36.059   5.720  13.020
24412W        W83849  37.083  23.626   2.716
24413W        W83850  15.109  18.671  10.515
24414W        W83851  15.210  30.615   2.354
24415W        W83852  15.760  15.587   4.824
24416W        W83853   2.794  14.621  14.338
24417W        W83854  11.702  18.633  10.889
24418W        W83855   0.756   1.947   0.905
24419W        W83856  33.051  24.536  14.921
24420W        W83857  25.578  18.676   3.290
24421W        W83858  43.871  12.744  12.898
24422W        W83859  31.942  26.989   2.898
24423W        W83860  33.903   9.210   0.832
24424W        W83861  33.938   1.255   4.176
24425W        W83862  17.133  44.421   5.758
24426W        W83863   1.791   9.344   2.794
24427W        W83864  21.630  16.151   1.282
24428W        W83865   0.359  28.103   1.737
24429W        W83866   9.741  38.397   2.272
24430W        W83867  36.556   8.883   0.448
24431W        W83868  38.856  13.320  12.026
24432W        W83869  37.040  30.161  12.974
24433W        W83870  11.186  29.442   3.243
24434W        W83871  38.938   3.442   1.757
24435W        W83872  21.217  29.438  14.788
24436W        W83873  16.222   2.737   3.784
24437W        W83874   3.792   8.834   3.385
24438W        W83875  36.347  17.687   2.689
24439W        W83876  10.641  19.599   2.388
24440W        W83877  38.349  18.132   1.756
24441W        W83878  42.291   5.195   3.848
24442W        W83879   6.258  34.008  12.909
24443W        W83880  21.081  28.046   3.382
24444W        W83881  25.218  34.923   2.680
24445W        W83882  20.680  38.326   0.400
24446W        W83883   0.819  30.939  13.963
24447W        W83884  35.409  23.146  13.517
24448W        W83885   4.902  19.721   1.773
24449W        W83886  33.433  29.536  14.405
24450W        W83887  10.319  24.077  14.312
24451W        W83888   5.385  40.905   0.324
24452W        W83889   5.311  26.117   4.833
24453W        W83890  44.412  40.872   1.440
24454W        W83891  38.386  39.902   2.262
24455W        W83892  11.843  22.079   2.828
24456W        W83893   3.911  32.413   2.354
24457W        W83894  22.095  38.050  12.409
24458W        W83895  10.353  33.590  13.536
24459W        W83896  18.183  33.413   4.823
24460W        W83897  12.837  36.432  11.105
24461W        W83898  26.074  24.607   1.309
24462W        W83899  42.907   6.679  11.436
24463W        W83900   2.425  14.704   3.702
24464W        W83901   0.920  41.838  13.443
24465W        W83902  35.105  10.635   2.416
24466W        W83903  35.081   8.182  10.960
24467W        W83904  13.625  13.146  13.885
24468W        W83905   8.675  40.506   2.691
24469W        W83906  16.265   5.244   3.307
24470W        W83907  30.497  21.538  13.393
24471W        W83908  27.464  19.178  11.074
24472W        W83909  28.578  25.669   1.883
24473W        W83910  16.642  10.255   2.236
24474W        W83911  32.131  39.830  12.936
24475W        W83912  11.305  24.104   0.466
24476W        W83913  20.610  36.849   2.406
24477W        W83914  14.288   9.755  12.493
24478W        W83915  20.153   4.417   0.263
24479W        W83916   5.395   9.176  11.017
24480W        W83917  30.083  25.146  11.911
24481W        W83918   2.951   3.859   4.287
24482W        W83919  17.162  18.582  10.888
24483W        W83920  43.806  19.748  13.540
24484W        W83921  35.595  18.545   4.607
24485W        W83922  21.223  24.619  14.470
24486W        W83923  15.240  38.829  10.969
24487W        W83924   8.376   6.829  12.893
24488W        W83925   0.281  39.857   4.602
24489W        W83926   0.301  25.043   3.679
24490W        W83927  29.537   6.194   1.769
24491W        W83928   6.376  17.285  11.570
24492W        W83929  38.857  28.592   4.656
24493W        W83930  13.278  39.405  10.952
24494W        W83931  11.704  40.460  13.472
24495W        W83932   4.855  29.662   3.209
24496W        W83933  37.441  20.069  11.090
24497W        W83934   8.269  25.564  12.831
24498W        W83935  17.095  27.155  10.495
24499W        W83936  32.549   4.231  12.986
24500W        W83937  14.287  39.920   9.573
24501W        W83938  12.156  31.608  12.507
24502W        W83939  19.264  35.593   0.406
24503W        W83940  12.628  34.551   2.273
24504W        W83941  33.885  21.080   3.667
24505W        W83942  17.102   5.699   2.344
24506W        W83943   2.296  34.914  13.534
24507W        W83944  10.194   8.248   0.821
24508W        W83945   2.269   0.807  14.401
24509W        W83946  33.897  43.992   2.817
24510W        W83947  21.212  40.511   4.812
24511W        W83948   2.332  36.436  11.099
24512W        W83949  44.337  29.631  14.805
24513W        W83950  19.197  21.202  13.452
24514W        W83951  14.274  37.990   4.316
24515W        W83952  12.290  37.454   3.724
24516W        W83953  42.879  20.662  12.914
24517W        W83954  23.622  38.507   1.275
24518W        W83955   7.866   3.932   3.219
24519W        W83956  18.244  27.563  11.590
24520W        W83957  38.460   9.725  11.002
24521W        W83958  36.361  21.751  13.995
24522W        W83959   9.775  40.426   2.186
24523W        W83960  27.649  30.448  13.881
24524W        W83961  18.265  29.636  13.544
24525W        W83962   7.401  24.088   0.363
24526W        W83963   9.702  31.459  14.949
24527W        W83964  24.046   1.312  13.447
24528W        W83965   6.867  10.877  14.825
24529W        W83966  43.379  10.166  11.928
24530W        W83967  16.242  18.653   9.638
24531W        W83968  13.775  32.504   3.736
24532W        W83969  23.231  36.583   0.936
24533W        W83970  38.992  39.930  13.965
24534W        W83971  14.280   2.440   4.147
24535W        W83972   4.424  44.931   1.908
24536W        W83973   6.913   1.381   2.765
24537W        W83974   0.815   6.334  12.970
24538W        W83975  24.700  10.212  14.369
24539W        W83976  39.537  24.634  12.459
24540W        W83977  11.196  21.740   4.809
24541W        W83978  30.113  20.720  11.959
24542W        W83979  24.122  25.185  13.947
24543W        W83980   7.734  13.770  12.479
24544W        W83981  21.515  36.418   0.850
24545W        W83982   6.412  36.012   3.761
24546W        W83983  16.155   8.733   0.760
24547W        W83984  26.055  30.014  13.951
24548W        W83985  37.914  28.607   3.320
24549W        W83986  29.046  25.647  14.287
24550W        W83987  19.707   8.204  10.515
24551W        W83988  18.179  29.556  14.435
24552W        W83989   7.719  43.827  12.981
24553W        W83990   9.154  38.006  10.996
24554W        W83991   8.729   8.655  10.644
24555W        W83992  30.000   1.352   3.771
24556W        W83993  14.677  21.189  10.983
24557W        W83994   9.755  18.757  11.450
24558W        W83995  19.135   0.808  12.952
24559W        W83996  38.330  12.198   1.393
24560W        W83997  44.821  12.671  13.015
24561W        W83998  26.543  42.487   1.741
24562W        W83999  29.491  22.096  10.483
24563W        W84000  38.977  23.215   1.252
24564W        W84001  14.699  37.030  14.864
24565W        W84002  10.257  39.485   4.789
24566W        W84003  43.306  33.022  10.602
24567W        W84004  19.642  34.923   3.206
24568W        W84005  43.973  14.701   2.413
24569W        W84006  27.102  14.670   4.805
24570W        W84007  16.610  13.162   3.353
24571W        W84008  33.432  38.892   0.778
24572W        W84009   3.358  40.918  11.890
24573W        W84010   1.355  13.253   2.822
24574W        W84011  17.725  35.002   4.773
24575W        W84012  20.656  38.876   3.198
24576W        W84013  34.009  36.461  14.329
24577W        W84014  14.130  18.695   0.337
24578W        W84015   5.417  30.657   5.202
24579W        W84016   3.803  36.926   1.769
24580W        W84017  19.720   1.863   1.333
24581W        W84018  31.567  37.850   1.901
24582W        W84019  36.968  37.446  12.825
24583W        W84020  30.626  39.449   4.154
24584W        W84021  39.501  20.172  10.507
24585W        W84022  23.216  14.223   4.216
24586W        W84023  21.731  38.557   4.278
24587W        W84024  23.181  31.417   0.804
24588W        W84025   2.960  39.938   2.326
24589W        W84026  29.629   7.714   2.729
24590W        W84027  42.309  14.119   4.147
24591W        W84028   2.755  16.261  14.811
24592W        W84029   8.667   2.869  12.055
24593W        W84030  13.326  15.742   4.756
24594W        W84031  17.750  29.096   2.226
24595W        W84032  42.327  24.532   0.467
24596W        W84033  38.055   8.772  10.888
24597W        W84034  16.708   1.405  12.037
24598W        W84035   6.371  14.832  12.467
24599W        W84036  32.895  34.975  13.350
24600W        W84037   5.688  20.119  14.414
24601W        W84038  40.838  26.547   2.818
24602W        W84039  26.956   7.805   4.680
24603W        W84040  32.439   8.825  10.916
24604W        W84041  27.457  12.131   5.092
24605W        W84042   0.814  14.162  12.045
24606W        W84043  32.973   7.260  12.016
24607W        W84044  36.382  40.956  14.335
24608W        W84045  12.354  19.072  11.920
24609W        W84046  27.468  42.998   1.310
24610W        W84047  18.168   6.796   2.321
24611W        W84048  16.726  25.506  13.985
24612W        W84049  24.616  21.541   4.760
24613W        W84050  31.507   8.777   0.877
24614W        W84051  26.517  10.253   0.962
24615W        W84052  29.545  41.517   3.815
24616W        W84053  17.243  36.388   5.273
24617W        W84054   3.923  26.204   0.400
24618W        W84055  34.935  25.624   4.608
24619W        W84056   3.298  14.784  12.470
24620W        W84057  11.703  25.084  10.897
24621W        W84058  22.140  42.502   2.798
24622W        W84059  37.573  41.529   2.264
24623W        W84060  35.518  36.995  11.941
24624W        W84061   5.384  40.311   1.882
24625W        W84062   9.357   6.788   1.823
24626W        W84063  33.973   6.227  14.450
24627W        W84064  34.423  44.467   3.162
24628W        W84065   8.859  13.665   2.234
24629W        W84066  37.373  32.581  11.071
24630W        W84067   0.825   6.861   3.308
24631W        W84068  12.168  27.193   3.737
24632W        W84069  26.481  26.496  10.044
24633W        W84070  44.472  24.499   0.802
24634W        W84071  22.109  28.634   4.730
24635W        W84072   9.828  34.442   3.729
24636W        W84073  22.165  35.368   4.353
24637W        W84074  19.111  14.694   2.744
24638W        W84075   9.273  26.052   2.242
24639W        W84076  34.966  30.022  11.514
24640W        W84077  22.704   0.386   3.295
24641W        W84078  13.793  26.517  11.485
24642W        W84079  24.013  10.754  13.408
24643W        W84080  39.552  35.384   0.925
24644W        W84081  20.072  33.386  11.045
24645W        W84082  25.643  24.101  12.521
24646W        W84083  35.478  15.729   3.654
24647W        W84084  41.345  23.145   3.357
24648W        W84085  20.600  34.614   2.206
24649W        W84086  16.779  42.799  13.374
24650W        W84087  28.959   5.718  13.527
24651W        W84088  33.021  35.002   2.870
24652W        W84089   6.419  29.531  14.771
24653W        W84090  32.631  27.600  11.856
24654W        W84091   2.246   0.802   4.715
24655W        W84092  43.017  28.129  11.566
24656W        W84093   8.759  40.476   3.193
24657W        W84094   2.821   4.250   2.372
24658W        W84095  32.493  37.051   1.728
24659W        W84096  44.311  34.028  10.143
24660W        W84097   6.378  36.034  10.568
24661W        W84098  17.221  39.863   0.823
24662W        W84099  33.095  13.307   4.235
24663W        W84100  13.663  19.709   2.271
24664W        W84101  19.668  28.519   3.317
24665W        W84102  25.576  24.993  10.562
24666W        W84103  18.163  32.621  13.537
24667W        W84104  15.246   8.316  14.282
24668W        W84105  36.401  18.738   4.689
24669W        W84106  36.978   3.892  14.926
24670W        W84107  36.951   6.323  11.997
24671W        W84108  21.124  20.543  14.979
24672W        W84109  24.096  34.083   2.406
24673W        W84110  29.476   9.872   2.375
24674W        W84111  38.959  36.990  14.460
24675W        W84112  38.901   5.903  13.035
24676W        W84113   0.909  21.689  12.487
24677W        W84114  23.184  39.856   3.229
24678W        W84115  15.778  25.639  13.523
24679W        W84116  29.551  35.093  12.372
24680W        W84117  14.705  27.114  14.959
24681W        W84118  10.332  41.306  10.959
24682W        W84119  20.181  22.653  14.829
24683W        W84120  18.144   5.796   4.602
24684W        W84121   2.928  36.509  11.516
24685W        W84122  33.111  21.176   4.819
24686W        W84123  39.065   1.784   4.602
24687W        W84124  31.483  34.868   1.432
24688W        W84125   8.896  13.156   5.222
24689W        W84126   2.382   0.401  10.494
24690W        W84127  30.976  35.575  14.389
24691W        W84128   8.312   8.325   2.334
24692W        W84129  24.595  41.866  13.518
24693W        W84130  28.581  26.478   0.938
24694W        W84131  11.711  13.262   3.823
24695W        W84132  13.652   3.375  13.976
24696W        W84133  17.671  15.813   5.608
24697W        W84134  37.434   7.300   1.740
24698W        W84135   9.809  28.963  14.832
24699W        W84136  33.584  40.904  14.359
24700W        W84137   7.273  15.689   3.825
24701W        W84138  10.307  29.042   1.389
24702W        W84139  12.614  14.327   3.211
24703W        W84140  23.017  17.716   4.747
24704W        W84141  23.521  31.434  11.392
24705W        W84142  12.346   9.867   0.775
24706W        W84143   7.740   4.857   3.375
24707W        W84144   8.714  41.883  13.424
24708W        W84145   4.736  18.091   2.770
24709W        W84146  42.323  10.375   4.319
24710W        W84147   3.866  42.490   1.261
24711W        W84148  28.628  40.005   1.727
24712W        W84149  31.558  13.762   2.357
24713W        W84150  25.591  34.432   4.136
24714W        W84151  10.142  14.624  14.385
24715W        W84152   2.927  10.321  11.420
24716W        W84153  23.161  35.533  10.933
24717W        W84154  37.435  29.575  11.388
24718W        W84155  10.817  33.048   3.651
24719W        W84156   3.762  21.144  11.995
24720W        W84157  14.238  14.709  14.832
24721W        W84158  17.171   6.722   2.842
24722W        W84159   1.865  33.024  11.380
24723W        W84160  30.023  30.917  11.112
24724W        W84161  23.048   4.220   3.830
24725W        W84162  29.571  30.445  14.009
24726W        W84163  24.150  16.263   0.806
24727W        W84164  16.708  12.718   3.713
24728W        W84165  37.560  22.520  14.362
24729W        W84166  17.191  27.639  11.453
24730W        W84167  21.261  36.379  11.998
24731W        W84168  10.694  26.037  13.033
24732W        W84169  10.836  11.357  14.004
24733W        W84170  11.778   2.812   2.335
24734W        W84171  34.034  31.517   1.739
24735W        W84172  17.297  18.700   3.746
24736W        W84173  41.032  22.630   0.346
24737W        W84174  44.453  33.953  13.376
24738W        W84175   0.948   1.794   2.854
24739W        W84176  13.204  40.875  12.543
24740W        W84177  27.562  19.272   0.922
24741W        W84178  29.476  15.198  11.391
24742W        W84179   7.385  25.971   3.234
24743W        W84180  37.085  11.865  10.947
24744W        W84181  11.349  13.124   3.281
24745W        W84182  20.225  31.004   4.731
24746W        W84183   9.382  43.486   3.375
24747W        W84184  12.720  22.045  13.817
24748W        W84185  43.449   0.817  11.863
24749W        W84186  23.678  14.107   3.667
24750W        W84187  38.950  34.422   2.808
24751W        W84188  34.454  29.579   2.891
24752W        W84189  40.935  31.056   2.384
24753W        W84190  28.639  24.628   3.332
24754W        W84191   7.409  36.008  12.081
24755W        W84192  42.983  41.471  10.450
24756W        W84193   4.237   9.332  10.571
24757W        W84194  31.050  26.001   0.892
24758W        W84195   7.844   2.790  12.461
24759W        W84196   2.875   3.950  11.926
24760W        W84197   5.817  35.590   4.827
24761W        W84198  39.437   3.274  12.949
24762W        W84199   8.223  21.686   1.373
24763W        W84200  21.589  19.277   5.252
24764W        W84201  44.780   9.825  14.986
24765W        W84202  27.189  18.677   0.736
24766W        W84203  13.837  33.579   2.848
24767W        W84204  30.528  28.990   3.361
24768W        W84205  33.433  13.120   4.353
24769W        W84206  13.643  11.264   0.964
24770W        W84207  37.507  13.742  14.362
24771W        W84208  36.535  11.170  10.594
24772W        W84209  39.330  25.027   3.329
24773W        W84210  20.137  22.139   3.250
24774W        W84211  15.243  35.973  11.578
24775W        W84212  20.249  25.564  11.478
24776W        W84213  39.427  25.702  12.429
24777W        W84214  26.168   0.382   1.237
24778W        W84215  26.178  24.031  11.951
24779W        W84216   3.288  26.179   2.887
24780W        W84217   7.724   9.678   4.215
24781W        W84218  21.637   6.710  11.037
24782W        W84219  28.548  10.205   1.752
24783W        W84220  25.548  20.227  14.860
24784W        W84221  32.400  30.912  11.607
24785W        W84222   9.842   6.247   2.674
24786W        W84223  26.157  10.670   0.843
24787W        W84224   3.862   6.317  13.016
24788W        W84225  21.535  43.378   3.243
24789W        W84226   2.290  21.113  13.540
24790W        W84227  33.462   6.417  12.016
24791W        W84228  15.264   0.439   1.809
24792W        W84229  42.834   4.716  14.371
24793W        W84230  36.584  17.794  13.016
24794W        W84231   4.778   9.273   1.238
24795W        W84232  12.278  43.982  13.317
24796W        W84233  19.656  11.859   3.217
24797W        W84234  16.306  33.600   9.988
24798W        W84235  18.635  35.988   2.414
24799W        W84236  33.457  13.645  12.886
24800W        W84237   4.891  19.673  14.761
24801W        W84238  38.884  19.245   2.359
24802W        W84239  18.562  11.208   0.473
24803W        W84240  28.509  35.588  12.519
24804W        W84241  41.340   4.846  13.381
24805W        W84242   5.908  37.568   3.173
24806W        W84243  33.047  38.412   1.775
24807W        W84244  37.362  36.929   0.906
24808W        W84245  14.151  21.162  11.900
24809W        W84246  25.139   0.275   2.678
24810W        W84247   6.873  32.453  11.073
24811W        W84248  31.057   4.861   3.825
24812W        W84249  26.001   5.782   3.275
24813W        W84250  36.497   2.380  10.475
24814W        W84251   5.812  10.181   4.332
24815W        W84252  11.864  13.279  12.891
24816W        W84253  38.986  35.533  10.598
24817W        W84254  25.486   4.731  11.037
24818W        W84255   6.770  14.265  11.503
24819W        W84256  37.055  30.591   2.866
24820W        W84257  40.046   7.683   1.442
24821W        W84258  41.515  42.937   3.276
24822W        W84259   2.301   2.316   4.182
24823W        W84260   4.758  15.664   4.649
24824W        W84261  16.704  34.910   4.650
24825W        W84262  44.833  26.014   4.331
24826W        W84263   7.387  21.743  11.911
24827W        W84264  42.446  44.793  13.947
24828W        W84265  40.370   4.805  11.447
24829W        W84266  14.688  24.076   0.466
24830W        W84267  16.114  11.628   1.919
24831W        W84268   9.341  19.262   0.261
24832W        W84269   6.267   3.343  12.411
24833W        W84270  20.722  42.885   0.793
24834W        W84271  22.524  11.852  11.427
24835W        W84272  30.122   0.766  13.881
24836W        W84273  22.581   4.874  10.407
24837W        W84274  26.176   9.680   4.206
24838W        W84275  24.529  23.029   0.388
24839W        W84276   6.695  20.691  11.446
24840W        W84277  24.606  21.630   3.640
24841W        W84278  28.545   4.229  12.832
24842W        W84279   6.283  30.134  13.970
24843W        W84280  21.713   0.366   2.872
24844W        W84281   7.878   8.859  13.879
24845W        W84282  14.701  27.053  13.440
24846W        W84283  22.234  20.738  11.040
24847W        W84284  16.619   2.965   3.869
24848W        W84285   4.288  35.560   1.792
24849W        W84286   1.414   2.268  14.962
24850W        W84287  12.163  15.734   2.330
24851W        W84288  40.933   1.455  14.925
24852W        W84289  32.092  24.008  10.630
24853W        W84290   4.786  20.705   4.126
24854W        W84291  32.123  35.566   0.270
24855W        W84292  44.890  41.449  12.402
24856W        W84293  24.003  14.749  12.467
24857W        W84294  19.758  24.572  14.368
24858W        W84295  39.936  28.985   0.346
24859W        W84296  25.146  17.799   4.297
24860W        W84297  28.603  32.415  10.908
24861W        W84298  27.674  28.955   3.248
24862W        W84299  25.575  39.387   2.868
24863W        W84300  37.950   2.328   4.203
24864W        W84301  27.113   0.302  13.462
24865W        W84302  25.621  31.069  14.900
24866W        W84303  11.238   8.283   0.468
24867W        W84304   1.320  23.653  10.953
24868W        W84305  42.443  42.524   0.247
24869W        W84306   4.881  10.695   2.394
24870W        W84307  13.288  36.469   0.783
24871W        W84308   6.217  28.565   5.186
24872W        W84309  44.497  17.605   3.149
24873W        W84310  25.488  15.105  11.021
24874W        W84311  38.843   5.347   0.471
24875W        W84312  26.554  25.672  11.899
24876W        W84313  12.307  36.895   1.906
24877W        W84314   9.645   6.818  11.536
24878W        W84315  31.910  30.940   3.245
24879W        W84316  25.467  25.624   4.173
24880W        W84317  20.032  39.364  14.831
24881W        W84318  40.375  22.677   1.851
24882W        W84319  18.788   1.405   1.394
24883W        W84320   2.392  16.233  12.532
24884W        W84321   6.308  17.557  13.469
24885W        W84322  41.464  33.888   3.829
24886W        W84323  33.406  17.776  12.018
24887W        W84324  24.586  21.540  14.811
24888W        W84325  37.908  31.569  14.862
24889W        W84326  26.471   6.898  14.464
24890W        W84327   6.329  31.637  13.457
24891W        W84328   5.704  11.756   3.861
24892W        W84329  24.164  38.458  13.050
24893W        W84330  44.872   5.324  11.987
24894W        W84331  17.569  14.787   0.353
24895W        W84332  38.346   0.472  11.427
24896W        W84333  22.590  25.707   3.227
24897W        W84334  27.496  29.601   0.415
24898W        W84335  33.078  15.723   2.755
24899W        W84336   2.729   3.292   3.385
24900W        W84337  42.289   3.405  10.469
24901W        W84338  20.567  32.400  10.439
24902W        W84339   4.928  35.597  14.422
24903W        W84340  29.485   6.921   0.943
24904W        W84341  23.998  41.524   0.746
24905W        W84342  18.164  15.149  11.583
24906W        W84343  18.624  44.826   0.253
24907W        W84344  12.613  15.171  11.514
24908W        W84345  36.535  23.632   3.267
24909W        W84346   3.824   4.808  13.031
24910W        W84347   1.879  18.147   0.248
24911W        W84348   0.282   3.727   0.271
24912W        W84349   6.230   4.912  10.150
24913W        W84350  11.624  32.589   1.768
24914W        W84351   2.394   7.252   4.816
24915W        W84352  28.580  16.235  10.543
24916W        W84353  29.961   9.284   4.290
24917W        W84354  38.038  31.460  14.463
24918W        W84355  43.313  11.250   0.348
24919W        W84356   4.215  25.497  12.852
24920W        W84357  15.186  38.383  12.963
24921W        W84358  16.741   8.267   2.371
24922W        W84359  39.360   7.351   4.663
24923W        W84360  15.239  24.514  11.950
24924W        W84361  31.098   9.741   3.800
24925W        W84362  36.066   9.161   3.827
24926W        W84363  15.679   9.314   0.366
24927W        W84364  12.641  40.546  13.490
24928W        W84365  15.782  35.603  12.426
24929W        W84366  23.108  10.639  14.937
24930W        W84367   6.298  18.557   2.782
24931W        W84368  21.538  23.590   1.326
24932W        W84369  15.656   5.211  11.120
24933W        W84370  36.018   3.901   3.827
24934W        W84371  21.606  27.614  12.518
24935W        W84372  11.628  18.093   0.874
24936W        W84373  39.448  20.179   1.309
24937W        W84374  33.464   9.296   4.657
24938W        W84375   1.789  41.892  13.339
24939W        W84376  15.124  27.657   0.782
24940W        W84377   9.796  28.132   0.919
24941W        W84378   5.757   7.333   2.219
24942W        W84379  43.809  17.639  13.797
24943W        W84380   4.894  10.252  11.501
24944W        W84381  25.533   6.187   2.327
24945W        W84382  17.634  34.076   4.265
24946W        W84383  38.501  30.580   2.316
24947W        W84384  36.578  23.077   3.866
24948W        W84385  31.030  37.045   2.212
24949W        W84386  27.954  36.932   4.742
24950W        W84387  23.636  21.757   2.384
24951W        W84388  35.059  40.321  13.953
24952W        W84389  39.819   6.790   2.813
24953W        W84390  18.771  44.783   4.660
24954W        W84391  20.552  22.583   0.778
24955W        W84392  29.000   7.862  14.808
24956W        W84393  32.515  35.500  10.572
24957W        W84394  36.938  30.078   3.844
24958W        W84395   8.389  33.424  12.060
24959W        W84396   9.313  10.796  12.440
24960W        W84397  30.442  29.013  11.493
24961W        W84398  18.249   9.654  11.536
24962W        W84399  27.140  29.456  12.429
24963W        W84400  10.665   0.363  14.388
24964W        W84401  32.094  31.028  10.943
24965W        W84402  40.396   8.275  11.534
24966W        W84403  36.905  30.013  11.937
24967W        W84404  37.975  37.062   4.299
24968W        W84405  28.487  32.507   1.380
24969W        W84406   6.314  23.101   4.120
24970W        W84407  31.142  41.353  12.465
24971W        W84408  34.420   7.222  10.545
24972W        W84409  40.547  14.107  11.006
24973W        W84410  26.484  37.443  10.048
24974W        W84411  28.475  18.686   2.312
24975W        W84412  15.701   0.268  11.026
24976W        W84413   9.182   9.388  12.925
24977W        W84414  32.034  19.072   2.243
24978W        W84415   2.248  22.551  14.024
24979W        W84416  39.832  14.206   4.661
24980W        W84417  21.057   1.763   0.905
24981W        W84418  22.555   6.700  12.515
24982W        W84419  42.994  44.864  11.100
24983W        W84420  11.181  18.121   1.285
24984W        W84421  43.936  44.427   0.946
24985W        W84422  16.626  31.461   2.385
24986W        W84423  41.525   0.292   1.231
24987W        W84424   5.870  34.572   0.469
24988W        W84425  37.885   6.326  12.467
24989W        W84426  36.422  44.492   0.943
24990W        W84427  32.906  13.784  13.464
24991W        W84428   2.336  27.109   4.686
24992W        W84429  14.252  42.805   2.302
24993W        W84430   5.910  12.709  11.882
24994W        W84431  19.045  17.762   4.770
24995W        W84432   4.770  41.374   1.705
24996W        W84433  21.201   3.228  13.875
24997W        W84434  35.977  33.971   2.371
24998W        W84435  35.425  29.567  14.026
24999W        W84436   3.881   7.362   2.776
25000W        W84437  10.679  15.698   4.810
25001W        W84438  40.893  24.490   1.790
25002W        W84439   2.864  22.572   2.411
25003W        W84440  39.042  44.499   1.400
25004W        W84441  39.463  44.383  14.431
25005W        W84442  40.532   2.809   0.751
25006W        W84443  36.587   1.436   2.800
25007W        W84444  31.453  38.899   5.285
25008W        W84445  38.332   2.786  10.930
25009W        W84446  29.163   2.887  14.470
25010W        W84447   9.172   0.838  13.499
25011W        W84448   7.810   5.277  11.892
25012W        W84449  16.282  37.440  12.526
25013W        W84450  21.567  40.940  10.603
25014W        W84451  31.456  22.208  11.954
25015W        W84452  37.382   4.793   3.364
25016W        W84453   2.424  16.619   3.337
25017W        W84454  44.918  18.060   3.646
25018W        W84455  32.093  38.987   3.656
25019W        W84456  14.732  39.887   9.558
25020W        W84457  13.749  18.079  11.514
25021W        W84458  37.550  44.943   2.865
25022W        W84459  21.557   4.269   0.926
25023W        W84460  19.247   4.874  13.834
25024W        W84461  22.566  31.077  10.508
25025W        W84462   3.884   9.846  13.496
25026W        W84463   0.904  15.773   9.610
25027W        W84464   5.243  36.467  10.896
25028W        W84465  40.417   4.917   2.831
25029W        W84466  39.383  26.513   0.939
25030W        W84467  36.957  26.598  10.954
25031W        W84468  44.785  29.429  12.578
25032W        W84469   1.877  31.023  10.443
25033W        W84470  26.988   0.960  11.411
25034W        W84471  38.502   3.224   1.749
25035W        W84472  22.676  41.883  11.557
25036W        W84473  37.024  23.579  11.534
25037W        W84474  22.071  10.785  11.498
25038W        W84475  10.850   1.876  11.593
25039W        W84476   6.878  12.677  12.447
25040W        W84477  33.878  15.171  11.904
25041W        W84478   2.742   9.258   1.370
25042W        W84479  37.022   1.389   0.254
25043W        W84480  34.565   5.928  12.438
25044W        W84481  10.211  27.559   0.799
25045W        W84482   8.398  23.627   1.811
25046W        W84483  14.287   5.311  14.889
25047W        W84484  16.771  40.312   4.655
25048W        W84485  24.230   3.324  11.429
25049W        W84486   4.311  36.531   2.417
25050W        W84487  33.559   6.383  10.994
25051W        W84488  36.094  18.168   4.800
25052W        W84489  10.846  24.044   2.752
25053W        W84490   7.696  32.078   2.366
25054W        W84491  27.079  20.167   3.823
25055W        W84492  33.073  23.053   2.854
25056W        W84493   4.792  15.636   1.817
25057W        W84494   8.237   7.880  10.551
25058W        W84495   4.860  27.981   4.604
25059W        W84496  15.615  32.475  10.441
25060W        W84497  21.743  30.463   4.827
25061W        W84498  40.313  12.763   2.364
25062W        W84499  39.893  38.009  11.026
25063W        W84500   7.223  24.135   2.785
25064W        W84501  38.485   2.314  14.342
25065W        W84502  28.531  35.908  13.866
25066W        W84503  32.029  14.265  12.509
25067W        W84504  39.985  42.973   0.750
25068W        W84505   9.365  39.392  12.994
25069W        W84506  27.468   8.311   4.246
25070W        W84507   7.328   3.902  13.332
25071W        W84508  13.121   3.404  10.479
25072W        W84509  32.891  41.521  12.966
25073W        W84510  16.626   4.314  11.474
25074W        W84511  32.534   3.371  13.791
25075W        W84512  17.110  11.346  13.516
25076W        W84513   0.306  35.357   1.216
25077W        W84514  41.041  28.574  14.480
25078W        W84515  41.526  30.647   3.668
25079W        W84516  11.849   9.862   3.737
25080W        W84517  36.450  34.561  11.515
25081W        W84518  24.595  37.982   0.413
25082W        W84519  29.474  30.656   0.920
25083W        W84520   1.822  10.740  11.536
25084W        W84521   1.960  41.940  11.943
25085W        W84522  42.353  21.742   0.851
25086W        W84523  38.832  17.231   3.762
25087W        W84524  34.012  23.685  13.025
25088W        W84525   4.830  29.164  10.050
25089W        W84526  33.129   1.751  14.401
25090W        W84527   4.435  23.998  11.501
25091W        W84528   0.806  14.321   2.769
25092W        W84529  17.082  38.883   3.283
25093W        W84530  44.807   1.791   1.732
25094W        W84531  41.428  27.566   2.807
25095W        W84532   6.355  44.790  14.466
25096W        W84533  41.976  31.403   2.273
25097W        W84534  16.738  24.486  10.407
25098W        W84535  35.878  17.239   2.841
25099W        W84536  23.123  23.110  13.822
25100W        W84537  34.912  44.909   1.909
25101W        W84538   7.399   4.375  13.858
25102W        W84539  20.693  18.260  11.005
25103W        W84540  21.572  22.126   0.275
25104W        W84541  13.816  44.470   0.826
25105W        W84542   3.721  10.744  11.896
25106W        W84543  19.588   8.658  12.426
25107W        W84544  32.401  15.667   0.323
25108W        W84545  41.868  28.092   3.807
25109W        W84546  43.857  44.783   4.330
25110W        W84547  24.678  22.647   0.955
25111W        W84548  41.903  28.995  12.384
25112W        W84549  43.359  31.920   2.271
25113W        W84550   7.763  20.061  12.999
25114W        W84551  29.059  30.135  12.544
25115W        W84552  31.457  21.753  13.470
25116W        W84553  18.606  40.812  13.885
25117W        W84554  41.525   3.228  13.049
25118W        W84555   3.897  37.860  12.826
25119W        W84556  29.642  12.634  11.900
25120W        W84557  35.866  18.186  14.945
25121W        W84558  28.459  29.611  10.494
25122W        W84559  30.065  32.556  11.527
25123W        W84560  24.715  19.053   3.227
25124W        W84561  36.872  11.807   3.858
25125W        W84562  15.163  33.405   3.797
25126W        W84563  33.965  44.346  13.440
25127W        W84564  10.641  27.978  12.004
25128W        W84565  17.212  14.245   3.318
25129W        W84566  26.587  17.083  10.538
25130W        W84567  43.766  18.573   4.814
25131W        W84568  31.484  22.214  14.934
25132W        W84569  20.583  38.857  14.991
25133W        W84570   8.774  43.820  10.484
25134W        W84571  32.552  44.339   0.333
25135W        W84572  41.868  17.760  14.335
25136W        W84573  17.785  37.937  11.117
25137W        W84574  44.281   1.884  11.020
25138W        W84575  19.265  24.491   2.801
25139W        W84576  20.705  30.939   2.903
25140W        W84577   1.901  23.636   1.783
25141W        W84578  35.453  36.464   1.268
25142W        W84579  18.068  43.852  10.957
25143W        W84580  23.518   5.341   1.879
25144W        W84581  30.647  44.965  10.919
25145W        W84582   0.904  31.610  11.010
25146W        W84583   0.972  23.609  11.932
25147W        W84584  20.768   9.258   1.432
25148W        W84585  32.982  19.129   3.318
25149W        W84586  23.601  22.129   1.293
25150W        W84587   8.269  21.711   0.915
25151W        W84588  32.891  41.960  14.909
25152W        W84589  19.042   1.978   3.825
25153W        W84590  21.758  19.212   1.227
25154W        W84591  25.584  42.463   4.225
25155W        W84592  43.396  24.176  13.804
25156W        W84593  28.935   5.896  10.937
25157W        W84594  29.599  24.193  13.028
25158W        W84595  27.045   6.833  13.454
25159W        W84596  16.615  11.211  12.946
25160W        W84597   4.743  25.111   5.669
25161W        W84598  42.328  23.619   4.157
25162W        W84599  26.967   4.793   0.260
25163W        W84600   0.354  25.109   1.703
25164W        W84601  22.214  25.571  13.041
25165W        W84602  35.506  22.720  13.841
25166W        W84603  43.336  28.675  10.976
25167W        W84604  25.163  37.893   2.743
25168W        W84605   1.765  28.625  12.397
25169W        W84606  22.215  25.564   4.338
25170W        W84607  14.713  15.686   3.796
25171W        W84608  28.112   1.407  13.818
25172W        W84609  16.111  10.704   2.344
25173W        W84610  40.378  35.077   1.264
25174W        W84611  42.009  31.049   3.310
25175W        W84612  38.060  39.879  14.901
25176W        W84613  41.384  23.093  10.920
25177W        W84614  39.357  29.609  12.496
25178W        W84615  38.824  24.550   3.201
25179W        W84616  20.274   3.324   1.255
25180W        W84617  35.097  33.471  12.929
25181W        W84618  33.900   1.938   2.387
25182W        W84619  38.337  17.632  11.884
25183W        W84620  21.513   3.870   1.350
25184W        W84621  33.582  24.609   3.375
25185W        W84622  42.481  39.931  13.925
25186W        W84623  33.018  25.670   2.883
25187W        W84624  41.313  40.539   1.897
25188W        W84625  11.650  14.314   3.362
25189W        W84626  18.261  36.477   2.382
25190W        W84627  10.356  41.312   0.431
25191W        W84628  43.974  22.596  11.600
25192W        W84629  32.910  17.139  11.532
25193W        W84630   2.837  29.425  11.028
25194W        W84631  44.417  26.972  11.492
25195W        W84632  15.601  19.259   3.250
25196W        W84633  27.058   1.427   1.352
25197W        W84634  24.539  12.786  13.007
25198W        W84635  22.727  10.164   2.744
25199W        W84636  42.527  41.430  13.384
25200W        W84637   8.304  38.521  14.306
25201W        W84638  44.758  23.600   1.711
25202W        W84639   3.252  29.576   2.233
25203W        W84640  21.696  17.761  11.404
25204W        W84641   3.906  36.061   2.769
25205W        W84642  19.172  19.074   4.716
25206W        W84643  37.384  14.655   0.874
25207W        W84644   6.294  35.499  13.460
25208W        W84645  35.410   5.714  13.431
25209W        W84646  37.470  19.249  14.357
25210W        W84647  12.642  10.316  14.924
25211W        W84648  29.020  41.940  10.952
25212W        W84649   4.779  17.188   1.766
25213W        W84650  23.695   4.265  10.555
25214W        W84651  15.720  21.241  10.994
25215W        W84652  34.932  21.248   0.953
25216W        W84653  42.910  41.890   4.220
25217W        W84654   8.171  32.935   2.341
25218W        W84655  29.950   7.824  11.945
25219W        W84656  12.218  20.235   0.336
25220W        W84657  33.529  26.511   2.880
25221W        W84658  10.819  31.626   2.889
25222W        W84659   5.893   4.383   2.738
25223W        W84660  14.175  41.534   2.325
25224W        W84661  30.044  35.589  12.071
25225W        W84662  11.680  31.054   1.288
25226W        W84663   8.803  40.421   3.788
25227W        W84664  13.110   8.269   1.252
25228W        W84665  27.038  26.999  12.419
25229W        W84666   4.814   3.261  10.519
25230W        W84667  22.586  14.266   2.779
25231W        W84668  24.723   1.343  10.627
25232W        W84669  37.372  22.158   0.296
25233W        W84670  38.464  17.160   0.742
25234W        W84671  14.692  42.344   2.756
25235W        W84672  32.012  39.325  12.468
25236W        W84673  40.401  25.474   2.326
25237W        W84674  13.320  22.048  11.000
25238W        W84675   2.289  19.660  12.832
25239W        W84676  34.574  37.882  14.354
25240W        W84677  33.952  31.589  10.448
25241W        W84678  40.011  36.982   4.673
25242W        W84679  23.183  10.734  14.476
25243W        W84680  10.367  24.656   9.957
25244W        W84681   1.236  37.582  12.967
25245W        W84682  39.317   3.920  12.566
25246W        W84683   1.243  28.599  14.885
25247W        W84684  44.455  28.540   4.804
25248W        W84685  19.655  12.255   3.355
25249W        W84686  35.523  41.341   1.339
25250W        W84687  34.932  34.459   9.936
25251W        W84688  18.246   4.768  10.137
25252W        W84689  22.688  42.790   0.957
25253W        W84690  12.656  26.667   1.214
25254W        W84691  33.959   9.735   0.966
25255W        W84692  12.206  21.210  14.029
25256W        W84693  13.269  28.578  10.937
25257W        W84694  24.723  25.200  11.580
25258W        W84695   2.744  31.930  13.857
25259W        W84696  42.950  42.310  10.538
25260W        W84697  13.813  15.669  13.822
25261W        W84698   8.217   4.433   2.397
25262W        W84699   0.475   0.931   4.145
25263W        W84700  14.245  39.396  12.518
25264W        W84701  40.801  31.624   3.668
25265W        W84702  39.353   6.691   2.251
25266W        W84703  42.778  15.782   3.807
25267W        W84704  42.517  11.768   4.704
25268W        W84705   2.929  44.911  13.024
25269W        W84706  30.004  38.327  15.000
25270W        W84707  18.741  24.713   3.861
25271W        W84708  21.531  42.914   3.223
25272W        W84709  30.946  20.733   1.887
25273W        W84710  24.162  16.255  13.905
25274W        W84711   3.882  32.440  14.823
25275W        W84712  29.557   7.716   0.397
25276W        W84713   4.870  39.845  14.908
25277W        W84714   0.436  32.493  14.937
25278W        W84715  32.569  31.080  13.433
25279W        W84716   3.317  11.791  10.568
25280W        W84717  17.583  15.698   2.769
25281W        W84718   7.228  26.984   1.242
25282W        W84719  44.303  16.259  14.956
25283W        W84720  31.477   4.236  10.926
25284W        W84721  39.030   8.847  12.826
25285W        W84722   4.247  33.101  10.640
25286W        W84723   7.223  19.584  12.385
25287W        W84724   2.239  29.433   9.926
25288W        W84725   3.880  13.627  11.879
25289W        W84726  10.278  12.266   4.231
25290W        W84727  21.238  28.623   1.360
25291W        W84728  18.088  28.070   1.833
25292W        W84729  16.080  41.489  10.941
25293W        W84730  10.690  40.462   2.241
25294W        W84731  29.953  43.277   4.138
25295W        W84732  21.516  37.377   4.132
25296W        W84733  26.153  35.070   4.626
25297W        W84734  20.248   6.364   4.770
25298W        W84735  41.416  23.546   4.804
25299W        W84736  15.283  25.528   3.783
25300W        W84737  19.127   2.270  14.390
25301W        W84738  15.233  44.793   1.750
25302W        W84739  34.023  22.660   4.332
25303W        W84740   2.395  25.574   3.822
25304W        W84741  19.577  24.707   0.929
25305W        W84742  25.007  38.074  11.915
25306W        W84743  10.351  44.821  10.899
25307W        W84744  17.626  12.642   4.311
25308W        W84745  21.683   5.388  11.459
25309W        W84746  38.368  24.126   1.290
25310W        W84747  22.212  17.724  14.436
25311W        W84748  41.501  24.684   4.304
25312W        W84749  13.627  33.497  14.514
25313W        W84750  26.522  11.694   3.842
25314W        W84751  27.959  19.647   0.481
25315W        W84752  43.419  13.217   1.897
25316W        W84753  11.649  44.778  12.375
25317W        W84754   0.377   3.405   4.835
25318W        W84755  19.104  13.177  11.922
25319W        W84756  44.918  30.145   0.315
25320W        W84757  22.211  26.567   9.986
25321W        W84758  39.896  15.320  12.831
25322W        W84759  29.059   9.866   9.928
25323W        W84760  29.592  41.790  13.948
25324W        W84761  19.070  14.302  11.530
25325W        W84762  26.647  19.694   1.744
25326W        W84763  36.393  24.662   1.786
25327W        W84764  39.337  36.590  11.538
25328W        W84765   9.336  42.821  12.493
25329W        W84766  35.027   2.335  11.463
25330W        W84767   0.275  14.303   0.885
25331W        W84768  14.191  44.349   1.707
25332W        W84769   3.267  24.004  10.967
25333W        W84770  10.804   0.886  14.847
25334W        W84771   2.295  40.527   5.274
25335W        W84772  29.930  32.953  12.064
25336W        W84773   7.718  20.131  12.067
25337W        W84774  13.649  37.479   1.857
25338W        W84775   6.694   5.795  10.961
25339W        W84776  26.547  18.168  14.294
25340W        W84777  27.582   4.920   1.301
25341W        W84778  43.480  28.933   3.239
25342W        W84779   4.286  13.753  13.482
25343W        W84780  12.130  17.198   1.802
25344W        W84781  33.924  29.041  13.456
25345W        W84782   3.245  27.554  13.864
25346W        W84783  43.841  17.641   2.839
25347W        W84784  18.638  39.926  11.995
25348W        W84785   7.802  44.296   5.219
25349W        W84786  20.660  44.413  11.079
25350W        W84787   5.843   7.795   3.745
25351W        W84788  15.586   9.392  12.866
25352W        W84789  24.087   1.436   4.833
25353W        W84790  40.047   4.250  11.447
25354W        W84791  36.045  41.421  10.520
25355W        W84792   6.291  11.319  13.014
25356W        W84793  44.300  26.462  11.541
25357W        W84794  15.090  40.372  13.819
25358W        W84795  35.004  20.159   0.356
25359W        W84796   6.722   4.249  10.556
25360W        W84797   4.316  42.306  12.901
25361W        W84798  21.141  43.315   1.814
25362W        W84799  28.674  10.642  11.543
25363W        W84800  15.607   9.276  14.406
25364W        W84801  18.733  44.370   2.381
25365W        W84802  35.385  25.481  11.957
25366W        W84803  39.360  32.925  13.863
25367W        W84804  38.057  11.316  13.460
25368W        W84805  28.070  10.643   0.889
25369W        W84806  14.139  14.792   4.638
25370W        W84807  31.022  24.217  12.410
25371W        W84808   3.362  43.367  12.003
25372W        W84809   7.863  29.468  12.966
25373W        W84810  32.986  25.553  11.867
25374W        W84811  13.323   5.748   3.753
25375W        W84812   2.242  44.489  11.052
25376W        W84813  34.601  16.249   3.181
25377W        W84814  42.849  13.228   5.227
25378W        W84815  36.890  29.453   3.852
25379W        W84816  23.685  12.773   2.203
25380W        W84817  27.157   9.179   2.324
25381W        W84818  33.459  26.699   2.401
25382W        W84819  42.399   0.919  12.083
25383W        W84820  23.187  32.598  11.462
25384W        W84821  39.533   4.245   1.294
25385W        W84822  41.450  42.511  12.361
25386W        W84823  22.011  13.344   5.203
25387W        W84824  11.148  40.320   3.855
25388W        W84825   5.819  32.524   1.872
25389W        W84826  18.672  27.671   0.459
25390W        W84827  25.472   6.319   3.860
25391W        W84828  11.673  44.399  12.480
25392W        W84829  44.411  36.466   0.945
25393W        W84830  33.455  26.540   3.801
25394W        W84831  32.477  41.412   3.294
25395W        W84832  10.766  31.932   2.363
25396W        W84833  38.016  28.559  14.029
25397W        W84834   5.748  15.720   3.222
25398W        W84835  39.052  14.596  12.371
25399W        W84836  31.950  32.494   4.658
25400W        W84837  17.185   9.287   1.302
25401W        W84838  16.572  35.997  12.924
25402W        W84839   1.440   6.303  14.338
25403W        W84840  36.492  17.743  10.421
25404W        W84841   4.856  33.049  14.861
25405W        W84842  35.468  10.318  14.858
25406W        W84843   8.720  40.877   3.669
25407W        W84844  41.457  25.200  12.870
25408W        W84845  22.054   4.285  14.451
25409W        W84846  26.087   1.380  12.567
25410W        W84847   5.271  43.275   2.707
25411W        W84848  39.379  36.588  14.312
25412W        W84849  39.348   9.714   1.382
25413W        W84850  36.881  11.358   1.320
25414W        W84851  16.194  21.177  11.976
25415W        W84852  11.246  36.927  11.476
25416W        W84853  26.208  14.770  12.965
25417W        W84854  17.711  15.714  12.061
25418W        W84855  25.048  31.495   1.249
25419W        W84856   2.746  41.317  12.983
25420W        W84857  18.709  41.940  12.999
25421W        W84858  21.166  21.044   9.933
25422W        W84859  20.594  36.518  11.013
25423W        W84860  22.080  17.799  13.000
25424W        W84861  30.567  38.491   0.451
25425W        W84862  35.543  44.347  12.480
25426W        W84863  41.865  20.718   0.464
25427W        W84864   0.481   7.383  12.429
25428W        W84865  43.345  10.783  13.848
25429W        W84866  23.713  32.014   3.784
25430W        W84867  13.817  39.332   3.349
25431W        W84868   3.444  35.389  12.385
25432W        W84869  38.934  30.163  10.626
25433W        W84870  11.149  23.662  14.974
25434W        W84871  22.240   7.749   3.837
25435W        W84872   1.460  23.082   1.935
25436W        W84873   4.412  21.512  13.937
25437W        W84874   3.877   6.247   3.288
25438W        W84875   3.856  30.453   2.734
25439W        W84876   2.901  11.805  10.558
25440W        W84877  24.651  18.056  12.378
25441W        W84878  39.978  22.129   4.640
25442W        W84879  14.136   4.923  13.839
25443W        W84880  32.974   3.914  14.434
25444W        W84881  20.103  21.234  12.505
25445W        W84882  22.217   4.835   1.816
25446W        W84883  15.292  20.069   4.183
25447W        W84884  40.836  33.452  12.567
25448W        W84885  20.184  10.333  12.390
25449W        W84886  30.084  12.289   4.598
25450W        W84887  20.540   3.265   2.884
25451W        W84888  44.891  22.631  11.373
25452W        W84889  32.016   7.278   3.309
25453W        W84890  11.808  27.099  13.370
25454W        W84891  37.447  32.586  11.443
25455W        W84892   2.863  32.547   4.770
25456W        W84893  19.195  27.556  14.492
25457W        W84894  33.408  39.897   3.854
25458W        W84895   6.797   0.975  12.974
25459W        W84896  10.649  35.426   3.176
25460W        W84897  12.620  28.553   1.848
25461W        W84898  29.630  10.143  11.048
25462W        W84899  14.620  17.565  10.506
25463W        W84900  33.422  40.437   1.845
25464W        W84901  29.662  37.970  12.409
25465W        W84902  39.361  15.290  11.979
25466W        W84903   7.805   2.367  14.912
25467W        W84904  27.970  36.953   1.230
25468W        W84905  42.809  31.016   3.858
25469W        W84906   4.277  28.103  13.541
25470W        W84907  25.596  35.359  10.892
25471W        W84908   7.333  36.874   3.662
25472W        W84909  12.770  42.800   3.339
25473W        W84910  14.744  11.782  10.130
25474W        W84911  43.444  13.173   3.688
25475W        W84912  38.352  40.465  14.352
25476W        W84913   4.705  43.818   3.789
25477W        W84914  38.828   7.209   1.900
25478W        W84915   8.160  16.256   1.722
25479W        W84916  28.487  40.861   3.655
25480W        W84917  29.057  13.223   3.323
25481W        W84918  31.497  26.155  13.861
25482W        W84919   2.326  21.070   1.269
25483W        W84920  42.523   1.338   4.664
25484W        W84921  40.366  35.007   2.815
25485W        W84922  44.989  33.473   4.778
25486W        W84923  31.132  23.038  14.883
25487W        W84924  32.017  40.360  11.006
25488W        W84925  35.412  28.048   4.633
25489W        W84926  23.173  13.264   1.868
25490W        W84927  29.021  20.188   1.697
25491W        W84928  32.028  44.374  11.444
25492W        W84929  23.131  20.183   3.162
25493W        W84930  12.759  33.490   2.244
25494W        W84931  20.754  14.737  14.017
25495W        W84932  24.494   1.414  14.938
25496W        W84933  38.846  38.884  14.824
25497W        W84934  13.774  31.137  11.993
25498W        W84935   9.249  31.153   1.448
25499W        W84936  34.108   9.342  13.445
25500W        W84937  27.133   6.726   3.312
25501W        W84938  35.954  29.068   0.791
25502W        W84939   8.375  39.917   1.781
25503W        W84940  28.676   8.259   2.349
25504W        W84941  25.501  21.711  11.573
25505W        W84942   3.848  26.982   1.393
25506W        W84943  28.186  40.964  12.576
25507W        W84944  43.883  14.264   4.660
25508W        W84945  18.245  12.635   3.687
25509W        W84946  31.459  34.049  14.905
25510W        W84947  32.997  15.233  12.037
25511W        W84948  12.295  42.389   0.346
25512W        W84949  28.560  23.176   9.483
25513W        W84950  14.647   6.319   2.212
25514W        W84951  38.491  27.064  14.331
25515W        W84952  29.966  20.263   4.768
25516W        W84953   3.815  38.441   1.287
25517W        W84954  33.474  39.317  14.883
25518W        W84955  41.916   4.767  14.392
25519W        W84956  38.483  25.108  12.959
25520W        W84957  34.905  21.209   3.634
25521W        W84958   9.247  24.083   5.200
25522W        W84959  38.459  19.240   1.800
25523W        W84960  24.604  32.467   1.413
25524W        W84961   2.379   3.449   3.771
25525W        W84962  44.835  11.751  14.419
25526W        W84963   4.306  36.526  10.960
25527W        W84964   7.842  19.645   1.315
25528W        W84965  38.568  24.130   0.370
25529W        W84966  12.785  13.239  14.817
25530W        W84967  22.233  11.223  12.061
25531W        W84968  19.713  19.137   0.476
25532W        W84969  18.092  28.591  12.492
25533W        W84970  16.680  25.519   4.755
25534W        W84971  25.990  10.664   3.742
25535W        W84972  36.868  27.142  10.944
25536W        W84973   9.732  13.758  11.864
25537W        W84974  31.997   0.469  10.599
25538W        W84975  22.139   2.464   1.923
25539W        W84976  10.700   6.379  12.011
25540W        W84977  15.228   5.328  13.957
25541W        W84978  34.890  26.996   1.347
25542W        W84979  15.609   0.282   3.765
25543W        W84980  32.976   4.802  12.392
25544W        W84981  17.614  42.013  11.991
25545W        W84982  22.165   7.307  11.881
25546W        W84983   5.253  15.602  13.422
25547W        W84984   8.381   6.343   0.785
25548W        W84985  24.123  11.344   2.387
25549W        W84986  36.065   7.845   1.405
25550W        W84987  42.894   3.222   1.853
25551W        W84988  16.225  29.550  12.053
25552W        W84989  34.946  29.477  13.834
25553W        W84990  15.771  43.936  11.967
25554W        W84991  26.671  37.432  10.623
25555W        W84992  20.067  11.682  13.331
25556W        W84993   7.746  35.425  10.954
25557W        W84994   3.925  43.436   4.158
25558W        W84995  18.610  23.214  12.364
25559W        W84996  18.227  43.412   2.195
25560W        W84997  24.500  44.411   2.728
25561W        W84998  30.657  30.036  12.981
25562W        W84999  16.607  17.189   2.818
25563W        W85000  34.065  44.003   4.155
25564W        W85001   4.228  21.749  14.448
25565W        W85002  21.199  34.101  11.067
25566W        W85003  13.795  12.842  11.596
25567W        W85004  38.840   6.239  12.851
25568W        W85005  33.447  15.788  14.014
25569W        W85006  22.675   1.943   1.826
25570W        W85007  10.865  38.069   4.261
25571W        W85008  32.576  22.075  11.986
25572W        W85009  15.233  23.136   4.747
25573W        W85010   2.939  25.150   4.143
25574W        W85011  14.807   8.818  11.954
25575W        W85012  20.158   1.444  14.024
25576W        W85013  28.596  25.589   1.409
25577W        W85014  38.053   4.387   0.260
25578W        W85015  43.824   7.388  12.962
25579W        W85016  24.617   2.230   4.630
25580W        W85017  20.626  30.965  12.984
25581W        W85018  43.973  44.009  11.471
25582W        W85019  30.093   1.268  13.391
25583W        W85020  29.535  12.613   9.985
25584W        W85021  12.270   0.843   1.766
25585W        W85022   9.670   6.362  14.388
25586W        W85023  11.212   5.692   2.419
25587W        W85024  32.435  27.562   4.663
25588W        W85025  25.625  28.547  12.412
25589W        W85026  34.916  19.537  13.443
25590W        W85027  24.712   6.755  11.570
25591W        W85028  15.782  42.280  11.071
25592W        W85029  28.654  25.542  12.865
25593W        W85030  35.978  12.711  13.328
25594W        W85031  17.169  42.855   0.827
25595W        W85032  24.593  30.999  10.443
25596W        W85033  16.579  22.601   3.750
25597W        W85034  40.919  42.926   0.922
25598W        W85035  31.444  27.630   2.802
25599W        W85036  25.703  28.144  10.105
25600W        W85037  19.680  22.587   0.916
25601W        W85038  25.147  33.112  11.466
25602W        W85039   1.966  25.140  14.375
25603W        W85040  34.059  37.895   1.344
25604W        W85041   7.773  23.015  10.513
25605W        W85042  26.643  44.410  11.870
25606W        W85043  36.530  37.381  11.506
25607W        W85044  19.188  43.422  10.928
25608W        W85045   4.334  27.581   2.370
25609W        W85046  32.105  34.585   4.810
25610W        W85047  41.362  35.527  12.509
25611W        W85048  10.198   1.478  11.997
25612W        W85049  22.183  43.366   3.789
25613W        W85050   4.843  11.295  13.418
25614W        W85051   8.668  16.638   3.379
25615W        W85052  29.561   4.843   1.446
25616W        W85053  38.451   2.369   0.251
25617W        W85054  32.002   9.805   1.825
25618W        W85055  13.626  28.435  13.329
25619W        W85056  23.496  25.175   0.872
25620W        W85057  39.874  22.164   1.278
25621W        W85058   4.810  18.053   0.386
25622W        W85059   6.757  41.980  13.924
25623W        W85060  38.467   0.987   2.338
25624W        W85061  41.891  44.978   1.406
25625W        W85062   7.727  42.991   4.807
25626W        W85063  17.211  23.725  11.113
25627W        W85064  26.964  27.646   0.261
25628W        W85065  39.979  27.512  10.505
25629W        W85066  30.946  21.546   1.915
25630W        W85067   5.741  42.866  14.831
25631W        W85068   8.859  26.127   4.749
25632W        W85069  25.586   4.752   3.839
25633W        W85070   8.339  34.067  13.402
25634W        W85071  12.648   9.739  10.456
25635W        W85072   8.713  18.248  13.958
25636W        W85073  20.177  23.210   3.241
25637W        W85074  25.046  16.648  13.427
25638W        W85075  44.294  12.199  13.013
25639W        W85076  15.672  38.869  10.513
25640W        W85077  33.879  16.752   3.804
25641W        W85078  38.823  34.104   1.294
25642W        W85079  34.046  39.538   0.479
25643W        W85080  17.166  44.355   2.864
25644W        W85081  11.240  27.531   3.827
25645W        W85082  34.091  41.301   5.134
25646W        W85083  38.075  24.501   1.816
25647W        W85084  34.406  37.852  13.327
25648W        W85085  12.843  26.664   2.188
25649W        W85086  42.914  16.633  12.052
25650W        W85087  25.049  26.515  12.837
25651W        W85088  26.052   6.913  13.807
25652W        W85089  24.974  38.943   3.630
25653W        W85090  14.299  10.181  14.325
25654W        W85091  39.980  41.393   3.697
25655W        W85092   3.937  25.120   1.814
25656W        W85093  39.402  35.891   0.393
25657W        W85094  12.199  31.474   1.414
25658W        W85095  36.421  42.347   3.801
25659W        W85096  19.041  10.316  10.587
25660W        W85097  33.526  18.654  11.016
25661W        W85098  13.761  33.130   3.319
25662W        W85099  41.408  10.226   5.091
25663W        W85100  36.940  43.808  13.037
25664W        W85101  15.314  32.491  10.902
25665W        W85102  24.200  31.117  14.866
25666W        W85103  31.505  12.793  14.921
25667W        W85104  38.889  14.134  12.076
25668W        W85105  31.598   8.866   0.412
25669W        W85106  33.056   0.963   1.826
25670W        W85107  17.712  15.674  14.963
25671W        W85108   8.277   4.816  10.988
25672W        W85109  27.555  13.116  10.493
25673W        W85110  36.904  10.677   3.148
25674W        W85111  21.616  43.352   3.648
25675W        W85112   2.740  24.566  13.351
25676W        W85113  20.211   8.199   2.675
25677W        W85114  32.474  15.620  11.512
25678W        W85115  42.775  32.973   1.372
25679W        W85116  35.565  40.309  12.823
25680W        W85117  35.890  29.432  14.459
25681W        W85118   3.398  34.091   3.318
25682W        W85119  23.996  43.897   4.196
25683W        W85120  36.095  18.713  12.476
25684W        W85121  44.457  40.969   4.708
25685W        W85122  28.968  42.369   0.776
25686W        W85123   0.755  29.596   3.850
25687W        W85124  40.837   0.804  13.312
25688W        W85125   0.877  19.068   1.810
25689W        W85126  24.220   1.796   3.716
25690W        W85127  15.816  34.527   2.216
25691W        W85128   9.184   8.360   3.287
25692W        W85129  29.015   8.244  10.430
25693W        W85130  13.802   0.924  14.769
25694W        W85131   8.264   8.721  10.980
25695W        W85132  27.015  44.882  13.410
25696W        W85133  36.452  18.687   2.677
25697W        W85134  41.948  34.062   1.856
25698W        W85135  17.699  11.655   4.653
25699W        W85136  35.096  41.935  14.886
25700W        W85137  23.165   1.457   1.921
25701W        W85138  30.943   0.396  10.585
25702W        W85139  30.117  26.050   4.733
25703W        W85140  24.560  10.298   2.860
25704W        W85141  20.688  37.497  13.821
25705W        W85142   6.766  18.082   3.829
25706W        W85143  15.109  14.792  14.335
25707W        W85144   4.274   8.378  13.801
25708W        W85145  44.432   2.332  13.437
25709W        W85146  19.539  23.611  13.958
25710W        W85147  37.860  44.947   0.329
25711W        W85148  25.576  39.492   4.121
25712W        W85149   0.803  34.012  11.431
25713W        W85150   8.282  31.614   4.145
25714W        W85151  29.935  39.042  11.062
25715W        W85152   9.153  39.986  14.853
25716W        W85153  24.697  23.615  12.515
25717W        W85154  11.309  28.478  10.546
25718W        W85155   6.243  44.460   2.400
25719W        W85156  35.425  16.725  12.025
25720W        W85157  38.070  12.693   0.756
25721W        W85158   0.952  11.255   0.422
25722W        W85159  44.960  38.922   3.781
25723W        W85160   9.830  12.155   4.325
25724W        W85161  27.170  16.162  13.934
25725W        W85162  37.386  44.007  11.911
25726W        W85163  37.853  26.523   1.718
25727W        W85164  36.575   3.823  11.557
25728W        W85165  18.055  37.446  13.322
25729W        W85166  12.745  19.707   4.829
25730W        W85167   9.661  16.292  10.995
25731W        W85168   9.648   7.694  10.566
25732W        W85169  30.497  19.201  10.409
25733W        W85170  43.384   8.806  13.518
25734W        W85171  12.124  38.943   0.327
25735W        W85172  38.440  37.951   3.649
25736W        W85173  22.127   6.224  13.511
25737W        W85174  19.066  15.150  11.925
25738W        W85175  33.405  32.501   1.231
25739W        W85176  28.027  18.612  10.480
25740W        W85177  31.552   9.710   0.841
25741W        W85178  44.273  29.595  12.084
25742W        W85179   7.749  25.551  12.553
25743W        W85180  24.502  38.909  14.279
25744W        W85181  22.144  39.536  14.778
25745W        W85182  31.993   8.679  12.399
25746W        W85183  34.036  34.088   3.799
25747W        W85184  29.127  26.643   4.157
25748W        W85185  31.594   1.744  13.935
25749W        W85186  39.362   5.246  10.938
25750W        W85187  43.394  28.623   1.270
25751W        W85188  24.014  20.651  13.968
25752W        W85189  37.073  28.129   4.717
25753W        W85190   8.274  15.820  12.054
25754W        W85191   9.182   7.691  14.288
25755W        W85192  31.542  16.134   2.212
25756W        W85193  34.074  23.534   1.285
25757W        W85194  14.266  32.473   4.170
25758W        W85195  21.071  33.401  13.839
25759W        W85196   2.453  10.863  12.889
25760W        W85197   4.821   4.441  14.312
25761W        W85198  32.015  42.526  11.060
25762W        W85199  26.682  41.831  10.622
25763W        W85200  19.689  16.197   2.850
25764W        W85201   1.817  43.875  11.907
25765W        W85202  16.749  21.544  13.355
25766W        W85203  26.961  35.485  10.481
25767W        W85204  37.545  43.776   4.270
25768W        W85205  16.635  27.130  12.905
25769W        W85206  14.114   1.881  12.074
25770W        W85207  41.957   4.259   4.636
25771W        W85208  33.564  41.860  14.321
25772W        W85209  38.888  16.594  14.507
25773W        W85210  37.420  36.368   4.828
25774W        W85211  27.692   2.774   0.750
25775W        W85212  17.679  43.301  12.020
25776W        W85213  41.312  25.131   0.861
25777W        W85214  36.079   3.223  13.343
25778W        W85215  32.072   8.265   2.755
25779W        W85216   0.362   1.237  11.856
25780W        W85217  24.010  25.054  10.140
25781W        W85218  16.300  24.653  11.394
25782W        W85219  37.449  28.942   1.764
25783W        W85220   7.346   0.314   2.733
25784W        W85221  35.101  35.108   0.807
25785W        W85222   6.860   6.238   2.777
25786W        W85223  43.834  27.116  10.914
25787W        W85224   0.396  11.233   2.274
25788W        W85225  10.313  21.082  10.580
25789W        W85226  42.823  33.058  10.542
25790W        W85227  30.934   3.735   0.902
25791W        W85228  10.744  31.986  13.495
25792W        W85229   3.942  37.423  12.540
25793W        W85230  33.053   6.689   3.258
25794W        W85231  42.300  29.033  10.993
25795W        W85232   7.347  35.075  11.078
25796W        W85233  34.508  23.581  11.877
25797W        W85234   5.864  16.076  12.525
25798W        W85235   9.679  34.430   4.199
25799W        W85236   1.450  26.132   4.224
25800W        W85237   8.309  23.225  14.448
25801W        W85238  14.114   9.290   3.371
25802W        W85239  33.606   0.422  12.417
25803W        W85240   3.347   0.872   1.896
25804W        W85241  44.475  10.701   1.905
25805W        W85242  12.621   3.795  12.030
25806W        W85243   8.771  26.594   4.672
25807W        W85244  25.650  22.204  13.876
25808W        W85245   6.751  14.197  12.566
25809W        W85246   8.307  16.109  14.316
25810W        W85247  35.467  21.728   2.730
25811W        W85248   6.333   2.286   2.730
25812W        W85249  11.825  40.863   4.321
25813W        W85250  38.919   1.448   2.306
25814W        W85251  21.599  44.888   2.401
25815W        W85252   8.791  15.726   2.863
25816W        W85253  13.257  18.748  14.477
25817W        W85254  25.121  29.504  14.011
25818W        W85255  13.761  29.156  10.947
25819W        W85256  12.837   2.861   2.868
25820W        W85257   2.917  34.384  13.499
25821W        W85258  32.464  29.168  13.983
25822W        W85259  36.968  28.178  14.341
25823W        W85260  38.549  39.937   2.862
25824W        W85261  14.746  44.786  12.346
25825W        W85262  16.809  42.861  10.922
25826W        W85263  15.162  15.182  10.579
25827W        W85264  19.090  14.207  10.117
25828W        W85265  12.645   5.725   1.334
25829W        W85266  35.515  28.021   2.891
25830W        W85267  12.657  12.297  10.562
25831W        W85268  42.418  42.853  11.880
25832W        W85269  11.665   0.398   0.413
25833W        W85270  42.999   1.439   1.404
25834W        W85271  33.479  16.125  11.556
25835W        W85272   7.337  13.796  14.775
25836W        W85273  33.439  24.219  12.888
25837W        W85274  20.726  14.179  13.811
25838W        W85275  15.249  25.153  13.900
25839W        W85276  32.082  13.224  12.073
25840W        W85277  43.345  38.362   3.379
25841W        W85278  15.707   9.798   1.922
25842W        W85279  21.675  20.183   1.398
25843W        W85280  44.282  41.005  12.928
25844W        W85281  32.991  25.558   0.872
25845W        W85282  36.035  28.935   4.816
25846W        W85283  14.148  30.112   4.733
25847W        W85284  31.472  10.784  13.395
25848W        W85285  41.892  40.895   0.847
25849W        W85286  33.101  33.551  14.345
25850W        W85287  17.228  40.520   3.156
25851W        W85288  41.495  43.915  11.606
25852W        W85289  22.069  13.747   4.297
25853W        W85290  28.441  28.962   3.229
25854W        W85291   9.801  44.457   1.304
25855W        W85292  37.346  26.077  10.573
25856W        W85293   8.328  40.441  11.585
25857W        W85294  15.590  26.138  12.030
25858W        W85295  30.148  42.309   3.810
25859W        W85296   1.402   7.882  13.470
25860W        W85297  19.245  37.373   1.445
25861W        W85298  34.872   8.745  13.327
25862W        W85299  43.499   7.309   0.949
25863W        W85300  12.741  40.335  11.115
25864W        W85301  16.751  38.033  10.553
25865W        W85302  13.199  37.832   0.316
25866W        W85303  42.970  44.473  12.354
25867W        W85304  35.001  19.083  13.410
25868W        W85305  36.461  41.800   0.299
25869W        W85306  26.502   9.836   0.321
25870W        W85307  27.663  32.549   2.779
25871W        W85308   5.834  42.896   1.746
25872W        W85309   8.845  42.413   0.952
25873W        W85310  28.096  29.467  11.583
25874W        W85311  16.801   5.335   4.767
25875W        W85312  31.606   2.309  10.912
25876W        W85313  41.434   1.819   2.274
25877W        W85314  33.562  28.673   3.170
25878W        W85315   1.888   9.759   1.857
25879W        W85316  33.122  38.924   3.358
25880W        W85317  44.863  17.172   0.341
25881W        W85318  19.559   3.370  13.517
25882W        W85319  23.734  23.041   2.324
25883W        W85320   3.427   8.301  10.965
25884W        W85321   7.255  33.586   1.699
25885W        W85322  44.877  43.966  13.434
25886W        W85323  25.577  14.666   4.349
25887W        W85324  42.793  16.202   4.319
25888W        W85325  42.978   5.385   0.322
25889W        W85326  16.634  39.969  10.025
25890W        W85327  16.287  23.677   0.268
25891W        W85328  31.575  36.490   0.877
25892W        W85329  31.410  13.696  13.961
25893W        W85330  20.148  37.081   0.412
25894W        W85331  41.879  43.385   4.639
25895W        W85332  43.501  39.884   0.453
25896W        W85333   8.331  39.348  12.446
25897W        W85334  21.055  13.756   4.338
25898W        W85335  26.680   1.405  11.101
25899W        W85336  44.464  14.256  11.417
25900W        W85337  43.348  33.386   9.520
25901W        W85338  36.454  30.605   2.326
25902W        W85339  38.842  32.105   2.736
25903W        W85340  23.106   4.763  14.788
25904W        W85341  21.093  24.494   1.831
25905W        W85342  42.963  19.096  12.027
25906W        W85343   9.644  17.218  11.969
25907W        W85344  27.660  29.054   1.404
25908W        W85345  18.701  21.186   1.433
25909W        W85346  10.356   7.775   5.218
25910W        W85347  11.652  24.506   2.385
25911W        W85348  26.501  42.999   1.257
25912W        W85349   6.849  27.984   1.257
25913W        W85350  25.500  25.190  13.354
25914W        W85351  10.833  42.428   0.436
25915W        W85352  19.218  32.934   4.247
25916W        W85353  15.112  11.797   2.843
25917W        W85354  22.060   1.251   3.666
25918W        W85355  39.379   5.816  12.040
25919W        W85356   7.895  27.593   1.869
25920W        W85357  35.531  30.107  10.410
25921W        W85358  23.121  19.756   0.785
25922W        W85359  40.470  24.230  11.561
25923W        W85360  12.780  39.859  12.052
25924W        W85361  27.551  20.107   3.235
25925W        W85362  16.095  42.375   4.624
25926W        W85363   5.216  40.048   3.653
25927W        W85364  23.648  14.232  11.858
25928W        W85365  41.317   4.294  10.533
25929W        W85366  27.568  29.555   2.858
25930W        W85367  41.324   1.975   2.851
25931W        W85368   8.395   1.773   0.267
25932W        W85369  42.288  27.583  13.891
25933W        W85370  38.949  19.745  10.062
25934W        W85371  25.557  31.495  10.895
25935W        W85372  11.152  25.034   4.268
25936W        W85373   1.351  25.643   2.812
25937W        W85374  35.996   5.823   0.312
25938W        W85375  37.015  34.599  11.459
25939W        W85376  18.184  36.871  12.580
25940W        W85377  28.935  43.891  12.404
25941W        W85378   5.870  17.082   4.140
25942W        W85379  25.494  25.496  11.588
25943W        W85380  33.989  37.459   0.939
25944W        W85381  38.560  28.625   2.670
25945W        W85382  28.056   9.380  10.921
25946W        W85383  27.013  15.613   3.264
25947W        W85384  16.610  33.933  12.492
25948W        W85385  32.947  44.487   4.643
25949W        W85386   7.334  22.580   1.401
25950W        W85387  39.519  38.441  12.051
25951W        W85388  42.489  29.014  14.951
25952W        W85389  25.601  29.153   3.228
25953W        W85390  27.032  28.940   3.735
25954W        W85391  44.399  34.481   0.840
25955W        W85392   8.380   6.351  10.901
25956W        W85393   3.837  32.546   1.369
25957W        W85394  14.772  31.495  13.994
25958W        W85395   7.675   9.850   3.236
25959W        W85396  26.079  32.939   0.749
25960W        W85397  32.596  40.858  14.960
25961W        W85398  20.573  30.655   0.421
25962W        W85399  35.398  13.679  13.857
25963W        W85400   1.304  42.506  13.518
25964W        W85401  33.947  21.249  13.363
25965W        W85402  35.039  25.146  11.579
25966W        W85403  30.647  30.982  14.329
25967W        W85404  39.930  17.728  13.450
25968W        W85405  23.609   3.379   3.188
25969W        W85406  33.935  24.123   3.634
25970W        W85407  35.958  41.474   2.223
25971W        W85408  10.317   1.834   0.815
25972W        W85409  36.486   7.370   1.929
25973W        W85410  28.666  33.389  11.389
25974W        W85411  20.167  34.032  11.872
25975W        W85412  30.417  18.621  13.873
25976W        W85413  10.316  13.260  12.537
25977W        W85414   4.850  14.145  10.945
25978W        W85415  17.655  34.000   0.760
25979W        W85416  18.603  28.039   0.350
25980W        W85417   1.898  40.803  13.506
25981W        W85418  25.654  28.525  14.378
25982W        W85419  37.007  20.634  14.356
25983W        W85420   7.302  40.330  12.417
25984W        W85421   6.303  16.753   2.234
25985W        W85422  32.959   5.709  11.533
25986W        W85423  42.948   0.445   1.803
25987W        W85424   0.809  20.765  14.833
25988W        W85425  26.174   9.729   0.841
25989W        W85426  19.653   7.821  10.418
25990W        W85427  11.804  39.520   3.741
25991W        W85428  34.959  16.226  13.384
25992W        W85429  23.077  29.647   4.123
25993W        W85430  23.215  38.376   1.752
25994W        W85431  35.060  20.072   4.166
25995W        W85432   3.443   1.396  14.012
25996W        W85433   2.891  27.017   4.249
25997W        W85434   9.710  11.161  10.979
25998W        W85435  23.539   1.441  14.903
25999W        W85436  37.024  35.868  13.921
26000W        W85437  30.133   8.788   1.252
26001W        W85438  26.207  13.204   3.649
26002W        W85439  30.974  38.545   3.233
26003W        W85440  11.344  20.678  14.365
26004W        W85441  29.038  25.545   1.699
26005W        W85442  38.389  32.472   4.329
26006W        W85443  34.874  20.036  12.376
26007W        W85444  32.956   0.448   3.239
26008W        W85445   8.405  31.451   3.666
26009W        W85446   0.835  13.351   1.697
26010W        W85447  19.176   2.720  12.084
26011W        W85448  39.486   9.364   2.399
26012W        W85449  24.480  24.647  14.822
26013W        W85450   2.797   9.280   1.915
26014W        W85451  30.616   7.753  11.490
26015W        W85452  28.027  42.327  11.068
26016W        W85453  39.032   2.308  13.896
26017W        W85454  20.712  38.379  14.515
26018W        W85455  34.984  21.135  11.562
26019W        W85456  20.111  41.506  14.344
26020W        W85457  32.589   3.729   0.353
26021W        W85458   4.839  33.457   4.733
26022W        W85459  30.614  30.614   3.653
26023W        W85460  37.487  44.953  10.410
26024W        W85461  13.320  41.975   4.756
26025W        W85462  20.150  24.036  12.021
26026W        W85463   9.823   3.901   4.750
26027W        W85464  16.218  18.241  14.316
26028W        W85465   4.853  34.106   1.380
26029W        W85466  19.207  19.091   5.263
26030W        W85467  20.060  30.592  13.060
26031W        W85468  33.392  42.818   0.837
26032W        W85469  24.644  19.091  14.400
26033W        W85470  13.187   0.451   3.777
26034W        W85471  16.269  23.227   2.663
26035W        W85472   6.765   7.171   0.251
26036W        W85473  27.665   3.308   4.326
26037W        W85474   7.887  42.987  13.934
26038W        W85475   8.184  19.235  11.562
26039W        W85476   5.927  29.640   0.316
26040W        W85477   2.270  41.994   3.255
26041W        W85478   7.372  25.178  11.606
26042W        W85479  36.555  15.627   0.436
26043W        W85480   8.720  34.429  11.489
26044W        W85481  24.634  23.178  12.996
26045W        W85482  11.809  22.242   2.316
26046W        W85483  21.181  26.201  11.532
26047W        W85484  16.767  40.399  13.989
26048W        W85485  37.511  23.030   2.872
26049W        W85486  25.640  32.617  13.029
26050W        W85487  10.173   2.437  10.140
26051W        W85488  34.603  44.888   3.783
26052W        W85489  24.704  23.051   2.280
26053W        W85490  44.787  22.670   3.249
26054W        W85491  15.709  10.777  10.922
26055W        W85492  21.578  10.302   4.156
26056W        W85493  38.820  11.821   2.680
26057W        W85494  39.425   1.353   2.282
26058W        W85495  41.892  37.862  11.495
26059W        W85496  33.598  37.502   1.757
26060W        W85497   2.853   6.377  11.924
26061W        W85498  44.915  41.890   2.722
26062W        W85499  42.899  27.192  12.499
26063W        W85500  43.965  23.098   1.899
26064W        W85501  32.401  25.658   2.410
26065W        W85502  17.168   3.951  13.468
26066W        W85503  14.153  35.107  12.491
26067W        W85504  15.620  11.357   2.849
26068W        W85505  14.171  23.647  13.057
26069W        W85506  25.106  19.553   3.327
26070W        W85507  32.052  13.238   4.746
26071W        W85508  23.018  43.011   1.895
26072W        W85509  18.215   8.322  12.354
26073W        W85510  42.880  16.077   3.659
26074W        W85511  12.184  38.333  13.797
26075W        W85512  34.512  18.096   0.370
26076W        W85513  42.969  15.156  12.533
26077W        W85514  17.619  23.198  11.487
26078W        W85515  36.385   5.199   2.320
26079W        W85516  36.982   1.819   3.314
26080W        W85517  33.976  13.144   0.839
26081W        W85518  34.436   8.672  14.453
26082W        W85519   3.338  33.620   4.127
26083W        W85520   0.848   2.850  12.525
26084W        W85521  40.954  44.264   1.923
26085W        W85522  44.760  29.538  11.559
26086W        W85523  38.335   4.825  10.459
26087W        W85524  18.749   5.381  13.529
26088W        W85525   6.757   8.861  14.483
26089W        W85526   6.677  37.382  13.501
26090W        W85527  28.572  19.633  10.955
26091W        W85528  29.643  34.909   3.651
26092W        W85529  15.118   9.231  13.441
26093W        W85530  37.014  23.671  12.084
26094W        W85531  41.473  35.065  11.509
26095W        W85532  19.139   8.723  10.902
26096W        W85533  26.205   0.929  13.897
26097W        W85534  27.985  36.907   2.890
26098W        W85535  37.961  42.470  12.914
26099W        W85536  25.166  39.349   2.760
26100W        W85537   2.723   6.859  13.962
26101W        W85538   5.424   8.403  12.034
26102W        W85539   8.235  31.582  11.991
26103W        W85540   1.894  25.613   0.842
26104W        W85541  17.573  36.538   2.721
26105W        W85542   1.782  14.658   5.285
26106W        W85543  26.649   7.858   2.400
26107W        W85544   6.261  17.067  12.946
26108W        W85545  35.994  40.961  13.053
26109W        W85546   7.390  24.503  13.320
26110W        W85547  42.991  18.189   3.658
26111W        W85548  39.916  38.850  11.396
26112W        W85549  28.963   1.868   2.769
26113W        W85550   1.455  29.667  10.969
26114W        W85551   0.945  26.568   2.897
26115W        W85552  25.488  19.634  13.874
26116W        W85553  10.370  19.745  12.987
26117W        W85554  43.921  29.141  12.941
26118W        W85555  25.594   7.417   0.270
26119W        W85556  18.717   7.845  14.030
26120W        W85557  42.932  10.280  14.443
26121W        W85558  17.233  13.798  13.534
26122W        W85559  11.655  17.633   2.792
26123W        W85560   4.281  29.034  11.583
26124W        W85561  13.344   0.882  13.369
26125W        W85562   8.668  10.841  11.604
26126W        W85563  21.713  34.388   0.938
26127W        W85564  38.464  28.047  14.792
26128W        W85565  21.148   1.417   4.706
26129W        W85566   8.855  33.395  13.874
26130W        W85567   0.767  29.604  11.897
26131W        W85568  13.140   9.665  12.044
26132W        W85569  17.563  15.303  13.013
26133W        W85570  39.481  41.444   1.363
26134W        W85571  12.631  38.921   4.604
26135W        W85572  19.155  19.574   2.811
26136W        W85573  13.215  11.838   0.368
26137W        W85574  41.536  39.915  10.616
26138W        W85575   7.282  29.619  10.514
26139W        W85576  42.492  31.981  14.375
26140W        W85577   2.762  25.215  12.459
26141W        W85578  13.302  19.703  11.999
26142W        W85579  28.662  27.959  10.526
26143W        W85580  16.217  23.035   0.820
26144W        W85581  23.535  32.404   4.305
26145W        W85582  14.209  16.308  14.323
26146W        W85583   3.407   6.283   3.158
26147W        W85584   0.929   5.318  11.539
26148W        W85585  41.416   8.326  12.033
26149W        W85586  38.820  27.182   4.838
26150W        W85587  16.260  41.020  14.782
26151W        W85588  33.495  43.483   1.285
26152W        W85589  10.180  30.082  13.914
26153W        W85590   3.306  39.482  11.387
26154W        W85591  15.697  19.616   5.188
26155W        W85592   6.863  32.985   4.751
26156W        W85593  30.456   4.713  12.975
26157W        W85594  41.026  29.005   1.234
26158W        W85595   3.950  29.459  10.557
26159W        W85596  14.145  38.938   1.427
26160W        W85597  39.053  29.431   1.797
26161W        W85598  19.044   6.683   4.247
26162W        W85599   6.820  29.997   3.698
26163W        W85600  17.734  35.036   1.436
26164W        W85601   5.908  35.915  13.321
26165W        W85602  18.204   8.317  10.527
26166W        W85603  15.145  30.547  10.479
26167W        W85604  14.330   4.393   0.250
26168W        W85605  17.241  11.666  10.894
26169W        W85606  33.562   2.825  12.882
26170W        W85607  13.249  22.610  10.586
26171W        W85608  16.201  39.841   2.342
26172W        W85609  25.064  21.659  11.509
26173W        W85610  15.146  43.947  11.533
26174W        W85611  39.891  40.930  11.027
26175W        W85612  25.469  36.971  11.020
26176W        W85613   7.813  35.383  12.012
26177W        W85614  40.383  17.129   4.273
26178W        W85615  18.545   3.926   4.671
26179W        W85616  19.654  25.507  12.860
26180W        W85617   7.188   2.249  13.475
26181W        W85618  27.602  30.586  11.082
26182W        W85619   8.248  14.640  10.973
26183W        W85620  44.994  15.151   3.189
26184W        W85621  33.549  17.243  13.800
26185W        W85622  32.568  40.490   3.185
26186W        W85623  17.210   5.931  11.549
26187W        W85624   6.778   8.678  10.558
26188W        W85625  12.752  31.567   3.757
26189W        W85626  30.992   1.794   0.733
26190W        W85627   4.837  15.115  10.517
26191W        W85628  21.745  42.978   3.696
26192W        W85629  14.190  17.581  10.967
26193W        W85630  21.608   5.432   3.701
26194W        W85631  24.037   4.349   4.318
26195W        W85632  31.609  36.021  11.516
26196W        W85633  32.037  21.629   2.309
26197W        W85634  16.164  28.442  14.361
26198W        W85635   1.753  15.089  13.346
26199W        W85636  38.339  22.106   4.620
26200W        W85637  15.734  35.096  13.423
26201W        W85638  10.225  11.638  12.023
26202W        W85639  12.793   3.457  12.942
26203W        W85640  26.993  36.011   3.359
26204W        W85641  40.455  12.716   0.378
26205W        W85642  39.887  42.942  12.853
26206W        W85643  30.981  11.692   0.346
26207W        W85644  38.977  42.843  10.039
26208W        W85645  23.133  24.041   4.123
26209W        W85646  33.991   4.733  11.542
26210W        W85647  26.631  26.500   2.806
26211W        W85648  40.802  43.496  12.481
26212W        W85649  34.608  23.201   1.212
26213W        W85650   6.745  20.523  10.578
26214W        W85651  20.274  20.100   0.782
26215W        W85652  18.715   3.894   2.673
26216W        W85653  23.713  32.557   4.769
26217W        W85654  11.353  29.434   3.716
26218W        W85655   3.439  42.355   3.147
26219W        W85656  27.991   5.783  12.979
26220W        W85657   2.398  29.165  13.380
26221W        W85658  39.460  41.937  14.356
26222W        W85659  28.606  25.031   0.863
26223W        W85660  33.454  17.700  11.104
26224W        W85661  39.900  25.668  14.329
26225W        W85662  22.637   0.373   0.417
26226W        W85663  31.506  40.816   4.297
26227W        W85664  17.644   6.694  14.025
26228W        W85665   2.392   8.187   2.706
26229W        W85666   7.406  21.629  14.289
26230W        W85667  23.012  24.645   3.662
26231W        W85668   3.262  10.655   2.722
26232W        W85669  17.611  43.862   4.143
26233W        W85670  22.141  36.553   4.792
26234W        W85671  11.664  13.647   3.798
26235W        W85672  42.956  43.347   4.698
26236W        W85673  34.523  35.957  12.451
26237W        W85674  18.694   3.804   0.927
26238W        W85675  38.351  12.175  11.594
26239W        W85676  34.574  32.919  11.575
26240W        W85677  14.135  19.170  13.312
26241W        W85678  34.885  23.017  14.451
26242W        W85679  36.432  42.388  13.924
26243W        W85680  42.468   6.387  11.087
26244W        W85681  14.831  27.574  11.414
26245W        W85682  13.196  21.190   0.460
26246W        W85683   5.859  42.910  13.507
26247W        W85684  11.785  26.005   2.821
26248W        W85685  41.019  20.692   4.670
26249W        W85686  27.544   4.434   0.371
26250W        W85687  13.167   0.859  10.980
26251W        W85688  29.590  33.514   0.433
26252W        W85689   0.363   5.231   4.239
26253W        W85690  10.778   0.476  13.325
26254W        W85691   4.247  28.610   0.752
26255W        W85692  23.061  29.504   3.283
26256W        W85693  32.497   9.852   2.835
26257W        W85694  39.926  22.547   1.815
26258W        W85695  18.593  37.057  14.916
26259W        W85696  12.359  39.350  12.937
26260W        W85697  33.889  13.792   2.766
26261W        W85698  35.852   4.381   4.193
26262W        W85699  18.715  19.228   2.347
26263W        W85700  40.474   8.696   0.369
26264W        W85701  40.492   0.494   0.478
26265W        W85702   1.317   0.369   3.293
26266W        W85703  13.665  20.157   1.335
26267W        W85704  44.290   1.786   1.436
26268W        W85705  26.625  39.037  10.898
26269W        W85706   0.357   4.821   3.332
26270W        W85707   4.845   8.668  12.568
26271W        W85708  20.115  20.178   4.800
26272W        W85709  31.405  22.655   1.919
26273W        W85710  36.581  44.416  13.492
26274W        W85711  40.993  41.346  10.957
26275W        W85712  24.179   8.334   1.213
26276W        W85713   7.859  42.377  11.054
26277W        W85714  43.496  41.443  14.984
26278W        W85715  23.170  22.177   0.800
26279W        W85716  36.447  41.392  12.340
26280W        W85717  14.786  34.975   1.213
26281W        W85718  25.131  21.137  10.620
26282W        W85719  43.311  39.349   3.840
26283W        W85720  15.637   8.282  14.364
26284W        W85721  17.267  42.377   0.323
26285W        W85722  26.094  31.445  10.558
26286W        W85723  19.099  31.632   1.746
26287W        W85724  15.131  41.790   2.753
26288W        W85725  44.276   1.873  13.404
26289W        W85726  41.321   3.271   4.152
26290W        W85727   4.235  19.597  14.885
26291W        W85728   1.746  28.024  11.388
26292W        W85729  36.456  28.944   0.812
26293W        W85730   7.866   0.796  10.131
26294W        W85731   6.248  38.325   2.862
26295W        W85732  13.647  36.042  11.557
26296W        W85733  17.768  43.357   3.698
26297W        W85734  19.734  32.531  12.997
26298W        W85735  21.614  40.414   4.125
26299W        W85736   5.831  11.231  12.475
26300W        W85737   3.362  11.351  14.870
26301W        W85738  24.190  32.112  13.893
26302W        W85739  40.873  36.955  10.967
26303W        W85740  11.307   3.924  12.348
26304W        W85741  43.401  32.991   0.414
26305W        W85742   7.230  42.889  12.450
26306W        W85743   0.802   5.933   4.713
26307W        W85744  38.888  40.986   1.758
26308W        W85745  39.371   2.242   2.379
26309W        W85746  25.648  41.473  14.797
26310W        W85747   8.774   9.385   0.948
26311W        W85748  39.462  42.491   2.294
26312W        W85749  17.801  36.960  12.934
26313W        W85750  10.716  22.229   2.719
26314W        W85751  11.801  18.689  13.062
26315W        W85752  10.258  32.889   2.866
26316W        W85753  26.478   4.448  13.455
26317W        W85754  30.543   7.873   0.882
26318W        W85755  36.395  12.750   0.770
26319W        W85756   0.912  17.722  11.126
26320W        W85757  15.822  40.983  12.920
26321W        W85758   1.467   3.787  11.442
26322W        W85759   4.230  44.273  13.487
26323W        W85760   6.853   7.298  14.791
26324W        W85761  43.419  32.946   3.751
26325W        W85762  13.623  28.038   1.426
26326W        W85763  25.022  10.214   4.268
26327W        W85764  12.260  13.738   1.830
26328W        W85765  13.773  40.414   0.382
26329W        W85766   8.758  20.528  13.793
26330W        W85767  21.160  18.553   1.768
26331W        W85768  43.478  23.067  14.799
26332W        W85769   6.379  24.627  10.452
26333W        W85770  20.086   6.839   1.765
26334W        W85771  30.064  29.058  12.543
26335W        W85772   7.810   6.397   4.704
26336W        W85773  24.192  11.264   3.640
26337W        W85774  15.709  12.632   9.953
26338W        W85775   6.306   0.987   3.817
26339W        W85776  21.048   2.414  11.069
26340W        W85777   9.697  32.964   2.356
26341W        W85778   9.180  24.663  12.406
26342W        W85779  39.873  17.297  10.998
26343W        W85780  15.254  15.758  11.116
26344W        W85781  44.490   3.234   4.734
26345W        W85782  38.488   4.385  14.427
26346W        W85783  43.501  33.934   3.685
26347W        W85784   9.841  21.707   0.828
26348W        W85785  22.725  27.108  12.016
26349W        W85786  32.550  18.247  12.404
26350W        W85787   4.208  30.982   2.399
26351W        W85788  33.605  44.846   4.725
26352W        W85789   5.766   9.370   3.165
26353W        W85790  20.125  18.241   5.185
26354W        W85791  43.846  25.081  12.502
26355W        W85792  35.950  21.256  12.374
26356W        W85793  34.389   6.394  12.491
26357W        W85794  29.966  35.542  10.410
26358W        W85795  31.966  43.012  14.860
26359W        W85796  27.494  41.955  10.992
26360W        W85797  26.559  27.109   3.784
26361W        W85798  33.411  41.802  10.061
26362W        W85799  41.807  20.533  12.840
26363W        W85800  31.962  19.602  13.007
26364W        W85801  40.806  44.844   2.685
26365W        W85802   3.303  29.944   2.223
26366W        W85803  34.990  30.414  11.129
26367W        W85804  11.692  21.733  12.552
26368W        W85805   1.242  25.069  13.440
26369W        W85806   6.257  36.566  10.151
26370W        W85807  25.669   7.778  11.602
26371W        W85808  41.995   5.289  14.472
26372W        W85809  10.284   2.235   0.416
26373W        W85810  39.366   8.349   2.271
26374W        W85811  23.505  32.048  13.064
26375W        W85812  12.247   1.951   3.334
26376W        W85813   4.330  39.030  11.584
26377W        W85814   2.731  41.387   0.435
26378W        W85815   8.226   5.205  14.411
26379W        W85816  38.039  37.575   4.801
26380W        W85817  37.424  27.142   0.407
26381W        W85818  19.109   3.255  14.916
26382W        W85819  40.469  22.637  14.489
26383W        W85820  21.662  44.414  14.482
26384W        W85821  37.059   0.293   1.738
26385W        W85822  19.162  34.072   1.730
26386W        W85823   5.376   7.203  12.074
26387W        W85824  34.972  22.718  13.348
26388W        W85825  23.702  31.086  12.483
26389W        W85826  33.569  21.710  10.487
26390W        W85827  34.011  13.186  12.530
26391W        W85828   9.725  38.933  14.794
26392W        W85829   0.802  36.877   0.792
26393W        W85830   1.957  33.986  12.833
26394W        W85831  29.643  42.801   2.331
26395W        W85832  38.868  25.583   2.359
26396W        W85833  17.140  39.922   2.765
26397W        W85834  16.632  13.686   2.410
26398W        W85835  21.075  33.985  14.373
26399W        W85836   7.404  16.229   1.847
26400W        W85837  24.577  35.545   5.179
26401W        W85838   4.889  18.637  14.286
26402W        W85839   1.755  11.258  14.394
26403W        W85840   1.459  17.696   3.855
26404W        W85841  39.397  41.340  10.972
26405W        W85842  17.617  38.527  14.501
26406W        W85843  42.872  28.561   4.148
26407W        W85844  26.136  25.196  10.556
26408W        W85845   8.368  10.270   1.383
26409W        W85846  21.223   1.239   0.331
26410W        W85847  26.154  12.807   4.237
26411W        W85848  11.143  35.552   3.656
26412W        W85849  30.454  40.407   4.193
26413W        W85850  11.220  20.208   1.238
26414W        W85851  25.577  43.270   5.677
26415W        W85852   1.731   4.402   4.320
26416W        W85853  17.744  16.106   0.802
26417W        W85854  31.492   7.354  14.384
26418W        W85855  43.967  34.407   2.328
26419W        W85856  17.653  44.464   0.818
26420W        W85857  37.986  35.959   0.474
26421W        W85858  20.243  32.946   3.202
26422W        W85859  11.130  17.101   2.847
26423W        W85860  15.756  24.122  13.979
26424W        W85861  21.046  16.644   3.787
26425W        W85862  14.175   7.700  12.409
26426W        W85863  18.598  13.750   3.722
26427W        W85864  29.613  33.624  11.900
26428W        W85865  13.153  28.063   1.342
26429W        W85866  22.193  40.496  10.911
26430W        W85867  42.437   2.950  12.385
26431W        W85868  18.242  11.826  12.918
26432W        W85869  27.051  21.570   1.889
26433W        W85870   9.702  29.633  13.480
26434W        W85871  40.874  15.108   2.287
26435W        W85872  43.773  40.304   2.341
26436W        W85873   9.356  32.409   1.811
26437W        W85874  34.948   5.886  10.570
26438W        W85875  27.520  24.989  11.085
26439W        W85876  16.183  19.565   4.336
26440W        W85877   3.461  31.029  10.592
26441W        W85878  34.560  34.928   3.351
26442W        W85879  35.417  26.570  12.865
26443W        W85880  44.900  37.028   0.260
26444W        W85881  40.352  20.083  13.481
26445W        W85882  37.079  39.400  13.992
26446W        W85883  43.770  22.547   2.702
26447W        W85884  34.402  30.568  12.058
26448W        W85885  44.313  18.768  11.945
26449W        W85886   0.977  20.108   3.666
26450W        W85887  23.587  43.425   0.869
26451W        W85888  19.251  33.919  13.883
26452W        W85889  29.118   8.300   4.718
26453W        W85890   5.284  27.545   3.648
26454W        W85891  18.564  36.521   2.191
26455W        W85892  13.607  42.785   3.255
26456W        W85893  35.035   4.867   1.852
26457W        W85894   9.167   1.456  14.478
26458W        W85895  43.343  15.820  10.999
26459W        W85896  21.697  35.501   3.804
26460W        W85897  30.018  26.036  13.971
26461W        W85898  27.946  33.929   2.351
26462W        W85899  18.205  31.134   3.195
26463W        W85900  19.156  17.589   5.197
26464W        W85901  13.808   8.246   2.803
26465W        W85902   8.358  23.236  12.558
26466W        W85903  16.268  23.211   1.252
26467W        W85904   9.875  14.246   0.277
26468W        W85905   1.407   8.202  11.412
26469W        W85906  14.265  25.121   3.220
26470W        W85907  30.009  30.488  11.613
26471W        W85908   3.427  21.700   3.823
26472W        W85909   6.712  10.167   4.811
26473W        W85910  16.647  44.841  10.146
26474W        W85911   5.890  12.188  12.898
26475W        W85912  26.171  26.482  14.859
26476W        W85913  11.227  28.089   3.264
26477W        W85914  32.595   9.844   4.633
26478W        W85915  16.671  43.516   2.783
26479W        W85916   4.324   9.156  13.050
26480W        W85917   8.803  23.711   4.618
26481W        W85918  42.459  34.506  12.423
26482W        W85919  11.685  22.193   0.460
26483W        W85920  41.529  27.176   3.736
26484W        W85921  36.479  27.129   4.637
26485W        W85922   6.206  17.092   0.454
26486W        W85923   0.837   5.860   4.141
26487W        W85924  30.416  25.503   2.393
26488W        W85925   1.381  27.177  12.393
26489W        W85926   2.944   4.304  12.531
26490W        W85927  27.014  26.485  14.952
26491W        W85928  22.170  16.690   1.896
26492W        W85929  37.354  29.069   0.876
26493W        W85930   7.851  33.396  12.017
26494W        W85931  11.355  31.000  11.494
26495W        W85932  30.500  16.219   0.809
26496W        W85933  35.930   1.304   4.159
26497W        W85934  29.081   3.737   2.417
26498W        W85935   5.301  16.117   1.717
26499W        W85936  23.098   4.230  12.356
26500W        W85937  20.130  34.868   1.735
26501W        W85938  34.048  35.994   0.423
26502W        W85939  16.661  35.101   3.810
26503W        W85940   4.293  16.651  11.865
26504W        W85941  38.538   0.385   3.309
26505W        W85942  13.645  23.126  13.823
26506W        W85943  27.625   8.868   0.835
26507W        W85944  35.874  19.175  11.868
26508W        W85945  25.684  10.317   2.253
26509W        W85946  34.412   9.299  13.805
26510W        W85947  18.228   2.395   0.771
26511W        W85948   5.900  28.559   0.392
26512W        W85949   7.362  29.107   1.304
26513W        W85950  37.925   6.680   4.805
26514W        W85951  38.925  25.687  14.450
26515W        W85952  18.231  11.168  10.991
26516W        W85953  34.065  20.703  13.832
26517W        W85954  25.201  14.809  12.496
26518W        W85955  37.400  22.522  11.389
26519W        W85956  25.651  43.464   4.611
26520W        W85957   7.888  12.353   1.397
26521W        W85958  18.705  25.510   0.893
26522W        W85959  20.249  42.377   1.311
26523W        W85960   2.873  20.133  14.939
26524W        W85961   5.706  33.075  12.045
26525W        W85962   2.273   7.358   3.800
26526W        W85963  33.525  25.139  13.321
26527W        W85964  15.103   2.803   1.384
26528W        W85965  15.688  43.971   0.432
26529W        W85966  36.882  11.286   0.429
26530W        W85967  21.704  25.037   0.817
26531W        W85968   3.235   6.194   3.778
26532W        W85969  25.962  16.594   0.850
26533W        W85970  10.812  20.674  14.812
26534W        W85971   1.882  16.094   2.723
26535W        W85972  33.913   1.476  14.310
26536W        W85973   8.803   4.750   3.231
26537W        W85974  31.047  20.130  13.013
26538W        W85975   9.702  19.215   0.384
26539W        W85976  31.483  13.609   4.683
26540W        W85977  23.518  42.341   0.932
26541W        W85978   4.720  31.574  14.481
26542W        W85979  43.877  34.917   2.357
26543W        W85980  38.002  25.165  12.944
26544W        W85981   5.296  31.529  10.406
26545W        W85982  11.170   9.793   4.243
26546W        W85983  28.625  22.644  13.864
26547W        W85984  23.130  42.901  13.858
26548W        W85985  38.414  38.922   3.694
26549W        W85986  30.957  30.506  11.382
26550W        W85987  20.201   9.260  14.473
26551W        W85988  44.929  42.369  14.898
26552W        W85989  16.758  28.073   4.263
26553W        W85990  23.528   4.825  14.385
26554W        W85991  32.439  32.095  12.945
26555W        W85992   9.207   3.277  12.882
26556W        W85993  43.510  26.582   9.927
26557W        W85994  20.635  21.746   2.343
26558W        W85995  11.200  15.724   2.754
26559W        W85996  42.028   2.325  14.935
26560W        W85997  18.568  31.622  11.935
26561W        W85998   3.362  38.382  11.397
26562W        W85999  23.163  11.252  13.965
26563W        W86000  33.937  43.937   3.709
26564W        W86001  30.525  33.417  10.571
26565W        W86002   9.805  33.071  14.969
26566W        W86003   6.743  44.495  13.815
26567W        W86004  16.761   0.910   1.834
26568W        W86005   2.871  40.054   2.779
26569W        W86006   4.739  14.121  13.908
26570W        W86007  39.856  34.929   4.725
26571W        W86008   9.779  32.889  11.480
26572W        W86009  33.417  11.676   5.229
26573W        W86010  21.624  19.280   4.817
26574W        W86011   8.736  40.049   3.177
26575W        W86012  29.165   7.210   3.754
26576W        W86013  27.965  11.296   1.793
26577W        W86014   6.300  38.014  11.382
26578W        W86015  39.501  21.034   0.728
26579W        W86016  13.244  14.745  12.492
26580W        W86017  37.409  15.091   2.861
26581W        W86018  16.116  23.497  12.360
26582W        W86019  41.865  38.477  13.470
26583W        W86020   0.801  10.164   5.175
26584W        W86021  11.221  26.064  10.463
26585W        W86022  23.189  11.192  14.294
26586W        W86023  32.977  26.645  11.426
26587W        W86024  43.836   2.390   0.756
26588W        W86025  27.119  41.364  11.026
26589W        W86026   1.462  19.666  14.338
26590W        W86027  14.339  33.447   2.709
26591W        W86028   1.374  36.851  10.141
26592W        W86029   4.723  44.448   1.419
26593W        W86030  27.164  15.602  11.920
26594W        W86031  26.011  18.706  12.824
26595W        W86032   5.252  36.370  11.416
26596W        W86033  44.969  27.562  14.031
26597W        W86034   6.258  13.701   0.787
26598W        W86035   1.453   8.183   2.716
26599W        W86036  16.211   5.319   2.725
26600W        W86037  43.995  11.160  12.390
26601W        W86038  34.502  20.045   2.396
26602W        W86039  40.988   6.912   4.299
26603W        W86040  23.643  29.084   4.216
26604W        W86041  42.357  37.492  12.045
26605W        W86042  24.100  22.707  12.342
26606W        W86043   9.767  25.675   1.264
26607W        W86044  36.525  11.351  14.914
26608W        W86045  20.153  41.801   4.836
26609W        W86046  22.137  19.189   4.624
26610W        W86047   4.942   0.370  13.509
26611W        W86048  10.737   5.902   2.695
26612W        W86049  33.411  20.048   1.758
26613W        W86050  44.495   6.360  10.939
26614W        W86051   0.315   8.314  11.458
26615W        W86052  32.138  27.961  13.022
26616W        W86053   3.267   0.926  12.533
26617W        W86054  30.595  18.223  11.499
26618W        W86055   0.857  29.583   4.167
26619W        W86056  40.523  43.822   0.965
26620W        W86057  23.052   3.849  13.468
26621W        W86058  38.378  22.676   1.931
26622W        W86059   5.410  37.572  10.991
26623W        W86060  34.407  30.034  11.568
26624W        W86061  42.988  32.585  14.297
26625W        W86062  29.572  12.133   2.878
26626W        W86063  24.174  27.047   0.365
26627W        W86064  23.523  39.815  11.899
26628W        W86065  39.822   7.250   2.309
26629W        W86066  26.574   3.432   4.137
26630W        W86067  28.054   6.309   3.342
26631W        W86068  18.050  15.246   1.299
26632W        W86069  27.123   1.864   1.338
26633W        W86070  13.123  36.563  11.044
26634W        W86071  30.116  27.643   9.490
26635W        W86072  25.493  34.976   3.233
26636W        W86073  24.639  24.073   0.369
26637W        W86074  34.502  25.668   2.782
26638W        W86075  23.702  41.334  14.284
26639W        W86076   6.750   4.291  12.947
26640W        W86077  13.309   2.350  14.464
26641W        W86078   2.352   7.220  14.478
26642W        W86079  12.220  27.964  14.318
26643W        W86080  10.783   7.359   1.265
26644W        W86081  27.508  17.727  13.028
26645W        W86082  10.703  10.702   1.701
26646W        W86083   2.416   0.434   1.898
26647W        W86084  32.999  29.056  11.609
26648W        W86085  40.327  19.207   1.893
26649W        W86086  12.196  33.547  11.511
26650W        W86087  22.530  30.013  10.098
26651W        W86088  13.663   7.295  14.904
26652W        W86089  14.594  26.954   4.120
26653W        W86090  11.671   4.706   1.212
26654W        W86091   6.734  33.570  12.057
26655W        W86092  35.993  30.109   2.797
26656W        W86093  24.700  37.371   3.338
26657W        W86094  17.107  18.117  13.363
26658W        W86095  40.839  25.087  12.017
26659W        W86096   5.269  40.913   3.250
26660W        W86097   4.327  19.620   1.422
26661W        W86098  31.085  28.136   2.869
26662W        W86099  15.097  11.129  13.360
26663W        W86100  33.617   3.248   1.231
26664W        W86101  36.966  36.989   2.409
26665W        W86102  30.555   9.805   3.853
26666W        W86103  22.588  11.729  13.860
26667W        W86104  29.650   5.908   3.669
26668W        W86105  21.064  30.008   1.301
26669W        W86106  36.428  17.734  14.958
26670W        W86107  32.991  14.761   4.190
26671W        W86108  17.272  15.206   2.899
26672W        W86109  12.273  38.339   4.710
26673W        W86110  40.799  10.680   0.805
26674W        W86111  43.015   7.723  11.965
26675W        W86112  42.842   0.403   2.280
26676W        W86113   9.885  23.210   0.284
26677W        W86114  41.329  36.542  11.908
26678W        W86115  40.512  21.088  12.359
26679W        W86116   0.473  36.426   3.183
26680W        W86117  24.721  44.817   1.287
26681W        W86118   2.419  43.499  13.921
26682W        W86119  33.023   5.415  13.384
26683W        W86120   8.803   6.693  14.453
26684W        W86121  26.570  17.193  13.506
26685W        W86122  34.967   7.244   0.742
26686W        W86123  40.531  11.326  10.920
26687W        W86124  15.783  43.810  13.461
26688W        W86125  43.815   4.737  13.486
26689W        W86126  33.553  10.218  12.488
26690W        W86127  28.148  25.160   3.319
26691W        W86128  31.115  34.549   2.274
26692W        W86129  35.971  11.264  14.854
26693W        W86130  31.981   1.413  12.847
26694W        W86131  40.830  22.201  14.945
26695W        W86132  42.809  17.196  13.923
26696W        W86133   9.752   0.390  14.809
26697W        W86134  39.488  25.043  13.454
26698W        W86135  21.715  13.166   2.760
26699W        W86136   1.877   2.408   1.898
26700W        W86137  17.774  34.450  12.413
26701W        W86138  37.551  38.029  11.459
26702W        W86139  27.589   7.345   1.836
26703W        W86140   1.760   8.285   4.727
26704W        W86141   5.232  34.925   0.877
26705W        W86142  11.627  24.024  14.436
26706W        W86143  36.476  28.133  14.399
26707W        W86144   6.295  28.651   2.229
26708W        W86145  33.459  29.976   2.294
26709W        W86146  25.554  19.711   0.297
26710W        W86147  10.705   6.680   2.202
26711W        W86148  20.673   7.294   1.840
26712W        W86149  32.392  40.995   1.230
26713W        W86150  22.120  28.496  11.019
26714W        W86151  38.007  23.720  13.381
26715W        W86152  35.045  44.771  10.888
26716W        W86153   8.889  27.051  13.020
26717W        W86154  21.537  39.364  14.503
26718W        W86155   7.684  21.236   0.732
26719W        W86156  25.529  27.499   4.254
26720W        W86157  10.322  24.693  10.466
26721W        W86158  25.985  36.488   4.650
26722W        W86159   7.332  19.696  12.053
26723W        W86160   3.308  14.234  13.515
26724W        W86161  10.157  28.055  12.500
26725W        W86162  21.194  36.018   4.766
26726W        W86163  15.760  17.702   0.258
26727W        W86164  33.991  42.859   4.223
26728W        W86165  15.657   9.868  10.984
26729W        W86166  15.657  26.023  11.504
26730W        W86167   7.233   9.882  13.524
26731W        W86168   6.346  34.048  14.390
26732W        W86169  26.085  18.267  11.874
26733W        W86170  11.705  23.006  11.858
26734W        W86171   9.701  42.830  13.941
26735W        W86172  19.231  23.151   1.923
26736W        W86173  11.644  21.563   3.799
26737W        W86174   7.245  14.771  12.562
26738W        W86175  28.675   1.346  13.321
26739W        W86176  39.535  16.773  10.903
26740W        W86177   9.826   5.714   2.689
26741W        W86178  25.668  13.764  14.021
26742W        W86179  27.992  14.294   2.805
26743W        W86180  12.320  10.644   0.874
26744W        W86181  36.577   8.866   1.843
26745W        W86182  25.671   8.741   4.197
26746W        W86183  20.602   5.848   3.636
26747W        W86184  27.496   7.370  13.365
26748W        W86185  15.686  21.099   1.926
26749W        W86186  35.393  16.111   4.243
26750W        W86187  12.141  26.151   0.446
26751W        W86188   4.232  22.130  12.869
26752W        W86189  33.999  33.909  13.360
26753W        W86190  33.563   8.245  11.513
26754W        W86191  28.084  17.769   3.844
26755W        W86192   4.882   3.875  13.394
26756W        W86193   5.235  31.420   4.606
26757W        W86194  21.572  35.003  10.923
26758W        W86195  11.233  30.933   0.744
26759W        W86196   8.269  44.491   2.394
26760W        W86197  11.206  16.103  14.840
26761W        W86198  39.534  29.577  11.530
26762W        W86199  18.112   1.910   1.740
26763W        W86200  42.513  41.949   2.830
26764W        W86201   1.780  15.219   1.317
26765W        W86202  22.136  43.809   4.723
26766W        W86203  18.114  10.160   0.410
26767W        W86204  41.967  11.809   1.322
26768W        W86205  13.171   3.789  12.538
26769W        W86206  22.704  15.805  10.492
26770W        W86207  28.492   2.890  14.929
26771W        W86208  24.480  24.150   3.763
26772W        W86209  26.574  43.965  11.053
26773W        W86210  19.773  20.201   0.876
26774W        W86211  14.716  15.268   2.198
26775W        W86212  38.426  44.493   0.963
26776W        W86213  37.400  23.564   1.215
26777W        W86214   5.737  13.609   1.768
26778W        W86215  20.181   5.804   4.709
26779W        W86216  15.232   3.447   0.916
26780W        W86217   2.232  40.408  14.858
26781W        W86218  44.886   1.948   3.738
26782W        W86219  30.974  24.221  13.322
26783W        W86220   6.206   6.219   3.860
26784W        W86221  39.988  16.602   3.799
26785W        W86222  21.030  20.077  14.469
26786W        W86223   5.782   3.953   3.162
26787W        W86224  14.787  40.805  11.607
26788W        W86225   8.748   0.887   3.213
26789W        W86226   5.710  41.293   3.376
26790W        W86227  13.168   0.788   1.298
26791W        W86228  41.360  37.974   1.809
26792W        W86229   9.872  18.788   0.869
26793W        W86230  20.646  17.758  12.845
26794W        W86231   5.854  23.673  14.454
26795W        W86232  34.047  39.817  12.420
26796W        W86233  35.534  43.360  14.928
26797W        W86234  41.822  32.061   5.116
26798W        W86235  30.539  13.225   2.832
26799W        W86236  30.959  26.598   1.294
26800W        W86237  17.171  18.053   2.340
26801W        W86238   9.866   6.780  14.917
26802W        W86239   9.811   9.336   3.672
26803W        W86240  25.037   6.802  10.619
26804W        W86241   8.262  35.995   1.924
26805W        W86242  36.413  36.896   4.639
26806W        W86243   6.730  10.793   2.688
26807W        W86244  20.232  19.045   9.972
26808W        W86245   5.701  43.410  13.311
26809W        W86246  40.042  29.441  12.863
26810W        W86247   5.892  22.516  12.831
26811W        W86248  27.130  22.642  14.823
26812W        W86249   2.902  26.082  10.157
26813W        W86250  31.985   0.778  11.430
26814W        W86251  29.105   9.156   2.857
26815W        W86252  37.558  28.946   3.836
26816W        W86253  34.877  21.628   4.603
26817W        W86254  42.511  11.128   2.304
26818W        W86255   3.745   2.725   4.207
26819W        W86256   9.839  29.436   3.281
26820W        W86257  15.092  39.356  14.008
26821W        W86258  39.976  19.157   4.348
26822W        W86259  19.053  35.892  12.442
26823W        W86260  13.801  41.913   4.180
26824W        W86261  21.170  18.645   0.278
26825W        W86262  36.378  16.201   2.701
26826W        W86263  15.670  21.180  12.850
26827W        W86264  23.688  43.978   2.766
26828W        W86265   1.317  38.840  14.936
26829W        W86266  29.655  18.611   2.410
26830W        W86267  25.630  40.834   1.370
26831W        W86268  16.624  30.653  11.032
26832W        W86269   4.440  35.984   0.372
26833W        W86270  10.338   4.734  10.600
26834W        W86271   1.272  18.591  14.418
26835W        W86272  33.952  30.524   2.415
26836W        W86273   5.321  32.116   1.839
26837W        W86274  19.245  32.440  14.325
26838W        W86275  20.768   7.329   2.705
26839W        W86276  14.598  12.736  10.442
26840W        W86277   4.257  17.097  13.474
26841W        W86278  16.269  43.433  14.404
26842W        W86279  11.828  13.275   4.192
26843W        W86280  27.596  15.283   0.757
26844W        W86281   1.296  39.812   1.815
26845W        W86282  10.872   6.756  14.766
26846W        W86283  39.326  11.681   0.939
26847W        W86284  12.769  28.566   2.217
26848W        W86285  29.985  35.098  13.434
26849W        W86286  41.357  35.377  10.581
26850W        W86287  24.572  30.560   1.435
26851W        W86288  32.481  37.453   2.870
26852W        W86289   5.215  17.612  14.888
26853W        W86290  36.980   1.327   4.641
26854W        W86291   8.818  12.256  13.045
26855W        W86292   7.673   0.262   4.695
26856W        W86293  43.826  10.649  11.587
26857W        W86294   4.444  21.166   1.908
26858W        W86295  42.357   3.892   4.333
26859W        W86296  13.242  43.951  12.039
26860W        W86297  28.611  44.421   1.855
26861W        W86298  15.581  44.815   3.327
26862W        W86299  34.528  13.148  12.353
26863W        W86300  24.643  30.651   1.896
26864W        W86301  38.072  29.982  13.825
26865W        W86302  29.458  24.629   4.792
26866W        W86303  35.468  11.307  11.553
26867W        W86304  13.109   0.307  12.991
26868W        W86305  42.482  35.579  10.423
26869W        W86306  11.677  13.649   2.364
26870W        W86307   8.702  41.973   4.180
26871W        W86308  34.410  16.248   0.444
26872W        W86309   8.791  14.256   4.259
26873W        W86310   8.706  22.698   1.338
26874W        W86311  35.410   9.271   2.212
26875W        W86312   4.718  23.541   0.459
26876W        W86313  11.811  22.618  14.514
26877W        W86314  39.396  34.408  13.539
26878W        W86315   2.841  36.357   3.332
26879W        W86316  11.648   7.711  12.053
26880W        W86317  26.552  26.482   5.085
26881W        W86318  41.943  11.851   2.251
26882W        W86319  39.941  32.409  12.473
26883W        W86320  33.948  44.435  11.112
26884W        W86321  41.427  29.509   4.334
26885W        W86322   5.419  25.148   0.339
26886W        W86323  31.977  27.682  10.989
26887W        W86324   5.808  21.564   0.796
26888W        W86325   4.729  42.940  12.044
26889W        W86326   2.342  19.548   2.783
26890W        W86327  17.661  39.014  13.309
26891W        W86328  29.005   5.340  12.879
26892W        W86329  42.375  41.460  10.903
26893W        W86330   0.253  21.149   4.353
26894W        W86331  37.444  16.783   1.263
26895W        W86332   7.729  31.088   1.922
26896W        W86333   0.290  11.365  13.880
26897W        W86334  42.328  12.206  12.053
26898W        W86335  26.625  25.994  13.886
26899W        W86336  11.239   3.336  13.496
26900W        W86337   7.184  12.149   3.284
26901W        W86338  43.289  18.295  14.299
26902W        W86339  39.374  17.121   1.836
26903W        W86340  11.308  27.610   4.752
26904W        W86341  32.592   5.824   4.316
26905W        W86342  36.420  10.756   2.197
26906W        W86343  42.436  16.661  12.869
26907W        W86344  31.958  38.993   0.755
26908W        W86345  13.199  12.835  12.382
26909W        W86346  13.778  42.863  11.599
26910W        W86347  21.543   7.315  12.921
26911W        W86348  34.433  22.710  11.120
26912W        W86349  17.233  15.085  12.095
26913W        W86350  40.983  40.982  13.334
26914W        W86351  38.475  23.685   3.178
26915W        W86352  32.944  21.525   1.890
26916W        W86353  43.491   0.433  12.573
26917W        W86354  12.807  16.108  14.283
26918W        W86355  10.275  44.316  14.960
26919W        W86356  26.677   2.948  13.826
26920W        W86357   9.756  11.742   1.802
26921W        W86358  44.820  21.256   9.920
26922W        W86359  17.746  36.881   4.706
26923W        W86360  41.438   1.825  14.471
26924W        W86361   6.906  10.797   0.856
26925W        W86362  33.381  15.175   0.759
26926W        W86363  34.066   3.928   0.343
26927W        W86364   3.343  19.108  10.639
26928W        W86365  25.171  22.568   1.377
26929W        W86366  11.299  41.955   2.409
26930W        W86367   1.401  25.182   3.717
26931W        W86368  22.146  10.833  12.916
26932W        W86369  27.611  20.584  13.849
26933W        W86370  35.529  22.517  10.474
26934W        W86371  43.340  44.279   2.394
26935W        W86372  34.925  37.968   1.807
26936W        W86373  11.781   6.320  12.482
26937W        W86374  39.381  39.447   1.807
26938W        W86375   8.760   6.384  13.375
26939W        W86376   9.230  23.601  12.978
26940W        W86377  14.779  35.518   1.923
26941W        W86378  23.657   2.757   3.352
26942W        W86379  14.306  27.146  13.048
26943W        W86380  37.505  26.479   4.689
26944W        W86381  29.967  13.785  14.837
26945W        W86382  33.393  15.751   1.257
26946W        W86383  13.270  33.390  14.350
26947W        W86384   4.365   1.960  13.007
26948W        W86385  41.310  41.513  12.953
26949W        W86386   9.728   2.276  14.776
26950W        W86387  44.330  37.063   5.159
26951W        W86388  43.918   2.725  13.381
26952W        W86389  42.799   2.775  14.831
26953W        W86390  20.122  44.985   0.466
26954W        W86391  42.921  27.538  12.066
26955W        W86392   7.730  25.053   0.756
26956W        W86393   3.806  43.511  13.794
26957W        W86394  41.838  28.496   1.840
26958W        W86395  31.079  40.956  10.559
26959W        W86396  10.811  29.151  12.007
26960W        W86397  25.590  20.196   4.692
26961W        W86398   3.231  33.026   4.757
26962W        W86399  38.933   0.761   0.918
26963W        W86400  44.886  17.707  11.880
26964W        W86401  25.146  13.149   3.796
26965W        W86402  40.388  13.731  12.869
26966W        W86403  41.980  30.997  10.994
26967W        W86404  41.444   3.285  11.527
26968W        W86405   0.811  17.653   1.264
26969W        W86406   9.319   8.177  13.533
26970W        W86407  41.924  11.637   4.238
26971W        W86408  24.084  39.409  10.107
26972W        W86409  18.549  13.782   5.081
26973W        W86410  12.843  35.934  12.468
26974W        W86411   6.888  33.437  12.855
26975W        W86412   8.675  43.486   0.268
26976W        W86413   6.677   1.832  11.393
26977W        W86414   8.266  29.596  12.481
26978W        W86415  40.866  41.987   2.258
26979W        W86416  34.900  26.985   0.347
26980W        W86417  43.406  12.344  13.802
26981W        W86418  14.269  27.096   1.266
26982W        W86419  36.960  44.320  12.857
26983W        W86420  15.262   2.772   2.302
26984W        W86421  30.457  10.266   9.986
26985W        W86422  21.248   0.377   0.910
26986W        W86423  17.280  19.542   0.403
26987W        W86424  40.512   6.389   4.200
26988W        W86425  24.046  13.654   3.177
26989W        W86426  25.523  38.959  13.344
26990W        W86427   4.914  27.948  12.405
26991W        W86428   8.655  25.652   2.878
26992W        W86429  14.256  11.334   2.709
26993W        W86430  27.674   2.887   0.456
26994W        W86431  33.918  24.126   2.343
26995W        W86432   0.434  22.552  10.594
26996W        W86433   0.455   3.353  14.776
26997W        W86434  41.354   9.666   4.761
26998W        W86435   7.290  38.549  10.637
26999W        W86436  14.339  30.477   0.953
27000W        W86437   8.404  15.783  12.846
27001W        W86438  43.479  12.212   4.242
27002W        W86439  11.643  15.140   1.839
27003W        W86440  32.919   2.455   3.852
27004W        W86441  20.028  21.548   4.651
27005W        W86442  42.945  24.020  11.029
27006W        W86443  31.068   5.218   2.307
27007W        W86444   7.331  26.137   1.724
27008W        W86445   1.758  27.555   3.378
27009W        W86446  25.216  41.867   3.270
27010W        W86447   9.176  22.215  14.440
27011W        W86448  25.990  28.463   4.803
27012W        W86449   8.672  34.966  11.541
27013W        W86450  15.292  37.465  10.505
27014W        W86451  17.231  17.307  13.487
27015W        W86452  31.921  12.635   3.757
27016W        W86453  12.184  27.184  13.421
27017W        W86454  36.411   0.418  12.464
27018W        W86455  26.034  17.061   4.294
27019W        W86456   3.720  36.575   0.836
27020W        W86457  29.023   5.398  11.038
27021W        W86458  23.233  14.726  10.100
27022W        W86459  30.033  32.091  14.986
27023W        W86460  12.655   8.773   0.732
27024W        W86461  22.575  44.890  14.297
27025W        W86462  32.476   1.905  14.853
27026W        W86463  41.326  18.731   1.250
27027W        W86464   6.770   5.757  12.985
27028W        W86465  27.521   4.329   2.832
27029W        W86466  32.537   1.460  11.857
27030W        W86467  31.969  33.107  11.486
27031W        W86468   4.933  33.958   2.795
27032W        W86469  21.698   8.888  11.038
27033W        W86470  26.566  26.688  12.379
27034W        W86471  41.033  40.540  14.860
27035W        W86472  24.483  35.894   3.183
27036W        W86473   0.287  31.048   3.172
27037W        W86474  24.661   4.324  10.450
27038W        W86475  35.015  31.539  14.950
27039W        W86476  16.223   0.311  13.055
27040W        W86477  21.632  30.520   2.795
27041W        W86478  27.970   6.201  12.429
27042W        W86479   4.367  39.959  11.039
27043W        W86480   2.836  30.987  13.022
27044W        W86481  43.503   5.808  13.352
27045W        W86482   9.780  29.658   2.298
27046W        W86483   8.659  35.415  14.848
27047W        W86484  26.031   9.351   2.349
27048W        W86485  41.893  23.062  13.430
27049W        W86486  15.229  40.841  12.069
27050W        W86487   6.775   6.224  12.094
27051W        W86488  41.472  21.742  13.980
27052W        W86489  36.473  34.117  14.027
27053W        W86490  27.074   3.321   2.767
27054W        W86491  27.654  16.159  10.582
27055W        W86492  43.361  39.540  14.382
27056W        W86493  43.936  38.007   1.791
27057W        W86494  11.328  31.065   4.633
27058W        W86495  34.981  24.586   2.387
27059W        W86496  13.604   0.750  12.547
27060W        W86497  43.511  25.075   2.237
27061W        W86498  23.056  43.453  13.960
27062W        W86499  24.014  41.499  13.336
27063W        W86500  14.690  25.667   1.718
27064W        W86501  42.954  26.977  14.418
27065W        W86502  18.080  10.703  13.832
27066W        W86503  38.028  38.521  12.849
27067W        W86504  21.099   2.237  13.401
27068W        W86505  23.988  33.120  10.977
27069W        W86506  39.982   4.782  14.381
27070W        W86507   0.959   8.292   0.967
27071W        W86508   8.228   5.809  12.942
27072W        W86509  23.644   5.335  12.955
27073W        W86510  33.503  21.537   1.354
27074W        W86511  38.828  20.579   1.874
27075W        W86512  20.125  18.635   4.776
27076W        W86513  22.250  34.059  10.432
27077W        W86514  30.059  28.671  12.956
27078W        W86515  27.976   2.948   4.620
27079W        W86516   7.233   1.456   2.257
27080W        W86517  28.624  10.853   4.766
27081W        W86518   2.364  17.231  11.858
27082W        W86519  22.059  41.317  11.927
27083W        W86520  24.601  24.069  11.605
27084W        W86521  44.430  30.497   3.784
27085W        W86522   3.269   9.662  13.909
27086W        W86523  27.146  29.432   4.219
27087W        W86524  34.450   1.458  13.030
27088W        W86525  15.218  13.137  13.429
27089W        W86526  37.575  41.839  13.887
27090W        W86527  42.469  36.350   1.895
27091W        W86528   9.845  35.428   0.935
27092W        W86529  18.679  14.126   2.192
27093W        W86530  23.154  19.104   2.796
27094W        W86531   1.266  20.634   0.287
27095W        W86532   9.746   3.424  11.445
27096W        W86533  26.685  27.134  14.911
27097W        W86534  18.140  22.106   0.937
27098W        W86535  31.557  44.995  12.461
27099W        W86536  37.502   5.221   2.775
27100W        W86537  42.915  41.849  12.476
27101W        W86538  19.634  13.788  14.284
27102W        W86539  12.176  36.433  14.439
27103W        W86540  21.040  34.586  11.538
27104W        W86541   3.216  24.608   0.839
27105W        W86542  38.982  30.070  11.950
27106W        W86543  43.374  13.617   0.398
27107W        W86544  26.662  11.793   3.188
27108W        W86545   1.767  18.596  14.953
27109W        W86546  13.843  35.386   0.789
27110W        W86547  24.533   9.389   3.752
27111W        W86548  32.058  33.960   2.818
27112W        W86549  26.178  39.552  12.026
27113W        W86550  37.950  10.795   0.264
27114W        W86551  38.997  31.595   4.620
27115W        W86552  30.426  36.407   4.669
27116W        W86553  26.965  31.012  12.076
27117W        W86554  24.984  41.534  10.011
27118W        W86555  32.909  24.974  10.966
27119W        W86556  26.087  42.939   2.235
27120W        W86557  16.601   2.272   0.364
27121W        W86558  16.111  26.683  14.769
27122W        W86559  32.016  36.453  10.471
27123W        W86560  42.805  38.007   3.727
27124W        W86561  25.587  39.034  11.030
27125W        W86562   1.403  44.862   0.384
27126W        W86563   9.829  33.532  11.434
27127W        W86564   8.764  22.736   4.223
27128W        W86565  17.186  42.467   1.811
27129W        W86566  35.027  30.004   0.281
27130W        W86567  30.937  16.813   2.380
27131W        W86568  27.556  36.478  12.512
27132W        W86569   5.406   0.362  14.328
27133W        W86570  24.719  43.011  13.979
27134W        W86571  14.126  16.307   1.742
27135W        W86572  14.667  10.829  10.449
27136W        W86573  16.213  13.692   0.358
27137W        W86574  37.495   4.336   3.674
27138W        W86575  20.744  44.881  13.036
27139W        W86576  41.365   6.287   1.319
27140W        W86577  43.827   5.870   0.259
27141W        W86578  16.074   0.792   1.716
27142W        W86579  17.172  25.166  10.629
27143W        W86580  23.115  12.846   0.861
27144W        W86581   7.792   8.279  10.574
27145W        W86582  34.441   0.445   0.878
27146W        W86583   4.726   3.224  10.064
27147W        W86584  20.671  29.053  14.771
27148W        W86585  22.719   8.190  13.951
27149W        W86586   2.371  41.456   3.373
27150W        W86587  27.564  36.090  14.317
27151W        W86588  25.607  36.415  11.037
27152W        W86589   6.198  41.491   2.310
27153W        W86590  34.394  19.636   0.291
27154W        W86591  29.502  30.109   4.275
27155W        W86592   5.429  17.171   4.744
27156W        W86593  43.408  40.378  12.990
27157W        W86594   1.312  16.166   5.733
27158W        W86595  19.257   7.713   3.252
27159W        W86596  19.622  39.901  10.498
27160W        W86597  29.145  19.609   0.445
27161W        W86598  38.369   0.416   0.444
27162W        W86599  17.262   0.781  10.951
27163W        W86600   5.726   3.233  13.791
27164W        W86601  15.204  35.445  10.464
27165W        W86602  20.536  27.160   2.668
27166W        W86603  43.859  44.821   3.655
27167W        W86604  13.152  23.048   3.299
27168W        W86605  24.681  13.315   4.620
27169W        W86606   3.381  21.521  10.504
27170W        W86607  10.687   8.391  14.367
27171W        W86608  42.994  33.585   5.160
27172W        W86609  32.505  19.776   2.221
27173W        W86610   0.863  10.638  12.944
27174W        W86611   6.339  11.698   2.802
27175W        W86612  16.614  22.586  14.805
27176W        W86613  39.003  15.609  14.488
27177W        W86614  24.641   3.265   2.187
27178W        W86615   7.910   6.237   0.401
27179W        W86616  34.104  17.732   3.294
27180W        W86617  33.406  24.086   0.836
27181W        W86618  18.109   4.816   2.360
27182W        W86619   4.885  31.992  14.295
27183W        W86620  21.239  12.189   3.297
27184W        W86621  11.782   7.893   0.812
27185W        W86622  17.074  12.744   4.698
27186W        W86623  32.000   3.442   2.730
27187W        W86624  31.955  23.112   0.866
27188W        W86625  10.155   5.231   0.450
27189W        W86626  15.772   6.265   1.853
27190W        W86627  40.987  34.484   1.364
27191W        W86628   2.795  21.206   3.328
27192W        W86629  10.375  15.184   2.768
27193W        W86630  37.864  41.439  14.810
27194W        W86631   6.858  40.480   1.721
27195W        W86632  28.675   4.355   1.324
27196W        W86633   1.287  40.487   2.676
27197W        W86634   5.241  12.150   3.815
27198W        W86635  40.913  39.427   4.175
27199W        W86636  16.660  39.346   0.739
27200W        W86637  29.535   6.267  10.554
27201W        W86638  10.655   1.400  11.125
27202W        W86639  35.016   2.849   4.252
27203W        W86640  15.677  39.992  13.847
27204W        W86641  40.945  19.186   3.181
27205W        W86642  31.023  26.195   1.919
27206W        W86643  30.932  43.476  13.988
27207W        W86644  40.320  18.161  14.296
27208W        W86645  23.729   7.780   4.722
27209W        W86646  13.282   6.797  13.470
27210W        W86647  37.382  18.756  13.034
27211W        W86648  10.755  25.610  14.995
27212W        W86649  21.751  16.812   1.350
27213W        W86650  23.629  43.785   3.662
27214W        W86651  18.613  29.481  13.421
27215W        W86652  21.137  42.999   0.424
27216W        W86653  28.001  15.327   1.881
27217W        W86654  43.424   3.790   1.333
27218W        W86655  24.519  17.639  12.407
27219W        W86656  39.936   2.811  12.952
27220W        W86657  18.083  30.440  13.410
27221W        W86658  39.930  43.449   2.317
27222W        W86659   2.755  40.344  11.012
27223W        W86660  37.461  29.138  11.926
27224W        W86661   4.741  15.090   0.324
27225W        W86662  42.349  17.770   2.311
27226W        W86663  40.855  28.063   1.814
27227W        W86664  33.940  22.053   0.728
27228W        W86665  13.843  44.858   1.445
27229W        W86666   9.315  33.415   3.821
27230W        W86667  41.524  14.719  12.510
27231W        W86668  43.510  27.007  12.956
27232W        W86669  30.928  33.080   1.267
27233W        W86670  19.138  15.166   1.738
27234W        W86671  24.514  35.898   1.922
27235W        W86672  18.644  41.024   5.307
27236W        W86673   3.846  43.845   1.863
27237W        W86674  17.755  20.597   3.169
27238W        W86675  17.180  15.211   0.454
27239W        W86676   3.750  10.321   3.178
27240W        W86677  34.879  27.677  12.494
27241W        W86678  32.041  19.673  12.526
27242W        W86679  44.800   5.410   4.735
27243W        W86680   5.426  12.737  14.386
27244W        W86681  36.394  19.179   1.864
27245W        W86682  13.347  35.872  14.768
27246W        W86683  38.418  35.496   2.409
27247W        W86684  31.992  17.595  13.035
27248W        W86685  10.337  38.913  14.959
27249W        W86686  28.595  23.128   2.778
27250W        W86687   8.222   4.845   0.370
27251W        W86688  35.921  33.940   3.237
27252W        W86689   7.728  16.779   4.149
27253W        W86690  20.049   6.397   1.211
27254W        W86691  13.164  34.962  14.414
27255W        W86692  37.412  44.467  14.289
27256W        W86693  10.347  15.763  14.346
27257W        W86694  33.550  36.881  12.456
27258W        W86695  30.430  39.978   2.765
27259W        W86696  20.168  34.004   1.285
27260W        W86697  24.992  20.632  11.961
27261W        W86698   5.871  21.234  13.999
27262W        W86699  27.456  43.291  12.067
27263W        W86700  37.400  25.544   1.324
27264W        W86701  27.687   9.356  12.084
27265W        W86702  13.214  43.965  12.342
27266W        W86703  34.537  36.027   5.236
27267W        W86704   3.369  17.564  11.961
27268W        W86705  10.324  13.773  14.512
27269W        W86706  18.697  13.350   1.374
27270W        W86707  33.980  35.011  11.055
27271W        W86708  36.571  40.305  13.973
27272W        W86709  34.912  36.066   5.593
27273W        W86710   5.254  42.015   1.746
27274W        W86711  28.036  20.584   4.698
27275W        W86712  23.195  33.034   1.784
27276W        W86713  12.241  36.988   4.717
27277W        W86714  42.331   3.339  11.078
27278W        W86715  40.445  29.596  13.416
27279W        W86716   3.453  13.700   9.574
27280W        W86717   0.319  22.242   3.258
27281W        W86718  17.706  38.549  10.468
27282W        W86719  28.455   0.249   3.760
27283W        W86720  19.656   1.753   4.215
27284W        W86721  33.946  19.106  12.840
27285W        W86722   9.327  14.830   2.737
27286W        W86723  23.538  23.575   1.430
27287W        W86724  16.589   4.715  14.369
27288W        W86725  27.086  31.113   4.114
27289W        W86726  23.077  35.106  13.954
27290W        W86727  30.425  40.517  10.493
27291W        W86728  35.082  10.782   3.385
27292W        W86729  35.059   7.407  12.456
27293W        W86730  27.487  42.436   3.290
27294W        W86731  38.070  42.957  11.990
27295W        W86732  11.280   0.987  13.332
27296W        W86733  34.393  32.933   1.844
27297W        W86734   0.770  32.576   2.386
27298W        W86735  40.444  18.629  11.977
27299W        W86736  43.469   1.961   2.836
27300W        W86737  23.639  27.505   2.353
27301W        W86738  43.864  31.113  11.990
27302W        W86739  25.500  42.905   1.818
27303W        W86740  24.482  33.593   2.809
27304W        W86741  20.041  27.639   4.662
27305W        W86742   1.795   5.213  12.431
27306W        W86743  32.589  21.730  11.418
27307W        W86744  20.202  33.583   0.292
27308W        W86745  25.156  27.660  13.873
27309W        W86746  40.884  26.989   0.842
27310W        W86747  12.313  41.348  10.411
27311W        W86748   1.792  28.479  12.041
27312W        W86749  34.069  15.174  14.301
27313W        W86750   9.787   9.652   3.186
27314W        W86751  14.798  10.195   4.769
27315W        W86752  22.713   6.747  13.402
27316W        W86753  43.962  17.776   3.837
27317W        W86754  21.056  40.968  12.075
27318W        W86755  11.774  33.420  11.041
27319W        W86756  11.249  41.882   1.295
27320W        W86757  24.503   9.231   5.278
27321W        W86758  21.077   1.363   0.824
27322W        W86759  25.107  12.160  14.763
27323W        W86760  30.657  19.216   4.671
27324W        W86761  19.670  29.111   1.397
27325W        W86762  43.975  42.902  14.765
27326W        W86763  20.607  33.085   3.759
27327W        W86764  43.942  23.046   2.228
27328W        W86765  19.247  17.091   1.730
27329W        W86766  11.252   5.814   0.916
27330W        W86767  13.690  24.114  13.957
27331W        W86768  29.056  23.674   3.685
27332W        W86769  11.758  24.556   0.817
27333W        W86770  30.556  36.959  10.571
27334W        W86771  32.094   6.396   3.672
27335W        W86772  21.230   1.769  10.912
27336W        W86773  39.930  27.114   3.816
27337W        W86774  27.560  16.158  11.599
27338W        W86775  44.396  13.238  13.363
27339W        W86776   6.747  27.483  11.971
27340W        W86777  37.368  12.819   0.458
27341W        W86778  22.995  16.119  14.028
27342W        W86779  30.610  38.851  14.773
27343W        W86780  22.095  16.123   4.221
27344W        W86781  41.520  27.114   3.384
27345W        W86782   4.267  18.754   0.956
27346W        W86783  34.939  43.467  13.957
27347W        W86784  20.177  34.455  12.001
27348W        W86785  42.847  22.580   5.294
27349W        W86786  39.818  40.538  13.050
27350W        W86787   1.252  44.960   4.276
27351W        W86788   5.349  19.041  14.391
27352W        W86789   0.760  16.280   3.797
27353W        W86790  26.043  10.633   1.383
27354W        W86791  37.082  14.693   4.604
27355W        W86792  25.501  42.789   0.766
27356W        W86793   5.921  40.435   1.236
27357W        W86794   8.826  30.081   0.428
27358W        W86795  30.434  38.926   0.457
27359W        W86796   4.304   4.330  11.951
27360W        W86797   7.339  31.012  11.420
27361W        W86798  38.527  21.221   3.870
27362W        W86799  31.596  40.803   0.846
27363W        W86800  31.622  29.425   2.317
27364W        W86801  24.519  18.252  12.835
27365W        W86802  44.265  16.092  12.063
27366W        W86803   6.260   5.910   0.360
27367W        W86804  36.977  20.647  11.453
27368W        W86805   0.309  13.156  13.315
27369W        W86806  29.540  33.089  11.608
27370W        W86807  41.518  18.285  11.584
27371W        W86808  23.518  27.137  13.357
27372W        W86809  29.631  20.262  14.798
27373W        W86810  26.591  20.141  14.764
27374W        W86811  13.272  13.629  12.458
27375W        W86812  11.231   7.841  14.379
27376W        W86813  37.359  16.108  13.960
27377W        W86814  36.025  19.682   1.808
27378W        W86815  41.875  42.857   2.299
27379W        W86816  23.688  13.718   2.405
27380W        W86817   7.275   0.936  11.434
27381W        W86818  28.094   9.769  12.910
27382W        W86819  38.929  17.620  14.938
27383W        W86820   0.963  41.487   4.181
27384W        W86821  10.211   8.878   5.253
27385W        W86822  35.915  37.340  14.999
27386W        W86823   5.405   4.255   2.760
27387W        W86824   5.346  17.175   1.764
27388W        W86825   5.829  11.758   0.454
27389W        W86826  18.068  33.925  11.455
27390W        W86827  44.862  17.678   2.682
27391W        W86828   4.874   7.887   4.710
27392W        W86829  16.743  31.968  11.972
27393W        W86830  29.530   0.865   2.296
27394W        W86831  25.153  31.566   2.305
27395W        W86832  10.240  44.007  14.978
27396W        W86833  43.305  32.615   4.661
27397W        W86834  18.120  36.532   1.426
27398W        W86835  17.066  38.516   4.153
27399W        W86836   2.801  36.092  14.329
27400W        W86837  26.674  31.109  12.922
27401W        W86838  22.551  12.759   5.195
27402W        W86839  17.071   5.744   9.975
27403W        W86840  14.622  43.311   3.359
27404W        W86841   0.782  41.344   1.746
27405W        W86842   5.868  43.776  14.274
27406W        W86843  41.485  16.179  11.009
27407W        W86844  24.214  40.481   2.202
27408W        W86845  32.470   3.251   1.867
27409W        W86846   3.319   0.473  11.880
27410W        W86847  27.072  31.998  11.536
27411W        W86848  28.548  24.683  14.816
27412W        W86849  36.370   4.356   3.742
27413W        W86850   1.931  39.348  11.118
27414W        W86851  42.388  12.185   0.914
27415W        W86852   7.188   8.241   4.199
27416W        W86853  17.087  25.134  11.440
27417W        W86854   9.759  32.038  11.037
27418W        W86855  13.819  34.526   2.351
27419W        W86856  18.273  36.538  14.328
27420W        W86857   4.711  43.961  13.353
27421W        W86858  18.611  30.999  14.833
27422W        W86859  13.247  36.577  10.466
27423W        W86860  35.501  18.148  12.061
27424W        W86861  21.256  39.970  12.019
27425W        W86862   7.778  33.526  12.830
27426W        W86863  14.772  35.879   4.828
27427W        W86864  24.030  12.305   3.669
27428W        W86865  39.519  40.350  12.956
27429W        W86866   1.809  36.416  12.952
27430W        W86867   1.741  27.610   5.210
27431W        W86868  42.853  26.638   2.872
27432W        W86869  34.548  16.084  14.510
27433W        W86870  19.259   4.802  12.499
27434W        W86871  21.667   1.472  14.846
27435W        W86872   9.663  11.776  13.441
27436W        W86873   4.702  42.874   0.960
27437W        W86874  29.518  15.735   0.816
27438W        W86875  23.192  11.861   4.787
27439W        W86876  11.731  11.794  14.772
27440W        W86877  30.026  29.164   4.147
27441W        W86878  35.008  19.185  10.959
27442W        W86879  31.998  23.610  12.490
27443W        W86880   8.708  18.064   0.375
27444W        W86881  23.108  25.139   0.930
27445W        W86882  25.485  23.002  12.978
27446W        W86883  22.744  15.787   0.834
27447W        W86884  23.728  34.900  12.932
27448W        W86885  23.622   8.337   4.297
27449W        W86886   8.385  16.805   0.249
27450W        W86887   1.240   7.377  12.038
27451W        W86888  35.442  32.472  11.527
27452W        W86889  15.672  17.245  11.921
27453W        W86890  36.516  12.161  14.982
27454W        W86891   1.850  38.447  12.961
27455W        W86892  27.660  44.296  10.501
27456W        W86893  41.024  24.691  11.434
27457W        W86894  30.953  39.530  11.048
27458W        W86895  23.524  35.521  13.952
27459W        W86896  32.076  42.991   2.196
27460W        W86897  39.549  17.687  11.499
27461W        W86898  41.995  12.309  10.420
27462W        W86899  39.314  44.945   4.278
27463W        W86900   5.687   7.826   2.219
27464W        W86901  22.113  35.109   1.802
27465W        W86902  42.327  37.405   9.946
27466W        W86903  19.755  13.329  11.446
27467W        W86904  10.219  14.783  13.334
27468W        W86905  30.150  21.199   5.777
27469W        W86906  10.206  18.638   0.416
27470W        W86907  39.354  15.183  10.967
27471W        W86908  10.754   3.405  12.390
27472W        W86909  12.148  38.887  12.514
27473W        W86910   2.770  19.217  11.896
27474W        W86911   9.684  34.118   2.884
27475W        W86912  16.805  17.636  10.572
27476W        W86913  12.779  44.950  13.009
27477W        W86914  18.210  37.895   3.223
27478W        W86915  13.251  19.582   2.243
27479W        W86916  23.997  26.996  10.893
27480W        W86917  11.281  21.025  14.993
27481W        W86918  23.052  21.089  11.983
27482W        W86919   1.868  13.754   1.842
27483W        W86920  44.762  33.987   4.137
27484W        W86921  35.884  14.202  14.508
27485W        W86922  29.040  43.794  10.598
27486W        W86923  24.148  15.183  11.017
27487W        W86924   0.359  28.993   3.229
27488W        W86925   9.158  42.881  12.062
27489W        W86926   1.342  33.416  12.522
27490W        W86927  36.897   7.884   4.226
27491W        W86928   7.855   2.323  10.438
27492W        W86929  26.489  39.481   1.831
27493W        W86930   5.219   3.215   2.700
27494W        W86931  17.565  19.234  13.511
27495W        W86932   7.389  42.884   2.693
27496W        W86933   2.726  36.375   2.730
27497W        W86934   4.248  17.225   2.702
27498W        W86935  34.940  21.753   0.253
27499W        W86936  42.283  10.876   0.476
27500W        W86937  13.259  16.151  11.465
27501W        W86938  40.509  34.873   0.891
27502W        W86939  24.574   9.871  11.451
27503W        W86940  15.708  16.209   4.221
27504W        W86941  13.122  31.045   2.359
27505W        W86942  16.804  29.575   2.325
27506W        W86943  33.098  32.075   1.781
27507W        W86944  15.299  29.630  14.466
27508W        W86945  40.841  37.931  12.012
27509W        W86946   0.436   7.204   1.390
27510W        W86947  28.580  14.107   1.378
27511W        W86948  26.974   6.229  14.923
27512W        W86949   9.331   1.950  14.853
27513W        W86950  26.562   6.880  12.461
27514W        W86951  17.561  30.605  12.997
27515W        W86952  18.093  16.754   0.407
27516W        W86953   6.185  42.524  10.930
27517W        W86954  22.518   8.278   1.828
27518W        W86955  28.155  20.108   0.920
27519W        W86956   6.288  25.080   1.382
27520W        W86957  16.154  28.954   4.245
27521W        W86958   3.446  38.032   4.152
27522W        W86959  30.540  43.940  12.042
27523W        W86960  10.360  30.446   4.705
27524W        W86961  12.672  33.453   0.455
27525W        W86962  43.866   8.743   2.234
27526W        W86963  19.200  17.768  14.279
27527W        W86964   3.428  10.342   2.680
27528W        W86965  40.805  26.097  12.968
27529W        W86966  12.644   2.739  11.023
27530W        W86967  28.071  38.469  13.358
27531W        W86968  20.062   7.233  13.920
27532W        W86969  24.078  34.543  14.902
27533W        W86970  12.636  17.066   4.279
27534W        W86971  40.490  31.536  14.837
27535W        W86972  33.611   5.777  10.637
27536W        W86973  17.778  27.618   3.835
27537W        W86974  25.637  40.499  14.782
27538W        W86975  33.084  22.641   5.209
27539W        W86976   9.783  37.002  10.529
27540W        W86977   7.412  28.932   0.387
27541W        W86978  31.584  44.300  13.477
27542W        W86979  25.602   6.686  13.430
27543W        W86980  35.039  34.975   4.764
27544W        W86981   5.283  26.170   2.845
27545W        W86982  29.493  13.110  11.447
27546W        W86983  17.074  40.931  11.084
27547W        W86984  15.206  19.714   3.307
27548W        W86985   1.298  21.636   3.151
27549W        W86986  21.587  32.964   1.271
27550W        W86987  21.258  23.127   3.195
27551W        W86988  40.046  20.727  12.954
27552W        W86989  40.977  33.467   3.767
27553W        W86990  19.151  19.275   0.855
27554W        W86991  21.204  29.076   4.785
27555W        W86992  22.237  26.110   5.321
27556W        W86993  37.986  18.223   0.773
27557W        W86994  34.080  31.543   1.223
27558W        W86995   9.328  39.964  14.503
27559W        W86996  43.904  27.456   3.296
27560W        W86997   1.838  35.433   1.374
27561W        W86998  13.345  10.177   4.788
27562W        W86999  27.581  18.190  10.488
27563W        W87000  42.013  19.158  13.023
27564W        W87001  24.094   2.457  11.020
27565W        W87002  20.767  20.717  14.784
27566W        W87003  32.934   9.819   3.368
27567W        W87004   2.356  11.725   4.684
27568W        W87005  24.143  18.066   1.866
27569W        W87006  27.630  25.569  11.375
27570W        W87007  15.631  33.941  13.361
27571W        W87008  26.202  17.114  13.905
27572W        W87009  14.101   1.329  11.890
27573W        W87010  14.098  18.056  13.012
27574W        W87011   5.692  10.168   3.235
27575W        W87012   8.798   3.344   1.266
27576W        W87013   6.266  22.746  13.541
27577W        W87014  14.622  23.110   3.258
27578W        W87015  13.348  34.614   0.952
27579W        W87016  44.323   5.695   2.349
27580W        W87017   4.441  19.703   3.692
27581W        W87018  12.344   1.891   4.136
27582W        W87019  26.172   6.763  10.596
27583W        W87020  37.985  23.645  10.987
27584W        W87021  22.569  23.193  13.525
27585W        W87022  31.070  22.596  13.335
27586W        W87023  36.466  38.936   5.165
27587W        W87024  37.375   5.402   3.365
27588W        W87025  38.554  11.321   0.394
27589W        W87026  31.142   8.293  14.887
27590W        W87027   0.356   7.213   4.137
27591W        W87028  32.102  31.597   1.229
27592W        W87029  11.205  38.545  13.928
27593W        W87030  26.695  27.614   3.322
27594W        W87031   4.235   9.232  11.098
27595W        W87032  41.518   7.265   0.409
27596W        W87033  44.910   0.852   2.731
27597W        W87034  25.965  20.174  12.390
27598W        W87035  13.826   1.879   3.317
27599W        W87036  12.132   3.245  10.521
27600W        W87037  44.761  26.090   1.791
27601W        W87038  37.000  27.666   1.864
27602W        W87039  32.455  11.221   4.829
27603W        W87040  38.839  35.855   5.293
27604W        W87041  18.150   9.174   3.632
27605W        W87042  23.727  27.677  14.825
27606W        W87043  35.454  12.134   4.248
27607W        W87044  18.661  23.211   1.705
27608W        W87045   4.762  10.342  11.974
27609W        W87046  12.163  14.232   2.878
27610W        W87047  17.061  11.366  14.812
27611W        W87048  16.153  19.573   4.709
27612W        W87049  22.146   4.450   1.242
27613W        W87050   3.710   9.177  11.444
27614W        W87051  29.044  28.500  11.928
27615W        W87052  21.131  25.975  13.421
27616W        W87053  11.856   3.795  10.635
27617W        W87054  10.761  20.157  14.411
27618W        W87055  14.340   0.447  13.407
27619W        W87056  21.071  42.321   2.376
27620W        W87057  39.917  17.770   3.662
27621W        W87058  26.990  32.398  13.847
27622W        W87059  16.792  14.659  13.522
27623W        W87060  34.890  17.575  10.973
27624W        W87061  16.162  29.523  10.624
27625W        W87062  26.560   5.705   2.324
27626W        W87063  37.419  38.982  13.531
27627W        W87064  35.933  35.043   1.249
27628W        W87065  30.545   0.271   3.717
27629W        W87066  24.019  18.152   1.377
27630W        W87067  44.797  40.479  13.925
27631W        W87068  36.053  14.737   0.382
27632W        W87069  27.677  13.736   2.337
27633W        W87070  11.262   9.279  12.412
27634W        W87071   1.796  33.061   0.967
27635W        W87072  30.569  29.037  13.954
27636W        W87073  17.694   4.776  11.903
27637W        W87074  31.608   5.225  11.412
27638W        W87075  24.723  21.113  12.430
27639W        W87076  38.492  20.091   3.834
27640W        W87077  19.145  34.965   3.233
27641W        W87078   6.424  23.241   4.837
27642W        W87079  20.656  38.070   3.202
27643W        W87080  44.486  21.171  13.384
27644W        W87081  33.495  38.553  12.411
27645W        W87082  14.181  43.883  11.082
27646W        W87083  32.573  16.120   0.794
27647W        W87084  33.512  23.241  12.897
27648W        W87085  22.148   3.888   0.945
27649W        W87086  31.499  10.828  10.640
27650W        W87087   4.246   9.799   2.285
27651W        W87088  25.680  37.999   0.762
27652W        W87089  40.914  18.079   1.778
27653W        W87090  37.841   8.878  13.873
27654W        W87091  40.918  37.512   0.375
27655W        W87092  41.336  27.541   4.199
27656W        W87093  11.858   3.282  11.911
27657W        W87094  17.304   7.335  10.895
27658W        W87095   4.327  24.184   4.166
27659W        W87096  37.978   2.419  11.916
27660W        W87097  15.591   3.369   4.684
27661W        W87098  23.199  23.561   4.739
27662W        W87099  27.662  24.621   3.329
27663W        W87100  35.582  39.825   5.174
27664W        W87101  14.265  25.209  13.548
27665W        W87102   7.186   6.799   1.736
27666W        W87103  26.145   7.909   2.901
27667W        W87104  31.000  32.416  12.830
27668W        W87105  14.652  14.739   4.249
27669W        W87106  41.986  12.682   0.250
27670W        W87107  33.049  25.123   3.785
27671W        W87108  10.633   3.291  10.994
27672W        W87109  32.567   8.732   2.328
27673W        W87110  44.832  38.042   4.239
27674W        W87111  36.583   9.172   0.292
27675W        W87112  44.481   1.429   1.216
27676W        W87113  23.688  32.441  11.605
27677W        W87114  41.822  14.096   0.420
27678W        W87115  43.825  25.706  12.030
27679W        W87116  36.949  21.657  13.940
27680W        W87117  42.942  39.888  14.858
27681W        W87118  17.101   4.822  14.432
27682W        W87119   1.434  19.112  13.882
27683W        W87120  42.323  15.230  13.943
27684W        W87121   7.298   2.309  11.612
27685W        W87122  23.669  21.577  13.979
27686W        W87123  11.354  23.049   2.290
27687W        W87124  22.227  23.079  13.405
27688W        W87125   5.388  25.081   9.482
27689W        W87126  28.035  28.609   2.223
27690W        W87127  29.936   7.785  14.760
27691W        W87128  26.656  18.284  13.002
27692W        W87129  28.456  31.953   3.779
27693W        W87130  37.357  29.933  13.926
27694W        W87131   1.807   4.788  11.608
27695W        W87132  30.574  14.661   0.888
27696W        W87133  22.179  37.414   9.610
27697W        W87134  12.235  35.018   1.368
27698W        W87135  20.232  27.062   3.209
27699W        W87136  30.001  32.438  10.504
27700W        W87137  10.335  41.864  12.036
27701W        W87138  14.196  28.126  11.965
27702W        W87139   3.847   1.271   4.764
27703W        W87140   7.324   0.838   3.662
27704W        W87141  13.274  36.531   1.329
27705W        W87142  11.717  28.091  14.386
27706W        W87143  24.516  22.129  14.304
27707W        W87144   3.762  43.303   3.764
27708W        W87145   9.806  40.002   3.258
27709W        W87146  29.569  13.261  13.415
27710W        W87147  42.012   8.710   2.362
27711W        W87148  18.274  22.577  10.453
27712W        W87149  28.546  36.578   0.847
27713W        W87150   1.243  24.037   2.829
27714W        W87151   9.875  22.567  13.964
27715W        W87152  41.889  41.853   0.256
27716W        W87153  18.693  38.997  13.526
27717W        W87154  32.470  44.312   4.216
27718W        W87155  41.016  13.687  12.961
27719W        W87156  41.404  40.390  12.937
27720W        W87157  20.076  34.077  10.570
27721W        W87158  27.955  43.948  13.375
27722W        W87159  22.689  23.590  14.983
27723W        W87160  35.103  31.012  14.845
27724W        W87161   5.799  28.085  13.482
27725W        W87162  33.109  38.058   2.798
27726W        W87163  12.306  42.281  14.767
27727W        W87164  34.477   8.163   1.270
27728W        W87165  13.800   7.247  12.536
27729W        W87166   5.226   8.758   4.633
27730W        W87167  31.638  41.492  14.395
27731W        W87168  36.953  29.496   4.798
27732W        W87169  24.632  27.019   2.331
27733W        W87170  26.699  27.615  12.450
27734W        W87171  27.614  34.433  10.530
27735W        W87172   9.835  10.742   0.808
27736W        W87173  40.896   5.877   0.912
27737W        W87174  11.164  41.943   3.295
27738W        W87175  41.338  20.531  12.985
27739W        W87176  11.308  37.830   1.239
27740W        W87177  42.438  30.911   0.731
27741W        W87178  13.315   6.834  11.385
27742W        W87179  34.594  24.506  12.947
27743W        W87180  22.140  12.830  14.499
27744W        W87181  43.283  42.499  14.339
27745W        W87182  39.990  33.494  10.406
27746W        W87183   0.487  33.056  10.598
27747W        W87184  33.558  27.089  10.453
27748W        W87185  21.199   5.883   2.373
27749W        W87186   2.291  27.011   2.801
27750W        W87187  39.021  42.874   0.399
27751W        W87188  36.464  43.330   1.252
27752W        W87189   3.455  42.018  12.490
27753W        W87190  27.689  39.948   4.821
27754W        W87191  29.081  18.643   1.401
27755W        W87192  32.580  11.806  13.896
27756W        W87193  30.542  43.334  11.607
27757W        W87194  40.382  23.216   0.784
27758W        W87195   2.845  26.129   5.170
27759W        W87196  30.967  32.576  12.380
27760W        W87197  34.074  43.802  11.933
27761W        W87198   2.248  38.550  13.945
27762W        W87199  12.249  14.663   1.798
27763W        W87200  21.079   9.204   2.301
27764W        W87201  14.094  33.088  11.524
27765W        W87202   2.753  10.774  13.933
27766W        W87203   9.861  32.107  12.041
27767W        W87204  19.687  14.167   1.838
27768W        W87205  14.647  43.507   0.828
27769W        W87206  10.300  36.429  12.978
27770W        W87207   9.674  44.804  13.040
27771W        W87208   4.282   3.225  13.401
27772W        W87209  31.511  22.041   0.399
27773W        W87210   5.729   9.191  11.975
27774W        W87211  22.025  29.164  13.042
27775W        W87212  23.545   3.734  12.938
27776W        W87213  15.770  38.340  11.484
27777W        W87214  32.455  31.105   3.318
27778W        W87215   9.343  14.118   0.340
27779W        W87216  43.446  22.732  12.843
27780W        W87217  22.508  12.146  14.889
27781W        W87218  27.527   0.373   3.270
27782W        W87219  43.994  28.114   3.271
27783W        W87220   0.908  28.949   4.140
27784W        W87221  16.586  22.536  13.375
27785W        W87222  14.729  17.259  13.473
27786W        W87223  36.919  10.874  10.434
27787W        W87224  10.361  18.613   5.292
27788W        W87225  16.299  12.636  11.880
27789W        W87226  16.571   2.258  11.863
27790W        W87227  29.987  19.055  10.539
27791W        W87228   7.399  22.744  14.428
27792W        W87229  22.521  40.429   4.194
27793W        W87230  32.071  20.264  12.466
27794W        W87231   3.783   5.896  11.120
27795W        W87232  43.435   7.324  10.943
27796W        W87233  10.793   3.368   4.291
27797W        W87234  19.111  15.655   0.940
27798W        W87235  27.515  16.618  13.891
27799W        W87236   1.331  29.132   2.244
27800W        W87237  42.877   5.385  12.053
27801W        W87238   6.815   5.326   1.304
27802W        W87239  27.977  36.494   5.296
27803W        W87240  26.050  14.631  11.596
27804W        W87241  13.644  33.998  14.942
27805W        W87242  17.181  36.571   1.860
27806W        W87243  21.633  23.101  11.955
27807W        W87244   4.386  24.002  10.609
27808W        W87245  10.347  41.034   0.296
27809W        W87246   0.296  14.618   1.883
27810W        W87247   9.831  35.946   1.233
27811W        W87248  24.994  39.862  14.973
27812W        W87249  10.322   8.393  14.774
27813W        W87250  14.229  20.126   4.200
27814W        W87251  31.494   2.782  14.787
27815W        W87252  24.051  30.010  13.962
27816W        W87253  34.963  17.715   3.792
27817W        W87254  18.747  23.120  11.023
27818W        W87255  32.409   4.375   1.248
27819W        W87256  20.685  28.041   0.882
27820W        W87257   3.451   3.218  12.463
27821W        W87258  24.139  24.688  12.403
27822W        W87259  40.369  35.101   4.340
27823W        W87260  24.664  37.039   2.711
27824W        W87261  27.534  25.524   0.259
27825W        W87262  14.279   6.796  14.866
27826W        W87263  20.086   5.770  10.926
27827W        W87264  16.262  24.670   0.752
27828W        W87265  11.183  20.675  13.946
27829W        W87266  21.166  22.709  14.025
27830W        W87267  28.642   3.735   1.773
27831W        W87268  25.694  30.586   1.317
27832W        W87269  32.898  20.197   3.259
27833W        W87270   4.322  39.913  11.977
27834W        W87271  28.025  22.735   4.326
27835W        W87272  21.251  44.825   2.416
27836W        W87273  39.023   8.790  12.419
27837W        W87274  24.542  15.702  12.507
27838W        W87275   7.888  15.623  13.512
27839W        W87276  28.094  34.941   0.895
27840W        W87277   9.324   0.358   3.830
27841W        W87278  16.636  25.966   3.773
27842W        W87279  24.696  37.409  12.484
27843W        W87280  12.687   6.280  10.895
27844W        W87281  36.412  24.667   2.885
27845W        W87282  11.787  39.036  11.971
27846W        W87283  25.212   4.232  11.960
27847W        W87284  27.130  39.890   3.311
27848W        W87285  35.070  17.605   2.757
27849W        W87286  40.955  17.130  13.924
27850W        W87287  15.747  36.934   3.229
27851W        W87288   5.696   8.300  12.983
27852W        W87289  32.605  37.509   4.276
27853W        W87290  21.038  43.779  10.159
27854W        W87291  44.781  31.623   1.809
27855W        W87292  10.794  44.261  13.999
27856W        W87293  18.611  10.320  13.866
27857W        W87294  30.628  28.508   0.772
27858W        W87295  15.727  38.882  12.442
27859W        W87296  33.075  35.018   3.655
27860W        W87297   2.249  23.633  12.437
27861W        W87298  27.475  34.068  12.513
27862W        W87299  19.550  24.719   4.784
27863W        W87300  36.390  14.783  14.514
27864W        W87301   4.301  31.077  13.390
27865W        W87302  34.547  12.312   0.247
27866W        W87303  39.853  44.298  10.926
27867W        W87304  27.007  44.932   0.357
27868W        W87305  11.692  11.853   4.666
27869W        W87306  17.107  27.623   2.242
27870W        W87307   3.850  13.762  12.438
27871W        W87308  29.446  29.519   0.380
27872W        W87309  40.331  11.217   2.752
27873W        W87310   9.183  43.416  13.513
27874W        W87311  13.749   5.723   2.695
27875W        W87312  22.233   6.376  10.633
27876W        W87313  31.070  22.603   0.816
27877W        W87314  23.697   4.325   2.228
27878W        W87315  22.039  24.083   3.387
27879W        W87316  30.048  12.253  14.842
27880W        W87317   1.806  30.499   1.849
27881W        W87318  20.550   8.295  11.468
27882W        W87319  17.106  42.929   1.730
27883W        W87320  15.285  24.215   3.662
27884W        W87321  28.047  16.107   2.746
27885W        W87322   1.298  18.240   1.800
27886W        W87323  27.586   6.183  13.981
27887W        W87324  21.553  39.938   4.678
27888W        W87325  18.748  28.509   1.811
27889W        W87326  24.186  34.374   4.613
27890W        W87327  22.679  26.044   1.867
27891W        W87328  27.692  15.584   1.370
27892W        W87329  34.062  26.155   3.656
27893W        W87330   2.255   3.724  10.516
27894W        W87331  42.844  33.922   0.292
27895W        W87332  28.177  35.435  13.374
27896W        W87333  18.719  40.889   2.680
27897W        W87334  39.940  42.857  10.972
27898W        W87335  34.983  25.662  13.063
27899W        W87336  14.608  31.630   1.847
27900W        W87337  31.597  31.450   3.659
27901W        W87338  25.664  44.396  13.979
27902W        W87339   9.221  18.266  12.944
27903W        W87340  43.806   8.747   2.878
27904W        W87341  13.180  32.541  14.925
27905W        W87342  34.060  24.095  13.356
27906W        W87343   4.314  30.134  12.004
27907W        W87344  15.608  16.313   0.764
27908W        W87345   0.411  13.773   3.356
27909W        W87346  33.061   3.424   0.431
27910W        W87347  20.525   4.872  14.958
27911W        W87348  43.413  42.336  11.113
27912W        W87349  13.640  13.241   0.928
27913W        W87350  40.379  30.570  14.496
27914W        W87351   0.266  18.147   1.695
27915W        W87352   8.691  38.453   2.343
27916W        W87353  20.678   3.225  12.042
27917W        W87354  11.267   6.248   2.311
27918W        W87355   9.352  27.189   3.342
27919W        W87356  19.068  28.037  11.396
27920W        W87357  23.237  44.923   2.780
27921W        W87358  43.329  32.635  11.892
27922W        W87359  19.043   5.240   0.483
27923W        W87360  43.936  27.032  12.559
27924W        W87361  40.872  10.349  13.416
27925W        W87362  25.630  10.738  10.096
27926W        W87363  14.642  11.699   0.334
27927W        W87364  43.490   8.708   1.223
27928W        W87365  18.776  32.473   4.329
27929W        W87366  32.532  39.957  13.035
27930W        W87367  13.604   3.216   4.219
27931W        W87368  41.332  32.890  12.494
27932W        W87369  16.772  39.009  11.905
27933W        W87370   4.852  12.282   2.888
27934W        W87371  11.760  34.978  14.350
27935W        W87372  44.470  38.063  12.426
27936W        W87373   8.251  28.098   1.365
27937W        W87374  27.100  13.263   4.142
27938W        W87375  21.217  43.422  14.832
27939W        W87376  17.654  10.755  10.615
27940W        W87377  18.763  15.198  12.538
27941W        W87378  30.642  19.559  11.013
27942W        W87379  26.125  26.639   1.416
27943W        W87380  30.918  38.826   3.694
27944W        W87381  28.498  44.979   1.360
27945W        W87382   9.272  43.313   2.350
27946W        W87383  32.573  20.196   2.254
27947W        W87384  36.942   9.304  13.490
27948W        W87385   9.750  43.383  14.305
27949W        W87386  21.217  28.110  13.870
27950W        W87387  24.672  10.735   3.307
27951W        W87388  22.656  20.541   9.440
27952W        W87389  20.224  12.300  10.956
27953W        W87390  26.585  19.751   2.686
27954W        W87391  35.502  44.978   3.763
27955W        W87392  17.602  10.238   3.212
27956W        W87393  16.676  26.020  13.817
27957W        W87394  41.485  15.636  14.758
27958W        W87395  36.896  26.009  11.968
27959W        W87396   6.261  28.550  14.021
27960W        W87397  42.864  21.641  10.901
27961W        W87398  24.023  21.636   2.869
27962W        W87399  10.163   8.722   4.763
27963W        W87400   1.779   7.741   0.417
27964W        W87401   4.944  43.786  14.450
27965W        W87402  18.168  21.138   4.159
27966W        W87403  21.098  34.095  14.869
27967W        W87404   7.856  31.134  12.936
27968W        W87405  44.001   5.740  10.587
27969W        W87406  35.982  12.280  11.921
27970W        W87407  12.662   3.234   1.860
27971W        W87408  28.940   1.831  10.470
27972W        W87409   2.727  20.623   3.809
27973W        W87410  29.047  13.262  13.900
27974W        W87411  16.809   5.327  12.565
27975W        W87412  32.598  43.911   3.692
27976W        W87413  31.474  32.113   3.802
27977W        W87414  13.325  17.749  14.934
27978W        W87415  17.204   9.696   3.657
27979W        W87416  15.315   9.149  12.570
27980W        W87417  24.070  37.891   1.315
27981W        W87418  24.701   5.913  12.415
27982W        W87419   7.683  31.930  14.504
27983W        W87420  43.355  29.109   3.778
27984W        W87421  32.020   0.284   1.283
27985W        W87422  27.564  21.057   4.140
27986W        W87423  21.241  41.390  14.400
27987W        W87424  19.177   8.717   3.827
27988W        W87425  29.049  17.254   0.422
27989W        W87426   7.339  14.236   2.234
27990W        W87427  18.629   2.253  10.413
27991W        W87428  36.075  44.273  12.465
27992W        W87429  35.002  19.131  11.925
27993W        W87430   5.713  42.880  11.991
27994W        W87431  25.013  38.931  14.872
27995W        W87432   0.301  43.511  14.963
27996W        W87433  33.931   3.857  14.304
27997W        W87434  23.987  28.010  14.030
27998W        W87435  20.734   1.455   1.898
27999W        W87436  14.752  24.484  13.835
28000W        W87437  18.784  19.102   0.749
28001W        W87438   9.364  44.838  13.528
28002W        W87439  23.141  24.566  13.010
28003W        W87440   2.818  20.693  10.589
28004W        W87441  33.488  27.486  13.030
28005W        W87442  27.588  23.498   2.310
28006W        W87443   8.730  38.392   4.762
28007W        W87444  21.078  32.397   2.360
28008W        W87445  44.821  31.570   3.743
28009W        W87446  26.556   9.344   0.784
28010W        W87447  26.524  38.975  13.804
28011W        W87448   3.777  44.300   2.901
28012W        W87449  22.231  21.199   2.778
28013W        W87450  26.573  18.650  13.949
28014W        W87451  13.149  26.499  10.074
28015W        W87452  17.582  18.747  14.346
28016W        W87453  37.894  19.695   3.288
28017W        W87454  18.609   9.309   4.262
28018W        W87455  18.600  41.538  12.061
28019W        W87456   8.278  33.897  10.516
28020W        W87457   3.814   1.802  14.802
28021W        W87458   7.365  16.706   3.829
28022W        W87459  35.951  18.099  12.884
28023W        W87460  13.292  37.998  11.066
28024W        W87461  27.556  11.326   2.317
28025W        W87462  15.777  38.497  12.541
28026W        W87463  22.237   5.215  11.903
28027W        W87464  15.173   4.205   0.469
28028W        W87465  22.595   5.334   3.387
28029W        W87466  11.141  11.647  11.481
28030W        W87467  20.593   5.348  14.027
28031W        W87468  19.724  40.873  14.821
28032W        W87469  24.501  21.043   1.421
28033W        W87470  25.635  11.663   0.887
28034W        W87471  17.627  26.205   1.920
28035W        W87472  35.892  44.857  11.506
28036W        W87473  29.957  37.537  14.463
28037W        W87474  20.695  42.321   4.721
28038W        W87475  40.817  19.183  14.889
28039W        W87476  10.692   9.171   2.397
28040W        W87477  41.353  36.577   1.789
28041W        W87478  41.339  39.913  11.002
28042W        W87479  36.084  18.202  10.534
28043W        W87480  25.217  10.759  12.508
28044W        W87481  41.897   1.772  13.034
28045W        W87482  41.458  21.054  11.530
28046W        W87483  34.594  24.706   9.669
28047W        W87484   9.875  10.720  10.633
28048W        W87485  28.497  25.041   1.743
28049W        W87486  41.875  27.455  12.367
28050W        W87487  41.847  25.064   2.413
28051W        W87488  13.304  35.012   1.450
28052W        W87489  33.485  15.677  11.494
28053W        W87490  42.980   4.360  13.321
28054W        W87491  29.932   5.354   2.678
28055W        W87492  31.937   2.411   2.405
28056W        W87493  28.583  42.993   1.907
28057W        W87494  31.503  28.041   1.275
28058W        W87495  30.613  27.608   1.918
28059W        W87496  31.569  27.094  11.541
28060W        W87497  39.321  23.651  12.096
28061W        W87498  22.548  44.820  11.022
28062W        W87499  29.979  26.052   0.753
28063W        W87500  40.347  16.087   1.394
28064W        W87501  29.929  23.574  14.787
28065W        W87502  34.047  13.135  11.079
28066W        W87503  36.917   1.361  11.089
28067W        W87504   1.764  40.307  14.514
28068W        W87505  24.543  24.221  12.960
28069W        W87506  11.625   5.262   4.811
28070W        W87507   4.736   9.668  11.612
28071W        W87508  30.010  29.146  10.989
28072W        W87509   4.844  17.677   5.228
28073W        W87510  35.439   7.839   1.813
28074W        W87511  16.577  41.352  13.937
28075W        W87512   7.222  40.901   1.738
28076W        W87513  33.525   5.318  10.508
28077W        W87514  37.858   9.259  13.460
28078W        W87515  37.854  14.792   0.883
28079W        W87516   0.844  28.940  13.899
28080W        W87517  33.385  28.515   2.871
28081W        W87518  15.612  26.561  10.443
28082W        W87519  22.536  26.962   4.763
28083W        W87520  43.837  25.687  12.523
28084W        W87521  35.453  38.952  13.469
28085W        W87522   8.193  14.304  10.572
28086W        W87523  39.496  37.523  13.002
28087W        W87524   5.753  29.133  11.461
28088W        W87525   3.281  18.581  13.939
28089W        W87526  36.937   3.865  10.412
28090W        W87527  34.453  29.475  14.282
28091W        W87528   5.911   5.237   1.875
28092W        W87529  42.457  19.231  10.409
28093W        W87530  14.622  20.265  10.980
28094W        W87531  22.116   6.776   3.263
28095W        W87532  18.774   1.381  12.059
28096W        W87533  31.432   5.917  12.015
28097W        W87534  22.617   8.234  10.132
28098W        W87535  40.489   4.442   1.402
28099W        W87536  26.979  25.035   2.230
28100W        W87537  30.618   3.350   0.858
28101W        W87538  28.440  14.180   4.287
28102W        W87539  30.004  36.865   3.229
28103W        W87540  35.871  16.113  12.920
28104W        W87541  42.493  25.659  14.768
28105W        W87542  14.214  40.034   4.617
28106W        W87543  42.334  35.578   0.858
28107W        W87544  37.050   0.978   1.344
28108W        W87545  30.028  27.948  13.496
28109W        W87546  20.137  19.660  14.845
28110W        W87547  43.004  32.052  12.496
28111W        W87548  37.021   7.248  14.028
28112W        W87549   7.668  18.177   0.452
28113W        W87550  26.042  35.000  12.982
28114W        W87551  19.665  15.096  13.052
28115W        W87552  16.598  38.955   1.229
28116W        W87553  16.710   4.934  14.812
28117W        W87554  43.806  15.149  14.013
28118W        W87555   7.243  30.488  13.347
28119W        W87556  29.949  11.337   3.382
28120W        W87557   7.708  19.655   4.672
28121W        W87558  42.788  32.074   0.748
28122W        W87559  25.172  25.527   4.601
28123W        W87560  16.100  12.294   1.252
28124W        W87561  14.284   6.775  10.501
28125W        W87562  22.602  14.112   9.952
28126W        W87563   8.827  32.628  11.101
28127W        W87564  15.644  14.641  11.422
28128W        W87565  20.595  13.218  13.957
28129W        W87566  32.391   6.855   2.848
28130W        W87567  28.147  12.337   5.101
28131W        W87568  16.087  29.096   3.631
28132W        W87569  41.356   7.239   1.321
28133W        W87570  24.118  38.336  14.505
28134W        W87571   5.849   3.451  14.446
28135W        W87572  42.835  43.314   3.683
28136W        W87573   0.901  33.493  10.133
28137W        W87574  36.039  27.490   3.287
28138W        W87575   0.353  11.764  12.408
28139W        W87576   3.865  23.624  13.804
28140W        W87577   7.871   4.418  14.843
28141W        W87578  25.588  42.384   3.196
28142W        W87579   8.183  15.123   4.123
28143W        W87580  12.677  13.831  13.343
28144W        W87581  37.029  23.503   0.799
28145W        W87582  27.177  34.516  12.390
28146W        W87583  16.627  17.745   9.558
28147W        W87584  32.905  40.936   4.673
28148W        W87585  37.919  11.326  14.490
28149W        W87586  37.014  25.585   2.687
28150W        W87587  33.513  29.425   3.663
28151W        W87588  22.093   5.740   1.739
28152W        W87589   3.936  16.167   4.203
28153W        W87590  15.639   7.797   0.389
28154W        W87591  29.045   4.409   4.637
28155W        W87592   8.749   3.248  13.043
28156W        W87593  26.655  43.839  11.444
28157W        W87594  22.072  41.810  11.017
28158W        W87595   8.384  27.076   4.704
28159W        W87596  30.000  23.550   3.753
28160W        W87597   8.759  37.448   0.332
28161W        W87598  38.041  16.199   1.831
28162W        W87599   8.736   4.331  13.025
28163W        W87600  35.058  11.288   3.189
28164W        W87601   1.449  10.766  14.387
28165W        W87602  30.147  40.888   4.639
28166W        W87603   2.330  33.463   2.348
28167W        W87604  11.667   3.335  12.840
28168W        W87605  28.068  27.501   3.349
28169W        W87606  20.217   8.234   2.397
28170W        W87607  29.093  30.447  14.307
28171W        W87608   4.283  24.121  11.988
28172W        W87609  35.456  16.210  12.549
28173W        W87610  42.480  29.109  11.578
28174W        W87611  36.383  20.623  11.995
28175W        W87612  29.138  42.387  13.489
28176W        W87613   9.811   4.863  14.977
28177W        W87614  36.413  31.992   1.751
28178W        W87615  20.657  23.115  14.323
28179W        W87616  32.115   6.263  11.881
28180W        W87617  11.329  32.507   0.386
28181W        W87618  29.117  11.783  13.520
28182W        W87619  28.574  37.371  14.474
28183W        W87620  17.601  21.595   2.204
28184W        W87621  19.266  36.028   1.407
28185W        W87622  42.406  26.199  14.900
28186W        W87623  36.922   0.791  12.537
28187W        W87624  16.148  27.053   4.219
28188W        W87625   0.769  42.480  11.996
28189W        W87626  21.250  26.587  10.573
28190W        W87627  11.863  43.269   1.420
28191W        W87628  12.335  17.253  12.513
28192W        W87629  16.157   3.295  12.528
28193W        W87630  13.117  40.540  14.781
28194W        W87631  31.526   4.833   4.252
28195W        W87632   1.363   6.347   4.336
28196W        W87633  13.616  35.413  13.331
28197W        W87634  30.975  21.056   2.857
28198W        W87635  23.574  32.999  13.043
28199W        W87636   6.801  19.084   4.227
28200W        W87637  18.214  23.682   3.745
28201W        W87638  27.621  26.022  12.506
28202W        W87639  36.464  32.391  11.518
28203W        W87640  37.457  25.175  10.606
28204W        W87641   0.752  22.075   1.887
28205W        W87642  15.294  32.428   0.349
28206W        W87643   7.748   9.168  14.513
28207W        W87644  12.710  10.227   0.483
28208W        W87645  26.465   3.853   4.832
28209W        W87646  23.670  24.051   0.781
28210W        W87647  13.641   8.750  12.891
28211W        W87648  31.408   5.748  13.889
28212W        W87649   5.715  43.271   0.467
28213W        W87650   5.329  11.334   2.841
28214W        W87651  43.510  30.450  10.897
28215W        W87652   5.200  35.924  13.984
28216W        W87653  29.633  41.422   4.118
28217W        W87654   3.229  34.981   4.607
28218W        W87655  32.011  15.197   1.729
28219W        W87656   6.304  17.101   5.157
28220W        W87657  22.172   7.869  12.469
28221W        W87658  36.472  18.100  10.581
28222W        W87659   5.735  44.795  14.445
28223W        W87660   2.293  35.419  11.505
28224W        W87661   0.802  23.608   1.771
28225W        W87662  44.333  22.520  10.097
28226W        W87663  22.571  35.055  12.407
28227W        W87664  23.016   6.825   3.193
28228W        W87665   3.781  29.612   4.693
28229W        W87666  29.003  38.531   0.286
28230W        W87667   9.155  38.072   3.712
28231W        W87668  21.529  40.885  11.908
28232W        W87669  39.943  39.316  14.956
28233W        W87670  13.136  40.545  11.039
28234W        W87671  11.212  25.660   2.876
28235W        W87672  12.218   2.417  11.588
28236W        W87673   2.372   3.364   1.696
28237W        W87674   8.702  21.105  14.822
28238W        W87675  24.097  22.169  12.868
28239W        W87676  37.048  31.918   2.727
28240W        W87677  26.197   5.901  12.027
28241W        W87678   8.273  31.602   1.318
28242W        W87679  16.677  30.977  10.511
28243W        W87680  22.037  24.699  10.973
28244W        W87681   3.801  40.036  10.482
28245W        W87682  16.301  13.640   3.262
28246W        W87683  17.253   8.247  13.431
28247W        W87684   4.798  29.628  10.152
28248W        W87685  38.008  18.624   4.642
28249W        W87686  31.557  22.012   2.217
28250W        W87687  43.271  14.737   4.777
28251W        W87688  13.184   6.818  11.038
28252W        W87689  14.808  27.497   4.771
28253W        W87690   5.195   8.744   2.780
28254W        W87691  44.817   7.830  12.047
28255W        W87692  15.117  24.588   0.730
28256W        W87693   8.687  29.925  13.493
28257W        W87694   9.758  38.970   4.228
28258W        W87695  26.679   7.673   0.868
28259W        W87696   8.258  42.389  14.346
28260W        W87697  16.272   7.249   4.259
28261W        W87698  33.883   5.880   4.298
28262W        W87699  18.700  31.126  10.949
28263W        W87700  44.400  19.146   2.789
28264W        W87701  27.108   7.677  12.533
28265W        W87702  36.854   7.720   1.752
28266W        W87703  30.032  33.595   4.274
28267W        W87704  39.318  19.050  14.007
28268W        W87705  35.055   9.852  10.976
28269W        W87706   3.878  11.332  14.915
28270W        W87707  42.784  31.152  13.455
28271W        W87708  22.707  20.155  12.057
28272W        W87709  18.554  27.666   1.250
28273W        W87710  41.532  43.279   3.687
28274W        W87711  18.593  32.592   3.282
28275W        W87712   1.966  27.578  14.293
28276W        W87713  43.330  40.940   2.194
28277W        W87714  32.106  10.260  11.108
28278W        W87715  24.603  36.436  13.392
28279W        W87716   3.913  24.196  14.883
28280W        W87717  10.719  35.369   0.248
28281W        W87718   8.789   2.887  13.376
28282W        W87719  38.906  26.080   1.379
28283W        W87720  24.530  19.760  12.092
28284W        W87721  37.929  21.038   0.314
28285W        W87722  11.832  35.370  11.938
28286W        W87723  19.741  31.579  10.942
28287W        W87724  30.957   2.446   5.141
28288W        W87725  17.558  18.639  12.964
28289W        W87726  15.722   1.245   3.254
28290W        W87727  16.112  32.488  10.911
28291W        W87728  11.772  11.738  11.451
28292W        W87729  36.384  11.142   3.258
28293W        W87730  14.617   9.149  11.992
28294W        W87731  24.107  37.005   1.922
28295W        W87732   1.836   1.780  12.354
28296W        W87733  26.544   6.317   0.262
28297W        W87734  24.098  31.598   0.382
28298W        W87735   5.890  39.969  10.977
28299W        W87736  11.679  26.148   2.287
28300W        W87737  33.029  20.694   2.793
28301W        W87738  36.588  35.380  14.932
28302W        W87739  14.779  15.149  11.392
28303W        W87740   0.893  24.590  14.296
28304W        W87741  15.264  27.593  14.345
28305W        W87742  26.963  29.646   3.354
28306W        W87743  39.488  14.154  10.472
28307W        W87744  10.667  32.465  13.870
28308W        W87745  42.441  23.049   1.214
28309W        W87746   8.747   8.787   0.890
28310W        W87747  31.051  43.946  13.937
28311W        W87748  31.053  24.142   4.184
28312W        W87749  20.210  10.746  11.454
28313W        W87750  44.002  40.003   1.826
28314W        W87751  11.694  18.637   3.646
28315W        W87752  33.995  20.761   1.272
28316W        W87753   1.284  18.064   4.329
28317W        W87754  29.538  16.138   1.896
28318W        W87755   7.233  20.153   3.756
28319W        W87756  31.049   1.765   2.266
28320W        W87757  25.590  37.830   1.376
28321W        W87758  21.023  16.632   9.623
28322W        W87759  27.553   6.769  14.334
28323W        W87760  21.545  35.471   3.154
28324W        W87761  41.961  15.219  13.889
28325W        W87762  35.872  21.544   0.844
28326W        W87763  40.408   2.890  14.499
28327W        W87764  25.042  30.918  12.523
28328W        W87765   2.873  33.423  13.881
28329W        W87766  25.665  43.471  12.071
28330W        W87767  40.377  29.071   2.873
28331W        W87768  33.490  34.564  10.590
28332W        W87769  18.193  28.938   1.764
28333W        W87770  17.768  19.208   0.738
28334W        W87771  38.960  15.694  13.978
28335W        W87772  27.090  14.598   4.159
28336W        W87773   0.948  16.616  12.827
28337W        W87774  11.646   3.872   1.233
28338W        W87775   2.939  41.965  13.855
28339W        W87776   2.459  37.491  12.036
28340W        W87777  41.483  44.756  10.497
28341W        W87778  23.687   5.428   2.305
28342W        W87779   9.213  38.394   4.205
28343W        W87780  31.415  31.998  13.864
28344W        W87781   6.357  44.879  13.061
28345W        W87782  24.069   2.306  11.374
28346W        W87783   0.859  17.721  13.979
28347W        W87784   9.667  43.514  12.020
28348W        W87785   9.781  35.971   4.713
28349W        W87786  13.670  22.202  12.914
28350W        W87787  25.109  28.105  13.062
28351W        W87788  18.240  28.446   3.234
28352W        W87789   8.340  19.643  10.956
28353W        W87790  41.374   0.818  10.588
28354W        W87791  20.207  34.454  11.537
28355W        W87792  11.830  25.174   2.411
28356W        W87793  31.629   3.451  13.991
28357W        W87794  38.075  30.145  12.348
28358W        W87795  32.481  12.131  13.350
28359W        W87796  18.214  29.068  13.446
28360W        W87797  20.083  10.777   2.238
28361W        W87798  30.057  21.570   5.717
28362W        W87799  17.564  37.471   5.297
28363W        W87800  17.162   3.459   0.897
28364W        W87801  20.242  23.067   4.244
28365W        W87802  13.829  39.469   5.721
28366W        W87803   3.375  39.815  11.407
28367W        W87804  41.846   0.494   3.870
28368W        W87805  33.897  10.765  12.468
28369W        W87806  25.156  25.704  11.512
28370W        W87807   6.706  29.554  11.459
28371W        W87808  33.436  11.325   4.776
28372W        W87809  23.056  42.775  11.916
28373W        W87810  21.215  16.252  11.918
28374W        W87811  21.690  38.924  12.473
28375W        W87812   7.683  29.095  13.962
28376W        W87813  32.522  24.018   2.863
28377W        W87814   6.794  11.197  10.913
28378W        W87815  25.116   9.749   2.243
28379W        W87816  39.851  24.174   0.305
28380W        W87817  27.584  40.435  11.863
28381W        W87818  41.926  26.101   3.842
28382W        W87819   9.745  29.589   1.741
28383W        W87820  41.015   8.757  13.315
28384W        W87821  26.180  43.857   4.184
28385W        W87822  25.489  16.660  13.976
28386W        W87823   5.414  39.493   0.743
28387W        W87824  43.805  36.988  11.952
28388W        W87825  39.551   8.885  13.537
28389W        W87826  12.140  11.342   4.642
28390W        W87827  36.929  29.966   4.624
28391W        W87828  20.693  42.454  10.440
28392W        W87829  20.681   0.909   1.390
28393W        W87830  24.064  18.153  11.583
28394W        W87831  43.844  22.660   0.383
28395W        W87832  29.479  33.002  10.524
28396W        W87833  29.929  17.121  12.350
28397W        W87834  33.561  16.690   4.717
28398W        W87835   9.203  34.557   1.309
28399W        W87836   7.370  40.002   3.222
28400W        W87837   9.707  44.468  12.006
28401W        W87838  18.061  38.390   3.357
28402W        W87839   2.965  40.006   0.449
28403W        W87840  10.354  10.766  12.472
28404W        W87841   5.737  37.838  13.797
28405W        W87842  41.312  38.905  11.114
28406W        W87843  42.512  17.669  12.533
28407W        W87844  35.462  24.035  11.929
28408W        W87845  25.079  12.761   4.821
28409W        W87846  22.242  29.452  13.003
28410W        W87847  10.269  13.750   3.302
28411W        W87848  19.114  28.620  14.028
28412W        W87849   5.216  20.061   1.428
28413W        W87850  32.580  31.621  13.401
28414W        W87851  18.279   5.359  11.596
28415W        W87852  12.691  24.682   0.352
28416W        W87853  32.456   4.432  14.361
28417W        W87854  35.537  35.910   0.298
28418W        W87855   3.912  41.995   0.735
28419W        W87856  29.541   0.936   0.354
28420W        W87857  11.287  20.210  11.871
28421W        W87858   2.869  11.706  13.908
28422W        W87859  30.060  17.712   3.275
28423W        W87860  41.802  35.037  10.959
28424W        W87861  33.386  22.704  12.415
28425W        W87862   9.202  34.974  13.008
28426W        W87863  43.445   1.482   0.465
28427W        W87864  23.523  39.834  10.635
28428W        W87865  34.904   7.768  12.069
28429W        W87866  43.300  10.210   2.811
28430W        W87867  24.104  29.165   2.373
28431W        W87868  13.318  15.204  12.959
28432W        W87869  26.085  40.843  13.839
28433W        W87870   5.738  25.532  12.044
28434W        W87871  27.121  17.116  11.083
28435W        W87872  13.115   1.446   2.840
28436W        W87873  38.534  30.107   3.729
28437W        W87874  17.689  44.463   2.248
28438W        W87875   7.676  43.400   3.847
28439W        W87876  23.016   5.693   3.741
28440W        W87877   0.979  29.515   2.840
28441W        W87878   1.967  27.958  14.895
28442W        W87879  24.497   5.354  13.498
28443W        W87880  36.929  28.562   1.730
28444W        W87881   7.873  15.324  10.410
28445W        W87882  44.420  20.109   3.155
28446W        W87883  25.628   1.787   4.619
28447W        W87884   6.209   1.455  14.479
28448W        W87885  21.712  37.855   2.705
28449W        W87886  18.151  13.612   4.683
28450W        W87887   6.400  38.979  10.116
28451W        W87888  44.961  36.939   9.673
28452W        W87889  33.953  44.425   3.743
28453W        W87890   4.929  12.322  11.909
28454W        W87891  26.051  40.491   3.814
28455W        W87892   1.939  37.438  10.511
28456W        W87893  39.448  20.079   0.753
28457W        W87894  26.052   5.222  13.525
28458W        W87895  39.497  41.297   0.269
28459W        W87896  11.366   1.909   1.434
28460W        W87897   9.728  10.244   0.483
28461W        W87898  11.282  11.685   4.221
28462W        W87899  18.704  19.259   4.830
28463W        W87900  31.920   2.272   0.799
28464W        W87901  28.160  13.842   0.924
28465W        W87902  15.095  35.950   4.710
28466W        W87903  31.513   4.877   2.746
28467W        W87904  43.407   4.306   1.932
28468W        W87905  10.222   0.433  14.949
28469W        W87906  25.677   6.284  10.904
28470W        W87907   4.304  20.565   1.777
28471W        W87908  30.993  42.817  13.920
28472W        W87909   2.939  31.497  12.007
28473W        W87910   7.384  15.816  10.626
28474W        W87911  34.050  43.789   0.824
28475W        W87912  40.368  19.231  14.884
28476W        W87913  35.936  28.953  13.030
28477W        W87914  32.929   2.383  12.019
28478W        W87915  36.378  42.440   0.842
28479W        W87916   7.329  32.139   2.329
28480W        W87917   8.734   6.808   0.327
28481W        W87918  18.683  22.033   3.165
28482W        W87919  23.124  29.094   3.197
28483W        W87920  20.682   1.766   3.663
28484W        W87921  28.931  19.277  12.998
28485W        W87922  38.913   7.793   3.848
28486W        W87923  41.357  28.137  11.127
28487W        W87924  33.458  16.187  10.461
28488W        W87925  40.007  26.517   5.150
28489W        W87926   0.477  26.100   2.684
28490W        W87927  32.927  18.139  11.507
28491W        W87928  30.599   9.652  11.927
28492W        W87929   1.479  32.472   2.850
28493W        W87930  20.073  14.188  12.512
28494W        W87931  23.679  42.825   2.261
28495W        W87932  17.765  37.980  14.794
28496W        W87933  15.697  10.656  14.990
28497W        W87934  20.242  22.246  11.594
28498W        W87935   5.710  28.943  12.014
28499W        W87936  41.014   4.721  10.559
28500W        W87937  20.212  12.197  11.927
28501W        W87938  38.565  18.054   4.248
28502W        W87939   7.343  12.682  12.470
28503W        W87940  27.014  10.189   4.829
28504W        W87941  24.489  40.391   3.839
28505W        W87942  34.579   0.339  11.979
28506W        W87943  38.532  16.775  11.542
28507W        W87944  30.938  22.736   2.666
28508W        W87945  23.091   3.361  11.090
28509W        W87946  14.700  38.519  14.786
28510W        W87947  31.409   0.256   4.765
28511W        W87948  44.993   8.725  12.024
28512W        W87949  34.369  39.342   1.740
28513W        W87950  37.540  33.446   2.181
28514W        W87951  19.616  41.365   3.694
28515W        W87952  44.321   4.407   1.906
28516W        W87953   6.362   6.773  11.088
28517W        W87954  14.801   3.348   3.722
28518W        W87955   5.333  28.657  11.400
28519W        W87956  10.218   2.781  12.384
28520W        W87957  29.939   8.727   2.383
28521W        W87958  36.389  34.045  13.382
28522W        W87959   4.750  22.597   0.261
28523W        W87960   0.779  35.464   4.121
28524W        W87961  18.624  12.222   3.366
28525W        W87962  42.875  21.517   4.604
28526W        W87963  24.643   4.742  14.796
28527W        W87964  14.175  23.076   3.785
28528W        W87965   0.919   6.422  12.498
28529W        W87966  33.398   5.710   2.297
28530W        W87967  43.278   2.429  10.430
28531W        W87968  33.101  32.520  13.797
28532W        W87969  26.193  11.686  14.014
28533W        W87970   0.788  26.032   0.912
28534W        W87971  43.913  17.166  14.514
28535W        W87972  41.413  40.883   4.249
28536W        W87973  41.835  12.798   3.206
28537W        W87974  31.068  10.217   1.869
28538W        W87975  38.867  36.505  13.816
28539W        W87976  39.476  23.632  13.841
28540W        W87977  28.027  18.786  14.474
28541W        W87978  39.421   9.187   1.759
28542W        W87979  30.503  12.697   0.871
28543W        W87980  16.099   7.345  12.060
28544W        W87981   6.255   2.743  12.932
28545W        W87982   1.773  20.644   0.966
28546W        W87983   1.851  44.900  11.560
28547W        W87984  17.213  19.746  10.032
28548W        W87985   1.899  39.870  13.425
28549W        W87986  38.991  24.717   2.702
28550W        W87987  17.656  31.085   0.730
28551W        W87988  11.205  10.240   4.266
28552W        W87989  14.738  15.272   2.864
28553W        W87990  18.789  26.079   1.445
28554W        W87991  26.191   1.755  12.091
28555W        W87992  23.181  34.390  11.414
28556W        W87993  14.263  22.069  11.434
28557W        W87994   3.796  22.186  14.310
28558W        W87995  27.558  23.043  13.354
28559W        W87996  38.427  11.637  12.363
28560W        W87997   0.950  39.974  14.465
28561W        W87998  29.485   8.719  13.012
28562W        W87999  21.561  13.816   2.857
28563W        W88000  31.991  27.460   3.656
28564W        W88001  13.148  26.968   3.712
28565W        W88002  15.304  35.884  12.950
28566W        W88003  25.148  41.297  12.073
28567W        W88004  12.642  29.457  12.439
28568W        W88005  18.152  40.951  13.900
28569W        W88006  42.384  11.755   0.274
28570W        W88007  36.582  14.250   3.257
28571W        W88008  31.117  19.104  11.558
28572W        W88009  34.981   0.847  13.797
28573W        W88010  43.436  19.548   1.243
28574W        W88011   6.912  18.603   3.641
28575W        W88012  42.914  32.637  12.383
28576W        W88013  21.167  44.880  14.981
28577W        W88014  18.728  23.579  13.405
28578W        W88015  27.960  22.167   3.279
28579W        W88016  14.609  30.461   4.688
28580W        W88017   7.255  37.985   0.278
28581W        W88018  38.000  22.215   4.177
28582W        W88019   5.237  11.809  12.004
28583W        W88020  21.094   9.862  12.825
28584W        W88021  28.127  44.456   3.848
28585W        W88022  36.879  42.449   2.890
28586W        W88023  34.918  21.233   3.387
28587W        W88024  42.451   1.747  14.397
28588W        W88025  40.425   4.795  13.325
28589W        W88026  21.633   4.322  14.453
28590W        W88027  37.950  24.183  14.358
28591W        W88028   8.783   1.442  10.565
28592W        W88029  37.533  38.941  11.888
28593W        W88030  16.300  22.589  10.591
28594W        W88031   6.797  27.055   5.728
28595W        W88032  27.168   1.251  11.503
28596W        W88033  17.178  35.428  14.965
28597W        W88034  43.995  21.701  10.539
28598W        W88035  41.955  20.696   2.850
28599W        W88036  23.691  17.566   1.240
28600W        W88037   8.674  23.198   3.775
28601W        W88038   1.389  16.607  13.323
28602W        W88039  44.449  23.143   3.739
28603W        W88040  31.036   2.299   2.773
28604W        W88041  11.688  21.073  13.450
28605W        W88042   9.801  26.651   3.757
28606W        W88043   1.343  18.716  12.020
28607W        W88044  16.771  14.779   5.120
28608W        W88045  17.594  18.105  12.560
28609W        W88046   7.380  41.933   0.833
28610W        W88047  18.641  14.653   1.255
28611W        W88048   1.959   8.899   3.315
28612W        W88049   7.176  44.935  13.325
28613W        W88050  11.751  35.890   0.352
28614W        W88051  16.268  11.159  14.013
28615W        W88052  44.877  25.174  12.886
28616W        W88053  35.005  34.099  13.060
28617W        W88054  42.848  28.179   0.480
28618W        W88055  30.105  30.075  11.448
28619W        W88056   4.360   1.376  12.958
28620W        W88057  26.571  33.939   1.845
28621W        W88058  38.844  14.709  14.972
28622W        W88059   3.818  19.769   0.810
28623W        W88060  18.661   3.242  12.889
28624W        W88061  43.453   3.955  11.067
28625W        W88062  25.556  22.537   0.829
28626W        W88063  11.356   0.954   0.377
28627W        W88064  41.823  19.252  11.551
28628W        W88065   6.689  17.074   2.863
28629W        W88066  30.145  20.579   3.341
28630W        W88067   5.756  39.981   2.769
28631W        W88068  18.739  19.099   3.723
28632W        W88069   2.464  20.628   4.779
28633W        W88070  35.994  12.210  13.993
28634W        W88071  16.729   7.394  10.949
28635W        W88072  17.270   6.870   3.250
28636W        W88073  44.286  39.889  13.896
28637W        W88074  33.574   8.816   4.346
28638W        W88075  38.966  31.995  14.920
28639W        W88076  10.803  34.409   4.230
28640W        W88077  36.444   6.268   0.842
28641W        W88078  14.226  15.093  13.889
28642W        W88079  22.702   3.721   0.362
28643W        W88080  39.868  33.000   1.408
28644W        W88081  41.010  43.918  10.524
28645W        W88082  39.539   0.254   4.202
28646W        W88083  38.006  40.948   5.192
28647W        W88084  12.347  40.932  11.095
28648W        W88085  29.512  37.947  11.514
28649W        W88086   4.927   7.681  14.919
28650W        W88087  12.763   3.437  12.472
28651W        W88088  42.298  34.479  13.933
28652W        W88089  24.598  37.339   0.434
28653W        W88090  23.493   4.833   4.749
28654W        W88091  22.071   3.245   3.387
28655W        W88092  33.434   6.829   3.762
28656W        W88093  31.002  15.812  12.370
28657W        W88094  24.231   1.385  12.077
28658W        W88095  35.862  23.172  10.470
28659W        W88096  38.960  37.881  12.935
28660W        W88097  17.218  42.787   3.750
28661W        W88098  32.438  29.665  12.540
28662W        W88099  39.953   1.752  13.467
28663W        W88100  15.687  27.179  13.431
28664W        W88101  13.105  17.684   4.742
28665W        W88102  18.128  28.493   4.837
28666W        W88103  29.603   3.921  13.829
28667W        W88104  42.392  33.385  10.997
28668W        W88105  42.499  42.019   3.297
28669W        W88106   6.823   6.802  14.454
28670W        W88107  42.896  26.581   3.209
28671W        W88108  36.376  35.512   4.774
28672W        W88109  25.709  20.559  13.841
28673W        W88110  39.056  35.052   2.271
28674W        W88111  21.091  30.515  10.535
28675W        W88112  13.636  11.737  14.446
28676W        W88113  27.092  31.968   0.415
28677W        W88114  10.244  20.765  14.818
28678W        W88115  34.401  41.878  13.996
28679W        W88116   1.320   8.326   4.245
28680W        W88117  22.742  15.136   0.853
28681W        W88118  41.535  26.621   0.284
28682W        W88119  14.335  21.755  10.923
28683W        W88120  15.784  32.983   4.603
28684W        W88121  21.633  35.951   4.241
28685W        W88122  44.468   1.948  14.775
28686W        W88123  12.190  11.293   2.803
28687W        W88124   9.867  12.621  10.955
28688W        W88125  19.589  30.163   0.929
28689W        W88126  13.301  14.665  11.976
28690W        W88127  41.849  34.385   1.326
28691W        W88128   5.310  16.091   0.311
28692W        W88129  22.008   1.464   4.832
28693W        W88130  40.395  41.040   0.962
28694W        W88131   1.401  22.655  11.504
28695W        W88132  21.750  39.940  12.369
28696W        W88133  38.510  10.753   1.336
28697W        W88134   9.705  24.508  11.378
28698W        W88135  35.898  20.151   4.277
28699W        W88136   0.746  26.002  10.557
28700W        W88137  22.582  43.492  12.951
28701W        W88138  20.612   5.932  14.454
28702W        W88139  26.527  15.309   2.717
28703W        W88140  16.760  42.478   1.423
28704W        W88141  24.600  33.540  11.411
28705W        W88142  28.642   4.780   4.252
28706W        W88143  10.272   4.391  10.049
28707W        W88144  42.464   8.397  12.430
28708W        W88145  31.897  31.999   3.661
28709W        W88146  31.033  30.468  12.472
28710W        W88147  21.687  28.993  12.881
28711W        W88148  43.429  13.698   0.927
28712W        W88149  25.489  28.115   1.315
28713W        W88150   5.831  31.961  13.907
28714W        W88151  44.007  22.559   1.722
28715W        W88152  19.238  38.523  12.993
28716W        W88153  32.597   7.286  10.006
28717W        W88154  31.486  27.086   1.399
28718W        W88155  33.112  18.266  13.975
28719W        W88156   8.272  25.492   0.296
28720W        W88157  31.974  19.178  10.498
28721W        W88158  29.990  14.278  11.561
28722W        W88159  42.426  21.167   2.718
28723W        W88160  35.489  40.547   0.784
28724W        W88161   4.773   1.794   2.385
28725W        W88162   2.250  44.832   3.669
28726W        W88163  39.911   5.823   2.842
28727W        W88164  26.488  41.507   0.385
28728W        W88165  35.531  30.641   1.786
28729W        W88166   3.873  15.627  12.931
28730W        W88167  27.575   2.395  13.500
28731W        W88168  41.337  33.072   3.867
28732W        W88169  21.513  11.260  12.347
28733W        W88170   1.898  32.900   1.826
28734W        W88171  18.163   2.242  13.048
28735W        W88172   2.735  44.423  10.506
28736W        W88173  33.469  22.221   3.358
28737W        W88174  21.710   2.962   0.433
28738W        W88175  27.001  20.694   2.215
28739W        W88176   3.764  34.905  11.492
28740W        W88177  29.990  28.666   4.708
28741W        W88178  36.461  41.933  10.060
28742W        W88179   7.411  16.640   0.307
28743W        W88180   9.643   6.335  11.015
28744W        W88181  38.386  22.111  11.931
28745W        W88182  25.512  36.952   2.737
28746W        W88183  30.613  36.422   2.683
28747W        W88184  38.877  40.431  14.497
28748W        W88185  10.861  43.278   0.269
28749W        W88186   1.900   5.429   1.913
28750W        W88187  11.652   7.894   2.790
28751W        W88188   0.927  24.031   3.301
28752W        W88189  33.604  43.485   9.959
28753W        W88190  15.225  17.606   4.240
28754W        W88191  10.365   7.784  14.012
28755W        W88192  41.816  23.190  10.502
28756W        W88193  40.877  23.188   3.797
28757W        W88194  15.630  33.410  10.528
28758W        W88195  36.876  36.040  12.831
28759W        W88196  42.512  22.621  14.450
28760W        W88197   4.293  32.095   2.663
28761W        W88198  42.790  30.518   4.716
28762W        W88199  41.514  26.669   3.165
28763W        W88200   6.270  11.854   0.895
28764W        W88201  18.103  10.694   0.939
28765W        W88202   2.274   7.239   1.274
28766W        W88203  10.383  21.628   1.432
28767W        W88204  29.982  35.987   0.793
28768W        W88205  31.557  31.641   2.797
28769W        W88206  22.690  43.324   4.707
28770W        W88207   7.702  41.370   1.413
28771W        W88208   6.689  17.607   3.179
28772W        W88209  28.968  44.477   3.293
28773W        W88210  23.730  27.050  10.443
28774W        W88211  44.937   6.791  12.473
28775W        W88212  10.290  15.587   3.636
28776W        W88213  28.461  24.154   9.561
28777W        W88214   7.370  33.567   3.708
28778W        W88215  35.977  17.092  14.424
28779W        W88216  13.207  15.820  12.862
28780W        W88217  21.163  18.770   3.319
28781W        W88218   8.323  17.575   1.707
28782W        W88219  28.602   0.981  13.853
28783W        W88220  21.677  42.957   1.830
28784W        W88221  35.985  38.067  10.546
28785W        W88222  10.324   9.180  13.031
28786W        W88223  16.189  19.555   2.770
28787W        W88224  33.014  19.675   4.220
28788W        W88225   9.259  24.165   4.306
28789W        W88226  26.679  13.699  11.451
28790W        W88227  34.584  20.627   1.774
28791W        W88228   3.785  22.721  14.377
28792W        W88229  30.102  36.528  14.810
28793W        W88230  24.493  11.768  14.943
28794W        W88231  42.918  34.924   2.793
28795W        W88232   8.831  39.894   0.834
28796W        W88233  32.444  44.924   3.868
28797W        W88234  15.781  43.396  10.496
28798W        W88235   9.238  15.126   2.390
28799W        W88236  19.078  38.026  10.436
28800W        W88237  17.107  22.537   4.715
28801W        W88238  37.566  33.593   3.754
28802W        W88239  37.853  36.036  10.986
28803W        W88240  31.142   5.304   3.186
28804W        W88241  39.558  23.098   1.825
28805W        W88242  24.142  18.208  12.580
28806W        W88243  13.330  43.354  10.610
28807W        W88244  11.274  38.379   0.793
28808W        W88245   3.360  17.713   0.449
28809W        W88246  32.133  16.668  11.584
28810W        W88247  27.591  22.673   9.501
28811W        W88248  28.544  41.426   1.281
28812W        W88249   8.298   2.269   3.764
28813W        W88250  12.636  21.736   1.775
28814W        W88251  10.308  31.466   1.905
28815W        W88252  11.775   4.885   4.665
28816W        W88253  31.546  44.972  13.518
28817W        W88254  17.699  14.619   3.679
28818W        W88255  30.944  15.125   3.185
28819W        W88256  23.720  17.736   0.780
28820W        W88257  15.280  10.380  12.500
28821W        W88258  43.332   7.866   4.135
28822W        W88259  13.797  18.239  14.970
28823W        W88260   6.324  38.944   1.709
28824W        W88261   0.352  25.183   4.211
28825W        W88262  34.585  40.324   3.269
28826W        W88263  27.632  13.293   2.762
28827W        W88264  23.125  40.502   1.812
28828W        W88265  31.915  34.995  12.926
28829W        W88266   1.896  11.263   2.321
28830W        W88267  11.365  27.143  12.541
28831W        W88268   8.880   8.389  12.525
28832W        W88269  24.633   6.373   4.222
28833W        W88270   3.919  23.241  11.517
28834W        W88271  10.699  24.514  13.323
28835W        W88272  37.423  11.653   0.463
28836W        W88273  13.695   0.746  10.959
28837W        W88274   1.820  13.231   9.980
28838W        W88275   4.311   4.769   0.479
28839W        W88276   4.266   8.242  14.351
28840W        W88277  31.135  42.392  11.904
28841W        W88278  29.043  21.251   4.285
28842W        W88279  17.612  35.028  10.624
28843W        W88280  29.168  37.499   5.215
28844W        W88281  39.028  35.480   3.235
28845W        W88282  30.444  37.580   4.142
28846W        W88283   7.855   3.934  13.882
28847W        W88284  17.747  14.336  10.982
28848W        W88285   1.439  24.603  14.801
28849W        W88286   1.816  12.291   9.668
28850W        W88287   5.783  22.202   2.213
28851W        W88288   9.235  31.582   3.281
28852W        W88289   2.816  18.659   2.751
28853W        W88290  12.805  28.672   1.307
28854W        W88291   5.906  38.987  11.412
28855W        W88292  21.754   9.859   4.185
28856W        W88293  43.942   8.754   0.453
28857W        W88294   3.868  40.962   2.271
28858W        W88295  21.649  30.619   3.780
28859W        W88296   9.679   5.266  11.032
28860W        W88297   5.393   6.294  14.353
28861W        W88298  14.792  23.990   1.795
28862W        W88299  30.112  39.960  14.886
28863W        W88300   1.414   5.838   4.181
28864W        W88301   6.726  16.147   2.260
28865W        W88302  21.179  43.013   2.806
28866W        W88303  10.688   9.680  14.876
28867W        W88304   2.308  13.803  13.995
28868W        W88305   5.931  17.100  10.558
28869W        W88306  26.586  41.501   2.685
28870W        W88307  44.929  15.766  11.505
28871W        W88308  12.689  43.767   0.959
28872W        W88309  17.238   1.435   0.479
28873W        W88310  36.026  12.620  10.620
28874W        W88311  30.087   2.412   4.708
28875W        W88312  33.981   9.884   2.838
28876W        W88313  20.594  25.663   2.286
28877W        W88314  31.578  18.755  11.548
28878W        W88315  17.676  36.995  12.580
28879W        W88316   4.826  44.798   4.809
28880W        W88317  25.677   6.748  12.568
28881W        W88318   9.807  10.817  14.762
28882W        W88319  15.289  33.447   4.655
28883W        W88320   9.262  36.054  13.440
28884W        W88321  27.142   4.817   4.248
28885W        W88322   5.369  40.390  11.105
28886W        W88323  12.715  15.271   0.768
28887W        W88324   0.427   5.416  14.427
28888W        W88325  12.839  37.553   0.841
28889W        W88326  38.901  27.664  12.953
28890W        W88327   0.316  44.497  13.439
28891W        W88328  11.808   1.465   0.428
28892W        W88329   2.828  41.442  13.447
28893W        W88330  36.911  19.099   3.312
28894W        W88331  27.550  43.327   0.276
28895W        W88332  43.869  21.563   0.898
28896W        W88333  40.002   5.403   2.218
28897W        W88334  32.959  13.701   1.393
28898W        W88335  13.163  28.041   0.327
28899W        W88336  40.316  31.473   2.181
28900W        W88337  26.101   7.669   3.730
28901W        W88338   9.727  44.267   3.656
28902W        W88339   1.873  32.014   2.258
28903W        W88340   0.357  32.558   2.362
28904W        W88341  34.570   5.326  12.348
28905W        W88342   3.947   1.820  14.390
28906W        W88343   8.286   4.325   4.824
28907W        W88344  36.365  22.729  13.408
28908W        W88345   5.876  25.153   0.314
28909W        W88346  38.520  27.056  13.834
28910W        W88347  19.092  18.120   4.278
28911W        W88348  10.876  33.061   3.192
28912W        W88349  18.116   2.944  12.936
28913W        W88350  36.918  37.581  13.928
28914W        W88351  20.077  37.008   3.668
28915W        W88352  20.106  32.095   4.634
28916W        W88353  20.050   9.338   0.935
28917W        W88354  15.213  26.586  13.054
28918W        W88355  25.116  40.323   2.270
28919W        W88356  16.737  37.416  12.577
28920W        W88357  35.421  17.166   4.144
28921W        W88358  39.444   9.229  14.842
28922W        W88359   6.810  15.151   0.775
28923W        W88360  35.391  34.549   1.741
28924W        W88361  19.252   1.299   2.835
28925W        W88362   8.168   7.187  11.103
28926W        W88363  31.635  33.548   3.197
28927W        W88364  42.857   1.882  13.373
28928W        W88365  22.746  35.990  11.430
28929W        W88366  28.524  16.778   1.409
28930W        W88367  27.941  23.009  13.439
28931W        W88368  37.361   5.421  11.552
28932W        W88369  40.892  38.860  14.915
28933W        W88370   0.924  35.856   2.228
28934W        W88371  30.549  40.838   0.937
28935W        W88372  25.184   2.272   4.195
28936W        W88373  26.502   1.449   2.319
28937W        W88374  24.645   4.281  13.061
28938W        W88375  32.542  32.580  13.866
28939W        W88376  18.129  29.532  11.861
28940W        W88377  41.933  13.351   0.901
28941W        W88378  25.674  16.169   5.651
28942W        W88379  27.521   7.264   4.832
28943W        W88380   4.322   9.722  12.526
28944W        W88381   2.391  26.521   3.752
28945W        W88382  32.496   4.900   3.336
28946W        W88383  15.667  33.570   0.747
28947W        W88384  39.008  18.742   1.338
28948W        W88385  44.881  35.866   1.436
28949W        W88386  18.211  35.029  10.418
28950W        W88387  11.713  14.098  10.631
28951W        W88388   8.706  42.391  14.943
28952W        W88389   7.843  39.029   1.853
28953W        W88390  38.330   1.784   4.808
28954W        W88391  19.093  26.122   4.346
28955W        W88392  16.697  34.587   0.862
28956W        W88393   1.345  30.114  14.411
28957W        W88394  43.432  19.272  14.315
28958W        W88395  14.230  17.559   1.320
28959W        W88396  10.682   3.807   1.906
28960W        W88397  39.495   2.238   4.731
28961W        W88398  26.206   2.939   0.477
28962W        W88399  28.611  23.065  12.001
28963W        W88400  17.617  23.123   4.658
28964W        W88401  43.446  22.507  10.556
28965W        W88402  23.235  39.867   1.724
28966W        W88403  34.613  35.529  14.291
28967W        W88404  22.092  27.114   4.648
28968W        W88405  11.860  26.033  10.545
28969W        W88406   0.309  10.330   0.794
28970W        W88407   9.716  23.134  10.533
28971W        W88408   5.864   8.898  14.854
28972W        W88409  21.670  15.119  14.381
28973W        W88410  16.601   6.730  10.607
28974W        W88411  23.020  17.788   1.441
28975W        W88412  39.352   4.759   4.672
28976W        W88413  19.278  13.819   0.797
28977W        W88414  13.159  10.675   3.354
28978W        W88415  44.886  26.021  10.492
28979W        W88416   4.936  30.573   1.754
28980W        W88417   5.260  10.874  11.955
28981W        W88418  32.998   3.915  14.954
28982W        W88419  25.004   0.338   4.221
28983W        W88420  23.113  31.487   1.396
28984W        W88421  23.612   6.377   3.333
28985W        W88422  25.557  23.178   1.804
28986W        W88423  19.198  19.777   3.850
28987W        W88424  17.704  18.551   1.366
28988W        W88425   0.893  34.508  12.446
28989W        W88426  27.527  23.066   3.778
28990W        W88427  19.203   4.864  13.010
28991W        W88428  41.354  14.118   3.380
28992W        W88429  37.058  22.694   3.646
28993W        W88430  36.988   3.237  11.458
28994W        W88431  33.953  14.314   1.791
28995W        W88432  23.634  42.980   5.177
28996W        W88433   7.669   1.441   2.400
28997W        W88434  29.964   8.295  11.468
28998W        W88435  28.973   2.292  12.034
28999W        W88436   7.895   5.717  13.537
29000W        W88437  24.983  36.420   4.150
29001W        W88438  28.090  17.290   3.711
29002W        W88439  23.495   2.278  13.854
29003W        W88440  16.661  24.721  13.943
29004W        W88441  38.867   7.866  10.528
29005W        W88442   4.899  14.692   0.483
29006W        W88443  29.441  32.605   3.742
29007W        W88444  41.941  35.504   3.718
29008W        W88445  20.117   1.355   1.222
29009W        W88446   1.880  34.529   2.836
29010W        W88447  40.962   9.824   2.226
29011W        W88448  25.605   1.270  14.980
29012W        W88449  39.964  25.517   4.351
29013W        W88450  34.010  41.804  10.628
29014W        W88451  43.013  18.069  11.488
29015W        W88452   4.720  43.286  13.967
29016W        W88453  14.107  35.397   0.906
29017W        W88454  43.423  19.095  11.917
29018W        W88455   7.409  17.631   1.288
29019W        W88456   7.903   2.858  12.954
29020W        W88457   8.174  28.053  12.562
29021W        W88458  36.001  17.265  14.962
29022W        W88459  42.982  44.935  13.402
29023W        W88460   3.831  37.357   1.439
29024W        W88461  24.145  16.259   4.238
29025W        W88462  15.088  26.458   4.831
29026W        W88463  15.810  37.426   4.613
29027W        W88464  44.982  37.498   5.275
29028W        W88465  14.200  25.590  13.875
29029W        W88466  41.460  37.933  12.536
29030W        W88467  39.894  39.502   4.157
29031W        W88468  29.549  10.328  10.527
29032W        W88469  24.205   9.242   0.932
29033W        W88470  30.534  40.960  10.518
29034W        W88471  24.072  34.951   2.244
29035W        W88472  44.304  15.194   1.758
29036W        W88473   4.372  28.091  14.386
29037W        W88474   2.890   9.354   0.429
29038W        W88475  34.024  36.878   0.453
29039W        W88476  17.571   6.827   4.151
29040W        W88477  35.016   8.337   0.242
29041W        W88478  26.955   5.419  12.574
29042W        W88479  15.193  43.831   1.347
29043W        W88480  40.034  11.159  10.632
29044W        W88481   3.246  39.063   3.788
29045W        W88482   0.967  18.091   4.271
29046W        W88483   0.821  35.542   3.661
29047W        W88484  17.588  37.993  13.045
29048W        W88485  26.650  32.453   2.671
29049W        W88486  39.935  37.000   2.284
29050W        W88487  27.066  34.058   3.700
29051W        W88488   3.374  18.168   1.928
29052W        W88489   0.382  42.361   1.253
29053W        W88490  21.529  19.779   3.233
29054W        W88491  23.012  19.104  14.946
29055W        W88492  28.176  39.347   4.635
29056W        W88493   6.762  16.100   3.824
29057W        W88494  32.637   7.788   0.460
29058W        W88495  38.519  19.078  12.965
29059W        W88496  35.498  10.234  13.407
29060W        W88497   4.400  25.533  14.304
29061W        W88498  37.449   8.398  10.447
29062W        W88499  36.509  20.697  10.494
29063W        W88500  30.048  12.807   1.384
29064W        W88501  11.371  34.431  12.424
29065W        W88502  26.131  34.587  11.905
29066W        W88503  38.509  21.155   0.411
29067W        W88504  10.856  36.514   4.723
29068W        W88505  12.824  35.108   0.875
29069W        W88506  34.922   8.786   2.759
29070W        W88507   0.846  32.565  12.354
29071W        W88508  39.935   0.264   3.632
29072W        W88509  22.529   1.936  12.046
29073W        W88510  28.644   2.805   0.796
29074W        W88511  27.009   7.847  13.825
29075W        W88512  41.939  29.159  11.451
29076W        W88513   0.759  32.895   0.843
29077W        W88514  10.277  16.304   1.909
29078W        W88515  14.793   0.808  13.328
29079W        W88516  19.583  35.379   3.774
29080W        W88517  25.467  31.949   2.712
29081W        W88518  28.966   0.397   4.740
29082W        W88519  30.073  41.822  11.970
29083W        W88520  12.787  20.563  11.958
29084W        W88521  27.678  10.348   2.717
29085W        W88522  30.533  14.732  12.481
29086W        W88523  40.522  41.513  12.890
29087W        W88524  26.578  20.207  13.961
29088W        W88525   1.975   8.716  14.914
29089W        W88526  37.058  12.808   1.225
29090W        W88527   4.736  35.370  12.361
29091W        W88528  24.577   3.920   3.283
29092W        W88529  32.997  38.445   3.267
29093W        W88530  44.384  21.580   4.217
29094W        W88531  43.876  26.542  11.554
29095W        W88532  37.469  32.399   4.619
29096W        W88533  26.158  13.642   4.215
29097W        W88534   4.403  17.113   0.952
29098W        W88535  21.052  31.420  12.028
29099W        W88536  12.629  21.191   1.875
29100W        W88537   6.287   5.220  13.337
29101W        W88538  27.052  38.925  11.508
29102W        W88539   2.765  10.219   1.858
29103W        W88540   7.408  15.668   4.220
29104W        W88541  20.264  16.186   0.745
29105W        W88542  41.833  25.535   0.349
29106W        W88543  20.066  34.884  10.425
29107W        W88544  42.959  43.911  10.611
29108W        W88545   8.225  34.990  13.030
29109W        W88546   2.938   1.412  12.548
29110W        W88547  31.539  35.070   1.856
29111W        W88548  32.118  42.484   0.309
29112W        W88549  14.662  24.565   1.696
29113W        W88550  19.041  17.558   1.759
29114W        W88551  15.728  22.621   2.333
29115W        W88552   1.408   4.940   0.314
29116W        W88553  18.267   6.708  14.415
29117W        W88554  25.606  25.200  14.016
29118W        W88555   6.746  22.117   1.324
29119W        W88556  14.330  12.638  11.061
29120W        W88557  35.366  43.364   4.242
29121W        W88558  33.498  15.088  11.577
29122W        W88559  30.997  34.048   2.678
29123W        W88560  20.197  35.905   0.260
29124W        W88561  25.158  19.604  14.302
29125W        W88562  34.031  40.843   0.472
29126W        W88563  21.250  21.546   5.737
29127W        W88564  17.616  17.293   5.290
29128W        W88565  24.148   6.822   4.659
29129W        W88566  24.119   7.896  14.383
29130W        W88567  26.685   1.409   1.264
29131W        W88568  10.369  34.418   5.086
29132W        W88569  23.999   9.274  14.347
29133W        W88570   4.290  23.072   3.735
29134W        W88571  26.199  10.166  14.985
29135W        W88572  41.933  12.699  11.440
29136W        W88573  29.577  33.446   3.727
29137W        W88574  10.677  33.967  11.984
29138W        W88575  40.990  25.049  10.928
29139W        W88576  41.420  25.182   1.811
29140W        W88577   9.263  28.558   3.156
29141W        W88578  25.081  33.982  13.542
29142W        W88579  24.179  27.605  13.321
29143W        W88580  12.183  12.220  14.335
29144W        W88581  23.229  33.607  13.889
29145W        W88582   7.189  43.954   0.963
29146W        W88583   5.741  11.289  13.956
29147W        W88584  15.764  24.669   2.866
29148W        W88585  27.451  36.929   1.913
29149W        W88586  36.883  24.022  11.068
29150W        W88587  24.152  29.562  14.820
29151W        W88588  19.640  16.671   1.437
29152W        W88589  11.811   4.405   1.800
29153W        W88590   5.294  39.854  14.815
29154W        W88591  11.730  30.075  11.067
29155W        W88592  16.228   7.801   3.694
29156W        W88593   6.836  31.456   4.791
29157W        W88594  24.159  30.087   4.345
29158W        W88595  19.658  31.597   0.359
29159W        W88596  24.485   7.757   0.879
29160W        W88597  27.031   1.412   2.375
29161W        W88598  36.923  28.011   2.368
29162W        W88599   6.420   1.870  13.957
29163W        W88600  32.525  25.052   4.114
29164W        W88601  27.632  12.139  13.008
29165W        W88602  18.592  32.035   4.652
29166W        W88603  14.272  40.976   1.307
29167W        W88604  38.445  44.957   4.261
29168W        W88605   5.772  32.502   0.301
29169W        W88606  40.983  30.021   3.318
29170W        W88607  20.593  35.009   0.805
29171W        W88608  24.171   5.707  11.043
29172W        W88609  40.049  17.708   4.214
29173W        W88610  17.264   6.701  12.905
29174W        W88611  37.933   7.199   1.753
29175W        W88612  42.493  26.038  12.971
29176W        W88613  30.438   6.206  13.922
29177W        W88614  10.745  40.446  14.502
29178W        W88615  12.749  36.851   1.346
29179W        W88616   1.428  14.198  11.894
29180W        W88617  12.765  42.957   2.405
29181W        W88618  14.329  44.974  14.280
29182W        W88619  18.239  25.078   5.256
29183W        W88620   3.245  36.985   4.617
29184W        W88621  18.642  22.643   2.690
29185W        W88622   8.313  38.845  14.399
29186W        W88623  12.194  43.851   2.185
29187W        W88624  10.859   6.364   0.919
29188W        W88625   3.355  22.114  14.765
29189W        W88626  27.112   1.925   0.966
29190W        W88627  35.045   2.247  14.426
29191W        W88628  38.070  22.178  13.997
29192W        W88629  39.030  19.540  13.834
29193W        W88630  40.970   7.296   0.446
29194W        W88631   0.470  27.476  10.605
29195W        W88632  37.539  41.037  14.292
29196W        W88633  34.413  12.358  14.001
29197W        W88634  35.063  17.068   5.147
29198W        W88635  22.556  17.607  13.348
29199W        W88636   3.905  27.013  10.967
29200W        W88637  21.212  13.764   2.682
29201W        W88638  20.759  19.178   4.153
29202W        W88639  16.721  28.447   4.722
29203W        W88640  30.097  31.976   3.650
29204W        W88641  32.131  32.109  10.999
29205W        W88642   3.796  27.987  14.983
29206W        W88643   6.393   1.935   0.333
29207W        W88644  26.103  36.990  14.801
29208W        W88645  32.138  44.482   0.380
29209W        W88646  17.746  42.527   1.714
29210W        W88647  31.028  39.497  14.284
29211W        W88648  17.220  23.523   2.754
29212W        W88649   7.198  16.722   2.359
29213W        W88650  39.941  34.102  11.978
29214W        W88651  35.500  39.917  10.132
29215W        W88652   1.433  19.729  14.916
29216W        W88653  22.529  20.208   3.228
29217W        W88654  38.438  40.422  12.461
29218W        W88655  25.026   5.390  11.937
29219W        W88656  32.017  43.014  11.419
29220W        W88657  31.455  15.315   2.810
29221W        W88658   8.685  22.168  14.493
29222W        W88659  38.492  21.566   3.155
29223W        W88660  25.571  35.516  11.917
29224W        W88661  18.714  36.096   1.827
29225W        W88662   0.422  16.150   0.351
29226W        W88663  29.461  36.862   4.245
29227W        W88664  12.295   5.417  11.882
29228W        W88665  12.613  30.425  12.380
29229W        W88666  42.414  31.046   1.823
29230W        W88667  44.371  12.259   4.171
29231W        W88668  28.466  19.134   2.245
29232W        W88669  39.415   5.916  12.945
29233W        W88670  12.204  11.158  13.504
29234W        W88671  16.163  16.159   4.709
29235W        W88672  39.813  38.971   2.265
29236W        W88673  18.740  42.912  14.023
29237W        W88674  26.071  32.476  11.887
29238W        W88675   3.784   2.783   0.353
29239W        W88676  11.773  29.130   1.867
29240W        W88677  13.295  40.985   1.732
29241W        W88678  33.404  30.501  10.048
29242W        W88679  19.259  28.034   1.405
29243W        W88680  16.202  11.624   2.758
29244W        W88681  44.807  24.173   0.927
29245W        W88682  10.794  20.623  11.373
29246W        W88683  24.144  39.976   3.382
29247W        W88684  26.698  12.840   0.783
29248W        W88685  38.846  23.662  10.989
29249W        W88686   0.416  30.564   2.709
29250W        W88687  43.821  24.518  12.341
29251W        W88688  12.150  43.331  12.996
29252W        W88689   3.809  21.187  14.794
29253W        W88690  40.035   1.928   3.825
29254W        W88691   0.353   7.701   3.198
29255W        W88692  36.981  33.095  11.939
29256W        W88693  25.061  30.444   3.757
29257W        W88694   7.744  20.137   0.401
29258W        W88695  21.170   6.247   0.904
29259W        W88696  14.641  19.218  10.489
29260W        W88697   8.394  41.005   0.805
29261W        W88698  11.149  37.885   4.733
29262W        W88699  15.107  41.456  10.575
29263W        W88700  36.494  17.775   0.912
29264W        W88701  32.572  24.128  11.374
29265W        W88702  20.249  30.098  14.502
29266W        W88703  24.018   7.290  10.570
29267W        W88704   5.764   4.248  12.379
29268W        W88705  42.875  11.863   1.904
29269W        W88706   3.228   7.830  12.466
29270W        W88707   6.699  10.330   0.250
29271W        W88708  41.022  30.107   3.636
29272W        W88709   7.796  36.349   2.780
29273W        W88710   4.776  11.345   9.457
29274W        W88711  14.106  36.027   4.221
29275W        W88712  39.455   6.372   4.136
29276W        W88713  11.281  16.681   3.779
29277W        W88714  16.073  27.989   0.262
29278W        W88715  27.039  16.567  11.116
29279W        W88716   9.233   5.370   4.633
29280W        W88717  26.095  39.420   9.998
29281W        W88718  39.519  34.040  12.091
29282W        W88719  33.595  43.433  12.928
29283W        W88720  43.394   2.946  11.470
29284W        W88721   3.857  24.506   3.736
29285W        W88722  38.451  17.159   3.202
29286W        W88723  19.187  42.962   0.479
29287W        W88724   1.264  39.873  10.538
29288W        W88725  15.796  24.130  12.984
29289W        W88726  44.268   6.786   3.213
29290W        W88727   2.378  44.404   1.326
29291W        W88728  31.093   4.271  11.090
29292W        W88729  26.206  35.503  12.952
29293W        W88730  23.658  38.000  11.085
29294W        W88731  39.475   5.254  10.412
29295W        W88732  42.426  13.673  13.440
29296W        W88733   8.317  41.860   4.623
29297W        W88734  12.619  20.165   2.178
29298W        W88735  13.154  26.048   1.375
29299W        W88736  29.543  13.150   1.426
29300W        W88737  28.458  33.028  12.477
29301W        W88738   3.381   8.884  14.413
29302W        W88739  21.536   1.739   4.175
29303W        W88740   8.895  12.792  10.088
29304W        W88741   2.914   6.310  12.856
29305W        W88742   7.334  13.746  10.980
29306W        W88743  44.909  33.024  13.881
29307W        W88744  38.056  15.087   1.308
29308W        W88745  20.559  18.115   1.769
29309W        W88746  41.358  33.410  14.305
29310W        W88747  36.860  44.452  10.908
29311W        W88748  31.566  20.040  14.347
29312W        W88749  22.727  29.438  14.825
29313W        W88750  15.741   0.487   3.151
29314W        W88751   4.925   0.407  14.027
29315W        W88752  39.554  16.660  12.987
29316W        W88753  22.176  17.764  14.936
29317W        W88754  13.316  37.948  12.571
29318W        W88755  43.914  18.708  13.308
29319W        W88756  43.021   7.816   2.768
29320W        W88757  39.989  22.670  12.886
29321W        W88758  13.678  14.758  14.402
29322W        W88759  26.187  20.126   4.319
29323W        W88760  33.003  21.540  11.965
29324W        W88761  44.759  33.522  12.469
29325W        W88762  36.560  13.299   0.774
29326W        W88763  37.954  19.271   0.821
29327W        W88764  42.389   9.758   4.338
29328W        W88765  14.127  19.716  14.835
29329W        W88766  13.135  10.258  13.480
29330W        W88767  23.104  23.629   0.336
29331W        W88768  20.574  14.664  14.759
29332W        W88769   1.826   2.889   0.777
29333W        W88770   6.277  31.033   4.328
29334W        W88771  39.037   8.384   2.309
29335W        W88772  38.530  34.891  14.919
29336W        W88773  33.486  43.895   2.255
29337W        W88774  25.122  20.598  14.965
29338W        W88775  43.946   5.317  14.918
29339W        W88776  23.194  14.215  10.620
29340W        W88777  31.624  36.417  11.608
29341W        W88778  23.023  20.044  14.447
29342W        W88779  44.377  32.517   4.828
29343W        W88780  25.553  41.530  11.053
29344W        W88781  16.771  21.188   0.333
29345W        W88782  12.769  30.002  13.394
29346W        W88783  27.079   6.829   1.782
29347W        W88784  35.444  25.621  14.854
29348W        W88785  21.661  42.023   2.767
29349W        W88786  32.407  39.839  13.365
29350W        W88787  43.944  24.060   2.790
29351W        W88788   1.875  15.295   2.739
29352W        W88789  44.981  21.210   4.614
29353W        W88790  29.092  26.092  13.995
29354W        W88791  10.231   8.367  11.047
29355W        W88792  25.613  24.148   1.697
29356W        W88793  27.470  12.775  13.530
29357W        W88794   6.413  20.538  12.896
29358W        W88795   3.931  35.108  14.425
29359W        W88796   7.216  35.483   0.772
29360W        W88797   3.740  40.526  12.877
29361W        W88798  24.008  32.611   2.676
29362W        W88799  32.893   3.291  12.990
29363W        W88800  12.125   4.861   3.238
29364W        W88801   3.896  18.251   2.868
29365W        W88802  15.114   0.821   0.817
29366W        W88803  10.322   6.795  13.040
29367W        W88804   8.844  23.015  11.969
29368W        W88805   5.244   6.362   4.305
29369W        W88806  36.396  23.606   4.607
29370W        W88807  25.179  37.912  12.965
29371W        W88808  33.106  22.143  13.435
29372W        W88809   4.220   5.911   4.730
29373W        W88810   8.796  29.027  10.460
29374W        W88811  26.127   6.410   0.367
29375W        W88812  24.086  23.592   4.208
29376W        W88813  30.426  40.399   0.422
29377W        W88814  37.087  42.792   5.173
29378W        W88815  16.743  24.973   2.339
29379W        W88816  14.606  17.063  11.052
29380W        W88817  44.941   0.799  13.979
29381W        W88818  15.193   9.645  10.569
29382W        W88819   4.768  39.005   4.721
29383W        W88820  19.779  39.843   0.276
29384W        W88821  25.052  30.074  10.955
29385W        W88822  34.103  12.234  11.053
29386W        W88823  27.174  32.517  11.884
29387W        W88824  10.652  41.515   1.717
29388W        W88825  10.752  37.456   0.302
29389W        W88826   5.276   6.843  12.883
29390W        W88827   2.721  10.851   2.727
29391W        W88828   3.775  40.906  13.906
29392W        W88829  13.217  23.565   2.338
29393W        W88830   9.234  25.654   2.178
29394W        W88831  12.663  26.664   4.622
29395W        W88832   9.151  31.949  11.560
29396W        W88833  16.756  26.143   0.913
29397W        W88834  22.080  20.047  11.007
29398W        W88835  15.090  35.879  11.944
29399W        W88836   7.701  27.490   3.357
29400W        W88837  14.126  31.559  13.398
29401W        W88838   4.351  30.577   0.261
29402W        W88839  10.242  35.500  11.067
29403W        W88840  17.753  32.965  12.871
29404W        W88841  26.009   2.434  12.509
29405W        W88842  14.743   4.781   0.812
29406W        W88843  21.068  31.926   4.183
29407W        W88844  12.221  34.539  14.914
29408W        W88845  11.221   6.235  12.889
29409W        W88846  24.543   3.931   1.383
29410W        W88847  17.274   0.754  13.838
29411W        W88848  39.332  44.429   0.738
29412W        W88849  24.140  10.305   1.769
29413W        W88850   6.759  41.953  12.508
29414W        W88851  12.132   6.390  14.894
29415W        W88852  26.010   5.207  10.545
29416W        W88853  40.053  23.705   4.113
29417W        W88854   7.198  33.514  12.978
29418W        W88855  27.477  30.045  12.977
29419W        W88856  44.861   9.156   3.647
29420W        W88857  22.583   7.309  10.510
29421W        W88858  18.219  25.508  11.423
29422W        W88859   9.269   5.794  13.490
29423W        W88860  25.487  11.251   0.871
29424W        W88861  37.432  19.696   3.801
29425W        W88862  31.459  23.069  12.463
29426W        W88863   9.767  25.526  12.048
29427W        W88864  30.029   9.215   4.820
29428W        W88865   3.946   1.408  12.093
29429W        W88866  33.904   2.774   4.306
29430W        W88867  33.954   4.414   3.387
29431W        W88868  23.527  11.740  10.015
29432W        W88869  39.428   3.236  12.397
29433W        W88870  44.790   1.844   4.835
29434W        W88871  30.566  14.713  10.532
29435W        W88872  11.772  12.246   1.909
29436W        W88873  40.926  21.244  14.363
29437W        W88874  20.039   3.851   3.313
29438W        W88875   5.346  39.016  10.466
29439W        W88876  16.189  36.580   0.437
29440W        W88877  34.053  12.319   3.650
29441W        W88878  27.655  34.114   0.844
29442W        W88879  42.987  39.414   4.117
29443W        W88880  33.006  22.712  12.093
29444W        W88881  20.033  40.318   4.298
29445W        W88882  25.030  41.849   0.877
29446W        W88883  10.199  17.223   4.643
29447W        W88884  15.216  33.117   4.725
29448W        W88885  11.208   9.656   0.271
29449W        W88886  12.618  14.673  11.534
29450W        W88887  34.421   1.322  11.561
29451W        W88888   9.814  43.860  14.853
29452W        W88889  21.633  28.080   2.354
29453W        W88890  11.152   5.851  11.404
29454W        W88891  13.608  27.972   2.371
29455W        W88892  40.377   3.219  14.433
29456W        W88893  28.989  24.558   1.326
29457W        W88894   7.359  34.947  13.413
29458W        W88895  16.225  27.998   2.812
29459W        W88896   4.747   2.385   2.418
29460W        W88897  37.004  12.248   2.246
29461W        W88898   7.667  16.150  14.300
29462W        W88899  26.498  23.101   5.233
29463W        W88900  19.071  21.701  13.496
29464W        W88901   0.314   1.923   0.801
29465W        W88902   7.285  21.717   1.880
29466W        W88903   9.348   2.311  14.829
29467W        W88904  37.576  22.235   4.119
29468W        W88905  22.175  11.656   2.850
29469W        W88906  31.954   1.452   4.725
29470W        W88907   4.245  22.538   1.865
29471W        W88908  21.652  34.954  10.545
29472W        W88909  12.752  20.662  12.895
29473W        W88910  32.409  42.403   3.184
29474W        W88911   9.278  12.721  12.463
29475W        W88912  32.573  13.740   2.764
29476W        W88913   7.184  39.022   3.842
29477W        W88914  22.527  44.995   4.152
29478W        W88915  18.561   1.421  13.450
29479W        W88916   8.209   4.308   2.832
29480W        W88917  24.057  38.061  14.498
29481W        W88918  44.008  26.507  11.129
29482W        W88919   7.325   0.831  14.282
29483W        W88920  43.807  20.547   1.848
29484W        W88921   6.226  29.166  14.480
29485W        W88922  44.360   0.864  13.331
29486W        W88923  17.759  22.563  14.487
29487W        W88924  25.619  14.312   1.317
29488W        W88925   6.192  29.555   4.661
29489W        W88926   2.319  12.778   3.300
29490W        W88927  13.822  33.500   4.625
29491W        W88928  15.751   1.253   1.419
29492W        W88929  26.006   9.262   3.761
29493W        W88930   7.812   6.891  11.506
29494W        W88931  16.278  28.012  13.974
29495W        W88932  18.268  19.765  11.379
29496W        W88933  34.432  30.060  13.829
29497W        W88934  12.354  22.595  11.554
29498W        W88935  23.662   3.869   3.190
29499W        W88936  41.531  41.417   4.775
29500W        W88937  17.181   0.273  14.822
29501W        W88938  41.815   9.327   1.435
29502W        W88939  29.470  10.252   1.758
29503W        W88940   2.358  14.197  13.390
29504W        W88941  16.078  20.054  10.430
29505W        W88942  43.844  18.078   3.680
29506W        W88943  17.706  28.071   0.324
29507W        W88944  18.265  30.608  13.975
29508W        W88945  23.220   5.824  12.013
29509W        W88946  25.076  33.479   1.766
29510W        W88947  37.855   5.719  10.920
29511W        W88948   1.304  36.961  13.864
29512W        W88949   8.202   4.285  12.952
29513W        W88950  25.577  18.556  11.473
29514W        W88951   0.368  30.508  10.970
29515W        W88952   2.737  16.681  11.045
29516W        W88953  18.697  35.367   2.223
29517W        W88954  22.553  22.533  14.358
29518W        W88955  44.416   4.777   2.673
29519W        W88956  15.264   1.301   4.658
29520W        W88957  38.353  42.466   3.169
29521W        W88958  31.945  35.070   1.890
29522W        W88959  31.132  23.563   0.375
29523W        W88960  30.620  32.490   4.624
29524W        W88961  16.579  27.519  13.435
29525W        W88962  20.769  34.027   4.787
29526W        W88963  44.386  10.322  11.593
29527W        W88964  19.237  19.112   3.758
29528W        W88965  39.492  15.085   4.329
29529W        W88966  28.048   8.301   3.266
29530W        W88967  28.529  28.480  10.990
29531W        W88968   8.895  36.473   5.282
29532W        W88969  10.331  15.741   3.233
29533W        W88970  12.311  19.705   3.272
29534W        W88971  36.871  37.905   3.862
29535W        W88972  40.984  13.698   3.715
29536W        W88973  20.710  36.475   1.404
29537W        W88974   4.702  41.362  10.936
29538W        W88975  35.462   1.299   2.900
29539W        W88976  43.510  26.180  13.314
29540W        W88977  12.134  30.505   3.189
29541W        W88978   8.394  34.047   1.294
29542W        W88979  26.000  28.496  12.549
29543W        W88980  42.325  21.535  11.855
29544W        W88981  28.038  22.737   1.356
29545W        W88982  43.289  30.552  13.905
29546W        W88983   0.928  10.159   2.701
29547W        W88984  28.532   3.748  14.492
29548W        W88985  15.649  13.238   5.221
29549W        W88986  41.906  25.567   1.812
29550W        W88987  26.467  10.835   1.258
29551W        W88988  13.600  10.769  11.028
29552W        W88989   0.833  13.687   1.428
29553W        W88990  33.071  12.806  13.492
29554W        W88991  37.372  24.089   0.376
29555W        W88992  36.039  11.313  11.910
29556W        W88993  11.775  33.407  12.496
29557W        W88994  29.550  14.803   4.677
29558W        W88995  35.889  24.684  13.918
29559W        W88996  32.093  10.671   4.308
29560W        W88997  14.109   6.338  10.990
29561W        W88998  40.473  10.360   4.806
29562W        W88999  17.093   9.855  10.951
29563W        W89000  11.802  38.553   1.890
29564W        W89001  36.504  29.951  11.460
29565W        W89002  30.967  39.471   0.744
29566W        W89003  38.820  42.387  10.957
29567W        W89004  41.843  31.150   4.640
29568W        W89005  38.436  40.858   0.949
29569W        W89006   9.299   0.288   3.249
29570W        W89007   7.361  31.613  13.519
29571W        W89008  13.120   2.967  13.474
29572W        W89009  11.804  37.957   0.871
29573W        W89010   8.830  30.613  13.499
29574W        W89011  27.615  43.301  10.919
29575W        W89012  22.244  29.465  10.914
29576W        W89013  29.107  13.612   1.213
29577W        W89014  23.059   7.881   1.811
29578W        W89015  37.462   0.970  11.571
29579W        W89016  29.115  15.086   0.814
29580W        W89017  10.178  28.079   1.295
29581W        W89018   0.894  29.039  11.994
29582W        W89019  12.195   5.299  13.863
29583W        W89020   8.821   2.884   4.350
29584W        W89021  34.940   5.361  13.837
29585W        W89022  17.747   1.240   4.754
29586W        W89023  35.083  19.142  11.538
29587W        W89024  18.050   0.941  11.481
29588W        W89025   6.734  41.304  12.496
29589W        W89026  28.622  33.610  12.529
29590W        W89027  35.483  13.160   4.799
29591W        W89028  12.644  17.767   3.173
29592W        W89029   2.844  30.937   0.954
29593W        W89030  23.200  33.422  10.420
29594W        W89031  13.749  38.504  12.502
29595W        W89032   6.834  11.637  13.927
29596W        W89033   1.363   6.777   4.824
29597W        W89034  18.294  28.067  13.946
29598W        W89035  16.677   6.199  13.905
29599W        W89036  15.230  29.947  11.453
29600W        W89037  43.935  33.005   1.246
29601W        W89038  39.022  38.363   4.649
29602W        W89039  31.583   2.291   1.427
29603W        W89040  12.766  30.601   1.378
29604W        W89041   5.899  29.622   1.315
29605W        W89042   5.820   0.896  14.348
29606W        W89043  27.650  17.764  14.468
29607W        W89044   4.439  42.505  13.812
29608W        W89045  37.895  39.413  14.014
29609W        W89046  34.449  11.710  12.524
29610W        W89047  40.369  37.387   1.394
29611W        W89048  16.128  38.453   3.775
29612W        W89049  31.626  18.590  12.974
29613W        W89050   4.349  31.646   2.261
29614W        W89051  27.643  10.874  14.929
29615W        W89052  34.373   6.835  14.924
29616W        W89053  18.783  28.654  12.864
29617W        W89054   8.250  32.012   4.673
29618W        W89055  32.089  42.784   2.819
29619W        W89056  19.188  43.842  12.082
29620W        W89057  18.682  29.123   1.768
29621W        W89058   1.928  36.952  10.141
29622W        W89059   0.315   8.218   1.773
29623W        W89060   8.836   4.772   0.266
29624W        W89061  20.128  29.564  11.001
29625W        W89062  11.220  28.022   0.819
29626W        W89063   8.374   2.940  12.343
29627W        W89064   9.877  30.482  13.401
29628W        W89065  15.579  38.914   0.311
29629W        W89066   4.758  43.796   3.357
29630W        W89067   8.211   3.730  11.571
29631W        W89068  38.562   7.775   3.378
29632W        W89069  37.544  28.534  10.905
29633W        W89070  36.477  22.157  14.276
29634W        W89071  35.558   1.391  14.806
29635W        W89072  43.357  22.225  13.520
29636W        W89073   4.251  22.149  11.084
29637W        W89074  38.464  42.478   2.354
29638W        W89075  31.620   2.368  13.337
29639W        W89076  32.971  20.750  11.418
29640W        W89077  30.494   0.330   1.376
29641W        W89078  17.619  27.453  12.982
29642W        W89079  38.503  32.923  11.418
29643W        W89080   3.911  19.582  13.965
29644W        W89081  28.597  11.128   4.647
29645W        W89082   1.270  28.435   3.216
29646W        W89083   9.668   6.270  13.957
29647W        W89084   5.228  13.274  11.987
29648W        W89085   8.344  44.942   0.864
29649W        W89086   3.369  20.218   3.835
29650W        W89087  29.010  15.262   2.382
29651W        W89088  27.605   3.902   4.673
29652W        W89089  29.096   3.433  14.280
29653W        W89090  44.987  13.747  12.058
29654W        W89091  24.495  29.981  14.323
29655W        W89092  36.588  34.520  10.551
29656W        W89093  21.623   2.336  13.472
29657W        W89094  11.199  44.828   0.446
29658W        W89095   7.885  38.380   4.304
29659W        W89096  21.236  17.268   9.631
29660W        W89097  41.439  36.486  12.344
29661W        W89098  29.553   0.377   2.368
29662W        W89099  14.717  36.011  12.029
29663W        W89100  35.869   9.849   1.816
29664W        W89101  12.253  13.633   4.205
29665W        W89102  25.043   7.393  10.410
29666W        W89103   1.326  11.156  11.019
29667W        W89104  29.601  42.811  14.440
29668W        W89105  37.909   0.802   0.794
29669W        W89106  10.730   8.834  13.943
29670W        W89107   0.769  33.490  12.070
29671W        W89108   4.732   2.406  10.941
29672W        W89109  12.190  21.237   9.960
29673W        W89110  32.507  24.221   0.918
29674W        W89111   3.234  30.621   3.189
29675W        W89112  21.726  43.918  10.515
29676W        W89113   7.869  39.829   5.172
29677W        W89114  17.578  16.638  11.573
29678W        W89115  37.414  35.095   0.357
29679W        W89116  26.530   6.724   2.823
29680W        W89117  14.704   7.178   0.480
29681W        W89118  36.997  18.101  12.527
29682W        W89119   6.847  28.956   4.742
29683W        W89120  23.549  19.269   0.470
29684W        W89121  27.173  16.238  12.407
29685W        W89122  36.551  30.945   3.207
29686W        W89123  36.089  18.286  14.326
29687W        W89124   5.706  44.765  14.017
29688W        W89125  21.100  44.323   4.200
29689W        W89126  23.108  18.160   2.242
29690W        W89127  14.819  41.014  13.406
29691W        W89128  24.091  38.419   2.703
29692W        W89129  28.966  10.875  11.105
29693W        W89130   0.425  25.518  14.835
29694W        W89131  39.885  27.057   1.904
29695W        W89132  12.836  38.939  11.117
29696W        W89133  15.761  11.134  11.495
29697W        W89134  41.989   3.220  11.942
29698W        W89135  43.281  23.513  11.100
29699W        W89136  42.883   0.398   4.698
29700W        W89137  42.341  43.389  12.395
29701W        W89138   9.838  13.694  14.936
29702W        W89139  18.553   2.438  13.981
29703W        W89140  13.119   6.864   0.409
29704W        W89141  18.069  23.171   3.638
29705W        W89142   1.760  22.576   1.779
29706W        W89143   9.803   4.381   2.191
29707W        W89144   6.787  38.075   2.210
29708W        W89145  22.529  11.272   4.824
29709W        W89146   7.714  34.380  11.124
29710W        W89147  16.665  32.919   3.777
29711W        W89148  21.020   0.393   1.935
29712W        W89149  21.161  28.505  14.478
29713W        W89150  35.977  17.793   3.295
29714W        W89151  11.654  15.171   4.305
29715W        W89152  27.507  43.776   2.672
29716W        W89153  10.748  38.538   3.808
29717W        W89154   1.841  17.735   0.755
29718W        W89155  17.061   8.795   3.243
29719W        W89156  44.890  10.172  13.951
29720W        W89157  20.144  15.732   0.874
29721W        W89158  26.100  14.170  11.437
29722W        W89159   7.667   1.258  13.953
29723W        W89160  28.152  24.647   2.179
29724W        W89161   6.803  32.476  12.944
29725W        W89162   2.910  40.016  13.413
29726W        W89163  35.462  26.979   4.611
29727W        W89164  28.084  43.020   0.474
29728W        W89165   0.292   7.756  12.927
29729W        W89166  34.464   6.856  10.998
29730W        W89167  14.617  35.520   1.421
29731W        W89168  12.774  29.550   1.930
29732W        W89169  19.137  41.488   0.479
29733W        W89170  17.136   1.800  12.956
29734W        W89171  38.386  38.408  11.520
29735W        W89172  34.914   2.856  12.377
29736W        W89173  34.933  40.439   1.888
29737W        W89174  30.047  38.864  14.808
29738W        W89175  17.079   5.710   4.237
29739W        W89176  27.002  36.976   0.863
29740W        W89177  25.206  29.043  10.896
29741W        W89178  18.077  31.985  13.950
29742W        W89179   4.749  10.730  11.499
29743W        W89180  33.981  40.430  12.040
29744W        W89181  20.692  30.062  12.092
29745W        W89182  20.033  17.716   1.727
29746W        W89183  12.813  17.278  12.898
29747W        W89184  44.344   5.850  10.970
29748W        W89185  30.550  16.072  11.459
29749W        W89186  30.160  22.170   9.588
29750W        W89187   0.320  11.863   1.818
29751W        W89188  21.696  25.671  13.323
29752W        W89189  40.435  11.840  11.000
29753W        W89190  40.846   4.762   0.451
29754W        W89191  17.788   6.908   3.733
29755W        W89192   8.826   8.325   2.700
29756W        W89193  25.129  34.523   4.331
29757W        W89194  29.919  18.192   3.352
29758W        W89195  11.733  42.784  13.358
29759W        W89196  16.167  23.513   1.367
29760W        W89197   7.787  13.711   0.299
29761W        W89198  16.712  32.015  14.962
29762W        W89199  23.987  22.140   2.212
29763W        W89200  14.245   0.419  10.123
29764W        W89201  20.201   9.279   4.269
29765W        W89202  39.851   2.872   4.155
29766W        W89203  22.012   5.732  13.005
29767W        W89204   8.330  40.488   3.808
29768W        W89205   7.408  10.742   2.313
29769W        W89206  13.304  30.043  12.364
29770W        W89207  19.691  30.590   1.886
29771W        W89208  41.342  30.449   4.673
29772W        W89209  24.208  16.626  11.868
29773W        W89210  25.053  21.736  12.531
29774W        W89211  25.577  28.088  13.502
29775W        W89212  24.006  35.968  11.888
29776W        W89213   5.802  17.304  14.919
29777W        W89214  35.583   4.434  14.808
29778W        W89215  33.399  20.652  11.537
29779W        W89216  15.210  43.456   4.822
29780W        W89217  30.996  43.298   3.664
29781W        W89218  41.397  10.820  11.081
29782W        W89219  35.493   1.326   3.814
29783W        W89220   5.264  40.052  11.444
29784W        W89221  29.565  36.062   3.270
29785W        W89222  28.120  43.514   2.306
29786W        W89223   0.756  29.103   2.273
29787W        W89224  36.001   7.842  14.335
29788W        W89225  44.446  33.526  12.964
29789W        W89226  29.997   7.845   4.747
29790W        W89227  15.195  16.596   4.737
29791W        W89228  15.114   4.733   4.780
29792W        W89229  39.064  20.530   2.668
29793W        W89230   4.898  15.779  13.365
29794W        W89231  43.472  44.270  10.015
29795W        W89232  36.995  11.789   0.278
29796W        W89233   2.771  31.899  12.073
29797W        W89234   1.437  29.097  14.001
29798W        W89235  24.201  27.954   0.913
29799W        W89236  22.138  19.188   0.420
29800W        W89237  43.506  22.195  11.049
29801W        W89238  24.172  35.979  12.357
29802W        W89239  30.590  11.796  12.883
29803W        W89240   9.759  18.072  13.429
29804W        W89241  23.497  35.497  12.862
29805W        W89242  33.057  37.444  10.998
29806W        W89243   3.724  39.867   0.416
29807W        W89244  21.117  29.535   0.932
29808W        W89245  14.194  43.773  14.295
29809W        W89246  40.524  33.582   2.369
29810W        W89247   4.294  39.037   1.747
29811W        W89248  38.336  35.479   0.760
29812W        W89249  39.372  43.984  13.347
29813W        W89250  32.957   6.693   1.218
29814W        W89251  27.631   6.741   0.929
29815W        W89252  14.796  25.037  11.480
29816W        W89253   5.746   2.963   0.907
29817W        W89254  27.005  16.092  11.588
29818W        W89255  12.832  32.949   4.205
29819W        W89256   6.711  25.057   3.210
29820W        W89257  34.520  22.999   4.178
29821W        W89258  34.057  14.608  12.565
29822W        W89259  29.542   5.200  11.000
29823W        W89260  26.571   7.364   2.844
29824W        W89261   6.897   0.379  13.797
29825W        W89262  12.695  12.283  14.313
29826W        W89263   8.380  13.230   0.738
29827W        W89264  27.653  29.524  12.848
29828W        W89265   1.900  13.697   9.636
29829W        W89266  29.459  24.117   1.401
29830W        W89267  32.504  44.368  12.036
29831W        W89268   1.767  19.610   1.316
29832W        W89269  35.560  37.954  12.865
29833W        W89270  34.941  30.638   5.227
29834W        W89271  13.838  36.428  10.964
29835W        W89272  33.493  26.015   0.397
29836W        W89273  22.675  27.148   3.382
29837W        W89274  16.712  42.820   3.790
29838W        W89275  31.487  29.137  11.608
29839W        W89276  21.613   8.336   4.618
29840W        W89277  35.962  23.214   0.824
29841W        W89278  29.958  31.409   1.302
29842W        W89279  38.406  34.561   3.261
29843W        W89280  12.170  20.154   1.929
29844W        W89281  19.552  24.012   1.305
29845W        W89282  24.523  42.866   4.649
29846W        W89283  33.881   2.301   3.374
29847W        W89284  28.117  24.099  11.905
29848W        W89285  28.444   6.354  13.793
29849W        W89286  30.585  31.117  12.513
29850W        W89287  44.897  13.683  14.024
29851W        W89288  40.054  34.049  14.386
29852W        W89289  32.904   0.904  11.590
29853W        W89290  35.593   9.851  14.280
29854W        W89291  28.535  13.151  10.892
29855W        W89292  31.521   0.421   0.311
29856W        W89293  18.652  15.683  12.394
29857W        W89294   1.877  20.547   4.809
29858W        W89295  28.672  10.302   3.201
29859W        W89296  12.127   2.227  14.953
29860W        W89297  43.799  22.560   2.315
29861W        W89298   7.837  21.672   4.178
29862W        W89299  41.868   2.729  11.506
29863W        W89300  36.505  33.050  14.958
29864W        W89301  44.379  16.630   0.809
29865W        W89302  32.563  33.054   0.734
29866W        W89303  31.091  23.517   3.164
29867W        W89304  40.846   3.400  11.522
29868W        W89305  19.557  26.045   3.174
29869W        W89306  41.026  22.243   3.797
29870W        W89307   7.753  19.594  13.990
29871W        W89308  17.669  22.236  13.427
29872W        W89309  12.827  41.940   1.325
29873W        W89310  24.095  43.787  12.551
29874W        W89311  28.452  17.688   3.159
29875W        W89312  19.065   9.184  14.939
29876W        W89313  32.449  27.996   1.336
29877W        W89314  21.660  38.367  14.357
29878W        W89315   0.879  22.653   3.378
29879W        W89316  13.224  34.439   2.819
29880W        W89317  30.056   8.397  13.330
29881W        W89318   6.277  16.785  14.478
29882W        W89319  36.993  15.612  11.095
29883W        W89320   5.928  10.189   0.294
29884W        W89321  19.283  15.269   2.401
29885W        W89322  18.243   4.907   2.746
29886W        W89323   6.360   5.353   1.789
29887W        W89324  24.054  16.612   4.795
29888W        W89325  17.076  42.924  14.451
29889W        W89326   6.295  25.034   3.194
29890W        W89327   6.918  28.144  13.419
29891W        W89328  34.937   3.925   3.671
29892W        W89329  32.104  18.717  11.529
29893W        W89330   6.875  14.155  11.044
29894W        W89331  31.423   6.731   2.822
29895W        W89332  21.592  19.129   2.841
29896W        W89333  38.379  17.565   1.801
29897W        W89334  17.585  29.098  11.005
29898W        W89335  41.467  43.810  10.502
29899W        W89336  31.530  12.316  10.926
29900W        W89337  26.156  32.015   1.731
29901W        W89338  36.856  31.492  10.612
29902W        W89339   9.806   7.348  12.416
29903W        W89340  18.604   4.278  12.028
29904W        W89341  35.042  13.180  14.917
29905W        W89342  10.699  38.010   3.306
29906W        W89343  41.517   5.431   2.666
29907W        W89344   4.406  23.240  11.913
29908W        W89345  28.631  14.239   3.713
29909W        W89346  27.578  16.188  12.496
29910W        W89347  43.507  16.593  10.431
29911W        W89348  13.750  36.478   0.474
29912W        W89349  38.907  11.302   3.193
29913W        W89350  12.347  10.316   1.889
29914W        W89351  30.554   7.777   4.255
29915W        W89352  37.930  14.140   3.321
29916W        W89353  25.216  33.416   2.291
29917W        W89354  39.493  21.616   3.384
29918W        W89355   7.710  15.259   4.701
29919W        W89356   6.818  27.083   1.408
29920W        W89357  26.534  28.107  11.512
29921W        W89358  14.250  36.861   2.393
29922W        W89359  36.885  43.997   3.312
29923W        W89360   7.217  34.579   0.911
29924W        W89361  31.074  12.285  11.973
29925W        W89362  36.959  25.132   0.385
29926W        W89363   4.251  19.651   0.849
29927W        W89364  16.189  15.708   3.362
29928W        W89365  33.586  31.508  12.461
29929W        W89366   7.688  32.050  12.912
29930W        W89367   7.402  43.829   2.874
29931W        W89368  44.400   5.371  10.521
29932W        W89369  24.019  44.971   0.840
29933W        W89370  23.637  31.152  14.848
29934W        W89371  30.041  19.082  11.996
29935W        W89372  41.032  31.935   3.378
29936W        W89373  10.338  43.303   3.373
29937W        W89374  36.871  41.020  11.442
29938W        W89375  37.050  39.810   0.911
29939W        W89376  16.788  18.567  12.976
29940W        W89377   8.222  44.853   0.372
29941W        W89378  14.240  20.243   4.748
29942W        W89379  39.830  10.801  12.058
29943W        W89380  12.728  21.224   2.886
29944W        W89381  20.709   2.261  14.986
29945W        W89382  34.598  35.494   4.662
29946W        W89383  15.650   1.841   0.301
29947W        W89384   5.791   3.270   2.764
29948W        W89385   5.691  27.941   1.920
29949W        W89386   3.855  34.959   2.290
29950W        W89387  11.856  33.965   4.816
29951W        W89388  28.121   8.860   0.288
29952W        W89389  12.704  29.435   2.742
29953W        W89390  12.276   4.440   2.884
29954W        W89391   3.913  38.326   3.668
29955W        W89392   7.674  43.873   1.297
29956W        W89393   3.815   1.337  13.826
29957W        W89394  44.955  17.251  14.911
29958W        W89395   3.397  25.673  10.910
29959W        W89396  16.175  33.600   0.830
29960W        W89397  24.709   1.901  10.517
29961W        W89398  29.665  16.763  14.849
29962W        W89399  36.899  23.014  10.476
29963W        W89400  12.720  41.963   0.340
29964W        W89401  26.479   0.839   3.730
29965W        W89402  22.083  14.664   1.284
29966W        W89403  31.061  38.451  14.366
29967W        W89404  15.653  22.614   3.384
29968W        W89405  42.978   4.824   2.282
29969W        W89406  23.546   1.878  10.507
29970W        W89407  33.019   9.283  11.481
29971W        W89408   1.906  39.998   2.765
29972W        W89409   4.425   5.294  11.584
29973W        W89410  36.965  32.563  11.947
29974W        W89411  41.803  36.008  10.561
29975W        W89412  30.631  30.574  11.107
29976W        W89413  18.126  40.531   2.350
29977W        W89414   4.726  32.415   2.875
29978W        W89415  17.117   6.411   3.324
29979W        W89416   4.277  34.478   4.709
29980W        W89417  29.077  16.756  10.576
29981W        W89418  21.225   8.726  10.013
29982W        W89419  42.819  44.789  14.929
29983W        W89420  35.037  16.789  14.953
29984W        W89421  23.709  38.347   1.784
29985W        W89422   8.698  28.126   3.867
29986W        W89423  13.838  20.167   0.909
29987W        W89424  26.668  33.095  13.803
29988W        W89425  32.076  13.302   1.238
29989W        W89426   6.678  34.521  11.078
29990W        W89427  16.795  32.944   2.696
29991W        W89428  29.080   2.313  13.025
29992W        W89429  19.584   8.196   0.359
29993W        W89430  44.942   9.209  10.925
29994W        W89431  42.463  44.294   0.431
29995W        W89432  43.393   7.178  10.622
29996W        W89433  39.956  37.898   0.958
29997W        W89434  33.921   0.259   1.851
29998W        W89435   8.835   3.874  14.904
29999W        W89436   5.909  27.670  11.093
30000W        W89437  20.163  22.157  12.370
30001W        W89438  35.357  28.608  14.305
30002W        W89439   0.412  40.334   3.318
30003W        W89440  10.266  37.933  11.941
30004W        W89441  24.654  42.362  14.285
30005W        W89442  25.469  39.454  12.861
30006W        W89443  17.158  27.490   1.782
30007W        W89444  24.516  27.566  14.907
30008W        W89445  36.516  20.258  13.843
30009W        W89446  44.370  27.463   1.721
30010W        W89447  37.910  23.727   0.931
30011W        W89448  16.767   4.894  12.051
30012W        W89449   5.808  27.946   4.809
30013W        W89450  40.480   7.188  12.960
30014W        W89451   9.814   4.228   1.373
30015W        W89452  40.994  21.082  13.977
30016W        W89453  11.622  26.547  10.423
30017W        W89454  18.771  16.081   3.237
30018W        W89455  44.775  18.207   4.172
30019W        W89456  21.598  11.297   3.214
30020W        W89457  21.248  16.805   2.791
30021W        W89458  26.999   8.700  10.502
30022W        W89459  30.587  38.928  10.013
30023W        W89460  37.454   5.881   1.733
30024W        W89461  39.838  17.578   0.780
30025W        W89462  17.203  42.850  13.059
30026W        W89463  44.842  41.798  10.448
30027W        W89464  26.673  13.158   1.813
30028W        W89465  25.618  30.426   0.471
30029W        W89466  11.815  19.692   0.296
30030W        W89467  18.229  18.245   4.810
30031W        W89468  11.636  11.146   9.932
30032W        W89469  22.043  17.735   3.802
30033W        W89470  38.530   7.414  13.492
30034W        W89471  23.657  31.429  13.046
30035W        W89472  11.809  14.139   9.923
30036W        W89473  33.019  36.533  11.036
30037W        W89474   0.744  37.361   1.274
30038W        W89475  37.480  23.534  11.477
30039W        W89476  37.503  39.919   2.341
30040W        W89477  36.927  35.484   1.881
30041W        W89478  40.452  41.952   0.416
30042W        W89479  31.043  29.632  12.536
30043W        W89480  37.484  18.566  11.868
30044W        W89481  43.966  41.523  10.889
30045W        W89482   5.265   3.405  12.539
30046W        W89483  17.145  32.418  12.996
30047W        W89484  11.344  27.574  12.833
30048W        W89485   8.320  38.402  11.867
30049W        W89486  39.984   4.304   0.252
30050W        W89487  14.227   0.818   3.655
30051W        W89488  19.616  11.709   4.749
30052W        W89489  36.023  40.372   4.333
30053W        W89490  19.200  21.034   4.243
30054W        W89491  32.964  27.978  13.978
30055W        W89492  38.935  32.018   1.433
30056W        W89493  11.199  44.828   3.212
30057W        W89494  36.926  37.454  10.564
30058W        W89495   9.696  11.221  13.333
30059W        W89496   5.200  43.767  11.879
30060W        W89497   5.854   7.883  10.981
30061W        W89498  16.651  31.153  13.997
30062W        W89499  12.824  32.048  10.440
30063W        W89500   3.751  34.529  13.885
30064W        W89501  31.640   1.786  11.584
30065W        W89502  37.018  34.021   1.815
30066W        W89503  24.115  35.463   2.746
30067W        W89504   2.356   9.779   1.874
30068W        W89505  29.115  40.395  10.632
30069W        W89506  27.994   1.922  11.409
30070W        W89507  43.793  11.356  14.404
30071W        W89508  18.237  29.161   2.183
30072W        W89509  18.599  34.586  10.466
30073W        W89510   9.207  43.901  13.475
30074W        W89511  42.925  17.277  10.511
30075W        W89512  25.528  38.056  10.617
30076W        W89513   1.344  19.052   0.359
30077W        W89514  23.064   8.257  10.948
30078W        W89515   8.749  17.648   0.341
30079W        W89516   3.881   2.834  11.515
30080W        W89517  28.518   4.816  14.391
30081W        W89518  17.097  35.001  11.067
30082W        W89519  25.187  18.058  11.594
30083W        W89520  20.066   8.764  14.414
30084W        W89521  30.149  17.074   4.774
30085W        W89522  30.597  42.855  10.643
30086W        W89523   7.302  37.535  14.978
30087W        W89524  34.111  39.442  12.392
30088W        W89525   5.280   3.285   1.314
30089W        W89526  15.231   1.250   2.231
30090W        W89527  12.172  14.809   3.280
30091W        W89528  39.856  13.780  10.492
30092W        W89529  34.913  26.071  11.375
30093W        W89530  34.875   7.884  14.414
30094W        W89531   8.695  19.282   3.700
30095W        W89532  33.900  25.031  14.426
30096W        W89533  43.355  25.510  11.057
30097W        W89534   9.353  34.880  11.493
30098W        W89535  25.571  42.421  11.925
30099W        W89536   8.247   2.466  13.874
30100W        W89537  36.901  37.838  11.547
30101W        W89538  38.545  18.714  11.971
30102W        W89539  39.440  19.124   1.322
30103W        W89540  37.430  40.423   5.133
30104W        W89541  19.216  30.158  12.362
30105W        W89542   2.921   4.831  13.911
30106W        W89543   4.411   2.735  11.521
30107W        W89544  25.075  39.889  13.485
30108W        W89545  44.319  20.550  12.861
30109W        W89546  23.135  22.623  10.629
30110W        W89547  32.536  13.281  11.451
30111W        W89548  10.743   1.423   4.252
30112W        W89549  34.918  24.027  11.031
30113W        W89550  38.390  27.602  12.359
30114W        W89551   9.262  27.537   3.292
30115W        W89552  35.067  24.630  14.017
30116W        W89553  23.072  14.771  12.371
30117W        W89554  40.028   4.938  11.951
30118W        W89555  23.698  42.370   4.219
30119W        W89556  17.165  15.174  11.402
30120W        W89557  14.685  43.456   2.400
30121W        W89558  27.082  22.562   9.476
30122W        W89559  16.210   7.304  14.366
30123W        W89560  31.632  36.996   1.779
30124W        W89561  26.544   3.865   1.322
30125W        W89562  42.788  28.056  14.464
30126W        W89563   7.708  16.691  11.883
30127W        W89564  41.511  24.692  12.402
30128W        W89565  36.377  37.915  13.408
30129W        W89566  31.963  37.852  11.382
30130W        W89567  28.144  34.442  11.565
30131W        W89568  26.008   2.924   4.251
30132W        W89569  43.771  14.243   2.296
30133W        W89570  30.429  31.415  14.446
30134W        W89571  23.038  22.203   4.114
30135W        W89572   2.737   9.393   2.345
30136W        W89573  10.652   0.946  14.369
30137W        W89574   9.273   2.433   4.828
30138W        W89575  29.944  27.008   2.756
30139W        W89576  42.028  11.195   1.234
30140W        W89577  31.520  19.548  11.456
30141W        W89578  26.466  30.457   4.285
30142W        W89579  12.828  12.241   1.792
30143W        W89580  11.809  26.126   1.772
30144W        W89581  13.846  37.999   4.791
30145W        W89582  27.062   8.249   0.937
30146W        W89583   5.312  18.096  10.996
30147W        W89584  28.532  40.993  10.584
30148W        W89585   8.207  14.209   2.796
30149W        W89586  11.370  40.486   2.278
30150W        W89587   8.814   6.221   2.409
30151W        W89588  12.689   1.910   0.951
30152W        W89589  11.644  13.263  12.076
30153W        W89590   6.194   1.833  14.886
30154W        W89591  36.045  37.403   1.321
30155W        W89592  16.135  14.236   4.172
30156W        W89593  39.983  19.730  13.838
30157W        W89594  38.556  25.537  14.881
30158W        W89595  43.396  29.651   0.843
30159W        W89596  13.624  22.235   4.169
30160W        W89597  11.190  18.239   0.330
30161W        W89598   7.308  43.479  14.320
30162W        W89599  36.449  26.522   4.802
30163W        W89600  26.173  26.179   0.268
30164W        W89601  18.548  11.803  11.076
30165W        W89602  24.672  31.538  10.592
30166W        W89603  21.667   7.365   0.307
30167W        W89604  35.889  21.106   1.845
30168W        W89605  40.311  30.573   1.796
30169W        W89606   9.289  35.431  10.980
30170W        W89607  14.101   3.736   2.828
30171W        W89608  18.721   6.236  11.923
30172W        W89609   7.819  31.462  13.519
30173W        W89610  33.961  32.940  10.491
30174W        W89611  19.215  42.836  10.442
30175W        W89612  28.518   1.426  12.843
30176W        W89613  27.167  20.728   1.886
30177W        W89614  26.172  14.135   3.334
30178W        W89615  13.720  19.655  11.109
30179W        W89616   1.883  42.293   4.673
30180W        W89617  42.946   2.273  12.887
30181W        W89618  39.066  43.842  10.434
30182W        W89619   3.224  39.896  13.476
30183W        W89620  32.532  32.003   3.637
30184W        W89621  29.144  13.311   5.674
30185W        W89622  37.490  34.598   2.299
30186W        W89623  28.529  44.324   0.958
30187W        W89624  35.110  37.386   0.829
30188W        W89625  24.079  20.060   3.658
30189W        W89626  10.277   0.746  10.429
30190W        W89627  27.056  13.295  12.403
30191W        W89628  31.122  24.171  14.865
30192W        W89629  15.107  20.555   4.288
30193W        W89630  35.086   4.221   0.352
30194W        W89631  37.844  19.184   4.724
30195W        W89632  17.720  38.490  12.046
30196W        W89633   7.399   8.823  10.549
30197W        W89634  30.934  38.550  12.038
30198W        W89635  15.265  19.579   3.737
30199W        W89636  20.591  15.171   3.639
30200W        W89637  10.186  21.558   4.818
30201W        W89638   4.345  32.433   3.297
30202W        W89639  25.191  17.720   2.405
30203W        W89640   2.785  44.310  10.092
30204W        W89641  11.691   5.737  14.936
30205W        W89642  10.212  42.461   2.183
30206W        W89643  30.082  30.655   3.676
30207W        W89644  34.953  31.623  12.862
30208W        W89645  32.619   4.211   1.818
30209W        W89646   6.818   7.680  10.445
30210W        W89647  36.046  15.214  11.574
30211W        W89648   3.824   4.225  13.505
30212W        W89649  43.895   2.311   0.426
30213W        W89650  32.440   5.390  13.487
30214W        W89651  43.883  20.064   2.749
30215W        W89652  42.871  29.147  11.051
30216W        W89653   1.349  32.478   4.599
30217W        W89654  30.524  34.077   3.193
30218W        W89655   5.366  26.486  11.917
30219W        W89656  16.659  14.798  12.449
30220W        W89657  35.406  21.639   2.416
30221W        W89658   1.833   2.881  14.902
30222W        W89659   3.335  25.615   4.297
30223W        W89660  37.940  16.190  12.015
30224W        W89661   1.458   4.854   1.357
30225W        W89662   2.940   0.742  11.896
30226W        W89663   4.724   5.212   0.301
30227W        W89664  30.134   8.287  10.407
30228W        W89665  39.865   4.719  10.087
30229W        W89666  25.679   4.415  12.091
30230W        W89667  20.270  41.373  11.477
30231W        W89668  42.526  18.182   0.896
30232W        W89669  43.448  39.929   4.118
30233W        W89670  28.434  10.819   0.837
30234W        W89671  32.915   0.402  10.583
30235W        W89672  43.452  20.659   4.734
30236W        W89673  42.839   2.404   1.381
30237W        W89674  16.314  30.627  11.889
30238W        W89675   5.694  12.621  12.470
30239W        W89676  35.510  37.542  11.566
30240W        W89677   1.412  19.077  13.386
30241W        W89678  17.291  26.511   2.698
30242W        W89679  20.099  23.053  11.477
30243W        W89680   5.712  42.862  10.493
30244W        W89681   8.720  11.274   1.271
30245W        W89682   6.320  11.705  10.930
30246W        W89683  37.504  33.432   0.416
30247W        W89684  32.055  36.935   1.862
30248W        W89685  37.894  11.241   4.831
30249W        W89686  11.282   0.271   2.672
30250W        W89687  15.275  33.506  13.307
30251W        W89688  12.655   3.349   4.792
30252W        W89689  36.982  39.893  10.940
30253W        W89690  17.738  43.860   3.785
30254W        W89691  25.657   8.242  14.501
30255W        W89692  26.500  14.734   3.847
30256W        W89693   8.392  19.624  14.952
30257W        W89694   3.751  13.221  14.461
30258W        W89695   3.218   0.749   3.806
30259W        W89696  14.246  11.329  13.000
30260W        W89697   0.415  28.600   0.913
30261W        W89698   4.907  27.505  11.891
30262W        W89699   3.739  28.438   0.871
30263W        W89700  34.867   5.884  14.418
30264W        W89701  16.672   5.823  12.346
30265W        W89702   7.333  42.983  11.907
30266W        W89703  22.603  31.552   0.797
30267W        W89704   2.428  28.102  10.495
30268W        W89705   3.784  19.145   2.295
30269W        W89706  36.040  32.134  11.401
30270W        W89707  40.886  44.824   4.736
30271W        W89708   3.297   7.211  10.454
30272W        W89709  27.056   8.869  12.471
30273W        W89710  13.317  12.638   1.266
30274W        W89711  30.589  12.650  11.540
30275W        W89712  25.215  29.470   0.854
30276W        W89713  24.613  26.504   0.251
30277W        W89714  21.104  35.076   0.754
30278W        W89715  19.243  20.670  10.956
30279W        W89716  40.382  42.937   4.778
30280W        W89717  25.689  38.439  12.963
30281W        W89718  22.184  29.936   2.324
30282W        W89719  12.791  23.646   3.281
30283W        W89720  36.072   3.716   4.325
30284W        W89721  17.701  33.090   1.899
30285W        W89722   5.862  40.836   3.201
30286W        W89723  17.593  30.468  11.070
30287W        W89724  24.607  27.597  12.908
30288W        W89725  41.298   4.812  12.937
30289W        W89726  38.928  42.783   3.229
30290W        W89727  27.017   1.818  12.542
30291W        W89728  11.696  43.357  14.389
30292W        W89729  27.657   6.755   1.330
30293W        W89730  23.230  20.626  13.998
30294W        W89731   9.243   0.457   2.284
30295W        W89732  42.784  29.618  14.028
30296W        W89733  39.899  20.752   0.482
30297W        W89734  27.018   7.303   2.665
30298W        W89735   0.877   2.927  14.392
30299W        W89736   5.742  21.619   1.302
30300W        W89737  27.990  18.165  14.885
30301W        W89738  28.459   5.380  12.963
30302W        W89739   2.777  44.389  11.490
30303W        W89740  39.352  18.707   0.465
30304W        W89741  35.909  24.043  14.508
30305W        W89742   6.788  26.979   0.742
30306W        W89743  32.585   9.239   2.757
30307W        W89744  27.156  34.935  10.088
30308W        W89745  18.096  29.024   4.351
30309W        W89746  23.554  43.769  13.490
30310W        W89747  31.612  19.750   3.853
30311W        W89748   1.838  38.075  14.814
30312W        W89749  14.160  35.516   4.278
30313W        W89750  30.573  35.028   1.832
30314W        W89751   8.203  30.093   3.785
30315W        W89752  14.323  12.741  13.403
30316W        W89753  29.014  11.293   0.821
30317W        W89754  23.998  44.470  12.992
30318W        W89755  40.473  30.569  12.522
30319W        W89756  26.050  22.154  14.841
30320W        W89757  14.603  28.132  11.904
30321W        W89758  39.503  24.091  10.894
30322W        W89759  26.077  26.513  12.851
30323W        W89760  33.020  17.077   4.132
30324W        W89761  37.958  21.692   0.836
30325W        W89762   1.831  34.946  12.044
30326W        W89763  21.720  21.096   2.888
30327W        W89764  44.355  31.460  14.015
30328W        W89765  34.524   3.380   3.828
30329W        W89766  17.258   1.962  13.437
30330W        W89767  30.620  37.387  13.435
30331W        W89768  42.812  27.574   1.890
30332W        W89769  43.864  32.587  14.295
30333W        W89770  30.447  13.261  12.427
30334W        W89771  17.207   4.298  11.610
30335W        W89772  14.324  13.659  14.277
30336W        W89773   8.249  12.219  12.963
30337W        W89774  25.216  13.656   4.199
30338W        W89775   4.791  25.053   4.765
30339W        W89776  11.762  32.548  10.411
30340W        W89777  12.303  34.030   1.742
30341W        W89778  38.939  33.626   0.918
30342W        W89779   3.901   6.895   1.893
30343W        W89780   6.692  10.244  11.521
30344W        W89781  28.523  44.284  12.377
30345W        W89782   8.299  22.073   4.785
30346W        W89783  26.118  39.379  14.872
30347W        W89784  33.919  34.072   2.316
30348W        W89785  10.769  14.725  13.793
30349W        W89786   2.775  11.267  14.995
30350W        W89787  24.121  21.095  12.915
30351W        W89788  44.306  25.991   3.342
30352W        W89789   5.861  28.120   2.887
30353W        W89790   8.296  22.597  11.030
30354W        W89791  12.244   9.275   1.427
30355W        W89792   8.239  20.063   3.835
30356W        W89793   7.356  37.858   3.748
30357W        W89794  10.339  21.600  11.948
30358W        W89795   9.340   2.748  12.547
30359W        W89796  25.200   1.375  12.863
30360W        W89797   2.450  13.737  13.479
30361W        W89798  10.686  13.177   3.786
30362W        W89799  41.020  18.693  14.973
30363W        W89800   4.218  29.573  10.520
30364W        W89801  44.992  10.332  12.565
30365W        W89802   6.720   5.923   4.819
30366W        W89803  12.779  35.938   1.741
30367W        W89804   8.786   8.750   1.762
30368W        W89805  30.102  15.312  14.407
30369W        W89806   6.817  12.736   4.346
30370W        W89807   2.381  25.171   1.868
30371W        W89808   0.968  13.634  12.443
30372W        W89809  11.867   2.723  12.562
30373W        W89810  33.931   9.291   1.907
30374W        W89811  12.693  27.947   0.311
30375W        W89812  36.514  14.168  14.380
30376W        W89813  19.146  42.405   0.913
30377W        W89814   7.821  38.866  14.781
30378W        W89815  40.434  19.549   2.282
30379W        W89816  20.180  22.699  13.387
30380W        W89817  35.526  32.540   3.747
30381W        W89818  33.410  35.376  13.392
30382W        W89819  39.968  36.476  12.908
30383W        W89820   4.309  22.200   3.738
30384W        W89821  14.699  11.621  10.897
30385W        W89822  40.334  25.506   1.750
30386W        W89823  38.038  13.760   1.300
30387W        W89824  27.190  12.784   1.916
30388W        W89825  19.776  29.618  12.874
30389W        W89826  31.627  27.540  11.470
30390W        W89827  37.576  13.687  11.906
30391W        W89828  32.122  16.804  12.579
30392W        W89829  10.788  18.285   0.944
30393W        W89830  36.562  21.623  12.034
30394W        W89831  25.183  11.347  13.906
30395W        W89832  29.087  43.818   0.801
30396W        W89833  26.482  14.127   0.403
30397W        W89834   6.252  41.301   0.769
30398W        W89835  32.909  30.968   2.322
30399W        W89836   3.246   3.397   4.237
30400W        W89837   8.705  27.491  14.410
30401W        W89838  13.220  15.127  14.448
30402W        W89839   0.479  35.099  10.550
30403W        W89840   8.203  10.329  12.058
30404W        W89841  44.445  13.773  11.953
30405W        W89842   6.339   1.755   2.294
30406W        W89843  17.077   4.739   3.801
30407W        W89844  42.021  21.684   4.127
30408W        W89845  28.628  20.732   1.249
30409W        W89846  27.677   4.857   3.731
30410W        W89847  35.556  36.984  11.584
30411W        W89848  14.205  14.694   3.275
30412W        W89849  28.003  17.153   4.348
30413W        W89850  38.333  11.285   3.667
30414W        W89851  34.418  30.041  13.015
30415W        W89852  25.127   2.826   4.330
30416W        W89853  10.218  12.742   0.399
30417W        W89854   0.475  24.552   3.788
30418W        W89855  42.369  22.133   1.842
30419W        W89856  28.976  12.664   5.138
30420W        W89857  22.122  41.018  10.529
30421W        W89858  35.373  17.642  13.988
30422W        W89859  38.918  33.501   0.377
30423W        W89860  37.890   2.944   4.612
30424W        W89861   1.776  20.549   1.766
30425W        W89862  23.061  21.070   9.984
30426W        W89863  29.459  38.449   1.908
30427W        W89864  30.591  11.226   0.445
30428W        W89865  28.937  12.331   5.205
30429W        W89866  16.725  14.791  11.066
30430W        W89867  30.569  39.485  14.026
30431W        W89868  42.973  13.846   1.335
30432W        W89869  20.207  14.219  14.492
30433W        W89870   9.727  11.671  14.375
30434W        W89871   6.285  22.183  14.850
30435W        W89872  11.794  20.126  11.083
30436W        W89873  25.061  24.664  10.985
30437W        W89874   0.779  41.496  14.487
30438W        W89875   0.394  26.548  10.608
30439W        W89876  38.874  14.633   0.780
30440W        W89877  40.916  22.651   2.778
30441W        W89878  32.515   4.900   4.245
30442W        W89879  18.749  30.150  12.026
30443W        W89880  15.296   4.446  12.086
30444W        W89881  35.004  16.201   1.263
30445W        W89882   6.731   5.296   4.657
30446W        W89883  31.645  34.407  12.344
30447W        W89884  31.082  13.731  10.448
30448W        W89885  26.198  16.699  14.951
30449W        W89886  32.040  17.650   4.824
30450W        W89887   2.444  15.141  14.856
30451W        W89888   6.683   4.848  10.034
30452W        W89889  32.895  37.346   4.739
30453W        W89890   4.369  36.987   3.222
30454W        W89891  23.503  38.015   9.489
30455W        W89892   2.854  17.765  14.482
30456W        W89893   2.237  28.082  10.081
30457W        W89894   2.926  24.209   1.280
30458W        W89895  42.907   1.345  14.872
30459W        W89896  18.099  18.550   2.888
30460W        W89897  38.407  11.848   4.609
30461W        W89898  33.894   5.200   3.286
30462W        W89899  28.975  24.118   1.820
30463W        W89900  33.512  21.718   4.752
30464W        W89901  14.624  39.420   1.242
30465W        W89902  21.020  21.202   3.344
30466W        W89903  43.962   9.792   1.728
30467W        W89904  26.546   0.263  12.513
30468W        W89905   7.705  23.682   2.865
30469W        W89906  11.260   4.230  13.389
30470W        W89907  25.109  16.115   0.421
30471W        W89908  17.232   1.436  12.969
30472W        W89909  35.088  12.725  10.037
30473W        W89910  36.577  39.944   0.283
30474W        W89911  22.128  28.082   4.346
30475W        W89912   8.197  13.821   1.885
30476W        W89913   5.886  34.940   4.199
30477W        W89914   9.800  20.153   1.832
30478W        W89915  25.611  24.035   0.891
30479W        W89916   0.442  11.250   0.415
30480W        W89917  15.178  25.589   4.140
30481W        W89918   0.763  33.420  12.373
30482W        W89919  14.717  23.516   4.179
30483W        W89920  34.497  38.053   3.754
30484W        W89921  21.698  19.553   0.319
30485W        W89922  15.141  28.974   1.216
30486W        W89923  26.622   8.375  13.952
30487W        W89924  11.373   2.255   1.700
30488W        W89925  43.889   6.395   3.789
30489W        W89926  28.511   0.858  12.437
30490W        W89927  13.825  11.264   4.745
30491W        W89928  19.151  20.076  14.862
30492W        W89929   2.925  38.827   4.698
30493W        W89930  37.359  22.538   2.882
30494W        W89931   3.790  13.301   0.300
30495W        W89932  18.781   6.295  12.366
30496W        W89933  40.389   0.756  10.636
30497W        W89934  37.548  18.207   2.366
30498W        W89935  32.488  23.722   5.586
30499W        W89936  10.801  44.275  10.037
30500W        W89937  30.586  43.828  10.487
30501W        W89938  42.511  13.783  11.917
30502W        W89939   8.235  42.474  14.796
30503W        W89940   1.937  19.168  11.534
30504W        W89941   2.940  32.490   1.852
30505W        W89942   0.393  14.192  14.421
30506W        W89943  34.932  33.025  12.057
30507W        W89944  13.308  11.850  12.340
30508W        W89945  14.290  33.459  12.916
30509W        W89946   2.431   9.254   2.728
30510W        W89947  43.423  43.469  14.806
30511W        W89948  24.673   8.869   1.341
30512W        W89949  31.025  43.376  13.361
30513W        W89950   6.197   8.385  10.638
30514W        W89951  10.230  31.140  14.425
30515W        W89952   2.439  40.957   1.905
30516W        W89953   1.330  17.636  11.480
30517W        W89954   7.883  20.674  12.546
30518W        W89955  34.953  25.507   2.851
30519W        W89956   1.365   0.368  13.819
30520W        W89957  36.847  34.977  14.956
30521W        W89958  15.148  17.611   1.438
30522W        W89959  32.552  20.754   3.636
30523W        W89960  18.185  44.936   1.827
30524W        W89961  35.421  24.571  13.822
30525W        W89962   0.980  22.560   5.252
30526W        W89963  36.915  36.035   0.798
30527W        W89964   9.150  34.006  13.532
30528W        W89965  40.548  42.928  13.483
30529W        W89966  22.709  28.125   4.659
30530W        W89967  33.605  28.992   1.235
30531W        W89968  41.370  30.579   0.431
30532W        W89969   7.224  15.200  14.331
30533W        W89970   8.818  27.971  11.960
30534W        W89971  44.369   8.289   0.296
30535W        W89972  40.305  15.822   3.718
30536W        W89973  38.999  44.380   3.640
30537W        W89974  17.258  17.088   2.790
30538W        W89975  41.961  36.988  13.810
30539W        W89976  18.624  35.916  10.579
30540W        W89977  23.492   8.825  14.973
30541W        W89978   3.429  22.244  10.026
30542W        W89979  30.078   9.323   1.925
30543W        W89980   6.678   3.360  14.812
30544W        W89981   7.754   3.425   0.407
30545W        W89982  31.077  31.025   4.832
30546W        W89983  32.482  15.146   3.314
30547W        W89984   1.760   6.727   4.800
30548W        W89985   8.388  40.019  14.378
30549W        W89986   3.442  21.541   4.221
30550W        W89987   6.185  31.917  10.500
30551W        W89988  38.552  29.920  13.841
30552W        W89989  39.446   8.177  11.088
30553W        W89990  26.984   3.361  14.289
30554W        W89991  23.063  34.537   0.471
30555W        W89992  28.551   9.657   4.688
30556W        W89993  24.509  32.935   0.803
30557W        W89994  35.367   9.335  14.854
30558W        W89995  23.142  22.580  10.120
30559W        W89996  30.607  17.228  12.462
30560W        W89997  19.133  37.043   4.220
30561W        W89998  20.582  26.191  11.897
30562W        W89999  21.221  40.918  12.513
30563W        W90000   0.947  11.772   5.315
30564W        W90001  20.179  41.844  14.480
30565W        W90002  17.720   6.765  14.838
30566W        W90003  34.486  18.156   2.205
30567W        W90004  29.586  41.923  11.871
30568W        W90005   0.292  12.171  12.881
30569W        W90006   8.405  21.734   4.282
30570W        W90007   2.380  33.379  13.944
30571W        W90008  14.671  38.890  13.875
30572W        W90009  19.609   2.742  13.407
30573W        W90010   8.360  35.499   0.936
30574W        W90011  17.607  36.053  12.494
30575W        W90012  43.834  12.174   0.349
30576W        W90013  12.163  29.583   4.349
30577W        W90014  23.551  35.567  13.457
30578W        W90015   3.946  34.916   2.845
30579W        W90016  21.612   5.356   0.730
30580W        W90017   4.409  17.602  13.869
30581W        W90018  22.677  40.858  13.896
30582W        W90019  25.065  43.771  14.279
30583W        W90020  11.323  21.208   1.718
30584W        W90021  38.902  42.831  12.946
30585W        W90022  21.115   9.281   3.843
30586W        W90023  18.724  15.726   2.756
30587W        W90024  18.756  30.614  10.987
30588W        W90025  27.954  19.050   2.321
30589W        W90026  35.100   2.371   0.837
30590W        W90027   8.774  40.993   1.872
30591W        W90028   1.865  21.142  14.780
30592W        W90029  19.600   9.176  14.956
30593W        W90030  31.448  40.468  13.325
30594W        W90031  34.394  33.008  11.022
30595W        W90032   2.907   4.723  12.346
30596W        W90033   3.379   1.394   4.280
30597W        W90034  16.584  12.760  11.012
30598W        W90035  21.262   0.292   2.209
30599W        W90036  28.551  44.327  12.924
30600W        W90037  24.044  12.208  14.397
30601W        W90038  22.570   5.307  13.542
30602W        W90039  31.903  18.174  11.431
30603W        W90040  12.653  19.715   3.672
30604W        W90041  23.708  10.219   0.747
30605W        W90042  37.438   8.849  12.456
30606W        W90043   9.275  43.952   0.405
30607W        W90044  10.265   3.795   4.268
30608W        W90045  24.045   5.923   1.868
30609W        W90046   1.314  28.049   1.918
30610W        W90047   2.821  11.746  10.928
30611W        W90048  13.644  19.240   4.686
30612W        W90049  16.711  22.171  13.463
30613W        W90050   6.359  29.657   1.732
30614W        W90051   6.681  42.908  13.001
30615W        W90052   6.691  43.297   3.199
30616W        W90053  43.785  19.040   3.828
30617W        W90054  19.644   7.843   5.195
30618W        W90055  29.134  38.971   1.274
30619W        W90056  21.203   3.351  12.004
30620W        W90057  43.776  40.518   3.216
30621W        W90058  38.344  36.015   0.294
30622W        W90059  43.017  40.424   5.270
30623W        W90060  41.841  37.476   2.321
30624W        W90061  30.582   7.900  10.630
30625W        W90062  26.635  13.687   2.414
30626W        W90063  32.093   2.312   4.689
30627W        W90064   5.874  10.230  13.894
30628W        W90065   9.365   6.773   1.424
30629W        W90066   1.266   5.820   1.356
30630W        W90067  10.771   2.400  11.097
30631W        W90068  41.384  34.103  11.593
30632W        W90069  43.388   7.316  14.828
30633W        W90070  38.509  38.507  12.544
30634W        W90071  40.961  35.538  12.903
30635W        W90072  34.558  29.495   4.732
30636W        W90073   8.804  16.767  13.797
30637W        W90074  17.082   0.808  13.396
30638W        W90075   3.942  36.008  10.554
30639W        W90076   5.806  12.313  13.860
30640W        W90077  19.659  43.341  11.005
30641W        W90078  35.384  41.893   1.870
30642W        W90079  24.720  15.233   4.776
30643W        W90080  26.205  27.666  11.567
30644W        W90081  10.722  16.186  11.455
30645W        W90082  16.670  27.102   1.699
30646W        W90083  35.095  29.130  11.524
30647W        W90084  22.647   4.415  12.430
30648W        W90085   7.771  43.801  13.955
30649W        W90086  14.691   7.860   0.444
30650W        W90087  27.171  12.643  13.046
30651W        W90088  34.522  37.884   0.364
30652W        W90089  33.935  25.477  13.877
30653W        W90090   8.386   0.872   4.629
30654W        W90091  22.124  25.076   4.685
30655W        W90092   3.324   3.720  12.345
30656W        W90093  15.749  24.559  10.590
30657W        W90094  40.950  24.101   3.176
30658W        W90095  35.907  39.331  11.936
30659W        W90096  19.580  21.526  14.327
30660W        W90097   3.296  18.247   3.267
30661W        W90098  28.951  41.294  13.419
30662W        W90099  30.458  43.352   2.798
30663W        W90100   5.834  40.856   2.375
30664W        W90101  12.637   9.782   2.730
30665W        W90102   2.263   1.420  11.002
30666W        W90103   5.417  19.712   4.334
30667W        W90104   7.797  10.802  14.766
30668W        W90105   5.872  12.177  11.978
30669W        W90106  15.148  19.206  14.916
30670W        W90107  14.809   3.251  10.916
30671W        W90108   0.821  18.092   5.121
30672W        W90109  12.785   8.234  13.823
30673W        W90110  37.448  18.550   0.934
30674W        W90111  28.957  29.633  12.046
30675W        W90112  31.430  21.550  11.469
30676W        W90113  14.773  10.260   2.375
30677W        W90114  42.787  27.484   2.762
30678W        W90115  14.117  42.316   0.394
30679W        W90116  26.494  14.270   5.199
30680W        W90117  22.053   8.762  11.948
30681W        W90118  25.965  32.888  13.435
30682W        W90119  23.175  17.200  11.082
30683W        W90120  40.546   7.389   1.402
30684W        W90121   2.398  43.974  13.799
30685W        W90122  44.895  20.526  13.862
30686W        W90123  36.534   0.960   4.241
30687W        W90124  19.240   2.784  13.325
30688W        W90125  37.487  16.130   4.232
30689W        W90126  24.602  17.712  10.559
30690W        W90127   9.705  39.030  11.439
30691W        W90128  32.141  41.013  11.576
30692W        W90129   9.665  39.827  11.443
30693W        W90130   1.759   3.728   3.644
30694W        W90131  44.869  34.101  14.017
30695W        W90132  10.708  11.233   3.361
30696W        W90133  26.112  24.099   0.746
30697W        W90134  41.522   0.897   1.401
30698W        W90135  21.171  33.493   3.263
30699W        W90136  33.969  20.713  12.393
30700W        W90137  44.332  37.941   3.154
30701W        W90138  30.920  35.986   1.859
30702W        W90139  33.411  31.979  13.871
30703W        W90140   6.743  33.071  10.544
30704W        W90141  16.661  38.463   2.665
30705W        W90142   5.254  37.865  14.937
30706W        W90143   6.375   0.987  10.900
30707W        W90144  31.567   8.763  11.980
30708W        W90145   8.804  19.097  13.952
30709W        W90146  19.681   6.240  10.902
30710W        W90147   4.823  22.636  11.392
30711W        W90148  13.339  12.256  11.430
30712W        W90149  19.073   1.294  13.434
30713W        W90150  17.687  30.022  10.559
30714W        W90151  19.133  15.739   2.383
30715W        W90152   3.440  32.461  11.919
30716W        W90153  18.292  29.951   2.782
30717W        W90154  37.034   9.345  13.910
30718W        W90155   3.887  29.003   3.692
30719W        W90156   2.912  22.639   2.880
30720W        W90157  30.431  31.073  11.502
30721W        W90158  30.982  41.894  14.306
30722W        W90159  27.479  23.238   2.371
30723W        W90160  11.691  41.990  11.612
30724W        W90161  13.265  19.045   4.653
30725W        W90162   0.494  14.813   3.692
30726W        W90163   9.284  44.829   3.205
30727W        W90164   6.755  21.616   0.773
30728W        W90165  13.648   9.269   0.266
30729W        W90166  28.496  13.798  12.952
30730W        W90167  39.316   4.924  13.369
30731W        W90168  32.576  13.327   0.252
30732W        W90169  28.505   6.801   4.182
30733W        W90170  10.793  11.776   3.384
30734W        W90171  21.702  41.513   0.382
30735W        W90172  38.965   1.949  11.920
30736W        W90173   0.926  28.135   1.926
30737W        W90174  22.648  19.718   1.710
30738W        W90175  27.143   6.348  10.637
30739W        W90176  30.648  40.921   4.830
30740W        W90177   0.745  19.638  12.549
30741W        W90178  13.187  35.554  11.070
30742W        W90179   2.450   5.733   1.261
30743W        W90180  25.529  30.559   4.221
30744W        W90181  15.642  36.969   3.701
30745W        W90182   2.849   0.287  12.425
30746W        W90183   6.679  21.093   0.938
30747W        W90184  24.075   9.805  11.093
30748W        W90185  20.215   1.439   3.792
30749W        W90186   6.324  14.248   0.291
30750W        W90187  23.033   0.292   3.768
30751W        W90188  25.521  11.340  12.021
30752W        W90189  17.223  33.889   2.862
30753W        W90190  11.835  42.874   5.193
30754W        W90191   9.217  19.274   1.901
30755W        W90192  37.857   2.434   2.895
30756W        W90193  27.623  16.663   3.695
30757W        W90194  11.141   7.697   0.330
30758W        W90195  38.942  24.204  12.415
30759W        W90196  21.181   9.840   9.934
30760W        W90197   3.368  39.971  10.996
30761W        W90198   4.309  39.888  13.415
30762W        W90199  19.226   0.966   4.341
30763W        W90200  40.401  44.835  12.529
30764W        W90201  41.972  10.331   4.255
30765W        W90202  33.880   7.690   4.672
30766W        W90203  25.644   7.296   3.226
30767W        W90204  43.010  41.472   2.267
30768W        W90205  18.710  36.552   4.608
30769W        W90206   6.745  34.092  10.426
30770W        W90207  33.608  18.591  11.979
30771W        W90208  13.717   0.333  10.536
30772W        W90209  41.490  28.527   3.747
30773W        W90210   0.904  39.536  13.312
30774W        W90211   2.889  10.770   4.350
30775W        W90212  36.507   7.685   2.197
30776W        W90213  23.092  12.144  10.527
30777W        W90214  26.156  17.259   3.747
30778W        W90215  40.405  17.170  13.824
30779W        W90216  24.485  41.359  11.127
30780W        W90217  34.972  44.396   1.344
30781W        W90218  22.627  17.275  11.398
30782W        W90219  43.931  36.346   4.316
30783W        W90220  43.295   0.955   4.819
30784W        W90221  14.099  38.886  11.110
30785W        W90222  24.025  23.097   1.814
30786W        W90223  30.963   8.868   4.264
30787W        W90224  29.494  34.018   1.396
30788W        W90225  13.194  31.092  12.916
30789W        W90226  25.086  25.062  12.066
30790W        W90227  13.610  33.484   3.860
30791W        W90228  36.055  20.135   4.787
30792W        W90229  10.339   3.837   3.769
30793W        W90230  26.951   5.306   1.265
30794W        W90231  35.953  18.580  13.033
30795W        W90232   9.808  32.017   4.624
30796W        W90233  34.943  18.078   5.213
30797W        W90234  10.757  29.435   1.422
30798W        W90235  15.823   2.959  11.542
30799W        W90236  15.735   3.855  13.481
30800W        W90237  24.018  33.529  12.988
30801W        W90238  29.155  27.054  14.926
30802W        W90239  34.426   8.231   4.684
30803W        W90240  30.494  28.174  12.943
30804W        W90241  20.538  17.088   1.451
30805W        W90242   6.222  30.477  14.950
30806W        W90243   3.365  40.485  10.949
30807W        W90244  40.874  25.684   3.291
30808W        W90245  22.106  43.393   2.292
30809W        W90246  38.001  42.003  13.547
30810W        W90247  43.498   0.435   0.259
30811W        W90248  33.426   1.239  10.900
30812W        W90249  14.335  34.953   0.280
30813W        W90250   7.716  43.443  10.444
30814W        W90251  14.098  20.759  12.887
30815W        W90252   0.937  31.948   1.339
30816W        W90253  20.129  39.357  12.580
30817W        W90254  18.126  23.202  13.985
30818W        W90255  32.422  20.583  12.475
30819W        W90256   5.751   8.250  14.327
30820W        W90257  16.315  37.964   3.176
30821W        W90258  21.142  43.313   3.677
30822W        W90259  37.087  11.647   2.249
30823W        W90260  20.657  36.845  13.912
30824W        W90261   7.351  13.807   3.249
30825W        W90262   1.828   7.287   4.163
30826W        W90263  34.572  26.611   2.242
30827W        W90264  21.151  14.191   1.770
30828W        W90265   0.340  30.152   3.316
30829W        W90266  13.621  26.461   2.209
30830W        W90267  13.271  34.459  13.867
30831W        W90268   3.911   7.837   2.753
30832W        W90269  16.697  30.059   4.299
30833W        W90270   8.784  20.098   5.274
30834W        W90271  31.408   1.878   2.892
30835W        W90272   1.841  32.020   3.788
30836W        W90273  42.875  30.618   2.414
30837W        W90274  37.934  33.522   0.422
30838W        W90275   6.717  27.963   2.711
30839W        W90276  33.506  37.056   2.345
30840W        W90277  44.350  23.098  13.984
30841W        W90278  12.190  25.074   1.240
30842W        W90279  37.387   8.241   1.248
30843W        W90280   8.665  43.273  12.347
30844W        W90281   7.895  11.835   0.248
30845W        W90282  21.601  27.655   4.228
30846W        W90283  13.688  36.863   0.726
30847W        W90284  29.530  19.675   2.745
30848W        W90285   8.726  30.552   1.435
30849W        W90286   5.236  11.650   2.734
30850W        W90287  38.847   8.312   1.244
30851W        W90288   0.279  36.581   1.872
30852W        W90289  41.490  13.658   3.660
30853W        W90290  12.121   0.771  10.460
30854W        W90291  22.713  27.592   1.928
30855W        W90292  11.671  34.546   0.892
30856W        W90293  36.094  33.085   3.241
30857W        W90294  41.882  43.319   2.822
30858W        W90295   4.885  27.045  13.364
30859W        W90296  22.719   6.688   2.879
30860W        W90297  38.553  26.515   1.255
30861W        W90298  23.527  37.012   0.244
30862W        W90299  37.863   6.789   3.762
30863W        W90300  25.538   5.412  12.024
30864W        W90301   5.289  24.602  12.425
30865W        W90302   0.743  40.878  14.963
30866W        W90303  27.582   2.869   2.870
30867W        W90304  40.883  12.120   3.865
30868W        W90305  34.951   9.816  10.606
30869W        W90306  30.519  12.735   3.756
30870W        W90307  38.405   0.392   1.311
30871W        W90308  22.117  43.333   4.236
30872W        W90309  12.666  41.878  11.117
30873W        W90310  19.243  30.137  14.859
30874W        W90311  22.561   7.722  12.491
30875W        W90312  10.324   9.389   3.850
30876W        W90313  36.568  28.631   4.652
30877W        W90314  17.790  37.462  10.567
30878W        W90315   2.966  26.207   9.493
30879W        W90316   3.743  19.244   1.701
30880W        W90317  14.271   5.319  10.600
30881W        W90318  33.497   1.405   0.960
30882W        W90319   0.468   2.876   0.455
30883W        W90320   1.337   4.870  12.026
30884W        W90321  21.595  13.287   4.657
30885W        W90322  11.340  44.300   4.194
30886W        W90323  21.721  39.934   3.768
30887W        W90324   9.813   8.320   0.342
30888W        W90325  38.396  35.010   1.434
30889W        W90326  17.236  35.530   0.925
30890W        W90327   9.261  44.290  12.470
30891W        W90328  26.588   6.425  11.590
30892W        W90329  41.524   7.705   2.307
30893W        W90330  44.764  18.558   3.336
30894W        W90331  24.192  28.601   0.899
30895W        W90332  28.935   6.688   1.840
30896W        W90333  22.629   1.458   3.328
30897W        W90334  35.547  41.038   3.831
30898W        W90335  33.020  20.096  13.460
30899W        W90336  43.431  42.903   1.703
30900W        W90337  31.477  12.172  11.484
30901W        W90338  36.516  18.724  13.396
30902W        W90339  24.589  18.093   3.299
30903W        W90340   7.237  34.579  10.413
30904W        W90341  23.564  31.445   0.458
30905W        W90342   1.421  41.492   3.854
30906W        W90343  12.696  15.172  12.917
30907W        W90344  17.654  14.614  14.291
30908W        W90345  36.949  33.396  14.395
30909W        W90346   6.335  19.703   2.184
30910W        W90347  26.456  24.523  13.437
30911W        W90348  22.561  40.395  11.382
30912W        W90349  25.473  43.484   2.826
30913W        W90350  34.444  21.520  14.446
30914W        W90351  32.528  32.625   0.749
30915W        W90352  35.870  18.125  11.391
30916W        W90353  40.047   2.828  11.478
30917W        W90354  30.526   6.211  14.813
30918W        W90355  21.262   2.247   1.740
30919W        W90356  16.212  31.448   4.679
30920W        W90357  29.104  25.166  11.116
30921W        W90358  40.413  12.225  14.845
30922W        W90359   6.318  35.902   1.788
30923W        W90360  11.705  43.430  11.894
30924W        W90361  33.496  13.335   1.868
30925W        W90362   8.228  27.997   1.862
30926W        W90363  20.148  38.896   0.738
30927W        W90364  44.817  12.770   0.289
30928W        W90365  37.569   6.217  10.475
30929W        W90366  14.194  22.251   3.221
30930W        W90367   8.320   1.923   3.838
30931W        W90368   0.279  27.546  14.812
30932W        W90369  28.973  24.504  14.825
30933W        W90370   3.919  11.172   2.865
30934W        W90371  24.480  37.356   5.683
30935W        W90372  33.601  20.711  11.118
30936W        W90373   0.340  16.094   1.263
30937W        W90374  34.524  27.470   2.299
30938W        W90375  36.373   6.317  14.515
30939W        W90376  42.990   8.811  11.564
30940W        W90377  31.558  23.653  12.939
30941W        W90378  38.555  40.442  10.972
30942W        W90379   9.183  22.558  14.964
30943W        W90380  12.344  14.691   1.250
30944W        W90381   5.713   7.751   3.338
30945W        W90382  38.832  35.440  11.562
30946W        W90383  38.002  12.328  13.371
30947W        W90384  36.072  21.689  13.886
30948W        W90385  17.696   7.829  14.324
30949W        W90386  37.977  13.310  11.375
30950W        W90387   0.264  14.729  13.998
30951W        W90388  32.040   2.462  14.307
30952W        W90389   0.843  42.985  11.592
30953W        W90390   2.816  18.129  10.564
30954W        W90391  26.580  36.469  13.062
30955W        W90392  25.490  28.021  14.451
30956W        W90393   7.351   3.222  13.792
30957W        W90394  42.948  35.948   1.809
30958W        W90395  13.259  38.973  13.311
30959W        W90396  19.586   6.832  14.435
30960W        W90397  26.684  17.673   2.400
30961W        W90398  16.663  25.527   3.745
30962W        W90399  41.812  33.932  12.485
30963W        W90400  27.067  15.730  11.031
30964W        W90401  25.482  24.545  11.384
30965W        W90402   5.777  30.434   4.677
30966W        W90403   8.401   7.684   3.217
30967W        W90404  35.510  38.900  12.995
30968W        W90405   4.796  24.640  14.782
30969W        W90406  31.986   6.281   4.340
30970W        W90407  34.575  26.486  11.971
30971W        W90408  31.937  16.313  13.046
30972W        W90409   7.294  19.088   4.218
30973W        W90410  15.135   4.923   4.265
30974W        W90411  22.567  26.026  13.941
30975W        W90412  39.398  14.731   4.754
30976W        W90413   1.976   5.710  14.485
30977W        W90414  34.506  44.829  12.439
30978W        W90415   8.813  35.480  12.950
30979W        W90416  33.476  14.661  12.406
30980W        W90417  30.452  24.563  14.982
30981W        W90418   5.415  22.649   3.160
30982W        W90419  15.797   8.287   5.299
30983W        W90420  13.271   3.334  13.408
30984W        W90421  38.843  20.248  12.339
30985W        W90422  38.854  30.939  12.511
30986W        W90423  15.313  38.511  12.395
30987W        W90424  32.588   1.398  11.387
30988W        W90425  12.303   0.401  11.586
30989W        W90426   1.933  32.041   2.672
30990W        W90427   2.340  30.605  14.947
30991W        W90428  14.278  13.799   0.341
30992W        W90429  12.251  32.521  13.929
30993W        W90430  32.075  25.081  14.337
30994W        W90431  19.687   5.790   3.677
30995W        W90432  38.943  26.652   1.906
30996W        W90433  36.470  44.368   3.821
30997W        W90434   8.778   2.725   2.291
30998W        W90435  43.497   8.255   1.875
30999W        W90436  44.825  25.981  12.890
31000W        W90437   6.727   7.177  13.540
31001W        W90438  38.382  39.003  12.548
31002W        W90439   3.346  18.054  13.490
31003W        W90440   3.339  39.510   4.686
31004W        W90441  16.676   2.853   4.236
31005W        W90442   7.265  27.166   0.948
31006W        W90443  40.053  37.994   1.778
31007W        W90444   8.199   5.794   3.369
31008W        W90445  43.408   3.409   1.291
31009W        W90446  41.897  34.920  13.919
31010W        W90447  37.580  34.866  14.961
31011W        W90448   0.494  43.892   3.666
31012W        W90449   0.972  29.605   2.393
31013W        W90450   6.337   1.238  12.350
31014W        W90451  38.417  23.132   0.478
31015W        W90452  17.711  36.998  10.452
31016W        W90453  41.303  22.694   3.739
31017W        W90454  13.281  38.333  12.847
31018W        W90455  19.611  42.329  12.095
31019W        W90456   9.875  29.487   3.830
31020W        W90457  25.988  25.172   4.241
31021W        W90458  14.170  10.794   1.739
31022W        W90459   9.831  21.536  11.879
31023W        W90460  11.144  27.568  11.045
31024W        W90461  35.033  36.511   4.129
31025W        W90462  37.565  31.436   0.850
31026W        W90463   7.741  16.714   1.281
31027W        W90464  15.153  24.500  14.284
31028W        W90465  29.060  15.739  12.940
31029W        W90466  14.713  22.241  13.544
31030W        W90467  40.357   0.374   3.347
31031W        W90468   4.817  39.052  12.493
31032W        W90469  19.627  23.065   2.755
31033W        W90470  43.801  23.070   4.193
31034W        W90471   7.392  40.525   4.653
31035W        W90472  31.037  20.630  14.378
31036W        W90473  17.643  11.706  11.926
31037W        W90474  27.491  30.045   2.210
31038W        W90475   5.202  24.996   5.761
31039W        W90476  33.487  16.632   3.743
31040W        W90477   9.725  31.001   1.712
31041W        W90478  22.552   2.784   4.673
31042W        W90479  31.548  33.959   4.194
31043W        W90480  17.681  35.503   2.755
31044W        W90481  25.597  35.507  13.527
31045W        W90482  10.741  43.308   4.173
31046W        W90483  19.128  17.798  13.035
31047W        W90484  34.904   2.233   0.333
31048W        W90485  38.932  22.571  14.342
31049W        W90486  32.557  30.457   4.135
31050W        W90487  19.685  24.190  14.997
31051W        W90488  24.531  25.541   0.350
31052W        W90489   3.381   9.887  13.029
31053W        W90490   9.298  37.577  12.575
31054W        W90491  42.922   5.774  13.895
31055W        W90492  41.359   5.292   4.618
31056W        W90493  16.660   7.897   0.862
31057W        W90494  27.615  21.542   4.278
31058W        W90495  22.011  17.125  12.942
31059W        W90496   4.866  43.334   4.343
31060W        W90497  34.015   1.771   0.278
31061W        W90498  39.342   3.321   1.279
31062W        W90499   3.748  36.039   1.769
31063W        W90500  39.453  37.524  12.498
31064W        W90501  32.950  14.603  14.385
31065W        W90502   7.860  30.147   2.306
31066W        W90503  17.160  20.121   3.159
31067W        W90504  32.617  43.000  12.544
31068W        W90505  23.636  10.192  13.478
31069W        W90506   6.273  12.318   4.688
31070W        W90507  39.416  42.515  12.062
31071W        W90508  31.029   4.744   4.779
31072W        W90509  37.974   4.367   0.792
31073W        W90510  44.844   9.744  11.054
31074W        W90511  26.160   5.204   2.249
31075W        W90512  40.386  43.776  12.378
31076W        W90513  15.676  44.885  11.899
31077W        W90514   2.901  33.532   1.227
31078W        W90515  38.881   4.840  11.970
31079W        W90516  41.950  13.658  12.918
31080W        W90517  42.888  40.316   3.667
31081W        W90518  17.201  11.141  14.448
31082W        W90519  18.702  37.405   3.690
31083W        W90520  38.000  33.055  10.473
31084W        W90521  31.062  16.248  12.885
31085W        W90522   6.901  34.615  14.002
31086W        W90523  41.428  12.138   2.335
31087W        W90524   4.365  33.539  11.514
31088W        W90525  19.255  28.039  12.051
31089W        W90526  18.589  33.469   5.142
31090W        W90527  39.522  31.990  11.983
31091W        W90528  35.923  35.965  14.414
31092W        W90529  15.609   3.755   4.347
31093W        W90530   1.961  12.175  13.370
31094W        W90531  44.772  23.016   0.948
31095W        W90532  16.212  20.132   1.771
31096W        W90533  29.131  28.038  10.912
31097W        W90534   4.241  41.941   4.340
31098W        W90535  40.364  43.424  13.831
31099W        W90536  43.929   0.823  12.861
31100W        W90537   5.292  17.095   1.235
31101W        W90538  20.231   1.368  10.957
31102W        W90539   6.771   4.306   2.710
31103W        W90540  20.181  31.566  12.001
31104W        W90541  13.165   1.442   2.408
31105W        W90542  20.596   6.274  13.853
31106W        W90543  12.836  30.554  13.988
31107W        W90544  22.026  11.344  13.998
31108W        W90545  28.113  24.485  10.458
31109W        W90546  12.283  25.010  11.062
31110W        W90547  33.515  39.536  11.951
31111W        W90548   3.903   1.806   4.810
31112W        W90549  16.139   7.788  10.629
31113W        W90550   2.889  40.500   4.695
31114W        W90551  13.755  12.810   0.784
31115W        W90552  42.012  23.620  11.059
31116W        W90553  22.701  25.181   2.249
31117W        W90554   9.688   4.361  13.426
31118W        W90555   3.260  20.566  12.088
31119W        W90556   6.376   2.743  10.903
31120W        W90557   6.697  37.037   3.693
31121W        W90558  39.433  25.131  12.036
31122W        W90559  25.074  17.705   0.466
31123W        W90560  41.799   3.325  13.387
31124W        W90561  17.654  31.115  14.367
31125W        W90562  32.418  14.131  14.357
31126W        W90563  33.612  40.013   0.417
31127W        W90564  36.026  22.613  12.531
31128W        W90565  16.155   7.228  11.568
31129W        W90566   3.227  32.631   3.245
31130W        W90567  40.438  43.397  11.003
31131W        W90568  13.667  21.240   4.317
31132W        W90569  32.508  15.183   1.280
31133W        W90570   4.824  15.810  13.943
31134W        W90571  21.071  23.534  14.369
31135W        W90572   0.947  33.606  14.825
31136W        W90573  32.409   9.795  14.759
31137W        W90574   3.262  30.035   4.709
31138W        W90575  40.398   5.376   3.656
31139W        W90576   3.888  35.055  13.034
31140W        W90577  10.218  35.443  13.808
31141W        W90578  26.490  33.031   2.199
31142W        W90579  17.134  14.322   1.934
31143W        W90580   8.696   0.271  12.921
31144W        W90581  25.060  37.435   1.329
31145W        W90582  25.216  22.230  14.434
31146W        W90583  22.623  37.977   3.177
31147W        W90584  19.689  10.740   1.748
31148W        W90585   5.896  37.989  12.922
31149W        W90586  27.141   7.233   0.956
31150W        W90587  38.338  33.379  13.014
31151W        W90588   5.911  32.451  13.470
31152W        W90589   9.763   2.837  12.039
31153W        W90590  32.511  37.069   4.154
31154W        W90591   7.286  11.793   3.760
31155W        W90592  32.058  30.911   0.242
31156W        W90593   8.194  18.081  14.878
31157W        W90594   0.290  22.197  14.494
31158W        W90595  34.561  12.755  12.507
31159W        W90596  21.575  25.102   1.228
31160W        W90597  25.546   3.460  10.432
31161W        W90598  32.930  18.646   0.367
31162W        W90599  31.497  44.471   4.668
31163W        W90600  23.690  28.601   4.190
31164W        W90601  13.660   7.908   0.416
31165W        W90602   4.232  24.004   4.820
31166W        W90603  44.900  39.470  11.057
31167W        W90604   6.261  25.082   2.772
31168W        W90605  25.077  18.190  10.987
31169W        W90606  20.546  18.059   4.643
31170W        W90607  25.135   1.359   2.391
31171W        W90608  12.199  34.099   0.958
31172W        W90609  14.101   4.277   4.651
31173W        W90610  13.135  44.265   3.266
31174W        W90611  35.466   4.428   4.636
31175W        W90612  33.895  10.147   2.807
31176W        W90613  22.677  22.627  11.381
31177W        W90614   7.403  12.269  14.422
31178W        W90615  23.568   6.733   2.358
31179W        W90616  23.610  35.981   3.280
31180W        W90617   5.690  25.969  10.945
31181W        W90618   1.470  13.734  12.558
31182W        W90619  12.225  13.664  13.456
31183W        W90620  22.586  39.902   1.804
31184W        W90621  32.423  23.591  12.984
31185W        W90622  10.840  37.020   1.448
31186W        W90623  41.982  35.577  14.505
31187W        W90624   1.917  36.030  13.495
31188W        W90625  26.527  44.919   0.264
31189W        W90626  26.979  22.663   3.694
31190W        W90627  30.146  35.074   4.122
31191W        W90628  17.102  41.890   9.470
31192W        W90629  39.994  23.142   0.929
31193W        W90630  34.965  17.289  10.589
31194W        W90631  19.604  15.778   0.767
31195W        W90632  32.074   9.209  13.876
31196W        W90633   2.379  16.607  14.829
31197W        W90634  12.626  37.478   0.365
31198W        W90635  16.659   7.844  11.408
31199W        W90636   7.241   5.206   1.920
31200W        W90637  20.728  38.559  10.405
31201W        W90638  41.979  40.523  10.593
31202W        W90639   3.445  16.574  10.452
31203W        W90640  44.968  41.036   1.289
31204W        W90641  17.687   3.326  11.063
31205W        W90642   6.372   3.830   4.703
31206W        W90643  15.798  28.591  12.826
31207W        W90644  42.896  20.559  13.408
31208W        W90645  16.282  43.932   1.341
31209W        W90646  17.728  30.002   2.668
31210W        W90647  11.829  21.235  11.398
31211W        W90648  28.176  35.373   2.731
31212W        W90649  17.293  17.162  11.929
31213W        W90650  37.414  31.961   4.245
31214W        W90651   1.857  21.215   5.318
31215W        W90652  27.478  36.096  10.117
31216W        W90653  17.257   3.812  11.045
31217W        W90654  41.327  31.052  13.826
31218W        W90655  13.134  34.107   4.157
31219W        W90656  13.309  25.088   1.727
31220W        W90657  42.834   1.462   0.378
31221W        W90658  37.024  40.347  12.457
31222W        W90659  42.415  23.150   0.457
31223W        W90660  29.966   5.237  13.855
31224W        W90661   5.876   0.353  11.997
31225W        W90662  18.693  26.134  11.557
31226W        W90663   4.376  39.560  11.577
31227W        W90664  12.245   3.328   4.820
31228W        W90665  12.346  25.111   2.195
31229W        W90666  20.608  31.074  11.880
31230W        W90667   1.833  29.459  12.433
31231W        W90668  20.663  27.103  12.053
31232W        W90669  13.186   7.267   4.204
31233W        W90670  22.043  30.441  12.401
31234W        W90671   9.832  27.691  14.472
31235W        W90672  15.819  13.270   3.168
31236W        W90673  26.161  43.481  13.388
31237W        W90674   2.784  24.662   4.208
31238W        W90675  28.591  42.443   3.187
31239W        W90676  31.011  17.676   3.747
31240W        W90677  19.211  23.098   2.883
31241W        W90678  33.958  12.251   1.792
31242W        W90679  19.231  17.789   1.445
31243W        W90680  10.724  17.576  14.471
31244W        W90681   4.858  24.226   1.776
31245W        W90682  20.681   0.436   3.753
31246W        W90683  41.926  14.312   3.793
31247W        W90684  36.384  36.387   4.724
31248W        W90685  29.595  31.969  13.907
31249W        W90686   6.309  17.603   2.368
31250W        W90687  26.146   6.196   0.782
31251W        W90688  10.654  21.069  14.423
31252W        W90689  43.008  37.354   2.412
31253W        W90690  31.482  39.346   0.954
31254W        W90691  24.724  32.960   2.711
31255W        W90692  24.133  18.164   4.696
31256W        W90693  14.791  15.724   2.221
31257W        W90694  12.753  27.182   1.281
31258W        W90695  30.014   3.419   4.816
31259W        W90696   7.307  38.987  13.962
31260W        W90697   5.864  19.157  10.963
31261W        W90698   4.319  41.868   0.286
31262W        W90699  11.184  43.788  10.913
31263W        W90700   5.245  16.183   2.867
31264W        W90701  23.592  34.886  14.321
31265W        W90702  15.668   8.257  14.013
31266W        W90703   2.827  35.555   3.318
31267W        W90704  25.217  19.603  11.459
31268W        W90705  30.522  30.077  12.022
31269W        W90706   5.412  25.562   0.770
31270W        W90707  18.221   8.276   0.873
31271W        W90708  27.162  36.879  13.953
31272W        W90709   6.202  23.500  12.032
31273W        W90710  15.731  20.178  11.516
31274W        W90711  35.977  24.699  12.420
31275W        W90712  29.061  33.437  13.055
31276W        W90713  24.710  11.697  14.378
31277W        W90714  29.633  17.106   4.641
31278W        W90715  42.816  28.107   1.746
31279W        W90716  27.688  20.698   1.935
31280W        W90717  12.241  34.116  14.301
31281W        W90718  27.449  20.640  12.901
31282W        W90719  18.595  12.815   3.649
31283W        W90720   5.432  33.086  13.010
31284W        W90721  40.929  29.061  11.974
31285W        W90722  19.727  26.457   1.755
31286W        W90723  34.923  31.509   3.344
31287W        W90724  11.351  20.596   1.865
31288W        W90725   4.290  29.612  14.826
31289W        W90726   0.859  31.052   3.659
31290W        W90727   6.705   2.360  13.520
31291W        W90728  17.741   4.846   0.278
31292W        W90729  15.580   3.769  11.507
31293W        W90730  38.371  19.106  12.031
31294W        W90731  35.915   2.793   0.776
31295W        W90732  41.496  37.024   4.236
31296W        W90733   4.340  40.505   2.364
31297W        W90734  24.703   5.333  14.855
31298W        W90735   1.958  24.657  13.382
31299W        W90736  12.785  36.894  12.426
31300W        W90737   6.829  29.110  14.311
31301W        W90738   5.287  20.121  13.054
31302W        W90739  23.136  37.451   2.184
31303W        W90740   6.725  29.565  13.851
31304W        W90741  19.762   6.715  14.932
31305W        W90742  13.604  17.076   0.436
31306W        W90743   6.354  43.444  12.985
31307W        W90744  44.290  38.872  13.342
31308W        W90745  18.596  37.373   2.287
31309W        W90746   0.817   6.331  11.448
31310W        W90747  28.491  42.321  11.007
31311W        W90748  41.793  43.888  10.591
31312W        W90749   2.426  29.918   2.807
31313W        W90750  19.630  13.828  11.972
31314W        W90751   2.262  38.353   2.393
31315W        W90752  37.999  40.884  14.806
31316W        W90753  25.525  13.108  14.992
31317W        W90754  26.490  20.246  11.605
31318W        W90755  38.568  42.828  14.294
31319W        W90756   4.396  25.123  12.412
31320W        W90757  37.865  38.021   3.792
31321W        W90758  30.592  22.066  10.894
31322W        W90759  42.445  18.731  14.834
31323W        W90760  43.956  31.962   4.167
31324W        W90761  41.423  42.345  10.539
31325W        W90762  22.597  14.826  14.459
31326W        W90763   2.910   0.902   0.442
31327W        W90764  11.765  38.000  14.419
31328W        W90765  25.116  16.235   0.750
31329W        W90766  42.995   4.331   2.224
31330W        W90767   0.795  40.006   1.914
31331W        W90768  35.954  10.747  10.483
31332W        W90769  42.432   9.197   3.782
31333W        W90770  27.173   5.315  13.945
31334W        W90771   6.853  33.899  11.952
31335W        W90772  16.568   7.338  10.408
31336W        W90773  19.202   7.759   0.253
31337W        W90774  42.879  21.228   3.683
31338W        W90775  30.577   5.245  12.874
31339W        W90776  42.892  29.143   2.811
31340W        W90777  44.910  20.084   1.248
31341W        W90778  27.991  33.445  12.903
31342W        W90779  44.781  21.517   3.631
31343W        W90780  13.747   2.739   3.312
31344W        W90781  10.250  17.748  12.824
31345W        W90782   1.942  16.293  12.416
31346W        W90783   0.490  12.209   0.312
31347W        W90784   1.469   7.319  11.468
31348W        W90785  10.718   9.848  10.940
31349W        W90786  27.490   1.368   4.132
31350W        W90787  39.887  28.181  14.348
31351W        W90788  11.809   3.912   4.133
31352W        W90789  20.081   1.822  14.284
31353W        W90790  41.517  19.089   4.777
31354W        W90791   3.418   9.221   1.356
31355W        W90792  17.744  37.370  12.446
31356W        W90793  17.676  19.674   0.391
31357W        W90794   3.782   3.728  11.914
31358W        W90795   9.803  30.622   3.195
31359W        W90796   6.227  27.482   4.348
31360W        W90797  20.124   2.379   4.146
31361W        W90798  35.560  44.951  11.555
31362W        W90799   3.266  17.164  10.924
31363W        W90800   8.786   9.228  13.796
31364W        W90801   4.759  35.972  11.418
31365W        W90802   3.743   8.823  12.937
31366W        W90803  15.737  40.523  14.783
31367W        W90804  29.643  25.684   0.266
31368W        W90805  33.899  42.874   2.754
31369W        W90806  30.462  10.714   2.209
31370W        W90807   8.749   7.171  11.608
31371W        W90808  10.654  10.736   3.668
31372W        W90809  42.381  19.535   4.211
31373W        W90810  40.533  24.180   9.997
31374W        W90811   7.410  43.381   3.321
31375W        W90812  24.201   4.861  14.913
31376W        W90813   0.852  43.826  11.058
31377W        W90814  10.330   3.215  10.409
31378W        W90815   2.417  11.695  12.361
31379W        W90816   8.289  21.262  13.856
31380W        W90817  13.629   0.304  14.767
31381W        W90818  33.978   0.469  13.986
31382W        W90819   7.322  31.428  10.950
31383W        W90820  42.384  32.437   3.369
31384W        W90821  21.196  43.965  13.014
31385W        W90822  30.451  15.714   2.201
31386W        W90823  31.641  28.670  12.358
31387W        W90824   7.770  31.574  10.947
31388W        W90825  27.587  40.966  12.472
31389W        W90826  21.073  26.119  12.463
31390W        W90827   1.420  22.054   3.816
31391W        W90828   4.720  36.919   2.388
31392W        W90829  34.886  44.946  12.909
31393W        W90830  21.186   5.729   3.187
31394W        W90831  33.059   0.767   3.287
31395W        W90832  19.251  40.019  11.556
31396W        W90833  36.870  25.133  10.464
31397W        W90834  30.983  26.190   0.379
31398W        W90835  18.605  28.092  14.449
31399W        W90836  20.599  34.386  12.057
31400W        W90837  13.196  44.364   5.250
31401W        W90838   1.419  14.137  14.454
31402W        W90839  30.012  23.081   1.429
31403W        W90840  30.072   2.406  11.088
31404W        W90841  23.001  35.987  13.877
31405W        W90842  33.972  28.054   1.742
31406W        W90843  39.893   9.863  14.942
31407W        W90844  35.434   9.371  12.054
31408W        W90845  14.230  16.786  14.921
31409W        W90846   3.449  28.002   3.350
31410W        W90847  25.186   6.695   0.952
31411W        W90848  33.410  30.625  13.938
31412W        W90849   5.343  26.095   1.315
31413W        W90850  39.541  26.635  11.400
31414W        W90851   3.745  11.694   2.260
31415W        W90852  37.891  43.353   4.119
31416W        W90853  35.016  42.378   5.315
31417W        W90854   9.256  34.419  12.841
31418W        W90855   3.351  40.510  10.489
31419W        W90856  44.285  37.049   0.767
31420W        W90857  12.174  24.546  13.315
31421W        W90858   9.285  25.502  14.319
31422W        W90859  15.119  34.074   4.715
31423W        W90860  35.560  40.368  13.353
31424W        W90861  20.585   0.871   2.246
31425W        W90862  26.081   8.357  13.349
31426W        W90863  31.075  39.980   0.850
31427W        W90864  13.227  20.242   2.755
31428W        W90865  40.436  25.594   0.819
31429W        W90866   6.820   0.947   4.738
31430W        W90867   5.252  43.327   1.371
31431W        W90868  37.889  37.431  14.909
31432W        W90869  39.434  43.335   2.742
31433W        W90870  22.702  43.364  11.027
31434W        W90871  22.201   7.802  12.889
31435W        W90872  44.761   2.468  11.390
31436W        W90873  10.162  23.052   2.698
31437W        W90874  31.625  15.257   4.319
31438W        W90875  29.066  35.447  12.430
31439W        W90876  22.210  30.631   4.304
31440W        W90877  18.153  35.022   2.746
31441W        W90878  33.908   2.256  11.457
31442W        W90879  23.087   9.233  12.536
31443W        W90880  13.751  39.855  11.586
31444W        W90881  26.632  39.381   2.263
31445W        W90882   8.225  25.158  12.447
31446W        W90883  24.568  13.814  13.377
31447W        W90884  23.509   0.293  11.867
31448W        W90885  38.033  22.528   3.707
31449W        W90886   5.433  39.317  14.934
31450W        W90887  25.518  34.561  12.567
31451W        W90888   6.878   7.704  13.816
31452W        W90889   8.746  28.481  12.550
31453W        W90890  43.015  40.974  13.855
31454W        W90891  28.033   5.346  12.070
31455W        W90892  19.182   2.393   2.363
31456W        W90893  19.222  27.986   0.809
31457W        W90894  31.401   5.700  12.938
31458W        W90895  28.066   0.784   2.340
31459W        W90896  15.657   7.216  11.963
31460W        W90897  13.141   6.269  12.438
31461W        W90898  21.177  24.059  12.034
31462W        W90899  10.863  23.691  12.498
31463W        W90900  41.505  11.855  11.384
31464W        W90901  35.358  21.187  12.064
31465W        W90902   1.935  27.053   4.278
31466W        W90903  27.557  31.543  13.544
31467W        W90904  30.581  31.482  12.895
31468W        W90905  26.004   9.330   1.724
31469W        W90906   4.749   4.424  10.900
31470W        W90907   2.866  27.536   0.412
31471W        W90908   1.743  41.324   2.668
31472W        W90909  40.468  13.240  14.869
31473W        W90910  43.890  43.313  13.504
31474W        W90911  26.522  16.217  13.807
31475W        W90912  28.491   3.937   3.194
31476W        W90913  30.106  32.519   0.315
31477W        W90914   7.875  41.523   0.257
31478W        W90915  34.888  29.437   1.741
31479W        W90916   7.192   2.779  13.017
31480W        W90917  14.179  16.158   2.893
31481W        W90918  26.664   7.886   4.142
31482W        W90919  32.059  35.585  10.542
31483W        W90920  32.424  32.050   1.909
31484W        W90921   0.323  11.782  10.490
31485W        W90922  18.745  19.570  14.375
31486W        W90923   1.783  35.881   1.866
31487W        W90924  19.068  31.401   1.292
31488W        W90925  14.739  29.525  11.910
31489W        W90926  32.054  33.969   0.347
31490W        W90927   4.793  43.861  11.435
31491W        W90928  18.168  44.306   1.730
31492W        W90929  30.992   9.753   2.371
31493W        W90930  36.091  18.632   3.253
31494W        W90931  22.670  33.106   1.748
31495W        W90932  37.463   3.341  10.084
31496W        W90933  36.375  34.052  11.570
31497W        W90934  41.803   0.820  10.422
31498W        W90935  35.945  33.918  12.565
31499W        W90936  17.666  24.130  14.380
31500W        W90937   2.443  22.122  14.317
31501W        W90938   6.375  39.840  11.465
31502W        W90939   5.297  14.723  14.830
31503W        W90940  32.897  29.027   0.362
31504W        W90941   0.289  18.281  14.913
31505W        W90942  19.185   9.736   0.829
31506W        W90943  40.397  10.739  13.950
31507W        W90944  21.176  22.560  13.454
31508W        W90945  39.486  25.101  12.895
31509W        W90946  33.128  29.053   0.829
31510W        W90947   8.403   0.270  14.459
31511W        W90948  44.478  33.595  13.471
31512W        W90949  13.676   6.848  13.512
31513W        W90950  31.128  32.126  13.511
31514W        W90951  41.025   6.192   2.230
31515W        W90952  36.927  35.379   0.916
31516W        W90953  19.707   6.715   3.634
31517W        W90954  17.146  32.130  14.920
31518W        W90955  19.226   5.769   0.879
31519W        W90956   8.388  24.517  11.919
31520W        W90957  11.670  15.231   3.277
31521W        W90958  22.251  25.651  12.034
31522W        W90959   0.294   9.802   9.945
31523W        W90960   1.336  17.739   4.202
31524W        W90961  44.774  43.408  10.913
31525W        W90962  24.626  37.574  13.876
31526W        W90963  23.667  11.730   5.238
31527W        W90964  21.068  30.133  11.893
31528W        W90965  35.603  35.876   0.854
31529W        W90966  11.790  28.490  13.803
31530W        W90967  18.773  22.509   4.786
31531W        W90968   8.705  42.295   2.865
31532W        W90969  19.236  16.593  13.833
31533W        W90970  42.454  18.238  13.332
31534W        W90971  21.627  14.833  10.480
31535W        W90972  35.571  44.394  12.951
31536W        W90973   8.827  38.010   4.347
31537W        W90974  35.059  44.360  14.491
31538W        W90975  15.759  36.086   2.681
31539W        W90976  11.222  30.930  14.808
31540W        W90977  15.653  13.199   0.945
31541W        W90978  29.558  35.949   3.752
31542W        W90979  39.834   9.323  12.980
31543W        W90980  26.630  22.218  10.958
31544W        W90981   3.913  17.222   0.348
31545W        W90982  34.521  27.958  12.501
31546W        W90983   7.212  44.428   2.761
31547W        W90984  22.035  39.930   0.948
31548W        W90985  42.423  20.200   1.793
31549W        W90986  13.677  33.554  11.412
31550W        W90987  37.502   3.254   4.652
31551W        W90988  33.017  18.272  13.014
31552W        W90989   6.323  25.500   2.853
31553W        W90990   5.884  13.318  11.532
31554W        W90991  26.654  14.772  14.852
31555W        W90992  10.276  16.302   2.749
31556W        W90993  13.115  27.171  14.419
31557W        W90994  27.063  16.706  12.926
31558W        W90995  21.656  18.652   2.271
31559W        W90996  27.632  25.666   4.827
31560W        W90997  41.815  36.042  13.850
31561W        W90998  37.025  40.875  14.950
31562W        W90999  18.791   9.870  11.376
31563W        W91000  28.681  40.045  10.019
31564W        W91001  16.593  18.665   3.862
31565W        W91002  37.529   5.693   0.949
31566W        W91003  30.986  11.185   4.724
31567W        W91004  14.208   4.366   4.180
31568W        W91005  13.780   2.811   1.250
31569W        W91006  40.819  42.889  12.572
31570W        W91007  19.548  21.683   2.403
31571W        W91008  44.885  22.239  13.879
31572W        W91009  20.682   6.831   3.847
31573W        W91010  24.000  15.688   9.985
31574W        W91011   4.398  16.753   4.726
31575W        W91012  11.786   1.346   1.862
31576W        W91013   5.762  30.926  12.930
31577W        W91014   4.290   6.412  11.394
31578W        W91015  22.054  33.528   1.846
31579W        W91016  33.071   8.319  14.309
31580W        W91017  32.010   6.220  10.643
31581W        W91018   4.877  24.637   3.250
31582W        W91019   4.212  18.748  14.386
31583W        W91020  16.630  32.446  14.490
31584W        W91021  10.149  25.103   3.667
31585W        W91022  11.299  33.029  11.375
31586W        W91023   3.910  41.020  12.885
31587W        W91024  10.727  28.524  14.414
31588W        W91025  26.026   6.213  11.543
31589W        W91026  27.112  22.685   2.411
31590W        W91027  23.171  20.570   0.282
31591W        W91028  11.168  26.958   3.833
31592W        W91029  35.932  40.985  10.443
31593W        W91030  26.680  13.174  14.513
31594W        W91031  41.401  23.607   1.443
31595W        W91032  29.961  30.552   2.797
31596W        W91033  28.658  35.434   3.297
31597W        W91034  22.244  22.555  12.009
31598W        W91035  38.350  11.196  13.431
31599W        W91036   9.151  30.455  13.801
31600W        W91037   6.297  40.886   2.667
31601W        W91038  27.660  33.073   4.817
31602W        W91039  43.923  32.104  10.969
31603W        W91040  25.711  27.563  11.975
31604W        W91041  44.871  41.009   2.316
31605W        W91042  36.977  10.772  14.994
31606W        W91043   4.361  43.311   3.217
31607W        W91044   5.863  41.321   2.309
31608W        W91045   4.903  22.088   3.678
31609W        W91046   2.790  33.570   3.161
31610W        W91047   2.320  41.339  13.036
31611W        W91048  36.556  27.946   3.768
31612W        W91049   4.781   6.357   0.265
31613W        W91050  39.453  36.445  11.917
31614W        W91051  14.096  25.608  11.954
31615W        W91052  24.600  17.290   1.909
31616W        W91053  44.463  21.631  10.000
31617W        W91054  31.468  20.208   2.335
31618W        W91055   1.868  32.419   3.278
31619W        W91056  26.109  11.708   0.790
31620W        W91057  14.829  11.782  13.334
31621W        W91058   5.328  21.623   0.901
31622W        W91059  35.414   7.203   4.314
31623W        W91060  41.913  27.558   4.309
31624W        W91061  33.092  23.517  12.852
31625W        W91062  22.590  18.109   3.684
31626W        W91063  16.166  32.576   1.785
31627W        W91064   9.188   9.177  12.508
31628W        W91065  21.625   8.860  14.401
31629W        W91066  40.003  18.775   2.681
31630W        W91067   1.415  42.925  12.539
31631W        W91068  40.478  41.510   1.264
31632W        W91069  19.074   9.802   3.777
31633W        W91070  37.917  40.826   9.982
31634W        W91071  15.136  21.539   4.327
31635W        W91072   1.931  21.568   4.803
31636W        W91073  28.490  36.849   4.690
31637W        W91074   0.853  12.767   1.212
31638W        W91075   7.403  33.093  11.444
31639W        W91076  27.186  13.167   4.653
31640W        W91077  22.041  11.668  10.927
31641W        W91078  25.130  40.986  13.370
31642W        W91079   9.830  16.575   1.869
31643W        W91080  29.511  42.940   3.699
31644W        W91081  16.794  42.292   5.321
31645W        W91082  19.668  25.588   0.273
31646W        W91083  33.556  40.798  10.492
31647W        W91084  35.383   0.288  10.982
31648W        W91085  10.855  38.947   3.837
31649W        W91086  30.945  36.004  13.335
31650W        W91087  28.527  11.269  11.049
31651W        W91088  24.559  24.692   2.307
31652W        W91089  19.285  20.270   4.792
31653W        W91090  41.369   0.377   4.628
31654W        W91091  29.062  44.399  12.979
31655W        W91092  26.685  38.570   1.232
31656W        W91093   2.912   6.727  10.962
31657W        W91094  25.024  15.178  10.033
31658W        W91095  14.727  18.699  10.487
31659W        W91096   0.884   8.691  14.030
31660W        W91097   5.280  24.997  11.110
31661W        W91098  10.708  30.479  12.525
31662W        W91099  36.394  29.098   4.785
31663W        W91100  27.670  42.970   0.764
31664W        W91101  28.012  30.155   2.264
31665W        W91102  16.614  12.302  13.936
31666W        W91103   4.384  43.385   1.817
31667W        W91104  26.959   4.925  12.090
31668W        W91105  21.665  12.215  10.985
31669W        W91106  40.950  25.541   1.713
31670W        W91107  26.053  21.084   1.447
31671W        W91108   7.218   8.697  14.420
31672W        W91109  36.895  14.203  14.997
31673W        W91110  44.383  34.449  13.363
31674W        W91111  43.020  21.695  13.441
31675W        W91112  28.178  32.915  11.044
31676W        W91113   0.340  42.843   1.791
31677W        W91114   3.239  34.559  11.064
31678W        W91115  14.307  19.173  10.435
31679W        W91116  29.528   3.368   3.657
31680W        W91117  31.944  35.377  14.400
31681W        W91118  20.718  18.656   1.251
31682W        W91119  40.400  15.188  13.524
31683W        W91120   2.953   2.952   1.236
31684W        W91121   8.790  15.245  12.550
31685W        W91122  38.019  11.767  11.105
31686W        W91123  38.344  43.970  12.427
31687W        W91124   9.749  12.792  11.988
31688W        W91125   9.711   8.342  14.902
31689W        W91126   0.957  17.091   3.208
31690W        W91127  29.601   3.901   4.166
31691W        W91128  43.877  20.099  11.038
31692W        W91129  35.569  20.762   2.662
31693W        W91130   2.381   5.872  11.460
31694W        W91131  18.193  19.221   3.236
31695W        W91132  19.153   1.297   2.231
31696W        W91133  10.224  36.396   3.863
31697W        W91134  19.745  32.037  12.482
31698W        W91135  32.402  33.564   4.690
31699W        W91136  21.551  34.479   1.430
31700W        W91137  43.354  13.776   2.851
31701W        W91138   8.344  43.013   1.819
31702W        W91139  29.582  15.171   3.764
31703W        W91140  28.607   3.392  10.515
31704W        W91141   1.340   2.255  12.570
31705W        W91142  44.962  22.997   2.286
31706W        W91143  16.148   2.420  11.494
31707W        W91144  13.649  15.823   9.942
31708W        W91145  31.523  19.098   2.263
31709W        W91146  20.254   9.296  13.794
31710W        W91147  10.380  29.126   2.262
31711W        W91148  12.126  25.600  13.374
31712W        W91149   4.909  13.170   2.206
31713W        W91150   6.837  39.059  14.334
31714W        W91151   6.711  27.959   1.792
31715W        W91152  12.823  31.082   2.877
31716W        W91153  35.010  36.890   1.344
31717W        W91154  19.730   9.875   2.400
31718W        W91155  39.379  34.885  10.940
31719W        W91156  33.573  22.511  10.586
31720W        W91157  15.656  12.322   2.684
31721W        W91158   7.405  18.674   3.806
31722W        W91159  39.390   6.732   1.219
31723W        W91160  23.632   7.201   3.697
31724W        W91161  18.158  35.993   2.299
31725W        W91162  35.529  15.207  11.035
31726W        W91163  27.511  27.602   0.382
31727W        W91164  16.269  37.380  14.418
31728W        W91165  33.996  44.915  10.438
31729W        W91166  17.619  18.231  14.844
31730W        W91167  35.976   5.865   0.924
31731W        W91168  36.398  39.030   0.849
31732W        W91169  33.923  33.449   3.756
31733W        W91170  12.178  42.488   1.731
31734W        W91171  22.179   0.453  14.302
31735W        W91172  21.218  10.643  11.065
31736W        W91173   0.985  31.454   3.844
31737W        W91174  28.125  13.839   0.448
31738W        W91175   2.832   3.336   0.813
31739W        W91176  13.820  12.212   2.883
31740W        W91177  14.626   1.888  13.420
31741W        W91178  39.891  12.158   4.253
31742W        W91179  22.575  27.508  10.614
31743W        W91180  17.220  22.542  13.976
31744W        W91181   1.439  19.252   4.237
31745W        W91182  32.017  34.614  11.031
31746W        W91183  12.795  16.621   1.716
31747W        W91184  11.307  30.103   3.777
31748W        W91185   3.948  26.459   0.458
31749W        W91186   8.799  35.090   3.152
31750W        W91187  30.146   4.784   4.289
31751W        W91188  14.759  20.565  13.004
31752W        W91189   9.689  30.009   0.335
31753W        W91190  22.129  13.248   1.814
31754W        W91191  33.880  24.153   1.918
31755W        W91192  24.223  14.307  14.308
31756W        W91193  25.139  33.465   4.808
31757W        W91194   0.445  23.033  12.900
31758W        W91195   8.280  33.961   2.730
31759W        W91196  22.231  18.096   3.714
31760W        W91197   4.417  37.535   4.750
31761W        W91198  39.344  41.913   3.372
31762W        W91199  38.964   7.676   2.201
31763W        W91200  37.478  12.343  13.932
31764W        W91201  20.093  13.108  13.471
31765W        W91202  20.215  24.230   3.341
31766W        W91203  23.036   4.247   0.293
31767W        W91204  33.428  30.525  12.994
31768W        W91205  12.116  15.200  14.486
31769W        W91206  43.440   6.923  12.950
31770W        W91207  28.656  25.108   4.326
31771W        W91208   7.376   8.762  12.036
31772W        W91209  26.508  33.574   0.843
31773W        W91210  24.017  16.143   3.185
31774W        W91211  34.925   1.894   1.273
31775W        W91212  44.926   7.715   3.303
31776W        W91213  36.347  34.513   3.780
31777W        W91214   8.406  41.421   0.790
31778W        W91215  35.100  22.179  14.340
31779W        W91216   0.814  27.452  12.975
31780W        W91217  22.175  12.732   5.265
31781W        W91218  28.025  27.456   3.839
31782W        W91219  27.045  43.863   2.722
31783W        W91220  20.223  38.881  13.337
31784W        W91221  39.938  16.714  13.013
31785W        W91222  41.356  10.355  11.609
31786W        W91223  43.811   8.280   4.114
31787W        W91224   1.784  25.978   4.331
31788W        W91225  25.111  25.191   1.239
31789W        W91226  42.794   5.694  14.317
31790W        W91227   0.256  37.987  12.378
31791W        W91228  44.469  10.185  10.432
31792W        W91229   5.819  42.455  14.015
31793W        W91230  11.638   7.197  13.340
31794W        W91231  19.089  22.588   3.249
31795W        W91232  37.926  12.698  13.026
31796W        W91233   1.758  38.561   0.388
31797W        W91234  44.391  34.922   1.891
31798W        W91235  30.572  27.665   4.305
31799W        W91236  23.505   0.959   0.862
31800W        W91237   5.413  21.246   2.726
31801W        W91238  38.332  18.598  10.485
31802W        W91239  25.636  32.473   4.732
31803W        W91240   5.258  42.497  14.474
31804W        W91241  39.948  40.434  10.913
31805W        W91242  10.236  41.479  14.804
31806W        W91243  31.961  16.179   0.251
31807W        W91244  24.008  42.839   1.311
31808W        W91245  35.447   7.300  13.500
31809W        W91246  10.835  21.524   0.312
31810W        W91247  34.546  44.859   2.190
31811W        W91248  26.105  40.532   4.835
31812W        W91249  37.063  31.015   4.762
31813W        W91250  21.671  25.010  14.331
31814W        W91251   3.947  28.011   1.388
31815W        W91252  18.282  30.114   3.774
31816W        W91253  18.664  30.506   9.988
31817W        W91254   0.393  15.087  12.407
31818W        W91255   5.868   6.315  13.849
31819W        W91256  20.536  33.979   2.351
31820W        W91257  14.669  31.034  11.939
31821W        W91258  25.065  20.262  13.839
31822W        W91259  12.793  10.138   2.697
31823W        W91260  23.527  20.258   4.261
31824W        W91261   8.163  43.866   4.291
31825W        W91262   0.394  43.372  13.504
31826W        W91263   7.183  41.851  14.379
31827W        W91264  16.573  41.488  14.978
31828W        W91265  25.526  39.380  14.788
31829W        W91266  21.054  32.627  13.347
31830W        W91267  35.046  26.530   4.707
31831W        W91268  42.024  27.522   0.809
31832W        W91269   0.397   3.891   4.823
31833W        W91270  17.145  25.642  14.393
31834W        W91271  37.355  10.253   0.793
31835W        W91272  22.125  22.138  14.298
31836W        W91273   7.850  41.803  10.492
31837W        W91274  40.869  13.339   0.850
31838W        W91275  18.292  13.281   4.713
31839W        W91276  37.977  40.811  11.100
31840W        W91277  12.721  20.653   3.360
31841W        W91278  35.387  39.826  12.076
31842W        W91279  18.103   7.879  11.047
31843W        W91280  43.880  17.295   1.215
31844W        W91281  18.678   5.755   4.132
31845W        W91282  42.995  13.738  12.454
31846W        W91283   6.207  38.931   1.219
31847W        W91284   7.802  38.917   3.290
31848W        W91285  15.218  38.525   3.214
31849W        W91286  28.016   8.744   3.850
31850W        W91287  16.762   2.853  12.009
31851W        W91288  19.231   4.301  12.081
31852W        W91289  24.148  37.457  14.426
31853W        W91290   6.282  35.931  12.566
31854W        W91291   6.821  19.283   3.756
31855W        W91292   9.260   0.320   1.332
31856W        W91293   3.458  22.050  12.934
31857W        W91294  22.105  17.084  14.277
31858W        W91295  28.563   9.814   0.291
31859W        W91296  31.005  11.697   3.701
31860W        W91297  13.283  14.789   2.263
31861W        W91298  42.976  16.591   4.821
31862W        W91299  22.128  18.213  14.837
31863W        W91300  19.715  29.630   4.835
31864W        W91301   6.339  42.356   3.734
31865W        W91302  25.497  37.843  10.044
31866W        W91303  14.605  18.692  13.349
31867W        W91304   5.310  17.283   2.756
31868W        W91305  20.182  33.473   1.402
31869W        W91306  37.572  11.202  14.847
31870W        W91307  34.962  29.570   3.323
31871W        W91308  35.566  13.688   2.838
31872W        W91309  11.790   3.897   1.837
31873W        W91310  20.686  43.484   2.299
31874W        W91311   2.330  24.618   4.697
31875W        W91312  14.710   5.861   4.301
31876W        W91313  14.639  18.683  13.936
31877W        W91314  38.010  17.703   4.322
31878W        W91315  44.344  34.935  13.897
31879W        W91316  13.743  12.824  13.313
31880W        W91317   1.391  13.156  13.429
31881W        W91318   5.271  37.490   0.847
31882W        W91319  23.556  35.524  10.492
31883W        W91320   9.236   8.796  13.863
31884W        W91321  35.484  10.800  11.375
31885W        W91322  44.306  26.163   2.184
31886W        W91323  16.692   1.350  10.911
31887W        W91324  16.676  32.399   3.642
31888W        W91325  36.894   8.882  11.034
31889W        W91326  14.212   8.782   4.728
31890W        W91327  15.721  14.669   4.269
31891W        W91328  16.787   3.238   2.212
31892W        W91329  31.936  16.734  14.287
31893W        W91330  28.525   0.394  12.400
31894W        W91331  33.452   3.427   4.722
31895W        W91332  19.236  35.873   2.327
31896W        W91333   6.352  43.009  11.443
31897W        W91334  44.877  19.115   0.926
31898W        W91335   4.726  11.660   2.387
31899W        W91336   2.906  29.984   0.862
31900W        W91337   8.673   2.807   3.190
31901W        W91338  32.617  25.645   1.694
31902W        W91339  28.979  22.188  11.127
31903W        W91340  10.756  38.559   1.812
31904W        W91341  16.759   9.375  12.492
31905W        W91342  33.590  23.117  12.485
31906W        W91343   3.380  42.912   4.142
31907W        W91344  10.827   6.341   0.259
31908W        W91345   1.452  12.202   5.806
31909W        W91346  12.317  43.373   4.353
31910W        W91347  27.540  34.481   1.701
31911W        W91348  15.758  41.801   2.416
31912W        W91349  28.974   7.786  13.031
31913W        W91350  10.342   5.283   2.249
31914W        W91351  35.087  13.734  13.502
31915W        W91352  17.577  15.715   4.314
31916W        W91353  38.963  11.818   4.319
31917W        W91354  43.903  36.027  11.424
31918W        W91355  37.889  29.431   0.299
31919W        W91356  12.254  28.059   1.424
31920W        W91357  36.397  44.995  14.418
31921W        W91358   0.814  33.391   1.704
31922W        W91359  11.200  27.959   3.867
31923W        W91360  11.841  17.715  12.563
31924W        W91361  42.851   2.751  14.482
31925W        W91362   1.298  17.220   1.321
31926W        W91363   7.703  38.898   2.690
31927W        W91364   3.394  41.896   5.155
31928W        W91365  34.380  40.532   4.641
31929W        W91366   0.865  18.559  11.056
31930W        W91367  33.885  40.955   5.232
31931W        W91368  31.571  43.894   1.233
31932W        W91369  38.537  19.595   4.710
31933W        W91370  37.911  16.695   4.319
31934W        W91371   4.374  37.476   1.447
31935W        W91372  43.386  21.142  11.527
31936W        W91373  16.316  26.501   2.296
31937W        W91374  26.588  42.510   1.282
31938W        W91375  23.530   6.862  14.493
31939W        W91376  37.911  25.142   0.415
31940W        W91377  24.004  38.057   5.307
31941W        W91378  30.526  14.635   1.383
31942W        W91379  41.877  20.272  14.283
31943W        W91380  24.085  21.687  14.819
31944W        W91381   8.795   1.380  11.867
31945W        W91382  27.524  14.117  11.526
31946W        W91383  26.079  41.822  12.910
31947W        W91384  38.539   9.863  12.978
31948W        W91385   5.755  11.718  12.831
31949W        W91386  38.388  32.998   0.376
31950W        W91387  38.563  22.521   4.280
31951W        W91388  36.535   6.333   1.350
31952W        W91389  14.659  13.282   2.732
31953W        W91390  35.391  28.458   3.321
31954W        W91391   9.223  32.525  14.815
31955W        W91392  28.666   1.262   2.767
31956W        W91393  18.058  22.535   3.175
31957W        W91394  26.187  35.553   1.746
31958W        W91395  14.096  10.365   2.733
31959W        W91396   4.836  34.591  11.437
31960W        W91397  36.044  17.771   2.747
31961W        W91398  21.615   1.447   3.768
31962W        W91399  27.975  21.105  14.898
31963W        W91400   9.842   6.852   2.662
31964W        W91401  31.013  14.705   2.847
31965W        W91402   4.204  44.304   4.602
31966W        W91403  39.913   8.844  13.036
31967W        W91404  20.765  26.476   0.901
31968W        W91405  10.676   5.282   0.878
31969W        W91406  11.724   7.898  13.905
31970W        W91407  25.130  33.609  10.405
31971W        W91408  19.256  25.076  14.490
31972W        W91409  43.308   8.402  13.991
31973W        W91410  32.038  25.690   1.928
31974W        W91411  33.062   4.704  12.926
31975W        W91412  22.102   6.370   4.820
31976W        W91413  11.796   8.775  11.970
31977W        W91414  23.210   5.735  14.515
31978W        W91415  35.518  15.641   0.941
31979W        W91416  22.117  25.564  11.606
31980W        W91417  40.865  41.403  14.292
31981W        W91418  12.664  26.699  11.464
31982W        W91419  33.583   7.891   3.145
31983W        W91420  36.090  10.161  13.533
31984W        W91421   3.398  42.973  11.413
31985W        W91422  19.186  24.092  10.510
31986W        W91423  36.418  14.788   2.771
31987W        W91424  39.535  35.361  14.844
31988W        W91425  41.893  20.607  12.445
31989W        W91426  14.282  28.145  12.577
31990W        W91427  15.712  29.948  14.844
31991W        W91428  37.068  43.864  13.547
31992W        W91429  22.072  30.027  11.013
31993W        W91430  35.516   6.824   2.247
31994W        W91431  10.275  31.092  13.981
31995W        W91432  20.219   6.390   0.448
31996W        W91433  26.203  44.412  14.453
31997W        W91434  22.050  37.923  10.557
31998W        W91435  36.367  40.029   2.742
31999W        W91436   1.840  23.201  10.421
32000W        W91437  36.044  18.606   2.216
32001W        W91438  20.135  35.466   3.791
32002W        W91439   6.311  32.928  10.594
32003W        W91440  17.244  26.954   1.369
32004W        W91441  12.729   9.177   1.932
32005W        W91442  13.276  18.693  12.013
32006W        W91443  37.530  40.977   5.101
32007W        W91444  35.053  43.863  13.800
32008W        W91445  19.723   3.361  10.958
32009W        W91446   1.305  32.545  14.969
32010W        W91447  12.642  13.270  14.436
32011W        W91448  33.390  19.646   4.304
32012W        W91449   6.307   7.721  10.503
32013W        W91450  37.488  26.689   5.250
32014W        W91451  12.744  13.323  11.954
32015W        W91452  28.107   5.287   0.460
32016W        W91453  17.677  18.680  12.446
32017W        W91454  26.575  20.748  12.506
32018W        W91455  12.356  12.360   3.750
32019W        W91456   4.356  17.155   0.468
32020W        W91457  22.021  29.438  12.505
32021W        W91458  33.616  15.579  10.568
32022W        W91459  10.348   6.230  14.410
32023W        W91460  16.694  33.978   1.700
32024W        W91461  29.959   0.360   2.388
32025W        W91462  29.603  13.716  11.002
32026W        W91463  14.125  36.062  12.352
32027W        W91464  34.020  27.055   4.786
32028W        W91465  29.450  32.088   9.956
32029W        W91466  34.461  26.687   3.753
32030W        W91467  23.716  40.976   0.355
32031W        W91468   6.864  27.605  13.952
32032W        W91469  10.273  23.709  11.453
32033W        W91470  42.025  12.221  14.858
32034W        W91471   5.816  26.048   0.790
32035W        W91472  41.476   4.933   4.334
32036W        W91473  30.440  42.345   3.280
32037W        W91474  20.708  14.604  11.463
32038W        W91475  40.930   5.380  12.570
32039W        W91476   1.416  43.418   1.810
32040W        W91477   2.314  44.771   4.690
32041W        W91478  15.779  42.512   2.779
32042W        W91479  11.854  33.437  10.428
32043W        W91480  16.190  27.449  12.380
32044W        W91481  25.670  15.620  13.906
32045W        W91482  30.004  30.496  14.496
32046W        W91483  13.318  38.501  11.424
32047W        W91484  15.132  25.611  11.909
32048W        W91485  36.580   5.902   3.372
32049W        W91486  30.528  38.073   3.740
32050W        W91487  42.833   3.435   3.743
32051W        W91488  13.299  10.701   0.415
32052W        W91489  38.917  38.473   2.291
32053W        W91490  44.865   4.874   4.162
32054W        W91491  43.840  39.514  10.930
32055W        W91492  23.208  17.720  11.919
32056W        W91493   9.376  32.971  10.928
32057W        W91494   6.287   3.398   3.731
32058W        W91495  24.222  12.616   1.354
32059W        W91496   7.298  38.436   3.188
32060W        W91497  36.417  21.621   1.865
32061W        W91498  36.935   9.368   2.889
32062W        W91499  11.140  33.473  12.414
32063W        W91500  12.616  12.354  11.550
32064W        W91501  11.664  32.500   3.238
32065W        W91502  33.085  27.533   3.770
32066W        W91503  42.001   6.408  11.879
32067W        W91504  42.439  13.191  10.891
32068W        W91505  32.034  27.659  12.087
32069W        W91506   6.309  41.323  13.367
32070W        W91507  43.778   9.383  13.312
32071W        W91508  11.285  42.009  14.974
32072W        W91509   7.214   7.905  14.299
32073W        W91510   7.198   1.831   3.291
32074W        W91511  14.691  43.804  11.448
32075W        W91512  38.851  22.167  14.328
32076W        W91513  27.095  23.686  13.988
32077W        W91514  31.452  12.735   4.353
32078W        W91515  19.638   1.309   0.423
32079W        W91516   0.792  10.265   4.133
32080W        W91517  41.873  43.455   2.269
32081W        W91518  22.737  11.283   2.198
32082W        W91519   2.789   3.927   4.609
32083W        W91520  41.974  39.915   3.361
32084W        W91521  37.857  27.959   3.647
32085W        W91522  17.140  42.386  12.993
32086W        W91523  29.664   0.400   3.633
32087W        W91524  21.185  12.335  10.458
32088W        W91525  33.485   6.368  13.410
32089W        W91526   4.710   2.261   3.341
32090W        W91527  23.042   1.245   2.834
32091W        W91528  29.478   3.321  11.060
32092W        W91529  43.478  15.708   0.333
32093W        W91530  15.721  12.655  12.097
32094W        W91531   2.404  42.327   2.685
32095W        W91532  42.440  12.293   2.274
32096W        W91533  34.453  10.212  12.041
32097W        W91534   0.927  41.956   2.321
32098W        W91535  14.337  23.203  13.862
32099W        W91536  44.979  32.438   1.372
32100W        W91537  29.101  27.603  14.922
32101W        W91538   7.715  31.066   1.446
32102W        W91539  10.666  43.483  12.431
32103W        W91540  43.499   3.440  13.953
32104W        W91541  19.050  35.513  13.992
32105W        W91542  32.570  19.779   4.126
32106W        W91543  43.808  39.376  12.526
32107W        W91544  38.904  13.177  12.936
32108W        W91545  15.734  41.855  14.958
32109W        W91546  11.315  39.515   3.752
32110W        W91547  10.684  23.541  11.412
32111W        W91548  22.590  36.397   0.436
32112W        W91549  27.669  17.568   3.232
32113W        W91550  13.695  11.225   3.184
32114W        W91551  11.821  44.318  14.929
32115W        W91552  23.714  33.597  13.858
32116W        W91553  10.208  41.904   0.445
32117W        W91554  43.428  41.021   4.793
32118W        W91555  36.387  31.061   0.283
32119W        W91556   6.813  28.949  11.553
32120W        W91557  37.928   0.920  13.346
32121W        W91558  22.597  40.843  12.069
32122W        W91559  34.971  11.147  14.384
32123W        W91560  20.664  34.495   1.302
32124W        W91561  14.257  24.647   4.772
32125W        W91562  44.854  10.254  14.982
32126W        W91563  36.011  19.249  11.583
32127W        W91564  19.227  42.861  12.012
32128W        W91565  30.949  21.599   2.690
32129W        W91566  40.476  29.587   0.255
32130W        W91567  15.819  40.885  13.424
32131W        W91568  13.250  22.032   0.474
32132W        W91569  42.939  42.400   3.376
32133W        W91570  29.013  21.738  13.991
32134W        W91571  31.946  41.800  14.492
32135W        W91572   5.690  19.677   2.750
32136W        W91573  27.081  24.496  10.512
32137W        W91574  14.618  22.162   0.246
32138W        W91575  23.510  16.677   0.330
32139W        W91576   0.838   1.375   3.196
32140W        W91577  32.586   2.736  12.896
32141W        W91578   9.295   6.780  10.953
32142W        W91579  30.099  36.947  13.837
32143W        W91580  37.975  28.069  13.008
32144W        W91581  43.441  20.253  13.906
32145W        W91582  32.919  17.220  14.830
32146W        W91583   8.340  17.643   2.750
32147W        W91584  27.961  19.162  10.526
32148W        W91585  21.152   4.254  13.881
32149W        W91586  24.540   6.748   2.766
32150W        W91587  29.087  30.633  11.497
32151W        W91588  28.679   9.181  11.565
32152W        W91589  43.940  35.592   2.878
32153W        W91590  34.908  23.713  13.506
32154W        W91591   8.840  27.195   4.207
32155W        W91592   2.842  20.753  11.588
32156W        W91593  22.593  17.190  10.123
32157W        W91594  12.629  25.989  11.465
32158W        W91595  42.465   0.811   2.825
32159W        W91596  35.992  11.147  13.823
32160W        W91597  11.857  10.243   0.823
32161W        W91598  24.007  23.100   0.788
32162W        W91599  22.676  44.386   9.993
32163W        W91600  36.060  12.342   1.827
32164W        W91601  41.811  28.583  10.897
32165W        W91602  20.031   6.903   2.758
32166W        W91603   0.472  20.051   4.331
32167W        W91604   7.239   2.832   2.407
32168W        W91605   1.293  36.097  14.384
32169W        W91606  20.127  17.204  13.502
32170W        W91607  11.257  18.132  14.862
32171W        W91608  35.467  29.137   3.861
32172W        W91609   2.746  17.768   3.192
32173W        W91610  44.812  33.094   9.446
32174W        W91611  20.192   7.270   2.763
32175W        W91612  27.114   0.287   3.219
32176W        W91613  41.367   2.781  11.095
32177W        W91614  25.506   0.408  12.847
32178W        W91615  22.643  44.426   5.146
32179W        W91616  20.639  28.014  11.958
32180W        W91617   3.923  36.384   2.386
32181W        W91618  28.657  18.288   5.114
32182W        W91619  42.775   7.292  11.080
32183W        W91620  31.118  38.405   0.420
32184W        W91621  37.576  17.639  14.457
32185W        W91622  30.588   9.736   3.375
32186W        W91623  19.151  31.023  12.860
32187W        W91624  17.655   1.313  11.946
32188W        W91625   7.240  39.436   4.597
32189W        W91626   2.389  28.522  12.060
32190W        W91627  38.944   9.810   4.343
32191W        W91628  11.689  22.652   0.325
32192W        W91629  43.848  36.562  12.987
32193W        W91630   6.877  30.118   4.747
32194W        W91631  11.723   1.920   2.823
32195W        W91632  40.529  37.421   4.610
32196W        W91633  14.207  18.599   4.654
32197W        W91634  35.513  23.112  11.548
32198W        W91635   7.378  16.680   2.839
32199W        W91636  14.232   3.361   4.160
32200W        W91637  30.586  21.518   5.630
32201W        W91638  11.655  38.051  14.974
32202W        W91639   8.204  40.454   1.729
32203W        W91640  14.748   3.770   0.363
32204W        W91641  23.043  25.611  11.005
32205W        W91642  33.420  20.223  14.953
32206W        W91643  29.965  30.551  13.355
32207W        W91644  31.115  17.598   0.385
32208W        W91645   5.919  34.407   2.800
32209W        W91646  15.274   7.189   3.148
32210W        W91647  29.126  38.918  14.917
32211W        W91648   4.825  31.917  11.925
32212W        W91649  30.530  41.984   4.291
32213W        W91650  42.901  23.091  13.388
32214W        W91651  44.989  36.931   0.821
32215W        W91652   0.278  29.497  11.522
32216W        W91653  34.427   2.881  11.552
32217W        W91654  10.141  39.009  13.876
32218W        W91655   0.799  44.398  12.070
32219W        W91656  35.566  15.581   2.861
32220W        W91657   9.337  38.986   1.266
32221W        W91658  32.426  29.153  10.991
32222W        W91659  20.187  39.493  10.420
32223W        W91660  44.766  24.555  10.933
32224W        W91661  43.342   6.371   4.125
32225W        W91662  43.446  21.058   1.709
32226W        W91663  35.433  44.941  14.972
32227W        W91664  17.270  13.140  14.328
32228W        W91665  30.445  21.216  11.049
32229W        W91666  26.048  31.402   2.695
32230W        W91667   4.920  11.311  11.021
32231W        W91668   9.654  38.459  10.643
32232W        W91669   2.877  37.428   2.406
32233W        W91670  23.492  27.022  11.124
32234W        W91671  31.944  36.425   5.129
32235W        W91672  36.948  38.963  12.990
32236W        W91673  22.710  18.195  10.458
32237W        W91674  39.932  27.455   1.373
32238W        W91675  21.741  39.016  13.819
32239W        W91676  43.787  33.001   2.404
32240W        W91677   7.278  23.548  14.287
32241W        W91678   5.846  21.071   2.728
32242W        W91679  30.921  29.141  13.535
32243W        W91680  11.156  20.709   1.417
32244W        W91681   8.721   2.793  11.058
32245W        W91682  26.529  44.000   2.324
32246W        W91683  17.560  34.055   0.364
32247W        W91684  11.650  14.243  11.562
32248W        W91685  34.542  43.869   1.308
32249W        W91686  13.120  35.012   1.741
32250W        W91687  36.563  23.068  11.388
32251W        W91688  38.043  24.487  10.428
32252W        W91689  31.455  10.223   1.351
32253W        W91690  27.021  21.057  10.004
32254W        W91691   8.848  19.653   0.378
32255W        W91692   3.363  27.142   1.831
32256W        W91693  44.790  22.653  12.359
32257W        W91694  26.065   7.361  11.902
32258W        W91695  44.425  15.154   2.666
32259W        W91696  14.327   0.988  13.014
32260W        W91697  14.690   3.851   2.754
32261W        W91698  10.268  25.973   1.418
32262W        W91699   3.771  38.836   4.638
32263W        W91700  18.180   0.789  13.488
32264W        W91701  31.118  27.671  10.588
32265W        W91702  38.868  34.481   1.893
32266W        W91703  38.421   3.301  11.473
32267W        W91704  31.042  35.446   1.213
32268W        W91705  17.644   5.424   3.758
32269W        W91706  32.546  30.944   2.197
32270W        W91707   0.311  26.128  12.938
32271W        W91708  25.627  13.773   5.619
32272W        W91709  37.879   8.260  14.395
32273W        W91710  37.477  17.674   3.658
32274W        W91711  43.964  38.987   1.271
32275W        W91712  18.569  37.850   4.320
32276W        W91713  41.894  20.672  14.832
32277W        W91714   9.378  20.764  11.106
32278W        W91715   1.857  38.965   2.805
32279W        W91716  18.154   1.358   2.747
32280W        W91717  36.574  22.057   2.397
32281W        W91718  19.731  43.970  12.857
32282W        W91719  14.336  30.968  14.014
32283W        W91720   5.310  25.569  14.975
32284W        W91721  24.568  43.778  14.496
32285W        W91722  14.318  34.908  13.822
32286W        W91723  11.194   6.275  10.888
32287W        W91724   2.803   7.209   2.870
32288W        W91725  16.720  35.960   0.821
32289W        W91726  34.457   7.355   4.129
32290W        W91727   4.836  34.957   3.324
32291W        W91728  41.925  10.808   0.939
32292W        W91729  38.428  36.944   4.183
32293W        W91730  30.055  15.633   2.855
32294W        W91731   3.303  17.684  13.005
32295W        W91732  40.897  25.016   1.775
32296W        W91733  17.616   3.825  14.295
32297W        W91734  15.088   9.307  10.460
32298W        W91735   6.348   9.661  11.593
32299W        W91736  12.175  26.105   0.932
32300W        W91737  25.073  24.712  13.056
32301W        W91738  22.999  30.463  13.457
32302W        W91739  20.711  21.719   4.636
32303W        W91740  16.112  36.472   3.639
32304W        W91741   6.272  29.032   2.412
32305W        W91742  27.570  32.972   0.443
32306W        W91743   9.825  17.278  14.299
32307W        W91744   8.176   3.421  14.377
32308W        W91745  15.579  30.156  14.477
32309W        W91746  35.887  33.020  14.339
32310W        W91747  41.309   3.800  14.506
32311W        W91748   1.814   9.668   4.689
32312W        W91749   4.838  34.053  14.464
32313W        W91750  38.965  35.486  13.489
32314W        W91751   5.266  29.455   4.303
32315W        W91752  42.943  20.028   1.330
32316W        W91753  31.529  37.074   4.656
32317W        W91754  13.825  20.093  12.906
32318W        W91755  21.126  15.154  14.447
32319W        W91756   0.854  25.999  12.553
32320W        W91757  31.474  31.143   3.737
32321W        W91758  25.216  29.995  13.807
32322W        W91759   9.770  22.201  13.475
32323W        W91760   7.891  16.719  10.993
32324W        W91761  25.690  28.554   1.735
32325W        W91762  30.052  31.510  14.450
32326W        W91763  29.502   5.744  13.543
32327W        W91764  13.835  12.752  14.286
32328W        W91765  37.398  23.679  13.463
32329W        W91766   6.832   7.778   4.734
32330W        W91767  30.944  43.016   5.200
32331W        W91768  33.511  33.561  14.382
32332W        W91769  22.070   4.313   0.752
32333W        W91770  37.899   8.707  14.849
32334W        W91771  43.855  20.696   4.205
32335W        W91772  39.546  23.512  14.327
32336W        W91773  15.719  14.139   0.903
32337W        W91774  10.636  19.208   1.885
32338W        W91775  26.112   4.224  12.535
32339W        W91776   0.317  33.131   2.418
32340W        W91777  32.629  15.281   0.322
32341W        W91778  35.417  34.064  13.355
32342W        W91779  40.399   1.791  14.439
32343W        W91780  19.125  27.107  10.896
32344W        W91781  15.171  26.141   4.658
32345W        W91782  24.575  42.811   1.279
32346W        W91783   2.780  38.412   3.149
32347W        W91784  24.523  33.482   0.328
32348W        W91785  11.255  44.956  11.914
32349W        W91786   8.381  42.838   2.367
32350W        W91787  40.798   2.793  12.459
32351W        W91788  24.000  37.073  13.982
32352W        W91789   5.399   2.862   1.742
32353W        W91790   9.149  20.719   4.259
32354W        W91791  24.574  30.640  10.460
32355W        W91792  27.621  12.632   1.710
32356W        W91793   3.913   7.382  13.969
32357W        W91794   8.819  28.444   3.817
32358W        W91795   8.345   4.303  11.458
32359W        W91796  20.111  25.554   0.386
32360W        W91797  22.033  29.963   1.230
32361W        W91798  17.690   9.800   0.904
32362W        W91799  24.711  22.518   3.831
32363W        W91800  12.249  28.540  13.805
32364W        W91801   9.807  10.214   3.738
32365W        W91802   1.972  26.478   2.397
32366W        W91803  39.898  29.603  14.922
32367W        W91804  25.544  31.514   3.858
32368W        W91805  40.509   4.794   5.091
32369W        W91806  15.679  24.082  10.427
32370W        W91807  21.627  36.444  10.438
32371W        W91808  16.263  42.467   5.579
32372W        W91809   2.732  37.487  13.954
32373W        W91810  12.658  41.944   3.303
32374W        W91811  44.815  30.982  11.957
32375W        W91812  44.781  10.734   5.635
32376W        W91813  39.012   9.889  10.561
32377W        W91814   9.846  41.990  12.948
32378W        W91815  34.493  31.910   5.173
32379W        W91816  32.074  10.295   2.270
32380W        W91817  17.603  19.064   0.469
32381W        W91818  37.992  41.416   0.920
32382W        W91819  23.132  31.974  11.563
32383W        W91820  40.828  43.817  12.025
32384W        W91821   7.269   3.928   3.231
32385W        W91822  14.167  18.275  11.916
32386W        W91823  29.597  14.824   4.247
32387W        W91824  38.929   6.374  13.420
32388W        W91825  33.122   2.779  14.906
32389W        W91826  22.713  35.085   0.935
32390W        W91827  31.476  25.601   5.244
32391W        W91828   6.743  24.505   1.713
32392W        W91829  32.056   7.709  10.986
32393W        W91830   8.354  10.345   0.407
32394W        W91831  10.707  14.783  12.041
32395W        W91832  20.562   9.284   0.795
32396W        W91833  34.084   5.217  13.797
32397W        W91834  31.084  11.773  11.373
32398W        W91835  20.743  36.393   4.302
32399W        W91836  30.548  10.835   0.907
32400W        W91837  35.412  25.062   4.724
32401W        W91838  17.155  23.696  13.940
32402W        W91839  32.609   1.915   0.948
32403W        W91840  27.473   7.363  14.783
32404W        W91841  21.739   6.765  12.414
32405W        W91842  20.139  42.501   9.625
32406W        W91843  18.751  30.022   2.672
32407W        W91844  31.445  11.219  13.908
32408W        W91845  13.191  29.139  10.428
32409W        W91846   1.482  39.377  13.988
32410W        W91847   0.407  41.800   0.268
32411W        W91848   2.856  17.115   3.825
32412W        W91849  11.640  38.832  14.899
32413W        W91850  25.503  27.664  14.956
32414W        W91851  31.615  24.614  14.452
32415W        W91852  16.748   8.838  11.602
32416W        W91853  21.028  24.569   3.637
32417W        W91854  24.663  40.943   4.175
32418W        W91855  11.779  10.327   2.333
32419W        W91856  30.608  29.101  14.378
32420W        W91857  32.472  19.592  12.367
32421W        W91858   7.411   0.378  13.402
32422W        W91859  36.571  31.050  12.395
32423W        W91860  11.235  32.055   0.966
32424W        W91861   8.337  44.844   3.797
32425W        W91862   3.943  32.051  13.930
32426W        W91863  22.097  16.673  10.500
32427W        W91864   4.805  36.528  12.437
32428W        W91865   8.289  35.372  12.966
32429W        W91866  27.958  38.032  11.605
32430W        W91867   0.830  26.482   3.154
32431W        W91868  24.571  35.421   9.976
32432W        W91869   0.854   1.260  13.407
32433W        W91870  34.929   6.844   3.830
32434W        W91871  20.534  32.945   3.371
32435W        W91872  33.880  10.722  14.778
32436W        W91873  44.372  15.623  13.518
32437W        W91874  33.052  30.081   0.257
32438W        W91875  28.564   5.270   1.284
32439W        W91876  12.123  16.600  12.412
32440W        W91877  44.894  20.606  11.577
32441W        W91878  20.177   8.167  10.955
32442W        W91879  41.394  32.476  10.457
32443W        W91880   5.719  39.949   4.324
32444W        W91881  23.623  25.702   0.809
32445W        W91882   8.762  21.026   4.633
32446W        W91883   5.252   7.666  13.415
32447W        W91884   4.204   7.725   2.836
32448W        W91885  32.994  43.332   9.618
32449W        W91886   2.350  29.575  12.416
32450W        W91887  21.608  15.717  12.084
32451W        W91888  38.504  37.921   1.823
32452W        W91889  27.948  22.041  11.446
32453W        W91890   8.323  32.039  11.498
32454W        W91891  35.992  42.467  14.975
32455W        W91892  39.359   4.327   0.462
32456W        W91893  13.349  38.012   0.804
32457W        W91894  38.340  37.440   0.736
32458W        W91895  13.720  31.963  12.455
32459W        W91896   7.408  17.194   1.309
32460W        W91897   6.823  41.313  11.937
32461W        W91898  36.452  11.754   2.373
32462W        W91899  38.371   6.845   3.236
32463W        W91900   5.363  22.029   0.457
32464W        W91901  42.395  32.954   1.753
32465W        W91902  36.892   1.785  13.939
32466W        W91903   9.257  21.534   1.788
32467W        W91904  30.510  20.648   1.228
32468W        W91905  19.061   5.898  13.059
32469W        W91906  32.415  25.980  11.491
32470W        W91907  20.033   1.357  14.820
32471W        W91908   5.699  20.723  10.467
32472W        W91909  13.712  42.393   2.836
32473W        W91910  33.079   2.251  11.126
32474W        W91911   1.247  16.809  14.856
32475W        W91912  14.613  23.058   1.919
32476W        W91913  30.538  28.532  13.021
32477W        W91914  25.661  36.392   1.248
32478W        W91915  27.130  35.946  13.452
32479W        W91916  21.124  10.712   2.859
32480W        W91917   9.649  11.839  14.014
32481W        W91918   1.478  21.712  13.336
32482W        W91919  39.521  32.511  11.547
32483W        W91920  27.502   3.868   2.183
32484W        W91921  42.286  36.080  11.421
32485W        W91922   2.428   9.716   4.239
32486W        W91923  13.797  16.171   3.176
32487W        W91924  28.042  40.548  12.845
32488W        W91925   7.857   4.878  14.894
32489W        W91926   5.365  19.612  11.444
32490W        W91927  43.290  18.678  12.908
32491W        W91928  42.335   6.314   2.838
32492W        W91929   3.332  30.957   0.262
32493W        W91930  42.374   5.812  12.427
32494W        W91931  34.412  26.578  13.327
32495W        W91932  40.797   8.191  11.091
32496W        W91933   2.249  11.833   1.733
32497W        W91934  36.363  26.120   4.121
32498W        W91935  20.668   8.161   1.922
32499W        W91936  20.543   8.224   1.441
32500W        W91937  35.958   1.317  11.445
32501W        W91938   2.396  23.137  12.354
32502W        W91939  34.059  36.075   1.834
32503W        W91940  19.546   1.813  11.481
32504W        W91941  13.160   8.297   3.755
32505W        W91942  10.751  31.147  13.908
32506W        W91943  22.617  32.948  11.959
32507W        W91944  30.639  29.596   2.784
32508W        W91945  23.536  35.595  14.805
32509W        W91946   2.935  11.708   0.865
32510W        W91947  18.101  40.817  10.539
32511W        W91948  20.669   9.793   3.330
32512W        W91949  12.219  23.130   1.727
32513W        W91950  17.161  38.855  12.905
32514W        W91951  31.908  40.337   2.817
32515W        W91952  41.000  23.692  11.079
32516W        W91953  40.036   1.329  14.487
32517W        W91954  20.654   8.827  14.332
32518W        W91955  36.098  23.069  11.001
32519W        W91956  35.579  20.667   0.427
32520W        W91957  30.969  33.591   5.134
32521W        W91958  32.028   3.402   3.329
32522W        W91959  22.164  40.399   0.284
32523W        W91960  30.657   3.238  12.086
32524W        W91961  16.120  14.832   1.911
32525W        W91962  24.092  40.003   0.739
32526W        W91963   1.282   3.447  14.287
32527W        W91964  21.607  11.831  12.035
32528W        W91965  41.869  29.058   1.413
32529W        W91966  33.484  27.999  12.506
32530W        W91967  33.582  44.454  11.549
32531W        W91968   7.229  28.935  12.548
32532W        W91969   4.806  29.607  13.022
32533W        W91970   3.900  17.646   3.686
32534W        W91971  38.870  40.411   5.209
32535W        W91972  29.489  35.918   0.321
32536W        W91973  25.692  16.644   4.823
32537W        W91974  43.886  43.328   1.383
32538W        W91975  15.313  28.172   4.733
32539W        W91976  26.640  21.074   3.306
32540W        W91977  14.250  33.932  11.034
32541W        W91978  16.093  43.959  14.812
32542W        W91979  37.339  14.721   5.298
32543W        W91980  20.056  31.910  14.878
32544W        W91981  24.665   9.327  13.868
32545W        W91982  43.984  39.962  14.943
32546W        W91983   1.889  10.780   5.590
32547W        W91984  31.004  25.544  10.425
32548W        W91985  19.145  36.550   1.276
32549W        W91986  41.523  31.491  11.111
32550W        W91987  44.326  33.906   1.349
32551W        W91988  15.125  20.529   3.803
32552W        W91989   1.437   9.879  14.288
32553W        W91990  32.400   8.231   0.822
32554W        W91991  23.596  32.127  14.894
32555W        W91992   4.725  10.167   3.333
32556W        W91993  35.890  31.059  14.942
32557W        W91994  25.585   6.789   3.708
32558W        W91995  36.897  22.141  11.563
32559W        W91996  44.357  24.625   2.728
32560W        W91997  37.579  43.280   3.847
32561W        W91998  34.941  27.577  13.926
32562W        W91999   6.428  40.385  14.276
32563W        W92000  22.208  20.622   5.081
32564W        W92001  34.551  17.790   0.763
32565W        W92002  20.066  40.888  14.448
32566W        W92003  44.428  33.998  13.798
32567W        W92004  25.614  35.869  10.891
32568W        W92005  12.696  40.485   2.898
32569W        W92006  43.912  27.980  12.382
32570W        W92007  41.796  42.977  12.052
32571W        W92008  27.551  29.544  14.326
32572W        W92009  25.189  44.792  11.548
32573W        W92010  13.803  43.285  13.437
32574W        W92011  20.538  42.507   4.128
32575W        W92012   9.890  32.449  10.422
32576W        W92013  19.693  26.136   0.741
32577W        W92014  44.464  36.530   1.716
32578W        W92015  10.672  10.638   3.363
32579W        W92016  32.016  37.340  10.987
32580W        W92017   0.916  26.000  12.082
32581W        W92018  30.938   8.271  14.360
32582W        W92019  25.586  20.618  10.419
32583W        W92020   9.161   8.235  13.933
32584W        W92021  38.345  34.073  12.442
32585W        W92022  29.168  34.569   1.451
32586W        W92023  22.562  18.256   2.383
32587W        W92024   3.240  32.895  13.940
32588W        W92025  25.475   5.389  10.973
32589W        W92026  14.111   4.318  11.968
32590W        W92027  36.939  27.573  14.926
32591W        W92028  41.848  26.045   1.210
32592W        W92029  32.616  38.998  11.908
32593W        W92030  35.548  33.545  13.851
32594W        W92031  35.952  42.777  12.861
32595W        W92032  14.628   9.222  14.032
32596W        W92033  15.653  21.049  13.468
32597W        W92034   7.911  17.175  10.558
32598W        W92035  12.285  33.956  10.420
32599W        W92036  16.083   3.281   3.227
32600W        W92037   2.900  36.922   4.787
32601W        W92038  38.511   6.247  14.308
32602W        W92039  26.499  20.132   4.602
32603W        W92040  42.793  30.475   2.849
32604W        W92041  21.546   3.917   3.272
32605W        W92042  21.027  41.495  10.043
32606W        W92043  15.749  18.102   9.555
32607W        W92044  40.500  14.135   1.279
32608W        W92045  31.124   8.216  13.500
32609W        W92046  25.127  38.455  14.469
32610W        W92047   4.842  21.702   1.398
32611W        W92048  16.219  40.373   1.862
32612W        W92049  10.687  25.563  13.394
32613W        W92050  21.568  19.661   4.757
32614W        W92051  10.327  29.657   5.240
32615W        W92052  10.367  15.671  10.465
32616W        W92053  30.427  26.660   2.890
32617W        W92054   7.834  15.779  14.881
32618W        W92055  32.028  15.242   2.853
32619W        W92056  28.089  24.081  13.922
32620W        W92057  43.286  25.662  13.523
32621W        W92058  44.798  29.171  14.330
32622W        W92059  17.216  25.569   3.285
32623W        W92060  25.531   3.228  12.567
32624W        W92061  24.070  32.888   0.457
32625W        W92062  21.685  34.983   0.733
32626W        W92063   4.424  27.558   0.260
32627W        W92064  42.340  34.012   4.787
32628W        W92065  16.650  40.019   3.203
32629W        W92066  44.857  19.084  10.580
32630W        W92067  16.073  13.300  12.375
32631W        W92068  43.893   9.720   2.350
32632W        W92069   4.226  16.592   0.746
32633W        W92070   3.417  32.460  11.412
32634W        W92071   2.885   9.280  11.101
32635W        W92072  21.648  33.386   4.301
32636W        W92073  37.352  42.811   4.831
32637W        W92074  21.243  28.438  11.876
32638W        W92075  35.999  40.521  11.065
32639W        W92076  25.559  34.009  12.921
32640W        W92077  24.177  29.141  14.293
32641W        W92078   0.924  38.842   4.202
32642W        W92079  42.007  15.627   0.736
32643W        W92080  37.071   9.152   2.398
32644W        W92081  30.072  38.470  10.075
32645W        W92082  10.243   7.856  11.960
32646W        W92083  20.753  40.046  11.418
32647W        W92084  20.683  18.136   3.791
32648W        W92085  16.806   9.770   1.349
32649W        W92086   0.410   4.791  12.079
32650W        W92087  33.114  15.293  13.984
32651W        W92088  16.295  17.596  14.361
32652W        W92089  35.953  23.613   0.385
32653W        W92090  27.669  29.928  12.006
32654W        W92091  18.665  43.422  12.912
32655W        W92092  32.489   2.752   3.710
32656W        W92093  32.911  11.253  11.549
32657W        W92094  30.081   0.391   3.183
32658W        W92095  38.937   6.375  13.794
32659W        W92096   6.888  25.018   1.408
32660W        W92097  29.536  36.375  11.402
32661W        W92098  15.173   7.334   1.228
32662W        W92099  16.086   2.784  11.535
32663W        W92100  32.006   7.296  10.970
32664W        W92101  43.892  13.787  14.492
32665W        W92102   0.821   7.216   2.791
32666W        W92103  31.538  13.212  13.384
32667W        W92104   2.248  35.042   1.864
32668W        W92105  41.976  26.954   4.831
32669W        W92106   3.787  32.582  11.892
32670W        W92107  23.702  23.092   0.905
32671W        W92108  14.769  40.951   2.808
32672W        W92109  11.715  42.434  12.946
32673W        W92110   0.787  37.533   0.377
32674W        W92111  12.264  20.092  11.605
32675W        W92112  11.231   7.341   2.213
32676W        W92113  32.588   3.447   3.300
32677W        W92114  12.650   5.739  11.569
32678W        W92115  18.067   7.211   3.792
32679W        W92116  17.615  11.862   1.352
32680W        W92117   7.409   1.894   4.730
32681W        W92118  21.551   7.727   0.478
32682W        W92119  20.605   2.432   2.818
32683W        W92120  14.152  10.276  12.375
32684W        W92121  33.383  35.469  12.367
32685W        W92122   8.749  10.142  14.352
32686W        W92123  20.253  42.874  13.951
32687W        W92124  11.260  40.401  13.859
32688W        W92125  20.221   1.860  13.799
32689W        W92126  25.968   1.436   1.300
32690W        W92127  21.567  15.322  11.431
32691W        W92128  26.668  41.890   3.369
32692W        W92129  15.094  30.940  13.867
32693W        W92130  43.922  18.640  11.947
32694W        W92131  29.508  40.479   1.750
32695W        W92132  34.459   7.910   0.940
32696W        W92133  10.682   1.347  11.951
32697W        W92134  33.617  41.866  11.500
32698W        W92135  35.875  42.300   1.703
32699W        W92136  29.981   0.399  13.034
32700W        W92137  39.409  32.559  13.480
32701W        W92138   6.329  13.259   1.270
32702W        W92139  24.511   2.233   4.281
32703W        W92140  42.932  12.273   3.846
32704W        W92141   2.802  26.552  12.021
32705W        W92142  28.652  31.468   0.295
32706W        W92143  21.685   0.354  12.550
32707W        W92144  16.220   7.244  10.974
32708W        W92145  33.401   2.340   2.226
32709W        W92146   6.221   9.161   0.901
32710W        W92147  15.093  43.273  13.480
32711W        W92148  38.940  12.335  13.478
32712W        W92149  18.259  18.745  12.943
32713W        W92150  26.169  11.730   0.454
32714W        W92151  23.022  12.245   3.783
32715W        W92152  30.537  41.823   2.778
32716W        W92153  29.043  36.053  13.846
32717W        W92154  20.071  22.045   1.927
32718W        W92155  24.168  16.311  14.357
32719W        W92156  24.033  23.689   0.940
32720W        W92157  26.208  27.022   3.315
32721W        W92158  17.079   3.350   3.224
32722W        W92159  27.116  38.857  13.480
32723W        W92160  36.358  30.934   1.385
32724W        W92161  37.438  17.753  13.432
32725W        W92162  42.791   6.744   2.787
32726W        W92163  24.018   6.853  12.075
32727W        W92164  29.601   7.908  12.901
32728W        W92165  12.222  34.543   0.845
32729W        W92166  28.061  42.940   0.825
32730W        W92167  19.746  22.055  11.438
32731W        W92168  15.607  11.286  12.543
32732W        W92169   5.389   7.272   3.227
32733W        W92170  12.316  29.521  13.939
32734W        W92171  40.536   6.841   4.236
32735W        W92172  26.164  23.036  13.538
32736W        W92173  13.285   0.405  13.888
32737W        W92174   5.927   2.915  13.320
32738W        W92175  33.579  27.058   0.376
32739W        W92176  34.892  21.184   2.415
32740W        W92177  16.134  19.118  11.521
32741W        W92178  25.618  24.075  13.430
32742W        W92179  26.545   2.845  10.557
32743W        W92180  36.376  38.911   0.399
32744W        W92181  41.323  12.719   3.686
32745W        W92182  17.790  14.681  12.937
32746W        W92183   4.397  41.933  14.427
32747W        W92184   8.874   3.815  14.292
32748W        W92185   7.185   9.728  10.593
32749W        W92186   3.368  41.496   4.201
32750W        W92187  43.868  42.872   2.416
32751W        W92188  36.378  28.128  10.617
32752W        W92189  29.062  21.249   0.480
32753W        W92190   5.211  12.356  12.954
32754W        W92191  14.791  24.621  10.892
32755W        W92192   6.815   3.869  11.555
32756W        W92193  27.061   7.803   1.314
32757W        W92194  20.661   6.787  14.343
32758W        W92195  36.960  38.335   3.727
32759W        W92196  34.428   9.268  14.386
32760W        W92197  41.415  24.997   4.807
32761W        W92198   9.296  18.241  10.992
32762W        W92199  16.190  42.919   0.316
32763W        W92200   2.789  30.516   0.428
32764W        W92201  30.985  33.594  14.782
32765W        W92202  37.435   7.679   3.716
32766W        W92203  28.006  34.479   2.791
32767W        W92204  29.988  19.533   1.903
32768W        W92205  29.532  30.917  10.552
32769W        W92206  27.647  29.478  11.094
32770W        W92207  29.001   3.724   0.425
32771W        W92208   5.281  38.376  14.378
32772W        W92209  26.469  13.261  12.462
32773W        W92210  13.130  14.317  14.327
32774W        W92211  33.507   6.890  12.029
32775W        W92212  13.698  34.896  14.996
32776W        W92213  30.559  13.669   3.231
32777W        W92214  17.139  23.049   3.674
32778W        W92215  15.225   7.687   4.122
32779W        W92216  18.646   1.364  12.874
32780W        W92217  31.067   0.873  11.495
32781W        W92218  20.763   0.400  10.923
32782W        W92219   8.266  15.726   4.203
32783W        W92220   9.890  43.511   4.243
32784W        W92221  25.588   3.724   2.314
32785W        W92222  41.895   0.885  12.886
32786W        W92223  17.666  14.306   2.265
32787W        W92224  28.987  20.270   2.872
32788W        W92225  40.391  31.606   3.167
32789W        W92226  16.690  30.547  14.770
32790W        W92227  33.921  18.702   2.832
32791W        W92228  34.059  40.037   3.806
32792W        W92229   1.945  29.940   2.743
32793W        W92230  30.160  29.068   3.757
32794W        W92231  18.633  15.728   1.314
32795W        W92232  40.036  17.206   2.811
32796W        W92233  19.102  27.173  14.461
32797W        W92234  20.605  40.005  11.095
32798W        W92235  44.370  17.238   5.184
32799W        W92236   4.758  39.350  12.911
32800W        W92237   6.415  43.417  13.825
32801W        W92238  23.561  26.457   0.747
32802W        W92239  39.048  17.285  13.958
32803W        W92240  16.286  14.314   1.377
32804W        W92241  32.528  41.840   2.724
32805W        W92242  27.612  34.472  14.790
32806W        W92243  44.402   4.938  14.979
32807W        W92244   1.259  16.231  14.876
32808W        W92245  40.450  15.656   0.432
32809W        W92246  13.627   3.728  10.454
32810W        W92247  27.955  40.997  14.496
32811W        W92248  20.739  16.616   0.289
32812W        W92249  19.772  37.922  11.943
32813W        W92250   2.320   3.907  13.880
32814W        W92251  40.340  43.780   4.669
32815W        W92252   4.260  32.923   4.275
32816W        W92253  44.291  19.194  11.408
32817W        W92254  10.379  30.969   0.953
32818W        W92255   6.283  11.202   4.721
32819W        W92256  33.529  14.769   4.714
32820W        W92257  37.548   4.427  14.003
32821W        W92258  17.077   3.879  11.942
32822W        W92259  40.415  19.770   0.942
32823W        W92260  34.410  36.037   3.865
32824W        W92261  30.968  34.944  13.903
32825W        W92262  44.388  21.149   4.186
32826W        W92263   8.784  27.949   2.859
32827W        W92264  39.515  34.388   3.712
32828W        W92265  41.370  36.468   0.966
32829W        W92266  18.193  42.006  14.448
32830W        W92267  25.621  16.234   4.328
32831W        W92268   2.374   3.405  11.607
32832W        W92269   7.330  17.640  12.994
32833W        W92270   5.245  10.811  10.589
32834W        W92271  32.400  42.828  12.935
32835W        W92272  21.546   0.250   2.277
32836W        W92273  15.248  26.060  14.463
32837W        W92274  41.365  12.151  12.565
32838W        W92275  32.497  19.190  12.017
32839W        W92276  22.502  44.317   2.735
32840W        W92277  16.571   7.324  14.968
32841W        W92278  22.518  41.385  11.454
32842W        W92279  16.295  21.600   4.337
32843W        W92280  24.132  14.191   3.332
32844W        W92281  38.932  35.502  12.495
32845W        W92282  17.601  12.629  10.558
32846W        W92283   6.694   3.286  12.464
32847W        W92284  33.573  31.003   0.815
32848W        W92285  34.604  38.068  10.154
32849W        W92286  31.084  43.963   0.842
32850W        W92287  42.803  18.574   4.696
32851W        W92288  18.223  14.104  13.426
32852W        W92289  13.698  24.494  13.407
32853W        W92290  17.156  22.726   1.248
32854W        W92291  41.338  10.666   3.281
32855W        W92292  19.539  30.453  11.120
32856W        W92293  29.044  19.279  11.459
32857W        W92294  39.967   5.253  14.804
32858W        W92295  40.318  17.791  10.480
32859W        W92296  28.627  19.266   3.776
32860W        W92297  42.448  38.548   1.832
32861W        W92298  29.585  23.204   2.850
32862W        W92299  24.151  12.737   2.700
32863W        W92300  37.513  12.808   3.274
32864W        W92301   5.242  23.633  13.366
32865W        W92302  32.943  29.968   3.148
32866W        W92303  29.462  21.211  13.948
32867W        W92304  15.702  28.051   3.241
32868W        W92305   6.733  18.218   0.275
32869W        W92306   5.369  13.119   1.758
32870W        W92307  43.988  34.454  14.440
32871W        W92308   3.755  24.083   1.382
32872W        W92309  21.694  16.213   3.838
32873W        W92310  14.138   1.265  13.465
32874W        W92311  41.308  32.609   0.918
32875W        W92312  15.585  28.667  12.349
32876W        W92313  34.020  11.807  13.920
32877W        W92314   3.316  26.120  11.944
32878W        W92315  33.064  32.485  14.999
32879W        W92316  36.978  14.253  10.508
32880W        W92317  39.461  22.212   3.661
32881W        W92318   8.885  23.530   3.823
32882W        W92319  10.844  44.388  13.429
32883W        W92320  28.999  14.592  12.999
32884W        W92321   4.220  20.644  11.382
32885W        W92322  41.805  16.298   1.900
32886W        W92323   0.782  18.555   3.782
32887W        W92324  39.510   3.418   3.146
32888W        W92325   3.349   6.704   0.321
32889W        W92326   4.704   2.386   4.153
32890W        W92327  12.720  18.654   2.370
32891W        W92328  23.149  36.904  13.451
32892W        W92329  22.530  43.513  13.367
32893W        W92330  38.884   6.775   0.388
32894W        W92331  22.091  14.118   4.287
32895W        W92332  21.117  30.996  10.492
32896W        W92333  17.622   7.268   3.230
32897W        W92334  11.262  27.956   4.351
32898W        W92335  23.121   6.781  11.048
32899W        W92336  37.424  27.064  12.857
32900W        W92337   3.460   5.407   3.780
32901W        W92338  20.588  37.409   0.867
32902W        W92339  17.666   3.738  12.463
32903W        W92340   9.856  32.471   4.288
32904W        W92341   6.377   6.288  10.444
32905W        W92342  19.563  39.511   0.251
32906W        W92343  31.002  36.023   3.209
32907W        W92344  29.948   5.430  14.351
32908W        W92345  37.845  24.094  12.847
32909W        W92346  35.894  12.251  12.531
32910W        W92347   5.196  29.169  12.355
32911W        W92348  44.297  43.768   3.348
32912W        W92349  35.392  23.495  14.348
32913W        W92350  34.083  29.666  11.875
32914W        W92351  18.133  40.945   3.335
32915W        W92352  17.653  13.668   0.860
32916W        W92353  43.458  32.586   1.431
32917W        W92354  20.128   6.274  10.970
32918W        W92355  38.402  35.375  12.361
32919W        W92356  16.760  29.172  12.971
32920W        W92357   9.821  16.810   0.966
32921W        W92358  18.702  42.896  14.483
32922W        W92359  41.323   4.204  13.516
32923W        W92360  12.217  25.473   3.161
32924W        W92361   8.336  30.542   2.353
32925W        W92362  13.734  11.811   1.363
32926W        W92363  36.447  40.436   2.707
32927W        W92364  35.532   3.358   2.344
32928W        W92365  29.576  43.295   4.781
32929W        W92366  28.169  19.218  13.947
32930W        W92367  17.743   6.702   2.903
32931W        W92368  32.931   1.353   0.899
32932W        W92369  33.986  33.447   4.732
32933W        W92370   4.700  20.241  13.847
32934W        W92371  14.308   0.944  12.057
32935W        W92372   8.340  26.522  14.386
32936W        W92373  18.246  20.616  13.440
32937W        W92374   2.451  27.668   2.850
32938W        W92375  28.100  10.379   3.788
32939W        W92376  12.641   0.753  12.025
32940W        W92377  10.147   9.773  11.478
32941W        W92378  32.569  40.466   4.741
32942W        W92379  16.668  23.239   2.192
32943W        W92380  41.018  30.013  13.835
32944W        W92381  35.872  36.557  11.490
32945W        W92382  10.270  25.206   0.328
32946W        W92383  22.647  21.724   4.156
32947W        W92384   2.426  28.163   2.395
32948W        W92385   2.907  19.728   4.272
32949W        W92386  27.476   0.831  11.553
32950W        W92387  10.361   5.249  11.116
32951W        W92388  19.234  41.954   4.794
32952W        W92389  24.088   5.286   0.776
32953W        W92390  41.334   8.396   1.411
32954W        W92391  41.817  27.965  14.995
32955W        W92392   4.319   5.431  12.941
32956W        W92393  15.667  29.084  14.472
32957W        W92394   8.231  17.648   3.662
32958W        W92395  24.104  20.603   3.655
32959W        W92396  24.610  28.153   1.348
32960W        W92397   0.265  39.422   1.882
32961W        W92398  44.299  27.546   0.964
32962W        W92399  26.662  16.688   2.766
32963W        W92400  34.491  43.440  11.487
32964W        W92401   4.292   2.411  12.416
32965W        W92402   2.867  15.778  14.002
32966W        W92403  42.432  38.965   1.766
32967W        W92404  35.391   6.219  14.781
32968W        W92405  33.945  44.780   3.634
32969W        W92406  11.193  25.467  11.081
32970W        W92407   7.774  38.391   3.271
32971W        W92408  21.521  44.266   2.321
32972W        W92409  29.976  24.224   3.161
32973W        W92410   8.661  43.835   2.203
32974W        W92411  11.719  34.084  11.433
32975W        W92412  36.519  16.202  11.502
32976W        W92413  14.764  35.359   2.359
32977W        W92414  25.489  32.940  13.053
32978W        W92415   0.310  34.997  13.310
32979W        W92416  11.224  16.317   0.313
32980W        W92417  43.467  15.192   4.117
32981W        W92418  10.329  27.483   9.977
32982W        W92419  32.423  41.998   0.466
32983W        W92420  40.453  11.371   4.813
32984W        W92421  29.997   5.700  11.036
32985W        W92422  30.629   5.409  13.535
32986W        W92423   8.172   0.370  13.485
32987W        W92424  27.051  15.288  14.961
32988W        W92425   6.749   0.277  14.356
32989W        W92426  26.550  27.057   0.382
32990W        W92427  44.801  17.783  14.395
32991W        W92428   8.851  13.319   4.301
32992W        W92429  24.632  40.833   0.323
32993W        W92430   8.396   6.777  13.449
32994W        W92431   5.233  14.692   2.391
32995W        W92432  33.057  30.426   0.247
32996W        W92433  41.994  41.421  10.055
32997W        W92434  44.298   3.828  13.049
32998W        W92435  41.367   6.318  12.863
32999W        W92436  35.484  29.956   1.359
33000W        W92437  17.179  22.200  11.937
33001W        W92438  28.125  44.385  10.991
33002W        W92439  19.044  37.394  13.482
33003W        W92440  43.449  34.427  10.569
33004W        W92441   5.880  43.476  13.830
33005W        W92442  20.601  39.969  12.950
33006W        W92443  27.518   9.213   2.896
33007W        W92444   6.719   6.304   4.697
33008W        W92445  32.997  29.530  13.828
33009W        W92446  36.929  16.797   0.809
33010W        W92447  39.925  30.977  12.861
33011W        W92448   1.760  25.648   3.733
33012W        W92449  32.595  22.135  12.954
33013W        W92450  43.970   1.373   3.789
33014W        W92451  27.132   1.752   3.727
33015W        W92452  26.474   8.875   2.402
33016W        W92453  16.791   7.171   1.304
33017W        W92454   6.396  26.086   2.837
33018W        W92455  28.461  30.151   3.307
33019W        W92456   7.171  41.899   2.380
33020W        W92457  29.592  32.012  12.082
33021W        W92458   9.858   5.712  14.795
33022W        W92459  23.174  26.993  12.489
33023W        W92460  32.091   8.160  12.041
33024W        W92461  33.010  14.258   0.871
33025W        W92462  29.029  19.730  12.040
33026W        W92463   3.220  30.579  10.914
33027W        W92464   9.750  32.474  14.339
33028W        W92465  24.016  29.062   1.788
33029W        W92466   3.333  13.766  14.490
33030W        W92467  13.344  32.597  13.353
33031W        W92468  11.689  18.058   3.841
33032W        W92469  39.465  26.082   4.781
33033W        W92470  39.995  31.530   2.185
33034W        W92471  20.151  27.483   0.875
33035W        W92472   9.667   5.255   2.749
33036W        W92473  11.836  11.360   3.863
33037W        W92474  33.543  31.537  10.437
33038W        W92475  18.268   6.727   4.173
33039W        W92476  31.509  44.498   3.737
33040W        W92477  12.733  36.478  10.619
33041W        W92478  42.341  37.450  14.501
33042W        W92479   4.840  28.475   3.361
33043W        W92480  32.573   5.792  12.480
33044W        W92481  41.491  40.956   1.450
33045W        W92482  37.344   6.321  14.987
33046W        W92483  25.035  31.009  10.904
33047W        W92484  38.049  25.590  12.356
33048W        W92485  13.835  10.840   0.308
33049W        W92486  22.131  43.317  14.427
33050W        W92487  43.487  28.612   0.434
33051W        W92488  33.452   8.205  12.854
33052W        W92489  32.927  12.161  12.064
33053W        W92490  16.091  25.155  12.482
33054W        W92491  25.690   9.698   0.735
33055W        W92492   5.873  27.030  10.452
33056W        W92493   4.271  19.056   4.796
33057W        W92494  19.672   5.881   1.761
33058W        W92495  34.385  20.631   2.838
33059W        W92496  10.792   1.318   1.372
33060W        W92497   1.346   2.306   2.407
33061W        W92498  13.836  38.359  11.926
33062W        W92499  31.460  26.527   1.825
33063W        W92500  26.160  13.137  12.957
33064W        W92501  34.488  25.613   4.605
33065W        W92502  35.896  34.978  10.634
33066W        W92503  19.128  21.620   5.584
33067W        W92504  11.642  15.811  13.979
33068W        W92505   9.182  23.077   1.444
33069W        W92506  41.526  33.025   2.846
33070W        W92507   4.247  36.850   0.306
33071W        W92508  12.166  25.061   4.784
33072W        W92509  39.394   8.671   2.850
33073W        W92510  34.006  24.135   1.314
33074W        W92511  14.725  39.372  10.092
33075W        W92512  23.070  41.015  14.924
33076W        W92513   3.769  24.990   4.633
33077W        W92514  12.816  32.935   1.932
33078W        W92515  12.798  34.433   2.710
33079W        W92516  12.722  25.647   4.625
33080W        W92517  15.128  29.538  12.445
33081W        W92518   1.920  24.130  12.948
33082W        W92519   8.696  15.258   3.752
33083W        W92520  24.547  18.072   3.756
33084W        W92521  41.536  27.652   2.294
33085W        W92522  18.617   5.248   4.809
33086W        W92523  37.485  38.983   1.771
33087W        W92524  32.511  24.636   1.357
33088W        W92525  21.586   0.899   2.853
33089W        W92526  12.813  13.133   1.246
33090W        W92527  42.469  32.136   2.885
33091W        W92528   9.187   5.221   2.257
33092W        W92529  40.377  30.542   5.278
33093W        W92530  34.965  43.021  14.922
33094W        W92531  27.569  43.497  13.973
33095W        W92532  16.313  42.403   1.294
33096W        W92533   5.406   6.191   4.685
33097W        W92534  34.062  30.435   3.822
33098W        W92535  23.098  25.137  13.446
33099W        W92536  44.306  32.486   0.358
33100W        W92537   3.405  32.424   2.813
33101W        W92538   6.677  20.666  10.939
33102W        W92539   1.466  40.916  10.434
33103W        W92540  27.994  24.226  12.430
33104W        W92541   4.290  32.060  12.370
33105W        W92542  38.844   4.794  10.622
33106W        W92543  24.145  22.571  11.862
33107W        W92544  13.750  20.049   4.622
33108W        W92545  33.949  13.178   1.869
33109W        W92546  43.460  27.973  12.402
33110W        W92547  29.937   2.239  12.866
33111W        W92548   6.294   5.723  11.589
33112W        W92549  35.064  27.104   3.750
33113W        W92550  14.288  15.593  14.489
33114W        W92551   6.187  11.316  13.500
33115W        W92552  41.952  21.172   4.660
33116W        W92553  40.394  41.344  14.855
33117W        W92554  12.256  33.493  11.124
33118W        W92555   2.959   2.747  13.007
33119W        W92556  15.156  34.580  11.127
33120W        W92557   6.750  27.108  13.936
33121W        W92558  22.694  16.570   0.820
33122W        W92559   4.262  15.689   3.773
33123W        W92560  21.173  27.540  12.474
33124W        W92561  28.929  23.116   3.173
33125W        W92562  22.043  40.926   3.336
33126W        W92563  24.487  10.202   4.255
33127W        W92564  22.135   9.717   9.958
33128W        W92565  14.283   1.945  10.450
33129W        W92566  44.276  23.629  12.877
33130W        W92567  27.050  22.199   4.777
33131W        W92568  13.649  21.035  12.446
33132W        W92569   6.306  35.038   3.848
33133W        W92570  32.104  18.181  14.815
33134W        W92571  38.407  38.824   0.848
33135W        W92572  25.983  30.468   0.351
33136W        W92573  20.673  37.490  11.874
33137W        W92574  19.141  13.114  12.545
33138W        W92575  40.817  14.237   3.150
33139W        W92576  37.024   9.302  12.912
33140W        W92577  37.415  10.309  12.081
33141W        W92578   0.436   1.345   3.324
33142W        W92579   5.315  16.665  13.985
33143W        W92580   5.761  29.076  10.964
33144W        W92581  11.766   4.337   3.328
33145W        W92582   2.317   2.959   0.777
33146W        W92583  15.774  40.860  12.079
33147W        W92584  11.195  28.625   2.417
33148W        W92585   6.395  42.345  14.947
33149W        W92586  40.361  21.746  14.345
33150W        W92587  17.670  32.957   4.202
33151W        W92588   2.949   8.805  11.078
33152W        W92589  28.532  12.283  10.106
33153W        W92590  24.716  32.586  13.921
33154W        W92591   4.253   5.351   1.698
33155W        W92592  14.325  32.080  13.417
33156W        W92593   8.699  41.914  13.883
33157W        W92594  11.746   3.284  12.493
33158W        W92595  26.550   0.956  12.978
33159W        W92596  20.067   3.725   2.373
33160W        W92597  37.412  31.074  11.098
33161W        W92598   2.376   3.826  14.325
33162W        W92599  22.653  21.672   0.369
33163W        W92600  29.465  42.406  13.357
33164W        W92601  28.184  13.230   3.198
33165W        W92602   4.276   2.924   4.353
33166W        W92603  23.509  19.184   0.823
33167W        W92604   4.438  19.187   1.277
33168W        W92605   8.266  44.809  14.931
33169W        W92606   9.752  42.951  12.440
33170W        W92607  24.226  36.038   4.327
33171W        W92608   5.840   2.830   4.298
33172W        W92609   4.880  32.128   9.944
33173W        W92610  29.455  22.616   2.742
33174W        W92611  17.180  12.778  13.931
33175W        W92612  29.423  39.811   0.247
33176W        W92613  18.550  14.623   2.814
33177W        W92614  43.452  12.638  13.920
33178W        W92615  20.730  15.768  11.443
33179W        W92616  28.123  30.075   1.844
33180W        W92617  30.637  43.406  14.426
33181W        W92618  40.886  31.612  14.822
33182W        W92619  27.494  38.346   2.802
33183W        W92620  18.672  34.603   3.164
33184W        W92621  13.326  34.945  12.887
33185W        W92622   6.200  36.394  12.996
33186W        W92623  15.672  38.894  10.977
33187W        W92624  39.918  33.571   0.250
33188W        W92625  31.136   4.293   0.290
33189W        W92626   6.392  22.051   1.272
33190W        W92627  23.588  26.699   5.239
33191W        W92628  35.911  16.757  10.478
33192W        W92629  24.098  40.424   0.837
33193W        W92630   8.721   2.931   2.773
33194W        W92631  24.212   8.807   3.839
33195W        W92632  12.642  16.659   3.734
33196W        W92633  17.248   9.888   2.783
33197W        W92634  23.673  11.160  11.420
33198W        W92635   3.239  17.689   4.131
33199W        W92636  27.570  35.937  10.957
33200W        W92637   9.261   1.960   0.313
33201W        W92638  37.371   9.327  14.390
33202W        W92639  37.480  29.927   4.191
33203W        W92640  19.625  27.625  13.442
33204W        W92641  39.332  14.643   0.300
33205W        W92642  14.740   2.282   2.864
33206W        W92643  28.662  42.942  10.618
33207W        W92644  16.680  32.080   4.609
33208W        W92645   1.349  19.629  10.911
33209W        W92646  30.591  24.170  13.339
33210W        W92647  41.968  44.410   3.749
33211W        W92648  38.433  25.498   3.731
33212W        W92649  12.246   2.948   0.282
33213W        W92650   4.263  39.849   0.394
33214W        W92651  23.709  28.966  14.818
33215W        W92652  37.355  13.140   5.213
33216W        W92653   9.769  10.163   2.294
33217W        W92654  23.030  13.634  14.350
33218W        W92655  22.594  26.122  10.917
33219W        W92656  26.462   9.322  12.354
33220W        W92657  33.475   9.194   3.838
33221W        W92658   4.762  41.925  12.398
33222W        W92659  38.863  25.579   3.680
33223W        W92660  20.749  21.145   3.798
33224W        W92661   2.825  16.638   9.648
33225W        W92662   2.443  12.669   2.736
33226W        W92663  14.639   5.881   3.290
33227W        W92664  17.274  34.023  10.407
33228W        W92665  31.512   0.494  11.452
33229W        W92666  39.056  19.542   2.397
33230W        W92667  10.300  43.806   4.610
33231W        W92668  13.639  30.498   1.845
33232W        W92669  22.523  19.620  10.555
33233W        W92670   7.241  43.894  11.509
33234W        W92671   7.313  44.753   4.750
33235W        W92672   1.356  42.295  10.961
33236W        W92673  13.821  33.596   3.164
33237W        W92674  37.578  41.387   4.680
33238W        W92675  28.568  22.564   4.773
33239W        W92676   2.456   2.236   4.651
33240W        W92677  41.951  25.136   4.347
33241W        W92678  18.243  44.414  10.997
33242W        W92679   2.281   3.459  13.935
33243W        W92680  26.026  30.587  10.510
33244W        W92681  24.157  42.418   2.342
33245W        W92682  31.922  32.521   0.275
33246W        W92683  31.517  24.081  14.880
33247W        W92684  28.133  29.920   0.429
33248W        W92685  22.650  43.387  14.484
33249W        W92686  27.622  43.507   4.189
33250W        W92687  28.660  41.384  12.090
33251W        W92688  15.602  31.422  13.415
33252W        W92689  12.642  19.539  13.813
33253W        W92690  17.764  20.165  14.425
33254W        W92691  44.367   1.793  10.461
33255W        W92692  33.571  38.518   3.198
33256W        W92693  21.512  33.433  14.380
33257W        W92694  14.644   5.265   0.377
33258W        W92695  41.994  36.391   2.209
33259W        W92696  36.516   3.916  14.905
33260W        W92697  31.949  25.095  13.469
33261W        W92698   0.913  21.253   4.288
33262W        W92699  20.672  30.498   1.826
33263W        W92700  13.307  32.991   2.720
33264W        W92701   6.807   7.907   0.879
33265W        W92702  19.631  34.930   1.339
33266W        W92703  43.446  32.133   1.904
33267W        W92704  43.891  44.465  11.979
33268W        W92705  11.785  19.130   2.221
33269W        W92706  41.308   4.436   1.854
33270W        W92707  11.131  32.058   0.295
33271W        W92708  28.942  20.700   3.328
33272W        W92709   1.857  36.004   3.761
33273W        W92710  37.901  24.618  13.353
33274W        W92711   5.385  19.051   4.325
33275W        W92712  30.612  16.143  12.425
33276W        W92713  14.192  34.957  11.947
33277W        W92714  33.004   4.404  12.354
33278W        W92715   8.698  31.116   4.133
33279W        W92716  22.659  10.179   0.248
33280W        W92717  28.594  17.564  12.936
33281W        W92718  40.905  10.675   3.368
33282W        W92719  35.996   7.689   2.298
33283W        W92720  39.941  39.981   2.415
33284W        W92721   0.786  26.554  13.351
33285W        W92722  39.521  15.780  12.447
33286W        W92723  32.956  37.908  12.899
33287W        W92724  18.624  24.599  10.905
33288W        W92725  17.668  38.502   2.205
33289W        W92726  36.047  31.982  11.055
33290W        W92727  24.573  15.103   2.704
33291W        W92728  44.314  18.648  14.862
33292W        W92729   2.458  36.059  12.353
33293W        W92730  17.799  25.630   0.767
33294W        W92731  16.188  20.651   2.808
33295W        W92732  26.514  20.695   3.218
33296W        W92733  38.529  32.960   2.361
33297W        W92734  37.931   6.295  12.956
33298W        W92735   5.230  37.968  13.793
33299W        W92736  26.621   1.739   4.599
33300W        W92737  32.012  42.003   0.820
33301W        W92738  23.056   2.422   4.257
33302W        W92739  17.275  29.514   2.322
33303W        W92740  34.424  16.681  13.999
33304W        W92741  36.497  30.936   0.871
33305W        W92742  31.476  25.118   3.681
33306W        W92743  27.117   4.882   1.911
33307W        W92744   2.885  30.024  12.447
33308W        W92745  42.293  39.008  12.996
33309W        W92746  34.041  25.625   2.247
33310W        W92747  33.516  17.124  10.543
33311W        W92748  33.465   6.262   2.713
33312W        W92749  15.321  37.345   3.686
33313W        W92750  22.134  20.149  14.514
33314W        W92751  24.513   4.449   4.773
33315W        W92752  33.519   7.673   2.762
33316W        W92753   9.690   0.292  11.480
33317W        W92754  37.996  18.210  12.414
33318W        W92755  35.515  36.572  11.886
33319W        W92756   9.315  13.819   3.286
33320W        W92757   8.300   1.839  14.307
33321W        W92758  22.113  38.845  14.297
33322W        W92759  25.106  40.932   3.239
33323W        W92760  34.552  14.714   4.691
33324W        W92761  28.155  12.355   0.743
33325W        W92762  12.806   0.309   1.842
33326W        W92763  10.250  11.162   0.783
33327W        W92764  41.390  15.139  12.439
33328W        W92765  34.113  36.480   3.669
33329W        W92766  31.094  37.005   4.283
33330W        W92767  22.632   7.263  12.045
33331W        W92768   5.829  13.348   1.260
33332W        W92769  15.800  44.902  14.862
33333W        W92770  19.204  28.609   4.202
33334W        W92771  13.213   8.892  10.615
33335W        W92772  41.401   4.267   2.248
33336W        W92773  27.670  32.516   1.412
33337W        W92774   3.351   6.403   0.248
33338W        W92775  41.983   5.805   2.247
33339W        W92776   7.690  44.879  11.949
33340W        W92777   1.380   2.230   4.810
33341W        W92778  42.888  42.321  12.936
33342W        W92779   1.348  18.778   0.830
33343W        W92780  15.177   8.290  14.823
33344W        W92781   4.735  37.899   4.341
33345W        W92782   7.819  42.989  11.506
33346W        W92783  29.037   3.845  12.431
33347W        W92784  24.578  38.905   1.288
33348W        W92785  28.129  28.185   1.340
33349W        W92786  21.626  24.107   3.359
33350W        W92787   0.265  42.962   4.667
33351W        W92788  28.469  16.278   1.318
33352W        W92789  20.057  42.367  12.394
33353W        W92790  28.152  43.792   4.183
33354W        W92791   5.871  35.077   3.194
33355W        W92792  28.467  39.480   3.357
33356W        W92793  24.027  36.921  13.428
33357W        W92794   8.259  24.992   3.773
33358W        W92795  12.277  34.045   3.783
33359W        W92796   3.930  33.030   4.740
33360W        W92797   1.435   5.386  13.021
33361W        W92798  40.866  26.957  10.430
33362W        W92799  36.523  17.696  14.474
33363W        W92800  11.295  24.042  12.053
33364W        W92801  34.383  33.606   0.904
33365W        W92802  17.089   5.364   0.420
33366W        W92803  26.031  31.087  14.490
33367W        W92804  17.115  30.914  12.360
33368W        W92805  17.771  13.191   3.264
33369W        W92806  43.001  28.083   2.743
33370W        W92807  34.397  37.044  11.923
33371W        W92808  32.449  30.617   0.371
33372W        W92809  34.030   7.820  12.030
33373W        W92810  29.109   6.267  10.493
33374W        W92811  21.635  27.633   3.329
33375W        W92812  20.539  27.670  11.432
33376W        W92813  13.217  40.402   3.861
33377W        W92814   2.386  34.442   2.860
33378W        W92815  19.214  43.356   1.794
33379W        W92816  21.687  26.010  12.513
33380W        W92817  11.232  34.987   3.866
33381W        W92818  24.095  15.265  12.994
33382W        W92819  36.866   4.302   4.346
33383W        W92820  24.058  12.731  12.437
33384W        W92821  27.031  39.888  12.853
33385W        W92822  31.128   5.928   3.185
33386W        W92823   2.286  34.029  12.375
33387W        W92824  37.464  40.382   1.241
33388W        W92825  23.531  35.489  14.508
33389W        W92826  11.636  43.364  12.408
33390W        W92827   0.861   1.422   2.221
33391W        W92828  40.488  22.552  13.510
33392W        W92829  33.046  37.010  13.412
33393W        W92830   5.876  14.660  13.036
33394W        W92831   6.232   6.289   3.149
33395W        W92832  19.211  15.256  10.441
33396W        W92833   6.907  34.525   1.385
33397W        W92834  12.753  26.163   3.665
33398W        W92835  10.369  12.266   2.823
33399W        W92836  26.161  29.597   3.364
33400W        W92837  20.747  11.186   1.879
33401W        W92838  19.148  20.150   4.288
33402W        W92839  14.803  11.132   0.885
33403W        W92840  41.916  19.669  10.445
33404W        W92841  30.596   7.911   2.295
33405W        W92842  31.960   4.773  14.380
33406W        W92843   4.271  42.375  10.980
33407W        W92844  23.095  35.876  13.443
33408W        W92845  12.219  39.945   0.948
33409W        W92846  25.579   2.311  14.890
33410W        W92847  13.228  12.745  14.900
33411W        W92848  39.897   2.368   2.690
33412W        W92849  37.554  11.720  11.425
33413W        W92850  13.346  27.649  11.048
33414W        W92851  42.814   5.811   2.412
33415W        W92852  37.492   3.780   5.188
33416W        W92853  29.554  21.258   0.460
33417W        W92854  26.954  43.445  10.495
33418W        W92855   0.300  32.915   0.805
33419W        W92856  41.413  18.217   4.127
33420W        W92857  24.536  31.607  11.553
33421W        W92858  17.698  29.087   4.682
33422W        W92859  36.037   9.760   0.765
33423W        W92860   9.718  37.858   0.861
33424W        W92861  43.891  38.938  11.494
33425W        W92862   7.301   5.797  13.491
33426W        W92863   5.350  28.981   4.675
33427W        W92864  27.468  21.558   2.312
33428W        W92865   6.337  41.357  11.121
33429W        W92866  10.281  34.902  13.332
33430W        W92867  13.247  12.612  11.396
33431W        W92868  24.617  27.040   0.952
33432W        W92869  13.750  35.500   1.337
33433W        W92870  25.712  21.702   9.935
33434W        W92871  17.609  37.879   4.313
33435W        W92872  23.095  31.026   3.379
33436W        W92873  19.142  26.593   1.340
33437W        W92874  20.758   6.350  10.493
33438W        W92875   3.847  21.206   4.670
33439W        W92876   3.809   0.765   1.798
33440W        W92877  27.164  36.485   2.374
33441W        W92878   2.942  32.073   0.397
33442W        W92879  11.258  38.530   2.186
33443W        W92880  33.082  37.525  11.880
33444W        W92881  44.305  10.667   2.864
33445W        W92882   8.248  30.619   1.438
33446W        W92883   8.757  14.173   0.255
33447W        W92884  31.588   2.895  10.979
33448W        W92885  19.276  25.102   4.274
33449W        W92886  27.520  21.134  11.107
33450W        W92887   1.758  26.626  10.488
33451W        W92888  18.688  20.166   1.447
33452W        W92889  22.734  24.496   2.270
33453W        W92890  25.031  27.006   2.419
33454W        W92891  42.438  43.306  10.954
33455W        W92892  22.659  29.013  10.937
33456W        W92893  21.035   0.890   3.383
33457W        W92894  19.208  11.836  11.941
33458W        W92895  20.765  36.538   1.866
33459W        W92896   4.207   8.722   2.860
33460W        W92897  35.548  39.970  13.434
33461W        W92898  17.615  26.584  14.924
33462W        W92899  33.547  13.829  13.486
33463W        W92900  40.972  25.173  11.529
33464W        W92901  25.647  39.339  10.017
33465W        W92902   9.280  12.301   2.816
33466W        W92903  44.330   5.432   2.830
33467W        W92904  37.039   4.236  11.957
33468W        W92905   2.904  33.962  13.007
33469W        W92906  17.577  25.475   3.265
33470W        W92907   6.907  40.354   3.659
33471W        W92908  21.250  27.047  12.476
33472W        W92909  13.792  20.244  12.512
33473W        W92910   8.359  37.910  14.789
33474W        W92911  25.485   5.906  11.111
33475W        W92912  35.033   3.335   0.950
33476W        W92913  30.914  22.511   1.838
33477W        W92914  36.519  26.511  14.019
33478W        W92915  25.632  25.644  14.497
33479W        W92916  44.428  37.889   5.106
33480W        W92917  10.346   0.265   2.253
33481W        W92918  32.894  26.468   1.909
33482W        W92919  33.527   9.712  10.067
33483W        W92920  13.618  31.129   2.200
33484W        W92921  12.642  15.634  11.578
33485W        W92922  44.496  22.072   1.735
33486W        W92923  28.457   8.368  12.554
33487W        W92924  40.428  34.870   3.631
33488W        W92925  30.557  23.105   3.236
33489W        W92926   8.223  34.921  14.503
33490W        W92927  30.522  38.045  12.011
33491W        W92928  42.787  42.871   3.346
33492W        W92929  30.953  30.480  14.302
33493W        W92930  29.632  34.507  12.430
33494W        W92931  22.670  25.060  12.825
33495W        W92932   8.796  43.354  10.497
33496W        W92933  37.469  38.939   1.309
33497W        W92934  21.638  15.249   4.600
33498W        W92935  26.149   8.396  11.524
33499W        W92936  20.605  39.818   1.394
33500W        W92937  29.451  12.620   5.267
33501W        W92938  33.100  40.817   3.743
33502W        W92939  19.128  12.708  13.388
33503W        W92940   4.258  44.350  12.354
33504W        W92941  12.133   0.831  14.420
33505W        W92942  19.164  11.787  14.979
33506W        W92943  18.653   1.732   4.627
33507W        W92944  20.048   1.898   3.245
33508W        W92945  22.235  36.486  14.460
33509W        W92946  38.821  10.291   2.380
33510W        W92947  17.125  29.465  13.064
33511W        W92948   5.412  36.518   2.825
33512W        W92949  22.599   2.412   0.307
33513W        W92950  37.951  40.813  12.934
33514W        W92951   0.459  36.551  12.522
33515W        W92952  11.865  35.964   4.153
33516W        W92953   9.744  19.135  12.516
33517W        W92954   5.868  22.234  14.796
33518W        W92955  29.024  24.086  14.901
33519W        W92956  26.462  41.886   5.107
33520W        W92957   5.904  33.506  11.394
33521W        W92958  13.685  27.626   2.762
33522W        W92959  19.211   0.280  10.970
33523W        W92960   5.424  40.406   4.763
33524W        W92961   2.247  33.122  14.394
33525W        W92962  43.784   4.429  14.452
33526W        W92963  43.282   6.712  10.512
33527W        W92964   2.893  20.628   2.326
33528W        W92965  36.374   5.290   4.140
33529W        W92966   6.858  31.635   0.463
33530W        W92967  39.435  12.836  12.855
33531W        W92968  29.941  35.915  12.048
33532W        W92969   0.745  43.403  10.588
33533W        W92970  39.003  33.093  14.381
33534W        W92971  17.666  15.207  12.021
33535W        W92972  24.164   1.731   4.114
33536W        W92973  13.139  31.476   4.238
33537W        W92974  41.306  37.868   5.756
33538W        W92975   8.290  27.947   4.133
33539W        W92976  11.288   3.231   1.800
33540W        W92977  22.052  20.634   1.846
33541W        W92978   6.189  32.587   2.244
33542W        W92979  39.907   1.331   0.301
33543W        W92980   6.421   7.208   0.845
33544W        W92981  18.266  14.256  10.644
33545W        W92982  33.997   1.941  14.344
33546W        W92983  42.331  28.099  13.978
33547W        W92984  29.536  11.153  12.454
33548W        W92985   7.257  13.158   4.157
33549W        W92986   8.732   3.392   0.244
33550W        W92987  26.054  42.466  11.999
33551W        W92988   0.838  39.521   4.207
33552W        W92989  36.900  22.179  13.827
33553W        W92990  10.859  35.406  12.475
33554W        W92991  12.170  20.688  11.550
33555W        W92992   9.204  39.496   4.697
33556W        W92993  25.045  40.823   0.254
33557W        W92994   8.709  40.480  10.916
33558W        W92995  25.962  43.327   3.228
33559W        W92996   6.338  21.635  10.983
33560W        W92997  24.581  34.072  12.919
33561W        W92998  22.507  25.093   3.150
33562W        W92999  35.100   1.736  12.395
33563W        W93000  38.015  10.181   2.240
33564W        W93001  30.629  34.450   1.866
33565W        W93002  20.554  26.538  13.379
33566W        W93003   3.389   3.334   1.408
33567W        W93004  16.742  32.587   4.640
33568W        W93005  12.650  20.274   4.796
33569W        W93006  44.963   4.812  14.291
33570W        W93007  12.624  24.605  11.032
33571W        W93008  36.887   0.947  14.863
33572W        W93009  43.514  23.079  12.015
33573W        W93010  16.666  41.380   2.808
33574W        W93011  39.884  11.758   4.775
33575W        W93012   0.424  40.823   2.791
33576W        W93013   7.742  32.985   1.740
33577W        W93014   4.393  32.549  12.537
33578W        W93015  34.906  32.447   0.437
33579W        W93016  10.339  38.014   3.280
33580W        W93017  21.640  37.478  11.991
33581W        W93018  40.320  26.988   3.807
33582W        W93019  17.709  31.027  10.422
33583W        W93020  44.349  26.200   3.826
33584W        W93021  23.706  41.467   4.181
33585W        W93022   3.826  41.973   4.175
33586W        W93023  18.116  32.431  10.412
33587W        W93024   2.860  44.920   3.838
33588W        W93025   4.753  16.208   2.692
33589W        W93026  12.144   1.296  11.393
33590W        W93027  29.609  23.670   3.317
33591W        W93028  11.864  33.901   0.297
33592W        W93029  43.820  24.116  11.573
33593W        W93030  22.688  44.919  14.025
33594W        W93031  17.689  30.614  10.552
33595W        W93032  19.267  16.170  11.568
33596W        W93033   4.911  41.304   9.927
33597W        W93034   9.233   3.769  14.926
33598W        W93035  36.052  42.520   2.759
33599W        W93036   5.931  13.837  12.347
33600W        W93037  43.861   4.784   3.825
33601W        W93038  41.795  29.152  11.945
33602W        W93039  28.443  21.546   0.391
33603W        W93040  28.660   8.297  14.358
33604W        W93041   3.368  18.615  10.501
33605W        W93042  15.269  20.718   2.376
33606W        W93043  18.719  30.430   4.264
33607W        W93044  17.791  39.401  13.924
33608W        W93045  44.957  28.451  13.925
33609W        W93046  11.814  24.074   4.684
33610W        W93047  40.872   5.244   0.249
33611W        W93048  30.590  21.659  14.811
33612W        W93049  13.707  20.699  14.496
33613W        W93050  41.362   2.348  12.083
33614W        W93051  43.336  36.013  11.869
33615W        W93052  29.023  41.894  13.815
33616W        W93053  37.567  18.237  10.612
33617W        W93054   3.245  36.385  11.979
33618W        W93055  11.670  28.636  12.361
33619W        W93056  13.725  23.601   3.323
33620W        W93057   4.322   2.406   0.854
33621W        W93058  35.494  29.160   1.213
33622W        W93059   4.851  18.260  14.428
33623W        W93060   6.681  20.207   2.851
33624W        W93061  17.231  41.801   3.184
33625W        W93062  17.646  24.707  14.353
33626W        W93063  18.751  39.961  14.372
33627W        W93064  32.588  30.500   1.798
33628W        W93065  14.589  40.329  13.538
33629W        W93066  10.791  23.556   5.191
33630W        W93067  18.596  39.534  10.034
33631W        W93068  18.549   8.901  10.895
33632W        W93069  14.184  35.945  13.318
33633W        W93070  32.480   0.410   4.122
33634W        W93071  19.124  10.823  12.383
33635W        W93072   0.403   7.864  10.911
33636W        W93073  38.020   5.909   4.247
33637W        W93074  42.979  31.492   4.820
33638W        W93075  21.135  32.079   0.887
33639W        W93076   7.698  35.511  11.534
33640W        W93077   2.882  12.356   2.319
33641W        W93078  39.329  37.582  12.035
33642W        W93079  31.424  13.658  14.878
33643W        W93080  18.585  38.858   1.826
33644W        W93081  26.987  43.992   1.712
33645W        W93082  23.633  12.224  13.811
33646W        W93083  42.802   9.170   2.799
33647W        W93084  21.223   3.786   0.921
33648W        W93085   4.795  44.484  14.009
33649W        W93086  22.227  16.143  12.498
33650W        W93087   9.231  13.133   1.782
33651W        W93088  16.736  12.349  13.394
33652W        W93089   8.763  36.535   1.246
33653W        W93090  40.912  15.808  12.860
33654W        W93091  42.409  28.117   4.778
33655W        W93092  34.911  27.471   4.228
33656W        W93093   0.373  11.626  14.856
33657W        W93094  14.750  42.330   4.350
33658W        W93095   3.918  17.606   4.630
33659W        W93096  29.594   8.309  13.063
33660W        W93097  39.898  20.040   4.222
33661W        W93098  13.171  19.098  10.479
33662W        W93099   5.900  12.143   4.284
33663W        W93100   9.240  40.398  11.028
33664W        W93101  42.963  43.284  12.993
33665W        W93102   9.180  14.160   2.318
33666W        W93103  15.705  20.641  12.421
33667W        W93104  33.603   8.189  12.396
33668W        W93105  43.797  13.265   0.406
33669W        W93106  23.232  14.207   3.765
33670W        W93107  22.126  35.556   1.329
33671W        W93108  14.237  15.205   4.192
33672W        W93109  22.153  40.543  13.411
33673W        W93110  43.890  33.012  14.505
33674W        W93111  18.087  32.398   1.430
33675W        W93112   7.681   9.299  13.465
33676W        W93113  14.670   1.246  12.455
33677W        W93114   4.353  23.509   9.960
33678W        W93115   6.400  42.931  11.923
33679W        W93116  29.137  39.858  12.546
33680W        W93117   5.846  11.730  10.485
33681W        W93118   0.767  31.940   4.322
33682W        W93119  23.694   6.314  10.615
33683W        W93120   2.868  32.512  13.927
33684W        W93121  42.782   9.802   1.359
33685W        W93122  29.082  10.215  14.031
33686W        W93123  22.169  14.655  13.425
33687W        W93124   3.273  25.515   2.232
33688W        W93125  13.189  14.195  11.905
33689W        W93126  33.072  31.052  12.379
33690W        W93127  37.889  42.304   3.857
33691W        W93128   6.393  44.313   2.815
33692W        W93129  10.743  22.018   4.193
33693W        W93130  28.459  33.434  13.874
33694W        W93131  25.681  36.073   3.676
33695W        W93132  27.000   7.684   2.842
33696W        W93133  34.411  21.708  11.068
33697W        W93134  23.616   1.359   3.665
33698W        W93135  42.962  23.015  10.466
33699W        W93136  31.592  42.433  13.918
33700W        W93137  23.558  35.957  13.436
33701W        W93138  38.326  44.797   0.404
33702W        W93139   5.688  21.657   0.282
33703W        W93140  29.986  31.971  13.518
33704W        W93141  25.035  43.329   3.188
33705W        W93142  14.613  13.790  14.899
33706W        W93143  44.311  33.616   0.315
33707W        W93144   0.819  15.120   0.377
33708W        W93145  44.502   0.972   2.862
33709W        W93146  39.049  39.904   3.725
33710W        W93147  18.730  32.602   3.774
33711W        W93148   8.783  23.645  11.076
33712W        W93149   4.367  26.085   0.244
33713W        W93150  26.170  17.746   3.367
33714W        W93151  13.123  31.056  12.047
33715W        W93152   8.745  44.778  12.837
33716W        W93153   2.947   6.357  14.975
33717W        W93154  40.399  29.967   1.274
33718W        W93155  32.108  25.636   2.248
33719W        W93156   0.342   7.876   0.759
33720W        W93157   4.846  41.448  14.512
33721W        W93158  27.160  33.387  11.087
33722W        W93159  18.241  11.662   0.329
33723W        W93160  15.791   2.883   3.206
33724W        W93161  26.631   9.352   3.803
33725W        W93162  36.518   3.955  12.052
33726W        W93163  41.479  16.192  12.492
33727W        W93164  12.334  22.220   0.838
33728W        W93165  41.472  28.629  11.934
33729W        W93166   1.800  35.066  13.429
33730W        W93167   3.944  22.037  11.525
33731W        W93168  20.672  36.091   0.377
33732W        W93169  28.162  22.602   2.776
33733W        W93170   2.226  20.576   3.657
33734W        W93171  36.430  21.099   2.694
33735W        W93172   8.174  36.494  10.510
33736W        W93173  20.084  18.571   5.220
33737W        W93174   6.310  42.417  13.931
33738W        W93175   1.927  15.617  10.894
33739W        W93176  41.450   7.231  14.870
33740W        W93177  27.077  35.408   2.212
33741W        W93178  38.437  24.060   4.320
33742W        W93179  22.185   1.830  14.804
33743W        W93180  24.189   4.761  12.509
33744W        W93181  39.062  15.703  12.839
33745W        W93182   4.411  11.815  12.439
33746W        W93183   7.290  24.083  11.575
33747W        W93184   9.768  29.046  11.085
33748W        W93185  22.579   7.805   4.239
33749W        W93186  44.408  39.392   1.743
33750W        W93187  10.772   8.778   2.319
33751W        W93188  37.462  30.097  13.019
33752W        W93189   9.790  11.202   3.861
33753W        W93190  11.622  29.963  13.522
33754W        W93191  25.209  15.797   4.300
33755W        W93192  21.134  31.981   2.249
33756W        W93193  26.568  38.541  14.508
33757W        W93194  15.288  14.739  12.042
33758W        W93195   8.353  37.858   1.933
33759W        W93196   2.316  42.966   3.262
33760W        W93197  34.506   8.345  13.459
33761W        W93198  30.922   8.281   1.908
33762W        W93199  13.181  35.932   4.670
33763W        W93200  37.955   2.932  12.832
33764W        W93201   9.704   1.412  10.474
33765W        W93202  39.974   5.271  10.931
33766W        W93203   4.833  17.630  10.568
33767W        W93204  22.707  23.224   3.156
33768W        W93205   3.728  17.584   2.251
33769W        W93206   9.747  39.391   3.650
33770W        W93207   4.345  35.359  14.991
33771W        W93208  42.527  14.099  11.543
33772W        W93209  35.105  14.774  11.392
33773W        W93210  41.330   5.860  13.892
33774W        W93211  17.607  21.667  14.911
33775W        W93212  29.993  37.940   0.774
33776W        W93213  24.132   6.869  10.549
33777W        W93214   1.851  40.964  13.838
33778W        W93215   0.313  41.932  12.994
33779W        W93216  31.060   4.850   1.752
33780W        W93217  21.646  34.978   2.206
33781W        W93218  13.113   6.771   4.259
33782W        W93219  28.077  34.609   2.241
33783W        W93220  40.461  22.620   3.194
33784W        W93221  23.614  22.076   1.908
33785W        W93222   1.785  14.102  10.495
33786W        W93223  22.661  31.972   4.144
33787W        W93224   1.862  37.406  14.393
33788W        W93225  29.169  29.162   1.774
33789W        W93226  14.203  43.972  12.452
33790W        W93227   8.733  13.274   4.655
33791W        W93228   3.323  17.600   2.250
33792W        W93229  32.954  16.131  14.826
33793W        W93230  20.551  15.153  12.340
33794W        W93231   4.332  14.277   1.729
33795W        W93232   7.736  32.019   5.092
33796W        W93233  14.744  31.483   1.373
33797W        W93234  10.178  23.060   1.235
33798W        W93235  40.333   7.761   5.184
33799W        W93236  39.845  12.251   2.292
33800W        W93237  43.515   6.217   2.704
33801W        W93238  24.622  11.794  12.997
33802W        W93239   9.258  11.754   3.357
33803W        W93240   8.364  17.126  13.834
33804W        W93241  32.133  38.025   1.930
33805W        W93242  43.971  26.961  13.834
33806W        W93243  19.756  14.693  12.878
33807W        W93244  27.142  43.469  13.350
33808W        W93245  32.013  14.205   3.639
33809W        W93246  44.282   9.165  13.458
33810W        W93247  16.217  17.711  10.905
33811W        W93248  10.204  27.994   1.810
33812W        W93249  20.189  38.360   0.823
33813W        W93250  33.881  13.283  13.488
33814W        W93251  10.737  31.491   1.727
33815W        W93252   4.915  26.593  12.380
33816W        W93253  43.348   9.183   1.823
33817W        W93254  13.782  17.718  12.879
33818W        W93255  24.684  16.739  14.464
33819W        W93256  35.930  14.694  10.438
33820W        W93257   2.236   6.295  11.087
33821W        W93258  15.609  43.931   4.247
33822W        W93259   1.480  16.170   2.201
33823W        W93260   3.260  14.115   2.186
33824W        W93261  22.507  30.112   0.353
33825W        W93262   5.307  32.009   1.428
33826W        W93263   9.780  12.762   3.659
33827W        W93264   6.733   0.912  12.549
33828W        W93265  31.047  21.653   2.298
33829W        W93266   4.261  12.154   1.769
33830W        W93267  18.055  28.460   0.877
33831W        W93268  20.643  11.648   4.306
33832W        W93269  11.370  27.118  14.453
33833W        W93270  34.012  33.916   3.283
33834W        W93271  44.824  36.048  12.926
33835W        W93272  38.524  30.088   4.348
33836W        W93273   4.207  16.753  10.924
33837W        W93274  34.399  32.100  11.004
33838W        W93275  42.355  19.126  14.315
33839W        W93276  22.713  24.546  14.347
33840W        W93277   9.385  21.111  14.479
33841W        W93278  35.566  32.626   4.260
33842W        W93279  25.684  11.287  13.888
33843W        W93280  26.520  14.715  10.573
33844W        W93281  41.932  37.478   2.829
33845W        W93282   8.352   1.815   2.322
33846W        W93283   5.331  17.616   0.305
33847W        W93284  33.019  32.925   3.155
33848W        W93285  28.182   1.765   3.283
33849W        W93286  28.556   7.888   4.825
33850W        W93287  35.562   2.816   4.816
33851W        W93288  33.030  36.022  10.474
33852W        W93289  22.024  19.544   9.948
33853W        W93290   3.787  37.519   2.800
33854W        W93291  36.482  11.782  11.919
33855W        W93292  15.669  13.702  14.383
33856W        W93293  23.566   7.182   1.359
33857W        W93294   0.979  22.165   1.362
33858W        W93295   8.887  39.461   1.815
33859W        W93296  31.022   4.866  11.608
33860W        W93297  20.705  24.537   2.876
33861W        W93298  29.498   5.899  12.383
33862W        W93299  30.122  18.064   0.455
33863W        W93300  33.969  15.641   2.839
33864W        W93301   6.292   9.684   2.785
33865W        W93302  18.684  38.835  14.776
33866W        W93303  22.206  34.499  14.974
33867W        W93304  33.608  25.597  11.512
33868W        W93305  34.873  11.641   2.718
33869W        W93306  33.900  31.566  11.890
33870W        W93307  34.917  23.075   2.842
33871W        W93308  36.369  43.495   4.613
33872W        W93309  38.335  20.667   1.888
33873W        W93310  39.547   4.798   4.256
33874W        W93311  23.043  42.293  14.277
33875W        W93312   6.904  19.204   4.763
33876W        W93313  17.771  41.460  12.047
33877W        W93314   4.749   6.217  10.464
33878W        W93315   2.815   1.940   3.213
33879W        W93316  26.172  27.974   1.370
33880W        W93317   7.800  41.936   2.702
33881W        W93318   2.233   6.768   1.303
33882W        W93319  44.787   3.769   1.772
33883W        W93320  28.469  30.586   3.225
33884W        W93321  10.694  10.140   1.739
33885W        W93322  17.735  35.525   0.268
33886W        W93323  26.200   0.435  12.044
33887W        W93324  44.303   9.701   4.742
33888W        W93325  31.956  28.578   1.451
33889W        W93326  16.719  11.225   2.397
33890W        W93327  35.452   7.768   0.945
33891W        W93328   5.405  20.578  11.431
33892W        W93329  20.229   7.211   3.759
33893W        W93330   6.404  24.554   1.359
33894W        W93331  24.635   3.319   5.154
33895W        W93332  16.270   0.461  11.994
33896W        W93333  28.954  27.968  10.626
33897W        W93334  16.246  27.499  13.803
33898W        W93335  16.733  22.213  10.574
33899W        W93336  16.202  26.996  13.801
33900W        W93337   7.752  26.659   9.519
33901W        W93338   8.672  43.801  14.496
33902W        W93339  41.452  37.440   9.997
33903W        W93340  24.537  31.646   3.650
33904W        W93341  32.442  12.755   0.275
33905W        W93342  28.632   2.453  13.363
33906W        W93343   8.782  27.125   3.833
33907W        W93344  33.596  10.659  11.873
33908W        W93345   3.411  41.397  10.456
33909W        W93346  39.314   7.390   2.267
33910W        W93347   2.453  27.012  12.086
33911W        W93348   4.390  22.522   2.901
33912W        W93349  26.470  39.468   9.606
33913W        W93350  10.844  23.707   0.919
33914W        W93351  25.089  27.664   4.314
33915W        W93352   7.309  38.407  11.945
33916W        W93353   2.891  31.058   3.697
33917W        W93354  40.799  20.709   3.339
33918W        W93355  11.734  20.135   3.772
33919W        W93356  14.646  28.128  14.769
33920W        W93357  18.790  15.659  11.859
33921W        W93358  10.653  24.107  14.914
33922W        W93359  25.041  25.165  14.947
33923W        W93360  36.029  14.698  14.800
33924W        W93361   9.173  16.781   0.468
33925W        W93362  20.059  29.995  11.401
33926W        W93363  21.602   8.389   0.833
33927W        W93364  25.583  26.084  14.790
33928W        W93365  32.057   5.842  12.974
33929W        W93366  24.009  17.707   1.284
33930W        W93367  40.441   3.847  13.939
33931W        W93368  10.381  20.215   0.290
33932W        W93369   4.259  34.934   1.905
33933W        W93370  41.415  29.940  13.512
33934W        W93371   3.340   4.265   1.261
33935W        W93372  26.531  34.503  13.008
33936W        W93373   9.888  31.925   1.391
33937W        W93374  40.389  42.896  14.424
33938W        W93375  40.526  42.478  13.942
33939W        W93376  10.810  25.484   2.400
33940W        W93377  42.361  27.562  13.456
33941W        W93378  28.069  23.005   1.719
33942W        W93379  44.468  41.941  11.925
33943W        W93380  44.800  19.043  13.429
33944W        W93381  36.972  37.523   3.739
33945W        W93382  35.004  11.225  13.848
33946W        W93383   0.953   2.905  10.629
33947W        W93384  13.258  27.971   5.233
33948W        W93385   9.282  11.165  12.896
33949W        W93386  25.550  41.914   3.653
33950W        W93387  17.798  10.714  11.955
33951W        W93388  21.157  12.845  14.464
33952W        W93389  10.266  25.678   1.382
33953W        W93390  37.361   4.423  13.431
33954W        W93391   0.466  41.475  13.054
33955W        W93392  39.914  44.883   4.157
33956W        W93393  27.546  29.536  13.908
33957W        W93394  36.875   5.299  11.884
33958W        W93395  42.032  21.156  13.948
33959W        W93396  37.562  30.952   1.812
33960W        W93397  12.309   4.935  10.943
33961W        W93398  30.491  38.537  13.308
33962W        W93399   1.778  30.991   4.346
33963W        W93400  22.999  14.301   1.817
33964W        W93401  20.533   9.798  14.025
33965W        W93402  38.511  15.618   2.708
33966W        W93403  33.511   8.824   3.692
33967W        W93404  38.966  27.973   1.363
33968W        W93405   5.929  40.534  11.565
33969W        W93406  26.100   1.928  13.358
33970W        W93407  27.533  24.695  13.508
33971W        W93408  18.638  24.194   1.868
33972W        W93409  21.615  38.921  14.886
33973W        W93410  32.141  17.699  13.798
33974W        W93411   3.712  14.208   2.842
33975W        W93412  39.033  18.253  10.557
33976W        W93413  30.627  23.646   3.278
33977W        W93414  13.252  14.340  11.612
33978W        W93415  43.003  25.472  12.451
33979W        W93416  15.777  23.137  14.318
33980W        W93417  25.215  27.546   2.205
33981W        W93418  42.934  34.412   3.375
33982W        W93419   2.893  40.046   4.284
33983W        W93420  24.058   7.270  11.997
33984W        W93421  30.537  10.246   0.279
33985W        W93422   3.385   2.847  11.056
33986W        W93423   2.368   0.946   1.212
33987W        W93424  32.592   0.839  10.579
33988W        W93425  10.747  10.685  14.030
33989W        W93426   2.296  10.311   1.752
33990W        W93427   8.170  38.560  12.950
33991W        W93428  18.586  25.708   3.286
33992W        W93429  12.335  38.436  14.940
33993W        W93430   3.452  12.149  12.382
33994W        W93431   5.811   9.838   1.221
33995W        W93432  14.162  37.356   3.641
33996W        W93433  34.072  41.373  11.084
33997W        W93434   5.301  23.528  11.046
33998W        W93435  31.578  17.664   0.255
33999W        W93436  27.008  22.649   1.820
34000W        W93437  44.862  23.643  11.870
34001W        W93438  16.162  24.041  13.512
34002W        W93439  24.124  10.662   1.214
34003W        W93440  23.732  22.247  12.461
34004W        W93441  40.449  25.492   1.414
34005W        W93442  22.153  32.934  13.334
34006W        W93443  39.324   7.712   3.312
34007W        W93444  25.199  40.807  13.918
34008W        W93445   6.822  31.916  10.138
34009W        W93446  38.028   5.802  14.389
34010W        W93447   3.268  34.006   2.414
34011W        W93448  21.089  42.874   4.626
34012W        W93449  27.469  38.539  13.489
34013W        W93450  18.121  44.943   4.615
34014W        W93451  38.451  23.522  12.027
34015W        W93452  20.270   1.855   2.787
34016W        W93453  17.297  15.222  14.336
34017W        W93454  39.332  31.596   0.842
34018W        W93455  44.888  25.119  13.918
34019W        W93456  39.962  20.238  14.434
34020W        W93457   3.835  34.401  11.119
34021W        W93458  38.451  43.318  13.056
34022W        W93459  13.668   5.214  14.377
34023W        W93460  44.824  11.370   1.416
34024W        W93461  10.233   6.359   2.684
34025W        W93462  36.895  22.579  13.310
34026W        W93463  10.648  25.177   3.342
34027W        W93464  18.080  40.983  13.401
34028W        W93465  15.650  16.660   0.829
34029W        W93466  43.492  32.906  11.039
34030W        W93467  34.494   7.761   1.844
34031W        W93468  16.605   7.306   3.191
34032W        W93469   5.350  32.517   2.738
34033W        W93470  27.486  29.071  11.056
34034W        W93471  16.101  10.178   2.769
34035W        W93472  43.821  41.823  11.882
34036W        W93473  37.064  11.630  13.975
34037W        W93474   3.286  34.592  12.513
34038W        W93475  31.476  10.269  14.835
34039W        W93476  32.454   2.941   1.250
34040W        W93477  19.165  27.178  10.563
34041W        W93478   4.941  28.168   0.281
34042W        W93479   5.889   4.380   3.353
34043W        W93480  11.861  36.947   0.900
34044W        W93481  37.453  17.633  11.542
34045W        W93482  34.487   4.366  11.041
34046W        W93483  22.185  40.927  11.894
34047W        W93484   6.197   1.927  11.120
34048W        W93485  36.895  41.296   1.330
34049W        W93486  26.966   2.725   0.246
34050W        W93487   0.788  35.497  10.503
34051W        W93488  17.757  33.075  13.468
34052W        W93489  32.590  35.413   3.375
34053W        W93490  11.362  29.978   0.453
34054W        W93491   5.790  32.130  11.126
34055W        W93492  16.076  16.599   2.218
34056W        W93493  13.673  17.782   4.720
34057W        W93494  26.680  29.081  12.379
34058W        W93495  12.788  17.185   2.379
34059W        W93496  28.977  21.673  14.307
34060W        W93497  28.514   6.241   1.893
34061W        W93498  20.212  37.429   0.790
34062W        W93499  26.583  15.309  12.409
34063W        W93500  28.526   6.376  13.387
34064W        W93501  30.630  20.555  11.407
34065W        W93502  38.964  32.976  10.117
34066W        W93503  14.753  20.138  14.324
34067W        W93504  17.299  42.402   3.205
34068W        W93505   9.375  25.020  10.028
34069W        W93506  39.946  16.602   2.673
34070W        W93507  40.012  11.183  13.797
34071W        W93508  32.518  15.717   4.664
34072W        W93509  16.810  15.245  12.395
34073W        W93510  28.485  12.226   4.602
34074W        W93511  40.916  44.487  13.912
34075W        W93512   0.940  10.167  14.800
34076W        W93513  42.909  42.889   2.374
34077W        W93514   8.722  15.810  14.962
34078W        W93515  18.778   8.723  11.926
34079W        W93516  13.707  22.515  11.480
34080W        W93517  12.632  19.232  11.576
34081W        W93518  30.650   9.238   2.339
34082W        W93519  38.440  21.512   4.181
34083W        W93520  25.668  42.024  11.018
34084W        W93521  28.140  25.477  12.863
34085W        W93522  27.959  20.109  13.056
34086W        W93523  27.453   0.780  11.919
34087W        W93524  20.561  23.164  10.629
34088W        W93525  43.315  15.187  10.601
34089W        W93526   1.964  37.082   3.796
34090W        W93527  13.196  42.906   3.834
34091W        W93528  33.542  29.534   4.237
34092W        W93529  13.674  34.035   1.241
34093W        W93530  16.774  12.126  11.866
34094W        W93531  22.640  12.205   2.786
34095W        W93532   6.267  41.969   4.170
34096W        W93533  44.936   9.255  12.447
34097W        W93534   2.287  30.426  10.991
34098W        W93535   0.435   2.372  12.843
34099W        W93536  16.073   5.798   2.691
34100W        W93537  25.667   7.209  12.459
34101W        W93538  14.700   6.860   4.815
34102W        W93539  26.145  35.866  12.473
34103W        W93540   9.153   8.300  12.473
34104W        W93541  14.835  21.018  14.839
34105W        W93542   4.849  23.736   2.868
34106W        W93543   1.394  29.623   1.729
34107W        W93544  41.928  28.187  13.316
34108W        W93545  24.091  30.986  14.465
34109W        W93546  37.482   3.756  11.002
34110W        W93547  42.824  43.432  11.470
34111W        W93548  41.422  27.455   3.782
34112W        W93549  38.356  17.121   2.183
34113W        W93550   8.313  42.319  13.330
34114W        W93551  25.711  14.141  14.305
34115W        W93552   1.429  35.586  10.491
34116W        W93553  35.073   2.246  13.459
34117W        W93554   3.830  38.836   3.223
34118W        W93555  29.424   2.750   1.920
34119W        W93556   4.897  33.103   2.399
34120W        W93557  44.281  20.166  13.439
34121W        W93558  19.697  38.487  13.035
34122W        W93559   0.488  21.663  10.980
34123W        W93560  10.348  20.550   2.332
34124W        W93561  30.077   3.816  14.467
34125W        W93562  25.981  15.750  13.989
34126W        W93563  33.980  11.665   1.367
34127W        W93564   1.257  27.146   4.629
34128W        W93565   4.772  39.468  12.071
34129W        W93566  38.923  44.411  14.849
34130W        W93567  21.754  13.751   1.737
34131W        W93568  14.181  21.600   4.775
34132W        W93569  40.425  42.804   2.811
34133W        W93570  10.233  44.899   3.265
34134W        W93571  38.013  23.028  12.936
34135W        W93572  14.149  10.718  13.379
34136W        W93573   0.788  26.058   4.800
34137W        W93574  20.736  35.458  14.012
34138W        W93575  40.036  32.442  11.956
34139W        W93576  24.540   0.895  10.638
34140W        W93577  21.149  16.125  12.835
34141W        W93578  11.129  24.168  14.390
34142W        W93579  34.954  10.643  13.365
34143W        W93580  43.407   3.340  11.018
34144W        W93581  28.115   8.292  14.337
34145W        W93582   5.369  42.332   3.262
34146W        W93583  38.849  31.135  12.015
34147W        W93584  31.010  40.489   0.949
34148W        W93585  30.927  35.019  12.392
34149W        W93586  34.910  22.057  11.048
34150W        W93587  25.531  40.327   1.784
34151W        W93588  35.525  11.189  10.630
34152W        W93589  38.029  19.101  12.565
34153W        W93590  28.987  35.568  11.076
34154W        W93591  30.077  16.239   2.765
34155W        W93592  42.971  29.657   5.265
34156W        W93593  17.774   7.271   0.836
34157W        W93594  23.082  26.627  13.975
34158W        W93595  23.016  26.580   2.683
34159W        W93596  32.111   6.302  10.953
34160W        W93597  28.502  22.078  10.904
34161W        W93598  12.146   6.295  11.894
34162W        W93599  30.136  31.974   1.920
34163W        W93600   2.247  12.217  13.864
34164W        W93601  41.015   7.909   2.837
34165W        W93602  20.168  32.899  11.960
34166W        W93603  28.540  39.917  13.052
34167W        W93604   4.318  24.625  12.540
34168W        W93605   2.859  11.652  13.037
34169W        W93606   7.792   8.893  14.984
34170W        W93607   7.230  20.107  11.527
34171W        W93608  29.605  34.948   0.870
34172W        W93609  14.722   2.733   4.827
34173W        W93610   4.813  42.377   1.269
34174W        W93611  10.726   7.829  13.390
34175W        W93612  23.066  32.924   3.146
34176W        W93613  17.269   8.673  13.477
34177W        W93614  38.933  44.406  11.557
34178W        W93615   1.452   6.728  14.976
34179W        W93616  35.000  40.798  12.936
34180W        W93617   3.383  10.833  11.996
34181W        W93618  19.153  39.845   9.970
34182W        W93619  21.572   2.909  12.578
34183W        W93620  39.351  25.503   2.319
34184W        W93621  43.881  32.523  11.973
34185W        W93622  39.324  28.572  12.963
34186W        W93623   3.842  12.174   4.165
34187W        W93624  10.773  39.393  13.040
34188W        W93625   1.363  34.104   4.340
34189W        W93626  21.644  20.063   4.295
34190W        W93627  18.264  32.625  11.399
34191W        W93628  40.041   5.262  12.046
34192W        W93629  17.160  11.813  13.875
34193W        W93630   1.950  10.228  12.021
34194W        W93631  27.077  34.909  11.433
34195W        W93632  18.748  44.899   3.815
34196W        W93633  44.423  27.641   4.349
34197W        W93634  12.294  31.405   0.941
34198W        W93635   2.942  44.823  10.888
34199W        W93636   5.757   2.349   4.288
34200W        W93637  28.950  22.658  12.566
34201W        W93638  13.639  29.949   3.805
34202W        W93639  12.764   5.349  13.411
34203W        W93640  10.654  41.537  13.045
34204W        W93641  39.903  43.813  12.547
34205W        W93642  42.027  31.536  12.342
34206W        W93643   8.830  39.047   2.863
34207W        W93644  42.356  20.089  10.946
34208W        W93645   8.794  36.008   3.195
34209W        W93646  28.660  14.599   4.742
34210W        W93647  30.508  32.629  14.964
34211W        W93648  19.177  23.217  13.448
34212W        W93649  12.662  25.679  12.457
34213W        W93650  17.292  10.724  11.014
34214W        W93651  30.015  29.605  13.876
34215W        W93652   3.759   3.942  10.965
34216W        W93653  29.125  10.383   9.542
34217W        W93654  30.561  31.996   1.442
34218W        W93655   5.839  19.578  10.565
34219W        W93656  25.536  37.050  14.974
34220W        W93657  31.474  29.506  13.354
34221W        W93658  11.267  32.921  10.507
34222W        W93659  10.716  26.121   3.830
34223W        W93660  22.006  10.335  13.058
34224W        W93661  17.643  32.041  10.588
34225W        W93662  20.102   5.252   3.352
34226W        W93663  21.252   9.700  14.768
34227W        W93664  15.675  27.462  14.809
34228W        W93665   3.316   4.417  14.860
34229W        W93666  38.830  38.347   2.754
34230W        W93667  35.998  27.608  14.349
34231W        W93668  30.489   0.878   1.276
34232W        W93669  34.068  20.078  13.400
34233W        W93670   8.852  32.952   0.411
34234W        W93671   5.301  34.426   1.312
34235W        W93672  38.862   3.770   1.397
34236W        W93673  29.117  40.421   3.301
34237W        W93674  18.207  44.426  11.915
34238W        W93675  16.156  16.807  14.027
34239W        W93676  31.630   9.344  11.943
34240W        W93677  18.591  11.268  14.437
34241W        W93678  18.227  17.643  10.068
34242W        W93679   9.687  36.587   2.390
34243W        W93680  42.795   5.420  12.424
34244W        W93681  33.408  33.553   4.802
34245W        W93682  36.396  26.986   1.883
34246W        W93683  34.919  32.050   2.759
34247W        W93684  23.502  39.006  14.467
34248W        W93685   3.344  14.152  11.045
34249W        W93686  12.659   8.294   4.789
34250W        W93687   1.433  14.741  10.580
34251W        W93688  10.296  41.429  14.493
34252W        W93689  42.861  27.058   3.364
34253W        W93690  27.002  44.781   2.237
34254W        W93691  14.239   7.364  14.792
34255W        W93692  22.099   8.402   2.677
34256W        W93693  14.206  13.128   2.733
34257W        W93694  25.046   1.472  12.536
34258W        W93695  35.089   1.439   4.648
34259W        W93696  28.461  10.801   9.559
34260W        W93697  30.044  18.123  13.390
34261W        W93698  40.373  28.152   5.128
34262W        W93699   1.448   0.779   1.277
34263W        W93700  20.657  14.228   1.399
34264W        W93701  34.437   8.795   2.297
34265W        W93702   4.451  44.432   4.229
34266W        W93703  18.125   8.691  11.967
34267W        W93704  41.328  10.372   0.441
34268W        W93705  24.070  29.561  12.415
34269W        W93706   3.876  20.266   4.325
34270W        W93707   3.397  17.252   1.278
34271W        W93708  17.801  40.815  13.009
34272W        W93709  23.029  42.016   3.160
34273W        W93710  37.350  11.213   2.302
34274W        W93711  28.011  42.390  13.506
34275W        W93712   8.291  34.463   3.297
34276W        W93713  41.910   0.982  14.025
34277W        W93714   3.953  20.562  10.526
34278W        W93715  13.154  25.553   1.227
34279W        W93716  34.969  43.768  14.959
34280W        W93717  13.677   9.370  12.857
34281W        W93718  14.768   6.759  12.962
34282W        W93719   4.211   4.349  10.470
34283W        W93720  44.806  27.516  13.322
34284W        W93721  44.324  17.667   3.662
34285W        W93722   8.767   1.298   2.749
34286W        W93723  13.777  30.026  13.327
34287W        W93724   0.962   9.732   3.747
34288W        W93725  21.218  41.464   3.805
34289W        W93726   8.663  15.616   9.930
34290W        W93727  30.541  33.559   0.409
34291W        W93728  38.997  29.952   2.667
34292W        W93729  20.711  20.257  12.577
34293W        W93730  10.634  36.484   2.688
34294W        W93731  12.827  19.208   4.755
34295W        W93732   3.852   9.680   1.343
34296W        W93733  12.185  10.296  13.830
34297W        W93734   0.933  38.886  10.951
34298W        W93735  44.782  36.911   1.334
34299W        W93736  24.487  31.095   2.676
34300W        W93737  14.190  43.314  14.955
34301W        W93738  41.936  30.551   4.618
34302W        W93739  28.453  14.627  13.375
34303W        W93740  11.846  21.202  14.325
34304W        W93741  35.003   3.800  11.518
34305W        W93742  22.524  19.223  11.377
34306W        W93743  24.078  36.549  13.383
34307W        W93744  34.898   8.754  10.587
34308W        W93745  22.124   9.838   1.393
34309W        W93746   4.839  26.089  13.008
34310W        W93747  42.513  24.153   1.216
34311W        W93748  13.198  27.978  12.370
34312W        W93749  27.018   5.744   4.257
34313W        W93750  14.191  14.252   3.364
34314W        W93751   4.904  30.036   1.785
34315W        W93752   5.848  33.962  13.989
34316W        W93753   6.280  40.000   0.786
34317W        W93754  28.627  20.660   3.859
34318W        W93755  27.010  17.166   1.450
34319W        W93756  28.674   5.383   0.797
34320W        W93757   0.758  26.677  10.139
34321W        W93758  44.953  24.611   1.309
34322W        W93759  37.382  40.045   1.724
34323W        W93760  30.056  18.185  14.806
34324W        W93761  18.784  31.969  13.836
34325W        W93762  42.793  36.512  14.404
34326W        W93763  23.707  33.507   2.713
34327W        W93764  24.695  29.060   1.711
34328W        W93765  25.657  23.530  14.816
34329W        W93766  16.760  16.172  11.862
34330W        W93767  41.506   7.883  11.571
34331W        W93768  37.453   5.785  14.986
34332W        W93769  32.130  14.294  13.461
34333W        W93770  43.404  35.380  11.892
34334W        W93771  12.198  15.580   3.853
34335W        W93772  13.782  34.904  12.087
34336W        W93773  13.807  25.183  13.944
34337W        W93774  20.707   3.331  12.963
34338W        W93775  29.634  11.760  14.982
34339W        W93776   9.744  23.029   1.701
34340W        W93777   8.199   4.702  11.430
34341W        W93778  25.018  34.118  12.368
34342W        W93779  15.579   3.312  11.051
34343W        W93780  27.130   6.427  11.611
34344W        W93781  39.966  25.198   2.768
34345W        W93782  42.863   7.723   0.482
34346W        W93783   3.409   3.926   4.336
34347W        W93784  20.053  40.997  13.513
34348W        W93785  29.651  24.147  14.854
34349W        W93786  36.967  39.900  12.048
34350W        W93787  36.037  28.470  12.489
34351W        W93788  26.997  17.587   0.931
34352W        W93789  10.378  34.575  10.583
34353W        W93790  29.934  30.565   2.257
34354W        W93791  38.476  21.561  13.057
34355W        W93792  37.483   8.326   4.308
34356W        W93793  24.990  15.173   1.918
34357W        W93794  14.741  11.685  10.565
34358W        W93795  21.681  17.559   3.738
34359W        W93796  38.856  14.304   4.675
34360W        W93797  32.915  31.114  11.476
34361W        W93798  42.309  37.973   0.749
34362W        W93799  18.661  15.177   4.719
34363W        W93800  38.019  18.067  14.338
34364W        W93801   6.223  17.075   0.726
34365W        W93802  25.050  15.729   2.297
34366W        W93803   5.334  25.521   4.629
34367W        W93804  44.433  15.783  10.630
34368W        W93805   7.797  24.678  13.417
34369W        W93806  25.711   2.827  10.925
34370W        W93807  23.569  10.830   0.355
34371W        W93808  25.145  34.473   1.845
34372W        W93809   8.164  25.162   3.157
34373W        W93810  13.211  17.161   2.403
34374W        W93811  22.234  20.219   9.614
34375W        W93812  25.972  43.381   1.896
34376W        W93813  26.203  15.588   4.639
34377W        W93814  30.000   3.761   0.435
34378W        W93815  31.041  10.776  11.856
34379W        W93816  12.281   9.273   2.413
34380W        W93817  39.489  36.968   4.220
34381W        W93818  28.182  13.224   2.800
34382W        W93819  31.132  17.295  11.921
34383W        W93820  28.651   9.281   0.804
34384W        W93821  39.462   7.382   3.837
34385W        W93822  10.797  44.917   0.339
34386W        W93823  29.011  26.140   2.375
34387W        W93824  12.735  23.144   2.890
34388W        W93825  15.218  40.347  12.394
34389W        W93826  44.993  34.023  14.326
34390W        W93827   9.889   3.806  13.866
34391W        W93828  15.116  36.361   0.304
34392W        W93829  14.599  14.185  12.499
34393W        W93830  25.514  43.887   2.200
34394W        W93831  15.592   4.311  13.902
34395W        W93832  43.466   8.294   4.783
34396W        W93833  27.992  32.492  14.827
34397W        W93834  31.065  18.659  11.875
34398W        W93835  42.491   6.767   0.367
34399W        W93836  37.891  39.537   3.258
34400W        W93837  17.664  16.261  14.286
34401W        W93838  11.649  12.663  13.421
34402W        W93839  26.032  32.463  10.588
34403W        W93840  25.979   3.747   3.298
34404W        W93841  11.360  24.722   1.297
34405W        W93842  29.644  22.715  13.919
34406W        W93843  41.530  26.180   4.210
34407W        W93844   7.254  17.149   0.859
34408W        W93845   3.350   2.252  14.423
34409W        W93846  15.263  32.975   1.778
34410W        W93847  28.999   2.433   2.207
34411W        W93848  33.906  11.738   4.351
34412W        W93849  26.620   5.877  11.601
34413W        W93850  43.305  43.940  11.895
34414W        W93851   0.426  13.342  11.056
34415W        W93852  19.694  35.093   0.431
34416W        W93853  33.116   3.873   3.204
34417W        W93854  14.656   9.811   4.149
34418W        W93855  38.944  31.538   0.300
34419W        W93856  16.271  22.536   4.145
34420W        W93857  34.909  37.561  11.113
34421W        W93858  25.479  23.134   4.146
34422W        W93859   8.207  24.720   0.340
34423W        W93860  21.569  20.616   0.324
34424W        W93861  21.124  14.158   0.873
34425W        W93862  25.534  38.011  14.484
34426W        W93863  44.955  21.181   2.773
34427W        W93864   1.741  14.699   0.441
34428W        W93865  17.193  41.858   0.816
34429W        W93866  14.673  10.153  12.580
34430W        W93867  30.458  30.131   0.471
34431W        W93868  19.282   6.369   2.363
34432W        W93869  42.303  12.616  11.506
34433W        W93870  38.017   8.161   2.378
34434W        W93871  16.255   1.972   0.742
34435W        W93872   3.876  17.112  11.450
34436W        W93873  21.652  21.204  13.472
34437W        W93874  43.863  19.749  10.549
34438W        W93875  20.588  28.039  11.036
34439W        W93876  30.615  21.038  14.380
34440W        W93877  22.144  32.923  14.875
34441W        W93878  41.911  12.855  14.998
34442W        W93879   8.855   6.910  12.577
34443W        W93880  18.193   7.225   4.776
34444W        W93881  24.712  34.991   0.734
34445W        W93882   0.411  44.792  13.511
34446W        W93883   7.317   1.768  14.324
34447W        W93884  18.271  25.484  12.379
34448W        W93885  40.843  30.505   3.679
34449W        W93886   4.741  32.519   0.321
34450W        W93887   8.781  40.328   4.115
34451W        W93888  16.717   4.806   2.330
34452W        W93889  29.442   8.695  12.373
34453W        W93890  32.996  22.127  12.031
34454W        W93891   5.883   1.270  11.607
34455W        W93892  37.971  18.645  14.454
34456W        W93893  43.310  33.571  13.011
34457W        W93894  29.122  39.923  10.510
34458W        W93895  43.333  16.109   2.387
34459W        W93896  11.345   3.251  11.923
34460W        W93897  11.737  44.904   2.898
34461W        W93898  29.172  29.173  13.370
34462W        W93899  29.611  19.766  10.432
34463W        W93900   2.394  12.715  13.544
34464W        W93901  12.237   1.474   4.612
34465W        W93902   0.372   5.418  11.481
34466W        W93903  20.628   9.783   1.873
34467W        W93904  35.057  44.940   4.626
34468W        W93905   1.860  28.624  10.914
34469W        W93906  13.343   6.908   3.362
34470W        W93907   2.887  32.089   4.125
34471W        W93908  38.480  28.015  13.518
34472W        W93909   7.902  24.021  11.098
34473W        W93910   5.803   5.844   4.646
34474W        W93911  25.711  35.484   0.381
34475W        W93912   3.391  31.967   1.838
34476W        W93913  41.422  35.089  12.426
34477W        W93914  34.529  26.072   3.648
34478W        W93915  10.239  33.124   4.297
34479W        W93916  33.410   7.729  13.048
34480W        W93917   0.490   0.479   4.627
34481W        W93918  12.784   2.465   2.733
34482W        W93919  36.570  43.457   3.188
34483W        W93920  19.708  34.537  12.017
34484W        W93921  19.690  44.953   1.421
34485W        W93922   2.445  44.464  13.388
34486W        W93923  17.149  23.099  12.833
34487W        W93924   5.870  11.341   2.208
34488W        W93925  40.472  14.340  10.414
34489W        W93926  30.097  24.099  14.453
34490W        W93927  30.586  32.052   2.416
34491W        W93928  43.986   0.915  12.045
34492W        W93929  12.205  21.692   4.806
34493W        W93930  21.116  16.310  14.400
34494W        W93931  15.147  42.523   1.866
34495W        W93932  19.731  11.736  13.513
34496W        W93933  19.127  15.289   3.644
34497W        W93934  16.731  29.136  12.517
34498W        W93935   9.837  18.085   2.803
34499W        W93936  36.446  25.573   1.768
34500W        W93937  30.421   5.332  11.042
34501W        W93938  40.978  39.414  14.402
34502W        W93939  15.213  27.981   0.944
34503W        W93940   9.696  15.226   3.315
34504W        W93941   5.332  24.675   2.737
34505W        W93942  27.009  40.504   1.870
34506W        W93943  21.028  36.479   3.693
34507W        W93944  35.891  25.977  14.802
34508W        W93945   7.308  29.533   3.370
34509W        W93946  10.374   8.689  11.552
34510W        W93947   2.374  24.602  12.875
34511W        W93948  14.615  14.695  13.494
34512W        W93949  23.607   1.929  11.015
34513W        W93950   0.750  23.228  14.786
34514W        W93951  19.689  11.624   0.321
34515W        W93952   4.807  31.104  14.450
34516W        W93953  11.242  15.148   3.721
34517W        W93954  24.488  31.920  10.952
34518W        W93955  22.636  21.527  14.826
34519W        W93956  17.618  24.605   2.398
34520W        W93957  42.885  34.428   2.372
34521W        W93958  31.556   9.301   4.227
34522W        W93959  44.466  33.959   4.837
34523W        W93960   5.895   5.257   2.802
34524W        W93961  31.940  31.016   4.813
34525W        W93962  19.119  28.939   2.403
34526W        W93963   2.930  29.480  11.866
34527W        W93964   1.273  38.844  11.889
34528W        W93965  43.458   4.786  10.015
34529W        W93966   4.410  28.118  12.900
34530W        W93967  22.057  36.032  14.355
34531W        W93968  25.056  23.034  12.862
34532W        W93969  17.236  35.603  12.494
34533W        W93970  36.435   0.458  13.881
34534W        W93971  25.206  12.833   2.884
34535W        W93972  36.547  42.328   4.833
34536W        W93973  40.965  13.738  14.461
34537W        W93974  16.668  39.468  12.351
34538W        W93975  29.024  29.660   0.908
34539W        W93976  36.435   4.890  14.418
34540W        W93977   4.796  39.524   0.428
34541W        W93978  29.601  11.768   2.785
34542W        W93979  23.014  44.970   2.357
34543W        W93980  12.729  40.513  10.411
34544W        W93981   0.253  33.978   1.736
34545W        W93982  26.995  36.397  13.977
34546W        W93983   1.908  40.522   4.186
34547W        W93984  17.786  30.923   2.751
34548W        W93985  27.557  26.962   1.327
34549W        W93986  23.010  14.644   0.275
34550W        W93987  36.426   5.302  12.032
34551W        W93988  13.288  17.302   1.325
34552W        W93989  27.662  21.716   0.941
34553W        W93990   5.368  22.251  12.911
34554W        W93991  41.422  22.684  11.586
34555W        W93992  20.726  18.211  14.811
34556W        W93993  33.497   8.379  11.079
34557W        W93994  32.524   5.776   3.274
34558W        W93995  40.872  41.892  11.044
34559W        W93996  14.678  20.245   0.465
34560W        W93997  18.235  38.871   3.860
34561W        W93998  14.106  16.213  14.939
34562W        W93999  11.224  20.067  14.013
34563W        W94000  26.521  28.435   1.846
34564W        W94001  14.142   6.708  11.439
34565W        W94002  26.162  44.942   3.832
34566W        W94003  43.423  16.081   3.719
34567W        W94004  18.167  28.162  14.919
34568W        W94005   7.687  20.623   3.847
34569W        W94006  26.099  32.412   3.178
34570W        W94007  13.676  29.563   2.375
34571W        W94008  21.712  19.157   4.158
34572W        W94009  15.221  14.698   3.188
34573W        W94010   5.225  32.453   0.779
34574W        W94011  19.699  17.793   3.189
34575W        W94012  19.231  43.860  14.982
34576W        W94013  42.448  17.801  13.321
34577W        W94014  34.409  37.069  14.865
34578W        W94015   0.345  17.563  13.515
34579W        W94016  21.209  29.543  11.594
34580W        W94017   3.920  24.113   3.678
34581W        W94018  44.764  41.441  14.842
34582W        W94019  21.018  17.574   3.774
34583W        W94020  30.419  24.101  11.025
34584W        W94021  38.935  20.108  12.095
34585W        W94022  35.950  35.514   1.708
34586W        W94023  27.493  15.756  11.116
34587W        W94024  37.067  29.510  10.922
34588W        W94025  13.606  15.638   4.769
34589W        W94026  13.716   2.394   3.816
34590W        W94027  28.520  38.386  13.346
34591W        W94028  43.963  10.635  12.016
34592W        W94029  16.199   3.402  11.377
34593W        W94030  27.034   3.368  12.527
34594W        W94031   3.953  28.479  12.957
34595W        W94032  17.643  24.194  12.055
34596W        W94033  26.539   6.918   0.447
34597W        W94034   1.768  34.469  10.136
34598W        W94035   4.410  29.145  13.907
34599W        W94036  38.075  40.312  14.004
34600W        W94037  34.498   0.492  14.850
34601W        W94038  12.654  12.776   1.704
34602W        W94039  25.033   3.248  12.943
34603W        W94040   5.708  21.133  13.328
34604W        W94041  23.522   3.386   0.737
34605W        W94042  22.082   9.685  12.077
34606W        W94043  23.536   3.351   0.323
34607W        W94044   6.387  11.142  11.389
34608W        W94045  41.385  40.929  10.555
34609W        W94046  10.726  36.873   0.310
34610W        W94047  18.566  36.417  10.635
34611W        W94048  42.347  29.535   4.605
34612W        W94049  36.012  20.540   4.314
34613W        W94050  18.062  10.656  14.304
34614W        W94051  17.771  38.569   4.638
34615W        W94052  34.916   6.850  10.644
34616W        W94053  17.197   0.424  11.569
34617W        W94054  31.545  35.905   4.151
34618W        W94055  27.460  16.669  10.561
34619W        W94056  14.279  11.323   0.883
34620W        W94057  22.164  42.786   3.279
34621W        W94058  25.648  16.076   2.808
34622W        W94059  12.642  29.076   4.629
34623W        W94060   8.896   1.949   3.687
34624W        W94061  39.001  39.501  13.987
34625W        W94062  38.465   7.238  11.567
34626W        W94063   9.693   0.254  14.403
34627W        W94064   0.417  20.671  10.641
34628W        W94065   8.666  13.242   3.303
34629W        W94066  17.204   8.719  13.028
34630W        W94067  36.046  26.129   4.735
34631W        W94068  35.901   8.194   2.859
34632W        W94069  38.502  30.105  11.098
34633W        W94070   3.252  40.452   1.849
34634W        W94071  40.393  26.675  13.463
34635W        W94072  35.088  33.605  14.491
34636W        W94073  37.997  15.329  13.917
34637W        W94074  11.856  42.380  11.612
34638W        W94075   6.239  31.027   2.840
34639W        W94076  27.974  35.550  12.952
34640W        W94077  39.917  26.535  12.047
34641W        W94078  24.992  34.102   0.406
34642W        W94079  38.335  30.971  10.483
34643W        W94080  11.812   4.372   4.818
34644W        W94081  30.425   7.807  10.988
34645W        W94082  31.561  35.400   0.839
34646W        W94083  13.117  13.284   3.325
34647W        W94084   1.978  35.407  14.981
34648W        W94085  38.999  43.916  12.432
34649W        W94086   5.348  36.003   4.147
34650W        W94087  13.270   9.701   1.371
34651W        W94088  23.705  21.706  14.286
34652W        W94089  42.920  23.165   2.418
34653W        W94090  38.074   7.280  10.615
34654W        W94091  33.423   7.207   3.320
34655W        W94092  24.057   8.746   1.351
34656W        W94093  36.525   0.362  14.464
34657W        W94094  25.185  43.782   2.263
34658W        W94095   4.259   2.311   3.358
34659W        W94096  12.654  44.975   1.876
34660W        W94097   6.846  30.418  14.362
34661W        W94098  37.851  11.689   0.808
34662W        W94099  25.650  26.695  12.578
34663W        W94100  13.783  25.630  12.952
34664W        W94101  44.862  27.551   4.315
34665W        W94102   4.252   8.715  10.416
34666W        W94103  23.670   0.904   0.351
34667W        W94104  15.084   9.232   3.849
34668W        W94105  16.787  30.132   0.260
34669W        W94106  12.306  25.007   3.253
34670W        W94107  22.185  31.427   1.436
34671W        W94108  32.076   9.742   1.325
34672W        W94109  41.930  43.450   3.760
34673W        W94110  26.702  16.673   0.432
34674W        W94111  42.940  28.172   5.229
34675W        W94112   4.737  27.447  13.357
34676W        W94113   5.930   0.940  10.996
34677W        W94114  27.077  39.907   1.896
34678W        W94115  12.242   9.827  14.475
34679W        W94116   2.920  24.088  14.871
34680W        W94117  39.532  13.268   1.241
34681W        W94118  33.552  33.081  12.409
34682W        W94119  15.686  23.490   9.928
34683W        W94120   7.773   4.760   3.870
34684W        W94121  39.428  37.010   2.850
34685W        W94122  38.920  40.998   3.746
34686W        W94123  37.397  20.189  12.924
34687W        W94124  34.920  12.310   4.780
34688W        W94125   1.923   3.385  14.357
34689W        W94126  34.089  20.726   1.775
34690W        W94127  27.666  15.164   4.650
34691W        W94128  30.555   5.234  12.047
34692W        W94129   3.384  20.596   3.833
34693W        W94130  10.174  25.597   2.318
34694W        W94131  12.656  14.802  10.432
34695W        W94132  35.452   6.716   2.717
34696W        W94133  39.388  28.644   1.825
34697W        W94134   5.885  42.014   2.189
34698W        W94135  27.464  13.173  14.795
34699W        W94136  31.484  15.725   2.824
34700W        W94137  30.039   9.674   2.746
34701W        W94138  13.694  13.743  14.909
34702W        W94139  23.205  25.987  13.915
34703W        W94140   1.360  22.532   2.277
34704W        W94141  19.046  23.510  12.027
34705W        W94142  22.175  21.629  14.291
34706W        W94143  11.832  34.536   4.702
34707W        W94144   5.716   0.438  11.055
34708W        W94145  40.989  16.771  14.983
34709W        W94146  15.686  22.098  11.558
34710W        W94147  40.543  25.470  11.884
34711W        W94148  30.510  29.631  13.497
34712W        W94149   7.217   9.676  11.901
34713W        W94150  18.736  10.650  11.611
34714W        W94151  11.809  13.351  13.498
34715W        W94152  41.012  41.420   4.793
34716W        W94153  41.864   8.288   1.336
34717W        W94154  40.393  44.325  13.906
34718W        W94155  26.056   5.202  12.366
34719W        W94156  30.615  43.399   4.296
34720W        W94157  16.603  20.678   0.280
34721W        W94158  29.126  36.897  12.853
34722W        W94159  32.464  29.150   3.286
34723W        W94160  42.382  40.891   1.262
34724W        W94161  43.492  23.159   1.802
34725W        W94162  40.992  39.867  10.623
34726W        W94163  11.317  38.361   4.144
34727W        W94164  18.229  36.079   3.161
34728W        W94165  32.462  14.301   3.171
34729W        W94166  23.605   3.827   1.848
34730W        W94167   4.728   0.475   1.802
34731W        W94168  19.223  34.114  11.508
34732W        W94169   1.942   0.970   4.628
34733W        W94170   6.187  22.501  14.304
34734W        W94171  31.606  40.824  12.952
34735W        W94172  20.257  18.116   1.437
34736W        W94173  27.961  26.176   1.852
34737W        W94174   8.760  10.764   4.610
34738W        W94175  20.570  42.848  10.567
34739W        W94176  35.409   9.761  10.533
34740W        W94177  12.814  44.767  11.995
34741W        W94178  30.422  22.027  11.425
34742W        W94179   3.314  43.016   2.883
34743W        W94180   8.234  33.381   0.341
34744W        W94181  39.314  19.760   3.738
34745W        W94182  19.641  11.862   2.832
34746W        W94183  41.904  35.889   5.280
34747W        W94184  18.640  34.042  13.963
34748W        W94185  17.594  22.628  10.926
34749W        W94186   3.832  32.493   0.839
34750W        W94187  24.036  34.882   0.953
34751W        W94188  19.611  15.696   1.264
34752W        W94189  10.252  15.244   3.162
34753W        W94190  28.617  36.006  14.879
34754W        W94191  13.664  41.037   2.312
34755W        W94192   5.810  16.724   3.788
34756W        W94193  35.583  40.969  13.795
34757W        W94194  23.494   1.942   3.855
34758W        W94195   7.809  34.047  13.390
34759W        W94196   0.349   5.354   0.733
34760W        W94197  28.932  22.216  12.491
34761W        W94198  43.946   9.752   3.241
34762W        W94199  31.616  32.957   2.730
34763W        W94200  17.793   2.779   3.344
34764W        W94201  41.319  29.433  14.931
34765W        W94202  13.765  11.815   4.701
34766W        W94203  15.785   3.826  12.500
34767W        W94204  27.160  26.479   3.323
34768W        W94205  22.030  42.779   1.428
34769W        W94206  35.058  26.117   2.805
34770W        W94207  26.072  19.253   2.223
34771W        W94208  21.264   8.309  14.998
34772W        W94209  33.577   0.302   3.693
34773W        W94210  17.101   0.292   4.787
34774W        W94211  35.378   3.231   2.863
34775W        W94212  40.037  41.859   0.336
34776W        W94213   2.878  32.626   4.226
34777W        W94214   8.383  14.120  13.425
34778W        W94215  41.386  16.640   1.744
34779W        W94216   4.242  44.269  10.514
34780W        W94217   0.853  35.887   0.327
34781W        W94218   3.217  44.422  13.316
34782W        W94219  22.519  31.078   4.209
34783W        W94220  43.309  20.191  13.388
34784W        W94221   2.439  37.502  14.504
34785W        W94222  35.874  33.083  12.462
34786W        W94223  19.249  37.975  13.536
34787W        W94224   8.204  26.563  12.538
34788W        W94225  32.913  10.754  14.382
34789W        W94226  23.566  10.870  14.032
34790W        W94227  11.274  40.829  10.888
34791W        W94228  36.456   0.848  12.445
34792W        W94229  10.707   5.858  12.506
34793W        W94230   4.227  35.546   2.897
34794W        W94231  10.269  37.569  11.076
34795W        W94232   9.395  28.098  10.891
34796W        W94233   6.816  18.198   1.301
34797W        W94234  14.304  44.874   2.677
34798W        W94235  30.638   0.746   2.197
34799W        W94236  11.823  20.750  10.427
34800W        W94237  25.102  42.810   2.848
34801W        W94238   7.844  32.055   2.827
34802W        W94239  15.124  13.109  10.947
34803W        W94240  13.275  18.085  13.868
34804W        W94241   8.318  30.478  11.570
34805W        W94242  44.003   7.347   4.223
34806W        W94243   2.313   0.907   3.710
34807W        W94244  23.191   5.374   4.813
34808W        W94245   4.404  23.674   1.737
34809W        W94246  34.521  14.253  14.763
34810W        W94247  39.543  31.409  13.518
34811W        W94248  13.183  41.846   1.299
34812W        W94249  17.785  34.457   2.784
34813W        W94250  13.233  30.019  14.876
34814W        W94251  23.675  32.519  12.479
34815W        W94252  31.050   8.767  10.052
34816W        W94253  10.140  11.233  12.074
34817W        W94254  17.585  35.854  11.482
34818W        W94255  13.179  39.434  14.407
34819W        W94256  29.582  37.412   5.234
34820W        W94257  10.636   4.853  11.896
34821W        W94258  30.571  36.526  11.861
34822W        W94259  18.701   9.655  14.327
34823W        W94260  44.329  12.119   0.430
34824W        W94261  16.153  39.416  12.022
34825W        W94262  25.694  11.681   1.730
34826W        W94263  10.637  39.412  14.774
34827W        W94264  44.758   3.374  10.097
34828W        W94265   8.766   9.645   4.684
34829W        W94266  42.466  37.086   2.898
34830W        W94267   6.915  40.828   0.283
34831W        W94268  44.322  13.119  12.451
34832W        W94269  33.497  43.991   4.803
34833W        W94270   9.816  20.704  10.910
34834W        W94271  26.040  32.421   3.854
34835W        W94272  24.194   9.290  11.924
34836W        W94273   4.918  22.621   3.796
34837W        W94274  39.010   3.778   2.357
34838W        W94275  21.757  31.119   1.821
34839W        W94276  19.207  29.650   4.670
34840W        W94277  35.448  40.315  10.438
34841W        W94278  36.424   5.272  13.040
34842W        W94279  16.315  13.204  13.902
34843W        W94280   8.729   3.351  10.977
34844W        W94281   3.405   2.963  11.429
34845W        W94282   4.294  28.065   1.727
34846W        W94283  30.516  40.820   3.277
34847W        W94284   2.864  33.503  14.378
34848W        W94285  37.856  36.420  10.912
34849W        W94286  32.432   3.725  11.862
34850W        W94287  43.982  16.133  10.058
34851W        W94288  13.642  33.586  11.867
34852W        W94289  16.251  30.942  10.895
34853W        W94290  35.989  41.388   4.761
34854W        W94291  25.147  24.648  11.394
34855W        W94292  43.471  10.864   3.709
34856W        W94293  24.057   2.797   0.777
34857W        W94294  30.524  11.317   0.903
34858W        W94295  19.169  11.203   0.864
34859W        W94296  33.493  16.629  11.510
34860W        W94297  44.802  18.684   2.884
34861W        W94298  24.150   0.255  11.886
34862W        W94299  35.024  44.305   4.698
34863W        W94300   0.862  12.279   0.960
34864W        W94301   5.902  36.027  14.005
34865W        W94302   2.397   3.790   1.349
34866W        W94303  41.930  18.683   4.279
34867W        W94304  12.274   7.233  11.877
34868W        W94305  18.127  19.568   0.788
34869W        W94306  18.079  28.528  10.938
34870W        W94307  24.145  31.409  12.505
34871W        W94308  14.186  40.821   5.677
34872W        W94309  35.869  44.330   1.820
34873W        W94310   0.275  39.399   2.672
34874W        W94311   7.174  29.926  10.642
34875W        W94312   7.756  10.217   1.273
34876W        W94313   2.829  37.968  10.623
34877W        W94314  28.123  40.888  11.879
34878W        W94315  28.067  12.775   1.905
34879W        W94316   1.932  36.402   1.347
34880W        W94317  23.059  13.132   1.436
34881W        W94318   8.244  12.662  14.973
34882W        W94319  14.667  18.232  14.775
34883W        W94320  16.153  41.957  14.892
34884W        W94321  25.093   1.839  11.962
34885W        W94322  13.162  11.661   2.736
34886W        W94323   3.282  21.172   1.744
34887W        W94324  26.573  32.040  13.809
34888W        W94325  14.263  39.813   5.197
34889W        W94326  44.349   9.808  10.095
34890W        W94327  32.434  16.081   4.163
34891W        W94328   2.787  17.618  11.419
34892W        W94329  38.028   5.417   3.220
34893W        W94330  35.370  16.159  11.605
34894W        W94331  23.181  20.662  10.907
34895W        W94332  29.642  17.774  10.587
34896W        W94333  22.175  29.920  11.544
34897W        W94334  29.009  35.025  10.945
34898W        W94335  32.622  37.023  12.353
34899W        W94336   1.861  36.018  14.313
34900W        W94337  17.599  42.520   2.806
34901W        W94338  21.562  28.969  12.579
34902W        W94339  36.359  32.972  12.009
34903W        W94340  44.395  13.652   3.640
34904W        W94341  11.213  39.512  12.830
34905W        W94342  42.784  10.211  12.569
34906W        W94343  38.428   1.787  11.982
34907W        W94344   8.168  30.468   2.750
34908W        W94345  27.051  15.801  13.399
34909W        W94346   7.669  44.266  12.383
34910W        W94347  17.065  26.571  11.863
34911W        W94348  31.602  28.575  13.859
34912W        W94349   8.209  30.494  11.938
34913W        W94350  28.160  37.078  11.480
34914W        W94351  41.308   3.863  11.962
34915W        W94352  17.191  34.904   3.339
34916W        W94353  34.387  21.152   1.273
34917W        W94354  21.514   6.195  13.371
34918W        W94355  33.396  40.868  12.455
34919W        W94356  18.140  32.888   3.187
34920W        W94357  16.159   2.272  14.325
34921W        W94358  19.079  34.529   1.249
34922W        W94359   7.811  14.650   4.245
34923W        W94360   5.291   2.271  14.979
34924W        W94361   5.742  27.977   3.291
34925W        W94362   8.261   3.354  11.893
34926W        W94363  10.749  18.767  13.016
34927W        W94364  38.493  16.293   1.814
34928W        W94365  40.502  44.929  10.918
34929W        W94366  11.155  24.615   1.932
34930W        W94367  14.707  43.923   5.693
34931W        W94368  39.317  10.204  13.004
34932W        W94369  10.707  25.980  11.045
34933W        W94370  36.434  16.254   4.646
34934W        W94371   0.322   8.173  13.866
34935W        W94372  27.661  18.140   3.871
34936W        W94373   7.188  25.643   2.662
34937W        W94374   5.888  27.507   3.747
34938W        W94375   8.800  24.128   4.757
34939W        W94376   9.697  29.544   2.814
34940W        W94377  12.852  43.841  14.381
34941W        W94378  11.819  44.830   1.446
34942W        W94379  29.027  14.239   3.259
34943W        W94380  27.179   8.690   0.276
34944W        W94381  12.292  27.074  10.569
34945W        W94382  30.641  34.072   4.787
34946W        W94383   8.680  43.272  13.345
34947W        W94384  20.236  36.844   2.379
34948W        W94385  10.157  32.417  14.994
34949W        W94386  26.661  36.000   4.324
34950W        W94387  16.302  26.203  14.437
34951W        W94388  37.863  14.810  15.000
34952W        W94389  37.917   6.295  14.807
34953W        W94390   7.177  23.629  13.314
34954W        W94391  43.931  13.710   0.262
34955W        W94392  29.533  16.257  14.333
34956W        W94393  30.542  15.146   3.331
34957W        W94394   0.885  33.955  14.448
34958W        W94395  17.706  19.284   4.201
34959W        W94396  10.848  21.194  11.113
34960W        W94397  44.869  35.052   4.196
34961W        W94398  29.451  35.869   5.254
34962W        W94399   1.964  19.201   4.816
34963W        W94400   4.391   9.285   2.807
34964W        W94401  29.447  30.459  11.923
34965W        W94402   1.271   7.724   3.336
34966W        W94403  38.076  15.244  12.553
34967W        W94404  33.965  12.638  12.511
34968W        W94405  36.909  34.611  13.439
34969W        W94406   0.447  32.013  14.900
34970W        W94407   8.727  13.209  11.372
34971W        W94408  32.529  27.969  10.044
34972W        W94409  31.920  26.151  14.492
34973W        W94410  11.246  39.017   3.722
34974W        W94411  24.199  37.076   0.943
34975W        W94412  31.021  30.459   2.262
34976W        W94413  30.089  44.955  12.025
34977W        W94414  12.689  16.569  13.023
34978W        W94415  35.530  44.824  12.565
34979W        W94416  10.675   3.279  11.446
34980W        W94417   4.363  41.476  13.311
34981W        W94418  23.052   0.494  11.967
34982W        W94419  10.686  13.702   2.344
34983W        W94420  31.586  32.595   1.704
34984W        W94421   4.783  30.019  14.769
34985W        W94422  36.855  43.282  10.464
34986W        W94423  11.228  18.727   4.630
34987W        W94424  40.304  23.733  12.528
34988W        W94425  32.512  39.031   1.926
34989W        W94426  21.687  31.529   0.311
34990W        W94427  31.047   6.285   2.387
34991W        W94428  17.673  21.022   3.661
34992W        W94429  39.846   0.845  10.564
34993W        W94430  41.423  37.537  12.914
34994W        W94431   1.276  43.785   1.362
34995W        W94432  36.924  19.710  14.887
34996W        W94433  26.662  32.062   0.917
34997W        W94434  30.101  32.449  13.515
34998W        W94435  27.640  40.467  12.570
34999W        W94436  44.325  10.327   2.881
35000W        W94437  34.086  27.578  14.829
35001W        W94438  40.928  12.181  14.791
35002W        W94439  36.860  20.543   3.718
35003W        W94440  14.221   6.714   0.317
35004W        W94441  32.564  23.675   0.286
35005W        W94442  18.152  32.443  14.801
35006W        W94443   9.267  14.641  14.370
35007W        W94444  18.601  21.227  10.537
35008W        W94445  38.986  33.068  13.932
35009W        W94446  32.430  37.908   2.364
35010W        W94447  15.596  16.138  12.523
35011W        W94448   1.312  33.994  14.317
35012W        W94449   8.210   2.366  12.830
35013W        W94450  40.539  28.986  12.073
35014W        W94451  34.998  39.883  14.356
35015W        W94452  42.904  35.025  11.923
35016W        W94453  34.581  12.787   4.249
35017W        W94454  44.970  13.185   2.399
35018W        W94455  10.146  44.282   0.755
35019W        W94456  12.263  19.055  14.985
35020W        W94457  31.147  16.577   2.749
35021W        W94458  34.074   8.334  13.844
35022W        W94459   9.190  36.995  12.349
35023W        W94460  44.365   4.730   3.349
35024W        W94461   2.243  37.344   4.334
35025W        W94462  20.223  39.341   1.893
35026W        W94463   2.918  18.678   1.280
35027W        W94464  44.464  17.180  12.558
35028W        W94465  42.460   9.323  11.879
35029W        W94466  23.110   8.248   0.788
35030W        W94467   8.339  16.597   3.309
35031W        W94468  19.594  34.414  12.444
35032W        W94469  40.393  35.106  13.374
35033W        W94470  12.151  11.803   1.771
35034W        W94471  44.295  41.361  10.977
35035W        W94472  24.688  33.583   4.728
35036W        W94473  44.291  36.070   4.782
35037W        W94474  25.186   1.393  14.017
35038W        W94475   3.251  42.316   4.304
35039W        W94476  31.492  41.347  14.785
35040W        W94477   3.839  44.461   4.280
35041W        W94478  41.032  24.715   2.857
35042W        W94479  32.466  37.931  11.058
35043W        W94480   3.782  20.704   0.776
35044W        W94481   1.966   0.951   1.701
35045W        W94482  23.498  16.760   0.826
35046W        W94483   7.406  30.972   3.806
35047W        W94484  34.538  27.105   3.741
35048W        W94485  36.523   5.802   4.156
35049W        W94486  25.596  43.965   4.274
35050W        W94487   4.914  30.612  14.858
35051W        W94488  17.226  28.484  14.861
35052W        W94489   9.729  41.414  13.845
35053W        W94490  33.530  42.505  13.516
35054W        W94491  25.690  20.649   4.794
35055W        W94492   9.839  38.541   4.130
35056W        W94493  33.452  24.014   3.833
35057W        W94494  42.009  18.175   4.221
35058W        W94495   5.286  23.521   0.775
35059W        W94496  24.984  23.026   0.265
35060W        W94497   6.410  10.295  10.501
35061W        W94498   2.448  28.178  11.462
35062W        W94499  37.935  12.843  11.104
35063W        W94500  20.748  30.607   4.299
35064W        W94501  34.499  24.523   1.296
35065W        W94502  37.484  38.552  12.980
35066W        W94503  23.199  13.660   4.150
35067W        W94504  33.995  43.821  14.851
35068W        W94505  32.620  29.660   4.286
35069W        W94506   7.724  23.613  13.335
35070W        W94507  11.858  25.535   2.276
35071W        W94508  20.156  27.033   2.414
35072W        W94509  26.583   0.284  10.085
35073W        W94510  34.029  43.969   1.261
35074W        W94511  36.527  40.343  10.021
35075W        W94512  38.471  11.362  11.391
35076W        W94513  21.102  23.632   0.891
35077W        W94514  31.407  32.596   0.444
35078W        W94515  23.672  32.138   1.840
35079W        W94516   2.236  17.239   2.280
35080W        W94517  39.521  43.912  13.809
35081W        W94518  44.350  10.648   0.730
35082W        W94519  12.226  36.086  12.999
35083W        W94520  22.012   3.742   0.390
35084W        W94521  35.898  20.627  10.490
35085W        W94522   5.913  19.110   2.680
35086W        W94523  28.659  20.545  12.509
35087W        W94524  18.560   7.704   2.291
35088W        W94525  17.120  44.978   5.571
35089W        W94526  12.731  18.665   3.794
35090W        W94527   4.751  38.382  13.364
35091W        W94528  42.424  41.325   3.296
35092W        W94529  12.245  35.572  10.990
35093W        W94530  27.526  26.028   1.382
35094W        W94531  40.923  30.952   1.280
35095W        W94532  11.290   2.889   3.830
35096W        W94533  34.465  42.482  14.365
35097W        W94534  31.597  36.897   0.333
35098W        W94535   5.744  41.890  14.369
35099W        W94536  16.680   5.406   0.802
35100W        W94537  44.496  13.116  13.008
35101W        W94538  26.073  17.764  14.315
35102W        W94539  37.361  33.896   0.889
35103W        W94540  31.040  15.185  12.054
35104W        W94541  36.965  33.887  12.082
35105W        W94542  11.285   0.780  11.411
35106W        W94543  25.638  31.961  13.796
35107W        W94544  12.767  13.268  11.611
35108W        W94545  18.260   2.276   2.739
35109W        W94546  12.209  27.964  14.998
35110W        W94547  16.269  10.237  12.406
35111W        W94548  27.646   6.209  11.046
35112W        W94549   4.435  21.042  14.326
35113W        W94550  29.968  25.599   3.148
35114W        W94551  17.215  24.102   0.307
35115W        W94552  38.549   1.961  12.870
35116W        W94553  28.654  29.571  10.960
35117W        W94554   1.920  32.603  11.945
35118W        W94555  31.124   2.848   3.149
35119W        W94556  13.199   1.279  10.573
35120W        W94557  14.189   9.844   1.865
35121W        W94558  37.450  25.686   0.273
35122W        W94559   0.872  30.648  13.945
35123W        W94560   0.899  38.944   1.926
35124W        W94561   2.814  29.557   3.183
35125W        W94562  30.471  22.220  10.048
35126W        W94563  17.666  16.262   2.888
35127W        W94564  26.104  22.114  13.520
35128W        W94565  37.570  32.043   5.260
35129W        W94566  34.562  35.408   2.716
35130W        W94567  41.448  42.948   1.293
35131W        W94568  34.966   1.893  14.286
35132W        W94569  18.549  25.655  12.860
35133W        W94570   5.815   9.165   4.671
35134W        W94571  40.016  34.041   1.278
35135W        W94572  26.666  19.701   3.863
35136W        W94573  19.669  34.958   5.240
35137W        W94574  39.984  16.197  11.467
35138W        W94575  43.970  36.577   2.379
35139W        W94576  10.352  18.672   4.348
35140W        W94577  17.801  27.177  14.330
35141W        W94578  16.739   2.466  13.026
35142W        W94579  26.563  41.464  10.001
35143W        W94580   0.861  35.516   3.184
35144W        W94581  10.138   7.696  12.422
35145W        W94582  35.904  13.339  14.817
35146W        W94583  29.974  43.382  13.960
35147W        W94584  37.974   5.854  13.038
35148W        W94585   0.799  44.319  14.326
35149W        W94586  39.535  35.859   3.780
35150W        W94587  15.151   4.207   4.814
35151W        W94588   0.310  26.698   4.621
35152W        W94589  28.132  24.011   1.750
35153W        W94590  11.670  40.378   1.412
35154W        W94591   3.369  24.182   3.333
35155W        W94592  15.815  43.355  11.986
35156W        W94593  12.357  29.586   4.656
35157W        W94594  41.364   7.669   5.196
35158W        W94595  19.680  19.218  12.567
35159W        W94596  38.512  32.029   4.191
35160W        W94597  20.123  15.170  14.937
35161W        W94598  14.287  12.303  10.900
35162W        W94599  21.179  17.098  10.026
35163W        W94600  43.823  19.157  11.937
35164W        W94601  22.666   8.748   5.166
35165W        W94602  43.462  15.686   4.137
35166W        W94603  33.934  34.478  10.889
35167W        W94604  10.257  39.349  13.516
35168W        W94605  31.576  22.122  11.430
35169W        W94606  33.567   5.900  11.386
35170W        W94607  21.110  24.531   2.759
35171W        W94608  32.463  13.325   4.133
35172W        W94609  12.829   6.814  13.009
35173W        W94610   8.398  15.173   0.337
35174W        W94611  30.048  14.255  10.516
35175W        W94612  40.013  18.273   3.171
35176W        W94613  24.029  44.390  13.454
35177W        W94614  22.529  38.016  13.994
35178W        W94615  14.140  12.685  14.998
35179W        W94616  24.713   8.699  12.827
35180W        W94617  10.248  18.788   2.323
35181W        W94618  15.715  10.320  11.086
35182W        W94619  14.261  34.511  14.490
35183W        W94620   1.961  27.478  10.981
35184W        W94621  12.751   4.360   4.658
35185W        W94622  42.499  16.193  14.461
35186W        W94623  33.957  33.440  11.448
35187W        W94624  28.945  15.183  11.582
35188W        W94625  43.475  14.338   1.935
35189W        W94626  43.359  17.098  10.585
35190W        W94627   2.353  33.932   4.218
35191W        W94628  10.783  15.692  10.003
35192W        W94629  18.160   7.889  12.563
35193W        W94630   5.195  19.106  12.847
35194W        W94631  30.092  13.199   4.732
35195W        W94632  27.988   6.278  11.442
35196W        W94633  26.977  14.635  10.119
35197W        W94634   1.833  13.342   4.763
35198W        W94635  38.439  43.448   2.231
35199W        W94636   2.387  38.424   1.913
35200W        W94637  12.168  44.763   0.782
35201W        W94638  43.485   7.367   3.308
35202W        W94639  14.313  28.951   4.134
35203W        W94640  26.536  30.114  14.837
35204W        W94641  16.185  14.297   1.834
35205W        W94642  24.019   6.820   3.785
35206W        W94643  31.011  20.631   2.316
35207W        W94644  35.092   7.295   2.308
35208W        W94645  29.975   4.444   2.850
35209W        W94646   2.818  23.985   4.118
35210W        W94647  38.976  32.100  11.046
35211W        W94648  14.669   4.408  11.930
35212W        W94649  42.346  23.046  11.863
35213W        W94650  25.968  16.682   1.388
35214W        W94651  36.978  18.767   3.277
35215W        W94652  22.662  22.695   1.717
35216W        W94653  24.142  17.154  13.030
35217W        W94654  43.807  38.012   3.234
35218W        W94655   5.906  11.793  11.860
35219W        W94656  40.523  36.466  11.033
35220W        W94657  40.840  36.044  10.139
35221W        W94658   0.784  14.328   2.296
35222W        W94659  28.055  20.086   3.271
35223W        W94660  30.565  11.757   2.366
35224W        W94661  36.979  22.651  13.827
35225W        W94662   7.883   1.437  12.978
35226W        W94663  44.886  14.157   4.687
35227W        W94664  10.148  33.532   3.777
35228W        W94665   6.303  40.466   3.855
35229W        W94666  28.937   7.890   3.359
35230W        W94667   7.874  36.533  14.458
35231W        W94668  32.096   2.251  11.433
35232W        W94669  36.582   6.423  13.043
35233W        W94670  23.586  33.113  11.447
35234W        W94671  28.609   5.331   3.761
35235W        W94672  39.377   8.289  12.523
35236W        W94673  14.223  23.074  12.376
35237W        W94674  41.798  19.040  12.558
35238W        W94675  43.482  39.952  13.003
35239W        W94676  37.047   2.250   4.763
35240W        W94677   4.767  30.633   0.335
35241W        W94678   8.382  38.508   3.235
35242W        W94679  26.180  42.327   4.284
35243W        W94680  35.025  22.747   0.844
35244W        W94681  33.086  10.236   0.316
35245W        W94682  15.123  43.474  12.095
35246W        W94683   1.429  23.533  14.465
35247W        W94684   3.298  44.268  14.031
35248W        W94685  35.013  34.456   5.123
35249W        W94686  35.575  10.683  12.823
35250W        W94687  24.680  16.583   3.168
35251W        W94688  36.946  13.752   0.881
35252W        W94689  17.222  42.816  12.540
35253W        W94690  31.553  13.750   1.752
35254W        W94691  31.584   7.847   3.200
35255W        W94692  29.521   0.436   3.301
35256W        W94693   3.870   6.866  13.351
35257W        W94694  40.451   6.752  12.001
35258W        W94695   0.441  25.974  10.411
35259W        W94696  32.418  35.873   3.845
35260W        W94697  24.516   1.273   2.252
35261W        W94698  44.500  10.841  12.989
35262W        W94699  22.206   3.325   4.639
35263W        W94700  36.491   1.958   9.971
35264W        W94701  15.096  17.249   3.684
35265W        W94702  18.657  22.059   4.199
35266W        W94703  42.335  40.832   2.859
35267W        W94704  35.034  12.618   2.688
35268W        W94705  36.592  39.906   1.740
35269W        W94706  37.411  10.369  10.574
35270W        W94707  26.002  25.977   4.784
35271W        W94708  37.345  21.604  13.928
35272W        W94709   4.381  41.430   3.639
35273W        W94710  11.343  18.770   3.699
35274W        W94711  32.978  36.969   2.767
35275W        W94712  18.670  21.166  13.926
35276W        W94713   4.221  25.019  10.137
35277W        W94714  26.051  37.947  14.886
35278W        W94715   2.252  32.920  13.401
35279W        W94716   7.730  38.014   3.712
35280W        W94717  43.921  38.378  11.390
35281W        W94718   1.390  36.491   5.794
35282W        W94719  39.448   6.852   0.847
35283W        W94720  12.846  22.605  12.456
35284W        W94721  44.915  14.633   4.290
35285W        W94722  24.512  13.773  13.825
35286W        W94723  21.529  21.528  14.022
35287W        W94724  17.186  29.515  11.482
35288W        W94725  17.266  32.531  11.483
35289W        W94726  10.216  44.911  11.432
35290W        W94727   0.828   2.425   0.752
35291W        W94728  23.681  13.740   1.874
35292W        W94729   3.263  16.622   4.191
35293W        W94730  39.997   1.802   2.726
35294W        W94731  35.428   5.356   1.225
35295W        W94732  31.144  34.478   0.434
35296W        W94733  13.324  20.223  11.588
35297W        W94734  32.968  43.795   3.166
35298W        W94735  31.967   9.331  12.838
35299W        W94736  17.746  17.609   3.849
35300W        W94737  39.322   0.848   3.686
35301W        W94738  43.327  34.118   0.847
35302W        W94739  36.056   3.314   1.707
35303W        W94740   3.841  25.185  12.925
35304W        W94741  11.688  21.523   2.273
35305W        W94742   0.932  14.768   1.450
35306W        W94743  34.022   9.169  12.347
35307W        W94744  11.131  40.510   4.645
35308W        W94745  15.695  24.589   1.399
35309W        W94746  21.082  25.036   0.853
35310W        W94747  40.426  14.747   1.923
35311W        W94748  15.816  42.454  12.992
35312W        W94749  38.460  35.469   3.177
35313W        W94750   0.882  43.364   0.447
35314W        W94751  40.416   6.703  11.468
35315W        W94752   8.870  16.142  12.431
35316W        W94753  25.963  18.766   0.448
35317W        W94754  37.354  41.882   3.375
35318W        W94755   5.234  42.439   3.762
35319W        W94756   0.270  15.580   2.252
35320W        W94757  21.654  42.878  13.316
35321W        W94758   3.298  17.103  10.470
35322W        W94759  38.856  40.332   2.674
35323W        W94760  40.026  14.790   0.405
35324W        W94761  29.502  27.474  11.045
35325W        W94762  14.764  39.980   5.577
35326W        W94763  43.815   3.254  13.479
35327W        W94764   7.171   7.770  10.489
35328W        W94765   3.336   1.861   0.930
35329W        W94766   4.346  31.517  13.548
35330W        W94767  33.966  19.704   4.335
35331W        W94768  39.401  10.152   1.750
35332W        W94769  36.420  42.380  14.977
35333W        W94770  22.033  10.220   1.914
35334W        W94771  12.799  42.492  14.351
35335W        W94772   8.335  42.317   2.332
35336W        W94773  25.510  27.096  14.840
35337W        W94774  11.157  32.953  10.898
35338W        W94775  15.217  33.491  11.067
35339W        W94776  14.656  15.790  12.521
35340W        W94777  38.406  19.641  11.422
35341W        W94778  12.700  28.491  11.027
35342W        W94779  17.136  34.881   0.402
35343W        W94780  42.863  13.324  12.892
35344W        W94781  34.112  11.768  13.327
35345W        W94782  38.992  44.881   2.304
35346W        W94783  26.479   3.437  14.786
35347W        W94784   1.310  28.467   2.418
35348W        W94785   5.734   7.221   1.806
35349W        W94786   1.806  41.943  10.453
35350W        W94787  14.830  33.395   2.820
35351W        W94788  20.698  22.037   5.098
35352W        W94789  39.357  28.434  14.371
35353W        W94790   9.820  31.407  12.515
35354W        W94791  36.888  38.349   5.141
35355W        W94792  30.627  16.603  11.444
35356W        W94793  40.932  31.025   2.681
35357W        W94794  26.673  32.540  11.454
35358W        W94795   4.930  33.029  14.346
35359W        W94796  44.782  20.703   2.283
35360W        W94797   6.266  28.977   3.704
35361W        W94798  19.216  35.019   0.296
35362W        W94799  19.096  24.159   0.729
35363W        W94800  29.576  33.037  13.336
35364W        W94801   2.431  12.674  14.339
35365W        W94802  42.366   6.270   3.782
35366W        W94803  41.002   9.381   2.264
35367W        W94804  32.428  21.171   0.422
35368W        W94805  23.121  22.164  11.522
35369W        W94806  31.407  31.909  10.478
35370W        W94807   9.700  11.308   2.234
35371W        W94808  41.527  38.822  13.062
35372W        W94809  31.566  22.027  10.907
35373W        W94810  15.162   4.898   0.483
35374W        W94811  17.226   0.811   1.835
35375W        W94812   3.259  36.576   3.176
35376W        W94813  36.945   4.944  12.521
35377W        W94814  15.690  22.675   4.289
35378W        W94815  31.439  22.042  12.960
35379W        W94816  33.571  37.412   4.770
35380W        W94817  42.887   9.747   2.196
35381W        W94818  18.101  42.341  13.443
35382W        W94819  44.366  39.394  12.382
35383W        W94820  37.977  41.314   5.085
35384W        W94821  40.382  40.529  10.438
35385W        W94822  27.601  39.051  13.877
35386W        W94823  41.038  28.462   0.856
35387W        W94824  33.509  22.221   2.312
35388W        W94825   9.232   9.668  14.387
35389W        W94826  17.580  14.126   0.831
35390W        W94827   6.714  20.066  12.556
35391W        W94828  14.754  33.923  11.413
35392W        W94829   6.799  31.602   1.716
35393W        W94830  44.341  30.025  10.899
35394W        W94831   4.808  25.495   1.891
35395W        W94832  18.196  26.543   3.365
35396W        W94833  40.530  15.759  11.489
35397W        W94834   1.786  37.490   2.265
35398W        W94835   6.889   7.736  11.889
35399W        W94836   5.405  15.131   3.709
35400W        W94837  32.491   9.810   3.252
35401W        W94838  14.214  40.500  12.473
35402W        W94839   1.294  29.952  12.951
35403W        W94840  33.061  17.288   2.808
35404W        W94841  35.490  35.364   2.212
35405W        W94842  21.642  16.603   3.739
35406W        W94843  20.140  36.009  13.017
35407W        W94844  17.660  23.516  13.839
35408W        W94845  11.759  15.327  12.517
35409W        W94846   0.329  22.171  13.897
35410W        W94847  15.736  22.077   4.352
35411W        W94848  26.695  41.813  14.299
35412W        W94849  37.048   5.905  10.577
35413W        W94850  41.892   5.774  14.840
35414W        W94851  44.320  16.252   3.340
35415W        W94852  18.056  27.144   4.323
35416W        W94853  28.507  21.739   1.261
35417W        W94854  27.980  27.662   4.712
35418W        W94855  34.973  11.792  12.013
35419W        W94856  44.492   4.881  13.021
35420W        W94857   6.701  44.792  13.012
35421W        W94858  41.408  41.297  11.440
35422W        W94859  11.787  24.552   1.716
35423W        W94860   8.895  28.564  10.548
35424W        W94861  34.467  43.356  12.369
35425W        W94862   5.704   4.258   1.323
35426W        W94863  40.030   7.741  12.965
35427W        W94864  39.363  32.964  12.399
35428W        W94865  18.145  24.721   1.724
35429W        W94866  40.423  31.559  12.356
35430W        W94867  36.963  42.322   1.226
35431W        W94868  27.961  15.277   2.830
35432W        W94869  24.017  42.777  12.890
35433W        W94870  21.553  21.225   4.612
35434W        W94871  40.333  26.989  13.876
35435W        W94872  39.981   8.701   1.782
35436W        W94873  20.634  13.316   2.783
35437W        W94874  35.468  29.063  12.950
35438W        W94875  32.079   3.367  10.916
35439W        W94876  29.095   3.341  12.066
35440W        W94877   8.405  43.790   0.809
35441W        W94878  32.406  31.495  13.948
35442W        W94879   6.222   4.742   0.310
35443W        W94880   2.432   2.311   2.205
35444W        W94881  36.892   3.738   3.230
35445W        W94882  23.042   4.328  12.905
35446W        W94883  21.056  18.189  11.056
35447W        W94884   6.318  32.414  13.942
35448W        W94885  39.882   4.388   1.393
35449W        W94886  13.667  14.829   2.207
35450W        W94887  22.226  24.992   1.737
35451W        W94888  20.584  22.143   2.696
35452W        W94889  32.103   9.841   3.177
35453W        W94890   9.379  36.073   0.338
35454W        W94891  33.090  38.382   1.265
35455W        W94892  16.077  18.567   1.327
35456W        W94893  34.486   4.335   1.803
35457W        W94894   4.853  10.743   2.737
35458W        W94895  19.683   6.835  13.441
35459W        W94896   3.954  28.555   3.841
35460W        W94897  32.401  34.000   1.879
35461W        W94898   1.323   1.805  14.792
35462W        W94899   6.885   9.767   3.744
35463W        W94900  21.148   9.267  11.916
35464W        W94901  41.995   1.397  14.939
35465W        W94902  15.097  39.385   5.693
35466W        W94903  38.828   7.338  13.534
35467W        W94904  16.265  21.154   3.833
35468W        W94905  10.242   2.416   4.344
35469W        W94906  38.528  19.631   2.690
35470W        W94907   7.310  19.127   1.369
35471W        W94908   9.191   2.308  14.007
35472W        W94909  30.510   9.323   4.772
35473W        W94910   8.751  13.116   3.647
35474W        W94911  30.563  14.647   1.839
35475W        W94912  11.293  19.171  12.507
35476W        W94913  19.171  41.919  14.503
35477W        W94914   6.368  22.047   4.345
35478W        W94915  13.701  37.909   3.348
35479W        W94916  44.877   2.238   1.779
35480W        W94917  30.436  38.929  12.084
35481W        W94918  37.387   1.856  13.525
35482W        W94919  43.422  40.412   2.412
35483W        W94920  39.437  38.819   2.286
35484W        W94921  44.758  20.113   1.798
35485W        W94922  12.829  15.751  13.527
35486W        W94923  33.086  17.203   0.255
35487W        W94924   6.893   1.734  13.018
35488W        W94925   4.385  44.458   2.738
35489W        W94926  33.110   2.745   0.914
35490W        W94927  18.704  18.624   1.410
35491W        W94928  20.209  20.603   0.829
35492W        W94929  20.038  41.959  10.108
35493W        W94930  32.076  33.922  14.382
35494W        W94931  24.662   1.822  14.411
35495W        W94932   7.211  35.574  10.484
35496W        W94933  38.489   4.262  10.939
35497W        W94934  27.508  31.549  10.966
35498W        W94935  34.876  28.465   4.615
35499W        W94936   9.661  34.050   1.872
35500W        W94937   4.836  31.500  11.553
35501W        W94938  17.162  14.610   2.675
35502W        W94939  34.074  41.950  14.394
35503W        W94940   2.887   1.956  13.420
35504W        W94941   1.870  11.769  12.417
35505W        W94942  17.776  34.385   1.702
35506W        W94943  40.035  14.327  13.418
35507W        W94944  25.991  34.001  14.821
35508W        W94945   8.397  22.520   2.799
35509W        W94946  25.557  32.047  13.476
35510W        W94947  30.984   2.298  13.018
35511W        W94948  36.540   7.763  14.337
35512W        W94949  30.428   9.174  14.975
35513W        W94950   0.984  19.246  14.283
35514W        W94951  40.930  36.488  10.527
35515W        W94952   2.238  41.879   0.253
35516W        W94953  38.524   6.701   1.419
35517W        W94954  10.245  44.902  14.811
35518W        W94955  24.057  13.646   0.388
35519W        W94956  39.950   0.985  14.843
35520W        W94957  30.998  41.940   3.211
35521W        W94958  19.598  29.509  13.408
35522W        W94959   2.885  35.099   9.468
35523W        W94960  34.460  34.595   3.244
35524W        W94961   7.354  33.031  14.398
35525W        W94962  30.522  31.127  13.329
35526W        W94963  31.536  20.660   3.379
35527W        W94964  19.563  23.595   0.848
35528W        W94965   1.269  15.587  12.026
35529W        W94966  18.638   4.399  14.435
35530W        W94967  38.870  11.706  12.438
35531W        W94968  10.835  12.337  12.404
35532W        W94969   7.714  34.994  12.562
35533W        W94970  20.227  35.426   2.769
35534W        W94971  40.394   4.366   2.385
35535W        W94972   1.256   7.270  14.961
35536W        W94973  42.289  17.671  14.867
35537W        W94974  18.142  23.057  12.939
35538W        W94975  20.064  20.552   1.827
35539W        W94976  30.941  11.339  12.478
35540W        W94977   2.344   9.166  14.760
35541W        W94978  16.589  43.488   3.228
35542W        W94979   4.234   6.336   3.374
35543W        W94980  28.447   5.769   0.804
35544W        W94981  18.208  33.086   3.660
35545W        W94982   7.271   2.826   2.690
35546W        W94983  29.483   3.309  10.058
35547W        W94984   4.899   3.756   2.837
35548W        W94985  14.703  14.213  12.090
35549W        W94986   3.314  31.948   2.289
35550W        W94987   4.427  40.969  12.920
35551W        W94988  18.557  18.558  13.879
35552W        W94989  28.041  30.155   4.206
35553W        W94990  21.097  38.988   3.804
35554W        W94991  26.184  25.540  10.562
35555W        W94992  40.530  40.443   2.705
35556W        W94993  24.111  35.022   5.120
35557W        W94994  39.540  22.731  14.972
35558W        W94995   2.775  38.366  10.957
35559W        W94996  44.972   3.941   2.852
35560W        W94997  19.734  16.604   2.687
35561W        W94998   1.369  34.027  11.505
35562W        W94999  31.404  11.707  11.595
35563W        W95000  19.113  18.740   3.696
35564W        W95001  41.967  17.208  13.344
35565W        W95002  43.801  19.538   0.416
35566W        W95003  41.519  33.564   3.850
35567W        W95004   7.313  24.059   2.277
35568W        W95005  35.954  36.847  14.432
35569W        W95006   3.446   0.922  11.117
35570W        W95007   7.871  40.816  14.334
35571W        W95008  22.168  33.113   1.864
35572W        W95009   2.836  40.911   3.344
35573W        W95010   5.320  33.380  13.531
35574W        W95011  11.333  13.249  12.511
35575W        W95012   2.920  12.316  12.083
35576W        W95013  10.229  41.855  11.381
35577W        W95014   2.324  19.614   9.963
35578W        W95015  31.034  43.977  14.854
35579W        W95016   5.847  17.750   3.236
35580W        W95017   1.399  24.658   3.671
35581W        W95018  17.766  16.587   1.224
35582W        W95019  41.536  31.632  12.908
35583W        W95020  30.966  29.504   1.771
35584W        W95021   7.856  20.539   0.928
35585W        W95022  10.253   1.812  10.137
35586W        W95023  18.162  27.050  14.934
35587W        W95024  41.849  16.777   1.926
35588W        W95025  11.653   8.761  14.340
35589W        W95026  34.494  15.168   1.732
35590W        W95027  31.123  40.340  11.551
35591W        W95028  30.417  26.090  14.286
35592W        W95029  43.429  16.708  12.081
35593W        W95030   6.704  19.672   2.251
35594W        W95031  44.843  32.555  13.846
35595W        W95032   1.918  20.232   1.331
35596W        W95033  37.501  40.962  10.923
35597W        W95034  43.500  21.567   0.807
35598W        W95035  28.640  16.680  14.864
35599W        W95036  42.292  20.598  11.917
35600W        W95037  40.466   2.341  13.920
35601W        W95038  21.242  27.055   1.311
35602W        W95039  30.025   1.914  14.370
35603W        W95040  15.318   6.349   2.242
35604W        W95041  15.793  44.305   3.738
35605W        W95042  25.503   7.693  12.544
35606W        W95043  27.980  15.635   1.370
35607W        W95044  17.797  21.081  13.054
35608W        W95045  16.145  14.309  10.570
35609W        W95046   5.310   4.731  13.356
35610W        W95047  38.407  24.557  12.065
35611W        W95048  19.745  19.076  13.060
35612W        W95049   5.374  12.626   4.825
35613W        W95050   4.218  29.966  12.863
35614W        W95051  26.585  28.144  12.564
35615W        W95052  41.026  38.466   4.798
35616W        W95053  22.531  29.605  11.030
35617W        W95054   5.341   8.273  11.462
35618W        W95055  20.118  15.106   2.373
35619W        W95056  37.863  40.353  12.447
35620W        W95057  10.710   2.802  11.551
35621W        W95058  17.675   2.368  14.342
35622W        W95059  15.655  16.165   3.316
35623W        W95060  30.550  30.489  14.791
35624W        W95061  44.448   6.861   4.814
35625W        W95062   6.791  21.226   1.239
35626W        W95063  13.227  26.203   4.615
35627W        W95064  21.089  22.502  12.090
35628W        W95065  38.063   4.942   0.767
35629W        W95066   0.832  37.860  14.007
35630W        W95067  21.115  12.186   1.750
35631W        W95068  32.457  18.231  13.051
35632W        W95069  25.606  30.988   3.364
35633W        W95070  23.107   3.400   2.388
35634W        W95071  43.959   2.283  11.412
35635W        W95072  32.579  13.335   3.822
35636W        W95073  44.286  21.175   3.636
35637W        W95074  40.465   4.373  13.422
35638W        W95075   5.698   2.412   3.271
35639W        W95076   0.426  23.096  12.086
35640W        W95077  30.976  36.377   3.338
35641W        W95078  26.548   0.898   4.225
35642W        W95079  37.440  43.460   4.788
35643W        W95080  31.624  10.664   0.385
35644W        W95081  40.320  44.769   4.216
35645W        W95082   4.820  17.196  11.607
35646W        W95083  32.435  12.126  12.044
35647W        W95084  28.099  13.123  14.762
35648W        W95085   2.370  44.425  14.398
35649W        W95086  12.247  29.971   2.782
35650W        W95087   0.342   1.818  11.103
35651W        W95088  33.568  18.100  10.604
35652W        W95089  10.235  20.672  11.007
35653W        W95090   5.320   5.750   3.837
35654W        W95091  16.697  24.643  11.976
35655W        W95092   6.425  34.471  11.911
35656W        W95093  17.710  36.907  14.350
35657W        W95094  18.636  29.971  11.578
35658W        W95095  15.647  23.664  13.506
35659W        W95096   0.841  40.456  10.431
35660W        W95097  29.554  34.380  14.512
35661W        W95098  34.881   1.778   1.888
35662W        W95099   4.936  33.044   1.237
35663W        W95100  26.970  27.075  10.422
35664W        W95101  25.656  33.418   1.914
35665W        W95102  39.928  40.431   2.738
35666W        W95103  15.759  26.979  14.794
35667W        W95104   2.423   9.746  10.576
35668W        W95105  27.633  37.866   0.426
35669W        W95106  28.940  26.964  11.938
35670W        W95107  21.583   5.325   0.300
35671W        W95108  31.902  31.950   1.876
35672W        W95109  44.968  14.266  13.507
35673W        W95110  28.121   5.358  10.077
35674W        W95111  23.664  43.002  13.847
35675W        W95112   8.753   8.856  12.991
35676W        W95113  14.125  22.521   3.821
35677W        W95114  28.134  19.063  12.428
35678W        W95115  44.968  34.866   2.351
35679W        W95116   8.777  17.209   1.720
35680W        W95117  11.156  38.456  12.064
35681W        W95118  19.699  27.461   2.341
35682W        W95119   5.704  21.095  11.598
35683W        W95120  26.660  27.627  14.340
35684W        W95121  29.526  43.391   3.764
35685W        W95122  27.482  25.187  12.017
35686W        W95123  34.981   0.487   2.875
35687W        W95124  29.073   2.891  11.923
35688W        W95125  18.253  37.017  11.592
35689W        W95126  15.797  34.999  11.493
35690W        W95127  25.010  24.621  14.829
35691W        W95128  24.565   6.913   0.279
35692W        W95129   3.448  35.541  11.451
35693W        W95130  16.232   2.885   2.376
35694W        W95131  44.377  40.403   2.183
35695W        W95132  34.046   6.304  12.558
35696W        W95133  43.860  29.436  14.951
35697W        W95134  43.312   2.448  13.443
35698W        W95135  30.642  31.012   1.363
35699W        W95136  40.949  44.308  14.419
35700W        W95137   8.284  26.000  13.816
35701W        W95138   4.836  33.083  10.017
35702W        W95139  37.348   9.774  12.478
35703W        W95140  12.249  26.063   2.188
35704W        W95141  16.121  21.676  14.505
35705W        W95142  14.113  16.193  10.559
35706W        W95143   7.268  14.800   2.872
35707W        W95144  28.449  10.821   5.614
35708W        W95145  39.483  37.922  13.475
35709W        W95146   3.371  16.784   2.801
35710W        W95147  21.514   6.418  10.916
35711W        W95148  43.922  34.994   3.652
35712W        W95149  38.972  39.377   5.219
35713W        W95150  35.472  44.420  12.040
35714W        W95151  13.837  37.481  13.541
35715W        W95152  19.045  10.838  14.445
35716W        W95153  41.000  32.139  13.918
35717W        W95154  24.170   6.252  11.105
35718W        W95155  19.257  12.842  12.085
35719W        W95156  40.019  41.334   4.752
35720W        W95157  17.566  19.650   3.865
35721W        W95158  15.682  15.718  14.472
35722W        W95159   2.725   6.729   0.856
35723W        W95160  32.586  24.654  12.059
35724W        W95161  41.393  43.334  12.921
35725W        W95162   7.762  26.038   2.328
35726W        W95163  18.210   1.814  14.990
35727W        W95164  28.032  21.199  10.124
35728W        W95165  38.420  37.991  10.495
35729W        W95166  11.144  33.509  10.442
35730W        W95167  22.020  15.091   3.838
35731W        W95168  26.467   3.717  10.525
35732W        W95169  25.643  43.854   3.230
35733W        W95170  14.301  21.248   1.393
35734W        W95171  24.974  35.036  14.407
35735W        W95172  12.734  39.314  11.953
35736W        W95173  34.062  16.085  11.473
35737W        W95174  14.238  31.935  14.292
35738W        W95175   7.366  27.464  13.495
35739W        W95176  22.022  40.335  10.555
35740W        W95177   9.739  26.609  14.808
35741W        W95178  16.311  11.310   2.207
35742W        W95179  26.000   6.247   3.244
35743W        W95180  43.007  10.260   0.360
35744W        W95181  34.466  28.075   1.381
35745W        W95182  31.135  25.963   4.285
35746W        W95183  27.195  26.029  14.766
35747W        W95184  36.893   0.938   3.805
35748W        W95185   8.894  17.795  14.947
35749W        W95186  25.512  10.260  10.155
35750W        W95187   8.268  42.472   0.952
35751W        W95188  44.390   1.411  14.319
35752W        W95189  17.099  16.258  13.958
35753W        W95190  41.796   6.833   0.873
35754W        W95191  28.002  31.550   3.772
35755W        W95192  34.615  12.651  13.536
35756W        W95193  11.256  40.870   1.696
35757W        W95194  26.648  32.413   1.307
35758W        W95195  28.164  16.085  14.981
35759W        W95196  24.698   1.344  13.979
35760W        W95197  21.132   8.178   2.291
35761W        W95198  20.696  14.636   3.820
35762W        W95199  22.196  21.033   4.620
35763W        W95200  23.074  40.362  10.583
35764W        W95201  30.562  32.518   3.830
35765W        W95202   5.696  14.729   3.257
35766W        W95203  43.469  24.514   2.398
35767W        W95204  10.837  36.897  11.425
35768W        W95205  35.059  14.226   0.754
35769W        W95206  13.670  40.494  12.097
35770W        W95207  40.891  19.595  14.391
35771W        W95208  26.532  38.487  13.832
35772W        W95209   7.299  29.535   2.754
35773W        W95210  36.075  38.059   3.237
35774W        W95211  34.056  31.647   0.478
35775W        W95212   3.309  38.489   1.436
35776W        W95213   6.354  12.723  11.958
35777W        W95214  10.858  21.194  13.971
35778W        W95215  13.788   0.757  10.605
35779W        W95216  21.142  37.983   2.336
35780W        W95217   3.387  38.449  10.006
35781W        W95218  36.441  29.992  12.019
35782W        W95219  17.611  44.454  12.986
35783W        W95220  31.563  26.590   2.359
35784W        W95221  24.675  38.882   3.162
35785W        W95222  25.167  43.416   2.874
35786W        W95223   0.460  29.440   4.129
35787W        W95224  42.986  19.189  13.847
35788W        W95225  35.975  24.682   0.802
35789W        W95226  17.175   4.766  13.931
35790W        W95227  44.908  42.875   4.163
35791W        W95228  16.789  23.021  13.797
35792W        W95229  21.243  34.057   3.377
35793W        W95230   1.917  23.511  10.923
35794W        W95231  39.978  12.707  13.377
35795W        W95232   8.675  19.700   1.897
35796W        W95233  34.091   5.299   2.283
35797W        W95234  36.501  20.219  11.438
35798W        W95235  29.476  24.601   0.276
35799W        W95236  15.218  41.438   3.662
35800W        W95237   7.666  26.590   3.743
35801W        W95238  10.144   8.272   1.243
35802W        W95239  13.145  22.187  14.368
35803W        W95240  34.542  36.522   2.852
35804W        W95241  20.256  44.287   4.790
35805W        W95242  36.370   0.281   4.318
35806W        W95243   7.249  36.371   2.813
35807W        W95244   1.820  35.369  10.980
35808W        W95245  25.659  39.063   0.466
35809W        W95246  12.613   5.295  12.463
35810W        W95247  11.742  18.624   0.869
35811W        W95248   6.708  36.904  11.397
35812W        W95249  21.716   2.311  13.834
35813W        W95250  10.229  19.203  11.117
35814W        W95251  44.797  32.142   4.706
35815W        W95252  19.687  18.265   0.877
35816W        W95253  36.574  23.718   0.835
35817W        W95254  38.033   3.416   2.748
35818W        W95255   6.402  14.804  11.371
35819W        W95256   9.706  32.427   0.382
35820W        W95257   4.292  23.498   1.385
35821W        W95258  14.141   0.278   0.244
35822W        W95259  43.779  36.907   2.288
35823W        W95260   0.866   6.277   3.790
35824W        W95261  39.463  33.039  12.942
35825W        W95262  22.158  36.586   0.825
35826W        W95263   4.350   9.273   1.235
35827W        W95264   8.319  20.598  14.415
35828W        W95265  22.507  18.674   3.320
35829W        W95266   0.294  21.671  10.631
35830W        W95267  27.602  39.041   0.343
35831W        W95268   2.293  36.868  10.474
35832W        W95269  24.662  42.032  11.518
35833W        W95270  28.967  16.812  12.557
35834W        W95271  36.904  38.518  14.858
35835W        W95272  39.515  41.297   1.895
35836W        W95273  27.084  39.907   4.328
35837W        W95274  33.610  33.881  14.465
35838W        W95275  34.438  41.825  12.843
35839W        W95276   0.753  28.073  14.425
35840W        W95277  14.689  32.548  11.511
35841W        W95278  17.677  44.416   9.510
35842W        W95279  25.106  14.181  11.546
35843W        W95280  13.305   9.854   1.844
35844W        W95281  26.698  36.489   0.382
35845W        W95282  36.080   4.250   1.340
35846W        W95283  28.567  34.388   0.394
35847W        W95284  31.012  33.972  14.505
35848W        W95285  23.222  17.678   4.231
35849W        W95286  31.433   4.353  13.949
35850W        W95287  26.630  17.149  11.439
35851W        W95288  21.243  35.414  11.009
35852W        W95289  13.778  38.905  13.382
35853W        W95290  39.500  24.000   4.795
35854W        W95291  16.756   5.245  14.020
35855W        W95292  19.704  28.033   3.773
35856W        W95293  27.588  41.037  13.326
35857W        W95294  15.599  28.606   3.185
35858W        W95295  19.285  32.039  11.553
35859W        W95296  44.285   0.361  11.036
35860W        W95297  30.131  21.095  10.479
35861W        W95298  16.240  27.461  14.311
35862W        W95299  15.618  16.793  11.008
35863W        W95300  28.974  43.856   1.781
35864W        W95301  38.541  20.072   0.392
35865W        W95302  44.294  44.847   4.321
35866W        W95303  10.362  32.608  10.620
35867W        W95304  21.163  12.225   2.676
35868W        W95305  20.230   2.324  14.481
35869W        W95306   6.776  16.645  11.917
35870W        W95307  14.749  40.340   9.489
35871W        W95308  29.110  26.668   2.359
35872W        W95309  30.916   2.913  12.907
35873W        W95310  21.648  37.359   2.853
35874W        W95311  31.002  29.529   3.221
35875W        W95312  14.237   6.414   5.196
35876W        W95313  23.514  44.276   3.726
35877W        W95314  19.580  14.698   0.767
35878W        W95315   8.363  26.123   2.300
35879W        W95316   5.820  22.507   2.184
35880W        W95317  26.548  19.579  12.019
35881W        W95318  19.267  26.467  12.431
35882W        W95319  15.138  33.553  10.507
35883W        W95320  34.538  17.079  13.986
35884W        W95321  16.102  43.776   2.875
35885W        W95322  34.475   3.947  14.834
35886W        W95323  39.887  35.445   2.291
35887W        W95324  28.126  26.112   2.734
35888W        W95325   9.801   1.292  11.977
35889W        W95326  33.973   8.854   3.213
35890W        W95327   2.927  42.295  14.954
35891W        W95328  21.700  28.935   3.223
35892W        W95329  27.628   6.343  14.813
35893W        W95330  19.252  24.049   1.355
35894W        W95331  38.380  35.042  11.529
35895W        W95332   1.745  26.155  14.769
35896W        W95333  23.591  39.984   3.158
35897W        W95334  22.537  19.155   1.931
35898W        W95335  33.532   6.257  14.031
35899W        W95336  32.586  43.001   2.199
35900W        W95337   1.302  30.921   0.337
35901W        W95338   3.889  38.451  14.024
35902W        W95339   8.311  20.243  14.990
35903W        W95340   0.279  31.124  11.535
35904W        W95341  12.266  21.679   0.772
35905W        W95342  33.598  15.688  11.009
35906W        W95343   1.274  30.468  14.300
35907W        W95344   3.451  26.540   0.788
35908W        W95345  13.774   9.368   2.774
35909W        W95346  27.592   2.885  14.831
35910W        W95347   0.426  31.108  13.417
35911W        W95348  22.126   2.921   2.781
35912W        W95349  19.127  19.770  10.898
35913W        W95350  31.909   6.768  12.454
35914W        W95351  10.262  25.581  11.951
35915W        W95352  32.912  29.014  11.981
35916W        W95353  44.873  14.285   3.665
35917W        W95354  19.577  34.050   2.896
35918W        W95355  22.062  16.229   3.743
35919W        W95356  15.784  10.256  12.964
35920W        W95357  24.593  24.548  13.025
35921W        W95358  17.743  26.657  13.851
35922W        W95359  20.053  28.612  14.766
35923W        W95360  29.154  34.005   4.125
35924W        W95361  33.621  33.908   1.817
35925W        W95362   6.841  32.423   3.375
35926W        W95363   4.937  23.173   0.351
35927W        W95364  38.424  31.627   1.441
35928W        W95365  39.832  24.511  13.841
35929W        W95366  39.443  18.695   3.820
35930W        W95367  14.772  35.953   3.300
35931W        W95368  14.795   4.379   0.303
35932W        W95369  37.436  28.492  10.579
35933W        W95370  14.259  41.035   0.851
35934W        W95371  38.883  41.031  10.938
35935W        W95372  28.999  43.509  11.894
35936W        W95373  22.551  31.121   0.858
35937W        W95374  37.455  14.833   2.286
35938W        W95375  31.482  43.902   4.623
35939W        W95376  43.289  27.466  10.894
35940W        W95377  25.515  25.486   5.299
35941W        W95378  38.023  33.037  14.340
35942W        W95379  27.099  10.326   1.712
35943W        W95380  41.412  42.023   0.390
35944W        W95381  14.785   4.764   3.639
35945W        W95382  32.033  43.912   2.378
35946W        W95383  11.309  34.926   2.785
35947W        W95384  20.579  29.534   1.753
35948W        W95385  40.837   9.784   3.785
35949W        W95386  26.975  10.255   4.209
35950W        W95387  21.054  19.626   1.298
35951W        W95388   7.791  34.573   2.192
35952W        W95389  32.595  32.120   2.682
35953W        W95390  22.689  16.756   2.722
35954W        W95391  16.759   5.910   0.331
35955W        W95392  35.010  24.505  10.989
35956W        W95393   7.268  12.186  12.569
35957W        W95394  18.260  11.745  13.481
35958W        W95395  30.010  27.523   5.690
35959W        W95396  20.137  30.980  12.380
35960W        W95397  16.645  26.458   0.315
35961W        W95398  20.764  20.151  12.844
35962W        W95399  37.404  36.999  13.966
35963W        W95400  21.605  31.009   2.742
35964W        W95401  21.642  23.568  11.913
35965W        W95402  41.791  33.038  12.895
35966W        W95403  41.489  40.380  11.990
35967W        W95404  25.046  31.056   1.928
35968W        W95405  13.701  27.638  14.827
35969W        W95406  17.202  41.519   5.180
35970W        W95407  31.059  34.531   1.852
35971W        W95408  10.360  25.637  11.454
35972W        W95409  12.704  12.677  12.010
35973W        W95410  41.886  30.938  12.050
35974W        W95411   6.393  13.727   3.694
35975W        W95412  16.085  15.122  11.453
35976W        W95413  24.698  44.864   2.838
35977W        W95414  18.117  12.778  10.633
35978W        W95415  13.785  12.125   3.320
35979W        W95416   8.806  14.734   2.367
35980W        W95417  12.807   2.454  14.891
35981W        W95418  10.313  18.555   3.751
35982W        W95419  10.818  27.612   4.654
35983W        W95420  43.890   9.307  10.998
35984W        W95421  13.652  40.020  12.505
35985W        W95422  18.609   3.268  13.484
35986W        W95423  21.620  13.794   0.767
35987W        W95424  13.284  14.287   1.709
35988W        W95425  12.175  15.195  10.532
35989W        W95426  33.546  32.398  12.502
35990W        W95427  22.173  11.763  11.864
35991W        W95428  12.350  24.137  10.557
35992W        W95429   6.782   8.706  13.943
35993W        W95430   8.678  32.913  11.403
35994W        W95431  36.860  19.682   3.682
35995W        W95432  31.489  12.223   1.762
35996W        W95433  11.685  13.821  13.486
35997W        W95434  27.064  15.182   0.277
35998W        W95435  21.157  19.201   0.265
35999W        W95436  35.077   7.213   1.801
36000W        W95437   0.297  34.588   3.194
36001W        W95438  20.613  39.447  13.807
36002W        W95439  35.552  22.095  12.975
36003W        W95440  38.064  41.814   2.263
36004W        W95441   9.655  10.240   1.842
36005W        W95442  14.824  13.720   0.942
36006W        W95443   5.359  11.804  14.472
36007W        W95444   5.334  42.371  14.928
36008W        W95445  18.268  23.600  10.554
36009W        W95446  12.117   2.825  11.411
36010W        W95447  43.969  25.085  13.548
36011W        W95448  28.452   5.703  13.319
36012W        W95449  21.075  39.354  14.898
36013W        W95450  38.330  36.930  10.518
36014W        W95451  36.907  33.395   2.310
36015W        W95452  37.850  15.329  11.507
36016W        W95453   5.282  37.351   2.746
36017W        W95454  36.049  28.112   0.256
36018W        W95455  34.511  39.434   0.781
36019W        W95456   3.911  44.769  12.839
36020W        W95457  20.053  18.769   5.741
36021W        W95458  31.641   4.843  11.123
36022W        W95459  40.928  38.841  12.535
36023W        W95460  27.979  42.916   5.250
36024W        W95461  22.175  21.512  13.439
36025W        W95462   7.201  28.679  13.442
36026W        W95463   2.898   6.681   1.389
36027W        W95464  17.113  20.079  14.006
36028W        W95465  26.108  19.090  12.457
36029W        W95466  44.000  25.976  14.028
36030W        W95467  23.532   7.331   0.822
36031W        W95468  15.786   1.415  13.044
36032W        W95469  12.613  28.165   1.215
36033W        W95470  29.566  42.358   4.335
36034W        W95471   6.197  42.985   2.680
36035W        W95472  21.712   2.290   0.275
36036W        W95473   8.807  16.098   4.808
36037W        W95474  20.257  42.398   0.730
36038W        W95475  26.098  30.928   4.320
36039W        W95476  44.852  19.653  14.031
36040W        W95477  23.073   6.759  11.980
36041W        W95478  32.595   0.802   2.840
36042W        W95479  37.985  32.066   2.210
36043W        W95480   3.850  31.047  10.539
36044W        W95481   6.818  34.501  14.338
36045W        W95482  30.544  24.489   0.324
36046W        W95483   2.415  38.030   1.711
36047W        W95484  24.024  16.182  12.417
36048W        W95485   6.729  41.862   4.745
36049W        W95486   3.774  19.620  12.989
36050W        W95487  36.499  35.888  14.026
36051W        W95488  30.639  23.544  13.542
36052W        W95489  29.979  40.367   4.605
36053W        W95490  41.973   1.894   2.831
36054W        W95491  39.817  29.448   4.809
36055W        W95492  10.827  25.172  14.816
36056W        W95493  35.438  10.235  14.489
36057W        W95494   2.443   7.231  13.855
36058W        W95495   2.454  35.418  13.529
36059W        W95496  19.737  31.081  14.854
36060W        W95497  42.429  33.921   3.646
36061W        W95498  40.333  10.189   0.437
36062W        W95499   9.817   6.710   3.290
36063W        W95500  42.433  37.895   3.160
36064W        W95501   5.899  28.181   4.264
36065W        W95502  18.590  39.906   2.834
36066W        W95503  35.939  12.730  11.905
36067W        W95504  44.805  31.140  14.014
36068W        W95505  20.526  14.640   2.364
36069W        W95506  11.694  23.114   2.205
36070W        W95507  35.405  26.203  14.504
36071W        W95508  21.113  37.348   4.822
36072W        W95509  37.066  15.210   1.332
36073W        W95510  38.897  29.643  13.813
36074W        W95511  22.603  34.514  13.535
36075W        W95512  41.853  40.852   2.771
36076W        W95513  37.359  21.529   1.903
36077W        W95514  22.537  27.139  12.885
36078W        W95515  38.570  41.515  12.363
36079W        W95516   5.370  38.361  12.474
36080W        W95517  21.086   2.916   1.868
36081W        W95518  37.931  13.197  13.809
36082W        W95519  36.532  31.559   2.810
36083W        W95520  14.692   8.169   3.821
36084W        W95521  14.738  12.239   4.335
36085W        W95522  19.241  20.652   2.261
36086W        W95523  26.567  34.114  10.532
36087W        W95524  13.843  10.766   3.641
36088W        W95525  13.633  15.785  13.429
36089W        W95526  13.245  10.201  14.391
36090W        W95527  37.507   3.764   2.894
36091W        W95528  34.947  40.364  13.445
36092W        W95529  31.626  31.638  14.434
36093W        W95530  44.304   6.677  11.586
36094W        W95531  40.392  12.732   0.900
36095W        W95532  14.755  40.976   2.373
36096W        W95533  11.291  32.086  10.425
36097W        W95534  20.607  33.098  14.843
36098W        W95535  30.994  20.668  13.970
36099W        W95536  30.595  42.912   2.732
36100W        W95537  34.508  11.826  10.639
36101W        W95538  29.106   5.309  11.541
36102W        W95539  19.118  35.598   3.218
36103W        W95540  28.017  23.065   3.348
36104W        W95541  33.947  20.737   0.398
36105W        W95542  36.509  38.325  11.943
36106W        W95543  14.100  18.715  14.836
36107W        W95544   5.275   5.905  14.440
36108W        W95545  30.523   1.312   3.341
36109W        W95546  31.543  15.160  12.367
36110W        W95547  33.614  30.124   0.255
36111W        W95548  37.924  17.294   3.339
36112W        W95549  16.260  11.232  12.551
36113W        W95550  22.557  28.066  13.330
36114W        W95551  21.028  34.599  14.381
36115W        W95552  41.362  29.539   0.247
36116W        W95553  34.000  13.792  13.912
36117W        W95554  20.602  33.899   4.240
36118W        W95555  13.734  26.613   3.641
36119W        W95556   6.378  37.870  11.061
36120W        W95557  17.183  31.986   3.186
36121W        W95558  19.086   8.382  11.884
36122W        W95559  24.217  12.794   3.650
36123W        W95560  10.299  32.581   1.764
36124W        W95561  14.169  10.679   0.730
36125W        W95562  12.771  18.107   2.309
36126W        W95563   6.421   9.794  10.456
36127W        W95564  23.040   2.264  11.513
36128W        W95565  16.136  10.217   3.188
36129W        W95566  36.987   1.807   0.867
36130W        W95567  12.703   7.760  12.514
36131W        W95568  21.711  27.459   4.778
36132W        W95569  23.632  34.933  12.045
36133W        W95570   4.844  27.576   4.717
36134W        W95571  42.320  24.136   4.639
36135W        W95572  22.070  25.009   2.823
36136W        W95573  42.802  26.484  11.496
36137W        W95574  40.025  29.022  11.982
36138W        W95575  42.860   2.314   0.473
36139W        W95576  33.037   2.428  13.984
36140W        W95577  20.171  25.033   0.389
36141W        W95578  27.139   2.234  14.395
36142W        W95579  21.681  23.734  14.390
36143W        W95580   3.264  42.505  12.433
36144W        W95581   4.283  21.165  10.601
36145W        W95582  44.334  17.197   2.851
36146W        W95583   7.343  35.411   4.322
36147W        W95584  42.308   2.906   0.884
36148W        W95585  24.495   4.265   3.253
36149W        W95586  20.071  40.396  13.022
36150W        W95587  40.455  38.877   2.689
36151W        W95588  37.963   7.828  12.944
36152W        W95589  15.823  44.998   0.772
36153W        W95590  15.687   3.947   1.849
36154W        W95591  28.015   5.409  10.604
36155W        W95592  37.346  27.456   0.475
36156W        W95593  28.992  11.154   1.907
36157W        W95594  18.194   1.842   2.214
36158W        W95595  27.576  42.896  12.852
36159W        W95596  12.821  39.808   3.200
36160W        W95597   7.290  39.339   0.277
36161W        W95598  32.563  44.912   3.367
36162W        W95599  40.819  38.329   2.870
36163W        W95600  22.096   7.396  11.490
36164W        W95601  34.373  28.965   2.831
36165W        W95602  13.818   1.815  10.538
36166W        W95603  20.209  18.179  14.393
36167W        W95604   0.277  10.861  13.398
36168W        W95605   8.246  19.707   1.756
36169W        W95606  20.708  37.863  13.816
36170W        W95607  42.457  10.363  10.903
36171W        W95608   0.920  25.182  12.861
36172W        W95609  27.608  40.425   2.196
36173W        W95610  17.305  10.846   9.935
36174W        W95611  44.392  42.950   1.828
36175W        W95612  40.994  35.908   5.263
36176W        W95613   1.327  11.347  13.465
36177W        W95614  10.782   9.669   3.275
36178W        W95615  43.290  41.478   0.880
36179W        W95616  15.592  30.917  14.327
36180W        W95617  34.924  42.004  13.548
36181W        W95618  43.947   0.292   0.832
36182W        W95619  38.933  37.861   1.736
36183W        W95620   5.888  29.462  13.890
36184W        W95621  19.557  38.879  14.833
36185W        W95622  38.883  23.013  14.987
36186W        W95623  21.126  11.663   0.291
36187W        W95624  30.007  14.593  13.311
36188W        W95625  29.632   4.235  13.342
36189W        W95626  28.112  11.757   5.195
36190W        W95627  31.932  13.212   3.232
36191W        W95628  27.161   3.228  11.111
36192W        W95629  28.576  15.744   3.831
36193W        W95630  32.538  19.279  10.478
36194W        W95631   0.821   9.376  11.995
36195W        W95632  32.430   0.427   3.800
36196W        W95633  21.612   3.422  14.463
36197W        W95634  24.066  13.642  12.387
36198W        W95635  19.719  14.113  12.053
36199W        W95636  23.022  23.664  10.604
36200W        W95637   4.894  20.080  14.794
36201W        W95638  38.477  44.303   4.838
36202W        W95639   7.868  18.283  13.520
36203W        W95640  13.812  17.186   4.692
36204W        W95641  17.139  20.747   0.270
36205W        W95642   5.273  14.165   4.701
36206W        W95643  35.438  20.565   4.824
36207W        W95644  16.694  27.611  13.826
36208W        W95645  23.672  13.179  13.814
36209W        W95646  34.599  36.441  13.818
36210W        W95647  39.954   6.357   4.807
36211W        W95648  21.102  32.486  12.021
36212W        W95649   8.203  18.671   1.346
36213W        W95650  36.051  18.212   4.303
36214W        W95651  34.942  25.101  10.948
36215W        W95652  28.073  16.736   3.184
36216W        W95653  23.540  41.820  13.883
36217W        W95654  22.586  13.162   2.705
36218W        W95655  21.030  26.617   2.365
36219W        W95656  26.177   1.975   2.715
36220W        W95657  44.278   0.309   4.322
36221W        W95658  35.983   6.234  11.892
36222W        W95659  11.833   5.204  10.905
36223W        W95660  26.694  14.817  11.926
36224W        W95661  27.675   1.374  14.279
36225W        W95662   4.809   8.166  10.408
36226W        W95663  37.930  23.599   3.361
36227W        W95664  29.472   7.320   4.658
36228W        W95665  31.919  19.178   3.331
36229W        W95666  23.147   7.206  14.960
36230W        W95667  33.887   7.841   0.727
36231W        W95668  12.297  35.479  10.621
36232W        W95669  11.175  19.665  13.975
36233W        W95670  18.135   8.397   4.665
36234W        W95671   1.865   5.749  13.522
36235W        W95672  39.547  33.621  10.587
36236W        W95673  23.620  25.604  12.937
36237W        W95674  41.849  19.269   2.375
36238W        W95675  37.875  19.632  14.764
36239W        W95676   4.924   1.797  11.593
36240W        W95677  31.983   2.464  10.420
36241W        W95678  43.276  31.489  10.449
36242W        W95679  30.470  15.612   4.640
36243W        W95680   2.845   8.860  11.981
36244W        W95681  34.112  30.627   4.789
36245W        W95682  15.590   1.866  14.982
36246W        W95683  10.717   0.378   2.401
36247W        W95684  31.421   3.399   3.808
36248W        W95685  38.072  13.737   1.859
36249W        W95686   4.316   9.785  12.939
36250W        W95687  23.191  16.109   3.816
36251W        W95688  14.683  12.357  12.375
36252W        W95689  25.572  37.989  11.907
36253W        W95690  44.370   1.748  11.510
36254W        W95691   0.932  21.728   2.311
36255W        W95692  22.010  18.692   4.184
36256W        W95693   7.693  43.856   4.353
36257W        W95694   5.313  28.497  13.353
36258W        W95695  37.846   4.854   2.694
36259W        W95696  41.421  37.372   3.656
36260W        W95697  24.203  38.919   2.359
36261W        W95698   9.847  13.184  10.477
36262W        W95699  33.413   0.885  12.063
36263W        W95700  42.488  38.419   0.789
36264W        W95701   6.919  18.696  12.951
36265W        W95702  39.917  33.099   0.261
36266W        W95703  21.072  23.054   2.902
36267W        W95704  13.843  16.216  11.952
36268W        W95705  15.733  35.416  11.919
36269W        W95706  15.663  43.817   4.656
36270W        W95707  16.603   3.956  14.359
36271W        W95708  36.083  32.020   3.216
36272W        W95709  23.662  31.478  14.355
36273W        W95710  29.043  42.938  11.583
36274W        W95711   5.399  33.902   0.767
36275W        W95712  26.145  27.504   1.256
36276W        W95713  33.451  44.334  13.968
36277W        W95714  44.887   7.755   4.175
36278W        W95715  14.340  27.107  11.053
36279W        W95716  42.366  33.099  13.048
36280W        W95717   7.770   4.885   2.240
36281W        W95718   0.743  40.440   1.251
36282W        W95719  43.789   3.411  14.925
36283W        W95720   1.434  36.081   5.788
36284W        W95721  42.440   0.882  12.527
36285W        W95722  24.714  32.459  14.994
36286W        W95723  15.726  11.816  10.557
36287W        W95724  13.189   2.470   3.813
36288W        W95725  44.312   2.802   4.694
36289W        W95726  12.655   3.456  14.316
36290W        W95727  28.956   9.293  14.338
36291W        W95728  39.985  14.264   1.753
36292W        W95729   3.390   7.824   5.264
36293W        W95730   3.234  13.207   1.416
36294W        W95731  10.227  10.735   0.841
36295W        W95732  11.646  30.008   0.861
36296W        W95733  24.002  19.210  10.497
36297W        W95734  20.253  11.766  10.067
36298W        W95735   5.816  15.084   3.187
36299W        W95736  16.801  13.160  10.522
36300W        W95737  30.957   1.794   4.721
36301W        W95738   0.942   1.319   0.383
36302W        W95739   3.742  41.992  12.062
36303W        W95740  41.041  28.109   4.738
36304W        W95741  37.888   1.455   4.694
36305W        W95742  22.058  29.958  10.547
36306W        W95743  23.627  25.140   1.356
36307W        W95744  19.591  34.891   3.856
36308W        W95745  32.924  15.625   0.417
36309W        W95746  39.984   0.319   1.848
36310W        W95747  12.684  38.975   0.967
36311W        W95748  39.330  18.648  11.873
36312W        W95749  12.135   0.431   2.903
36313W        W95750  40.974  44.991  12.929
36314W        W95751  41.459   6.270  10.935
36315W        W95752  28.624   5.877   0.266
36316W        W95753  27.498   7.286  11.895
36317W        W95754  36.873   0.305   2.222
36318W        W95755   5.888  36.844   0.901
36319W        W95756  13.318  37.993  12.943
36320W        W95757  39.532  32.625  12.450
36321W        W95758   4.322  42.353  11.405
36322W        W95759  13.309  10.215  12.444
36323W        W95760  43.945  30.988  12.522
36324W        W95761  36.394  19.654   2.181
36325W        W95762  21.233  40.817   2.716
36326W        W95763  36.393  40.987   4.740
36327W        W95764   1.939  11.846  11.123
36328W        W95765  38.490  28.610   4.649
36329W        W95766  40.844  19.156  11.492
36330W        W95767  18.296  34.445   0.363
36331W        W95768  37.386  35.908  11.527
36332W        W95769   0.267   4.828   2.396
36333W        W95770  14.120  20.074   3.212
36334W        W95771  38.499  40.018   0.456
36335W        W95772   3.284  22.543  11.443
36336W        W95773  29.511   7.781   4.294
36337W        W95774  40.914   6.308   4.259
36338W        W95775  13.768  25.133   0.881
36339W        W95776  15.729   0.863  12.491
36340W        W95777  25.478  14.110   2.788
36341W        W95778   2.744  11.724  12.416
36342W        W95779  15.707  35.015   4.188
36343W        W95780  24.217   9.173   3.820
36344W        W95781  14.645  29.135   2.842
36345W        W95782  38.846  30.637  12.854
36346W        W95783  40.979  13.314  13.989
36347W        W95784  13.771  14.221   0.785
36348W        W95785  36.510   6.920   0.818
36349W        W95786  21.260   5.233  11.457
36350W        W95787  29.170  41.040  13.520
36351W        W95788  34.485  17.642   3.832
36352W        W95789  38.984  15.321  10.414
36353W        W95790  26.534  21.630   2.268
36354W        W95791  24.598  38.984   0.879
36355W        W95792   1.448   4.924  12.500
36356W        W95793  29.145  17.102  10.640
36357W        W95794  33.564  27.646  11.432
36358W        W95795   2.793  34.569  11.096
36359W        W95796   5.772  25.032   9.497
36360W        W95797  28.562   3.373  13.531
36361W        W95798  36.019  42.866  14.329
36362W        W95799  18.129  14.326  14.411
36363W        W95800  10.805  38.459  12.841
36364W        W95801  31.920   4.869   1.723
36365W        W95802   7.829  19.173  12.016
36366W        W95803  18.757  18.062  12.963
36367W        W95804   8.795  26.050  13.416
36368W        W95805  14.267  26.539   2.746
36369W        W95806   4.927  23.528  14.494
36370W        W95807  38.051   1.242  10.925
36371W        W95808  29.456  27.030  13.387
36372W        W95809  37.023  41.873   1.910
36373W        W95810  21.666  40.354   3.629
36374W        W95811   4.869   0.806   1.325
36375W        W95812  11.262   4.441  14.021
36376W        W95813  25.091  11.803   3.871
36377W        W95814  12.294  22.165   4.232
36378W        W95815  29.543  26.703   0.435
36379W        W95816   6.272   1.328   4.235
36380W        W95817  42.804   4.743   2.672
36381W        W95818  42.940  25.679   2.846
36382W        W95819  41.909  23.089  14.024
36383W        W95820  27.470  35.982   4.333
36384W        W95821  12.731  15.100  14.313
36385W        W95822  42.399  13.707  13.020
36386W        W95823  44.820  19.654   3.255
36387W        W95824   2.453  37.412   2.854
36388W        W95825  38.884   1.264  14.915
36389W        W95826   1.825  12.304  11.107
36390W        W95827   7.231   4.787   3.240
36391W        W95828  31.030  31.604   0.458
36392W        W95829  12.792  32.132  14.789
36393W        W95830  13.647  30.033  11.528
36394W        W95831   4.250   6.244  10.555
36395W        W95832  40.326   5.221   1.894
36396W        W95833   2.466  18.106   0.454
36397W        W95834   2.751  17.706  14.977
36398W        W95835   8.722  37.914  13.990
36399W        W95836  35.521  33.996  11.078
36400W        W95837  24.625  44.368   0.282
36401W        W95838  32.585  29.090   0.849
36402W        W95839  37.920  38.407  10.551
36403W        W95840  13.271  19.548   3.183
36404W        W95841  12.306   8.669  14.759
36405W        W95842   1.873  22.191  12.369
36406W        W95843  41.979  44.367  11.045
36407W        W95844  14.676   7.387  10.985
36408W        W95845  13.827  12.312   0.732
36409W        W95846   7.868   4.219   0.425
36410W        W95847  16.271  36.964  12.009
36411W        W95848   3.757  12.715   9.981
36412W        W95849  41.036  34.994  11.925
36413W        W95850  19.069  10.876   2.186
36414W        W95851  33.511  43.341   1.695
36415W        W95852  41.455  44.260  12.391
36416W        W95853  18.204  42.334   9.577
36417W        W95854  26.045  11.630   2.671
36418W        W95855  16.735  10.762   2.841
36419W        W95856   6.755  17.218  14.807
36420W        W95857  10.376  38.822   4.681
36421W        W95858  35.852  28.182   0.891
36422W        W95859  11.340   1.333  13.059
36423W        W95860  10.298  19.233  11.523
36424W        W95861  28.054  24.571   5.223
36425W        W95862  30.581  39.860   2.235
36426W        W95863  44.879  34.451  13.018
36427W        W95864   3.717  20.588  11.913
36428W        W95865  39.012  34.035  11.481
36429W        W95866  23.098  41.790  12.523
36430W        W95867  42.013   8.384   4.704
36431W        W95868  43.015  11.247  11.965
36432W        W95869  30.631  13.156  12.878
36433W        W95870  17.255   8.290  11.006
36434W        W95871  15.096  34.068  14.334
36435W        W95872   9.771  43.862   1.861
36436W        W95873  21.158   4.273  11.509
36437W        W95874  13.684  26.517   2.832
36438W        W95875  33.884   7.229  13.950
36439W        W95876  28.088  14.238  11.508
36440W        W95877  32.116  21.166  14.867
36441W        W95878  36.010  21.181  10.066
36442W        W95879  32.503  26.507  12.867
36443W        W95880  30.613   5.350  14.429
36444W        W95881  27.154   0.790   4.607
36445W        W95882  35.490  26.023  13.363
36446W        W95883   6.376  30.488  12.972
36447W        W95884  26.012   0.292   2.801
36448W        W95885   8.801  17.099  12.939
36449W        W95886  23.697   4.246  14.795
36450W        W95887   1.880  29.438  10.047
36451W        W95888  30.633   8.697   0.730
36452W        W95889  41.895  10.156  11.425
36453W        W95890  34.925   6.371   1.910
36454W        W95891   9.657  37.849   2.788
36455W        W95892  12.656  17.673   2.400
36456W        W95893  31.099  21.136  14.792
36457W        W95894  35.096  43.432   2.399
36458W        W95895  39.384  29.533   4.636
36459W        W95896  44.461  29.130  14.798
36460W        W95897   9.836  40.008   4.720
36461W        W95898   2.820   4.810   4.702
36462W        W95899   2.891  32.905   3.713
36463W        W95900  32.525  16.139   3.758
36464W        W95901  39.544   5.237   2.187
36465W        W95902   8.716  25.007   2.730
36466W        W95903  32.029  16.309  11.899
36467W        W95904  22.741  41.407  12.479
36468W        W95905   8.816  14.811   4.745
36469W        W95906  29.924  35.932   4.712
36470W        W95907  37.547  18.752  10.993
36471W        W95908  35.419   2.916   1.811
36472W        W95909  27.020  37.390  13.498
36473W        W95910  31.977  30.128  13.955
36474W        W95911  11.357  34.964   4.686
36475W        W95912  31.143   0.275   3.175
36476W        W95913  11.849  22.149  14.516
36477W        W95914   3.818  12.762   5.575
36478W        W95915   3.430  22.158  13.888
36479W        W95916  40.980  30.589  10.945
36480W        W95917  41.359  41.879  13.402
36481W        W95918   2.939  26.013   0.301
36482W        W95919   1.316  42.973   1.925
36483W        W95920  16.182  24.479   1.733
36484W        W95921  23.019  20.699   0.917
36485W        W95922  44.906   8.165  12.929
36486W        W95923  13.124   0.493   2.834
36487W        W95924   6.868  31.973   4.788
36488W        W95925  19.260  39.545   1.805
36489W        W95926  39.061   8.329   2.818
36490W        W95927  17.241  16.569   2.829
36491W        W95928  41.482   8.857  13.457
36492W        W95929  15.802  32.525  11.875
36493W        W95930  44.926   7.305  11.474
36494W        W95931  12.242   9.242  11.923
36495W        W95932  26.488  31.952   2.898
36496W        W95933  41.468  41.950   0.866
36497W        W95934  10.828   1.286  14.965
36498W        W95935   8.682   1.763   0.388
36499W        W95936  21.110  33.502   5.200
36500W        W95937  12.614   8.892  13.546
36501W        W95938  42.909  21.646  13.898
36502W        W95939  42.844  26.559   3.684
36503W        W95940   8.773  39.468  13.536
36504W        W95941  40.524  19.628  12.547
36505W        W95942  32.097  33.129  11.938
36506W        W95943  19.116   5.310  12.855
36507W        W95944   4.351  14.753  13.514
36508W        W95945  31.918  17.302  14.500
36509W        W95946  13.685  26.074  13.422
36510W        W95947   3.278   2.444  12.856
36511W        W95948   6.221   8.265   0.325
36512W        W95949  37.497  18.727  11.453
36513W        W95950  31.580  11.631   2.900
36514W        W95951  32.569  10.862  13.023
36515W        W95952   4.379  30.475   2.806
36516W        W95953  26.176  19.696   0.772
36517W        W95954  20.202  27.612   2.795
36518W        W95955  44.945  11.665   1.746
36519W        W95956  19.561   2.289  12.946
36520W        W95957  21.138  37.066   4.178
36521W        W95958  30.926  31.970  14.785
36522W        W95959   7.189  29.551  14.366
36523W        W95960  16.118  20.203  14.290
36524W        W95961  11.300  20.198   2.798
36525W        W95962  42.814  10.368   5.298
36526W        W95963  15.288  11.777   1.778
36527W        W95964  20.597  20.245  13.320
36528W        W95965  17.630   3.269   1.278
36529W        W95966  14.817  25.993   0.964
36530W        W95967  36.097  37.896   3.710
36531W        W95968   3.406   1.346   4.713
36532W        W95969  38.344  11.650   3.732
36533W        W95970  26.968  10.774  14.792
36534W        W95971  35.940  10.875   3.635
36535W        W95972  43.424  15.606   2.876
36536W        W95973  19.219  20.223  13.397
36537W        W95974  42.317  23.724  12.539
36538W        W95975  14.773  39.997   3.375
36539W        W95976   5.822  24.519   0.455
36540W        W95977  10.149  36.894  11.547
36541W        W95978  27.520  30.485   1.406
36542W        W95979  15.699  33.041  14.842
36543W        W95980  27.651  22.654   5.192
36544W        W95981  31.580  16.703   2.364
36545W        W95982  28.622  34.111  14.479
36546W        W95983  13.339  34.867   2.754
36547W        W95984   9.159   4.852   2.897
36548W        W95985  17.089   2.904  10.890
36549W        W95986  15.692  19.617  14.439
36550W        W95987  44.319  38.864  10.475
36551W        W95988   0.872  29.931   2.794
36552W        W95989  27.455  37.046  14.417
36553W        W95990  23.729  40.967   4.315
36554W        W95991  10.675   0.873  13.824
36555W        W95992  21.019  33.598  11.513
36556W        W95993  11.733  10.344  14.971
36557W        W95994   6.863   4.232   3.634
36558W        W95995   8.281  24.225   0.746
36559W        W95996   2.890  19.050  11.555
36560W        W95997  23.108  39.329  12.923
36561W        W95998  29.169  42.457  14.285
36562W        W95999  37.059  28.183   2.825
36563W        W96000  23.203   9.842   4.612
36564W        W96001  26.011  26.652   1.731
36565W        W96002  34.522   2.467   4.759
36566W        W96003  38.337  13.796   4.678
36567W        W96004  12.332  41.951   0.332
36568W        W96005  15.186   6.313  14.011
36569W        W96006  11.320  29.468  10.913
36570W        W96007  36.079  27.474  10.955
36571W        W96008  28.932   8.689   3.219
36572W        W96009   8.189   9.294  14.876
36573W        W96010  35.902  21.247  13.003
36574W        W96011   2.948  36.090   0.305
36575W        W96012   0.890  19.284   4.261
36576W        W96013  25.538  10.247   1.929
36577W        W96014  35.381  28.450   1.276
36578W        W96015   0.949   7.295   4.779
36579W        W96016   9.244  40.985  13.386
36580W        W96017  21.618  25.612   1.275
36581W        W96018   3.421   8.878  11.884
36582W        W96019   9.250  19.073  13.431
36583W        W96020  44.268  34.424  14.012
36584W        W96021  33.043  11.130  12.968
36585W        W96022  21.056  35.384   0.884
36586W        W96023  10.848  33.502  13.839
36587W        W96024  44.936  26.676   0.419
36588W        W96025   6.850  21.181   4.331
36589W        W96026  38.537  14.307   0.839
36590W        W96027  15.095  36.566  10.519
36591W        W96028   1.957   9.854  11.388
36592W        W96029  14.657   2.947   0.295
36593W        W96030  10.756  14.194  12.029
36594W        W96031  36.006  16.081   0.959
36595W        W96032  35.945  23.180   4.144
36596W        W96033   7.812  39.818   1.236
36597W        W96034  10.770  26.680  12.825
36598W        W96035  42.362  26.041  10.616
36599W        W96036  28.660  43.906  11.548
36600W        W96037  31.502   3.749  13.852
36601W        W96038   4.818  10.850   1.745
36602W        W96039  28.003  22.026   0.318
36603W        W96040  27.183  24.534   3.849
36604W        W96041  25.980   7.192  12.380
36605W        W96042  34.425  23.133   1.904
36606W        W96043  15.187   4.294   3.732
36607W        W96044  33.915  36.854  14.024
36608W        W96045   0.872  29.563   1.886
36609W        W96046   4.844  17.796  10.944
36610W        W96047   1.892  16.730   1.762
36611W        W96048  10.331  33.034   4.662
36612W        W96049  28.529  36.847   4.160
36613W        W96050  24.184  32.456   2.272
36614W        W96051  10.732  14.118  14.760
36615W        W96052  28.655  43.423   1.807
36616W        W96053  41.038  22.227   4.675
36617W        W96054   5.900  13.647   1.240
36618W        W96055  37.435  10.872  13.380
36619W        W96056   9.312  11.831   1.325
36620W        W96057   6.405  39.811  11.008
36621W        W96058  13.693   3.250  12.076
36622W        W96059  22.662  44.952   1.292
36623W        W96060  43.428  16.649  14.294
36624W        W96061  28.654  21.035  12.996
36625W        W96062  27.077  18.245   1.896
36626W        W96063   8.393  14.637   2.854
36627W        W96064  15.631  32.043   1.902
36628W        W96065  38.550  29.066   4.756
36629W        W96066  26.494  36.058  14.507
36630W        W96067   6.265  43.972   2.352
36631W        W96068  17.115   0.346   3.774
36632W        W96069  21.054  34.529  10.098
36633W        W96070  21.130  31.954   5.313
36634W        W96071  40.960   3.441   0.284
36635W        W96072  32.604  42.801  11.910
36636W        W96073   1.802  34.022  14.781
36637W        W96074   2.924  26.480  13.950
36638W        W96075  35.449  16.757  12.363
36639W        W96076  14.811  34.958  11.543
36640W        W96077  25.485  39.477   4.657
36641W        W96078  18.266  28.593  12.979
36642W        W96079  22.623  40.528   1.836
36643W        W96080   1.338  17.760  12.477
36644W        W96081  30.619  39.008   2.842
36645W        W96082  29.944   8.272   4.192
36646W        W96083  20.661  13.292   3.347
36647W        W96084  37.383   7.346   0.409
36648W        W96085  10.706  25.664  14.477
36649W        W96086  29.942  30.567  12.040
36650W        W96087  17.141  25.126   5.244
36651W        W96088  26.010  24.549  11.032
36652W        W96089  34.471  23.496  14.484
36653W        W96090  20.097   4.831   2.859
36654W        W96091  40.020  23.147  14.332
36655W        W96092  16.628  31.984  11.410
36656W        W96093   1.422  16.143  11.886
36657W        W96094  27.508   3.254  10.428
36658W        W96095  35.917  26.645  11.919
36659W        W96096  27.522  12.775  13.808
36660W        W96097  24.194  38.899  11.555
36661W        W96098   6.341  40.505   0.444
36662W        W96099   1.796  24.530  14.287
36663W        W96100  18.132  14.245  13.859
36664W        W96101  14.593  22.022   1.796
36665W        W96102  14.278  35.458  12.051
36666W        W96103   0.830  23.656  14.303
36667W        W96104   4.429   0.316  10.522
36668W        W96105  13.179   1.372   0.324
36669W        W96106  28.577  17.071   0.377
36670W        W96107   1.357   0.434  13.358
36671W        W96108  28.116  10.694   5.159
36672W        W96109  40.802  16.212  13.847
36673W        W96110  24.042  44.400   0.302
36674W        W96111  43.315  33.919  12.007
36675W        W96112  17.556   6.402   3.158
36676W        W96113  10.268  32.013   4.818
36677W        W96114  10.755   9.765  10.404
36678W        W96115  42.841   4.344   0.356
36679W        W96116  33.899  29.433   4.603
36680W        W96117  38.480   9.680   1.867
36681W        W96118  36.905  38.039  13.982
36682W        W96119  27.666   8.887  12.354
36683W        W96120  42.420  14.688  11.448
36684W        W96121  19.065  22.034   1.770
36685W        W96122  41.926  24.718   3.342
36686W        W96123  12.757   1.867   3.167
36687W        W96124  38.858  37.020   1.762
36688W        W96125   9.680  13.243   0.430
36689W        W96126  34.557  42.425   0.249
36690W        W96127  36.977  19.042  10.963
36691W        W96128  14.300  10.181   0.795
36692W        W96129  16.619   4.349  13.843
36693W        W96130   7.400  25.678   3.384
36694W        W96131   0.746  32.477  14.793
36695W        W96132  24.607  24.669   3.634
36696W        W96133  34.069  10.151  13.417
36697W        W96134  28.472  10.261  13.331
36698W        W96135  13.335  26.550   5.173
36699W        W96136  34.423  39.909  12.405
36700W        W96137  34.572   9.854  12.028
36701W        W96138  10.160   1.406   0.899
36702W        W96139  14.172  41.322   3.707
36703W        W96140  30.997  39.928  13.444
36704W        W96141  34.591   0.900  13.367
36705W        W96142  36.000  11.335   1.869
36706W        W96143  36.028  27.951   2.367
36707W        W96144  18.669  27.175   0.292
36708W        W96145  17.170  43.298   4.636
36709W        W96146  11.295  25.165  12.870
36710W        W96147  41.943  38.960  12.043
36711W        W96148  31.566  25.155   2.722
36712W        W96149   7.282  41.979   4.115
36713W        W96150  43.843  38.524   4.141
36714W        W96151   2.340  38.920  14.975
36715W        W96152   8.349  31.601  13.337
36716W        W96153  11.712   8.662  14.900
36717W        W96154   2.812  13.301   2.324
36718W        W96155  15.239  43.805  12.537
36719W        W96156  19.231  26.475   5.170
36720W        W96157  33.031  14.777   0.819
36721W        W96158  17.783  44.980   5.203
36722W        W96159   2.330  13.704  12.028
36723W        W96160  42.524  38.469   3.295
36724W        W96161  22.663   8.173  10.563
36725W        W96162  26.693  15.591  14.995
36726W        W96163  15.710  33.079   3.753
36727W        W96164  25.992   6.418  12.081
36728W        W96165  10.753   7.716  12.435
36729W        W96166  34.592   1.288  14.015
36730W        W96167   8.660   9.765   0.268
36731W        W96168  31.095   1.239  12.949
36732W        W96169   7.742  36.931  14.928
36733W        W96170  21.046  25.613   2.711
36734W        W96171  26.061  22.135   1.276
36735W        W96172  14.328   1.851  13.471
36736W        W96173  32.581  11.638  14.980
36737W        W96174   2.305  32.544  12.955
36738W        W96175   7.298  38.987  10.466
36739W        W96176  35.863  41.333   0.829
36740W        W96177  18.201  25.094   3.373
36741W        W96178  26.689  10.380   2.714
36742W        W96179  32.046  43.412  12.828
36743W        W96180  44.337  16.210  11.000
36744W        W96181  30.120  25.183  14.011
36745W        W96182  18.765  32.996  14.351
36746W        W96183   6.706  33.577   1.449
36747W        W96184   2.831  37.961   5.745
36748W        W96185   5.202   0.807  13.982
36749W        W96186  39.549   4.711   2.838
36750W        W96187   7.717   9.765  12.049
36751W        W96188  14.633  13.699   1.696
36752W        W96189  15.761  16.627  10.056
36753W        W96190  24.001   9.647   2.851
36754W        W96191  29.644  24.213  13.958
36755W        W96192  17.237  41.357  14.367
36756W        W96193   1.436   7.318   4.302
36757W        W96194  36.526  27.549   4.235
36758W        W96195  16.634  12.704   3.208
36759W        W96196  34.478  10.805   4.320
36760W        W96197  28.983   8.827   4.766
36761W        W96198  40.854  40.315   2.289
36762W        W96199  21.128  40.466  14.915
36763W        W96200  29.134  25.618   4.351
36764W        W96201   5.359   6.852  11.996
36765W        W96202  22.124  31.550   1.888
36766W        W96203  35.512  26.510   0.823
36767W        W96204  40.891  24.096   0.337
36768W        W96205   1.411  15.284  13.873
36769W        W96206  30.453  37.927  12.569
36770W        W96207  16.641  17.685   2.707
36771W        W96208  36.083  30.440   1.841
36772W        W96209   3.387  39.892   2.822
36773W        W96210  36.023  39.825  10.144
36774W        W96211   1.909  42.947  11.998
36775W        W96212  34.461   2.443  13.841
36776W        W96213  30.574  26.165   2.843
36777W        W96214  16.267   3.806  11.003
36778W        W96215   6.189   6.701   4.805
36779W        W96216  26.627  28.463  11.939
36780W        W96217  29.101  31.142  10.995
36781W        W96218  23.139  32.627   0.340
36782W        W96219  34.089   9.216  11.459
36783W        W96220  28.933  44.879   4.290
36784W        W96221  19.579  10.190  10.989
36785W        W96222   8.168  44.286   3.746
36786W        W96223  18.185  36.562   2.750
36787W        W96224  37.358   7.275  12.435
36788W        W96225  26.013   0.358  12.891
36789W        W96226  41.851  17.088  14.323
36790W        W96227  14.107  36.363   0.913
36791W        W96228  20.688  17.144   5.701
36792W        W96229  16.103   6.902  14.990
36793W        W96230  33.978  15.623  13.538
36794W        W96231   0.979  14.175   0.796
36795W        W96232  11.630  36.529  11.579
36796W        W96233   2.472   2.891  14.813
36797W        W96234  17.645  23.553  13.364
36798W        W96235   3.274  41.336   3.811
36799W        W96236  39.001   9.220   0.800
36800W        W96237   8.886  21.622   0.772
36801W        W96238   3.873  32.978   2.404
36802W        W96239   7.247  22.598  12.957
36803W        W96240  26.588  11.856  11.957
36804W        W96241   6.885  32.137  10.546
36805W        W96242  16.252  40.322   1.328
36806W        W96243  13.106  25.122   0.426
36807W        W96244  19.099  39.922   5.772
36808W        W96245   8.263   8.329   1.776
36809W        W96246  34.439   4.300  13.864
36810W        W96247  24.692  26.493  10.569
36811W        W96248  44.391  23.671   3.742
36812W        W96249  44.469  31.001   1.799
36813W        W96250  26.562   1.822   2.796
36814W        W96251  41.293  34.958   0.839
36815W        W96252  25.640  40.047  13.003
36816W        W96253  40.310  10.221  13.844
36817W        W96254  27.651  37.996  10.139
36818W        W96255  27.689  19.138   4.804
36819W        W96256  30.118  24.010  12.558
36820W        W96257  36.350  29.099   2.864
36821W        W96258  33.467  23.201   2.413
36822W        W96259  41.990  34.615   2.334
36823W        W96260  18.668   4.786  12.469
36824W        W96261   2.451  18.289   2.188
36825W        W96262  31.924  41.484  13.373
36826W        W96263  36.496  37.535  10.497
36827W        W96264  26.033  26.137  13.541
36828W        W96265  33.391  14.646   2.185
36829W        W96266  14.659  33.534   4.120
36830W        W96267  16.611  18.281   2.415
36831W        W96268   9.345  19.068   4.794
36832W        W96269  30.115  33.029   3.320
36833W        W96270   1.457  32.426   2.411
36834W        W96271   6.695  15.604   4.764
36835W        W96272  16.599  24.000   2.749
36836W        W96273  41.380  14.671  11.055
36837W        W96274   5.381  41.307   1.440
36838W        W96275  23.577  11.266   9.592
36839W        W96276  44.959  19.122   2.863
36840W        W96277   6.277  29.530  14.462
36841W        W96278  33.452   8.657   2.237
36842W        W96279  29.003  13.325   0.414
36843W        W96280   2.423  38.334  11.035
36844W        W96281  35.048   0.806   3.165
36845W        W96282   4.386  21.200  11.961
36846W        W96283   8.226  14.767  12.049
36847W        W96284  15.198   9.241   2.715
36848W        W96285   0.927   7.183   0.351
36849W        W96286   5.348  37.492  11.888
36850W        W96287  20.565  12.827  13.808
36851W        W96288   6.213  14.132   2.365
36852W        W96289  19.534  23.149  10.448
36853W        W96290  44.456  36.475   2.800
36854W        W96291  23.633  36.873   4.340
36855W        W96292   2.756   6.793  14.390
36856W        W96293  38.425  28.974   0.729
36857W        W96294  31.442  28.548  14.304
36858W        W96295  20.669  36.055   1.230
36859W        W96296  19.719  23.582  12.404
36860W        W96297   6.402  36.491  13.466
36861W        W96298   4.907  27.957   1.887
36862W        W96299  10.792  34.076  14.952
36863W        W96300  10.273   2.237  14.414
36864W        W96301   9.658   9.734   2.194
36865W        W96302  20.626  31.646   0.824
36866W        W96303  42.406   0.935  11.435
36867W        W96304  19.088  34.603  14.798
36868W        W96305   8.345  17.558  14.440
36869W        W96306  32.011  23.721  13.811
36870W        W96307  39.916  36.586  11.953
36871W        W96308   7.799  38.430  11.460
36872W        W96309  19.164  26.609  10.495
36873W        W96310  38.901  29.039  12.001
36874W        W96311  29.950  16.681   2.204
36875W        W96312  42.515   8.787   1.230
36876W        W96313  33.099  32.396   0.251
36877W        W96314  21.028   0.357  13.040
36878W        W96315  13.606  32.914   0.361
36879W        W96316  40.819  18.154   1.350
36880W        W96317   2.461  15.791  12.018
36881W        W96318  35.035  25.553  14.511
36882W        W96319  32.996  33.105   1.369
36883W        W96320  23.187   8.395   1.394
36884W        W96321  18.674  18.142   4.283
36885W        W96322  24.648  25.526  11.094
36886W        W96323  37.040   3.907  12.062
36887W        W96324   9.237  38.324   1.916
36888W        W96325  37.460  30.534   4.768
36889W        W96326  12.681  37.006   4.824
36890W        W96327  42.996   3.373  13.373
36891W        W96328   5.701  18.220   3.147
36892W        W96329  19.752  10.670  12.531
36893W        W96330  31.494  27.525   9.649
36894W        W96331  34.518   2.343  13.497
36895W        W96332   6.739  16.075   0.760
36896W        W96333   8.397  21.659   0.367
36897W        W96334  19.236  17.621  10.500
36898W        W96335  32.952  44.838   0.862
36899W        W96336  11.850  23.152  12.995
36900W        W96337  26.561  11.176  14.025
36901W        W96338  41.041  17.178  10.461
36902W        W96339  19.082  31.588  10.580
36903W        W96340  24.213  33.989   1.426
36904W        W96341  32.975  28.627   2.899
36905W        W96342  21.221  11.276   4.176
36906W        W96343  11.299   7.213   4.746
36907W        W96344  39.558  12.716   3.832
36908W        W96345  33.511   0.304  10.463
36909W        W96346   3.709  37.520   4.718
36910W        W96347  41.327   3.313  13.474
36911W        W96348   7.175  37.499  10.940
36912W        W96349   1.239  39.063  13.902
36913W        W96350  31.643  44.766  14.451
36914W        W96351  42.963  44.366   1.844
36915W        W96352  28.635  28.587   0.730
36916W        W96353  33.008   3.726  11.031
36917W        W96354  22.171  16.755  13.540
36918W        W96355   8.281  24.582   0.761
36919W        W96356  34.596   2.808   3.302
36920W        W96357  28.110   6.378  14.283
36921W        W96358  44.918   4.811   2.664
36922W        W96359   8.848  22.733  13.834
36923W        W96360   5.315   4.740  14.469
36924W        W96361  12.153  22.533   2.692
36925W        W96362   9.167   9.649   2.246
36926W        W96363  28.453  10.739   1.747
36927W        W96364  13.262  44.755  12.006
36928W        W96365  39.418  40.844   1.805
36929W        W96366   4.935  24.622  11.101
36930W        W96367  16.605  17.755  11.023
36931W        W96368  23.097  19.594   2.236
36932W        W96369  10.824   6.186   2.281
36933W        W96370   9.869  36.921   3.205
36934W        W96371   6.689  16.139  12.868
36935W        W96372  21.091   8.810  12.501
36936W        W96373  16.213  10.259  12.889
36937W        W96374   2.276  22.743  14.375
36938W        W96375  28.984  42.289  10.981
36939W        W96376  38.956  11.345  13.968
36940W        W96377  23.149   7.355   0.866
36941W        W96378   0.490  12.184   2.871
36942W        W96379  38.378  32.521  14.390
36943W        W96380   3.307  33.479   0.913
36944W        W96381   0.911  17.559  12.373
36945W        W96382  18.229   5.833   1.743
36946W        W96383  19.678  41.954   4.713
36947W        W96384   2.384   3.938  11.518
36948W        W96385  44.999   4.266  14.454
36949W        W96386  30.143  27.545  14.942
36950W        W96387   4.888   6.855  13.447
36951W        W96388  39.012  26.019  14.027
36952W        W96389   0.944  31.897  12.087
36953W        W96390   8.202  44.293  10.154
36954W        W96391  32.923  27.510  14.819
36955W        W96392  39.004  10.659  11.452
36956W        W96393   9.752  39.321  14.839
36957W        W96394  22.650   5.856   1.888
36958W        W96395  43.389  43.798  14.878
36959W        W96396  28.124  41.532  14.762
36960W        W96397   5.745  11.637   0.786
36961W        W96398  34.097  42.326  13.329
36962W        W96399  22.125  26.952  10.619
36963W        W96400  29.050  17.130   1.742
36964W        W96401  29.092   1.759   1.825
36965W        W96402  26.124  15.688  10.949
36966W        W96403  43.779  42.481   4.744
36967W        W96404  40.862   4.381   4.726
36968W        W96405  29.448  21.615  13.347
36969W        W96406  20.187  14.636  14.320
36970W        W96407  24.614  31.419  12.828
36971W        W96408  42.338  11.226   4.203
36972W        W96409  11.263  41.985  12.493
36973W        W96410  30.430  15.604   2.869
36974W        W96411  30.652  39.313   0.838
36975W        W96412  26.964  31.902   1.778
36976W        W96413  11.350  44.762   3.670
36977W        W96414  20.242  41.513  14.811
36978W        W96415  23.507  33.949  12.453
36979W        W96416  36.949  44.781  13.484
36980W        W96417  17.219  34.611  10.911
36981W        W96418   4.728  22.232  13.472
36982W        W96419  23.231  30.161  11.382
36983W        W96420  24.996  28.532   3.338
36984W        W96421  27.608  30.431   3.362
36985W        W96422   8.276   4.728  13.002
36986W        W96423  42.507  37.450   4.831
36987W        W96424   3.897  11.367   2.337
36988W        W96425   7.369  20.745  14.313
36989W        W96426   3.287   2.732   0.461
36990W        W96427  20.601  20.675   0.391
36991W        W96428  33.562   8.274   3.798
36992W        W96429   9.854  27.617  12.875
36993W        W96430  36.856  26.190   4.599
36994W        W96431  41.939  21.247  10.417
36995W        W96432   9.269   2.352   0.401
36996W        W96433  32.106   1.832   2.380
36997W        W96434   7.208  28.970   2.379
36998W        W96435  33.593  19.543   2.661
36999W        W96436  33.904  37.038   5.664
37000W        W96437   1.808  28.046   4.708
37001W        W96438  29.463  17.699   2.722
37002W        W96439   4.411  31.101  13.879
37003W        W96440  42.368  29.475  11.087
37004W        W96441   8.675  26.142  12.918
37005W        W96442  41.000   7.222  13.890
37006W        W96443  32.943  31.401  14.839
37007W        W96444  37.356  31.907   1.279
37008W        W96445   8.797   0.305  10.102
37009W        W96446  13.780  38.428   3.761
37010W        W96447  41.868  40.805   2.403
37011W        W96448  11.689  16.601   4.285
37012W        W96449  22.136   4.943  14.812
37013W        W96450  41.838  28.008   3.156
37014W        W96451  30.630  33.392   1.862
37015W        W96452  11.320  39.369   0.913
37016W        W96453   7.179  37.083  11.436
37017W        W96454  16.076   2.272  10.608
37018W        W96455   1.852   4.914   1.357
37019W        W96456  31.484  27.641  11.044
37020W        W96457  35.963   2.241   1.432
37021W        W96458   4.426  37.356  11.405
37022W        W96459  24.185  23.734  13.033
37023W        W96460  43.932  14.622  12.061
37024W        W96461  18.051   5.409  13.491
37025W        W96462  10.648   4.269  10.456
37026W        W96463  18.149  35.019  11.883
37027W        W96464  44.323  17.581   2.772
37028W        W96465  29.614  37.564  13.834
37029W        W96466  24.545  16.640  10.994
37030W        W96467  34.063  29.495  11.534
37031W        W96468  34.942  17.602   0.274
37032W        W96469  30.120   2.303  12.050
37033W        W96470  18.143  29.160  14.028
37034W        W96471   1.281  12.734  12.520
37035W        W96472   9.828  23.178  14.391
37036W        W96473  22.626  38.436   3.836
37037W        W96474   9.153  35.381   2.224
37038W        W96475  39.974  19.138  13.815
37039W        W96476  28.571  28.039   2.284
37040W        W96477   3.826  10.697   2.701
37041W        W96478   6.775  17.113  13.442
37042W        W96479  26.682  12.166   3.330
37043W        W96480  28.458   6.206  10.593
37044W        W96481   3.830  25.706   4.637
37045W        W96482  36.950  30.122   0.946
37046W        W96483  37.000  28.182  12.457
37047W        W96484   5.758  23.993  10.500
37048W        W96485  26.006  35.367   0.477
37049W        W96486  10.205   1.241  14.386
37050W        W96487  41.452  41.023  13.810
37051W        W96488  19.188  34.092   2.275
37052W        W96489   5.894  18.694   3.355
37053W        W96490   3.922  21.192  11.380
37054W        W96491   6.891  10.248   2.235
37055W        W96492   0.440  18.667   3.808
37056W        W96493  17.588  14.785   1.283
37057W        W96494   0.360  24.509  12.520
37058W        W96495   9.203  27.542  11.472
37059W        W96496  36.896  37.480  13.427
37060W        W96497  24.523  10.750  13.468
37061W        W96498   3.761  40.936   3.197
37062W        W96499  42.353  14.150   1.914
37063W        W96500  42.285  14.687   4.303
37064W        W96501  24.673  32.467  11.950
37065W        W96502  29.543   6.250   2.814
37066W        W96503  11.759  26.023   1.364
37067W        W96504  15.769  25.065  12.372
37068W        W96505  41.480  22.073  14.985
37069W        W96506   8.859  40.357   0.877
37070W        W96507   5.424  38.887   1.264
37071W        W96508  35.549  16.661   0.401
37072W        W96509  25.670  15.163   2.755
37073W        W96510  23.097  23.988  12.531
37074W        W96511  17.197  34.913  11.469
37075W        W96512  10.711  40.985   1.326
37076W        W96513  30.053   1.846   0.361
37077W        W96514  34.584  31.910  14.382
37078W        W96515  32.440  30.912   1.393
37079W        W96516  28.526   1.832  11.056
37080W        W96517  28.524   3.910  13.309
37081W        W96518   5.344  16.718  12.072
37082W        W96519  32.534   4.322   3.853
37083W        W96520  11.629   0.913   5.193
37084W        W96521  12.355   7.736   2.255
37085W        W96522   8.388  20.629  13.017
37086W        W96523  32.996  28.175   3.751
37087W        W96524  15.194  32.524   4.261
37088W        W96525  36.454  36.899  13.969
37089W        W96526  39.468   4.778   0.433
37090W        W96527  19.563  29.111   4.674
37091W        W96528  28.112  25.502  14.424
37092W        W96529  36.844  10.275   0.909
37093W        W96530  38.476  16.119  14.924
37094W        W96531  43.018   8.846  14.931
37095W        W96532  15.770  37.566   0.839
37096W        W96533  33.969  34.964   0.301
37097W        W96534  39.498  11.232   3.811
37098W        W96535   6.230  22.541  10.466
37099W        W96536  28.160  28.556  14.962
37100W        W96537  33.569  20.642  10.085
37101W        W96538  12.246  24.206  11.964
37102W        W96539  36.427   6.731  12.841
37103W        W96540   1.354  31.596  13.956
37104W        W96541  18.164  13.280  14.391
37105W        W96542  11.274  14.106  11.611
37106W        W96543  30.936  34.561   2.696
37107W        W96544  11.266  35.389   0.766
37108W        W96545  36.969   7.856  14.931
37109W        W96546  19.260   2.385   1.837
37110W        W96547  29.651  20.684   1.907
37111W        W96548  39.440  40.799   4.771
37112W        W96549  28.635   1.389  14.021
37113W        W96550   8.394  31.058  10.639
37114W        W96551  30.633  33.991   1.907
37115W        W96552  12.685   7.870  11.610
37116W        W96553   6.341  38.455  12.844
37117W        W96554  38.819   1.461  12.511
37118W        W96555  14.780  18.093  11.392
37119W        W96556  14.821  21.244  11.596
37120W        W96557  10.861  26.548  14.820
37121W        W96558  37.428  37.950  13.497
37122W        W96559  43.466   5.195   1.757
37123W        W96560  31.989  24.640   2.290
37124W        W96561  26.181  15.203   3.814
37125W        W96562  15.242  11.811   3.727
37126W        W96563   3.863   3.874  14.314
37127W        W96564  33.029  36.390   1.712
37128W        W96565  43.903  15.231  12.845
37129W        W96566  42.464  32.933  12.465
37130W        W96567  14.612  18.578  13.008
37131W        W96568  28.984  36.472   4.816
37132W        W96569  34.594   5.765   4.184
37133W        W96570   0.818   8.867   1.396
37134W        W96571  23.557  17.632   3.719
37135W        W96572  25.140  23.190  12.532
37136W        W96573  44.004  26.527   2.748
37137W        W96574   2.452   1.911   3.629
37138W        W96575  39.059  13.258   3.783
37139W        W96576   3.762  39.903   0.787
37140W        W96577  21.250  40.391   3.712
37141W        W96578  34.083  31.115   4.715
37142W        W96579  12.147  31.996   3.691
37143W        W96580  19.179  26.150  11.888
37144W        W96581  13.177  21.684  13.540
37145W        W96582   2.260  26.022   4.218
37146W        W96583  20.158  28.536   2.262
37147W        W96584   2.354  18.179   2.807
37148W        W96585   6.319  32.136   3.637
37149W        W96586  14.759  33.485  14.988
37150W        W96587  15.268  42.519   1.310
37151W        W96588  41.975  18.753  12.983
37152W        W96589  25.019   2.340  12.404
37153W        W96590  10.762  34.501   1.914
37154W        W96591  18.100  24.624  12.546
37155W        W96592   5.911  14.265  12.830
37156W        W96593  26.001  40.454  14.979
37157W        W96594  25.553  32.941  10.556
37158W        W96595  31.527  14.219  11.939
37159W        W96596  40.500   1.348   2.872
37160W        W96597  25.141  15.726  14.386
37161W        W96598   1.768   4.713   4.758
37162W        W96599  43.360  31.951  11.116
37163W        W96600  29.132  37.400   0.311
37164W        W96601  25.016  11.750   2.344
37165W        W96602  36.082  28.565  11.541
37166W        W96603  26.543  19.537  12.398
37167W        W96604  13.160   3.429   4.741
37168W        W96605   5.356  24.710  14.821
37169W        W96606   0.414  16.079  13.434
37170W        W96607  27.177  25.191  11.542
37171W        W96608  15.682  14.795  12.398
37172W        W96609   1.258  24.189   3.296
37173W        W96610  39.923  39.545  11.606
37174W        W96611  15.142  26.670  13.332
37175W        W96612  40.887   2.229  12.972
37176W        W96613  20.726  11.221  13.858
37177W        W96614  24.641  38.372   0.392
37178W        W96615  41.936  28.029  11.955
37179W        W96616  13.608  37.985   2.812
37180W        W96617  23.205  31.016   4.323
37181W        W96618  26.642  33.499   4.662
37182W        W96619  11.795  28.549  14.451
37183W        W96620  39.497   3.410   0.797
37184W        W96621   7.836  30.468  10.063
37185W        W96622  23.072   0.976   3.652
37186W        W96623  22.102  14.748   0.457
37187W        W96624   2.317  43.444  11.524
37188W        W96625  43.356   2.903  10.990
37189W        W96626  34.540   8.375   3.720
37190W        W96627  17.751  10.306  12.925
37191W        W96628  38.454  16.246   4.748
37192W        W96629   4.710  12.270  11.573
37193W        W96630  42.947  28.164  10.640
37194W        W96631  42.291  25.069   2.743
37195W        W96632  41.984  26.120  11.570
37196W        W96633  41.387  20.085  12.526
37197W        W96634  19.627   2.393  13.446
37198W        W96635  23.503  37.977  14.396
37199W        W96636  15.263   3.821  11.944
37200W        W96637  13.325   7.403   1.356
37201W        W96638  13.311  41.372  10.039
37202W        W96639  36.959  19.772   1.803
37203W        W96640  22.208   3.258   2.749
37204W        W96641  34.524  18.675  14.512
37205W        W96642  32.919   3.835  12.508
37206W        W96643   4.881   4.387   3.864
37207W        W96644  40.351  43.865   1.360
37208W        W96645  36.422   6.420  13.996
37209W        W96646  22.217   5.880  11.534
37210W        W96647   2.774  41.826   3.824
37211W        W96648  15.186  31.504   2.890
37212W        W96649  30.655  17.076  14.468
37213W        W96650   7.827  32.506   0.301
37214W        W96651   0.287  41.344  11.542
37215W        W96652  37.430  40.055   1.314
37216W        W96653  24.679  19.268  12.560
37217W        W96654  19.111  24.102   2.285
37218W        W96655  22.162  16.812   2.700
37219W        W96656  19.657  43.359   0.283
37220W        W96657   9.646  44.384   2.208
37221W        W96658   7.777   0.852   1.417
37222W        W96659  16.604   8.322   4.307
37223W        W96660  40.881   2.352  12.561
37224W        W96661  43.003  29.939   3.808
37225W        W96662   7.874   8.713  12.392
37226W        W96663  11.681  28.589  12.010
37227W        W96664  12.321   1.386   0.955
37228W        W96665  44.898  18.151  11.932
37229W        W96666  26.670   9.212   3.357
37230W        W96667  12.313  13.805   3.242
37231W        W96668  27.511  39.812  13.417
37232W        W96669   1.446  40.840  13.004
37233W        W96670  13.654  10.764   1.420
37234W        W96671   7.323  30.560  14.364
37235W        W96672  13.704  33.942  14.465
37236W        W96673  34.507  27.692   4.820
37237W        W96674   7.199  32.922   1.248
37238W        W96675  37.045  11.161  10.533
37239W        W96676   9.226  27.180   2.238
37240W        W96677  36.062  22.746   3.340
37241W        W96678  25.480  38.884   3.720
37242W        W96679  13.157  11.719  14.328
37243W        W96680  17.731   5.833  14.423
37244W        W96681  32.998   2.875  12.862
37245W        W96682  43.302  28.655  14.999
37246W        W96683  12.695   2.242  12.020
37247W        W96684   5.717  19.041  11.440
37248W        W96685  42.791  32.423  11.605
37249W        W96686   3.847  39.519   1.815
37250W        W96687   5.701  34.536  14.305
37251W        W96688  33.489  43.802  14.356
37252W        W96689   2.927   6.901  11.887
37253W        W96690  12.131  24.104   1.361
37254W        W96691  41.862  33.116  11.984
37255W        W96692   0.794  11.799  10.939
37256W        W96693  37.840  26.545   2.180
37257W        W96694  34.910   0.409   4.120
37258W        W96695  12.287   3.363  10.974
37259W        W96696  10.246  36.039  10.071
37260W        W96697  30.157  20.522  13.882
37261W        W96698   4.831  15.658  11.946
37262W        W96699  26.193  19.706   4.773
37263W        W96700  39.046  35.588   2.340
37264W        W96701  33.043  28.545  14.880
37265W        W96702  41.304  12.241  13.339
37266W        W96703  12.658   3.841   1.290
37267W        W96704   7.770  12.838  12.466
37268W        W96705  28.104  12.170  10.428
37269W        W96706  15.176  37.992  13.450
37270W        W96707  13.843  33.088  13.838
37271W        W96708   8.393  39.440   1.789
37272W        W96709   1.333  16.103   9.970
37273W        W96710   9.823  37.017   2.178
37274W        W96711  33.960  13.749   4.824
37275W        W96712  16.291  39.320  13.801
37276W        W96713  15.245  15.605   4.813
37277W        W96714  16.302  39.539  14.504
37278W        W96715   1.735   5.285  12.895
37279W        W96716  27.951  10.198   4.788
37280W        W96717  24.553  35.566   2.714
37281W        W96718   1.473  37.368   2.204
37282W        W96719  13.769   1.835   1.421
37283W        W96720  19.681  38.392  13.345
37284W        W96721  44.910   0.981  13.387
37285W        W96722   8.165  24.490  13.350
37286W        W96723   8.769   7.735  13.015
37287W        W96724  35.388  39.020   0.811
37288W        W96725  14.816  15.671   2.843
37289W        W96726  20.663  14.110   0.454
37290W        W96727  28.666  19.754   4.755
37291W        W96728  13.143  42.395  11.895
37292W        W96729   8.796  20.647  13.336
37293W        W96730   8.852  28.007   0.335
37294W        W96731  26.144   9.390  13.979
37295W        W96732  20.058  29.123  13.379
37296W        W96733   0.938  17.588   4.274
37297W        W96734  44.454  26.954  11.942
37298W        W96735  26.457  29.637  14.427
37299W        W96736  14.599  19.066   0.296
37300W        W96737   7.304  21.697  11.371
37301W        W96738  28.485  42.982   3.181
37302W        W96739  36.032  35.987   1.935
37303W        W96740  28.578  34.995  12.451
37304W        W96741  26.964   1.328   3.653
37305W        W96742  37.021  21.750   3.710
37306W        W96743  23.079  33.415   3.291
37307W        W96744  30.473  28.601  12.340
37308W        W96745  41.381  42.464  14.785
37309W        W96746  17.119  10.246  11.438
37310W        W96747  21.127   2.909   4.195
37311W        W96748   3.813  27.466  10.414
37312W        W96749   8.799  16.142  13.431
37313W        W96750  22.215   6.780   4.622
37314W        W96751  20.147  33.972   4.736
37315W        W96752  10.352  29.540   1.357
37316W        W96753  31.977  14.745   4.745
37317W        W96754  29.485  41.014  14.847
37318W        W96755  21.661  17.121  12.856
37319W        W96756  18.724   5.218   1.737
37320W        W96757  12.335   5.718   0.800
37321W        W96758  25.552   6.883   2.247
37322W        W96759  39.960  32.412  13.839
37323W        W96760   5.210   5.701   3.344
37324W        W96761  37.485  30.583   4.162
37325W        W96762   8.181  13.837  11.489
37326W        W96763  27.501  21.536  14.995
37327W        W96764  26.638  20.653   4.354
37328W        W96765  25.997  35.966   4.127
37329W        W96766  15.186  37.883  11.956
37330W        W96767  38.459   6.372   1.320
37331W        W96768  31.053  17.107  14.989
37332W        W96769  23.113  36.002  14.827
37333W        W96770  24.594  26.640  11.000
37334W        W96771  26.467  20.083  14.294
37335W        W96772   9.803  35.392  11.087
37336W        W96773  31.418  29.657  10.426
37337W        W96774   0.882  18.159  14.497
37338W        W96775  21.628  40.032  10.495
37339W        W96776  41.812  18.238   2.324
37340W        W96777  14.160   1.465   1.386
37341W        W96778  16.230  42.921  12.839
37342W        W96779   2.227  19.052  14.425
37343W        W96780   1.831  14.792  11.549
37344W        W96781  12.242  19.682   0.837
37345W        W96782   2.396  33.609   2.692
37346W        W96783  21.079   0.447  11.432
37347W        W96784   7.402  14.298  11.439
37348W        W96785   5.756  11.739  11.557
37349W        W96786  12.291  28.611   4.349
37350W        W96787  18.766  33.595   2.865
37351W        W96788  40.940  44.480   2.280
37352W        W96789  36.410  20.087  14.937
37353W        W96790  37.924  41.908  12.998
37354W        W96791  24.079  14.799   3.694
37355W        W96792   9.326  37.421  12.926
37356W        W96793  26.602  15.209  11.998
37357W        W96794  23.692  23.990   0.382
37358W        W96795  43.959  22.688   3.662
37359W        W96796   8.273  26.630   1.275
37360W        W96797  21.546  32.020  10.644
37361W        W96798  19.578  32.597   3.213
37362W        W96799  20.534   3.313  11.607
37363W        W96800   2.256   7.283  10.509
37364W        W96801   4.438  39.327   0.832
37365W        W96802   8.208  28.112   2.831
37366W        W96803   7.284  13.310   1.260
37367W        W96804   6.695  18.779   4.718
37368W        W96805  12.610   8.346   0.364
37369W        W96806   3.379  32.535  13.438
37370W        W96807  26.031  36.939  13.876
37371W        W96808  22.666  28.041   3.825
37372W        W96809  11.669   4.735   2.409
37373W        W96810  16.621   5.711  11.459
37374W        W96811  17.646  32.419   2.705
37375W        W96812  26.029  40.876   0.474
37376W        W96813   8.316  25.535   3.771
37377W        W96814  28.153  42.508  14.382
37378W        W96815  38.918   0.451   2.208
37379W        W96816  11.776  11.704   1.382
37380W        W96817  38.842   7.777   1.871
37381W        W96818  29.470  40.324   4.772
37382W        W96819  27.596  39.855   2.799
37383W        W96820   6.895  40.857  10.918
37384W        W96821  38.958  21.610  14.970
37385W        W96822  42.298   9.167   3.273
37386W        W96823   0.342  20.648  13.978
37387W        W96824   5.758  19.542  12.042
37388W        W96825   2.767  21.576  11.977
37389W        W96826  43.915  37.533   0.950
37390W        W96827  27.631  43.385  13.324
37391W        W96828  16.687  43.767   3.203
37392W        W96829   2.292  23.047  13.811
37393W        W96830  29.565  15.155   4.679
37394W        W96831  44.491  37.907   4.604
37395W        W96832  40.891  28.933  13.961
37396W        W96833  31.112  37.422   3.649
37397W        W96834   4.322  15.749  13.928
37398W        W96835  42.330  20.561   4.158
37399W        W96836  23.202  20.528   1.760
37400W        W96837  11.207  36.050  13.045
37401W        W96838  25.186  28.066   1.439
37402W        W96839   1.749  27.684  12.034
37403W        W96840  23.064  44.760  12.865
37404W        W96841  37.028   2.277   2.758
37405W        W96842  42.845   8.325  13.456
37406W        W96843  31.492  32.925   4.652
37407W        W96844  22.042  23.150   2.852
37408W        W96845  14.273   4.735   5.202
37409W        W96846  38.894  26.526  12.422
37410W        W96847   1.887   3.796   4.268
37411W        W96848  30.412  40.546  11.600
37412W        W96849  34.549   1.265  13.447
37413W        W96850  39.527  34.953   3.828
37414W        W96851  11.695   7.312   3.184
37415W        W96852  43.464  37.868  10.924
37416W        W96853   9.663  17.094  14.911
37417W        W96854   5.325   0.754  13.034
37418W        W96855  26.009  10.150  10.463
37419W        W96856   0.494  11.661  14.000
37420W        W96857  31.122  26.644   2.216
37421W        W96858  43.512   5.735  13.965
37422W        W96859  22.635  20.538   0.343
37423W        W96860  32.626   3.284  14.905
37424W        W96861  42.842   5.815   4.642
37425W        W96862  21.546  12.198  12.515
37426W        W96863   6.827  42.900  14.895
37427W        W96864   9.166  43.892   2.741
37428W        W96865  29.939   2.322  14.465
37429W        W96866  30.512  24.664   0.737
37430W        W96867  36.409  40.461   0.445
37431W        W96868  32.618  33.955   3.374
37432W        W96869  11.304   6.210  14.830
37433W        W96870  31.524  30.584   4.343
37434W        W96871  40.506  37.921   4.680
37435W        W96872  19.079  12.197  11.947
37436W        W96873   8.886  30.030   3.168
37437W        W96874  36.902  21.614   0.774
37438W        W96875  13.800   9.703  10.918
37439W        W96876   6.186  41.501   3.284
37440W        W96877   3.874  40.331   0.372
37441W        W96878  32.610  37.940  12.579
37442W        W96879  35.529   1.308   1.709
37443W        W96880  14.141  26.600   3.806
37444W        W96881  36.580  42.336   1.797
37445W        W96882  44.762  39.537  14.976
37446W        W96883  34.065  38.997  14.005
37447W        W96884  31.495   7.171  10.542
37448W        W96885  38.355  18.599  12.856
37449W        W96886   8.376  43.924   0.411
37450W        W96887  44.924  33.947   3.686
37451W        W96888  13.282   8.708   4.836
37452W        W96889  10.665   1.877  14.836
37453W        W96890  13.659  16.232  14.813
37454W        W96891  43.875  31.071   0.298
37455W        W96892  43.996  44.953  11.863
37456W        W96893  33.558  36.940   2.783
37457W        W96894  30.033  23.104   2.182
37458W        W96895   6.400   4.699   3.238
37459W        W96896  36.906  12.156   0.767
37460W        W96897  39.419  31.959   4.349
37461W        W96898  22.725   6.787  11.002
37462W        W96899   4.382  26.051  13.469
37463W        W96900  18.709  42.938  12.386
37464W        W96901  12.236  16.643  14.397
37465W        W96902  24.178  42.432  13.345
37466W        W96903   5.238  15.271   0.371
37467W        W96904  35.881  14.140   3.633
37468W        W96905  35.367   4.375   0.950
37469W        W96906  41.339  15.259   4.636
37470W        W96907   3.951  31.483   1.220
37471W        W96908   7.895  39.455  14.984
37472W        W96909  15.636  21.661  12.055
37473W        W96910   9.352  15.172  14.980
37474W        W96911  15.105   2.405   0.364
37475W        W96912  18.567  44.952  11.056
37476W        W96913   9.163   4.300  10.497
37477W        W96914  24.706  31.590   0.853
37478W        W96915  19.189  18.746   0.889
37479W        W96916  10.314   9.773  12.411
37480W        W96917  41.992   9.193   3.852
37481W        W96918  28.652  27.487  11.882
37482W        W96919  32.989  11.658  14.836
37483W        W96920  28.097  31.023  13.506
37484W        W96921  30.427   8.656  11.475
37485W        W96922  25.116  38.501   2.319
37486W        W96923  12.227  14.329  11.399
37487W        W96924  19.651   5.688   1.352
37488W        W96925  34.040   4.391  13.907
37489W        W96926   8.854   0.416  13.906
37490W        W96927   9.825  34.474   1.807
37491W        W96928  21.636   1.812  14.895
37492W        W96929  34.425  17.075  10.932
37493W        W96930  41.420  25.985  12.359
37494W        W96931  37.914  34.477  11.610
37495W        W96932  44.003   6.290  12.095
37496W        W96933  23.144  25.156   3.676
37497W        W96934  37.848  23.640   0.285
37498W        W96935  21.228  17.799   1.920
37499W        W96936  10.734  12.701   3.169
37500W        W96937  10.320  42.281   0.444
37501W        W96938  22.513  10.295   4.212
37502W        W96939  39.981  14.617   1.914
37503W        W96940  16.583  28.028   3.821
37504W        W96941  18.622   0.957  10.415
37505W        W96942  41.368  39.444  14.939
37506W        W96943   4.291  12.181   3.709
37507W        W96944   5.370  35.592   3.757
37508W        W96945  14.750  38.394   2.807
37509W        W96946  17.801  22.507   3.732
37510W        W96947  18.118  20.084  13.888
37511W        W96948  38.510  26.567   0.339
37512W        W96949  29.095  27.570   2.850
37513W        W96950  17.588  18.746   2.218
37514W        W96951  28.956  18.720   3.807
37515W        W96952  19.640   9.762   0.830
37516W        W96953   0.889   0.776  14.473
37517W        W96954  22.142  17.742  13.952
37518W        W96955   4.808  33.519   5.236
37519W        W96956  43.891  17.699  12.898
37520W        W96957  15.083  28.003  14.469
37521W        W96958  19.563  34.994   1.771
37522W        W96959   2.350  24.652   2.277
37523W        W96960   0.254   8.204  14.311
37524W        W96961  20.607  21.050  12.095
37525W        W96962  22.066  37.970  13.522
37526W        W96963  21.019  17.784   5.160
37527W        W96964   9.762  40.883   3.165
37528W        W96965   6.907  41.790   1.827
37529W        W96966  15.193  31.484   4.262
37530W        W96967   1.407  30.978  11.593
37531W        W96968  37.413  23.570   4.348
37532W        W96969  39.822  23.651   3.196
37533W        W96970   6.834  26.503   3.757
37534W        W96971  23.214   3.878  10.981
37535W        W96972  43.983  44.422  12.496
37536W        W96973  40.881  27.073  14.351
37537W        W96974   2.818  43.301  14.305
37538W        W96975  42.937  36.862   0.795
37539W        W96976   7.711  30.529  10.640
37540W        W96977  25.037  19.157   3.194
37541W        W96978   4.802   0.962  12.345
37542W        W96979   6.397  19.135  11.538
37543W        W96980  39.946  44.343   4.314
37544W        W96981  43.385  33.545  11.061
37545W        W96982  15.327  44.390   3.280
37546W        W96983  30.622  21.690   5.265
37547W        W96984   5.401  38.900   3.772
37548W        W96985  27.567  28.586   2.311
37549W        W96986  34.012  34.963   2.717
37550W        W96987  10.719  29.428   4.192
37551W        W96988  20.105   6.248  11.478
37552W        W96989  36.590  29.010  10.575
37553W        W96990   7.351   5.749  14.885
37554W        W96991  19.554   2.895   4.764
37555W        W96992  36.592  39.059   4.624
37556W        W96993   2.383   8.306  11.587
37557W        W96994   6.271  43.480  10.413
37558W        W96995  19.590   2.876   4.225
37559W        W96996   4.234  20.098  13.004
37560W        W96997  10.156  16.130  14.780
37561W        W96998   8.724  10.168  14.030
37562W        W96999  10.280  33.599  12.849
37563W        W97000  41.518  29.606  12.071
37564W        W97001  14.737   0.436   3.683
37565W        W97002   0.382  29.636   2.887
37566W        W97003  33.530  42.967   2.324
37567W        W97004  37.375  16.128   3.809
37568W        W97005  20.716  30.970  13.487
37569W        W97006  27.595  32.087  13.899
37570W        W97007  11.714  16.673   1.214
37571W        W97008   6.894  30.041   9.949
37572W        W97009  19.645  32.900  13.989
37573W        W97010  27.667  22.734   3.845
37574W        W97011  41.033  27.577  13.871
37575W        W97012  40.477  25.668  12.546
37576W        W97013  41.873   9.697   3.856
37577W        W97014  29.561  15.580   3.162
37578W        W97015  20.689  27.007   1.248
37579W        W97016   2.865  22.721   1.888
37580W        W97017  26.658  22.573  12.024
37581W        W97018  29.150  29.102  14.413
37582W        W97019  40.953  17.248   3.755
37583W        W97020  17.658  21.086  12.544
37584W        W97021  16.170  32.038   3.338
37585W        W97022   9.164  31.514  13.978
37586W        W97023  23.188  22.033   2.347
37587W        W97024   7.888  33.876  14.000
37588W        W97025  38.359  26.952  11.055
37589W        W97026  26.584  37.437  12.544
37590W        W97027  15.804   8.858   2.687
37591W        W97028  20.223  38.932  10.916
37592W        W97029  23.682   9.684  13.327
37593W        W97030  39.497  13.311  14.890
37594W        W97031  36.961   0.753   2.777
37595W        W97032  30.961  12.611  11.005
37596W        W97033  21.167  20.124   0.902
37597W        W97034   8.808  32.457   0.257
37598W        W97035  16.114  31.974  11.421
37599W        W97036  37.450   2.335  10.458
37600W        W97037  14.212  10.144  13.931
37601W        W97038   2.343  31.125  14.866
37602W        W97039  20.068  39.036  14.509
37603W        W97040  11.259  31.626   1.870
37604W        W97041   3.398  29.618   0.889
37605W        W97042   8.818   7.235  10.038
37606W        W97043  32.919  24.539   1.275
37607W        W97044  22.704  18.707   5.097
37608W        W97045  23.175  33.547   1.882
37609W        W97046  27.487   9.828   2.326
37610W        W97047  36.902  32.133   2.247
37611W        W97048  41.329   5.331  11.589
37612W        W97049   2.248  38.897  11.401
37613W        W97050  43.491  43.302   4.640
37614W        W97051   5.919  34.118  14.346
37615W        W97052   3.272  12.629  13.892
37616W        W97053  25.624  42.907  13.816
37617W        W97054  27.055  29.475   0.858
37618W        W97055  31.979   3.855  10.432
37619W        W97056  33.392  10.376  12.007
37620W        W97057  20.585  36.581   2.276
37621W        W97058  19.113  20.613  11.981
37622W        W97059  19.623   3.914   2.705
37623W        W97060  25.147  15.140  12.872
37624W        W97061  30.918  33.880  12.066
37625W        W97062  37.955  22.084  12.383
37626W        W97063  29.963  44.838   2.777
37627W        W97064  35.893  34.567   1.788
37628W        W97065  23.192  41.942  11.975
37629W        W97066   4.350  29.069  13.472
37630W        W97067  11.842  44.472  13.437
37631W        W97068  40.867  35.561   1.328
37632W        W97069   9.760   7.343  10.951
37633W        W97070  37.878  34.873  14.014
37634W        W97071  16.100  15.156  12.989
37635W        W97072  13.824  36.556   4.206
37636W        W97073  18.239  19.549  13.417
37637W        W97074  36.925   8.840  12.933
37638W        W97075  29.427  11.833  11.116
37639W        W97076  14.204  39.359  12.021
37640W        W97077   4.825  24.608  10.105
37641W        W97078  16.737  43.488   4.621
37642W        W97079  31.536  31.647  13.516
37643W        W97080  23.514   8.215  12.945
37644W        W97081   7.717  31.543   3.682
37645W        W97082  27.024  28.086   1.893
37646W        W97083  36.410  21.645   0.270
37647W        W97084  42.905   8.795   0.923
37648W        W97085  15.607  33.981  11.956
37649W        W97086   1.814  12.357   2.874
37650W        W97087  33.431  14.191   2.763
37651W        W97088   3.360  14.657  10.529
37652W        W97089   1.421  25.148   1.792
37653W        W97090  43.381   0.406  14.948
37654W        W97091  29.485   4.884   0.271
37655W        W97092  27.688   3.366   4.678
37656W        W97093   2.444  36.552  13.309
37657W        W97094  29.131  33.905  14.769
37658W        W97095   3.259  16.136   4.347
37659W        W97096   2.244   7.758   0.833
37660W        W97097   8.841  31.916  12.842
37661W        W97098  32.620  33.440   3.357
37662W        W97099  28.182  10.803  11.972
37663W        W97100  20.643   1.887   4.679
37664W        W97101   1.809   6.343  11.521
37665W        W97102  33.578  10.366   0.269
37666W        W97103  37.487  17.744  11.965
37667W        W97104   6.392  21.720  10.455
37668W        W97105  41.981   5.367   1.312
37669W        W97106  12.624  32.455  12.041
37670W        W97107  32.593  14.144   4.629
37671W        W97108  28.552  37.937  10.966
37672W        W97109  11.143  15.137  11.998
37673W        W97110  10.184  34.879  11.452
37674W        W97111  29.113   0.837   2.370
37675W        W97112  15.633  39.899  12.355
37676W        W97113  29.001   9.884  11.406
37677W        W97114  24.574   1.416  14.338
37678W        W97115  43.827  10.240   3.857
37679W        W97116  13.169   8.694   2.714
37680W        W97117  23.731   8.284   0.782
37681W        W97118  41.509  16.201  13.382
37682W        W97119   3.841  38.461   0.878
37683W        W97120  41.798   7.884   4.720
37684W        W97121  40.962  10.726  12.984
37685W        W97122  32.541  20.654  12.952
37686W        W97123  13.216  37.518   4.318
37687W        W97124  35.109  35.360   2.311
37688W        W97125  20.751   5.876  12.014
37689W        W97126  43.289  17.566   2.181
37690W        W97127  13.322  29.128  14.401
37691W        W97128  10.702   0.836  12.831
37692W        W97129  41.827   3.873  13.842
37693W        W97130  18.051  22.238   3.239
37694W        W97131  34.044  12.254  11.401
37695W        W97132  39.853  19.042  13.388
37696W        W97133  22.725  21.077   1.263
37697W        W97134  22.213   1.749   0.321
37698W        W97135  31.001  25.146  13.509
37699W        W97136  16.138  32.115  11.932
37700W        W97137  25.691  26.673   9.931
37701W        W97138  39.959  26.517   4.204
37702W        W97139   0.358   6.298   3.190
37703W        W97140   5.264  37.069   0.826
37704W        W97141  24.650  33.980  10.607
37705W        W97142  27.984  39.054   2.788
37706W        W97143  21.237  29.992   3.250
37707W        W97144  35.530  39.817   9.465
37708W        W97145  24.557  28.028  11.547
37709W        W97146   9.880   9.283  10.553
37710W        W97147   5.873   4.864  13.050
37711W        W97148   4.238   7.328   0.399
37712W        W97149  34.403  40.535   2.785
37713W        W97150  34.459  27.518  10.959
37714W        W97151   4.358  20.652  12.940
37715W        W97152  16.315  43.000  10.017
37716W        W97153  22.006   4.846  13.455
37717W        W97154  15.664  37.359  14.361
37718W        W97155  25.615  37.463  11.522
37719W        W97156   8.185   8.773  14.831
37720W        W97157  42.849  14.622  12.579
37721W        W97158  44.470  22.019  14.479
37722W        W97159  32.953  32.990  14.764
37723W        W97160  16.600  23.998   4.789
37724W        W97161  31.065  26.504  11.410
37725W        W97162  35.425  33.929  12.510
37726W        W97163  40.042  28.973  13.942
37727W        W97164  34.879  35.004  14.982
37728W        W97165  41.423  12.623   4.235
37729W        W97166  42.883  13.349  13.795
37730W        W97167  16.770  25.047  12.563
37731W        W97168  11.725   3.861   0.907
37732W        W97169  18.728  35.365  11.584
37733W        W97170   4.935  21.525   0.874
37734W        W97171   2.351  10.789   3.225
37735W        W97172  25.007  27.521  13.443
37736W        W97173   9.818  22.631   0.771
37737W        W97174   4.704  24.017  12.875
37738W        W97175  16.721  14.719  13.030
37739W        W97176  22.132  31.436  13.444
37740W        W97177   7.724  42.900  12.914
37741W        W97178  12.756  14.813  11.041
37742W        W97179  43.283  11.242  11.379
37743W        W97180  26.072  43.012   9.564
37744W        W97181  25.019  28.440  11.410
37745W        W97182  37.946  26.014   0.470
37746W        W97183  33.590  27.981   1.416
37747W        W97184  19.144  28.570   0.350
37748W        W97185  44.760   2.450  13.413
37749W        W97186  37.421   1.304  12.492
37750W        W97187  34.084   6.360   1.929
37751W        W97188   2.352  21.108  13.901
37752W        W97189   3.291  25.181   2.839
37753W        W97190  42.943   3.895   0.454
37754W        W97191  39.332  33.609   3.284
37755W        W97192  21.067   4.297  12.841
37756W        W97193   9.244  18.209  14.281
37757W        W97194  34.453  42.976   4.279
37758W        W97195   2.264  18.088  13.812
37759W        W97196  23.101   8.898   0.793
37760W        W97197  34.369  11.361  14.453
37761W        W97198  20.040   5.202   2.218
37762W        W97199  44.823  43.859   2.850
37763W        W97200   7.878  40.983   2.240
37764W        W97201  42.472  34.997  14.915
37765W        W97202   4.421  40.799  11.051
37766W        W97203  10.741  19.171   4.298
37767W        W97204  37.439  27.177   1.377
37768W        W97205  34.952   4.240  11.868
37769W        W97206  36.934  15.679   4.701
37770W        W97207  13.788  33.946  12.854
37771W        W97208  20.273  44.810   2.312
37772W        W97209  27.624  18.567  14.287
37773W        W97210   3.829  16.154   3.300
37774W        W97211  10.154  20.056   3.267
37775W        W97212  17.657  33.607  11.961
37776W        W97213  13.164   4.210  13.925
37777W        W97214  34.584  16.616  12.505
37778W        W97215  38.989  15.170  13.333
37779W        W97216  41.034  39.367  10.503
37780W        W97217  15.159  28.100  11.588
37781W        W97218  15.088   8.826  10.492
37782W        W97219   1.290  31.632   1.406
37783W        W97220  13.229  43.513   4.304
37784W        W97221  43.489  36.016   2.676
37785W        W97222  11.133  35.503   1.416
37786W        W97223   4.327   4.849   4.754
37787W        W97224  10.784  44.995   2.859
37788W        W97225  37.950   2.282   0.955
37789W        W97226  27.516  30.522   0.729
37790W        W97227  43.977  13.789   4.644
37791W        W97228  22.566   1.270   0.852
37792W        W97229  10.713  25.680  10.537
37793W        W97230  21.118  25.712  11.934
37794W        W97231  44.467  26.195   0.890
37795W        W97232  38.978  37.943   9.991
37796W        W97233  41.415   6.723   1.281
37797W        W97234  22.105  37.891   0.345
37798W        W97235  26.119  16.253  13.862
37799W        W97236  39.990  32.905  12.934
37800W        W97237  11.750  21.166   1.702
37801W        W97238   5.884   1.295  13.883
37802W        W97239  24.536  36.044  13.958
37803W        W97240  41.887  15.326  12.482
37804W        W97241   3.437  33.033   0.946
37805W        W97242  32.915   0.865   4.338
37806W        W97243   7.384  16.567   1.865
37807W        W97244  33.946  18.098   1.823
37808W        W97245  25.000  15.695  13.064
37809W        W97246   7.826  22.071  14.961
37810W        W97247  36.522   5.427   1.860
37811W        W97248  17.657  16.769   2.693
37812W        W97249  17.733  25.150  10.956
37813W        W97250  41.024  33.018   4.838
37814W        W97251  10.861  39.387  12.365
37815W        W97252  30.462  11.330  10.550
37816W        W97253  12.623  13.130  10.961
37817W        W97254  24.568  38.527  14.813
37818W        W97255  20.541  42.964  13.934
37819W        W97256  44.999  10.375  12.020
37820W        W97257  29.073   5.773   4.231
37821W        W97258   6.886  10.659  12.950
37822W        W97259  41.912   3.840   3.243
37823W        W97260  29.532  24.211   2.392
37824W        W97261   5.433  25.084  10.503
37825W        W97262  18.053  22.029  13.475
37826W        W97263   4.272   1.438   0.909
37827W        W97264  19.630  32.055  12.980
37828W        W97265  35.947  17.156  13.981
37829W        W97266  34.094  37.888  14.505
37830W        W97267  30.938   9.644   1.276
37831W        W97268   6.919   3.238  13.853
37832W        W97269  28.525   8.395  14.874
37833W        W97270  37.528  15.160  12.085
37834W        W97271  10.375  44.310  11.525
37835W        W97272  22.080  24.599  13.349
37836W        W97273  18.746   4.262   4.325
37837W        W97274  20.649  42.320  12.028
37838W        W97275  20.711  29.425   2.413
37839W        W97276  31.011  26.009   3.827
37840W        W97277  23.548  35.878   1.920
37841W        W97278  29.983  40.902   2.184
37842W        W97279  40.309  21.622   2.212
37843W        W97280  10.651  30.598  11.942
37844W        W97281  38.513   0.409   4.758
37845W        W97282  38.449  43.955   2.694
37846W        W97283   2.792   7.701  14.482
37847W        W97284  14.214  44.415   4.674
37848W        W97285  32.530   8.164  14.879
37849W        W97286  37.913  22.182  14.343
37850W        W97287  38.511  16.282  14.319
37851W        W97288   3.722  37.922  11.496
37852W        W97289  29.016  12.623   2.378
37853W        W97290  12.704  29.489  10.485
37854W        W97291   6.427  41.523   4.654
37855W        W97292  24.161  23.238   2.696
37856W        W97293  40.985  15.136  13.322
37857W        W97294   6.833  17.184   3.198
37858W        W97295  30.644  16.810   0.334
37859W        W97296  29.649  38.068   4.800
37860W        W97297  25.645  28.134  12.059
37861W        W97298   4.718  39.974   2.775
37862W        W97299   0.834  16.283   0.792
37863W        W97300  16.072   4.390  10.902
37864W        W97301  28.614  25.046  12.492
37865W        W97302  31.530  33.437   1.922
37866W        W97303   5.705  41.790   0.749
37867W        W97304  36.589  31.493  14.901
37868W        W97305  12.339  17.579  11.024
37869W        W97306  22.173   1.262   1.340
37870W        W97307  30.062  38.065  11.857
37871W        W97308  35.564   0.369  14.931
37872W        W97309  20.237   0.841   0.753
37873W        W97310  14.155  28.616   4.120
37874W        W97311  21.692   0.761  13.937
37875W        W97312  23.725  36.875  14.970
37876W        W97313  36.566  33.007   1.910
37877W        W97314   5.780  10.370  13.494
37878W        W97315  24.561  15.110  11.071
37879W        W97316  16.798   9.295   4.192
37880W        W97317   6.812  41.961   1.273
37881W        W97318   9.779  32.516  11.902
37882W        W97319  22.547  18.139   1.263
37883W        W97320  44.872  12.277  14.962
37884W        W97321   1.867  40.820  13.022
37885W        W97322  19.066  28.565   1.756
37886W        W97323  40.392   5.275   4.706
37887W        W97324   1.898  39.046   4.601
37888W        W97325  25.023  36.877   4.692
37889W        W97326  34.064   6.401   0.810
37890W        W97327  41.007   4.752  13.890
37891W        W97328  24.715   9.294  10.619
37892W        W97329   9.351   2.917  11.897
37893W        W97330  10.771  13.123  11.859
37894W        W97331  43.939  28.180   0.392
37895W        W97332  35.979  36.426   4.153
37896W        W97333   4.832  30.026   0.909
37897W        W97334  34.106  44.823  12.957
37898W        W97335  13.151   1.866   1.872
37899W        W97336   7.372  18.641   1.217
37900W        W97337  39.544   9.789   0.736
37901W        W97338  19.689  39.021  13.460
37902W        W97339  20.074  19.276  11.552
37903W        W97340   0.886  33.952   1.315
37904W        W97341  31.018  34.958   2.261
37905W        W97342  24.063  42.928   5.181
37906W        W97343  20.136   0.883  10.932
37907W        W97344  43.937   4.798   0.453
37908W        W97345  24.057  19.583   9.923
37909W        W97346   6.858  11.812  14.317
37910W        W97347  35.416  28.478   2.393
37911W        W97348  36.407  10.723   4.730
37912W        W97349  32.580  17.564  14.412
37913W        W97350   6.772   5.274  11.040
37914W        W97351  24.556  18.681   4.301
37915W        W97352  13.837   8.347   0.729
37916W        W97353  25.048   4.339  13.835
37917W        W97354  31.512  38.354   1.415
37918W        W97355  21.147  40.977   4.696
37919W        W97356   8.264  16.801  12.469
37920W        W97357  31.624  12.698  11.524
37921W        W97358   7.325  22.245  13.800
37922W        W97359  32.479  40.011   2.712
37923W        W97360  38.019   8.841   1.440
37924W        W97361  11.213  13.633   2.669
37925W        W97362  34.590  14.738   0.752
37926W        W97363  12.351  42.834  11.859
37927W        W97364   1.296   7.686   1.398
37928W        W97365   9.266  25.208   3.732
37929W        W97366  31.554  32.007   2.283
37930W        W97367  33.898  14.147  13.359
37931W        W97368  17.578  40.380  11.121
37932W        W97369  44.481  35.077   1.251
37933W        W97370  26.059  25.970  14.014
37934W        W97371  40.840  25.594  11.952
37935W        W97372  36.068  35.428  12.852
37936W        W97373  36.915   9.354   0.314
37937W        W97374  14.731  22.564  13.993
37938W        W97375  17.266   4.414   4.698
37939W        W97376  22.581  30.918   2.364
37940W        W97377  13.807  31.606  12.346
37941W        W97378  38.516  37.969   4.787
37942W        W97379   3.376  13.672   1.880
37943W        W97380  12.263  32.918  14.307
37944W        W97381  13.222   3.901   4.646
37945W        W97382  39.488  28.087  10.616
37946W        W97383  10.752   5.322  13.876
37947W        W97384   4.798   2.930   0.342
37948W        W97385  29.149  13.628   4.705
37949W        W97386  19.161  23.208  10.529
37950W        W97387  16.142   7.370  12.410
37951W        W97388   8.745  13.828  13.020
37952W        W97389   9.193  38.448   0.427
37953W        W97390   0.373  20.683  12.423
37954W        W97391  13.209  10.635   4.765
37955W        W97392  17.100  41.860  14.402
37956W        W97393  21.037  26.123   0.427
37957W        W97394  32.594  41.910   1.711
37958W        W97395  15.181  39.478   2.829
37959W        W97396   5.779  22.069   4.133
37960W        W97397  22.706  44.385   2.280
37961W        W97398  32.894  41.475   2.182
37962W        W97399  14.298  19.167  13.826
37963W        W97400  25.141   7.251  11.459
37964W        W97401  25.183  16.195   2.780
37965W        W97402  27.580  23.219   1.803
37966W        W97403   4.205  27.136   3.212
37967W        W97404   8.211  32.024  11.040
37968W        W97405  44.269  25.209  14.501
37969W        W97406  26.080   4.347   3.348
37970W        W97407   1.443  40.378  10.440
37971W        W97408  30.013  24.605  12.046
37972W        W97409  19.647   0.804   4.608
37973W        W97410  37.889   0.448  11.008
37974W        W97411  40.870   0.398   1.383
37975W        W97412  40.823  10.154   4.711
37976W        W97413   4.277  30.615  14.505
37977W        W97414  21.632   4.237  12.459
37978W        W97415   6.805   3.445   4.836
37979W        W97416   7.334  11.750   0.257
37980W        W97417  15.741  38.990  12.852
37981W        W97418  22.070   7.774   2.282
37982W        W97419  18.285  36.916   3.756
37983W        W97420  20.204  11.149  11.026
37984W        W97421  24.652   0.768   2.384
37985W        W97422  31.402  28.439   1.859
37986W        W97423  35.470  24.509  13.354
37987W        W97424   8.785  34.042  13.442
37988W        W97425   1.372   2.951  12.885
37989W        W97426  11.312   0.248  11.473
37990W        W97427  17.737  16.669  14.987
37991W        W97428  23.496  42.859  14.934
37992W        W97429   6.361  28.665  13.316
37993W        W97430  13.336  42.833  14.329
37994W        W97431  17.672  24.524   4.622
37995W        W97432  37.435   1.746   4.641
37996W        W97433  33.886  43.313   2.843
37997W        W97434  24.534  31.921   0.905
37998W        W97435  36.583  30.418   1.433
37999W        W97436  32.428  13.833   0.855
38000W        W97437  22.561   5.885   1.380
38001W        W97438  44.000  29.636   1.932
38002W        W97439  12.138  24.123  14.981
38003W        W97440  34.452  11.373   0.367
38004W        W97441   0.955  44.894  11.102
38005W        W97442  26.147  16.202  10.584
38006W        W97443  18.097  38.836   2.740
38007W        W97444   6.305  44.309   0.933
38008W        W97445   5.933  30.939   1.321
38009W        W97446  18.754   5.703  14.878
38010W        W97447  27.594  22.049  14.392
38011W        W97448  32.077  25.599  11.092
38012W        W97449  44.896  19.083  12.567
38013W        W97450  19.145  30.507   0.840
38014W        W97451  14.244  19.251   1.907
38015W        W97452  27.454  36.986  13.927
38016W        W97453  35.897  13.298   2.413
38017W        W97454  41.463   6.375   3.740
38018W        W97455  18.058  28.595  14.997
38019W        W97456  26.654  20.557   0.244
38020W        W97457  30.144  38.401  10.630
38021W        W97458   6.808  24.624   4.169
38022W        W97459  32.489  35.957   1.906
38023W        W97460  24.721   7.415  10.925
38024W        W97461  42.922  20.752  12.538
38025W        W97462  36.592  13.123   0.409
38026W        W97463   5.892  27.101   1.923
38027W        W97464  22.060  22.022   3.275
38028W        W97465  23.241  14.272   1.434
38029W        W97466  15.791   5.929   4.725
38030W        W97467   4.282  14.136   3.249
38031W        W97468   9.661  35.583  13.927
38032W        W97469  17.211  10.777   4.712
38033W        W97470  39.315  17.561  10.457
38034W        W97471  29.541   5.387  12.434
38035W        W97472  33.891   0.754  11.550
38036W        W97473  29.603  44.994   1.423
38037W        W97474   7.319  15.582  10.889
38038W        W97475  40.319  23.732   3.722
38039W        W97476  36.405  42.780   3.759
38040W        W97477  21.728  20.221  13.827
38041W        W97478  18.662  11.676  12.490
38042W        W97479   4.386  35.549  13.843
38043W        W97480  33.520  33.914  10.495
38044W        W97481  27.577  16.684  14.953
38045W        W97482   9.217  32.981  10.530
38046W        W97483  25.666  28.600   3.349
38047W        W97484  15.146   8.788   4.312
38048W        W97485  18.262  22.633   0.860
38049W        W97486  24.056  33.052  10.440
38050W        W97487   2.965  27.158   2.287
38051W        W97488  41.513  14.318   2.695
38052W        W97489  11.644  16.094   3.152
38053W        W97490  44.928  20.704  13.452
38054W        W97491  26.136   3.459  14.769
38055W        W97492  25.628   8.276  10.636
38056W        W97493  12.164  16.106   0.829
38057W        W97494  34.437  27.034  13.999
38058W        W97495  28.009   3.710  11.915
38059W        W97496   0.364  15.245   2.666
38060W        W97497   2.861  38.545  11.501
38061W        W97498   7.900  25.218  10.584
38062W        W97499  29.570  13.791   4.613
38063W        W97500   2.726  17.226   4.338
38064W        W97501   1.855   6.312   4.699
38065W        W97502  27.084  35.992  12.386
38066W        W97503  15.760   8.312  10.469
38067W        W97504   6.355  16.649   3.843
38068W        W97505  32.499  21.588  11.105
38069W        W97506  30.107  18.564   4.740
38070W        W97507   2.952   1.862   4.332
38071W        W97508  23.545  19.155   2.261
38072W        W97509  42.310  43.870   4.174
38073W        W97510  12.694   9.297   4.284
38074W        W97511  35.577   2.907  13.064
38075W        W97512  14.770  39.004  10.101
38076W        W97513   6.780  30.077  11.991
38077W        W97514   7.175  17.644   4.629
38078W        W97515   7.711  31.041   0.370
38079W        W97516  25.596  39.863   3.707
38080W        W97517  11.338  24.062  10.628
38081W        W97518  15.226  29.938  14.790
38082W        W97519  25.689   8.668  13.836
38083W        W97520  32.011  33.413  12.004
38084W        W97521   5.331  40.808   2.354
38085W        W97522  11.831  26.576  12.954
38086W        W97523  23.140  19.174   1.326
38087W        W97524   1.418  41.522   1.375
38088W        W97525  18.617   9.672  10.935
38089W        W97526  42.896  31.124   5.199
38090W        W97527   2.734  23.528  14.878
38091W        W97528  43.398  20.767   1.340
38092W        W97529  11.801   8.172  14.384
38093W        W97530  27.610  18.710  10.912
38094W        W97531  30.117  41.535  14.982
38095W        W97532  32.429  22.511  13.852
38096W        W97533  39.828  24.492  12.080
38097W        W97534  23.218   2.315   0.787
38098W        W97535  29.954  16.620   3.192
38099W        W97536  28.114  36.066   2.183
38100W        W97537  24.049  28.999   4.328
38101W        W97538  43.374   1.421   3.682
38102W        W97539  24.624   3.450   0.472
38103W        W97540   9.671  17.571  14.489
38104W        W97541  43.948  26.063  10.993
38105W        W97542  25.705   9.645  11.967
38106W        W97543  20.221  35.904   5.267
38107W        W97544  13.704   2.910   1.762
38108W        W97545  28.028  38.957  12.077
38109W        W97546  22.119  24.172  13.344
38110W        W97547   7.897  35.465   0.925
38111W        W97548   2.237  19.542   1.350
38112W        W97549  20.561   0.257  14.343
38113W        W97550  32.456   6.240  12.912
38114W        W97551  31.528  14.134   4.261
38115W        W97552  30.042  10.815   2.886
38116W        W97553  44.405   7.672   1.332
38117W        W97554   4.903  17.768   0.304
38118W        W97555   6.811  20.642   4.718
38119W        W97556   6.385   8.678  12.551
38120W        W97557   6.299  44.290   4.301
38121W        W97558  10.824  16.264  11.053
38122W        W97559  17.666  15.265   4.285
38123W        W97560   1.870  13.770  11.413
38124W        W97561  44.504   5.910   3.350
38125W        W97562   0.951  22.150  14.286
38126W        W97563   1.473  41.307  11.448
38127W        W97564  30.568  38.539  10.466
38128W        W97565   8.223   7.326  12.077
38129W        W97566  37.930  36.590   1.895
38130W        W97567   6.414  16.701  14.970
38131W        W97568  35.597  29.611   1.213
38132W        W97569  24.041   9.737  12.069
38133W        W97570  16.088   5.324   0.827
38134W        W97571  11.709  26.541  12.482
38135W        W97572  16.672  36.581  12.441
38136W        W97573  16.631   1.949   3.720
38137W        W97574  25.647  42.862   4.626
38138W        W97575  26.135  42.854  12.858
38139W        W97576  36.490  27.086   3.231
38140W        W97577  31.465  32.636   0.815
38141W        W97578   5.821  44.265  11.439
38142W        W97579  23.596  13.161   3.187
38143W        W97580   5.218  36.002  12.014
38144W        W97581   4.837   7.686  13.963
38145W        W97582  13.286   2.789   4.624
38146W        W97583  22.227  16.153  10.030
38147W        W97584  41.821   2.421   1.351
38148W        W97585   5.699   9.652  12.940
38149W        W97586  29.587  37.847   5.306
38150W        W97587  21.655  10.727   3.657
38151W        W97588  13.225   7.706   4.634
38152W        W97589   2.936  20.098   4.248
38153W        W97590   2.277   0.924  12.484
38154W        W97591  33.936  14.156  11.963
38155W        W97592  40.857  26.647  13.027
38156W        W97593   9.240   4.854  14.844
38157W        W97594  17.774   6.205   2.699
38158W        W97595  38.340  10.312   3.271
38159W        W97596  30.927   6.899  10.535
38160W        W97597  43.970  13.246  11.875
38161W        W97598  42.025  26.488   1.772
38162W        W97599  14.256  27.619   0.781
38163W        W97600  23.553  39.467  10.423
38164W        W97601  30.159  10.651  11.424
38165W        W97602  32.990  36.077   1.241
38166W        W97603   0.884  27.636  13.855
38167W        W97604  39.530  12.143  14.814
38168W        W97605  23.153  28.664   2.272
38169W        W97606  23.210  24.101   1.780
38170W        W97607  32.576  13.178   0.893
38171W        W97608   6.262  27.492  13.865
38172W        W97609  33.427  26.024  10.151
38173W        W97610  14.314   9.225  12.977
38174W        W97611  34.421  32.886   4.638
38175W        W97612  36.429  12.787   5.098
38176W        W97613  21.574  42.897  14.297
38177W        W97614  15.667   4.370  10.553
38178W        W97615  31.987  44.383  12.378
38179W        W97616  24.509  16.729   1.354
38180W        W97617  22.010  19.559  14.472
38181W        W97618  12.307  41.884   3.247
38182W        W97619  10.149  29.577   1.828
38183W        W97620  41.007   8.712   1.412
38184W        W97621  40.437  42.939  10.071
38185W        W97622  36.353   4.301   1.299
38186W        W97623   0.957   3.903  14.923
38187W        W97624  20.152  27.132   0.399
38188W        W97625  10.651  41.314   4.715
38189W        W97626  13.648  30.611  11.922
38190W        W97627  28.155  38.324   2.778
38191W        W97628  14.658  28.127   2.781
38192W        W97629  12.325   0.945   3.341
38193W        W97630  36.476  38.549  14.018
38194W        W97631   9.737  30.936  14.869
38195W        W97632  13.204  37.393   4.777
38196W        W97633  42.481  35.005  12.913
38197W        W97634  31.600  35.383   4.797
38198W        W97635  38.008   3.743  13.826
38199W        W97636   7.217  17.651   2.398
38200W        W97637  21.041  24.979   2.256
38201W        W97638  26.176   1.808   4.342
38202W        W97639  35.373  30.030   4.727
38203W        W97640   0.249  16.095  11.488
38204W        W97641  42.300   2.431  10.597
38205W        W97642  14.814   5.835   1.703
38206W        W97643   9.373  40.020  13.842
38207W        W97644  35.916  15.797  11.001
38208W        W97645  37.540   9.875   0.472
38209W        W97646  25.575  20.662  11.876
38210W        W97647  41.310  38.447   1.867
38211W        W97648  17.207  14.099  14.322
38212W        W97649  23.010  32.606   4.655
38213W        W97650  36.374  13.615   2.284
38214W        W97651  19.175  42.417   0.364
38215W        W97652   0.388  38.821   1.753
38216W        W97653  21.059  24.041   4.185
38217W        W97654  36.547  38.823  11.417
38218W        W97655  16.763  25.571   1.802
38219W        W97656  30.125  12.337   4.221
38220W        W97657  32.932  24.131   1.737
38221W        W97658  40.801   3.247   4.141
38222W        W97659  39.490  36.374   1.721
38223W        W97660  17.160  40.443  12.948
38224W        W97661  26.639  21.029  13.795
38225W        W97662  11.176  22.656  14.776
38226W        W97663  30.583  33.514   0.836
38227W        W97664  23.563  19.220  10.054
38228W        W97665  13.328  34.961   0.924
38229W        W97666   8.667  15.694  11.033
38230W        W97667   1.888   4.775   1.910
38231W        W97668   1.933   9.268   0.748
38232W        W97669  36.982   2.877   3.817
38233W        W97670  36.414  15.772   4.282
38234W        W97671   7.320  42.493   0.245
38235W        W97672  14.249  30.054   2.375
38236W        W97673  30.575  44.929   2.286
38237W        W97674  18.619  27.520  12.087
38238W        W97675   8.894  29.975  13.893
38239W        W97676  12.842  42.853   0.877
38240W        W97677  39.367  23.141   4.136
38241W        W97678  17.223  44.316  11.554
38242W        W97679  43.827  17.112  11.553
38243W        W97680  20.245  43.413  11.388
38244W        W97681  35.979  23.105   1.840
38245W        W97682   7.679  11.172   4.635
38246W        W97683   1.302   7.713  10.424
38247W        W97684  31.038  14.235  14.819
38248W        W97685  35.410  22.663   1.353
38249W        W97686   8.381  35.525   0.475
38250W        W97687   1.750  40.440   2.213
38251W        W97688   1.444   9.264  10.531
38252W        W97689  41.959  44.983   4.653
38253W        W97690  23.506  23.070  13.488
38254W        W97691  29.065  14.116  11.573
38255W        W97692  17.082  43.768  11.410
38256W        W97693  29.497   8.813   9.987
38257W        W97694  29.579  14.777   3.749
38258W        W97695  10.375  25.516   3.313
38259W        W97696  15.617  16.149  14.879
38260W        W97697   9.198  32.085   4.605
38261W        W97698  30.158   4.310   4.353
38262W        W97699  40.947  13.312   1.866
38263W        W97700  25.023   8.227  11.881
38264W        W97701  11.240   7.694  10.993
38265W        W97702   7.178   4.265  11.063
38266W        W97703  30.045  33.957  14.967
38267W        W97704  31.113  22.547   0.408
38268W        W97705   1.314  29.994   1.445
38269W        W97706  21.728   4.716   3.794
38270W        W97707  23.193   9.763  13.833
38271W        W97708  42.361   2.433  11.094
38272W        W97709  31.133  26.067   5.156
38273W        W97710  10.775  41.979  13.467
38274W        W97711  16.790  26.502  13.479
38275W        W97712  28.107  17.745  12.472
38276W        W97713  14.612  29.470  12.384
38277W        W97714  19.624  33.051  11.501
38278W        W97715   9.180  42.842  14.444
38279W        W97716  31.486  31.436  10.569
38280W        W97717  42.931  13.237   3.808
38281W        W97718   3.805  34.916   4.115
38282W        W97719   6.305  40.927   3.237
38283W        W97720  32.393   8.169  11.917
38284W        W97721  22.117  40.532   3.273
38285W        W97722   5.833  20.683   4.687
38286W        W97723   5.719  23.195   0.354
38287W        W97724  36.532  26.633   2.265
38288W        W97725  38.403  21.022  12.470
38289W        W97726  43.308  31.011   0.841
38290W        W97727  42.283   7.277  11.053
38291W        W97728   8.788  17.623   4.325
38292W        W97729   9.707  17.214   4.300
38293W        W97730  21.136  42.435   0.340
38294W        W97731   3.260  44.873   0.871
38295W        W97732  11.847  11.656   2.387
38296W        W97733  31.585  43.439  13.468
38297W        W97734   0.906  39.886   4.671
38298W        W97735   5.324   3.255   0.338
38299W        W97736  40.841  11.731   4.122
38300W        W97737  44.780   3.709  13.369
38301W        W97738  41.339  35.868   1.279
38302W        W97739  24.164   4.398  10.587
38303W        W97740   1.372  44.999  14.816
38304W        W97741  42.474  31.496  12.045
38305W        W97742  15.212   0.342   2.382
38306W        W97743  18.731  40.843   3.800
38307W        W97744  31.622  20.188   3.707
38308W        W97745   4.876  15.104   0.889
38309W        W97746  18.276  21.081  14.924
38310W        W97747   7.768   0.955  13.335
38311W        W97748  37.983  41.513  10.926
38312W        W97749   2.942  25.484   3.638
38313W        W97750  31.527  37.907   1.278
38314W        W97751  26.971   3.348   3.838
38315W        W97752  34.920  38.906  13.817
38316W        W97753  19.088  32.416  11.485
38317W        W97754  36.065  38.981   0.814
38318W        W97755  35.977  14.644  14.312
38319W        W97756  11.285  31.620   3.687
38320W        W97757  28.442  14.610   1.870
38321W        W97758  23.081  23.607   2.774
38322W        W97759  13.310   7.888  14.500
38323W        W97760  21.106  31.420   0.808
38324W        W97761  37.521   4.708   3.727
38325W        W97762  35.863  14.675  12.539
38326W        W97763  41.927  14.599   0.427
38327W        W97764   3.773   5.706   0.381
38328W        W97765  13.203  17.111   4.727
38329W        W97766  28.148  42.371  13.870
38330W        W97767  36.972  30.920  11.014
38331W        W97768  27.025   1.271  14.973
38332W        W97769  43.442  44.976   0.397
38333W        W97770  33.589   1.883  10.060
38334W        W97771  14.238   9.857   0.820
38335W        W97772   9.152   0.911   0.447
38336W        W97773   2.942   7.220   4.691
38337W        W97774  39.035  28.132   2.663
38338W        W97775  23.536  17.191   1.900
38339W        W97776  12.341  15.153  10.915
38340W        W97777  31.406  32.015  10.984
38341W        W97778  19.547  42.464  10.626
38342W        W97779  43.512  28.434   2.882
38343W        W97780  29.972   2.911  12.917
38344W        W97781  34.518  34.552  13.378
38345W        W97782  33.551   4.887  12.348
38346W        W97783  41.317  24.635   1.798
38347W        W97784  26.613  22.679  11.096
38348W        W97785   0.888  25.487   2.741
38349W        W97786  29.023  40.822   0.832
38350W        W97787   2.962  44.483  12.042
38351W        W97788  25.477  23.046  10.552
38352W        W97789  35.858  42.521   3.687
38353W        W97790   7.690  40.495  12.891
38354W        W97791  42.820  39.479   0.372
38355W        W97792  31.501  34.549   4.652
38356W        W97793  22.126   3.848  14.435
38357W        W97794  17.289  20.607   1.824
38358W        W97795   1.252  43.412   4.837
38359W        W97796  38.541   3.809  11.904
38360W        W97797  27.045  29.132  12.034
38361W        W97798  25.154  37.032  14.895
38362W        W97799  15.121   4.791  11.941
38363W        W97800   5.256  16.242   3.192
38364W        W97801   7.328  10.285  10.988
38365W        W97802  13.814  44.758  11.423
38366W        W97803  35.428  38.973   1.389
38367W        W97804  32.425  33.391   1.378
38368W        W97805  20.722  36.862   0.756
38369W        W97806   1.467  13.130   1.295
38370W        W97807  13.137   2.924  14.848
38371W        W97808   2.742  35.002  11.034
38372W        W97809  40.531  17.590  13.489
38373W        W97810  18.550   5.933  11.534
38374W        W97811  44.763   7.377   2.293
38375W        W97812  14.746  27.168  14.011
38376W        W97813   0.883   1.747  10.002
38377W        W97814  44.310  15.625   0.443
38378W        W97815   7.208  42.880  11.028
38379W        W97816   8.198  35.449  14.274
38380W        W97817  44.946  41.820   2.254
38381W        W97818  41.995  40.386  11.554
38382W        W97819  36.922  31.469  12.842
38383W        W97820  17.642  17.751  11.984
38384W        W97821  36.369   2.338  13.957
38385W        W97822  29.575  28.109  14.425
38386W        W97823  29.957  44.856   1.727
38387W        W97824  18.660  38.326  11.492
38388W        W97825   3.883  25.987  11.903
38389W        W97826  19.206  43.923  11.018
38390W        W97827  10.166  24.688  14.868
38391W        W97828   0.341  28.607   2.281
38392W        W97829  32.078  40.009   0.842
38393W        W97830  30.458  15.242  13.845
38394W        W97831   1.917  15.594   3.268
38395W        W97832  27.138  29.468   0.243
38396W        W97833  39.361  29.093  11.974
38397W        W97834   2.301  27.609  10.952
38398W        W97835  21.052  13.249   4.679
38399W        W97836  34.513  10.206  11.451
38400W        W97837  22.028  31.002  12.477
38401W        W97838   2.458  44.318   3.683
38402W        W97839   0.805   5.258   3.300
38403W        W97840  29.046  41.484  14.515
38404W        W97841   4.901  14.272   0.371
38405W        W97842   9.783  36.085  12.096
38406W        W97843  28.089  10.220  14.828
38407W        W97844  37.380  37.907   2.337
38408W        W97845  43.959   2.414  14.480
38409W        W97846  15.718  23.527   4.660
38410W        W97847   3.342  43.367   3.682
38411W        W97848   9.770  39.384  11.079
38412W        W97849  13.132  12.645   4.694
38413W        W97850  43.358  29.007   1.763
38414W        W97851  14.814   4.263  13.370
38415W        W97852   2.240  21.067  11.383
38416W        W97853  10.749  29.512  10.436
38417W        W97854   9.322  42.991   3.267
38418W        W97855  35.027   3.334  14.876
38419W        W97856   1.379  43.271   0.243
38420W        W97857   2.782  32.921  13.381
38421W        W97858   0.261  36.073   1.232
38422W        W97859  14.720  31.088  14.487
38423W        W97860  19.631  25.647  14.342
38424W        W97861  38.888  28.512  10.051
38425W        W97862  30.546  40.359  14.499
38426W        W97863  42.410  31.429  10.626
38427W        W97864  24.205  10.335   3.811
38428W        W97865  26.562  12.301  10.088
38429W        W97866   1.450   2.799  13.426
38430W        W97867  32.918  43.273  11.126
38431W        W97868  35.417  19.714   1.724
38432W        W97869  33.951  36.848  10.939
38433W        W97870  39.366   7.346   4.198
38434W        W97871   3.405  23.531  11.895
38435W        W97872   0.963  19.715  14.387
38436W        W97873   0.777  15.199   2.836
38437W        W97874  24.983  25.155  11.035
38438W        W97875  43.979  32.433   0.333
38439W        W97876  11.859  41.981   4.790
38440W        W97877  39.317  10.296   1.447
38441W        W97878  40.986  17.587  11.425
38442W        W97879  44.821  41.818   3.337
38443W        W97880  39.368  30.452   1.744
38444W        W97881  36.413  34.586   3.188
38445W        W97882  21.233  40.977   4.345
38446W        W97883  15.099  15.092   3.318
38447W        W97884   5.821  36.984  14.029
38448W        W97885  38.359   8.759   4.349
38449W        W97886   0.885  30.059  12.361
38450W        W97887  25.009  40.329   0.323
38451W        W97888  31.573  14.196  12.984
38452W        W97889  34.371  27.473   0.785
38453W        W97890   3.834  28.178  10.587
38454W        W97891  32.926  33.915   1.332
38455W        W97892  11.676  33.884   0.737
38456W        W97893   1.736  20.241   4.730
38457W        W97894   0.790   4.739  12.857
38458W        W97895   2.378  32.139   2.240
38459W        W97896  22.627   6.914   1.729
38460W        W97897  30.910  24.645   2.258
38461W        W97898   5.869  30.965   3.370
38462W        W97899  26.069  34.582   3.260
38463W        W97900  35.000  21.648  13.961
38464W        W97901  21.148  15.711   3.670
38465W        W97902  28.102  41.884  11.463
38466W        W97903  26.518  31.560  14.018
38467W        W97904  26.583  28.439   2.780
38468W        W97905  17.222  25.042   2.378
38469W        W97906  34.110  16.105  12.397
38470W        W97907  21.605  26.470   4.311
38471W        W97908  11.257  26.531   3.289
38472W        W97909   2.270  10.751  11.508
38473W        W97910  31.523  15.787  14.380
38474W        W97911  42.519  23.526  11.576
38475W        W97912  32.475  43.314   0.908
38476W        W97913  13.224   4.898  10.483
38477W        W97914  12.623  18.178   0.903
38478W        W97915  41.419   9.216  13.484
38479W        W97916  17.096  25.157  14.959
38480W        W97917  18.147  38.463  11.589
38481W        W97918  41.327   6.324   1.755
38482W        W97919   8.843  28.623  14.017
38483W        W97920  39.020  16.298   3.227
38484W        W97921  12.304  40.802  14.765
38485W        W97922  23.987  38.826   3.240
38486W        W97923   5.387  42.343  13.905
38487W        W97924  27.183  20.127  12.083
38488W        W97925  24.481  29.608   1.783
38489W        W97926   3.290  38.433  13.889
38490W        W97927  21.663  22.186   3.333
38491W        W97928  27.048   7.771  14.825
38492W        W97929  14.619  42.290  11.562
38493W        W97930  15.138  36.472   4.351
38494W        W97931  44.994   7.305   3.183
38495W        W97932   9.336  39.874   2.897
38496W        W97933  25.537  19.062   0.754
38497W        W97934  33.423  33.537  13.525
38498W        W97935  38.036   6.692   1.701
38499W        W97936  13.729  39.375   9.940
38500W        W97937  42.513  33.966  12.077
38501W        W97938  37.448   3.265  13.388
38502W        W97939  23.647  13.626  12.343
38503W        W97940  18.578  31.489  14.763
38504W        W97941   2.805  27.670  10.937
38505W        W97942   4.442  16.608   2.804
38506W        W97943  39.992  35.879   4.800
38507W        W97944  44.946  30.049   2.893
38508W        W97945  30.632  42.488   3.838
38509W        W97946  30.092  13.318   1.363
38510W        W97947  18.766  30.632   0.730
38511W        W97948  33.931  40.817   5.633
38512W        W97949  31.446   5.833   4.273
38513W        W97950  40.869   6.356   1.290
38514W        W97951  16.629  12.243   3.861
38515W        W97952  27.592   8.300   0.906
38516W        W97953  34.093   2.961  13.981
38517W        W97954  26.153  31.607  13.026
38518W        W97955  18.292   4.884  10.980
38519W        W97956  13.272  35.566  13.862
38520W        W97957  35.560  26.628  12.495
38521W        W97958  27.065  14.154   4.635
38522W        W97959  16.220   3.850   1.753
38523W        W97960  44.339   2.269  10.509
38524W        W97961   9.827   4.347   0.764
38525W        W97962  14.224   1.769   2.305
38526W        W97963  20.723  35.529   2.211
38527W        W97964  27.988  17.742  12.987
38528W        W97965  38.979  18.248   0.777
38529W        W97966   5.912  41.305   1.701
38530W        W97967   8.731  24.212  12.889
38531W        W97968  17.274  13.173   0.755
38532W        W97969  17.697  26.574   4.331
38533W        W97970  28.536  40.311   1.812
38534W        W97971  29.546  43.862   4.705
38535W        W97972   5.691  36.083  11.881
38536W        W97973  44.761   8.232  12.545
38537W        W97974  33.053  15.699  11.583
38538W        W97975   0.853  34.394   2.230
38539W        W97976  25.687  19.064  13.479
38540W        W97977  18.588  25.188  12.990
38541W        W97978  29.623  19.620  14.460
38542W        W97979   9.704  20.250  14.275
38543W        W97980  25.106  43.480   4.300
38544W        W97981  25.035   9.268  10.532
38545W        W97982  37.391  14.179   4.620
38546W        W97983  26.181  28.087   1.854
38547W        W97984  22.234  44.274  13.837
38548W        W97985   7.783  15.663  12.034
38549W        W97986   2.904  34.103   1.827
38550W        W97987  25.136  40.479  14.895
38551W        W97988  34.940  24.056   3.663
38552W        W97989  13.756   5.340  13.506
38553W        W97990   1.938  24.564   4.331
38554W        W97991  43.419  26.077   1.831
38555W        W97992  27.014  21.239   1.786
38556W        W97993  32.925   5.891   0.814
38557W        W97994  33.043   5.432   2.303
38558W        W97995   3.294  41.528   1.762
38559W        W97996   5.811   0.310  10.534
38560W        W97997  15.235  32.393  13.542
38561W        W97998  35.888  27.064  12.010
38562W        W97999  14.642  13.332  12.900
38563W        W98000  23.026  21.142   3.164
38564W        W98001  11.740   8.294  11.446
38565W        W98002  38.861  12.686   4.301
38566W        W98003  22.603  38.003   2.245
38567W        W98004  20.153  12.208   0.426
38568W        W98005  14.823  35.493  12.549
38569W        W98006  35.452  21.576  11.453
38570W        W98007  35.924  18.660  11.934
38571W        W98008  24.069  25.665  14.367
38572W        W98009  36.004  38.344  11.439
38573W        W98010   4.898  10.835  12.950
38574W        W98011  41.840  40.945  12.452
38575W        W98012  44.362  18.638   1.735
38576W        W98013  10.677  32.976  11.531
38577W        W98014  14.673  22.677   3.849
38578W        W98015  36.863   4.208  12.563
38579W        W98016  43.800  42.303   2.392
38580W        W98017   7.405  22.624  13.826
38581W        W98018  39.057  43.355   0.368
38582W        W98019  30.628  40.043   4.822
38583W        W98020  31.637  37.507  11.903
38584W        W98021  44.802  40.037  10.919
38585W        W98022   1.402   6.817  13.380
38586W        W98023  17.260   6.357   3.843
38587W        W98024  25.600  14.145   1.751
38588W        W98025  28.971   7.709   3.725
38589W        W98026  37.371  22.704   5.139
38590W        W98027  40.410   3.746   3.259
38591W        W98028  23.703  16.716  11.960
38592W        W98029  10.277   9.737  10.581
38593W        W98030   0.936  32.116  14.985
38594W        W98031  35.597  15.631   1.928
38595W        W98032  44.865  43.842   4.755
38596W        W98033  27.145  13.691  14.789
38597W        W98034  14.200   3.858   4.321
38598W        W98035  36.984  34.425   4.707
38599W        W98036  21.686  44.972  14.887
38600W        W98037  21.225  18.693  10.931
38601W        W98038   6.907  32.069  12.960
38602W        W98039  29.037   2.287   3.335
38603W        W98040   7.368  33.431  10.540
38604W        W98041  21.025  13.244  12.828
38605W        W98042  23.706   0.982  12.533
38606W        W98043  28.034  22.058  12.498
38607W        W98044  43.911   0.788   3.771
38608W        W98045   9.189  16.713   4.606
38609W        W98046  16.726  43.782  13.835
38610W        W98047  15.614  34.509  14.325
38611W        W98048  38.868  18.063  11.013
38612W        W98049   4.252   1.831   3.829
38613W        W98050  37.426  42.973  10.607
38614W        W98051  32.917  19.642  13.400
38615W        W98052   1.907  28.542   1.348
38616W        W98053  22.055  26.978   3.237
38617W        W98054  27.584   6.707   1.795
38618W        W98055  34.014  20.060  11.934
38619W        W98056  33.588  42.940  13.905
38620W        W98057  25.103  24.116  11.114
38621W        W98058  31.106  32.603   4.627
38622W        W98059  40.344  33.880   2.259
38623W        W98060  41.317  10.366  14.806
38624W        W98061  12.278  35.907   1.917
38625W        W98062  29.665  29.560   0.952
38626W        W98063  34.577   4.809  13.942
38627W        W98064  15.783  34.490  10.895
38628W        W98065  22.081  33.505  10.469
38629W        W98066   6.308  37.085  14.419
38630W        W98067  12.854  19.118  12.918
38631W        W98068  36.944  31.449  14.336
38632W        W98069  20.640   2.902  10.528
38633W        W98070  21.149  26.168   3.165
38634W        W98071  40.813  29.132   4.204
38635W        W98072  39.932  26.068  12.832
38636W        W98073  34.942  29.645  13.003
38637W        W98074  36.458   2.761  11.460
38638W        W98075  43.346  28.512  14.339
38639W        W98076  29.662  38.421  12.340
38640W        W98077  18.153  38.916  13.322
38641W        W98078  38.061  14.319  12.921
38642W        W98079  14.158  11.182   1.705
38643W        W98080  44.346   6.804  12.905
38644W        W98081  38.072  34.088  13.413
38645W        W98082  14.811  37.362  11.543
38646W        W98083  29.450   5.393  13.003
38647W        W98084  19.181   5.209   0.780
38648W        W98085  33.418  15.602  13.017
38649W        W98086  20.540  34.492  14.349
38650W        W98087   9.686  29.022   2.383
38651W        W98088  28.955  33.972   3.811
38652W        W98089  38.927  17.113  10.553
38653W        W98090  34.117  36.537  12.882
38654W        W98091  39.890  37.857   3.790
38655W        W98092  18.110  35.411   0.935
38656W        W98093  12.715  21.213   3.671
38657W        W98094  41.836  32.056  14.796
38658W        W98095  36.533  27.486  13.512
38659W        W98096  32.416   6.890  12.906
38660W        W98097   4.725  29.005  11.540
38661W        W98098  38.068   1.362   1.890
38662W        W98099  28.173   4.942   1.929
38663W        W98100  25.975  18.749   2.895
38664W        W98101  17.664  42.430   0.851
38665W        W98102  34.888  24.616   1.446
38666W        W98103  20.724  19.138  12.561
38667W        W98104  18.670  30.958  13.353
38668W        W98105  17.649  27.980   3.855
38669W        W98106   4.293  30.957  14.841
38670W        W98107  31.645  34.539   3.324
38671W        W98108  25.051  23.994   3.671
38672W        W98109   5.847   7.784  14.295
38673W        W98110  18.207   1.963   4.324
38674W        W98111   0.765  26.126   1.227
38675W        W98112  34.476  22.569   2.688
38676W        W98113  30.536   8.379  14.973
38677W        W98114   3.407  28.450  13.895
38678W        W98115   0.444  12.332  11.512
38679W        W98116  33.051  36.961   1.285
38680W        W98117  34.454  11.348  10.593
38681W        W98118  17.207  31.068   2.740
38682W        W98119   9.325  43.813  11.401
38683W        W98120  19.273  30.619  10.944
38684W        W98121  22.241  15.723  11.931
38685W        W98122  21.216  35.482  12.962
38686W        W98123  25.083  16.674  14.918
38687W        W98124  32.444  40.431  13.546
38688W        W98125  34.020  16.691  10.590
38689W        W98126  26.202  10.725  12.971
38690W        W98127  11.833  21.615   0.914
38691W        W98128  13.748  17.795  14.460
38692W        W98129  13.187  30.974  14.871
38693W        W98130   9.652  28.602  12.034
38694W        W98131  11.696  25.994  13.852
38695W        W98132  19.547  25.030   3.670
38696W        W98133  11.811  23.185   3.850
38697W        W98134   4.347  21.107  13.427
38698W        W98135  37.350  24.171  14.859
38699W        W98136  33.987  24.700  13.433
38700W        W98137  38.357  20.611  11.973
38701W        W98138  15.591   4.768   2.829
38702W        W98139   3.334  35.385   2.245
38703W        W98140  10.829  20.046   1.406
38704W        W98141   7.740  30.137   0.921
38705W        W98142  16.657  18.601   4.174
38706W        W98143  37.531   2.298   1.220
38707W        W98144  27.516  25.065   2.785
38708W        W98145   4.352  29.510   4.682
38709W        W98146  22.614  32.058  12.079
38710W        W98147  10.367  34.584  13.409
38711W        W98148   5.378  30.628  14.352
38712W        W98149  31.487  44.831   3.256
38713W        W98150  11.820  13.235  11.091
38714W        W98151  20.572  28.469   1.919
38715W        W98152   3.724  11.800  13.411
38716W        W98153   8.794  32.088  10.456
38717W        W98154  28.014  34.535   0.774
38718W        W98155  17.252  11.843  10.113
38719W        W98156   2.828  44.984   2.670
38720W        W98157  42.420  16.294   4.646
38721W        W98158  25.983  43.796  13.894
38722W        W98159  29.977  15.786   2.371
38723W        W98160  18.177  26.555   4.682
38724W        W98161   9.810  22.105  12.827
38725W        W98162  36.026  42.971  11.589
38726W        W98163   5.416   0.888   0.905
38727W        W98164  20.155  42.002  14.973
38728W        W98165   8.172  31.045   0.418
38729W        W98166  34.867  27.523   4.782
38730W        W98167   0.745  16.209  11.054
38731W        W98168  20.665  20.545  10.424
38732W        W98169  15.681  30.094   3.675
38733W        W98170  15.316  18.293  12.382
38734W        W98171  31.998  27.014  14.390
38735W        W98172  35.876  22.662   1.234
38736W        W98173  26.613   2.902  12.991
38737W        W98174   2.794  30.972   4.692
38738W        W98175  25.481  33.486  10.077
38739W        W98176  13.699  27.468  13.364
38740W        W98177  16.161  35.375   1.877
38741W        W98178  12.754  21.622  14.320
38742W        W98179  26.126  28.058   0.919
38743W        W98180  21.704  35.924   1.248
38744W        W98181  30.044  28.624   2.261
38745W        W98182   8.393  20.694   4.306
38746W        W98183  34.979  35.011  13.918
38747W        W98184   9.746  16.761  12.059
38748W        W98185  14.809   8.294   4.312
38749W        W98186   3.349   0.351   2.751
38750W        W98187  15.275  44.266   1.896
38751W        W98188   7.761  11.623  11.977
38752W        W98189   5.779  38.428  13.839
38753W        W98190  29.452   4.791  14.473
38754W        W98191  25.502  22.545  13.338
38755W        W98192  10.663  21.090   3.245
38756W        W98193  42.388  31.496  14.836
38757W        W98194  20.567  26.673   3.787
38758W        W98195  22.195  30.555   3.327
38759W        W98196  27.194  33.499   2.895
38760W        W98197   2.304  37.526  10.084
38761W        W98198  27.586  38.837  12.063
38762W        W98199  18.547  22.158  14.352
38763W        W98200  40.510  13.120  13.035
38764W        W98201  34.536  35.021   4.658
38765W        W98202  29.596  30.947  11.463
38766W        W98203  42.517  22.037  13.465
38767W        W98204   3.834  36.481   1.820
38768W        W98205  17.137  30.113  11.106
38769W        W98206  19.759   9.695  10.529
38770W        W98207  34.391  23.998   4.602
38771W        W98208  30.969  43.922   4.624
38772W        W98209  19.147  16.635  12.486
38773W        W98210  44.412  30.493   4.179
38774W        W98211  40.937  20.525  13.993
38775W        W98212  32.513  36.045   4.265
38776W        W98213  19.282   5.428   1.422
38777W        W98214  32.525   2.294   0.445
38778W        W98215   8.193  25.000  10.894
38779W        W98216   4.823  34.496  11.004
38780W        W98217   1.432  12.348   2.857
38781W        W98218   4.942  20.575  12.886
38782W        W98219  21.734  44.366  11.114
38783W        W98220  25.507  19.615  11.060
38784W        W98221  17.589   5.336   0.948
38785W        W98222  40.419  15.793   1.852
38786W        W98223  34.388  32.057   2.898
38787W        W98224  10.864  42.306  14.032
38788W        W98225   5.435  16.756  12.540
38789W        W98226  30.932  40.805   2.222
38790W        W98227  25.487  17.247  10.445
38791W        W98228  11.279   2.456  14.935
38792W        W98229  14.608  31.012  14.870
38793W        W98230  14.290  28.589  13.362
38794W        W98231  23.575   5.240   3.355
38795W        W98232  36.056   6.228   0.926
38796W        W98233   3.901  25.130  13.972
38797W        W98234  34.927  37.021   0.911
38798W        W98235  38.999  28.164   9.961
38799W        W98236  23.133  14.600   4.204
38800W        W98237  26.182  35.466   5.296
38801W        W98238  40.885  11.180  10.593
38802W        W98239  21.590  35.068   1.415
38803W        W98240   6.787  11.179   3.670
38804W        W98241  13.156  20.273  13.413
38805W        W98242  41.382  26.496  13.546
38806W        W98243  42.889   4.795  12.877
38807W        W98244  41.437  19.774   2.336
38808W        W98245  25.652  25.496  10.626
38809W        W98246  41.875  18.063   0.362
38810W        W98247  13.108  17.292   5.252
38811W        W98248  24.051  22.065  13.420
38812W        W98249   0.920  38.885   9.531
38813W        W98250  10.154  43.856   0.348
38814W        W98251  21.742  37.553  11.542
38815W        W98252  12.823  35.066  13.443
38816W        W98253  20.559  39.984   2.362
38817W        W98254  14.790  12.248   0.270
38818W        W98255  33.487  14.141   3.273
38819W        W98256  37.581   4.763   1.384
38820W        W98257  22.094  38.423  10.957
38821W        W98258   5.259   7.850   4.124
38822W        W98259  26.081  43.336  10.900
38823W        W98260  29.012  20.030  12.064
38824W        W98261  31.555  36.536   2.873
38825W        W98262  30.922  39.953  11.908
38826W        W98263  26.083  29.631  10.940
38827W        W98264  44.312  36.529  11.084
38828W        W98265  33.020  16.745  13.354
38829W        W98266   8.793  24.978  10.973
38830W        W98267  31.580  11.668   3.767
38831W        W98268  17.262  24.721   4.307
38832W        W98269  21.598  32.503  10.951
38833W        W98270  22.060  10.287  11.535
38834W        W98271  32.080   9.789  13.453
38835W        W98272   9.854  17.721   1.878
38836W        W98273   9.731  26.531  12.542
38837W        W98274  11.306   1.944  10.629
38838W        W98275  29.058  38.970  11.097
38839W        W98276  40.397  30.095  13.368
38840W        W98277  32.073   7.253   2.721
38841W        W98278  40.350  11.345  14.849
38842W        W98279  13.697   0.752   1.851
38843W        W98280  39.396  31.638  11.983
38844W        W98281  39.447  34.990   0.826
38845W        W98282  28.469   3.736  11.969
38846W        W98283  11.862  29.929  14.435
38847W        W98284  11.781  35.013  11.463
38848W        W98285  24.973  18.584  13.005
38849W        W98286  24.126   3.349   4.745
38850W        W98287  11.810  26.677   1.307
38851W        W98288  36.981  40.494   3.674
38852W        W98289  20.583  39.529  14.842
38853W        W98290  26.464  33.496   3.672
38854W        W98291  16.098   8.216   1.879
38855W        W98292  18.688   7.845   1.265
38856W        W98293   8.293  18.153  10.478
38857W        W98294  24.711   4.301  12.056
38858W        W98295  38.560   3.273   0.880
38859W        W98296   1.442   1.903  13.830
38860W        W98297  11.670  19.641   0.894
38861W        W98298  33.928   5.423  14.905
38862W        W98299  15.283  36.487  12.350
38863W        W98300   6.869  17.653   2.733
38864W        W98301  40.412  13.718   1.729
38865W        W98302   9.886   4.802   4.640
38866W        W98303  24.600  34.978   4.192
38867W        W98304  26.103   3.723  13.879
38868W        W98305   9.185  12.337   3.182
38869W        W98306  27.498   0.324   0.851
38870W        W98307  34.442  34.519  11.458
38871W        W98308  21.595  30.053   1.215
38872W        W98309   9.266  10.175   4.328
38873W        W98310  22.561  31.553   9.943
38874W        W98311   0.423  17.567   2.879
38875W        W98312  24.531  35.599  12.541
38876W        W98313  28.576  44.407   3.311
38877W        W98314  27.648  34.474  11.517
38878W        W98315  24.016  39.496   2.777
38879W        W98316  31.487   3.791   2.339
38880W        W98317  36.571  20.215  13.340
38881W        W98318  18.131  43.827   2.377
38882W        W98319   9.885  22.038   4.695
38883W        W98320  27.576  35.091   4.715
38884W        W98321   3.315  18.733   4.757
38885W        W98322  35.532  26.575   4.648
38886W        W98323  38.992  41.888  12.387
38887W        W98324   1.800  16.787   3.793
38888W        W98325  40.339  17.227   3.868
38889W        W98326  37.496  34.051   0.352
38890W        W98327  17.084  21.711  14.923
38891W        W98328  19.561  14.829   2.383
38892W        W98329  21.526  22.096  14.446
38893W        W98330   1.392  40.425   1.446
38894W        W98331   0.403  31.928  11.545
38895W        W98332   7.686  22.224  12.988
38896W        W98333  42.327  13.815  14.956
38897W        W98334  26.656  15.640   4.248
38898W        W98335  41.425   4.268  14.488
38899W        W98336  39.417  31.407   3.349
38900W        W98337  34.866  30.623  11.604
38901W        W98338  28.492  36.061   0.328
38902W        W98339  28.547  33.471   0.406
38903W        W98340  33.597  15.308   2.718
38904W        W98341  25.059  34.061  14.297
38905W        W98342  26.135   0.279  13.899
38906W        W98343   8.702   2.453   4.300
38907W        W98344  20.147  40.870   4.770
38908W        W98345  35.486  15.765   4.182
38909W        W98346   9.170  24.634   2.826
38910W        W98347   3.248  34.965   0.810
38911W        W98348  29.979  34.914   2.227
38912W        W98349   3.900  33.958   0.788
38913W        W98350   2.911   9.700   1.402
38914W        W98351   9.750   6.901  13.045
38915W        W98352   0.374  20.562  14.301
38916W        W98353   2.454   0.791  13.386
38917W        W98354  20.582  24.611   0.865
38918W        W98355  33.074  21.566  10.626
38919W        W98356   4.941  41.411   3.170
38920W        W98357  28.176   2.403   2.881
38921W        W98358  40.483  43.485  11.512
38922W        W98359  40.549  33.021   3.731
38923W        W98360  33.418  20.684   4.753
38924W        W98361  30.416  34.477   2.840
38925W        W98362  20.641   7.794  13.471
38926W        W98363  42.297  43.290   2.235
38927W        W98364  38.055  33.970   2.288
38928W        W98365  37.509  15.283   0.736
38929W        W98366  10.788   0.478   2.766
38930W        W98367  18.088  18.289  10.984
38931W        W98368   7.332  32.008  13.810
38932W        W98369   8.863  37.375   1.405
38933W        W98370  13.243  28.151  10.645
38934W        W98371  13.743  21.583  13.835
38935W        W98372  36.987  42.015  12.408
38936W        W98373  12.302   4.854  14.912
38937W        W98374  28.015  14.137   0.392
38938W        W98375  23.489  10.794  10.502
38939W        W98376  26.498  33.961  12.926
38940W        W98377   4.874  35.947   0.864
38941W        W98378  19.716  25.566   2.900
38942W        W98379   9.661   2.298  12.091
38943W        W98380   7.383  13.172  12.512
38944W        W98381  22.104  23.531   4.719
38945W        W98382  32.994  40.909  11.480
38946W        W98383   6.786  41.894   0.881
38947W        W98384  23.218   1.748  10.541
38948W        W98385  31.951  20.097  13.346
38949W        W98386  40.548  42.818   3.236
38950W        W98387   8.790   0.917  13.313
38951W        W98388  17.123  26.164   0.860
38952W        W98389  40.903  25.220  12.499
38953W        W98390  17.560  13.273  14.440
38954W        W98391  35.455  42.408  11.906
38955W        W98392  42.832  15.136   3.363
38956W        W98393  13.809   8.792   0.959
38957W        W98394  19.275  31.068   2.416
38958W        W98395  12.674  17.185  13.317
38959W        W98396   6.858  19.556   3.184
38960W        W98397   5.379  38.396   2.296
38961W        W98398  16.574   7.766   3.674
38962W        W98399  26.200  18.114  10.559
38963W        W98400  17.673   3.424  14.787
38964W        W98401  42.910  31.426  13.053
38965W        W98402  37.446  20.076  14.312
38966W        W98403  22.511  18.653   1.380
38967W        W98404  37.065  34.915   1.345
38968W        W98405  26.636  40.805   5.109
38969W        W98406  43.275  20.561  12.833
38970W        W98407  13.618  23.014  10.614
38971W        W98408   6.418   4.867  13.036
38972W        W98409  22.009  11.680  14.926
38973W        W98410  43.382  17.629  11.922
38974W        W98411  33.109  15.759  11.054
38975W        W98412  44.304  33.093  10.465
38976W        W98413  26.674  39.471   3.308
38977W        W98414  37.504   6.792   3.210
38978W        W98415  26.508   6.803   4.689
38979W        W98416  13.338  38.047  11.984
38980W        W98417   6.260  10.767  11.858
38981W        W98418  23.203  39.897  11.886
38982W        W98419  35.526  34.394   4.678
38983W        W98420  41.392  40.851  14.513
38984W        W98421  30.612  13.638  11.409
38985W        W98422   6.298  19.595   3.358
38986W        W98423   2.305   3.803   2.283
38987W        W98424  36.874  32.478   4.814
38988W        W98425  36.358   5.853  11.511
38989W        W98426   3.804  12.264  11.068
38990W        W98427  23.673  24.074  14.354
38991W        W98428  43.899  30.617   2.227
38992W        W98429  26.646  16.205   0.778
38993W        W98430   1.366  34.504   3.717
38994W        W98431  21.214   3.794  10.520
38995W        W98432  23.632  42.805   0.469
38996W        W98433  14.235  17.723  12.090
38997W        W98434  32.623  26.627   1.860
38998W        W98435  17.270   7.234   0.951
38999W        W98436  24.125  10.828  10.569
39000W        W98437   0.744  31.573   4.603
39001W        W98438  44.999   4.310  13.059
39002W        W98439  20.073  15.096  10.911
39003W        W98440   9.855   4.327  11.075
39004W        W98441  44.302  31.477   3.319
39005W        W98442  17.592   3.790  14.008
39006W        W98443   2.782  35.057   0.953
39007W        W98444  28.644  37.453   4.191
39008W        W98445  36.910   3.904   2.693
39009W        W98446  24.079  22.243  11.927
39010W        W98447   7.183  16.808   4.698
39011W        W98448   6.844  42.303   1.788
39012W        W98449   1.337   8.226  12.930
39013W        W98450   1.740  10.871   9.536
39014W        W98451   8.805  40.984   0.284
39015W        W98452   2.949  36.412   3.727
39016W        W98453  16.194   9.324  14.488
39017W        W98454   3.733  12.197  14.015
39018W        W98455  28.671  20.033   3.243
39019W        W98456  14.195  34.093  13.918
39020W        W98457   9.291  19.761   2.359
39021W        W98458  39.496  22.083  10.548
39022W        W98459   3.292  13.631  13.404
39023W        W98460  34.958  15.584   0.471
39024W        W98461  23.610  35.908   0.482
39025W        W98462  35.472  22.118   2.199
39026W        W98463  19.060  22.025  12.030
39027W        W98464  34.411  30.027   1.423
39028W        W98465  28.988  30.474  12.576
39029W        W98466  11.342  27.973  13.441
39030W        W98467  40.449  39.963   3.749
39031W        W98468  37.833  11.747   4.693
39032W        W98469  19.758  29.151  12.370
39033W        W98470  24.669  18.268  11.469
39034W        W98471  40.398   3.334  14.790
39035W        W98472  33.934  39.818  14.814
39036W        W98473  18.154  20.203  12.895
39037W        W98474  24.694   1.889   3.273
39038W        W98475  40.402  22.078  11.392
39039W        W98476  32.565  32.512  11.104
39040W        W98477  44.408   3.419  10.482
39041W        W98478  19.258  23.552  10.571
39042W        W98479  38.347  14.278   4.265
39043W        W98480  38.035  16.758  10.455
39044W        W98481  18.100  19.047   0.373
39045W        W98482   9.312  44.435  11.422
39046W        W98483  12.297  17.683   3.304
39047W        W98484  21.204  43.499  12.083
39048W        W98485   8.343  25.626  11.094
39049W        W98486  12.147  23.534   2.404
39050W        W98487  14.663  31.566  10.414
39051W        W98488  24.202  36.029  12.867
39052W        W98489  18.168  42.958   3.204
39053W        W98490  13.618  22.673   0.842
39054W        W98491  21.669  32.500  11.868
39055W        W98492  24.085   9.188  11.533
39056W        W98493  22.669  16.272   0.262
39057W        W98494   1.781  40.978   3.161
39058W        W98495  20.073  11.646   0.829
39059W        W98496  38.919  42.523  13.893
39060W        W98497  36.969  17.744   4.307
39061W        W98498   1.249  19.064   2.778
39062W        W98499  26.584  21.092  12.518
39063W        W98500  19.549   2.721  10.457
39064W        W98501  13.307   8.287  11.115
39065W        W98502  41.793  23.186  11.373
39066W        W98503   4.709  19.053  14.407
39067W        W98504  28.521  25.482   4.292
39068W        W98505  39.379   0.273   3.652
39069W        W98506   5.329   3.738   0.781
39070W        W98507  21.703  33.535   4.837
39071W        W98508  20.760   1.298  14.328
39072W        W98509  16.651   9.805  12.471
39073W        W98510  36.503  14.625   0.428
39074W        W98511  23.735   4.865   4.208
39075W        W98512  16.744  40.946  12.916
39076W        W98513  16.260  22.582  13.014
39077W        W98514  39.432  44.945  11.388
39078W        W98515  15.281   3.325  11.482
39079W        W98516   0.937  28.148  12.402
39080W        W98517  36.462  41.387   0.837
39081W        W98518  34.515  18.614  12.046
39082W        W98519  28.015   6.365   4.778
39083W        W98520  30.642  31.951   4.646
39084W        W98521  25.548  33.557   1.310
39085W        W98522  31.974  24.116  11.925
39086W        W98523   9.724  28.520  12.939
39087W        W98524  36.047  31.433  14.397
39088W        W98525   3.424   3.854  13.006
39089W        W98526  44.834  27.078  13.899
39090W        W98527  18.059  22.185  13.005
39091W        W98528  26.952  21.018  13.402
39092W        W98529  37.949   6.802   3.187
39093W        W98530   3.869  12.766   4.227
39094W        W98531  13.638  13.709   0.297
39095W        W98532  38.443  31.540  10.482
39096W        W98533  33.017  11.286  13.519
39097W        W98534   9.192  28.658  11.515
39098W        W98535  25.554  23.635  10.902
39099W        W98536  24.045   7.754   0.729
39100W        W98537  12.217  12.714   3.790
39101W        W98538  40.886   4.369   1.367
39102W        W98539  25.567  26.058  10.898
39103W        W98540  44.981   2.828   2.684
39104W        W98541  24.063  16.762  10.421
39105W        W98542  10.736  40.961   0.259
39106W        W98543  39.063  12.625   0.739
39107W        W98544  10.160  10.313   5.151
39108W        W98545  41.404   5.912  14.342
39109W        W98546  11.656  44.350   2.670
39110W        W98547  16.729  18.784  14.981
39111W        W98548   0.916  17.779   0.827
39112W        W98549  15.723  14.292  14.971
39113W        W98550  13.733  21.222  10.888
39114W        W98551  15.806  14.697   5.312
39115W        W98552  30.597   8.344  12.859
39116W        W98553  11.727  44.440   3.217
39117W        W98554  44.759   6.838  10.506
39118W        W98555   2.247  23.207   1.380
39119W        W98556   9.290  32.130   3.668
39120W        W98557   7.790  32.917  13.972
39121W        W98558   9.367  26.203  14.847
39122W        W98559  10.253  30.933   4.268
39123W        W98560  43.410  42.862   0.925
39124W        W98561  33.420   0.983   4.682
39125W        W98562   2.854  19.664  11.560
39126W        W98563   1.767  12.661  11.866
39127W        W98564  37.855  16.089  10.947
39128W        W98565  36.479  25.025   0.842
39129W        W98566   7.850  40.917  12.496
39130W        W98567   9.327   3.323  13.799
39131W        W98568  42.886  30.612   0.808
39132W        W98569  22.722  43.883   3.200
39133W        W98570  37.861  25.518  14.430
39134W        W98571   5.861  18.058  11.598
39135W        W98572  40.535  38.523  10.609
39136W        W98573  35.360  36.413  13.908
39137W        W98574  22.512  42.805  13.434
39138W        W98575  38.533  35.535  11.574
39139W        W98576  27.606  38.429  14.450
39140W        W98577   9.692   4.207   4.225
39141W        W98578  37.922   0.486  11.432
39142W        W98579  27.488  29.639   4.721
39143W        W98580   7.361  38.051  11.070
39144W        W98581   0.333   6.209  14.489
39145W        W98582  23.704  28.484  13.373
39146W        W98583  37.975  40.349   0.929
39147W        W98584  25.607  21.564   2.311
39148W        W98585  41.896  42.362  10.510
39149W        W98586  14.224   3.329   2.383
39150W        W98587  40.022  26.956   1.263
39151W        W98588  35.049   2.826   3.314
39152W        W98589   6.234  37.414  12.047
39153W        W98590   6.383   3.297   0.413
39154W        W98591  25.059  18.545   0.254
39155W        W98592   2.320  37.501   0.266
39156W        W98593  41.938  27.634   1.222
39157W        W98594  14.604  36.896  10.492
39158W        W98595   1.932   0.340   0.960
39159W        W98596   2.450   6.320  13.487
39160W        W98597  43.806  10.152   4.337
39161W        W98598   2.917  12.712   1.247
39162W        W98599   0.381   4.825   0.783
39163W        W98600  21.096  38.065  10.461
39164W        W98601  21.585  14.642  14.930
39165W        W98602  24.095  10.817   5.756
39166W        W98603  22.025  34.508   2.313
39167W        W98604  18.566  25.591   2.882
39168W        W98605  25.706   2.313  12.557
39169W        W98606   6.727   0.863   1.855
39170W        W98607  11.222  23.708  12.074
39171W        W98608  34.993  25.063   1.866
39172W        W98609   2.926  29.612   2.288
39173W        W98610  44.299  22.136  13.908
39174W        W98611  32.390   3.281   2.418
39175W        W98612  41.794   7.789  10.632
39176W        W98613  24.527  15.804   2.333
39177W        W98614   8.667   6.367  11.587
39178W        W98615   3.334  17.648   4.805
39179W        W98616  19.625   4.266   3.270
39180W        W98617  44.319  24.481   1.695
39181W        W98618   5.795  27.572   0.909
39182W        W98619  36.414  11.272  13.030
39183W        W98620  39.850  14.704   3.280
39184W        W98621  18.094  29.107   0.333
39185W        W98622  42.481  26.594  14.429
39186W        W98623  43.481  21.692   1.697
39187W        W98624  34.075  25.998  12.433
39188W        W98625  29.145  34.074  13.879
39189W        W98626  29.591  15.225   2.274
39190W        W98627  13.221  35.593   4.760
39191W        W98628  18.050  39.854  12.078
39192W        W98629  30.910   6.313  11.055
39193W        W98630  42.296  32.135  11.456
39194W        W98631  31.495  33.452  11.910
39195W        W98632  25.979  29.538   3.791
39196W        W98633   4.332  34.000  14.486
39197W        W98634  24.693   9.809   1.421
39198W        W98635  30.624  22.092  12.972
39199W        W98636  35.002  15.630   0.850
39200W        W98637  30.961  15.589  12.955
39201W        W98638  21.020  34.964   4.755
39202W        W98639   1.923  11.271  14.957
39203W        W98640   3.907  16.734  10.548
39204W        W98641  34.937  43.427   3.288
39205W        W98642  26.083  14.835  13.358
39206W        W98643  11.847   3.285   1.921
39207W        W98644   0.781   5.769   9.974
39208W        W98645   3.409   6.344   1.224
39209W        W98646  35.944  15.145   3.731
39210W        W98647  25.712  12.232  13.807
39211W        W98648  21.196   0.427   5.136
39212W        W98649  28.670  27.148  13.041
39213W        W98650  17.243  20.196  14.463
39214W        W98651  13.284  42.409   0.320
39215W        W98652  37.068   5.696   3.837
39216W        W98653  34.007  43.470   1.793
39217W        W98654  25.524  23.638   3.175
39218W        W98655  40.916  15.662  10.962
39219W        W98656  28.073  32.987   4.721
39220W        W98657   2.801  44.330   4.743
39221W        W98658  21.523  10.660  12.035
39222W        W98659  35.081  16.757   0.288
39223W        W98660   3.302   4.929   4.694
39224W        W98661  29.978   1.930  12.488
39225W        W98662  43.329  33.094  13.928
39226W        W98663  18.127   9.362   2.325
39227W        W98664  43.805   3.318   0.440
39228W        W98665   4.713  20.090   1.827
39229W        W98666  15.276  40.040  14.998
39230W        W98667  22.241  11.305   5.138
39231W        W98668   0.416  42.314   4.226
39232W        W98669  24.722  16.259  12.531
39233W        W98670   0.984  39.532   1.744
39234W        W98671   5.757   4.438  11.941
39235W        W98672  40.499  27.644  10.432
39236W        W98673  29.926  19.278  13.822
39237W        W98674   3.389  22.698  13.850
39238W        W98675  21.035  39.829  14.340
39239W        W98676  15.322  34.099   1.231
39240W        W98677   3.783  25.513  12.407
39241W        W98678  12.804  13.807   1.325
39242W        W98679  35.570  37.845  14.940
39243W        W98680  10.650  31.438  14.925
39244W        W98681  40.320  11.249  13.034
39245W        W98682  36.865  36.539   3.262
39246W        W98683  25.638  10.346  13.881
39247W        W98684  17.594  15.187  13.384
39248W        W98685   6.297  37.491   1.396
39249W        W98686   9.365  34.540   3.260
39250W        W98687   7.370  41.953  11.938
39251W        W98688  41.930   2.366   0.927
39252W        W98689  40.926   2.724   2.707
39253W        W98690  29.092  10.139  14.894
39254W        W98691  38.980  17.185   0.255
39255W        W98692  27.143  20.085  12.378
39256W        W98693  15.629  28.548  14.454
39257W        W98694  20.205  13.246   4.696
39258W        W98695  31.511   4.409  14.927
39259W        W98696  13.122  37.462  13.506
39260W        W98697  32.617  13.151  14.781
39261W        W98698  14.642  27.002   2.392
39262W        W98699   4.844  44.770   1.355
39263W        W98700   2.385   3.250  11.037
39264W        W98701  37.567  44.334  13.968
39265W        W98702  18.608  17.684   4.679
39266W        W98703  39.515  13.308  10.583
39267W        W98704   5.348  41.374  11.522
39268W        W98705  18.720   9.154  14.911
39269W        W98706  31.928  10.757  14.931
39270W        W98707  10.864  14.331   1.698
39271W        W98708  40.830  13.674   4.194
39272W        W98709  11.146   5.333  13.002
39273W        W98710  20.588  39.453   3.295
39274W        W98711  44.796  22.565   4.266
39275W        W98712  15.658  37.971   3.679
39276W        W98713   6.880  19.741  14.454
39277W        W98714   8.691  24.565   2.752
39278W        W98715   7.192   7.773   2.734
39279W        W98716  20.173  42.510  10.097
39280W        W98717   6.215  35.885  14.416
39281W        W98718  32.063  12.147   2.718
39282W        W98719  42.991   5.759   0.400
39283W        W98720  22.626  30.450  13.854
39284W        W98721   4.253  22.161   4.275
39285W        W98722  34.453  39.505   1.410
39286W        W98723  18.188  24.116  14.019
39287W        W98724  15.622  31.447  14.424
39288W        W98725  10.200  33.011  12.885
39289W        W98726  20.175   2.377  14.999
39290W        W98727   4.856   9.764  11.004
39291W        W98728  31.493   8.859  10.535
39292W        W98729   2.273   1.874   2.377
39293W        W98730  17.760  38.048  10.405
39294W        W98731  37.028  18.689  10.537
39295W        W98732  11.841  40.452  12.021
39296W        W98733  24.069   3.929   4.343
39297W        W98734  39.383  14.626  13.323
39298W        W98735  17.306  18.779   4.803
39299W        W98736   5.692  44.952   0.781
39300W        W98737  27.528  37.479   2.213
39301W        W98738  28.109  15.296   1.355
39302W        W98739   6.326  43.348  10.975
39303W        W98740  44.378   1.361   2.416
39304W        W98741  19.152  10.354  14.404
39305W        W98742  22.111   4.386  12.467
39306W        W98743   5.779   3.817  10.431
39307W        W98744   8.672  33.023  14.379
39308W        W98745  13.327  40.541   4.630
39309W        W98746  23.211  14.325   5.250
39310W        W98747  42.975   3.315  13.835
39311W        W98748   3.734  40.022  12.416
39312W        W98749  25.576  26.506   5.274
39313W        W98750  27.123  12.353   0.824
39314W        W98751  31.972  30.089  12.986
39315W        W98752  24.680   5.872  14.935
39316W        W98753   2.403  35.596  13.928
39317W        W98754  15.103  41.828  11.074
39318W        W98755  30.559   1.813   0.338
39319W        W98756  40.014  12.647  10.616
39320W        W98757  22.130   8.298  14.294
39321W        W98758  11.347  34.454   0.257
39322W        W98759  25.029  33.080   0.812
39323W        W98760  11.786  40.806   2.224
39324W        W98761  17.673  18.291   0.874
39325W        W98762  19.623  38.465   1.925
39326W        W98763  22.543  20.155   4.281
39327W        W98764  34.445  36.394   3.150
39328W        W98765  22.685   7.814   1.761
39329W        W98766  17.198  17.747  10.629
39330W        W98767  37.368  21.622  11.395
39331W        W98768  21.719  40.821  12.534
39332W        W98769  13.665  26.585  14.923
39333W        W98770  43.335  24.648   1.796
39334W        W98771  25.131  25.215  12.972
39335W        W98772  33.563   7.180  10.538
39336W        W98773  44.295   0.470   1.286
39337W        W98774  13.712  41.302  11.891
39338W        W98775  20.242   7.289  11.002
39339W        W98776  23.102  43.302   3.820
39340W        W98777   8.241  22.007   1.237
39341W        W98778  38.382  34.586  13.308
39342W        W98779  18.180  34.896   3.326
39343W        W98780  38.388  44.782   4.673
39344W        W98781   6.372  44.360  11.551
39345W        W98782  25.964  18.262   1.694
39346W        W98783  28.455  11.275  12.872
39347W        W98784  34.535   3.945   1.222
39348W        W98785  17.170   1.920   2.291
39349W        W98786  37.054   4.922  11.952
39350W        W98787   0.908  43.962  12.956
39351W        W98788  13.845  42.348   4.761
39352W        W98789  19.740  39.546  13.531
39353W        W98790   1.475  41.942   0.746
39354W        W98791  27.610  19.641   1.267
39355W        W98792  29.436   4.881   1.894
39356W        W98793  14.115  37.531  10.994
39357W        W98794   3.272   1.914  10.417
39358W        W98795  21.134  37.081   1.699
39359W        W98796   7.309  37.510  12.876
39360W        W98797  17.231   4.885  12.093
39361W        W98798  10.377  41.404   2.747
39362W        W98799  34.399  44.784   0.388
39363W        W98800  33.474  36.443  14.417
39364W        W98801  44.465  23.693  14.981
39365W        W98802  20.709  41.993   0.920
39366W        W98803  13.677  10.323   4.289
39367W        W98804  18.076  15.154   3.750
39368W        W98805   8.337  41.419   3.663
39369W        W98806  16.691   2.837   3.222
39370W        W98807  16.787  36.418   1.849
39371W        W98808  29.556  10.643  12.953
39372W        W98809  29.139  11.796   1.776
39373W        W98810  22.053  25.527  14.326
39374W        W98811   4.738   6.280   3.305
39375W        W98812  43.954  43.793   0.456
39376W        W98813  12.688  36.525  12.467
39377W        W98814   5.217  21.043  14.454
39378W        W98815  16.662   6.253  11.401
39379W        W98816  24.485   1.358   1.415
39380W        W98817  43.377   5.884   4.700
39381W        W98818  38.565  31.438   0.950
39382W        W98819  25.042  15.103  14.906
39383W        W98820   1.361   2.334   1.870
39384W        W98821  42.892  12.212  11.545
39385W        W98822   3.299  35.406   4.732
39386W        W98823  24.212  14.677  11.449
39387W        W98824   5.806  40.970   3.698
39388W        W98825   3.805  31.991   3.643
39389W        W98826  10.337  40.469  11.899
39390W        W98827   5.901  34.952   0.413
39391W        W98828  32.458  43.878  14.759
39392W        W98829   9.782  37.849   1.854
39393W        W98830   4.437   1.962  11.112
39394W        W98831  15.618  16.310   0.300
39395W        W98832   5.815  44.259   0.726
39396W        W98833  41.439  29.059  13.879
39397W        W98834  30.573  24.662  12.383
39398W        W98835  29.658  33.573  14.448
39399W        W98836  17.737  11.787  10.409
39400W        W98837  39.941   9.665   4.227
39401W        W98838  33.007  28.452   1.337
39402W        W98839  19.767  43.796  14.984
39403W        W98840  19.751  26.194  11.566
39404W        W98841  30.004  14.730   2.330
39405W        W98842  21.180  21.673   0.796
39406W        W98843  24.724  34.062   4.136
39407W        W98844  24.650  39.828  10.551
39408W        W98845  12.335  43.433  12.508
39409W        W98846  33.106  13.833  10.424
39410W        W98847   6.352   2.326  13.325
39411W        W98848   9.165  34.112  14.830
39412W        W98849   6.251  40.395  14.876
39413W        W98850   3.763  16.186   1.446
39414W        W98851  25.708   6.735  11.901
39415W        W98852  24.529  33.931  12.486
39416W        W98853   0.356  38.326   3.317
39417W        W98854  17.081  12.140   4.659
39418W        W98855  41.948  25.169  13.954
39419W        W98856  13.629  32.574   2.355
39420W        W98857  22.248  17.669  11.517
39421W        W98858  31.549  23.610   3.773
39422W        W98859  13.643  19.560   1.802
39423W        W98860   9.233  28.110  11.936
39424W        W98861  10.675  24.575  12.577
39425W        W98862  41.816   0.312  12.931
39426W        W98863  11.703  32.087   3.244
39427W        W98864  18.127  17.640  14.844
39428W        W98865  18.562  36.424  11.102
39429W        W98866  34.409  22.614   3.716
39430W        W98867  21.046  21.673  12.389
39431W        W98868  19.599   6.358   3.271
39432W        W98869  13.137   5.313  14.422
39433W        W98870  37.414  40.921   3.843
39434W        W98871  15.664  31.413   2.717
39435W        W98872   6.424  19.762  10.472
39436W        W98873   5.387  10.207  10.914
39437W        W98874  30.965  23.157  12.011
39438W        W98875  14.652  33.574  12.847
39439W        W98876   7.812  13.265  12.536
39440W        W98877  41.975  41.301  14.412
39441W        W98878  24.185  22.724   1.218
39442W        W98879   4.775  27.611   3.232
39443W        W98880  39.369  42.454   0.763
39444W        W98881   7.222  41.414  13.309
39445W        W98882  23.056  41.965   2.890
39446W        W98883  23.733   2.885   2.333
39447W        W98884  33.931  19.213   4.736
39448W        W98885  27.124  12.325   9.661
39449W        W98886  24.605  24.680  11.990
39450W        W98887   0.409  23.617   1.441
39451W        W98888  13.696  28.179   4.744
39452W        W98889  37.541  10.731   3.802
39453W        W98890  15.650  21.212  12.097
39454W        W98891  35.479  32.601   0.931
39455W        W98892   7.666  18.775  12.049
39456W        W98893   1.438  44.412   2.279
39457W        W98894  33.497  39.340   1.354
39458W        W98895  34.549  26.097   0.425
39459W        W98896   5.200   0.801  10.502
39460W        W98897  28.103  41.374  11.059
39461W        W98898  33.904  16.610   3.167
39462W        W98899  34.985   8.772  10.072
39463W        W98900  31.631   9.240   1.741
39464W        W98901  32.941  36.500  10.438
39465W        W98902  25.060   5.345   1.718
39466W        W98903   9.344  23.634  12.539
39467W        W98904  13.650  24.667  12.875
39468W        W98905  28.013  39.842   2.885
39469W        W98906  24.192  41.472   3.357
39470W        W98907  39.858  14.680  11.925
39471W        W98908  37.869  35.547  12.527
39472W        W98909  11.302  10.733  10.413
39473W        W98910  14.233   8.841   3.370
39474W        W98911  23.125  27.056   4.150
39475W        W98912  34.528   8.380   4.344
39476W        W98913  16.610  23.605  13.397
39477W        W98914   9.849   3.750   2.300
39478W        W98915  38.921   0.425  14.415
39479W        W98916  35.044  13.284   1.914
39480W        W98917   8.855  17.135   3.341
39481W        W98918   2.788  38.053  14.003
39482W        W98919  40.373   1.778  12.390
39483W        W98920  22.089  17.303  13.459
39484W        W98921  10.713   6.328   3.365
39485W        W98922  23.173  42.376   0.953
39486W        W98923  15.662  41.493   3.358
39487W        W98924   8.226  29.964   4.738
39488W        W98925   8.682  20.150  10.948
39489W        W98926   7.858   3.859   4.141
39490W        W98927  30.543  34.872  14.903
39491W        W98928  31.484  25.027  14.006
39492W        W98929  24.175  43.913   2.826
39493W        W98930  26.959  40.804  13.024
39494W        W98931   2.952   4.742   1.359
39495W        W98932  31.930   5.210  14.946
39496W        W98933  34.893   7.767  13.061
39497W        W98934   6.818  18.758  13.861
39498W        W98935  38.348   7.201   1.284
39499W        W98936  23.984  17.656  14.863
39500W        W98937   8.679  40.528  12.547
39501W        W98938  34.496   2.314   1.384
39502W        W98939   9.252   1.477  12.837
39503W        W98940  15.261   4.402  13.979
39504W        W98941  25.164  10.784  14.931
39505W        W98942  25.216  20.746  12.888
39506W        W98943  43.377   2.937   2.414
39507W        W98944  25.657  35.892  14.983
39508W        W98945  40.994  42.495   3.238
39509W        W98946  44.947  10.634   9.529
39510W        W98947   8.865   8.283   2.376
39511W        W98948  33.057  18.278   2.712
39512W        W98949   5.263  34.069   2.374
39513W        W98950   4.267   8.742   3.232
39514W        W98951  18.234  18.112   1.307
39515W        W98952  20.585  44.790  14.278
39516W        W98953  37.530  39.332   4.302
39517W        W98954  27.611  22.622   4.785
39518W        W98955  37.532  14.728   0.446
39519W        W98956   2.227  29.542   4.706
39520W        W98957  31.449  15.823  11.932
39521W        W98958   4.823  34.999   1.350
39522W        W98959  26.501  34.598   1.337
39523W        W98960  40.955  30.500  12.058
39524W        W98961  30.433  32.481  13.878
39525W        W98962  15.762   3.281  12.020
39526W        W98963   7.837  24.587  13.813
39527W        W98964  35.566   9.258   0.862
39528W        W98965  37.471  10.805   2.240
39529W        W98966  44.312  43.830   4.729
39530W        W98967  36.842   3.896  13.897
39531W        W98968  41.482   6.721  13.965
39532W        W98969  13.211  28.993   4.260
39533W        W98970  30.491  38.911   4.169
39534W        W98971  11.364  13.749  12.064
39535W        W98972   9.342   7.352   3.374
39536W        W98973   8.837  36.424   0.866
39537W        W98974   3.414  27.016  12.997
39538W        W98975  21.261  36.002  11.580
39539W        W98976  28.600   1.810  11.411
39540W        W98977   6.693  44.883   0.441
39541W        W98978  18.734  18.767  10.982
39542W        W98979   4.276  41.535  13.930
39543W        W98980  25.219  11.133  14.294
39544W        W98981  38.986  33.087   3.170
39545W        W98982  33.070   1.277  14.960
39546W        W98983  41.313  27.656  13.033
39547W        W98984  29.096  14.650   2.184
39548W        W98985  37.531  41.444  10.963
39549W        W98986  18.061  36.047   1.431
39550W        W98987   8.795  40.921   3.153
39551W        W98988  38.514   8.795  14.808
39552W        W98989   5.303  43.978   0.791
39553W        W98990   9.886   1.869   0.822
39554W        W98991  23.554  27.464  11.047
39555W        W98992   4.918  29.173  14.791
39556W        W98993  20.219  22.629   1.913
39557W        W98994  35.059  25.612  10.613
39558W        W98995   1.433  26.951   3.199
39559W        W98996  31.477  18.288   3.841
39560W        W98997  21.211   0.759  11.879
39561W        W98998  16.591   2.267   2.848
39562W        W98999  34.099   7.711  11.529
39563W        W99000  13.174  28.473   0.763
39564W        W99001  22.653  22.682   1.214
39565W        W99002   7.888  28.589  11.381
39566W        W99003  21.727   1.903   5.251
39567W        W99004   4.391  14.251  13.401
39568W        W99005  26.099  29.975   4.678
39569W        W99006  42.950  18.067   1.271
39570W        W99007  33.889  30.100   4.645
39571W        W99008   9.860  44.311   2.800
39572W        W99009  35.018  35.455   1.350
39573W        W99010  22.715  38.940   4.149
39574W        W99011  37.027  20.032   0.764
39575W        W99012  11.817  25.041   4.210
39576W        W99013  37.935  27.559   0.744
39577W        W99014   0.282  42.507   2.296
39578W        W99015  37.969   3.292  11.580
39579W        W99016  11.860  42.469  14.929
39580W        W99017   8.238  41.789   0.259
39581W        W99018  36.354  23.006  13.853
39582W        W99019  32.985  11.706  12.567
39583W        W99020  11.222   8.738  14.353
39584W        W99021   2.813   4.721   3.374
39585W        W99022  34.446   4.936   0.816
39586W        W99023   0.777  44.375  13.476
39587W        W99024  14.187  36.380  10.495
39588W        W99025  42.484   6.684   3.368
39589W        W99026  38.357  27.964  14.482
39590W        W99027   6.355  10.699   2.325
39591W        W99028  22.204  34.980  11.944
39592W        W99029  10.851  38.061   3.821
39593W        W99030  44.918  11.360   0.481
39594W        W99031  26.638  25.188  13.837
39595W        W99032  32.560  17.125   1.231
39596W        W99033  26.470   6.414   5.111
39597W        W99034  13.800  23.595   2.835
39598W        W99035   8.784  30.013  13.024
39599W        W99036  15.595  44.291   1.212
39600W        W99037   2.730  30.997  10.596
39601W        W99038  35.071  16.090  14.504
39602W        W99039   2.965  21.046   2.709
39603W        W99040  33.584  18.287  14.771
39604W        W99041  39.558   0.811   2.754
39605W        W99042  38.917  42.404   0.389
39606W        W99043  19.550  15.251   0.744
39607W        W99044  38.513  20.043  12.380
39608W        W99045  34.456  39.455   2.332
39609W        W99046   7.181  39.452  12.911
39610W        W99047   5.250  22.054   2.385
39611W        W99048  39.873  39.057  12.526
39612W        W99049  35.029  27.680  10.982
39613W        W99050   8.343  17.284  14.917
39614W        W99051  21.123  13.125  14.932
39615W        W99052  10.727   3.727   3.648
39616W        W99053  18.200  29.993  13.951
39617W        W99054  31.907   3.283  12.353
39618W        W99055   6.901   3.833  12.051
39619W        W99056   4.416  11.241  13.814
39620W        W99057  16.628  23.535  14.318
39621W        W99058   2.881  19.586   2.879
39622W        W99059  26.118  26.040   3.238
39623W        W99060  21.709  18.116  14.909
39624W        W99061  24.559  10.200  13.449
39625W        W99062  28.461  31.045   4.292
39626W        W99063   4.353   7.386  12.538
39627W        W99064  42.296  37.924  13.981
39628W        W99065  24.094  36.431   3.266
39629W        W99066   6.805  37.061   2.298
39630W        W99067  10.334  34.439   2.800
39631W        W99068  19.547   8.176   3.716
39632W        W99069   9.878   1.342  15.000
39633W        W99070  17.597  42.316   4.810
39634W        W99071   0.902  26.481  12.509
39635W        W99072  39.960   8.790   1.251
39636W        W99073  22.094   2.961  11.968
39637W        W99074  12.333   3.247   2.901
39638W        W99075  22.621  42.839   5.234
39639W        W99076  17.566  22.687  11.430
39640W        W99077  24.485   5.254   0.287
39641W        W99078   7.355  19.077   3.713
39642W        W99079  33.457  26.111   2.799
39643W        W99080   9.173  37.074  13.885
39644W        W99081  41.341  15.594   0.366
39645W        W99082  22.203  31.915  12.090
39646W        W99083   6.703   9.344  13.447
39647W        W99084  38.968   8.658   0.918
39648W        W99085   4.738  24.211   0.758
39649W        W99086   7.274  43.815   3.828
39650W        W99087  43.985  11.222  13.830
39651W        W99088  31.553  42.377   3.790
39652W        W99089  31.106  34.976  11.097
39653W        W99090  36.500  14.770  10.997
39654W        W99091  11.203  44.771  13.864
39655W        W99092  41.000  28.177  11.509
39656W        W99093  15.199  23.039   1.372
39657W        W99094  30.039  12.239   3.286
39658W        W99095  19.611  37.429   2.256
39659W        W99096  27.501  35.490   1.400
39660W        W99097   9.693   9.750  10.937
39661W        W99098  18.545  29.989   3.639
39662W        W99099  39.494  32.490  10.477
39663W        W99100  24.516  43.317   2.292
39664W        W99101  19.735  20.147  12.486
39665W        W99102  22.742  43.935   2.327
39666W        W99103   9.203  18.196   0.307
39667W        W99104  36.009   3.428   1.289
39668W        W99105  11.194  33.608   2.858
39669W        W99106  33.007  13.166  11.987
39670W        W99107  36.357  17.244   1.786
39671W        W99108  15.661  22.069   0.345
39672W        W99109   1.828   5.718   1.733
39673W        W99110  31.564  15.670  12.535
39674W        W99111   3.847  42.389   3.362
39675W        W99112  39.050  21.533   0.476
39676W        W99113  24.008  43.019  14.906
39677W        W99114  15.773   1.786   2.727
39678W        W99115  11.266  35.393  14.933
39679W        W99116   6.749   6.753  13.858
39680W        W99117  44.950  24.536   1.805
39681W        W99118  33.457   3.800   2.897
39682W        W99119  28.661  38.055   0.394
39683W        W99120  26.522   4.279   4.116
39684W        W99121  11.251  28.959   2.712
39685W        W99122  38.867  26.187   3.244
39686W        W99123  11.354  42.440   0.398
39687W        W99124  31.923  40.939   3.637
39688W        W99125  17.291  14.236  12.570
39689W        W99126   2.296  42.987   3.687
39690W        W99127  27.641  10.785   3.846
39691W        W99128  27.517  12.824  11.037
39692W        W99129  19.630  21.020  14.279
39693W        W99130  19.768  22.995  11.954
39694W        W99131  25.606  31.641   0.964
39695W        W99132  18.159   2.309  12.538
39696W        W99133  11.725  25.098  13.840
39697W        W99134   7.260  44.269  11.009
39698W        W99135  30.651  20.694   0.358
39699W        W99136  33.030  24.210   1.354
39700W        W99137  17.225  30.157   1.923
39701W        W99138  26.492  14.765   4.819
39702W        W99139  33.523  35.976   3.656
39703W        W99140   3.312   2.360   0.773
39704W        W99141  29.920  42.385  14.854
39705W        W99142  10.259   6.709   1.760
39706W        W99143  21.750  28.435   3.274
39707W        W99144  13.673   9.328   4.325
39708W        W99145   2.408  10.866  14.945
39709W        W99146  27.489  24.142   4.264
39710W        W99147  10.351   8.710   1.376
39711W        W99148  30.579  36.571   5.165
39712W        W99149   1.887  12.693  14.761
39713W        W99150  26.581   0.831   2.889
39714W        W99151  28.590  25.611   0.755
39715W        W99152  17.786   2.817  12.979
39716W        W99153  24.693  24.007   1.256
39717W        W99154  23.494  36.411  14.391
39718W        W99155   6.337  37.895  12.541
39719W        W99156  19.263  31.909   2.371
39720W        W99157   4.811  19.542   4.348
39721W        W99158  19.222  33.391  14.388
39722W        W99159   6.351  27.662   2.885
39723W        W99160   8.676  17.113  11.419
39724W        W99161  13.142  36.450  13.320
39725W        W99162   7.887  20.755  14.280
39726W        W99163   9.287   7.406  10.522
39727W        W99164   9.713  22.599   1.885
39728W        W99165   2.336  28.452  14.937
39729W        W99166   2.871  22.169   2.316
39730W        W99167  34.504  16.668   1.404
39731W        W99168  36.369  32.548   0.413
39732W        W99169   8.231  21.224   4.786
39733W        W99170  26.677   0.339  13.959
39734W        W99171  21.046  37.031  12.013
39735W        W99172  15.261  27.139  12.941
39736W        W99173  21.667  24.626   0.784
39737W        W99174  16.694  16.681  11.453
39738W        W99175  31.021  11.338  13.418
39739W        W99176  38.853  28.662  14.452
39740W        W99177  10.171  36.943   4.198
39741W        W99178   4.234  19.210  11.971
39742W        W99179  16.688  15.755  12.386
39743W        W99180  28.574  25.036  14.998
39744W        W99181  41.923  39.004  14.828
39745W        W99182  24.500  17.265   2.276
39746W        W99183  15.296   9.266  14.339
39747W        W99184   6.686   9.282   1.853
39748W        W99185  19.201  32.589  14.846
39749W        W99186  23.230  44.399  12.418
39750W        W99187  17.294  37.448  10.960
39751W        W99188  13.717  24.490  14.834
39752W        W99189  40.421  21.695  12.426
39753W        W99190  20.081  36.938   1.733
39754W        W99191  23.645  16.788  13.805
39755W        W99192  32.564  41.433   2.895
39756W        W99193  18.066  13.119   2.900
39757W        W99194   6.903  20.538  12.428
39758W        W99195  39.036  22.563  10.156
39759W        W99196  17.719   2.733  11.862
39760W        W99197  10.259   8.288  13.796
39761W        W99198  23.183   7.402   2.675
39762W        W99199  41.798  14.651  12.413
39763W        W99200   6.324  39.408  12.494
39764W        W99201  15.256  30.118  13.406
39765W        W99202  39.424  39.900  10.968
39766W        W99203   8.745  30.986   1.744
39767W        W99204  24.024  18.658   0.865
39768W        W99205   0.303  30.909  14.357
39769W        W99206  44.305  25.161  10.494
39770W        W99207  19.080  24.519  10.891
39771W        W99208  34.519  37.380  11.867
39772W        W99209  30.908  34.476  14.496
39773W        W99210  27.018  23.616   1.212
39774W        W99211  38.385  16.711  12.047
39775W        W99212  24.495  41.492   1.230
39776W        W99213  29.158  18.551  13.016
39777W        W99214  41.301   0.798  13.998
39778W        W99215  12.119  16.300  13.021
39779W        W99216   4.247   5.226  12.020
39780W        W99217   3.856  14.748   4.767
39781W        W99218  16.298  40.985  12.957
39782W        W99219   6.246  16.124  11.597
39783W        W99220  31.035  20.164  13.448
39784W        W99221   2.262  16.778   2.759
39785W        W99222  31.151  21.168  11.893
39786W        W99223  22.108   9.215   0.827
39787W        W99224  18.704  22.139  14.001
39788W        W99225  37.868  26.064  10.890
39789W        W99226  18.756  31.117   0.385
39790W        W99227  39.336  33.979   2.694
39791W        W99228  32.428   5.854   0.250
39792W        W99229  22.643   5.275  14.475
39793W        W99230  26.976  17.762  10.470
39794W        W99231  25.049  29.619   2.356
39795W        W99232  18.599  35.549   1.306
39796W        W99233  29.429  31.964  13.346
39797W        W99234  19.234   0.304  14.457
39798W        W99235  21.082  27.944   4.738
39799W        W99236   4.384   5.412   3.170
39800W        W99237  39.887  24.050  14.453
39801W        W99238  28.091  35.423  12.379
39802W        W99239  28.478  16.104   3.303
39803W        W99240  32.048  31.505   2.856
39804W        W99241  24.555   0.855   3.827
39805W        W99242   1.802  18.214  14.291
39806W        W99243  28.000  36.582   4.324
39807W        W99244  40.992   1.807  13.800
39808W        W99245  35.067  37.928   3.823
39809W        W99246  24.620   6.415  12.343
39810W        W99247  15.805   7.180  14.295
39811W        W99248  10.314  20.227   4.183
39812W        W99249  38.533   3.459   3.749
39813W        W99250  26.491  29.096  10.890
39814W        W99251   0.810  43.774   1.784
39815W        W99252  33.431   9.329   3.330
39816W        W99253  18.769  39.838  14.910
39817W        W99254  35.445  19.186  14.006
39818W        W99255  43.898  13.223   3.339
39819W        W99256   9.860  26.958  10.609
39820W        W99257  41.974  35.568  10.567
39821W        W99258  37.864  16.141   2.780
39822W        W99259  32.534  17.239  13.324
39823W        W99260  34.067  18.188  13.508
39824W        W99261  26.575  19.172  12.494
39825W        W99262  15.328   6.879   0.933
39826W        W99263   8.167  17.691   4.749
39827W        W99264   3.846  33.933   3.835
39828W        W99265   0.742   6.922  12.985
39829W        W99266   8.217   8.846   0.771
39830W        W99267  41.532  24.006  14.794
39831W        W99268  32.973  23.576   2.776
39832W        W99269   8.819  28.506  14.326
39833W        W99270  37.874  26.990  12.035
39834W        W99271  19.255  23.098   2.212
39835W        W99272  34.120   0.833   1.223
39836W        W99273   7.276  32.614  14.974
39837W        W99274  12.142  41.813  12.419
39838W        W99275  36.987   3.271   1.234
39839W        W99276  23.564  10.368   2.880
39840W        W99277   2.437   2.740   1.896
39841W        W99278  29.513  27.181  11.047
39842W        W99279   4.342  27.061   5.185
39843W        W99280  42.927   6.718  10.572
39844W        W99281   7.875  19.157   0.328
39845W        W99282  25.580  17.123   0.881
39846W        W99283  44.833  44.769  11.387
39847W        W99284  41.847   0.898   1.706
39848W        W99285  25.685  43.375  14.909
39849W        W99286   6.757  24.097  14.352
39850W        W99287   9.253  32.400  11.608
39851W        W99288  20.693  16.669  13.987
39852W        W99289  34.878  43.356  14.977
39853W        W99290  39.536  44.467  10.129
39854W        W99291  36.373  32.572  13.459
39855W        W99292  41.456  29.664  13.543
39856W        W99293  11.151  40.548  14.934
39857W        W99294  41.971   7.210   3.839
39858W        W99295  44.430  24.131  11.405
39859W        W99296   9.320  34.915   2.853
39860W        W99297  26.988   5.692   2.206
39861W        W99298  34.538  20.597   1.395
39862W        W99299  13.199  19.239  12.886
39863W        W99300  29.066  11.158  14.834
39864W        W99301  11.230  26.987  13.793
39865W        W99302  30.916  18.275   1.300
39866W        W99303  29.079   9.796   2.382
39867W        W99304   5.809  34.586  13.885
39868W        W99305  26.512  31.081  11.394
39869W        W99306  37.872  29.989   2.885
39870W        W99307  34.430  17.087  13.052
39871W        W99308  31.029   9.336  14.408
39872W        W99309   3.233   8.354  14.873
39873W        W99310  36.507  37.901   2.362
39874W        W99311   8.390  10.175   2.843
39875W        W99312  40.877  10.748   4.627
39876W        W99313  32.456  37.517   0.289
39877W        W99314  19.613  18.676   2.853
39878W        W99315  37.402  41.871  12.851
39879W        W99316   3.923  33.979  12.079
39880W        W99317  26.475   0.988  13.513
39881W        W99318  39.524  29.526   0.862
39882W        W99319  15.672   8.377  13.525
39883W        W99320   1.767  32.929   1.273
39884W        W99321  13.208  15.729   5.144
39885W        W99322  31.561   5.879  14.468
39886W        W99323   2.296  26.002   9.578
39887W        W99324   6.362   1.283  11.128
39888W        W99325  10.741   3.789   4.630
39889W        W99326  24.608  28.948   4.713
39890W        W99327  25.535  38.417   0.310
39891W        W99328  29.104  29.555  12.895
39892W        W99329  28.186  22.727   2.281
39893W        W99330  28.580  38.537   4.271
39894W        W99331   9.293  30.018  14.292
39895W        W99332   9.777  22.658  14.768
39896W        W99333  42.932  20.240   4.228
39897W        W99334  25.188  31.130   2.743
39898W        W99335  39.969  34.530  11.107
39899W        W99336  32.473  21.162  12.550
39900W        W99337  35.883  24.490  11.497
39901W        W99338  16.186   9.690  12.426
39902W        W99339  18.715  28.676   3.197
39903W        W99340  33.987  16.262  14.510
39904W        W99341  35.097   5.782  10.934
39905W        W99342  22.611  41.503   0.281
39906W        W99343  27.033   1.782   1.777
39907W        W99344   9.718   5.434  13.917
39908W        W99345  19.673  30.645   3.378
39909W        W99346  41.439  21.095   2.897
39910W        W99347   0.775  15.124  12.922
39911W        W99348  37.884   2.924  12.558
39912W        W99349  30.107   8.702  13.794
39913W        W99350  31.963  13.746   4.185
39914W        W99351   2.860  28.638   1.385
39915W        W99352  13.820   0.389   2.901
39916W        W99353  30.038  14.604   0.420
39917W        W99354   0.403  28.519  13.315
39918W        W99355  30.024  41.902   0.801
39919W        W99356   9.257  24.484   4.733
39920W        W99357   7.260   4.808  10.448
39921W        W99358  39.038  40.481  10.127
39922W        W99359  27.148  43.324  12.950
39923W        W99360  19.569  41.816  12.899
39924W        W99361  37.056  25.540   3.827
39925W        W99362  25.591  18.662   3.705
39926W        W99363  35.438  16.188   1.738
39927W        W99364  36.960  23.628   1.298
39928W        W99365  40.387  33.904  14.418
39929W        W99366  26.589   3.762   4.347
39930W        W99367   0.299  44.444   0.249
39931W        W99368  11.144  38.007  13.543
39932W        W99369  23.064   8.724   5.147
39933W        W99370  44.786  26.109   0.898
39934W        W99371  14.137  14.196  12.359
39935W        W99372  21.713  20.710  13.484
39936W        W99373  21.758   9.758   0.335
39937W        W99374  17.250   0.290  12.891
39938W        W99375   6.428  32.915  11.464
39939W        W99376   7.789  18.220  12.858
39940W        W99377  11.675  24.621  12.062
39941W        W99378  24.661  30.433  13.047
39942W        W99379  36.018   0.273  10.597
39943W        W99380  41.314  10.846   2.241
39944W        W99381  38.076  43.774   2.202
39945W        W99382  29.172  37.432   2.410
39946W        W99383  18.201   8.702  12.919
39947W        W99384  28.142  10.725   9.986
39948W        W99385  19.562  33.014   1.829
39949W        W99386  41.516  19.094   3.353
39950W        W99387   8.759  32.513  12.435
39951W        W99388  36.862   4.375   1.924
39952W        W99389  43.967  44.424   1.932
39953W        W99390   7.331  38.386   4.239
39954W        W99391  38.485  13.311  13.802
39955W        W99392  15.727  37.418  12.539
39956W        W99393  28.094  28.006   1.737
39957W        W99394  40.392   4.806   2.211
39958W        W99395  12.777   0.888   4.306
39959W        W99396  42.355  38.470  12.855
39960W        W99397  39.018  40.470   1.223
39961W        W99398  28.469   1.923  12.995
39962W        W99399  37.921  14.631  14.312
39963W        W99400   8.753  27.096   4.733
39964W        W99401   7.321   3.763   1.301
39965W        W99402  41.831  10.815   0.470
39966W        W99403   6.314  43.798   0.386
39967W        W99404   8.873  22.161   0.373
39968W        W99405  10.763  17.685   3.346
39969W        W99406   4.234  28.465  14.802
39970W        W99407   1.401   5.339   3.156
39971W        W99408  14.280  20.183  12.872
39972W        W99409  43.387  11.333   2.410
39973W        W99410   8.364  40.851  13.900
39974W        W99411  23.576  13.242   1.735
39975W        W99412  15.292  23.042  13.991
39976W        W99413  38.484  43.490   2.847
39977W        W99414  29.518  24.049   2.677
39978W        W99415  10.825  42.402  12.934
39979W        W99416   0.328  27.574   4.226
39980W        W99417   2.922  39.320   0.370
39981W        W99418  10.214  19.712   5.301
39982W        W99419  44.363  43.919  12.998
39983W        W99420  33.093  18.226  14.496
39984W        W99421  20.235  24.155  13.998
39985W        W99422  10.369  25.074   1.866
39986W        W99423  37.864   9.242   2.234
39987W        W99424  26.483  19.707  14.328
39988W        W99425  31.563   1.844  13.309
39989W        W99426  19.112  15.669   4.199
39990W        W99427  11.241  24.576  14.353
39991W        W99428  28.623  24.124  10.539
39992W        W99429  11.793  36.514   2.242
39993W        W99430   0.861  26.484   2.355
39994W        W99431  20.070  25.539   2.412
39995W        W99432  35.595  23.123  10.434
39996W        W99433  28.941  13.168   9.665
39997W        W99434  33.559   9.652   0.832
39998W        W99435  27.594  33.059   0.953
39999W        W99436   6.309  43.325   3.770
40000W        W99437  16.225  29.541   3.709
40001W        W99438   9.300  26.645  13.835
40002W        W99439   6.705  31.442  14.455
40003W        W99440  37.441  37.915   3.199
40004W        W99441   6.881  11.719   0.944
40005W        W99442   8.798   7.874   1.292
40006W        W99443  18.061  10.384   4.347
40007W        W99444   8.296   1.429   4.149
40008W        W99445  23.112  27.078   2.403
40009W        W99446  31.935  41.910   4.334
40010W        W99447  40.496  15.586  10.007
40011W        W99448  10.784  19.213   3.226
40012W        W99449  15.703  14.643   4.686
40013W        W99450  22.105  34.002   2.385
40014W        W99451  30.441  10.734   3.203
40015W        W99452  30.599  21.109  12.450
40016W        W99453  41.348  18.122  11.043
40017W        W99454  18.759  15.109  12.087
40018W        W99455  43.386   3.254   9.993
40019W        W99456   0.428  44.005   4.260
40020W        W99457  10.666  10.138  13.017
40021W        W99458   5.335  18.217  14.406
40022W        W99459  15.813  42.524   2.367
40023W        W99460  42.922  18.664  13.375
40024W        W99461  27.040   3.250   3.337
40025W        W99462  12.260  43.276  14.940
40026W        W99463  12.282   5.352   0.857
40027W        W99464   9.872  41.308   3.751
40028W        W99465  40.989  34.054   2.256
40029W        W99466  18.147  13.709   2.270
40030W        W99467  22.189  20.550  14.448
40031W        W99468  12.665  39.556  12.363
40032W        W99469  32.425  35.540  13.803
40033W        W99470  41.989  27.499   1.869
40034W        W99471  36.555   4.761  12.879
40035W        W99472  21.210  41.840  12.355
40036W        W99473  42.864  23.573   2.812
40037W        W99474  35.085  25.058  10.615
40038W        W99475  42.497  41.865  11.490
40039W        W99476  10.683   6.371  11.552
40040W        W99477  16.138  35.011   4.802
40041W        W99478  41.885  21.562  13.378
40042W        W99479  20.666  19.727   3.848
40043W        W99480   7.763   7.752   4.752
40044W        W99481  16.280   7.265   4.641
40045W        W99482   3.833   0.398  13.794
40046W        W99483  27.641  18.623   2.727
40047W        W99484  18.680  24.058   3.279
40048W        W99485  43.898  44.985   2.810
40049W        W99486   8.261  38.454  14.975
40050W        W99487   9.671  25.603  11.401
40051W        W99488  35.925  35.862  13.547
40052W        W99489  41.954  12.798   0.795
40053W        W99490  30.517  21.570   1.331
40054W        W99491  29.017  15.752  11.405
40055W        W99492  14.159   0.935  10.928
40056W        W99493  38.536  14.632  10.596
40057W        W99494  11.136  17.734   0.309
40058W        W99495  29.993   2.846  14.338
40059W        W99496  42.463  15.290  14.966
40060W        W99497  24.072  33.383  13.490
40061W        W99498  42.352  35.059   3.295
40062W        W99499  38.036  12.762  14.774
40063W        W99500  40.837  25.686  13.936
40064W        W99501  39.874   4.438  10.916
40065W        W99502   4.250   6.242   1.303
40066W        W99503  15.200  16.596   0.753
40067W        W99504  44.265  14.612  14.392
40068W        W99505   8.319  33.875   3.847
40069W        W99506  37.841  25.150   1.783
40070W        W99507   5.812  11.219  11.422
40071W        W99508  36.027  22.132  14.791
40072W        W99509  24.172  39.368  12.537
40073W        W99510  28.019  37.566  10.576
40074W        W99511   9.179  35.980  10.429
40075W        W99512   3.302  35.852   3.170
40076W        W99513  38.417  28.560  11.547
40077W        W99514  21.250  25.110  11.030
40078W        W99515   1.372  16.744  13.926
40079W        W99516  18.134   8.837   2.800
40080W        W99517   4.786   1.241  10.922
40081W        W99518  39.025  44.337   0.898
40082W        W99519  30.968  13.144   2.711
40083W        W99520  19.099  31.587   4.684
40084W        W99521  42.495  23.145  13.905
40085W        W99522  41.818  39.901   0.871
40086W        W99523   6.344  35.512  12.951
40087W        W99524  19.280  22.641   3.778
40088W        W99525   6.813  36.407   2.726
40089W        W99526  36.366   0.920   1.243
40090W        W99527  38.495  11.781   3.224
40091W        W99528  39.978  26.476  13.904
40092W        W99529  11.640  15.125  14.966
40093W        W99530  25.699  22.737  11.451
40094W        W99531  35.576  31.581  13.510
40095W        W99532  34.088  18.556  13.848
40096W        W99533  13.164  25.981   2.819
40097W        W99534  13.778  44.439   4.811
40098W        W99535   8.225  20.683  11.541
40099W        W99536  28.442   0.885  14.448
40100W        W99537  10.139  13.140   1.359
40101W        W99538   6.377  25.558   1.265
40102W        W99539  33.470  11.179   0.875
40103W        W99540  16.260  31.030  12.461
40104W        W99541  41.913   0.256   0.797
40105W        W99542  29.509   4.727  10.958
40106W        W99543   0.974  36.422  13.464
40107W        W99544  28.097  31.509   1.884
40108W        W99545  13.640   4.260  14.920
40109W        W99546  37.446  26.144  11.512
40110W        W99547  31.518  21.597   0.760
40111W        W99548  34.882  39.548  12.345
40112W        W99549   5.858  22.501   2.751
40113W        W99550  36.354   1.921   4.823
40114W        W99551  19.154  10.187  10.969
40115W        W99552  42.913  41.020  11.523
40116W        W99553  12.268  25.993  12.381
40117W        W99554  10.675  25.527  11.077
40118W        W99555   5.918  16.590   4.338
40119W        W99556  39.369  24.140   4.297
40120W        W99557   7.398  43.977  10.579
40121W        W99558  15.594  29.522   3.860
40122W        W99559   6.420   8.170   4.604
40123W        W99560  12.682   5.406   2.801
40124W        W99561  29.467  31.633  13.389
40125W        W99562  22.718  14.681   0.277
40126W        W99563  39.491  36.999   2.364
40127W        W99564  16.092  28.533   3.261
40128W        W99565  10.358  10.806   2.871
40129W        W99566  24.212  26.540  14.975
40130W        W99567  10.685  37.069   3.212
40131W        W99568  37.838   9.211  12.483
40132W        W99569  13.130  15.273  14.963
40133W        W99570  26.465  35.093   4.739
40134W        W99571  41.401  24.508  14.414
40135W        W99572  36.386   4.869   0.928
40136W        W99573  26.673  12.186  14.293
40137W        W99574  25.620  35.388   2.866
40138W        W99575  18.553   2.826  13.996
40139W        W99576   0.896  14.314   1.919
40140W        W99577   5.827  36.403  13.024
40141W        W99578  22.624  19.099   3.781
40142W        W99579  31.109  17.231   3.644
40143W        W99580  30.509  33.120  14.328
40144W        W99581  24.608   2.438  14.370
40145W        W99582   8.862   5.327  12.390
40146W        W99583  25.176  19.146   2.746
40147W        W99584  28.017  30.420   0.303
40148W        W99585  14.718  36.369   2.410
40149W        W99586  18.088   5.920   3.384
40150W        W99587  24.675  18.785  12.064
40151W        W99588  30.914  10.173   3.733
40152W        W99589  16.175  22.535   2.896
40153W        W99590  25.113  41.805  10.896
40154W        W99591  36.049  38.425  13.350
40155W        W99592  23.526  31.014   0.795
40156W        W99593  30.064   0.861   3.261
40157W        W99594   4.846  20.119  14.383
40158W        W99595  43.364  34.880   5.295
40159W        W99596  36.492   0.753  12.865
40160W        W99597  38.967  38.931   4.298
40161W        W99598  29.980  43.398  12.999
40162W        W99599  19.189  36.073   4.827
40163W        W99600  41.955   6.790   1.742
40164W        W99601  13.206  42.381   3.248
40165W        W99602  37.558  16.654   4.685
40166W        W99603  34.919  43.350   1.246
40167W        W99604   9.726   7.825  14.862
40168W        W99605  15.578   8.341  11.586
40169W        W99606  17.209   0.276  11.999
40170W        W99607  12.195  38.017  11.448
40171W        W99608  25.517  35.870   0.413
40172W        W99609   0.919  10.290   1.337
40173W        W99610  28.532   5.713   3.784
40174W        W99611   3.295  19.548   3.683
40175W        W99612   4.743   1.401  11.426
40176W        W99613   6.805  13.158  13.967
40177W        W99614  31.431  24.112   0.362
40178W        W99615  42.028  24.078   2.232
40179W        W99616   9.831  29.455  14.766
40180W        W99617  41.824  37.360   4.122
40181W        W99618  21.208  19.651  11.516
40182W        W99619  22.588  15.198  11.428
40183W        W99620  37.384   7.776  11.452
40184W        W99621   6.241   8.742  14.860
40185W        W99622  42.992  23.991  14.838
40186W        W99623  16.100  39.341  12.563
40187W        W99624   8.880  27.162   0.360
40188W        W99625  26.987  10.785  13.381
40189W        W99626  20.163  42.801   1.434
40190W        W99627  35.892   0.819  13.811
40191W        W99628   3.819   5.268   1.405
40192W        W99629  10.142  27.138   1.797
40193W        W99630  33.069   7.822   3.168
40194W        W99631  30.038  31.006   4.707
40195W        W99632  35.007  18.069  10.094
40196W        W99633   3.419  17.687   3.353
40197W        W99634  44.872  41.039  10.404
40198W        W99635   6.912  11.167   1.863
40199W        W99636   7.792   9.354  14.900
40200W        W99637  20.689  25.165  13.952
40201W        W99638   2.736  43.389   4.250
40202W        W99639   7.329  39.331   1.401
40203W        W99640  31.646  20.206   4.745
40204W        W99641  42.354  19.217   3.182
40205W        W99642  41.950  10.733   3.692
40206W        W99643  28.129  38.439  10.532
40207W        W99644   9.839  43.889   2.346
40208W        W99645  42.514  12.800  12.580
40209W        W99646  13.694  43.835   2.203
40210W        W99647  13.833  20.633  12.012
40211W        W99648  29.939  32.987  12.366
40212W        W99649   0.394  37.866   1.386
40213W        W99650  26.480  31.003  13.946
40214W        W99651  36.484  42.005   2.366
40215W        W99652   0.462  15.323   2.345
40216W        W99653  43.794  44.988  11.518
40217W        W99654  17.711  15.267   1.390
40218W        W99655  35.435  40.963  14.763
40219W        W99656  16.718   8.858  12.919
40220W        W99657  43.018  29.594   1.233
40221W        W99658  18.073  41.913   2.299
40222W        W99659   8.809  36.097  13.400
40223W        W99660  25.502  29.597   2.292
40224W        W99661  40.421  30.969   4.314
40225W        W99662  24.566  15.771  11.463
40226W        W99663  22.711   9.680   2.317
40227W        W99664   1.851  12.756  12.832
40228W        W99665  20.030  13.651   1.889
40229W        W99666  39.410   4.791  14.313
40230W        W99667  28.163   4.299   3.723
40231W        W99668  31.956  29.985   3.829
40232W        W99669   0.950  14.151  12.942
40233W        W99670  33.104   2.828  10.427
40234W        W99671  31.470  27.161   3.182
40235W        W99672  30.941   5.341  12.001
40236W        W99673   3.733  36.004  10.973
40237W        W99674  32.429  15.326   4.280
40238W        W99675  14.104  43.312   3.378
40239W        W99676  23.176  33.904   4.621
40240W        W99677   9.829  34.979  11.446
40241W        W99678   6.320   8.875   1.220
40242W        W99679  36.431   3.810   0.873
40243W        W99680  14.201  40.428  14.477
40244W        W99681   4.362   1.317   4.124
40245W        W99682  34.887  10.762   4.642
40246W        W99683  41.929  34.516   0.344
40247W        W99684   4.909  23.735  13.824
40248W        W99685  24.979  17.081   1.872
40249W        W99686  29.029  38.054   3.275
40250W        W99687  17.146  33.487   4.115
40251W        W99688  22.044  24.712  12.843
40252W        W99689   0.880  27.516  11.482
40253W        W99690  13.154   7.327   0.949
40254W        W99691  20.526  37.399   2.891
40255W        W99692  30.565  18.720   4.732
40256W        W99693  11.856   1.861   0.245
40257W        W99694  24.994  41.377  12.479
40258W        W99695  25.105   9.745   1.876
40259W        W99696  22.173   9.239  13.371
40260W        W99697  30.587   4.769   0.964
40261W        W99698   8.232   9.833   4.245
40262W        W99699  40.877  41.517  13.941
40263W        W99700   7.272  23.190  12.557
40264W        W99701  44.347  10.636   1.250
40265W        W99702  12.294  30.456   2.335
40266W        W99703   9.656  12.354   1.819
40267W        W99704  28.119  26.688   3.153
40268W        W99705  34.525  16.792  10.911
40269W        W99706  30.592  24.156  14.480
40270W        W99707  41.971  38.534   2.826
40271W        W99708  12.219  29.503  10.917
40272W        W99709  15.247  44.379  11.586
40273W        W99710  42.799  36.847   1.911
40274W        W99711  12.720  35.860  11.445
40275W        W99712  42.016  20.059   3.810
40276W        W99713  33.980  13.691  10.956
40277W        W99714   5.210   4.450  11.451
40278W        W99715  39.016   0.312  14.021
40279W        W99716  32.096  28.060   1.934
40280W        W99717   1.376  34.428   0.935
40281W        W99718  23.592  21.172  13.797
40282W        W99719  27.993  26.678  12.509
40283W        W99720  30.927  14.619  12.881
40284W        W99721  41.516   6.188   0.771
40285W        W99722  26.498  44.801  10.522
40286W        W99723  43.398  13.691  13.994
40287W        W99724  30.428  26.977  13.963
40288W        W99725  12.773  27.658  12.882
40289W        W99726   1.960   9.680  14.384
40290W        W99727  14.687  29.635  14.293
40291W        W99728   3.299  20.251   0.955
40292W        W99729   0.919   4.700   4.305
40293W        W99730  21.742  25.468   0.315
40294W        W99731  31.963  21.545  11.520
40295W        W99732  38.552   5.789   2.394
40296W        W99733  23.532   0.370  10.995
40297W        W99734  39.557  18.225  13.795
40298W        W99735  40.361   8.865  10.578
40299W        W99736  14.128   1.828  11.514
40300W        W99737  25.576  17.254  12.415
40301W        W99738  31.481  39.319  14.415
40302W        W99739  10.768  10.304  13.496
40303W        W99740  39.035  14.155  11.497
40304W        W99741   1.766  10.656  14.315
40305W        W99742  20.115   3.435   2.694
40306W        W99743  30.944  19.213   1.285
40307W        W99744  10.204  30.576  14.301
40308W        W99745   4.397  31.020   1.805
40309W        W99746  21.650  14.266  14.935
40310W        W99747  13.711   0.457  14.369
40311W        W99748  31.602  26.173   2.752
40312W        W99749  22.586  34.079   2.762
40313W        W99750  37.925  17.775   0.799
40314W        W99751  41.509  19.268  10.977
40315W        W99752  24.479  26.677   5.151
40316W        W99753  39.491   7.383  12.914
40317W        W99754   7.334  31.955   9.970
40318W        W99755  43.391  23.184  14.437
40319W        W99756   5.700   2.940  14.022
40320W        W99757  17.143  35.866   3.641
40321W        W99758   3.344   7.741  11.570
40322W        W99759  11.629  14.331   4.276
40323W        W99760  20.580  27.458  11.095
40324W        W99761  34.034  21.127   1.808
40325W        W99762  32.566  20.062   4.343
40326W        W99763  37.072  19.748  11.896
40327W        W99764  41.311  39.857   4.286
40328W        W99765  31.556  10.369   1.819
40329W        W99766   0.280  12.345   2.179
40330W        W99767  33.488  32.549  10.916
40331W        W99768  13.741  10.696  11.421
40332W        W99769  41.799  29.532  14.927
40333W        W99770   4.841   2.237   3.735
40334W        W99771  18.734  39.428   0.263
40335W        W99772  34.114  30.917  12.895
40336W        W99773   4.902  19.173  10.992
40337W        W99774  13.619   7.240   2.829
40338W        W99775  22.234  17.121  10.470
40339W        W99776  41.517  25.030   4.242
40340W        W99777  24.536   1.749   1.438
40341W        W99778  30.155  38.973   1.786
40342W        W99779  17.301  42.815   4.255
40343W        W99780  41.035  37.939   2.751
40344W        W99781  23.027  40.019  11.406
40345W        W99782   7.873  36.028   0.792
40346W        W99783  12.737   3.898  13.506
40347W        W99784  14.623  33.471  10.405
40348W        W99785  23.023  37.521  11.571
40349W        W99786  33.526  36.426   0.352
40350W        W99787  32.028  32.040   4.339
40351W        W99788  44.871  13.778  14.355
40352W        W99789  12.275  31.050   2.707
40353W        W99790  10.142  35.872  12.921
40354W        W99791  11.676  20.097  14.877
40355W        W99792  43.827  28.495   2.178
40356W        W99793  11.246  42.806  10.464
40357W        W99794  37.525  30.432  14.888
40358W        W99795  37.988  43.291  13.936
40359W        W99796  37.856   1.281   2.753
40360W        W99797  40.335   8.170   1.314
40361W        W99798  17.138  25.049   2.852
40362W        W99799  33.093  15.680  14.801
40363W        W99800  38.530  15.249  11.973
40364W        W99801  28.670  39.052   0.446
40365W        W99802  28.084  39.499  14.002
40366W        W99803  21.049  15.226   2.815
40367W        W99804  14.735  15.171  10.450
40368W        W99805  15.733  29.503  10.408
40369W        W99806  23.038  16.203   5.679
40370W        W99807   8.833  27.602  14.874
40371W        W99808   0.912  18.703   0.443
40372W        W99809  27.025  26.468  12.910
40373W        W99810   4.340  35.458   1.287
40374W        W99811  38.555  41.332   0.457
40375W        W99812  37.933   2.346   1.376
40376W        W99813  30.615  18.704   3.867
40377W        W99814  29.515  15.083  13.320
40378W        W99815  33.056  31.544   1.904
40379W        W99816   7.818  12.636  10.508
40380W        W99817  29.019  30.132  11.910
40381W        W99818   2.291  15.122  10.587
40382W        W99819  26.511  19.585   3.163
40383W        W99820  20.235  23.083  14.957
40384W        W99821  20.569  19.218   3.822
40385W        W99822  34.486   6.233  11.382
40386W        W99823  13.148  17.758   3.194
40387W        W99824  35.552  30.921   4.355
40388W        W99825   6.213  27.951  13.816
40389W        W99826  43.868  31.023  10.895
40390W        W99827  37.997   6.382   4.829
40391W        W99828  42.465  20.147   0.435
40392W        W99829  12.668  43.896   1.219
40393W        W99830  39.394  31.033   3.160
40394W        W99831   6.686   9.665  14.839
40395W        W99832  11.710  36.091   2.273
40396W        W99833   9.329  24.586   1.893
40397W        W99834  42.329  16.580   4.743
40398W        W99835  12.821  37.894   2.395
40399W        W99836  28.073  33.412   3.724
40400W        W99837  35.925  11.222  10.610
40401W        W99838  11.311  32.391   2.738
40402W        W99839  24.165   3.410  12.492
40403W        W99840   4.823  35.993   0.335
40404W        W99841  16.074   9.154   2.800
40405W        W99842  25.153  40.008   0.747
40406W        W99843  17.787  33.503  10.925
40407W        W99844   8.377  32.599  12.460
40408W        W99845   6.251  36.950  14.855
40409W        W99846  34.994  20.684   2.219
40410W        W99847  43.875   1.973   3.334
40411W        W99848  40.856  40.933   1.785
40412W        W99849   9.254   9.739   1.397
40413W        W99850   0.457  40.808  11.911
40414W        W99851  22.170  40.839   2.400
40415W        W99852  30.553  28.611   2.851
40416W        W99853  34.892  37.889   3.185
40417W        W99854  27.150  31.958  12.559
40418W        W99855  10.842  37.493  14.892
40419W        W99856  42.407  13.255  12.058
40420W        W99857  33.451  39.353   0.295
40421W        W99858  42.008  27.101  11.488
40422W        W99859  19.653  13.604   0.824
40423W        W99860   7.732   2.434  10.957
40424W        W99861  30.051  10.768   0.841
40425W        W99862   4.794  33.898   0.383
40426W        W99863  44.839  17.765  14.916
40427W        W99864  27.683   0.360  12.006
40428W        W99865  42.780  18.156   3.236
40429W        W99866  39.448  16.745  13.801
40430W        W99867  17.796   1.802   3.744
40431W        W99868  30.463  25.676   0.887
40432W        W99869  22.729  42.005  12.959
40433W        W99870   2.345  38.506   2.751
40434W        W99871  20.186  41.322  12.377
40435W        W99872   8.818   6.244  11.860
40436W        W99873  43.939  16.189   3.295
40437W        W99874  16.676  15.733  14.501
40438W        W99875  25.092  13.685   2.891
40439W        W99876  17.075   4.308  10.548
40440W        W99877   9.241  35.456   0.438
40441W        W99878  35.867  39.857  14.913
40442W        W99879   4.699  35.452  14.858
40443W        W99880  36.994  27.471  13.523
40444W        W99881  40.974  31.096  10.988
40445W        W99882  24.528  36.046   2.231
40446W        W99883  17.623  23.688   1.776
40447W        W99884  43.934   0.288  12.951
40448W        W99885   3.766  38.862   4.139
40449W        W99886   4.723  44.383  12.496
40450W        W99887  36.892  41.355  10.627
40451W        W99888  19.275   3.417   0.793
40452W        W99889  42.379  19.764  12.008
40453W        W99890   5.221   1.455   2.771
40454W        W99891  33.045  27.578   3.340
40455W        W99892  12.165  38.337   3.835
40456W        W99893  38.356  16.102  10.992
40457W        W99894  21.196  27.524  11.951
40458W        W99895  18.674  30.451   4.623
40459W        W99896  16.236  36.417  13.963
40460W        W99897  20.595   5.287  11.514
40461W        W99898  25.548   4.403   4.672
40462W        W99899  42.338  16.794  11.978
40463W        W99900  44.285   3.335   0.812
40464W        W99901  10.158   0.363  10.982
40465W        W99902  43.340  40.950  13.902
40466W        W99903  38.395  29.481   4.696
40467W        W99904   3.329  22.680  12.396
40468W        W99905   2.255   5.391   2.832
40469W        W99906  23.544  41.925   1.916
40470W        W99907   6.225  12.123  10.419
40471W        W99908  31.629  34.964  12.072
40472W        W99909  35.975   4.772   2.374
40473W        W99910   4.724   6.907   0.375
40474W        W99911  21.567   5.891  12.914
40475W        W99912  19.719   6.722   0.446
40476W        W99913  19.131  41.422   3.700
40477W        W99914  10.831  28.962   1.330
40478W        W99915   8.848   4.367   0.374
40479W        W99916  33.037  38.910  13.449
40480W        W99917  16.605  18.291  13.493
40481W        W99918  29.429  28.951  13.872
40482W        W99919  20.636  12.268  14.882
40483W        W99920  38.541  19.079   3.223
40484W        W99921  11.666  10.334   4.287
40485W        W99922  42.388  27.025   3.146
40486W        W99923  15.099  14.673  13.015
40487W        W99924   5.795  44.898  11.532
40488W        W99925  44.309  35.011   0.468
40489W        W99926  33.120  11.172  14.354
40490W        W99927   2.753  38.023  11.946
40491W        W99928  35.925   9.264   4.267
40492W        W99929  42.462  37.926   4.192
40493W        W99930  44.413  32.454  12.983
40494W        W99931  30.022  19.698   3.214
40495W        W99932  34.923  33.592   0.429
40496W        W99933  26.646  32.966   1.767
40497W        W99934  32.968  33.990  11.432
40498W        W99935  25.041  43.462   1.913
40499W        W99936   5.741  18.725   2.186
40500W        W99937  40.797  32.027   2.210
40501W        W99938  28.582  22.253   2.233
40502W        W99939  21.024  14.656   0.870
40503W        W99940  23.118   3.385   3.221
40504W        W99941  38.052  24.622   4.327
40505W        W99942  35.372  24.052  14.941
40506W        W99943  14.791   1.481   2.179
40507W        W99944  36.051   8.721   0.376
40508W        W99945  39.057  30.517   0.825
40509W        W99946  42.953  29.556   3.363
40510W        W99947   7.895  40.368   4.326
40511W        W99948   3.827  38.374  13.404
40512W        W99949  17.170  31.953   2.339
40513W        W99950  41.842  42.828   2.763
40514W        W99951  34.880  16.137  14.767
40515W        W99952  10.769   6.273   3.681
40516W        W99953  25.066  28.615  13.906
40517W        W99954  30.549  39.906   3.294
40518W        W99955  35.854  29.971  14.474
40519W        W99956   8.670   9.394  12.897
40520W        W99957  14.194  30.079   0.934
40521W        W99958  34.453  32.976   2.770
40522W        W99959   4.904   6.365  14.809
40523W        W99960  21.081  11.215  14.026
40524W        W99961  16.175  12.145   1.799
40525W        W99962  44.825  36.415   1.237
40526W        W99963   6.364  24.552   0.420
40527W        W99964  36.394  39.519   2.330
40528W        W99965  23.103   1.308  14.947
40529W        W99966   1.848  36.586   2.230
40530W        W99967  25.106   9.355   2.833
40531W        W99968  13.163  22.678   4.321
40532W        W99969  37.355  11.847  13.517
40533W        W99970   3.720  27.026  10.475
40534W        W99971  10.193  37.506   2.848
40535W        W99972  22.688  26.589  13.986
40536W        W99973   6.220  30.140   0.331
40537W        W99974   1.747  21.239  13.857
40538W        W99975  41.494  24.663  12.842
40539W        W99976  19.156   8.404   4.323
40540W        W99977  18.631  11.236  14.848
40541W        W99978  33.512   4.804   4.708
40542W        W99979  34.592  22.158   3.780
40543W        W99980  33.905  32.443   2.205
40544W        W99981  41.528  14.188  13.887
40545W        W99982  38.071  41.492  12.914
40546W        W99983   4.375  23.632  13.949
40547W        W99984   0.278  27.492   2.405
40548W        W99985   4.778  40.420  12.087
40549W        W99986  23.635  24.707   0.834
40550W        W99987  10.814  33.961  10.488
40551W        W99988  35.859  36.386   3.648
40552W        W99989  26.510   2.739  10.925
40553W        W99990  13.718  25.155  11.404
40554W        W99991   6.226  39.820   4.319
40555W        W99992  10.288  14.222  11.069
40556W        W99993  41.413  20.759   0.915
40557W        W99994  16.655  19.713  11.552
40558W        W99995   3.764  44.323  14.799
40559W        W99996  43.782  15.163  11.483
40560W        W99997  23.567  41.374   0.320
40561W        W99998   9.877  13.607   3.713
40562W        W99999  26.961  11.224  13.873
40563W        W    0  42.316  37.009   2.345
40564W        W    1  43.406   3.302  12.549
40565W        W    2   4.406  36.032   2.681
40566W        W    3  36.467  43.279   3.649
40567W        W    4  21.154  22.162  13.310
40568W        W    5   2.241  17.638   4.312
40569W        W    6   2.769  11.289   1.264
40570W        W    7   4.387  20.761  12.560
40571W        W    8   7.886  21.172   4.120
40572W        W    9   8.392  30.078   1.252
40573W        W   10  11.786   1.289  14.356
40574W        W   11   8.221  19.171   3.675
40575W        W   12   9.824  36.571  12.012
40576W        W   13  41.850  41.952   4.688
40577W        W   14  26.534   4.273   2.232
40578W        W   15   4.928  44.308   3.160
40579W        W   16  21.079  13.255   3.870
40580W        W   17  43.772  13.276  10.064
40581W        W   18   9.707  20.626  11.433
40582W        W   19   2.414   4.265   1.327
40583W        W   20  10.828  26.559   3.778
40584W        W   21  43.389  36.983  14.396
40585W        W   22   2.247  11.858  10.951
40586W        W   23  27.072   9.380   1.860
40587W        W   24  12.626  13.319   2.378
40588W        W   25   4.869   5.847  13.860
40589W        W   26  43.975   7.763   4.324
40590W        W   27  30.493  24.544   1.793
40591W        W   28  40.983  28.573  13.396
40592W        W   29  27.670  28.595   2.714
40593W        W   30  34.063  25.130  12.415
40594W        W   31  31.041  21.065  13.391
40595W        W   32  10.857  21.122   3.870
40596W        W   33  15.310  14.789   4.614
40597W        W   34   9.179   3.419   3.243
40598W        W   35  43.920  32.554  13.487
40599W        W   36  22.127  16.091  11.530
40600W        W   37  23.046  16.583   3.759
40601W        W   38  16.120  25.136  10.552
40602W        W   39  39.053  30.056   3.792
40603W        W   40  30.443  23.039  12.857
40604W        W   41  23.180  30.995  11.933
40605W        W   42  12.755   6.869  10.974
40606W        W   43  22.234   1.400   2.670
40607W        W   44  20.073  44.899   4.798
40608W        W   45   9.387  36.864  12.852
40609W        W   46  41.427  28.671   2.198
40610W        W   47  30.534  42.468  10.091
40611W        W   48  32.125  14.672  12.091
40612W        W   49  15.768   8.847   1.272
40613W        W   50   7.171  43.437  10.999
40614W        W   51   8.171   6.403   0.418
40615W        W   52  43.426  17.801   3.200
40616W        W   53  27.585  28.594   4.834
40617W        W   54  14.324  27.496  11.383
40618W        W   55  23.490  20.580  14.888
40619W        W   56  42.316  18.677   0.277
40620W        W   57  30.487  42.461   4.756
40621W        W   58  17.107  39.423   3.706
40622W        W   59  22.601  27.017   1.816
40623W        W   60  36.050   3.885   1.913
40624W        W   61  29.578  15.285  14.480
40625W        W   62  15.197  41.296   4.606
40626W        W   63  34.562  12.744   2.696
40627W        W   64  30.982  34.490   0.822
40628W        W   65  43.978  43.000  12.457
40629W        W   66  41.298  29.976   4.650
40630W        W   67  23.549  28.644   1.253
40631W        W   68   7.769  36.887  14.347
40632W        W   69  31.465  36.511  13.354
40633W        W   70  27.497   3.847   3.632
40634W        W   71  35.020  15.123   4.752
40635W        W   72  34.044  14.695   2.809
40636W        W   73   1.475   1.408   2.184
40637W        W   74  12.704  18.548   5.101
40638W        W   75  25.043  16.118   1.708
40639W        W   76  30.971  15.587   0.728
40640W        W   77  24.518  35.401  10.939
40641W        W   78  31.106  11.216   3.719
40642W        W   79  11.830   1.785   4.346
40643W        W   80  10.296  34.558  11.550
40644W        W   81  15.244   8.836   1.327
40645W        W   82  22.732  21.712  11.877
40646W        W   83   0.375   1.410   3.702
40647W        W   84  36.012  43.307  10.481
40648W        W   85   9.383  30.007   3.148
40649W        W   86  12.167   3.943  12.055
40650W        W   87  31.533  26.546  11.957
40651W        W   88  38.558  23.175  13.341
40652W        W   89  25.626  17.752   2.686
40653W        W   90  17.747  38.341   0.938
40654W        W   91  22.548  42.453  13.823
40655W        W   92  44.927  11.327  11.939
40656W        W   93   4.231   3.431  13.965
40657W        W   94  44.422   9.183  13.817
40658W        W   95  12.698   5.733   1.800
40659W        W   96  39.057  34.932  12.087
40660W        W   97  36.885  13.630  13.042
40661W        W   98  37.533  34.098  13.038
40662W        W   99  39.344   7.385   0.441
40663W        W  100  30.533  10.282  14.353
40664W        W  101   5.886  17.738  10.980
40665W        W  102  16.759  31.574  13.396
40666W        W  103  18.730  37.479   0.927
40667W        W  104   0.381  18.296   1.359
40668W        W  105  36.892  32.950   3.764
40669W        W  106  27.973  34.415  13.449
40670W        W  107  28.114  13.134  13.315
40671W        W  108  11.638  34.969  12.346
40672W        W  109  30.083  13.709  11.082
40673W        W  110  16.079  34.528  14.494
40674W        W  111   1.841  22.579  11.060
40675W        W  112   4.822  37.076  13.940
40676W        W  113  42.342  43.487   1.240
40677W        W  114  14.125  42.387   0.917
40678W        W  115   2.816   8.787   1.911
40679W        W  116   2.445  41.518   3.860
40680W        W  117   2.244  41.304  12.010
40681W        W  118  39.556  28.966  14.788
40682W        W  119   9.791   7.327  14.967
40683W        W  120  23.612  28.028   4.678
40684W        W  121  33.908  43.273  11.567
40685W        W  122  17.190  31.001   2.376
40686W        W  123   5.733  14.720  11.003
40687W        W  124  31.621  44.804  11.550
40688W        W  125   2.750  11.744   2.184
40689W        W  126  24.217   4.325   1.919
40690W        W  127  13.623   4.235  12.340
40691W        W  128  41.927  31.535   4.831
40692W        W  129   6.920  40.370  12.519
40693W        W  130  10.790  42.964   0.351
40694W        W  131  26.562   1.404  13.976
40695W        W  132  12.281   2.857  12.366
40696W        W  133  38.934  11.331   2.710
40697W        W  134  30.470   5.224   2.297
40698W        W  135  40.320   9.387  13.800
40699W        W  136  21.702  20.603   2.394
40700W        W  137   5.366   0.387   4.676
40701W        W  138  21.055  22.234   3.365
40702W        W  139   4.816  10.349   3.770
40703W        W  140  22.519  34.987   0.324
40704W        W  141  30.580  14.262  14.839
40705W        W  142  28.482  27.626  13.920
40706W        W  143  38.335  20.138   2.780
40707W        W  144   6.228  17.749   0.946
40708W        W  145  18.206  24.573  13.896
40709W        W  146  37.380  20.624  10.951
40710W        W  147  13.721  28.143   1.818
40711W        W  148  28.650  36.525  10.973
40712W        W  149  26.009  21.213   0.938
40713W        W  150   5.298  11.205  11.094
40714W        W  151  34.429   4.874   2.854
40715W        W  152  12.314   8.317  13.445
40716W        W  153  44.397   3.717   1.883
40717W        W  154  33.957   3.459  10.408
40718W        W  155  27.034   3.416  10.068
40719W        W  156  20.039  32.579  11.072
40720W        W  157  11.683   7.862   3.761
40721W        W  158  28.075  23.132   3.867
40722W        W  159   3.951  35.491  11.929
40723W        W  160  42.968  13.121  14.887
40724W        W  161  27.099  15.250   2.351
40725W        W  162  17.253  23.500   4.828
40726W        W  163  26.107  38.928  10.450
40727W        W  164  15.169   7.716   4.672
40728W        W  165   8.883  41.009  10.495
40729W        W  166  15.665  10.793  12.516
40730W        W  167  30.987   6.390   1.346
40731W        W  168  41.348  43.798   1.409
40732W        W  169  27.178  12.846  11.936
40733W        W  170  18.221  10.698  11.078
40734W        W  171   5.338  37.574   2.413
40735W        W  172  41.438  25.589  14.400
40736W        W  173  25.104  30.129   1.330
40737W        W  174  28.097   5.413  12.492
40738W        W  175   2.460  44.270  11.484
40739W        W  176   9.791  18.112  13.860
40740W        W  177  20.528  15.634  14.434
40741W        W  178   5.304  41.926   2.332
40742W        W  179   9.873  34.504   0.834
40743W        W  180  13.658  18.664  14.884
40744W        W  181  15.591  22.150   1.375
40745W        W  182  22.108  25.497   2.825
40746W        W  183   3.712  40.980  11.043
40747W        W  184  32.019  22.234  12.482
40748W        W  185  10.163  40.798   3.280
40749W        W  186  16.303  29.647   1.865
40750W        W  187  21.179  36.360   0.746
40751W        W  188  26.043  35.495  14.912
40752W        W  189  27.195  27.952   4.630
40753W        W  190  41.867  32.402   0.472
40754W        W  191  22.650  15.698   1.260
40755W        W  192  43.437  28.681   4.763
40756W        W  193  38.456  38.975  13.918
40757W        W  194  43.916  10.665  11.082
40758W        W  195  39.874   7.251  14.514
40759W        W  196  10.212  44.411   1.845
40760W        W  197   8.659  34.922   5.111
40761W        W  198  16.130  19.081   3.152
40762W        W  199  29.623  43.308  11.553
40763W        W  200   9.283  32.917  13.981
40764W        W  201  11.182  23.534   0.389
40765W        W  202  44.764  26.575   9.965
40766W        W  203  24.513  40.477  14.784
40767W        W  204   1.294  37.057   5.593
40768W        W  205  11.148  42.807  11.394
40769W        W  206  22.244  24.979  12.022
40770W        W  207  42.779  26.597   0.481
40771W        W  208  18.108  13.729   1.261
40772W        W  209  30.638  35.408  11.514
40773W        W  210  15.761  29.452  11.378
40774W        W  211  42.429   0.312  14.860
40775W        W  212  10.145  16.251   0.330
40776W        W  213  24.707   2.936  14.795
40777W        W  214  44.873  44.000   1.780
40778W        W  215  18.670  19.145  12.932
40779W        W  216  42.520  11.771  14.823
40780W        W  217  29.088  19.738   1.930
40781W        W  218  36.968   6.757   1.384
40782W        W  219  23.610  28.575   0.293
40783W        W  220  13.164  28.974   3.353
40784W        W  221  33.884  31.547   2.392
40785W        W  222  28.666  30.561   0.803
40786W        W  223  33.520  36.365  11.020
40787W        W  224   7.712  19.756  10.064
40788W        W  225  44.365  26.964  12.552
40789W        W  226  41.295   9.343  11.574
40790W        W  227  13.726   3.732   4.789
40791W        W  228  30.952   8.700  13.882
40792W        W  229  44.992   7.887  11.029
40793W        W  230  24.647   8.897   0.882
40794W        W  231  29.140  23.612   1.440
40795W        W  232   5.927  26.465  11.941
40796W        W  233  20.588  33.033   2.772
40797W        W  234  31.110   5.716   1.858
40798W        W  235  27.158  10.815   5.706
40799W        W  236  17.721  28.958  12.831
40800W        W  237  40.903   7.245  12.019
40801W        W  238  42.322   2.313   4.632
40802W        W  239  35.427  12.775  10.915
40803W        W  240   1.837   5.259  10.538
40804W        W  241  42.473  39.895   3.346
40805W        W  242   7.186   9.180  10.597
40806W        W  243   1.817  10.172  13.802
40807W        W  244  41.483  15.656   0.790
40808W        W  245  33.905  42.775   4.651
40809W        W  246   0.470  43.487  12.993
40810W        W  247  20.705  14.666   2.782
40811W        W  248   0.756  29.622  13.979
40812W        W  249   3.319  12.725   3.649
40813W        W  250  24.025  25.026   1.296
40814W        W  251  26.645  35.958  12.893
40815W        W  252   6.871   8.882  12.960
40816W        W  253  15.600  11.704   0.379
40817W        W  254  41.839   8.864  10.453
40818W        W  255  27.655  27.162   2.402
40819W        W  256  17.167   4.727  12.934
40820W        W  257  12.133  24.653  13.809
40821W        W  258  43.394   8.402   1.403
40822W        W  259  25.685  17.662   0.355
40823W        W  260  21.073  14.743   3.685
40824W        W  261  26.529  16.800  14.510
40825W        W  262  20.135  18.213  12.548
40826W        W  263   4.895   6.284   1.769
40827W        W  264  17.591  13.753  14.820
40828W        W  265  21.573  20.672  10.980
40829W        W  266   0.866  32.485  12.884
40830W        W  267  36.874   1.887   4.634
40831W        W  268  25.522  26.208   4.140
40832W        W  269  40.820  21.262   3.856
40833W        W  270  17.221  37.987   4.703
40834W        W  271  22.052  39.398   4.724
40835W        W  272  35.026  44.306  10.083
40836W        W  273  41.512  26.965   2.894
40837W        W  274  39.520  33.952  11.585
40838W        W  275   0.353  15.269   3.634
40839W        W  276  30.000  42.358   2.336
40840W        W  277  18.604  35.873  13.335
40841W        W  278  22.246   4.430   0.343
40842W        W  279  18.715   4.358   3.190
40843W        W  280   7.700  28.145   4.721
40844W        W  281  38.068  37.473   2.852
40845W        W  282  42.326  23.207  14.511
40846W        W  283  15.141  16.783   1.217
40847W        W  284  31.051  30.491   1.284
40848W        W  285  42.988  44.294   0.964
40849W        W  286  17.145  23.058   3.357
40850W        W  287  24.665  16.203  13.510
40851W        W  288  10.230  16.087   0.770
40852W        W  289  14.693  41.810   4.175
40853W        W  290  40.818  43.399   2.407
40854W        W  291   6.375  17.728  12.982
40855W        W  292  17.685  13.790  13.900
40856W        W  293   3.876  18.713   5.138
40857W        W  294  27.187  19.078  11.921
40858W        W  295  39.431  41.860   1.378
40859W        W  296  38.062  25.509   0.868
40860W        W  297  16.192  30.134   0.814
40861W        W  298   3.360  39.991  11.976
40862W        W  299  25.099  21.213  12.004
40863W        W  300  39.393  26.193  12.888
40864W        W  301   7.716   9.740  14.315
40865W        W  302  12.237   6.394  14.497
40866W        W  303  39.028   7.300   3.157
40867W        W  304  40.459  23.581  14.279
40868W        W  305   4.850  15.705  10.630
40869W        W  306  32.470  36.496   0.384
40870W        W  307  15.215   1.802   3.718
40871W        W  308   6.300  32.931  14.370
40872W        W  309  44.962  17.208  13.408
40873W        W  310   2.902   3.254   4.623
40874W        W  311  38.412  44.827   2.386
40875W        W  312   0.325  19.649  12.513
40876W        W  313  10.839   5.439  13.512
40877W        W  314  33.431   5.895  10.011
40878W        W  315   5.240  33.027  13.832
40879W        W  316  15.151  12.831  13.957
40880W        W  317  15.730   6.310  11.476
40881W        W  318  11.684  24.551   1.303
40882W        W  319   4.877  35.517   0.313
40883W        W  320  22.677  36.045  11.924
40884W        W  321  19.192  32.417  10.538
40885W        W  322  31.947  38.477   5.290
40886W        W  323   8.312   3.834   4.298
40887W        W  324   6.369  17.668  12.554
40888W        W  325  12.669  34.015   3.733
40889W        W  326  39.904  38.872  14.320
40890W        W  327  39.390  30.070  14.848
40891W        W  328  39.538  22.580  13.367
40892W        W  329  11.353  30.493   4.627
40893W        W  330   7.368   8.772   4.777
40894W        W  331   7.709   8.350   0.783
40895W        W  332   8.166  21.748  13.902
40896W        W  333  36.049  29.493   2.698
40897W        W  334  29.083  22.197  10.621
40898W        W  335  16.119  22.109  14.438
40899W        W  336   2.345  32.051  10.998
40900W        W  337   5.903  23.567   3.220
40901W        W  338  38.910  11.836  14.012
40902W        W  339  29.615  18.773   4.310
40903W        W  340  15.283  17.641   0.252
40904W        W  341  33.548  34.399   0.370
40905W        W  342   0.914  26.482   0.473
40906W        W  343   1.842  15.292   4.127
40907W        W  344   6.376  18.128  12.490
40908W        W  345  28.550  18.657  12.065
40909W        W  346  44.823   9.764   0.368
40910W        W  347  33.901  28.448  10.486
40911W        W  348  31.132  17.796   3.203
40912W        W  349  18.105  40.348  13.007
40913W        W  350  41.347  35.022  13.478
40914W        W  351  37.956  19.716   4.719
40915W        W  352  21.109   6.700  13.512
40916W        W  353  29.100  19.600   2.777
40917W        W  354  18.634  34.601   1.863
40918W        W  355   4.824  23.141   3.331
40919W        W  356  37.061  12.316  12.978
40920W        W  357  40.313  21.525   4.333
40921W        W  358   3.298  44.361   1.370
40922W        W  359  19.769  36.520   2.391
40923W        W  360  24.128  12.722  11.894
40924W        W  361  17.246  11.320   3.849
40925W        W  362  43.909  18.155   0.907
40926W        W  363   7.735   2.282   4.707
40927W        W  364  19.276  31.547  14.488
40928W        W  365  29.600  26.033   1.827
40929W        W  366  20.181  18.214   3.771
40930W        W  367  19.660  41.433  10.607
40931W        W  368  35.932   6.318  13.902
40932W        W  369  15.640  19.126   1.932
40933W        W  370  38.045  24.566  10.932
40934W        W  371  33.502  35.895   1.754
40935W        W  372  26.088  12.647   1.403
40936W        W  373  15.170  22.592  10.636
40937W        W  374  12.769  25.197   4.351
40938W        W  375  29.987  36.851   1.221
40939W        W  376  36.574  33.396   4.798
40940W        W  377  24.626  36.922  11.605
40941W        W  378  28.984  11.338  13.348
40942W        W  379  38.018  30.046  14.288
40943W        W  380   0.476   8.164   4.678
40944W        W  381  38.995  25.468  13.386
40945W        W  382  13.762  17.796  12.493
40946W        W  383  30.962  26.513   1.822
40947W        W  384   7.683  16.180  12.936
40948W        W  385  36.506  19.556   4.131
40949W        W  386  25.966  37.389   0.413
40950W        W  387  19.105  25.217  14.899
40951W        W  388  13.258   9.781  13.326
40952W        W  389   8.233  26.046  11.552
40953W        W  390  32.000   2.947   1.224
40954W        W  391   6.218  26.626   1.837
40955W        W  392  10.215   5.425   4.269
40956W        W  393   5.886  16.114  13.547
40957W        W  394  42.387   5.758   1.369
40958W        W  395  41.961  32.122  11.517
40959W        W  396  17.625  31.077  13.485
40960W        W  397  23.561  15.581   3.215
40961W        W  398  12.741   6.418   0.276
40962W        W  399   4.744  24.565  10.451
40963W        W  400  31.639   1.392  11.496
40964W        W  401  38.871  17.557   5.285
40965W        W  402   5.835  26.486   9.461
40966W        W  403  40.412  42.873   3.871
40967W        W  404  15.104  34.941  14.943
40968W        W  405   7.334  22.501  14.824
40969W        W  406  15.292   4.698  13.508
40970W        W  407  16.305  19.534  13.982
40971W        W  408  28.129  33.959  13.360
40972W        W  409  19.676  33.415   4.336
40973W        W  410   6.751  30.499   5.259
40974W        W  411   8.188  42.465  12.358
40975W        W  412  27.631  33.123  12.005
40976W        W  413  11.796  28.109  10.572
40977W        W  414  34.078   6.711  14.774
40978W        W  415  35.099  30.003  11.126
40979W        W  416  38.030  41.505   4.611
40980W        W  417  36.017   1.858  13.808
40981W        W  418  36.862  14.651   0.960
40982W        W  419   8.785  18.744  12.841
40983W        W  420  40.324  10.855   1.273
40984W        W  421   6.836  37.951  12.975
40985W        W  422  15.607   2.241  13.856
40986W        W  423  35.967  38.501   5.282
40987W        W  424  23.229  15.804   2.898
40988W        W  425  33.064  28.465  11.457
40989W        W  426   2.307   8.781   1.759
40990W        W  427  33.400   6.188   4.615
40991W        W  428  10.147  11.190   0.478
40992W        W  429  25.594  13.149   5.091
40993W        W  430  10.831  19.142   2.357
40994W        W  431  26.498  33.049   4.641
40995W        W  432   5.800  32.572  14.002
40996W        W  433  14.766   0.290  14.358
40997W        W  434  32.894  25.557  11.576
40998W        W  435  36.569  23.200   4.163
40999W        W  436  35.548   0.926  14.508
41000W        W  437  41.860   5.307   4.317
41001W        W  438  27.149  43.964  10.508
41002W        W  439  36.953  41.988   4.249
41003W        W  440  27.456   9.828  12.540
41004W        W  441  30.011   8.670   4.718
41005W        W  442  22.176  36.080  11.460
41006W        W  443   4.383  24.198   3.697
41007W        W  444   3.862  31.147  12.994
41008W        W  445  10.346   1.316  13.907
41009W        W  446   0.850  35.521   1.311
41010W        W  447  30.568   0.799  12.878
41011W        W  448  41.441  39.871   0.383
41012W        W  449  41.507  33.935   2.209
41013W        W  450  35.390   2.259   0.329
41014W        W  451  12.644  20.086   0.733
41015W        W  452   2.784  21.186  14.381
41016W        W  453   8.282  28.528  10.987
41017W        W  454  21.697   8.898  13.805
41018W        W  455  42.962  20.029  11.477
41019W        W  456  19.661  27.036   0.862
41020W        W  457   2.915  40.992   0.479
41021W        W  458  11.189  11.215  11.049
41022W        W  459  33.393   8.732   0.419
41023W        W  460   6.834  33.075  10.944
41024W        W  461  24.994   9.219  11.987
41025W        W  462  30.106  27.629   0.930
41026W        W  463  16.768  23.009   4.831
41027W        W  464   7.233  37.454  10.539
41028W        W  465   4.317  26.139   0.948
41029W        W  466  19.714   0.310  12.959
41030W        W  467  34.104  17.116  14.476
41031W        W  468  33.073   6.253   4.260
41032W        W  469   0.921  22.600  11.889
41033W        W  470   6.276  42.306   2.271
41034W        W  471  21.191  11.182   1.363
41035W        W  472  29.448  38.849   1.382
41036W        W  473   0.806  36.996  15.000
41037W        W  474  23.995  32.979   2.218
41038W        W  475  20.062  14.305   1.248
41039W        W  476   2.274  43.290  14.360
41040W        W  477   1.805  23.176   1.313
41041W        W  478  33.084  23.497  12.096
41042W        W  479  12.765  15.213  10.598
41043W        W  480  35.530  11.740  13.054
41044W        W  481  13.125   2.265  10.638
41045W        W  482  16.705  23.079  12.427
41046W        W  483  19.574  22.193   2.791
41047W        W  484  39.399  35.599   1.259
41048W        W  485  13.298  19.098   3.851
41049W        W  486  20.081  26.954   1.745
41050W        W  487  10.325  30.505  13.474
41051W        W  488  36.574  26.677   0.745
41052W        W  489  33.123  25.180   3.378
41053W        W  490  40.387  38.864   4.280
41054W        W  491  31.068  18.141  11.492
41055W        W  492   7.337  23.559  10.972
41056W        W  493  17.555  22.175   0.303
41057W        W  494  14.197  35.495   2.880
41058W        W  495  24.498   1.836  11.498
41059W        W  496   7.187  34.921   1.346
41060W        W  497   6.854  10.255   1.425
41061W        W  498   2.255  14.797   2.866
41062W        W  499  44.355  40.869   5.133
41063W        W  500  23.058  21.144  10.423
41064W        W  501  27.021  28.643   0.946
41065W        W  502  28.173  10.356   1.377
41066W        W  503   9.221   8.850   0.334
41067W        W  504  34.887  42.950  11.547
41068W        W  505  24.178  42.827  10.967
41069W        W  506  40.411  11.266  14.287
41070W        W  507  16.119  21.020   4.761
41071W        W  508  25.991  25.566   2.389
41072W        W  509  16.623  37.349  14.501
41073W        W  510  41.512  18.709  13.006
41074W        W  511   1.455  10.235  11.869
41075W        W  512  13.179  42.483   2.757
41076W        W  513  19.576  13.811   0.263
41077W        W  514  21.696  34.587   4.716
41078W        W  515   7.876  41.505  11.443
41079W        W  516  12.284  20.633  14.283
41080W        W  517  28.520  20.761   0.327
41081W        W  518   6.371   7.802   1.274
41082W        W  519  14.636   7.272   4.771
41083W        W  520  14.115  38.514  11.099
41084W        W  521  22.591  16.721  11.371
41085W        W  522  16.709  29.136  13.329
41086W        W  523  37.342  40.009  12.356
41087W        W  524  22.090   2.403  11.472
41088W        W  525  29.630  41.484   0.307
41089W        W  526   4.807  18.295   3.346
41090W        W  527  21.635  40.527   2.359
41091W        W  528  18.761  39.334   4.184
41092W        W  529   4.856  10.152  14.771
41093W        W  530  22.995   2.331   3.168
41094W        W  531  36.053   3.291  10.531
41095W        W  532  17.093  36.473  14.409
41096W        W  533  24.990  38.932   3.206
41097W        W  534  15.650  25.485   1.905
41098W        W  535  27.190  33.946   1.277
41099W        W  536  29.139  31.518  14.503
41100W        W  537  43.820  31.909  14.785
41101W        W  538  24.703  36.955   5.282
41102W        W  539  43.878  44.362  10.463
41103W        W  540  39.352   3.783   4.271
41104W        W  541  19.096  32.097   3.165
41105W        W  542  13.285   2.267   2.296
41106W        W  543  31.646  43.342   1.785
41107W        W  544  43.413  18.072  11.404
41108W        W  545  36.535  12.146   4.299
41109W        W  546  21.020  27.467  10.007
41110W        W  547  14.698  14.750  10.551
41111W        W  548  21.755  35.569  13.882
41112W        W  549  10.760   6.747  11.067
41113W        W  550   9.181   3.366  14.300
41114W        W  551  10.826  23.117   2.743
41115W        W  552   3.299  40.374   5.311
41116W        W  553  10.871  21.256   4.188
41117W        W  554  28.176  43.419  14.430
41118W        W  555  11.821  32.629   4.297
41119W        W  556  27.960  14.124   3.842
41120W        W  557   6.897  17.676   2.276
41121W        W  558   0.927  19.066  13.878
41122W        W  559  21.592  33.096  11.044
41123W        W  560   8.660   9.755  11.464
41124W        W  561   1.279   6.714  10.624
41125W        W  562  41.912   6.405   3.164
41126W        W  563   5.258  28.125   2.878
41127W        W  564   9.209  16.641   3.373
41128W        W  565  37.895  30.957   2.691
41129W        W  566  26.063  42.863  11.554
41130W        W  567   3.423   1.477  11.941
41131W        W  568  44.459  32.138   3.760
41132W        W  569  15.813  16.268  10.558
41133W        W  570   1.791  29.069  12.397
41134W        W  571  11.355  19.215  13.037
41135W        W  572   1.811   9.829  12.965
41136W        W  573   1.848  14.310   5.623
41137W        W  574  23.056  36.525   2.318
41138W        W  575  20.718  37.887   1.387
41139W        W  576  18.738  32.065  13.330
41140W        W  577   7.216  40.833  14.509
41141W        W  578  43.475   7.230   0.450
41142W        W  579  16.650  19.225   0.344
41143W        W  580  42.480  34.105  12.896
41144W        W  581  26.678  16.202   1.450
41145W        W  582   4.422   6.828   1.390
41146W        W  583  29.112  18.236   4.323
41147W        W  584  12.358  35.530  11.860
41148W        W  585   7.393   8.307  10.436
41149W        W  586  23.729   2.953   1.396
41150W        W  587  19.639   4.724   9.998
41151W        W  588  39.492   0.883  12.894
41152W        W  589  44.477  10.235   3.773
41153W        W  590   9.699  29.989  11.956
41154W        W  591  42.846  16.670   9.931
41155W        W  592  18.131   0.346   0.427
41156W        W  593   6.814  25.583   1.757
41157W        W  594  44.308  38.929  12.035
41158W        W  595  34.609  30.124   2.350
41159W        W  596   3.758  38.932  11.879
41160W        W  597  17.203  29.113  13.392
41161W        W  598  24.717  28.557  11.480
41162W        W  599  15.236  26.548  11.902
41163W        W  600  30.925  30.977  12.523
41164W        W  601  22.502   2.326   1.832
41165W        W  602  36.982  38.904  11.535
41166W        W  603  22.616  20.200  14.973
41167W        W  604  36.509  42.432  12.451
41168W        W  605  38.039  10.735  12.996
41169W        W  606  22.040  42.422   1.371
41170W        W  607  40.325  13.205  10.550
41171W        W  608  34.507   4.408   0.912
41172W        W  609  15.801   6.244  12.085
41173W        W  610   8.885  44.327   4.234
41174W        W  611  12.721  13.764   2.676
41175W        W  612  40.378  29.633  11.443
41176W        W  613  17.106  27.515   0.396
41177W        W  614  31.486  13.607  13.423
41178W        W  615  31.975  32.015  13.446
41179W        W  616  26.036  37.009  10.465
41180W        W  617  39.557  36.877  14.921
41181W        W  618  25.692  23.110  12.556
41182W        W  619  41.367  23.137   1.387
41183W        W  620  37.893  17.688  11.034
41184W        W  621  16.718   8.250  12.475
41185W        W  622  15.626  41.482  12.830
41186W        W  623  22.745  19.220  13.858
41187W        W  624  36.441  28.652   0.966
41188W        W  625   2.389  37.012  12.920
41189W        W  626  23.503  43.484  11.477
41190W        W  627  44.933  26.028   3.253
41191W        W  628  24.626  35.396   9.483
41192W        W  629   2.315  15.650   5.172
41193W        W  630  20.122  38.016   3.350
41194W        W  631  27.676  22.144   3.869
41195W        W  632  22.657  26.991   0.413
41196W        W  633  11.359  29.553   4.290
41197W        W  634  15.120   2.448  13.932
41198W        W  635  30.988  18.688   3.150
41199W        W  636  23.735   9.352   0.941
41200W        W  637  40.517   8.749   2.879
41201W        W  638   8.838   4.393   2.419
41202W        W  639  14.631  37.480   0.326
41203W        W  640   5.731  32.622   2.736
41204W        W  641  32.131  15.247   4.292
41205W        W  642  35.064  41.014   3.301
41206W        W  643  43.325  30.538   3.165
41207W        W  644  44.850  38.528   4.728
41208W        W  645   6.425  35.033  12.410
41209W        W  646  29.945  26.074  14.420
41210W        W  647   0.436  18.544   4.163
41211W        W  648  14.330   3.269  13.414
41212W        W  649   8.237  34.431   4.193
41213W        W  650   5.777  17.152  10.946
41214W        W  651  40.353  30.556  11.059
41215W        W  652  30.582   9.229   3.680
41216W        W  653  29.048  31.478   2.897
41217W        W  654  22.716  41.944  11.971
41218W        W  655   9.741  16.772   3.349
41219W        W  656  31.422  35.059  11.408
41220W        W  657   0.259   7.285  12.080
41221W        W  658   6.329  40.901  10.573
41222W        W  659   2.961  41.300   2.744
41223W        W  660   1.276  41.303  13.916
41224W        W  661  14.164  29.519  12.080
41225W        W  662  17.572  14.809   3.247
41226W        W  663  29.152   6.298  11.068
41227W        W  664  31.465  35.859  14.806
41228W        W  665   2.257  12.183   1.282
41229W        W  666  29.997  18.756  10.600
41230W        W  667  20.244   5.851  14.415
41231W        W  668  16.680  23.127   0.449
41232W        W  669  21.120  27.564  11.125
41233W        W  670  17.668  11.754  10.959
41234W        W  671   2.392  17.707  13.997
41235W        W  672  23.613  11.245   3.844
41236W        W  673  27.996  29.543  13.483
41237W        W  674  33.909  16.746  11.101
41238W        W  675  27.556   2.761   4.806
41239W        W  676  42.433  28.438  10.486
41240W        W  677  12.225   7.354   4.816
41241W        W  678  21.569  42.420   0.479
41242W        W  679  10.304  22.695  11.047
41243W        W  680   5.838  26.200   2.897
41244W        W  681  29.478  26.175   0.445
41245W        W  682  41.863  19.621  14.848
41246W        W  683   3.763  25.704  10.152
41247W        W  684  11.303  18.258  13.892
41248W        W  685   5.230  18.666  11.504
41249W        W  686  40.370  41.458   4.787
41250W        W  687  34.101   7.891   3.253
41251W        W  688  25.993  38.859   0.375
41252W        W  689  18.088  44.500  13.409
41253W        W  690   8.781   3.905   0.468
41254W        W  691  26.511  22.106  12.036
41255W        W  692  42.926  40.490   1.256
41256W        W  693   3.864  17.670   1.765
41257W        W  694   8.164  31.512  11.498
41258W        W  695   0.285  13.317   0.434
41259W        W  696  18.787   5.783  12.416
41260W        W  697  33.894  38.523  14.448
41261W        W  698  31.054   6.220   0.318
41262W        W  699  19.194  32.139  13.932
41263W        W  700  25.572  11.834   2.666
41264W        W  701  29.531  19.619  13.064
41265W        W  702  19.264  36.893  11.009
41266W        W  703  16.680  12.670   4.233
41267W        W  704   2.266  32.432  14.355
41268W        W  705  13.709  25.556   3.843
41269W        W  706   9.149  20.234  13.509
41270W        W  707   8.318  35.391   4.115
41271W        W  708  36.352   7.323   1.309
41272W        W  709  36.903  27.683  11.477
41273W        W  710  39.551  42.454  13.971
41274W        W  711   4.879  27.076  12.450
41275W        W  712  12.353   5.292   1.914
41276W        W  713   6.377  17.231  10.964
41277W        W  714  43.404  42.477   3.219
41278W        W  715   4.242  20.532  14.017
41279W        W  716  20.750  10.744   3.319
41280W        W  717  43.850   4.847   1.874
41281W        W  718   5.241  20.160   0.888
41282W        W  719  26.203  33.514   3.257
41283W        W  720  29.149  10.170   2.395
41284W        W  721   8.768   0.372   2.237
41285W        W  722  14.220  39.533  13.476
41286W        W  723  10.755   6.692   0.469
41287W        W  724  14.186  11.731  10.957
41288W        W  725   5.293  30.959  11.997
41289W        W  726   6.209  28.145   0.757
41290W        W  727  33.058  26.185   9.971
41291W        W  728   6.880  39.508   3.641
41292W        W  729  43.457  30.621   5.290
41293W        W  730  28.068  44.504   3.232
41294W        W  731  39.398  44.288  13.794
41295W        W  732  11.281   2.278  11.994
41296W        W  733  38.009  21.568   1.337
41297W        W  734  18.284  12.628   1.751
41298W        W  735  34.912  42.471   4.231
41299W        W  736  18.548  40.481   3.698
41300W        W  737  35.956  38.474  10.590
41301W        W  738  13.704  21.570  13.053
41302W        W  739  18.169  19.268   2.367
41303W        W  740  18.173  35.373   1.905
41304W        W  741  33.903  40.488  12.414
41305W        W  742  23.156  41.515   5.582
41306W        W  743  13.614  35.500   3.736
41307W        W  744  41.518  19.144   4.194
41308W        W  745  31.128  40.937   4.144
41309W        W  746  26.603  32.427  12.858
41310W        W  747  17.076   9.169  10.130
41311W        W  748  27.050  41.394   3.308
41312W        W  749   8.696  25.665   0.262
41313W        W  750  21.748  30.025   0.871
41314W        W  751   5.788   0.903  10.492
41315W        W  752   6.378   0.870   0.870
41316W        W  753   3.932  36.546   2.742
41317W        W  754   0.904  25.645   0.823
41318W        W  755  12.171  18.737   2.797
41319W        W  756  37.350   3.773   1.859
41320W        W  757   7.865  23.171  14.301
41321W        W  758  36.960  29.949  11.059
41322W        W  759  12.265  39.419   3.639
41323W        W  760  21.538  17.144  13.426
41324W        W  761  43.928  43.270   1.753
41325W        W  762  21.685  42.293   0.895
41326W        W  763  19.776   3.311   5.285
41327W        W  764  15.276   0.882   0.255
41328W        W  765   7.778  23.617  12.511
41329W        W  766  24.598   4.415  12.340
41330W        W  767  11.786  39.460   3.378
41331W        W  768  17.144  35.499   3.370
41332W        W  769  26.184   0.396  11.094
41333W        W  770  21.108   3.928   4.651
41334W        W  771  36.472  24.144   1.826
41335W        W  772  28.934  20.154   3.274
41336W        W  773  42.357  33.123   3.348
41337W        W  774   0.396  27.152  13.842
41338W        W  775  24.653   9.835  14.940
41339W        W  776  39.469  42.452  11.380
41340W        W  777  20.611  28.612   4.624
41341W        W  778  43.279  30.580   4.192
41342W        W  779   5.714  23.130   0.920
41343W        W  780   3.867  32.084   4.803
41344W        W  781  24.980  26.634   2.811
41345W        W  782  33.445  34.403  14.338
41346W        W  783  12.200   7.816  10.513
41347W        W  784  19.277  21.658  12.046
41348W        W  785  31.417   3.373   4.339
41349W        W  786  21.699   3.314   0.434
41350W        W  787  37.831   4.400   1.799
41351W        W  788  38.007  21.087  14.284
41352W        W  789  22.020  35.901   0.859
41353W        W  790   3.333   5.221   4.250
41354W        W  791  33.885  35.093   4.203
41355W        W  792   2.964  40.836  10.605
41356W        W  793   7.744   4.207  14.454
41357W        W  794  18.771   1.852  13.485
41358W        W  795   1.884  40.049  14.881
41359W        W  796  28.561  16.757  11.407
41360W        W  797  41.334  26.547   4.801
41361W        W  798  20.042   8.823  10.006
41362W        W  799  31.908  30.128   3.328
41363W        W  800   0.848  33.542   3.787
41364W        W  801   9.887  18.625   0.421
41365W        W  802  21.134   7.290  13.395
41366W        W  803   0.846   9.658  14.899
41367W        W  804   2.431  13.785   2.327
41368W        W  805  17.680  25.483  12.056
41369W        W  806  28.587  44.845   0.761
41370W        W  807  26.668   0.306   3.851
41371W        W  808   0.435  32.536  14.320
41372W        W  809  32.460   5.300  13.909
41373W        W  810  22.611  35.009   2.724
41374W        W  811  26.657  36.872   3.365
41375W        W  812   7.874  19.588   0.840
41376W        W  813  10.855  11.285   0.392
41377W        W  814  25.170  32.625  13.528
41378W        W  815   4.781  28.175   1.225
41379W        W  816  26.199  18.291  13.390
41380W        W  817  37.072  42.805  13.063
41381W        W  818  10.678  19.094   3.700
41382W        W  819  21.654  20.537   3.188
41383W        W  820  43.364  35.539   2.368
41384W        W  821  11.337  10.680  14.452
41385W        W  822   7.292  31.949  10.937
41386W        W  823   9.209  31.624   0.856
41387W        W  824  17.660   7.810   2.292
41388W        W  825  27.946  30.472  12.993
41389W        W  826  16.608  20.120  11.552
41390W        W  827  10.143  39.367  12.353
41391W        W  828  14.772  26.555  11.127
41392W        W  829  20.253  18.090   4.813
41393W        W  830  41.866   1.967  10.598
41394W        W  831  33.422  23.209  14.280
41395W        W  832  10.242  30.117  13.374
41396W        W  833  15.633  24.614  11.105
41397W        W  834  33.988  28.978   2.418
41398W        W  835   1.366  25.183   1.340
41399W        W  836  38.501  16.081   1.432
41400W        W  837  10.273   3.288  11.417
41401W        W  838   3.955  43.500  10.584
41402W        W  839  37.966  21.166   2.890
41403W        W  840  43.452   3.351  10.541
41404W        W  841  35.558  44.349   0.359
41405W        W  842  38.038  26.204  13.334
41406W        W  843  37.351  37.401   2.839
41407W        W  844  11.655  33.925  14.894
41408W        W  845   7.320  38.970  13.357
41409W        W  846   2.278   8.900   2.337
41410W        W  847   0.872  43.314  13.309
41411W        W  848  16.653  18.712  13.398
41412W        W  849  19.043  38.976   0.288
41413W        W  850  18.725   0.887   4.623
41414W        W  851  21.225   5.200   2.364
41415W        W  852  24.090  26.542  14.291
41416W        W  853  41.528  29.572   2.376
41417W        W  854  23.161  41.028   1.361
41418W        W  855  32.969  42.822   3.852
41419W        W  856  33.967  18.174  14.986
41420W        W  857   2.851  13.826  10.899
41421W        W  858   7.725   5.722   4.352
41422W        W  859  12.262   5.199  13.502
41423W        W  860   2.343  38.962  12.936
41424W        W  861  30.638   6.678  14.820
41425W        W  862   5.323  15.231   2.856
41426W        W  863  44.881  27.009  10.479
41427W        W  864  35.951   5.912   4.597
41428W        W  865   0.840   0.441  13.372
41429W        W  866  31.990  20.715   3.188
41430W        W  867  24.001  30.004   3.736
41431W        W  868  42.338   9.719   2.809
41432W        W  869  22.546  43.269  14.822
41433W        W  870   6.698  34.046  14.390
41434W        W  871  28.499  15.696   2.212
41435W        W  872  30.423  44.854  14.321
41436W        W  873   8.887   0.278  13.531
41437W        W  874   5.715  16.286   2.672
41438W        W  875  43.312  39.859  10.932
41439W        W  876  20.243  41.523   3.699
41440W        W  877  39.042  13.678   3.676
41441W        W  878  38.457  43.452  11.606
41442W        W  879  35.485  18.145  13.828
41443W        W  880  28.120   4.761   1.412
41444W        W  881   3.898   8.185  14.031
41445W        W  882  10.754  43.934   1.800
41446W        W  883  30.624  27.157  12.845
41447W        W  884  34.474  37.420  10.477
41448W        W  885  28.036  43.295   4.780
41449W        W  886  41.478   0.786   2.389
41450W        W  887  20.067   3.769  13.845
41451W        W  888   8.704  36.583  12.954
41452W        W  889  36.957  41.952  10.536
41453W        W  890  30.101  12.305  13.975
41454W        W  891  21.695  39.517   3.726
41455W        W  892  13.194  32.026   2.751
41456W        W  893  39.920  35.391   0.799
41457W        W  894  19.661  19.115   5.118
41458W        W  895  20.086  28.590  13.542
41459W        W  896  14.606   2.242   4.162
41460W        W  897   6.684  34.433   2.752
41461W        W  898   9.361  19.191  11.936
41462W        W  899  29.559  14.687  14.415
41463W        W  900  21.732  37.341  10.572
41464W        W  901   2.360  20.274  10.438
41465W        W  902  10.273  34.542  11.973
41466W        W  903  31.981   5.758   3.858
41467W        W  904  29.462  15.172   0.896
41468W        W  905  36.566  15.285  14.759
41469W        W  906  40.319  36.474  12.947
41470W        W  907  41.914  29.562  13.330
41471W        W  908  23.620  27.505   1.367
41472W        W  909  30.415  41.501   2.752
41473W        W  910  16.075  12.130   3.161
41474W        W  911  11.646  32.587  13.506
41475W        W  912  25.684  23.547   0.781
41476W        W  913  43.286  12.138   0.352
41477W        W  914  31.961  29.128   5.222
41478W        W  915  16.694  19.235   9.564
41479W        W  916  22.747  16.305   3.659
41480W        W  917  32.440  14.604   1.253
41481W        W  918  15.679  42.445  13.849
41482W        W  919  34.946  44.375   3.681
41483W        W  920  32.946  30.544  11.011
41484W        W  921  25.647  34.460   4.696
41485W        W  922  42.501  38.945   5.228
41486W        W  923  16.241  40.498   3.868
41487W        W  924  28.154  41.407   3.805
41488W        W  925  35.093  22.566   0.406
41489W        W  926  44.459  30.095   2.730
41490W        W  927   0.268   8.172  12.565
41491W        W  928  20.052   1.312   4.792
41492W        W  929  13.342  39.495  13.849
41493W        W  930  14.721  39.920  13.976
41494W        W  931  35.056  40.445   0.438
41495W        W  932  33.385  23.709   4.177
41496W        W  933  42.426  17.237  11.439
41497W        W  934  17.092   1.969  14.438
41498W        W  935  34.094   1.359  13.048
41499W        W  936  18.292  14.311  11.428
41500W        W  937  30.563  16.800   3.356
41501W        W  938   7.865  39.473   1.273
41502W        W  939  40.362   0.333  12.010
41503W        W  940  33.619   7.291  13.905
41504W        W  941  19.121  13.321   1.912
41505W        W  942  33.604  26.587   0.816
41506W        W  943  33.120  34.932  14.934
41507W        W  944   3.387  30.956   4.695
41508W        W  945   4.368   7.236  12.930
41509W        W  946  12.670  17.072  11.420
41510W        W  947  37.517   9.254   0.413
41511W        W  948  13.683  26.147  11.459
41512W        W  949  15.289   7.731  13.987
41513W        W  950  43.988  39.419  11.415
41514W        W  951  43.913  10.366   2.837
41515W        W  952  29.562  23.546   2.313
41516W        W  953  15.263  21.700   2.370
41517W        W  954   7.187  19.776  11.378
41518W        W  955  44.780  39.026  13.871
41519W        W  956  32.478  29.924   2.677
41520W        W  957  29.458  16.589   1.906
41521W        W  958   9.258  16.098   3.294
41522W        W  959   4.346  25.477   2.830
41523W        W  960   2.833  21.152   0.950
41524W        W  961   1.860   1.298  14.298
41525W        W  962  15.628   5.776  13.967
41526W        W  963  31.645  14.611  14.333
41527W        W  964   6.905  16.151  11.500
41528W        W  965   8.195  14.829  10.621
41529W        W  966  29.943  40.428   2.815
41530W        W  967   7.242  39.427  10.985
41531W        W  968   9.196  26.660   9.993
41532W        W  969  20.198  20.127  14.836
41533W        W  970  22.614  25.596   0.477
41534W        W  971  14.616  12.161  13.434
41535W        W  972  21.083   4.352   3.722
41536W        W  973  13.648   4.328  13.498
41537W        W  974  39.968  32.041  11.434
41538W        W  975   4.416  35.540  10.447
41539W        W  976   6.211   1.458   1.368
41540W        W  977  10.668  41.360   1.388
41541W        W  978   2.832   7.286   1.282
41542W        W  979  36.098  44.293   1.237
41543W        W  980   4.311  37.564  12.488
41544W        W  981  18.725  20.755  11.427
41545W        W  982  16.733   9.238   2.279
41546W        W  983  21.065  25.486   0.745
41547W        W  984  30.480  27.603   2.745
41548W        W  985   5.282   2.405   0.747
41549W        W  986  19.654  39.961  14.301
41550W        W  987   9.336  36.349   1.315
41551W        W  988   4.352  37.520  11.105
41552W        W  989  38.497  37.834  12.963
41553W        W  990  44.483  31.563  12.349
41554W        W  991  15.687   0.301   2.417
41555W        W  992  16.216   1.782   2.329
41556W        W  993  40.494  41.923   0.894
41557W        W  994   0.965  40.482  11.542
41558W        W  995   5.811  26.027   2.416
41559W        W  996  29.429   0.350   1.299
41560W        W  997  12.141  21.224  10.984
41561W        W  998  30.474  26.464   3.782
41562W        W  999  44.762  17.219  12.468
41563W        W 1000  41.359  42.523  11.436
41564W        W 1001   9.178  27.619   1.449
41565W        W 1002  32.391  24.584   4.354
41566W        W 1003  23.008  14.207  11.988
41567W        W 1004  10.159  37.381  12.038
41568W        W 1005  22.017  32.902  12.998
41569W        W 1006  30.096  28.972  11.596
41570W        W 1007  11.167   3.382   0.319
41571W        W 1008  37.579   3.347   2.258
41572W        W 1009  13.335   8.329  12.957
41573W        W 1010   0.296   5.885  13.857
41574W        W 1011   9.297  32.498  11.917
41575W        W 1012   7.763  27.110  10.634
41576W        W 1013  23.630   8.390   0.305
41577W        W 1014  37.082  23.049  12.029
41578W        W 1015  16.761  23.701   1.920
41579W        W 1016  25.599  15.287   2.257
41580W        W 1017   2.293   0.811  14.942
41581W        W 1018   9.241  12.785  14.981
41582W        W 1019  39.436  22.549  14.315
41583W        W 1020  25.561  25.483   0.268
41584W        W 1021  23.191  14.823   3.659
41585W        W 1022  14.693  28.498   1.266
41586W        W 1023  22.593  25.596  12.400
41587W        W 1024  38.022  26.066  11.372
41588W        W 1025  27.447  15.251   3.806
41589W        W 1026  33.011  27.019  10.490
41590W        W 1027  40.843  19.268  13.464
41591W        W 1028  15.656  41.514   0.856
41592W        W 1029  32.968  37.507   5.700
41593W        W 1030  44.895  16.748  11.953
41594W        W 1031  18.609  18.791   4.776
41595W        W 1032  10.764  15.647  13.848
41596W        W 1033   5.857  14.611   2.877
41597W        W 1034  10.702  37.078  12.902
41598W        W 1035  14.219   1.355  12.985
41599W        W 1036  25.169  38.395   3.266
41600W        W 1037   0.916  26.157  11.501
41601W        W 1038  22.136  27.537   0.754
41602W        W 1039  18.732  38.372   1.236
41603W        W 1040   8.343   7.670  11.058
41604W        W 1041  34.553  25.021   4.204
41605W        W 1042   0.751  42.951   1.232
41606W        W 1043  30.524   1.731  13.887
41607W        W 1044  15.788  22.160  13.357
41608W        W 1045  34.952  32.458   4.766
41609W        W 1046  39.897  13.778  13.053
41610W        W 1047  35.376  20.173  11.608
41611W        W 1048  11.263  22.188  14.436
41612W        W 1049  39.546  11.648  13.953
41613W        W 1050  38.020   9.801  10.597
41614W        W 1051  13.833  44.895  11.022
41615W        W 1052   8.769  23.031  10.976
41616W        W 1053  14.229   5.193  10.994
41617W        W 1054   8.256  23.585  12.961
41618W        W 1055  29.551  38.876   3.638
41619W        W 1056  19.681   1.866  13.519
41620W        W 1057  14.827  34.508   0.282
41621W        W 1058  33.875  11.309   3.724
41622W        W 1059   8.312  38.333   4.638
41623W        W 1060  28.044   7.775  13.516
41624W        W 1061  12.175  28.036   4.143
41625W        W 1062  38.858  23.623   3.234
41626W        W 1063  29.541  24.187   5.277
41627W        W 1064  16.218  14.116  12.913
41628W        W 1065  35.031  38.850  12.825
41629W        W 1066  24.574   6.415   2.290
41630W        W 1067  25.594   5.219   2.857
41631W        W 1068   4.261  31.014  11.391
41632W        W 1069  43.384  18.685  13.339
41633W        W 1070   6.866   7.200   4.296
41634W        W 1071  38.430  27.142   0.277
41635W        W 1072  18.272  20.242   4.159
41636W        W 1073   2.788  27.581   0.879
41637W        W 1074   4.296  16.256  14.908
41638W        W 1075   9.644  38.486   1.880
41639W        W 1076   9.330  35.972  12.473
41640W        W 1077  38.391   8.232   4.161
41641W        W 1078   2.352  14.807   2.278
41642W        W 1079  20.238  38.381   1.904
41643W        W 1080   8.406  26.001   2.827
41644W        W 1081  39.481  35.968   4.154
41645W        W 1082   9.791  25.025  11.964
41646W        W 1083  30.966   8.743  14.490
41647W        W 1084  32.136  28.491   0.359
41648W        W 1085  29.424   7.733  11.001
41649W        W 1086  19.254  31.095   1.254
41650W        W 1087  24.101   8.812  12.934
41651W        W 1088  30.422  12.702   0.408
41652W        W 1089  29.579  22.712   1.214
41653W        W 1090  10.260   5.331  13.943
41654W        W 1091  27.601  22.999  14.449
41655W        W 1092  34.417  37.582   3.321
41656W        W 1093  18.681  23.730   5.219
41657W        W 1094  29.480  21.558  10.413
41658W        W 1095   4.868  23.987  12.494
41659W        W 1096  10.838  12.847   5.201
41660W        W 1097  28.107  32.059  11.980
41661W        W 1098  44.303  21.025  12.831
41662W        W 1099  42.955  17.075  12.403
41663W        W 1100  43.928  17.601   0.883
41664W        W 1101   5.898   4.859  10.580
41665W        W 1102   1.903  29.978   1.831
41666W        W 1103  44.951  42.289  12.850
41667W        W 1104   4.253   6.344  12.344
41668W        W 1105  12.311  27.606  12.404
41669W        W 1106  19.746  23.220  13.825
41670W        W 1107  29.114  27.089   2.311
41671W        W 1108   7.210  30.019  14.349
41672W        W 1109  15.671  24.035   0.937
41673W        W 1110  14.607  17.270  14.403
41674W        W 1111   8.387  10.739   2.721
41675W        W 1112  20.676  40.942  11.984
41676W        W 1113  12.217   6.784  12.523
41677W        W 1114  11.344  38.062   4.266
41678W        W 1115  14.122  39.809   0.950
41679W        W 1116  32.431  40.540  12.063
41680W        W 1117  16.692  35.372   4.751
41681W        W 1118  31.979   6.748  11.117
41682W        W 1119  11.847  34.549   0.410
41683W        W 1120   9.885  21.222  14.792
41684W        W 1121  34.959  42.927  14.435
41685W        W 1122  42.419   1.355   1.237
41686W        W 1123  22.561  29.501   3.150
41687W        W 1124  44.916   3.376   2.409
41688W        W 1125  24.992   1.339   3.220
41689W        W 1126  17.171  33.909   0.806
41690W        W 1127  44.892  20.524  14.325
41691W        W 1128  23.613  10.275  12.894
41692W        W 1129  15.133  10.373   4.726
41693W        W 1130  43.011  39.437   2.817
41694W        W 1131  13.682  19.273  12.510
41695W        W 1132   7.392  30.933  12.558
41696W        W 1133  18.168  38.831  11.508
41697W        W 1134   5.772  44.928  13.528
41698W        W 1135  33.902  26.177   4.142
41699W        W 1136   6.227  12.625  13.370
41700W        W 1137  17.751  37.942   2.900
41701W        W 1138  13.739   0.264  13.528
41702W        W 1139   9.216  33.540  12.023
41703W        W 1140   0.868  35.536   1.700
41704W        W 1141  36.912   2.360  14.460
41705W        W 1142   3.445   0.486  14.303
41706W        W 1143  31.420   9.861  11.901
41707W        W 1144  19.238  17.087  13.348
41708W        W 1145  12.215  43.383   1.386
41709W        W 1146  14.651  11.679   4.751
41710W        W 1147  17.763  35.001   1.835
41711W        W 1148  31.996  13.234  12.370
41712W        W 1149  38.875  43.464  11.090
41713W        W 1150  36.013  19.046  14.414
41714W        W 1151   6.201  10.381  13.982
41715W        W 1152  16.575  13.633  14.928
41716W        W 1153  26.657  23.186  12.463
41717W        W 1154  33.424  40.425  13.996
41718W        W 1155   9.184  31.431   4.736
41719W        W 1156   8.739  25.650   3.338
41720W        W 1157  17.181  25.672   0.291
41721W        W 1158  25.183  37.352  11.003
41722W        W 1159  25.602  20.062   3.272
41723W        W 1160  44.794  20.176  13.018
41724W        W 1161  21.260  40.336   2.212
41725W        W 1162  36.493  19.204   0.322
41726W        W 1163  38.045   6.195  13.871
41727W        W 1164   5.236  10.380   0.302
41728W        W 1165   5.284  20.758  11.036
41729W        W 1166  17.727  19.704   0.842
41730W        W 1167  26.090  28.448   2.735
41731W        W 1168  23.198   5.345  10.454
41732W        W 1169  36.358   2.303  14.356
41733W        W 1170  13.113  12.789   0.843
41734W        W 1171   4.318   2.400   4.726
41735W        W 1172   5.405  19.709   2.388
41736W        W 1173  17.692   1.468   3.152
41737W        W 1174  16.671  33.041  13.961
41738W        W 1175  23.541  42.432   3.271
41739W        W 1176  23.209   9.238   2.794
41740W        W 1177  44.868  44.872   0.761
41741W        W 1178  18.636   3.294   0.958
41742W        W 1179   7.682  38.992   4.120
41743W        W 1180  10.152  25.061  13.058
41744W        W 1181  34.976  39.378   1.390
41745W        W 1182   5.327  38.476   0.742
41746W        W 1183  40.927  32.535  14.912
41747W        W 1184  34.575  11.722   1.397
41748W        W 1185  17.068  28.089  11.021
41749W        W 1186  14.126  25.140   4.117
41750W        W 1187  12.677  22.711   2.778
41751W        W 1188  19.060   4.409   3.866
41752W        W 1189   4.361   0.284   1.739
41753W        W 1190   1.977  14.768   2.183
41754W        W 1191  35.056  17.610   0.841
41755W        W 1192   7.401   2.287   0.795
41756W        W 1193  14.136   0.485  12.504
41757W        W 1194  19.675  40.024   4.826
41758W        W 1195  23.518  24.480   3.649
41759W        W 1196  42.898  38.013  14.495
41760W        W 1197  11.684  21.662  12.948
41761W        W 1198  42.944  39.008  12.354
41762W        W 1199  14.825   5.328  11.412
41763W        W 1200   0.776  10.214  11.917
41764W        W 1201  36.480   7.814   4.168
41765W        W 1202  19.775   2.460   0.248
41766W        W 1203  18.599   7.316   4.259
41767W        W 1204  30.082   3.388   2.245
41768W        W 1205  33.124   0.832  12.870
41769W        W 1206  43.953  30.009   2.308
41770W        W 1207   7.251  38.491   1.815
41771W        W 1208  22.600  30.506  14.393
41772W        W 1209  14.111  36.544  13.924
41773W        W 1210  23.695  15.639  11.376
41774W        W 1211  34.871  31.508   1.269
41775W        W 1212  18.071  22.109   0.470
41776W        W 1213  42.520   7.182  11.466
41777W        W 1214  30.524  28.976  12.989
41778W        W 1215  37.339   9.210  11.515
41779W        W 1216  19.160   2.933   3.779
41780W        W 1217   9.370  21.560   2.888
41781W        W 1218  34.038  42.343  12.903
41782W        W 1219  27.686  25.088  13.870
41783W        W 1220  40.001  16.599   1.840
41784W        W 1221  18.558  27.038  11.480
41785W        W 1222  36.910  11.162   3.172
41786W        W 1223  10.827  30.025   0.905
41787W        W 1224  21.057  11.773  11.893
41788W        W 1225  25.476  38.413   2.330
41789W        W 1226  18.552  23.609  12.056
41790W        W 1227  43.290   4.721  11.094
41791W        W 1228   7.410  25.166   1.930
41792W        W 1229   2.769  14.636   1.286
41793W        W 1230  36.347  39.322  14.427
41794W        W 1231  13.113  37.580   2.272
41795W        W 1232  30.961   7.715  13.839
41796W        W 1233  17.566  38.025   3.164
41797W        W 1234  23.001  32.107  12.882
41798W        W 1235  43.420   7.698  12.434
41799W        W 1236  42.299  11.354   3.295
41800W        W 1237   0.372  18.179   4.697
41801W        W 1238  43.784  30.476  13.455
41802W        W 1239  22.723  30.075   3.712
41803W        W 1240  23.585  20.710  11.969
41804W        W 1241  29.166  21.109   1.298
41805W        W 1242   7.303  22.100  10.509
41806W        W 1243  25.671  18.631   0.964
41807W        W 1244   4.351  18.698   0.373
41808W        W 1245  13.345   3.279   3.649
41809W        W 1246  30.946  15.191   0.878
41810W        W 1247   9.871  23.005   4.685
41811W        W 1248  18.656  28.144   5.132
41812W        W 1249  16.139   2.878   0.285
41813W        W 1250  38.996  33.478  12.824
41814W        W 1251  22.744  29.434   5.173
41815W        W 1252  27.156  15.154  12.050
41816W        W 1253  16.290  28.512  12.978
41817W        W 1254   8.724   2.849   0.896
41818W        W 1255   3.917  29.665  14.764
41819W        W 1256  23.173  31.621  14.391
41820W        W 1257   0.446   6.921  13.312
41821W        W 1258  19.709  20.764  14.945
41822W        W 1259  21.732  44.958   1.227
41823W        W 1260  41.453   3.341  12.037
41824W        W 1261   6.772  33.595  11.479
41825W        W 1262  40.362  41.421   5.091
41826W        W 1263  20.607  15.671   2.822
41827W        W 1264  35.430  19.671  11.963
41828W        W 1265  26.486  41.851  13.458
41829W        W 1266   8.868  18.253  12.489
41830W        W 1267  11.285  41.945  13.475
41831W        W 1268  44.455   3.940  13.548
41832W        W 1269  39.348  29.662   3.860
41833W        W 1270  20.525  26.095  13.859
41834W        W 1271  23.730   1.480   0.939
41835W        W 1272  25.547  13.837  11.881
41836W        W 1273  21.038   2.770   1.383
41837W        W 1274  37.955  10.862   2.311
41838W        W 1275  33.508   3.907   3.769
41839W        W 1276  23.029  40.468   3.662
41840W        W 1277  23.499  25.636  12.365
41841W        W 1278  16.075   0.381   1.910
41842W        W 1279  10.653  44.355   1.346
41843W        W 1280  35.972  35.370   3.775
41844W        W 1281  37.067  18.290  13.361
41845W        W 1282  19.278  20.703   0.466
41846W        W 1283  21.227  14.127   0.407
41847W        W 1284  39.551  24.659   3.852
41848W        W 1285  17.582  34.482  12.865
41849W        W 1286   3.945   7.783  13.461
41850W        W 1287   3.713  15.260   3.812
41851W        W 1288  37.869  30.578   1.225
41852W        W 1289  27.186  24.062  11.951
41853W        W 1290  16.072  16.676   3.831
41854W        W 1291   9.213  25.619  12.987
41855W        W 1292   9.752  43.804  14.383
41856W        W 1293  36.393  11.226  11.532
41857W        W 1294  29.513  32.076   0.867
41858W        W 1295  27.010  14.787  13.816
41859W        W 1296  43.833  39.534   2.265
41860W        W 1297  38.379   8.768  13.536
41861W        W 1298   8.368  22.554  13.813
41862W        W 1299  41.845  25.555  11.051
41863W        W 1300  34.560  19.155   4.259
41864W        W 1301  23.511  44.997  13.477
41865W        W 1302  39.352   7.755  14.344
41866W        W 1303   5.933   3.388   0.413
41867W        W 1304  28.959  10.867   1.419
41868W        W 1305   7.183  26.614  14.496
41869W        W 1306   6.389  29.631   3.658
41870W        W 1307   0.778   1.961  13.910
41871W        W 1308  44.884  36.558   1.806
41872W        W 1309  19.131  42.486  12.056
41873W        W 1310  19.203  40.416  12.008
41874W        W 1311  40.992   2.283   0.775
41875W        W 1312  40.812  33.583  14.780
41876W        W 1313  32.518  22.742  13.053
41877W        W 1314  22.519   7.769   1.440
41878W        W 1315  15.264  19.085   0.424
41879W        W 1316  41.465  29.523  13.993
41880W        W 1317  21.632   3.337   3.315
41881W        W 1318  42.815  38.437   1.815
41882W        W 1319  31.513  19.245  14.878
41883W        W 1320  14.277  32.520  11.071
41884W        W 1321  19.248   3.931   2.842
41885W        W 1322  17.098  32.044   1.444
41886W        W 1323  22.741  30.495  10.015
41887W        W 1324   9.717  25.068   0.947
41888W        W 1325  25.682  33.471   3.252
41889W        W 1326  18.694  13.801   1.797
41890W        W 1327  22.128  26.486  13.343
41891W        W 1328  26.150  39.477  10.555
41892W        W 1329   4.371  14.650  14.466
41893W        W 1330   0.349  33.970  12.580
41894W        W 1331  43.982   0.477   1.380
41895W        W 1332  14.752  32.983   3.644
41896W        W 1333  15.721  19.699   4.122
41897W        W 1334  42.851  25.513  11.410
41898W        W 1335  19.216  26.487  14.277
41899W        W 1336   8.296  18.693   3.191
41900W        W 1337  15.097  30.546   0.749
41901W        W 1338  18.248  23.196  11.428
41902W        W 1339  35.941  41.890  14.811
41903W        W 1340  43.497  25.473   4.713
41904W        W 1341  22.587  41.302  13.459
41905W        W 1342  39.849  30.075   3.292
41906W        W 1343  31.624   0.920   3.714
41907W        W 1344  31.479  38.431   2.750
41908W        W 1345  16.264  31.541  11.001
41909W        W 1346  23.063   6.224   3.151
41910W        W 1347  13.339  40.505  12.923
41911W        W 1348  29.042  35.967  11.377
41912W        W 1349   4.427   7.338   2.346
41913W        W 1350   0.948  10.757  13.473
41914W        W 1351  32.523  32.394  14.288
41915W        W 1352  14.100  27.059   4.747
41916W        W 1353  41.460  28.612  12.383
41917W        W 1354  26.026   2.393  10.472
41918W        W 1355  33.392   8.312  11.930
41919W        W 1356   4.267  17.276   3.194
41920W        W 1357  32.130  27.097   2.360
41921W        W 1358  17.760  11.642  12.828
41922W        W 1359  11.222  44.967  10.972
41923W        W 1360  14.703   1.283  11.506
41924W        W 1361  34.056   8.190   0.449
41925W        W 1362   4.770  33.984   3.371
41926W        W 1363  30.989   1.763  10.548
41927W        W 1364  15.155  38.446  13.900
41928W        W 1365   8.289  41.514   1.392
41929W        W 1366  39.342  23.023   0.805
41930W        W 1367   6.278  31.122  13.509
41931W        W 1368   5.215  14.772  11.588
41932W        W 1369   3.825  12.756   3.675
41933W        W 1370  35.025   1.437  13.410
41934W        W 1371  25.635  18.180  13.517
41935W        W 1372  28.013   1.876   0.760
41936W        W 1373  24.158   9.734   4.213
41937W        W 1374  29.947  44.974   3.202
41938W        W 1375   4.906  22.189   9.934
41939W        W 1376  26.595  43.365   3.349
41940W        W 1377  15.776  34.102   1.419
41941W        W 1378  27.037   8.393  12.965
41942W        W 1379  37.060  29.973  12.357
41943W        W 1380   7.402  41.453  10.627
41944W        W 1381  29.974   5.861   1.771
41945W        W 1382  19.188  13.641  14.823
41946W        W 1383  26.199  12.188   3.239
41947W        W 1384  43.769   6.749  14.461
41948W        W 1385  26.178   9.350  12.415
41949W        W 1386   7.382  18.696  11.861
41950W        W 1387  41.337  21.742   3.154
41951W        W 1388  43.309  38.926   2.822
41952W        W 1389  14.126   5.889   2.811
41953W        W 1390  10.180  20.050   1.420
41954W        W 1391   1.333  15.233  11.938
41955W        W 1392   9.814  30.120   0.751
41956W        W 1393   4.359  11.193  10.607
41957W        W 1394  15.321  14.317   1.720
41958W        W 1395  16.188   6.773  14.435
41959W        W 1396  39.954  36.380  12.562
41960W        W 1397  39.064  34.514  10.897
41961W        W 1398  39.439  13.652  12.002
41962W        W 1399  21.146  22.709   2.259
41963W        W 1400  20.189  32.419  13.888
41964W        W 1401  41.341  40.010   2.705
41965W        W 1402  19.561  11.293   3.764
41966W        W 1403  31.961  44.923   4.692
41967W        W 1404  15.288  36.393  11.884
41968W        W 1405  41.447   1.253  10.462
41969W        W 1406  18.748  39.332  11.920
41970W        W 1407   6.325   0.355  13.882
41971W        W 1408  14.638  10.227   4.198
41972W        W 1409   0.891  35.883   4.125
41973W        W 1410  22.168  38.850  14.871
41974W        W 1411   1.947  25.974   9.493
41975W        W 1412   2.953  13.252   2.721
41976W        W 1413  20.094  23.704   0.407
41977W        W 1414  39.891  40.369  11.957
41978W        W 1415  37.350  16.722  14.369
41979W        W 1416  33.431   0.262   0.369
41980W        W 1417  22.539  11.864   0.343
41981W        W 1418  42.477  34.984   1.863
41982W        W 1419  28.975  36.385   1.398
41983W        W 1420   1.890  20.068  12.843
41984W        W 1421  41.413  23.999   0.456
41985W        W 1422  21.596  26.465  10.617
41986W        W 1423   3.430  27.954  12.361
41987W        W 1424  30.089  11.715   2.811
41988W        W 1425  40.971  10.167  11.952
41989W        W 1426  28.514  27.569   2.800
41990W        W 1427  29.474  38.553  13.332
41991W        W 1428  34.900  11.745  14.813
41992W        W 1429  20.682  29.599   4.282
41993W        W 1430   2.395  36.428   3.689
41994W        W 1431   5.401  24.166  10.631
41995W        W 1432  13.717  39.879  11.874
41996W        W 1433   9.215   9.666   0.282
41997W        W 1434  26.188  25.159   1.882
41998W        W 1435   6.291  20.666   0.775
41999W        W 1436  42.802  22.218  10.484
42000W        W 1437  36.034  26.982   2.863
42001W        W 1438  33.476  19.049  13.943
42002W        W 1439  28.038  29.999   0.963
42003W        W 1440  21.638   4.748  12.005
42004W        W 1441   1.962  44.807  10.593
42005W        W 1442   1.961  31.929   1.272
42006W        W 1443  10.659   5.432   3.787
42007W        W 1444  32.471  29.115   2.751
42008W        W 1445  44.941  42.326   3.224
42009W        W 1446  23.697  39.967  11.077
42010W        W 1447  27.975   4.774   4.781
42011W        W 1448  13.177  13.183  14.870
42012W        W 1449  24.088  41.831   3.822
42013W        W 1450  14.318   7.270  12.996
42014W        W 1451  34.098  35.942   0.877
42015W        W 1452  14.212  20.704  12.400
42016W        W 1453  23.644  19.070   4.642
42017W        W 1454  39.989  23.582   2.814
42018W        W 1455  20.609  27.117  12.559
42019W        W 1456  27.013  13.678  12.384
42020W        W 1457  18.141  18.606  14.950
42021W        W 1458   8.766  21.620  12.843
42022W        W 1459   1.736   5.769   4.638
42023W        W 1460   9.702  18.140  11.402
42024W        W 1461  38.370  20.134   0.923
42025W        W 1462  38.035   4.931  13.387
42026W        W 1463   8.802  10.827  11.054
42027W        W 1464  34.492  35.868   2.345
42028W        W 1465  34.431  10.843  10.480
42029W        W 1466  29.456   4.365   4.656
42030W        W 1467  22.063  18.717  12.000
42031W        W 1468  27.995  37.045  11.914
42032W        W 1469   3.790  16.700  10.975
42033W        W 1470  25.469  11.833  12.902
42034W        W 1471  42.829   0.951  11.608
42035W        W 1472  40.919  10.296   1.256
42036W        W 1473   1.317  32.450  14.439
42037W        W 1474   7.687   0.905   4.304
42038W        W 1475  15.308  20.046   2.868
42039W        W 1476  44.933  31.038  14.767
42040W        W 1477  23.606  39.543  14.935
42041W        W 1478  40.820  35.092   1.933
42042W        W 1479  12.629  22.208   4.632
42043W        W 1480  11.238   5.264  14.318
42044W        W 1481   7.793  35.852   4.647
42045W        W 1482   4.740  28.978   1.372
42046W        W 1483  34.415   2.734   0.939
42047W        W 1484  13.235   0.766  13.955
42048W        W 1485  19.660   5.888  14.771
42049W        W 1486  27.463  21.040  14.320
42050W        W 1487  18.608  14.800  11.988
42051W        W 1488  38.982  10.730   2.294
42052W        W 1489   9.652  34.082  11.872
42053W        W 1490  23.196  27.018  12.079
42054W        W 1491  15.092  41.014  10.594
42055W        W 1492   6.798  15.782  11.001
42056W        W 1493  33.954  31.899  10.639
42057W        W 1494  14.308   3.852   1.707
42058W        W 1495   9.655  18.121   0.372
42059W        W 1496  11.282  44.957   4.237
42060W        W 1497  41.006   1.850   2.689
42061W        W 1498   0.773  13.205   2.709
42062W        W 1499  29.631  33.521   1.712
42063W        W 1500  42.389   3.845  14.910
42064W        W 1501  23.991  25.136  13.046
42065W        W 1502   4.792  30.930   4.762
42066W        W 1503  37.921   9.659  11.558
42067W        W 1504  17.117  34.869   4.621
42068W        W 1505  15.602  20.715  11.512
42069W        W 1506  43.476  33.402  13.394
42070W        W 1507  24.145  30.037  14.806
42071W        W 1508   8.209  36.365   4.838
42072W        W 1509  37.016   8.186   1.912
42073W        W 1510  24.039  17.237   3.641
42074W        W 1511  33.380  14.766  11.888
42075W        W 1512  19.173  22.188   2.336
42076W        W 1513  42.295  44.261  12.025
42077W        W 1514  20.577  16.771  12.404
42078W        W 1515  41.819   1.430  12.951
42079W        W 1516  14.784   1.447  13.987
42080W        W 1517  41.037   2.372  10.407
42081W        W 1518  19.729  12.753   0.828
42082W        W 1519  33.937  25.100  10.079
42083W        W 1520  33.598   4.873  12.055
42084W        W 1521  41.840  16.146   2.387
42085W        W 1522   9.322  16.572  14.847
42086W        W 1523   3.939  40.814  11.470
42087W        W 1524  16.778  21.043  13.061
42088W        W 1525  40.870  13.771  14.988
42089W        W 1526  14.778   6.801  10.509
42090W        W 1527  39.519   1.870   2.680
42091W        W 1528  34.410  22.525   2.215
42092W        W 1529  18.757   5.893   4.599
42093W        W 1530  25.473  36.491  12.999
42094W        W 1531   7.893  32.473   4.684
42095W        W 1532  32.598   0.287  14.971
42096W        W 1533  40.870  13.226   2.669
42097W        W 1534  23.001  16.742   4.342
42098W        W 1535   6.265   0.468   2.821
42099W        W 1536  10.754  33.071  12.042
42100W        W 1537  13.683  15.280  11.438
42101W        W 1538   7.384   1.277   4.205
42102W        W 1539  26.620  24.207  13.452
42103W        W 1540  31.618  34.517   2.724
42104W        W 1541  38.911  30.414   4.806
42105W        W 1542  19.702  22.634  12.932
42106W        W 1543  33.576  40.991   1.902
42107W        W 1544  22.651  23.500  12.861
42108W        W 1545  15.286  40.338   3.668
42109W        W 1546  24.667  14.169   3.273
42110W        W 1547  35.419  28.993   0.907
42111W        W 1548  31.568   1.356  11.022
42112W        W 1549  21.631  43.865   4.670
42113W        W 1550  13.676  20.618  12.568
42114W        W 1551  39.428   8.286   3.738
42115W        W 1552  20.555  43.400   3.821
42116W        W 1553  32.140  22.596   1.315
42117W        W 1554  22.021  39.395   1.274
42118W        W 1555  39.963  34.546  13.945
42119W        W 1556  11.718   2.835  13.935
42120W        W 1557  31.912  18.230  12.906
42121W        W 1558  39.494  21.249  11.999
42122W        W 1559  24.197  44.309  14.306
42123W        W 1560  38.819  19.110  12.430
42124W        W 1561   0.939  17.616  10.413
42125W        W 1562  29.955  44.978   0.421
42126W        W 1563   5.830   0.958   4.832
42127W        W 1564  17.621  13.247   1.313
42128W        W 1565   9.394  39.547   0.451
42129W        W 1566   7.267  18.064  14.362
42130W        W 1567  13.615  13.318   2.676
42131W        W 1568  17.643   3.799   2.711
42132W        W 1569  31.572   3.818   1.916
42133W        W 1570   0.883  24.973  14.953
42134W        W 1571   0.492  28.635  10.915
42135W        W 1572  27.596  32.533  13.359
42136W        W 1573  31.413   3.335  13.344
42137W        W 1574  34.937   6.734  11.891
42138W        W 1575  40.797  35.420  13.537
42139W        W 1576  12.145   9.825  11.446
42140W        W 1577   5.808   1.947   4.709
42141W        W 1578  11.741  44.479  14.408
42142W        W 1579  34.052  12.355  12.051
42143W        W 1580  20.757  17.688   2.673
42144W        W 1581  19.643   5.436   4.611
42145W        W 1582  17.758  37.380   0.432
42146W        W 1583   0.951  35.099   4.267
42147W        W 1584  25.220   6.717  14.379
42148W        W 1585  39.889  19.051  11.975
42149W        W 1586   3.307  44.865  14.880
42150W        W 1587  33.880  17.564  11.569
42151W        W 1588   9.219   9.284  13.368
42152W        W 1589   5.800  10.356  11.085
42153W        W 1590   0.326  38.422   2.765
42154W        W 1591  15.117  19.611   4.687
42155W        W 1592   0.468  11.748   0.317
42156W        W 1593  27.968  32.077  13.386
42157W        W 1594  14.740  33.577  14.458
42158W        W 1595  22.665  17.729  10.599
42159W        W 1596  28.001  23.991  10.598
42160W        W 1597  34.444  20.749  12.006
42161W        W 1598   4.419  34.498   2.673
42162W        W 1599  29.557  27.598  13.369
42163W        W 1600  19.118   8.683   0.282
42164W        W 1601  40.964  29.564   4.834
42165W        W 1602  35.569  25.973  12.947
42166W        W 1603   2.299  10.346  10.154
42167W        W 1604  15.109  24.167  14.893
42168W        W 1605  24.206  12.137   2.322
42169W        W 1606  11.292   0.898   2.350
42170W        W 1607  15.728   8.682   5.272
42171W        W 1608  19.127  29.934   2.344
42172W        W 1609   8.894  20.033   2.739
42173W        W 1610   4.736  32.403  13.422
42174W        W 1611  10.340   5.930  13.003
42175W        W 1612  29.996  16.135  14.862
42176W        W 1613  14.835  23.226  11.895
42177W        W 1614  16.253  18.077   3.665
42178W        W 1615  42.997  14.094   0.264
42179W        W 1616  38.394   9.193   4.180
42180W        W 1617  27.537  42.933   3.680
42181W        W 1618   1.277  15.191   0.798
42182W        W 1619   3.866  42.407   0.386
42183W        W 1620  39.441  25.080   4.168
42184W        W 1621   3.835   8.768   2.685
42185W        W 1622  15.201  37.918  10.889
42186W        W 1623  19.057  44.985   4.729
42187W        W 1624   1.424   7.667  13.037
42188W        W 1625  44.989  24.206   2.698
42189W        W 1626  42.835  44.900   1.862
42190W        W 1627  37.966   9.793   0.285
42191W        W 1628  24.566  14.732   2.352
42192W        W 1629   5.412  18.092   3.776
42193W        W 1630  32.935   4.392  10.418
42194W        W 1631  42.472  30.034  11.562
42195W        W 1632   7.880  29.931  14.465
42196W        W 1633  23.003   2.406   2.292
42197W        W 1634  22.081  19.665   0.922
42198W        W 1635  36.053  17.215  11.909
42199W        W 1636  17.281  38.871   2.791
42200W        W 1637  11.860   2.256  11.879
42201W        W 1638  42.822  44.264  11.914
42202W        W 1639  20.688   3.736   3.838
42203W        W 1640  17.699  11.808   2.735
42204W        W 1641  22.668  11.373  10.100
42205W        W 1642   1.860  20.556  11.424
42206W        W 1643  31.903   4.253   3.303
42207W        W 1644  38.834   6.764  13.435
42208W        W 1645  21.655   6.227   2.285
42209W        W 1646   1.367  19.667   1.932
42210W        W 1647  39.445   2.323  11.381
42211W        W 1648  11.321  10.198   0.458
42212W        W 1649  42.905  33.405  12.558
42213W        W 1650  14.682  41.986   3.645
42214W        W 1651  37.530   0.790   0.454
42215W        W 1652  18.151  27.183   3.836
42216W        W 1653  31.965  30.599   2.793
42217W        W 1654  38.489  37.382   2.842
42218W        W 1655   6.863  29.430  12.866
42219W        W 1656   1.878   0.382  13.998
42220W        W 1657  34.389   3.745  13.458
42221W        W 1658  31.449   7.313  12.392
42222W        W 1659  36.915  40.996  11.999
42223W        W 1660  38.524  15.783   4.334
42224W        W 1661   7.325  37.983   0.796
42225W        W 1662  27.062  41.481  13.895
42226W        W 1663  40.896  29.505   3.807
42227W        W 1664  38.488  13.729   2.721
42228W        W 1665  28.631  30.111  11.502
42229W        W 1666  33.110  23.086  13.463
42230W        W 1667  14.184   5.697  14.427
42231W        W 1668  20.182   2.348   4.641
42232W        W 1669  16.270  37.406   0.785
42233W        W 1670  23.639  27.573   4.756
42234W        W 1671  24.040  37.510   2.196
42235W        W 1672  35.528  43.785  10.605
42236W        W 1673  29.994  31.583   3.796
42237W        W 1674   4.369  16.131   5.108
42238W        W 1675  15.310  15.213  11.970
42239W        W 1676   6.346  27.515  11.976
42240W        W 1677   3.244  24.215   1.315
42241W        W 1678  23.159  26.695   4.836
42242W        W 1679  10.741  33.564  12.504
42243W        W 1680  29.005  22.206  13.007
42244W        W 1681  22.686  42.378   4.656
42245W        W 1682  15.644  27.662  13.018
42246W        W 1683  27.610  25.611  12.933
42247W        W 1684   7.882  42.487   2.802
42248W        W 1685  41.508  19.206   1.287
42249W        W 1686   2.371  39.998  10.504
42250W        W 1687   1.465  40.816   3.223
42251W        W 1688  30.964   3.845  12.448
42252W        W 1689  40.530  35.492  11.478
42253W        W 1690  31.149   0.260   4.705
42254W        W 1691  43.510  19.219   4.288
42255W        W 1692  15.592  22.594  12.578
42256W        W 1693   3.377   0.277   2.402
42257W        W 1694  38.940  38.463  10.515
42258W        W 1695  16.573  39.997  14.856
42259W        W 1696  29.965  36.584  13.345
42260W        W 1697  39.927  42.295  11.937
42261W        W 1698  37.524  16.160   2.328
42262W        W 1699   5.928  37.038  11.529
42263W        W 1700   5.406  12.162   1.445
42264W        W 1701   9.884  26.653   4.211
42265W        W 1702  13.332  26.616   2.361
42266W        W 1703  30.928  14.248   9.932
42267W        W 1704  35.535  28.502   0.374
42268W        W 1705  44.483  41.891  12.393
42269W        W 1706   9.763  24.699  13.929
42270W        W 1707   1.933  17.208  14.296
42271W        W 1708   8.189  35.958  11.911
42272W        W 1709  31.963  37.026  12.996
42273W        W 1710   0.282  26.562   1.774
42274W        W 1711  30.068   7.416  11.102
42275W        W 1712  43.464  21.753  13.527
42276W        W 1713  10.300  23.723   2.799
42277W        W 1714  29.130   7.746   4.333
42278W        W 1715  36.001  38.410   3.156
42279W        W 1716  37.038  23.093   4.700
42280W        W 1717   1.338  25.500   3.243
42281W        W 1718  34.956  35.545   1.694
42282W        W 1719  41.946  22.541   0.312
42283W        W 1720  18.232  43.821  12.997
42284W        W 1721  10.813  30.928   2.329
42285W        W 1722  39.553  31.568  14.841
42286W        W 1723  10.806  27.446   0.314
42287W        W 1724  29.098  44.821   0.479
42288W        W 1725  41.389  15.783   3.641
42289W        W 1726  43.896  23.013  14.504
42290W        W 1727  11.297  38.493   0.438
42291W        W 1728  18.093  37.363  12.035
42292W        W 1729  33.943  16.729  11.919
42293W        W 1730  20.241   1.951  11.004
42294W        W 1731  37.076  10.323   4.170
42295W        W 1732  16.187   5.719  14.962
42296W        W 1733  43.013  44.481  13.823
42297W        W 1734  43.960  19.726   4.269
42298W        W 1735   7.807  10.292   0.389
42299W        W 1736  44.266  10.267   4.238
42300W        W 1737   6.791  39.851   4.224
42301W        W 1738  43.439   9.675   4.171
42302W        W 1739   6.379  19.696   5.120
42303W        W 1740   6.688  21.209   3.171
42304W        W 1741  13.164  10.769   1.254
42305W        W 1742   9.787  39.473   4.655
42306W        W 1743  42.328  35.481  12.567
42307W        W 1744  11.239  16.211   1.913
42308W        W 1745  33.891  12.679  13.001
42309W        W 1746   2.415   1.307   0.340
42310W        W 1747  26.558  35.068  14.439
42311W        W 1748  44.261  11.207  11.565
42312W        W 1749   7.872  30.591   1.747
42313W        W 1750   2.880  31.541  11.450
42314W        W 1751  23.015  41.405   0.254
42315W        W 1752   1.444  14.311   2.691
42316W        W 1753  37.372   4.920   2.195
42317W        W 1754  28.527  41.466  13.891
42318W        W 1755   6.832  11.823   3.818
42319W        W 1756  31.150  19.211   4.313
42320W        W 1757  41.865  32.894   2.396
42321W        W 1758   1.968  13.823   3.379
42322W        W 1759  29.155  18.190  14.306
42323W        W 1760   7.373  43.314   4.256
42324W        W 1761  14.192  29.529  13.921
42325W        W 1762   9.857  35.496  14.343
42326W        W 1763  21.595   6.225   2.837
42327W        W 1764   6.707   2.384  12.955
42328W        W 1765  24.220  24.626  11.553
42329W        W 1766   5.809  42.501  12.998
42330W        W 1767  44.002  32.518   2.818
42331W        W 1768  37.087  43.849  14.999
42332W        W 1769  22.520   9.302  11.039
42333W        W 1770  10.144   1.859   3.720
42334W        W 1771  14.239  32.888  13.315
42335W        W 1772  15.329  34.476   4.749
42336W        W 1773  22.042  42.920   2.716
42337W        W 1774  32.027  40.955   4.718
42338W        W 1775  43.360   3.818  14.391
42339W        W 1776  33.476   2.376  14.330
42340W        W 1777  35.601  31.635   1.251
42341W        W 1778  35.486  34.433  12.024
42342W        W 1779  36.055  37.349   0.861
42343W        W 1780  13.780  23.705   1.779
42344W        W 1781  31.988  28.523   4.828
42345W        W 1782  15.282  27.682   3.199
42346W        W 1783  38.553  27.068  12.450
42347W        W 1784  22.633  32.592   3.155
42348W        W 1785   5.324   5.398  14.833
42349W        W 1786  23.191  15.170  12.569
42350W        W 1787  18.255  42.365   3.765
42351W        W 1788  19.642  10.150  14.308
42352W        W 1789   8.729   2.347   0.473
42353W        W 1790   2.804  33.926   2.217
42354W        W 1791  27.959  13.247  12.512
42355W        W 1792  42.924  40.993  12.378
42356W        W 1793  26.014  32.142   4.161
42357W        W 1794   8.783  19.218  10.526
42358W        W 1795   3.276  23.143   0.360
42359W        W 1796   3.405  27.106   0.442
42360W        W 1797  22.714  42.861   2.871
42361W        W 1798  27.588  11.168  11.462
42362W        W 1799  15.720  16.143   4.805
42363W        W 1800   4.848  16.759  10.622
42364W        W 1801  28.087   6.792  14.429
42365W        W 1802   7.795  19.042  10.499
42366W        W 1803  33.406  40.025  11.893
42367W        W 1804  23.126  26.506   0.759
42368W        W 1805  32.096  22.066  11.911
42369W        W 1806  26.666   7.668   0.291
42370W        W 1807  33.490  36.932  11.053
42371W        W 1808  43.482  25.511  14.505
42372W        W 1809  39.948  44.828   4.650
42373W        W 1810  36.966  22.711  10.920
42374W        W 1811  25.567  30.627   4.688
42375W        W 1812  25.219  14.833   0.852
42376W        W 1813  11.268  37.413   3.857
42377W        W 1814  38.501  20.552  14.815
42378W        W 1815  26.203   9.703   2.247
42379W        W 1816   1.463  15.201  12.344
42380W        W 1817  33.962   3.798   3.300
42381W        W 1818   6.311  31.993  10.037
42382W        W 1819  35.401  34.529  12.507
42383W        W 1820   2.294   6.769  11.869
42384W        W 1821  19.198  29.147  14.798
42385W        W 1822  13.692   4.306   0.329
42386W        W 1823  33.987   8.766   0.255
42387W        W 1824   4.850  17.718   3.770
42388W        W 1825   6.911  29.995  14.305
42389W        W 1826  34.985  38.021  14.805
42390W        W 1827  26.009  37.523   3.870
42391W        W 1828  11.798  20.576  10.913
42392W        W 1829   6.301   3.219  11.411
42393W        W 1830  32.080  34.417   2.368
42394W        W 1831  35.530  30.567   4.794
42395W        W 1832  25.110  35.955   0.962
42396W        W 1833  26.660  27.991  12.060
42397W        W 1834  35.976  41.419  12.092
42398W        W 1835  41.403  25.076   2.835
42399W        W 1836  38.000  22.644   3.193
42400W        W 1837  18.280  10.318   0.963
42401W        W 1838   6.756  25.050   2.837
42402W        W 1839  20.173  28.512  13.825
42403W        W 1840  24.100  10.215  11.891
42404W        W 1841  35.076  35.507   0.361
42405W        W 1842  35.563   1.322   1.269
42406W        W 1843  12.278  18.601   1.235
42407W        W 1844   3.845  42.456   4.628
42408W        W 1845   6.325  44.498   4.816
42409W        W 1846   0.270  28.020   4.643
42410W        W 1847  17.114  40.007   1.250
42411W        W 1848  17.588  12.760   1.449
42412W        W 1849  39.370  10.365   3.187
42413W        W 1850   9.394   5.348  12.408
42414W        W 1851  27.655  18.719   3.258
42415W        W 1852  18.282  22.152   3.742
42416W        W 1853  15.737  17.744   1.697
42417W        W 1854  11.326   6.361   3.351
42418W        W 1855  13.279  10.757  10.577
42419W        W 1856  23.984   3.876   0.273
42420W        W 1857  13.287  31.520  11.875
42421W        W 1858   8.405  11.176   3.180
42422W        W 1859  22.518  11.202  11.538
42423W        W 1860  23.083  37.457  11.941
42424W        W 1861   5.721  21.070   3.762
42425W        W 1862  17.656  17.091  13.054
42426W        W 1863  16.621  27.539   4.182
42427W        W 1864  37.839  27.661   2.662
42428W        W 1865  23.010  14.806   2.750
42429W        W 1866  19.273   7.747  10.898
42430W        W 1867  31.437  16.701   2.853
42431W        W 1868  37.489  10.169  12.987
42432W        W 1869  15.297   1.884  14.891
42433W        W 1870  27.126  22.227   1.403
42434W        W 1871  26.547  15.149  12.879
42435W        W 1872  21.685   2.860   3.182
42436W        W 1873  18.051  40.944   1.241
42437W        W 1874   2.960   4.231  12.972
42438W        W 1875   3.354  31.016  13.900
42439W        W 1876  18.173  43.791   1.368
42440W        W 1877   9.214  16.616  10.434
42441W        W 1878  27.630  17.270   3.351
42442W        W 1879  34.482   6.731   2.415
42443W        W 1880  17.142   8.248   1.401
42444W        W 1881   2.763  29.454  14.368
42445W        W 1882  41.873  29.488   0.408
42446W        W 1883  30.025  43.932  12.956
42447W        W 1884  29.930  25.575   2.732
42448W        W 1885  17.139  27.051  14.406
42449W        W 1886   8.792  19.244   0.756
42450W        W 1887  18.275  24.164  11.481
42451W        W 1888   3.732  32.043  13.308
42452W        W 1889  25.549  13.214   2.385
42453W        W 1890  30.919  33.492  11.094
42454W        W 1891  21.024  10.369   5.219
42455W        W 1892  42.856  38.967   2.376
42456W        W 1893   3.802  26.073  11.405
42457W        W 1894  19.617   9.834  13.392
42458W        W 1895  36.371   1.279   3.644
42459W        W 1896  11.825  39.864   0.868
42460W        W 1897   2.234   5.299  12.941
42461W        W 1898  43.856  34.436   1.317
42462W        W 1899  20.206   7.856  14.357
42463W        W 1900  44.327  27.957   0.454
42464W        W 1901  22.573   3.745   3.851
42465W        W 1902  19.210  14.238   2.674
42466W        W 1903  17.221  12.322   1.915
42467W        W 1904  17.784  19.554   3.170
42468W        W 1905  36.482  10.809   1.850
42469W        W 1906  13.150  13.164   3.811
42470W        W 1907  27.109  14.830   3.824
42471W        W 1908  25.559  34.072   1.895
42472W        W 1909   4.295  20.272  13.539
42473W        W 1910  31.439  25.019   0.326
42474W        W 1911  19.153  22.205   4.761
42475W        W 1912  37.417  22.554  13.542
42476W        W 1913  27.106  20.578   2.886
42477W        W 1914  16.180  35.956   3.799
42478W        W 1915  21.115  13.705  11.509
42479W        W 1916  25.060  29.930  14.918
42480W        W 1917  15.759  19.268   2.836
42481W        W 1918  36.556  39.346  12.923
42482W        W 1919   5.289  31.447   0.451
42483W        W 1920   0.962  43.480   4.619
42484W        W 1921  24.054  24.975  14.485
42485W        W 1922  44.318  15.728  12.417
42486W        W 1923  11.659  23.167  11.468
42487W        W 1924  37.955  34.397   1.716
42488W        W 1925   7.378  16.252   4.168
42489W        W 1926  25.662  30.132   4.185
42490W        W 1927  39.033  10.813   9.953
42491W        W 1928  28.104  14.722   4.798
42492W        W 1929  15.141  20.687  13.416
42493W        W 1930  38.905  44.321   0.357
42494W        W 1931   4.357   4.347   3.201
42495W        W 1932  15.800  31.578   0.888
42496W        W 1933  13.802  29.535  14.478
42497W        W 1934  39.818  43.279  11.862
42498W        W 1935  26.563   1.804   2.326
42499W        W 1936   3.389  36.582  13.052
42500W        W 1937   1.915  43.831  13.362
42501W        W 1938   5.844  28.082  12.907
42502W        W 1939  27.980  43.864  14.883
42503W        W 1940  43.909  35.001   3.296
42504W        W 1941  14.151  27.476  10.499
42505W        W 1942   1.427   8.740   2.329
42506W        W 1943   0.419  36.422  13.960
42507W        W 1944  42.835  29.924   4.181
42508W        W 1945  20.610  23.064   4.294
42509W        W 1946  26.025  25.525   4.833
42510W        W 1947   8.295  25.997  12.033
42511W        W 1948   3.289   5.773  14.878
42512W        W 1949  23.184  24.162  14.497
42513W        W 1950  27.462   0.854  10.411
42514W        W 1951  21.532  15.243  12.009
42515W        W 1952   8.678   6.405   4.311
42516W        W 1953  28.106   7.797  11.438
42517W        W 1954   1.919  38.937   1.393
42518W        W 1955   3.276   4.938   1.789
42519W        W 1956  13.217   4.782   2.755
42520W        W 1957  39.486   6.334   2.283
42521W        W 1958  28.004  20.563  12.371
42522W        W 1959  38.064  25.476   3.646
42523W        W 1960  19.646  39.865  13.807
42524W        W 1961  39.964  21.097   3.817
42525W        W 1962  25.138  20.703  11.475
42526W        W 1963  10.804  14.675  11.571
42527W        W 1964  36.567   7.833  12.019
42528W        W 1965  30.116  43.809  11.864
42529W        W 1966  38.562  16.629   3.826
42530W        W 1967  22.704  38.568   2.392
42531W        W 1968  41.917  36.077   1.738
42532W        W 1969  16.635  24.229  12.553
42533W        W 1970   8.654  19.076   0.357
42534W        W 1971   7.847  41.953   0.321
42535W        W 1972  25.593  22.217   1.212
42536W        W 1973  10.297  44.760  12.359
42537W        W 1974  25.487  22.610  12.567
42538W        W 1975  20.067  23.617  10.924
42539W        W 1976  17.665  28.642   3.349
42540W        W 1977  31.503  21.677   4.759
42541W        W 1978  33.027  29.648   0.925
42542W        W 1979  19.628   6.256  11.920
42543W        W 1980  33.011   8.376  11.504
42544W        W 1981  30.528   2.924   2.857
42545W        W 1982  37.839  37.936   4.175
42546W        W 1983   0.489  23.611  13.416
42547W        W 1984  42.408  43.299   0.327
42548W        W 1985  34.885  11.162  13.030
42549W        W 1986  38.846   9.157  13.857
42550W        W 1987  33.442  32.082   4.806
42551W        W 1988   0.440  41.907  11.962
42552W        W 1989  23.055  30.479   4.700
42553W        W 1990   7.777  19.056   0.952
42554W        W 1991  40.974  17.789   2.710
42555W        W 1992  30.603   8.236  11.022
42556W        W 1993  16.768  37.930   5.123
42557W        W 1994  15.593  31.563  13.025
42558W        W 1995  13.605  41.487   1.276
42559W        W 1996   1.249   9.815   3.221
42560W        W 1997  28.097  33.944  10.503
42561W        W 1998  30.977   7.214  10.479
42562W        W 1999   6.694  39.854   0.458
42563W        W 2000  25.494   3.768   4.666
42564W        W 2001  22.550  25.103  10.485
42565W        W 2002  21.749  32.123  12.556
42566W        W 2003  16.140  31.979  11.121
42567W        W 2004  34.563  36.861   3.348
42568W        W 2005   3.260  33.085   2.280
42569W        W 2006   3.920  12.655   4.673
42570W        W 2007  42.335  19.083   0.396
42571W        W 2008  12.343  22.014  13.994
42572W        W 2009  38.953   2.825   2.228
42573W        W 2010  15.783  12.145  14.282
42574W        W 2011  31.634  38.376  13.801
42575W        W 2012  19.145  33.008   3.345
42576W        W 2013  38.499   5.737  13.531
42577W        W 2014   8.768  16.255  10.938
42578W        W 2015  25.678   7.290   4.626
42579W        W 2016  18.788   6.841  10.929
42580W        W 2017  32.500   6.208   4.625
42581W        W 2018   3.842  41.905  10.567
42582W        W 2019  19.160   0.948   2.778
42583W        W 2020  43.997  30.646   0.288
42584W        W 2021  32.458  39.454   3.320
42585W        W 2022  34.922  32.911   2.798
42586W        W 2023  33.105  43.836  13.007
42587W        W 2024  42.398  36.527   3.688
42588W        W 2025  10.211  24.060  12.862
42589W        W 2026  31.460  20.619   2.220
42590W        W 2027   0.775   2.951  11.377
42591W        W 2028  11.732  21.580  13.899
42592W        W 2029  25.193  14.239   1.826
42593W        W 2030  17.065  20.232   0.439
42594W        W 2031   4.707  13.683  13.801
42595W        W 2032  35.041  15.277  11.576
42596W        W 2033  13.183  19.175   2.242
42597W        W 2034  29.983  39.334   1.793
42598W        W 2035  12.331   1.304   3.300
42599W        W 2036   1.305  39.392  10.894
42600W        W 2037  17.291  20.588  12.862
42601W        W 2038  20.544   0.858   1.911
42602W        W 2039   3.456  35.472   0.786
42603W        W 2040   3.810   1.252   1.434
42604W        W 2041   5.925  13.774  13.489
42605W        W 2042  15.227  37.564  12.526
42606W        W 2043  16.575  25.101   2.894
42607W        W 2044  39.397  31.402   4.656
42608W        W 2045  29.550  27.039   4.316
42609W        W 2046  16.813  30.540  11.913
42610W        W 2047  15.205  40.949   3.810
42611W        W 2048  35.579  44.471  10.496
42612W        W 2049  13.838  33.433  14.997
42613W        W 2050  36.552   6.677  13.477
42614W        W 2051  38.981  21.591  13.921
42615W        W 2052  32.510  41.853   4.129
42616W        W 2053  30.966   9.856  10.459
42617W        W 2054   7.227  20.042   3.304
42618W        W 2055  24.195  22.673  14.374
42619W        W 2056   0.772   7.772  14.003
42620W        W 2057  13.345  21.153   3.824
42621W        W 2058   3.808  10.752  14.360
42622W        W 2059  23.689  20.712   3.366
42623W        W 2060   9.706  19.646   5.215
42624W        W 2061  18.606  25.476  12.411
42625W        W 2062  27.620  41.302   2.338
42626W        W 2063  32.540  22.628   3.310
42627W        W 2064  38.838  12.334   4.331
42628W        W 2065   5.320  31.424  11.083
42629W        W 2066   5.205  24.714   3.301
42630W        W 2067  40.479  30.974  12.460
42631W        W 2068  41.803  32.627  13.356
42632W        W 2069   1.345  18.154  11.112
42633W        W 2070  25.131  32.456   1.832
42634W        W 2071  43.951  40.524  10.027
42635W        W 2072  13.699  34.560  10.542
42636W        W 2073  10.196  35.002  10.980
42637W        W 2074  40.983  28.474   4.611
42638W        W 2075  31.025   9.320  13.962
42639W        W 2076  41.983  44.314  12.974
42640W        W 2077  26.528  12.284  10.570
42641W        W 2078  19.718   0.378   2.299
42642W        W 2079  28.646  22.555   5.233
42643W        W 2080  25.657  19.262   2.405
42644W        W 2081  43.947  26.101   2.412
42645W        W 2082  11.757   9.301   4.683
42646W        W 2083  28.157  19.562  13.976
42647W        W 2084  35.466  31.415   0.961
42648W        W 2085   6.851   9.879  12.024
42649W        W 2086  34.926  15.704   1.403
42650W        W 2087  19.239  32.463   1.705
42651W        W 2088  33.093  34.047   4.336
42652W        W 2089   0.857  33.065  10.533
42653W        W 2090  15.648  28.184   1.769
42654W        W 2091  26.993  31.612   2.835
42655W        W 2092  37.929  31.897  11.957
42656W        W 2093  18.212  10.820  13.372
42657W        W 2094  39.824  23.018   1.847
42658W        W 2095  16.180   5.390  12.549
42659W        W 2096  12.247  30.448  13.871
42660W        W 2097  15.229  16.741   0.412
42661W        W 2098  34.084  37.031  14.962
42662W        W 2099   4.445  31.984  14.838
42663W        W 2100   0.490  25.631  14.018
42664W        W 2101   4.331  36.867  12.375
42665W        W 2102  18.786   3.384  10.092
42666W        W 2103  11.625   0.762  14.398
42667W        W 2104  27.147  30.571  12.971
42668W        W 2105  10.702   5.699   0.345
42669W        W 2106  18.778  32.939  13.411
42670W        W 2107  39.510   3.223   2.883
42671W        W 2108  14.689  12.335   2.726
42672W        W 2109  24.131   0.253  13.864
42673W        W 2110   8.241   4.297  14.444
42674W        W 2111   4.760  16.149  14.501
42675W        W 2112  33.957  29.954  12.931
42676W        W 2113  39.060   5.372   3.222
42677W        W 2114  24.486  32.593   4.765
42678W        W 2115  16.072  29.007   1.218
42679W        W 2116  43.449  29.451  13.794
42680W        W 2117  43.272  33.072  11.462
42681W        W 2118  41.323  43.454   3.384
42682W        W 2119   3.913  28.497   1.719
42683W        W 2120  23.612  44.410   1.292
42684W        W 2121  18.111  25.675   1.265
42685W        W 2122   8.345  28.061  14.425
42686W        W 2123  32.060  38.923  12.465
42687W        W 2124   7.231  34.484  12.083
42688W        W 2125  11.336   6.299   4.222
42689W        W 2126   5.424  36.092  14.369
42690W        W 2127  27.957   1.737  11.095
42691W        W 2128  26.491  13.146   3.358
42692W        W 2129  32.411  11.259  11.912
42693W        W 2130   6.208  21.715   0.747
42694W        W 2131   3.410  37.844  14.958
42695W        W 2132  16.698  33.964   4.128
42696W        W 2133  10.259   5.690  12.029
42697W        W 2134  44.943  29.529  13.983
42698W        W 2135  19.196  44.976   0.395
42699W        W 2136  32.045   0.985  14.508
42700W        W 2137  41.379   0.321  12.572
42701W        W 2138  37.997   9.255  13.023
42702W        W 2139  21.520  20.678  14.944
42703W        W 2140  11.782   6.401   3.852
42704W        W 2141  25.544   8.728   0.349
42705W        W 2142  41.957   5.377  10.898
42706W        W 2143  10.702  18.173   4.711
42707W        W 2144  43.427   4.940   3.181
42708W        W 2145  32.393   1.303  12.867
42709W        W 2146  20.133  20.044   1.816
42710W        W 2147  42.907  19.705  14.924
42711W        W 2148  10.184   7.226   2.790
42712W        W 2149  15.144  35.507  13.882
42713W        W 2150  44.817  34.922   4.664
42714W        W 2151  29.984  32.094  10.487
42715W        W 2152  28.066  10.857   3.202
42716W        W 2153  36.486  32.533  12.913
42717W        W 2154  19.741  13.819   1.854
42718W        W 2155   4.883   2.432   2.709
42719W        W 2156  19.088   6.907  14.921
42720W        W 2157  31.541  40.029  12.833
42721W        W 2158   9.695   8.675   4.766
42722W        W 2159  19.112  24.073  11.536
42723W        W 2160   1.258  43.976   0.454
42724W        W 2161  30.642  11.635  13.991
42725W        W 2162  39.049  18.579   5.310
42726W        W 2163  11.236  24.123   4.155
42727W        W 2164   3.294  43.494   1.900
42728W        W 2165  44.475   3.870   0.268
42729W        W 2166   7.250  24.106  14.014
42730W        W 2167   3.324  10.708  12.945
42731W        W 2168  15.112  23.617  13.806
42732W        W 2169   1.756  18.216  11.483
42733W        W 2170  43.859  33.560  13.014
42734W        W 2171   0.925  33.502   2.289
42735W        W 2172  37.412  44.293  13.045
42736W        W 2173  22.539  29.171   0.747
42737W        W 2174   7.329  10.232   0.823
42738W        W 2175  23.532  29.590  12.013
42739W        W 2176  25.675   3.318  14.312
42740W        W 2177   5.838   9.677  11.871
42741W        W 2178   4.905  16.704  14.464
42742W        W 2179  33.924  41.006   3.731
42743W        W 2180   2.746  13.625   1.396
42744W        W 2181  13.765  35.927  14.488
42745W        W 2182  14.247   7.899   2.372
42746W        W 2183   0.797   8.867  11.938
42747W        W 2184  44.867  29.630   2.823
42748W        W 2185  15.126  44.884  14.399
42749W        W 2186  17.142   9.854  10.502
42750W        W 2187  44.900  19.230  11.536
42751W        W 2188  26.562  14.272  14.947
42752W        W 2189  17.075   4.338   9.996
42753W        W 2190  21.185   3.731  11.456
42754W        W 2191  37.060  16.271  10.499
42755W        W 2192  42.981  40.901   0.464
42756W        W 2193   4.372   5.335   3.865
42757W        W 2194  17.721  16.776  13.390
42758W        W 2195  39.989  11.253   3.644
42759W        W 2196  44.488  12.660   0.937
42760W        W 2197  41.016  29.950   0.365
42761W        W 2198  37.863  15.796  12.914
42762W        W 2199   0.906  42.024   4.298
42763W        W 2200  29.425  26.694   1.425
42764W        W 2201  31.461  21.537  14.322
42765W        W 2202  16.087   2.728   0.793
42766W        W 2203  20.729  38.547  13.334
42767W        W 2204  34.569  42.295  12.021
42768W        W 2205  41.935  43.375   3.321
42769W        W 2206   3.420  33.067   1.729
42770W        W 2207  32.428  11.152  13.959
42771W        W 2208   8.856  26.042   3.214
42772W        W 2209  13.749  36.988   3.709
42773W        W 2210  31.956  41.999  12.955
42774W        W 2211  41.032   5.358   4.205
42775W        W 2212   5.251  26.516  10.946
42776W        W 2213  21.186  19.720  13.993
42777W        W 2214  20.157  39.023   3.329
42778W        W 2215  26.036  24.144  11.429
42779W        W 2216   9.823  15.328  11.552
42780W        W 2217   3.314  40.962  13.345
42781W        W 2218  38.911  22.567   4.621
42782W        W 2219  14.732  15.818  12.986
42783W        W 2220  23.136  25.105  10.970
42784W        W 2221  22.673   7.324  12.834
42785W        W 2222  35.909  21.105   4.701
42786W        W 2223  21.522   0.250   0.761
42787W        W 2224  15.696  31.071  12.497
42788W        W 2225   6.354   1.347  13.987
42789W        W 2226  31.431  34.014  11.999
42790W        W 2227   5.781  26.508   9.955
42791W        W 2228  37.934  29.423   1.707
42792W        W 2229   6.419   0.437   1.439
42793W        W 2230   7.763  15.234  12.035
42794W        W 2231  31.421  21.043   1.723
42795W        W 2232  21.634  25.649  13.923
42796W        W 2233  42.317  34.958  13.343
42797W        W 2234  40.910  12.847   1.815
42798W        W 2235  13.339  28.489   1.760
42799W        W 2236   6.184  44.864   3.188
42800W        W 2237  36.355  36.437   2.191
42801W        W 2238   0.803  26.978  10.563
42802W        W 2239   1.450  24.550  11.891
42803W        W 2240  21.651  14.154   1.281
42804W        W 2241  14.646   1.258  13.054
42805W        W 2242   2.289  37.393   1.440
42806W        W 2243  35.017  33.028  14.378
42807W        W 2244   9.210   0.417  13.937
42808W        W 2245   1.949  22.116   1.250
42809W        W 2246   1.315  36.090   9.539
42810W        W 2247  34.590   7.671  13.343
42811W        W 2248  42.385   6.418  10.475
42812W        W 2249  33.579  26.550   4.165
42813W        W 2250  33.514  25.541   4.624
42814W        W 2251  23.238  18.699   1.403
42815W        W 2252  35.396  27.551  12.948
42816W        W 2253  28.616   6.769  12.001
42817W        W 2254  29.441  31.577   3.699
42818W        W 2255   9.883  32.485  13.848
42819W        W 2256  26.167  26.971  14.418
42820W        W 2257  11.644  17.286  12.925
42821W        W 2258  20.101  44.341   1.295
42822W        W 2259  43.431   6.904   3.692
42823W        W 2260  10.776  10.361   2.834
42824W        W 2261  11.726  43.424  11.008
42825W        W 2262  12.799  20.749  10.920
42826W        W 2263  38.532  32.633   3.204
42827W        W 2264  15.209  36.992   3.783
42828W        W 2265  32.401  15.797  13.808
42829W        W 2266  39.386  10.176  12.509
42830W        W 2267  23.514  43.823  10.552
42831W        W 2268  14.203  31.939  10.023
42832W        W 2269  32.462  28.103  14.371
42833W        W 2270  21.648  39.934  13.364
42834W        W 2271  31.415   4.393  13.360
42835W        W 2272  18.640  33.611   2.214
42836W        W 2273  21.569  19.144   0.403
42837W        W 2274  24.156   3.731  12.377
42838W        W 2275  18.201  34.416  14.969
42839W        W 2276  30.453  38.379   1.252
42840W        W 2277  11.153   5.287   2.873
42841W        W 2278  17.624   4.386  10.631
42842W        W 2279   4.884  29.488  14.380
42843W        W 2280  37.434  40.438   0.412
42844W        W 2281  20.262  11.827  14.961
42845W        W 2282   6.788  30.597  13.989
42846W        W 2283  13.227  17.286  10.087
42847W        W 2284   1.858  40.394   4.718
42848W        W 2285  21.235  29.473   2.390
42849W        W 2286  14.681  24.609  13.056
42850W        W 2287  29.640   1.408  11.548
42851W        W 2288  38.865  33.981  10.550
42852W        W 2289  14.832  41.494   0.952
42853W        W 2290  19.041   1.290  14.356
42854W        W 2291  16.237  42.789   0.959
42855W        W 2292  41.934   1.304   4.778
42856W        W 2293  24.698   0.394  14.453
42857W        W 2294  29.982  28.074  14.872
42858W        W 2295  16.099  24.033   3.198
42859W        W 2296  11.726  32.503  10.909
42860W        W 2297  16.074  36.986   2.388
42861W        W 2298   8.312  20.670  12.548
42862W        W 2299  34.916  43.974   0.452
42863W        W 2300  16.192  41.891  11.922
42864W        W 2301  37.401  18.190  13.351
42865W        W 2302   5.279  35.998   0.470
42866W        W 2303   8.191  17.146  10.588
42867W        W 2304  23.687  33.942   0.933
42868W        W 2305   9.669  33.440  12.000
42869W        W 2306  36.987   9.320  12.533
42870W        W 2307  26.483  40.378  13.463
42871W        W 2308  18.054  15.167   0.278
42872W        W 2309  37.981   3.833  12.873
42873W        W 2310  33.990   8.727   4.325
42874W        W 2311  29.006   3.381  13.868
42875W        W 2312   1.254  20.034   0.444
42876W        W 2313  35.558   8.192  11.375
42877W        W 2314  28.454  36.841  13.836
42878W        W 2315  19.094  28.142  14.469
42879W        W 2316   4.889   5.367   3.239
42880W        W 2317  37.948  36.498  12.505
42881W        W 2318  42.894   1.908  10.500
42882W        W 2319  17.574  35.455   4.830
42883W        W 2320  37.417  11.863   3.690
42884W        W 2321  24.163  22.170  14.328
42885W        W 2322   9.233  26.498   0.304
42886W        W 2323  12.769  15.774   1.211
42887W        W 2324  13.618  23.629   2.246
42888W        W 2325  36.098   6.274   2.741
42889W        W 2326  29.485   8.261   1.881
42890W        W 2327  36.882  10.875   4.744
42891W        W 2328  32.033  37.492   3.755
42892W        W 2329  32.457  34.995  10.413
42893W        W 2330  12.664  25.209  14.874
42894W        W 2331  24.583  16.089   0.444
42895W        W 2332  33.908   6.194  13.352
42896W        W 2333  16.209  44.823   1.874
42897W        W 2334  44.341  24.113   0.278
42898W        W 2335  24.606   0.918  13.476
42899W        W 2336  31.957  22.581   5.316
42900W        W 2337  41.881  13.816  12.056
42901W        W 2338  21.120  42.911  11.462
42902W        W 2339  25.066   2.426   0.922
42903W        W 2340  29.434  35.592  11.070
42904W        W 2341  39.340  29.088  13.837
42905W        W 2342   3.759   8.830   5.229
42906W        W 2343  43.787  43.373  12.445
42907W        W 2344  12.327  12.303  13.338
42908W        W 2345   4.703  23.230  13.976
42909W        W 2346   1.888  24.627  14.792
42910W        W 2347  11.327  41.526   1.213
42911W        W 2348  33.585   4.861   4.269
42912W        W 2349  27.060   9.337   0.895
42913W        W 2350  26.565  35.007   2.315
42914W        W 2351  36.911  17.212  14.809
42915W        W 2352  26.108   0.435   0.796
42916W        W 2353  15.095  31.019  14.952
42917W        W 2354  32.437   1.341  13.794
42918W        W 2355  14.273  44.892   4.640
42919W        W 2356   1.434  28.504   4.284
42920W        W 2357  41.022  38.058   0.837
42921W        W 2358  35.102   6.680   4.295
42922W        W 2359  37.906  42.422  10.411
42923W        W 2360  33.117  20.646   2.336
42924W        W 2361  42.479   3.766  11.870
42925W        W 2362  37.467  43.312   0.769
42926W        W 2363  27.166   6.325  13.902
42927W        W 2364  32.506  32.602   3.859
42928W        W 2365  14.263   0.956   1.349
42929W        W 2366   6.787  31.963  13.466
42930W        W 2367  42.467  33.543   1.871
42931W        W 2368   8.733  18.767   3.344
42932W        W 2369   4.941   1.466  14.885
42933W        W 2370  22.032   0.325  13.501
42934W        W 2371  36.559  17.568  10.888
42935W        W 2372  14.134  31.645   1.440
42936W        W 2373  12.717   2.890  11.501
42937W        W 2374  19.614  30.118   3.307
42938W        W 2375  40.857  39.935   4.832
42939W        W 2376  15.781  10.727   1.324
42940W        W 2377   7.749  26.608  14.782
42941W        W 2378   9.227  20.740  11.932
42942W        W 2379  22.068  29.090  12.388
42943W        W 2380   9.391  26.579   3.383
42944W        W 2381  16.661   1.253   2.309
42945W        W 2382   1.415   9.354   0.745
42946W        W 2383  11.752  11.712   0.353
42947W        W 2384   9.788   2.773  10.966
42948W        W 2385  39.982  13.846  13.464
42949W        W 2386  16.754  37.380  12.032
42950W        W 2387  10.710  25.023  14.397
42951W        W 2388  44.322  29.077  10.919
42952W        W 2389  26.985   5.727   2.795
42953W        W 2390  19.145  44.857   3.644
42954W        W 2391  36.921  15.251   4.681
42955W        W 2392   2.466  36.860   0.409
42956W        W 2393  13.119   0.984   2.330
42957W        W 2394   1.297  12.817  14.291
42958W        W 2395   2.734  34.569  12.848
42959W        W 2396   1.396  29.640   0.363
42960W        W 2397  34.923   6.745  13.883
42961W        W 2398  11.168  36.400   2.782
42962W        W 2399  14.801   4.368  14.868
42963W        W 2400   2.775  27.949   0.877
42964W        W 2401   9.289   7.348   3.801
42965W        W 2402  37.957  30.985  13.512
42966W        W 2403  23.007   1.935   2.367
42967W        W 2404  14.816  43.903   2.383
42968W        W 2405   0.976  17.662   2.799
42969W        W 2406  32.973   1.360   3.809
42970W        W 2407   5.292  20.131   0.419
42971W        W 2408   7.173  39.896  13.824
42972W        W 2409   1.914   7.293   2.273
42973W        W 2410  35.398   3.427  14.857
42974W        W 2411  33.069  44.362   2.762
42975W        W 2412  11.325  42.848  13.517
42976W        W 2413  10.720  20.668  10.450
42977W        W 2414  26.509  37.831   3.368
42978W        W 2415  30.436  18.738  11.601
42979W        W 2416   9.767  10.177  13.037
42980W        W 2417  10.162   6.899   0.855
42981W        W 2418  42.014  35.592   4.165
42982W        W 2419  10.359  30.642   3.312
42983W        W 2420  30.457  33.620  13.397
42984W        W 2421  30.917   3.848  12.018
42985W        W 2422   0.416   4.388   1.277
42986W        W 2423  13.119  37.516   3.166
42987W        W 2424   3.295  29.647   3.258
42988W        W 2425  34.383  42.911   2.778
42989W        W 2426  33.904  19.746  10.578
42990W        W 2427  11.842  27.998   4.132
42991W        W 2428   8.807   9.762  10.425
42992W        W 2429  32.961  43.371   4.609
42993W        W 2430  28.537  43.418   1.328
42994W        W 2431  12.343  12.333  11.376
42995W        W 2432  35.057  23.144   0.414
42996W        W 2433   0.323  25.515  13.319
42997W        W 2434  16.812  15.684  11.479
42998W        W 2435  44.336   6.195  10.529
42999W        W 2436   4.773  31.550  11.988
43000W        W 2437  26.089   4.908  14.935
43001W        W 2438  28.104  39.983  13.807
43002W        W 2439  21.221  17.186   2.395
43003W        W 2440   1.387  28.102  11.459
43004W        W 2441  26.633  11.668  12.527
43005W        W 2442  18.165  18.616  10.948
43006W        W 2443  36.364  22.236  10.539
43007W        W 2444  23.613  13.305  13.372
43008W        W 2445  18.230   6.412   0.408
43009W        W 2446  37.417  28.570  14.958
43010W        W 2447  37.523  42.494  11.416
43011W        W 2448  43.455  41.925   4.682
43012W        W 2449  37.072  44.946   4.711
43013W        W 2450  27.105   4.798  13.008
43014W        W 2451   0.446  12.738  14.010
43015W        W 2452  14.781  42.413  14.966
43016W        W 2453  12.143  19.670   1.739
43017W        W 2454  36.582  41.460  13.823
43018W        W 2455  36.945  33.381  11.505
43019W        W 2456  10.851  32.414  14.886
43020W        W 2457  34.881  28.125  12.574
43021W        W 2458  19.102  28.604   3.819
43022W        W 2459  26.076  37.537   5.158
43023W        W 2460  18.153  38.556   3.793
43024W        W 2461   9.678  12.134  13.450
43025W        W 2462  37.360  17.278  14.436
43026W        W 2463  16.732  18.597   1.882
43027W        W 2464  35.033  21.516  12.993
43028W        W 2465  35.419  18.223  12.438
43029W        W 2466   3.434  21.033   4.825
43030W        W 2467  27.477   7.727   4.279
43031W        W 2468  24.591  37.550   2.417
43032W        W 2469   1.767  37.541   5.303
43033W        W 2470  35.405  40.414   0.354
43034W        W 2471  41.789  28.597  10.637
43035W        W 2472  17.117  42.782  10.590
43036W        W 2473   7.705   5.815   2.686
43037W        W 2474  16.768  29.945  11.008
43038W        W 2475  36.020  23.004  11.960
43039W        W 2476  16.732  27.644   3.230
43040W        W 2477   9.819   6.336  11.857
43041W        W 2478   0.444  31.496   3.228
43042W        W 2479  11.669   2.271  13.458
43043W        W 2480  18.791  37.054  12.049
43044W        W 2481  38.524  20.058  11.958
43045W        W 2482   6.380  12.229  14.810
43046W        W 2483  43.963  41.906  13.851
43047W        W 2484   8.248  10.803   3.270
43048W        W 2485  36.864   8.394  13.992
43049W        W 2486  44.473   2.372   2.806
43050W        W 2487  22.681   0.947  12.553
43051W        W 2488   3.240  14.808   1.319
43052W        W 2489  22.244  36.936   0.789
43053W        W 2490  28.092  36.427  10.099
43054W        W 2491  26.156  33.056   3.695
43055W        W 2492  10.754  34.070   1.446
43056W        W 2493   5.753  40.831   0.331
43057W        W 2494  35.461  17.164  11.382
43058W        W 2495  30.618  33.026   2.198
43059W        W 2496  14.834  28.951  12.945
43060W        W 2497  11.750  41.924  14.001
43061W        W 2498   6.383  23.497   3.375
43062W        W 2499   6.194  16.226  13.347
43063W        W 2500  34.104  16.137   1.733
43064W        W 2501  11.296  38.842  12.429
43065W        W 2502   2.403  14.339   1.301
43066W        W 2503   5.932  29.580  10.608
43067W        W 2504  29.147   3.712   0.823
43068W        W 2505  41.998  14.701  11.938
43069W        W 2506  37.370  34.920   5.293
43070W        W 2507  15.629   6.893  12.064
43071W        W 2508  10.766  13.707  10.964
43072W        W 2509  21.028  13.699  14.877
43073W        W 2510  18.155  44.291   3.331
43074W        W 2511   7.898  10.311  14.459
43075W        W 2512  42.327  32.946   2.348
43076W        W 2513  18.238   0.315  11.469
43077W        W 2514  36.565  23.000  14.986
43078W        W 2515   5.762   5.408  14.346
43079W        W 2516  20.741  27.561   1.258
43080W        W 2517  15.297  12.337  12.344
43081W        W 2518   3.725  21.128   2.882
43082W        W 2519  27.158  29.613  13.475
43083W        W 2520  40.539  19.239   2.803
43084W        W 2521  39.901   5.700   4.353
43085W        W 2522  12.208  37.872  14.798
43086W        W 2523  19.758   0.860   0.481
43087W        W 2524  41.043  22.576  14.870
43088W        W 2525  43.915  37.578  14.982
43089W        W 2526  14.284  43.356   2.193
43090W        W 2527  40.915  23.095   1.751
43091W        W 2528  35.558   4.841   4.786
43092W        W 2529   4.891  29.077   2.670
43093W        W 2530   8.761  19.687   4.638
43094W        W 2531  13.717  27.659   0.818
43095W        W 2532  37.037  19.086   2.864
43096W        W 2533  34.952  11.865  11.397
43097W        W 2534  31.625  37.444   0.277
43098W        W 2535   8.230  29.666  11.870
43099W        W 2536  19.187   6.781  14.495
43100W        W 2537  11.154   6.380   0.268
43101W        W 2538  24.090   3.899   2.211
43102W        W 2539  44.498  42.927   3.223
43103W        W 2540   1.358  36.426   3.859
43104W        W 2541  38.352  41.830  14.355
43105W        W 2542  18.591  15.702   2.316
43106W        W 2543  42.884  44.923   0.872
43107W        W 2544  21.159  20.189  12.941
43108W        W 2545   0.787  19.762   0.264
43109W        W 2546   8.292  31.988  12.942
43110W        W 2547  24.583   4.210   0.868
43111W        W 2548   2.292  29.532  10.962
43112W        W 2549  21.728   7.819  13.867
43113W        W 2550  38.051   7.803  10.481
43114W        W 2551  17.684   7.847  12.469
43115W        W 2552  23.118  35.385  12.578
43116W        W 2553  15.106  39.038  11.961
43117W        W 2554  12.851  19.664   0.287
43118W        W 2555  43.407  23.663   2.697
43119W        W 2556  24.071  16.292   4.773
43120W        W 2557  38.506  19.209   3.671
43121W        W 2558  28.651   4.901  10.604
43122W        W 2559  21.567  42.336   1.871
43123W        W 2560   0.400  14.790  14.895
43124W        W 2561  23.652  28.493  13.910
43125W        W 2562   7.786  26.552  13.844
43126W        W 2563  36.351  28.108  11.417
43127W        W 2564   2.850   2.308  14.856
43128W        W 2565  29.093  40.376  10.110
43129W        W 2566  33.901  13.226  14.362
43130W        W 2567  27.045  37.004   3.385
43131W        W 2568  18.707   7.187   4.716
43132W        W 2569  44.425   1.791  10.056
43133W        W 2570  19.197  19.149  13.403
43134W        W 2571   6.239  34.878   2.280
43135W        W 2572  35.035  11.146   1.704
43136W        W 2573  20.217   7.693  11.971
43137W        W 2574  14.113  27.084   2.742
43138W        W 2575   5.210  34.979  13.026
43139W        W 2576  24.039  34.988   0.461
43140W        W 2577  26.958  32.538   3.267
43141W        W 2578  24.538  30.659  11.501
43142W        W 2579   6.810  38.994  11.989
43143W        W 2580  30.589  43.386   1.931
43144W        W 2581  32.959  18.150  10.943
43145W        W 2582   7.895   5.690  13.064
43146W        W 2583  20.085  29.996  12.440
43147W        W 2584  18.655  20.190   1.807
43148W        W 2585  40.038   7.884   2.739
43149W        W 2586  18.188   0.434  11.124
43150W        W 2587  19.675  39.888   3.837
43151W        W 2588   6.897  39.495   2.826
43152W        W 2589  21.665  16.290   5.772
43153W        W 2590  37.933  35.074   0.355
43154W        W 2591  13.254  26.130  12.016
43155W        W 2592   6.198  32.908  13.882
43156W        W 2593  11.644  14.334  11.988
43157W        W 2594   3.439  41.400  12.980
43158W        W 2595  23.016   9.273  10.554
43159W        W 2596  13.283  39.432   3.814
43160W        W 2597  26.478  39.337   1.288
43161W        W 2598   7.263  13.280  13.962
43162W        W 2599   8.820  21.561  10.962
43163W        W 2600   6.370  25.104   4.171
43164W        W 2601   9.255  26.549  14.367
43165W        W 2602  14.719  29.614   2.403
43166W        W 2603   1.951  32.046  12.934
43167W        W 2604  30.479  25.658   4.750
43168W        W 2605  27.111  25.991  14.498
43169W        W 2606  29.124  11.318  11.953
43170W        W 2607  13.831  13.328   1.813
43171W        W 2608  20.136  16.254   0.273
43172W        W 2609  12.661  29.950  14.488
43173W        W 2610  26.169  15.595  13.003
43174W        W 2611  10.353   4.928   0.242
43175W        W 2612  17.719   7.173   0.315
43176W        W 2613   5.229   8.783   1.796
43177W        W 2614  43.475   5.808   0.369
43178W        W 2615   2.435  39.028  13.515
43179W        W 2616  23.989  22.689  14.916
43180W        W 2617   7.864  35.069  14.403
43181W        W 2618  44.921  29.054  10.914
43182W        W 2619  43.785  31.129   4.349
43183W        W 2620  26.057  15.130  13.960
43184W        W 2621  25.167   6.427  12.575
43185W        W 2622   0.969   0.403   3.325
43186W        W 2623  10.361  24.664  11.547
43187W        W 2624  14.180  44.786   3.798
43188W        W 2625  16.636   6.851   2.240
43189W        W 2626  12.175  25.601  10.889
43190W        W 2627  23.155  21.118   1.212
43191W        W 2628  14.803  30.588  10.007
43192W        W 2629  26.653  15.647   3.224
43193W        W 2630  33.526   0.940   2.327
43194W        W 2631  33.437   4.850   0.967
43195W        W 2632  10.199  22.682   0.809
43196W        W 2633  13.216   8.822  10.987
43197W        W 2634  39.022   8.396   3.715
43198W        W 2635   5.347  20.750   3.334
43199W        W 2636  41.956  37.930  13.898
43200W        W 2637   5.889   3.751   1.759
43201W        W 2638  24.229  12.821   3.208
43202W        W 2639  34.963  41.300   2.879
43203W        W 2640  11.674   8.843  10.606
43204W        W 2641  21.630  42.432  14.420
43205W        W 2642  18.564  40.536   2.196
43206W        W 2643  30.511  18.152   4.824
43207W        W 2644   5.745  40.017   0.898
43208W        W 2645  11.788  11.192   4.686
43209W        W 2646  35.566  25.054  12.979
43210W        W 2647  20.177  27.990  10.596
43211W        W 2648   4.699  38.335  12.485
43212W        W 2649   5.204   3.347   5.301
43213W        W 2650  19.086  14.661   2.274
43214W        W 2651  43.322  37.505   5.261
43215W        W 2652  39.921  38.908  10.428
43216W        W 2653  42.988  29.624  14.302
43217W        W 2654   5.690  30.614  10.593
43218W        W 2655  16.228  26.085  14.882
43219W        W 2656  37.973   9.248   1.210
43220W        W 2657  44.444   9.283  13.009
43221W        W 2658  37.361  23.173  13.507
43222W        W 2659   8.339  12.235   0.245
43223W        W 2660  14.209  32.949   1.230
43224W        W 2661  22.709  23.067  12.000
43225W        W 2662  36.406   6.427   0.446
43226W        W 2663  23.232   1.278   4.648
43227W        W 2664  24.990  12.839  14.364
43228W        W 2665   9.832  29.580  14.388
43229W        W 2666  14.289   7.412  11.086
43230W        W 2667  36.373  37.988  13.790
43231W        W 2668   9.704  22.738   1.265
43232W        W 2669  34.545  19.678   3.769
43233W        W 2670  23.575   3.752  14.903
43234W        W 2671  28.607  22.712  10.404
43235W        W 2672  34.008  39.035   2.261
43236W        W 2673  25.483  26.996   1.698
43237W        W 2674  18.565  28.124  10.640
43238W        W 2675   0.809  25.653  14.769
43239W        W 2676   2.777  21.255   1.809
43240W        W 2677  39.822  44.008  13.015
43241W        W 2678   6.257  12.663   3.658
43242W        W 2679  42.933  15.823   0.455
43243W        W 2680   3.358   1.919  13.990
43244W        W 2681   2.759  37.396   1.883
43245W        W 2682  16.209  21.159   1.329
43246W        W 2683   7.689  12.826  11.863
43247W        W 2684  43.949  34.395  12.930
43248W        W 2685  39.423  40.855  13.043
43249W        W 2686   8.173  12.815  12.868
43250W        W 2687  21.593  22.629  13.007
43251W        W 2688  36.585  38.888  13.001
43252W        W 2689   9.364  36.584  12.928
43253W        W 2690  17.073  10.187  13.987
43254W        W 2691  22.189  15.218   1.810
43255W        W 2692  44.375  15.625  14.837
43256W        W 2693  24.203  11.802  14.014
43257W        W 2694  42.802   1.317  12.870
43258W        W 2695  44.823  37.581  11.897
43259W        W 2696  43.779  18.715   2.401
43260W        W 2697  15.198   3.711  12.581
43261W        W 2698  10.152  30.063   1.331
43262W        W 2699   4.835  41.017   4.150
43263W        W 2700  15.672   6.790   2.385
43264W        W 2701   1.333  44.945   3.701
43265W        W 2702  34.438   3.405   1.445
43266W        W 2703   9.327  19.693   4.350
43267W        W 2704  40.419   7.365   2.761
43268W        W 2705  35.603  16.162  14.370
43269W        W 2706  41.842  10.188   3.747
43270W        W 2707  33.516   6.386  11.545
43271W        W 2708  18.766  10.354  12.913
43272W        W 2709  15.795  18.581  10.104
43273W        W 2710  41.406  30.050   0.343
43274W        W 2711  28.657  36.899  11.516
43275W        W 2712  15.745   1.470  13.848
43276W        W 2713  20.694  12.810   2.204
43277W        W 2714   2.727  31.153   2.296
43278W        W 2715  26.021  33.895  11.065
43279W        W 2716  39.346  39.501   3.811
43280W        W 2717  10.290  28.033   0.932
43281W        W 2718  40.417  32.574   2.877
43282W        W 2719  36.940   4.216  10.938
43283W        W 2720  33.899   8.212   2.332
43284W        W 2721  15.306   2.252   3.715
43285W        W 2722  37.396  28.518   3.750
43286W        W 2723  35.987  39.961   3.265
43287W        W 2724  38.334  35.498  13.523
43288W        W 2725  29.957  10.655   4.353
43289W        W 2726  28.128  31.508   1.422
43290W        W 2727  20.522   2.416  12.987
43291W        W 2728  36.897   9.668   1.243
43292W        W 2729   9.395  41.299   4.757
43293W        W 2730  15.725  43.464  11.591
43294W        W 2731   7.879  22.169  12.042
43295W        W 2732  21.022  33.515  12.462
43296W        W 2733  21.575  14.655  13.519
43297W        W 2734   8.800  30.085  12.527
43298W        W 2735  14.823   1.878   0.735
43299W        W 2736  44.870  25.696  11.084
43300W        W 2737  22.153  15.675   4.283
43301W        W 2738  25.704   7.244   1.362
43302W        W 2739   3.927   5.378   3.282
43303W        W 2740   2.466  29.516  14.908
43304W        W 2741  32.513  25.698   0.335
43305W        W 2742  23.018  14.267  11.557
43306W        W 2743  27.995  23.133  13.817
43307W        W 2744  12.646  19.269   0.408
43308W        W 2745  23.998  13.676   3.696
43309W        W 2746  20.556  32.464  11.931
43310W        W 2747  19.158   5.419  11.554
43311W        W 2748  20.755  32.395   0.258
43312W        W 2749  26.534   0.982   4.776
43313W        W 2750  30.158  17.183   4.129
43314W        W 2751   7.796  20.675   4.658
43315W        W 2752  42.840   6.740   3.681
43316W        W 2753  37.067  18.073   4.346
43317W        W 2754   8.245  23.570   2.186
43318W        W 2755  17.654  24.645   4.135
43319W        W 2756  17.616  14.260   1.734
43320W        W 2757   0.831  25.589  11.516
43321W        W 2758  15.326  12.657   0.483
43322W        W 2759  23.130   8.236   2.373
43323W        W 2760  40.982   8.279   3.817
43324W        W 2761   6.389  41.408   9.959
43325W        W 2762  27.638  41.315   1.231
43326W        W 2763  13.671  38.061   2.359
43327W        W 2764  38.068  25.708  11.118
43328W        W 2765  31.648   6.910   0.756
43329W        W 2766  23.557   7.208   2.316
43330W        W 2767   2.935  23.104   4.294
43331W        W 2768   0.308  19.548  11.440
43332W        W 2769   9.250   1.285   1.390
43333W        W 2770  28.541  20.253   3.852
43334W        W 2771   1.329  42.866   4.203
43335W        W 2772  14.125  28.545   0.431
43336W        W 2773  39.391   4.934   9.974
43337W        W 2774  35.010   9.190   0.767
43338W        W 2775   6.210   3.234   2.795
43339W        W 2776  43.874  20.571   2.678
43340W        W 2777  32.526  27.543   3.211
43341W        W 2778   8.790  41.497  14.398
43342W        W 2779  10.846   0.301   0.458
43343W        W 2780  34.496   7.904  12.448
43344W        W 2781   0.944  24.103   1.380
43345W        W 2782  18.598  11.621   3.329
43346W        W 2783  38.430   8.316   3.225
43347W        W 2784  12.616  18.139   3.864
43348W        W 2785  40.374  11.841  14.006
43349W        W 2786   1.247  43.845  13.046
43350W        W 2787  35.092  40.966   0.360
43351W        W 2788  12.232  15.287   4.763
43352W        W 2789  34.890   4.713  11.910
43353W        W 2790  13.764  20.693  11.469
43354W        W 2791  19.193  38.514  10.929
43355W        W 2792   9.699  24.669   1.927
43356W        W 2793  40.509  12.770  13.908
43357W        W 2794   1.254  44.861  14.336
43358W        W 2795   2.376  42.314  11.953
43359W        W 2796   1.437  15.745  13.945
43360W        W 2797  36.882   8.871   1.866
43361W        W 2798  33.462  13.286  14.404
43362W        W 2799  36.564   6.909   3.184
43363W        W 2800  18.613  26.595   2.328
43364W        W 2801  22.608   3.439  10.474
43365W        W 2802  30.470  32.014  11.108
43366W        W 2803  23.135  22.182  13.357
43367W        W 2804   6.405  12.769   0.820
43368W        W 2805   8.861  20.550   4.268
43369W        W 2806  44.384  43.899   1.438
43370W        W 2807   5.824  37.888   3.158
43371W        W 2808  21.637   2.886  12.952
43372W        W 2809  35.438   1.776   2.419
43373W        W 2810   8.366  35.894  10.539
43374W        W 2811  42.283  19.708   2.717
43375W        W 2812  15.743  16.616  12.969
43376W        W 2813   8.890  36.911   0.301
43377W        W 2814  41.914  31.011   1.318
43378W        W 2815  43.350  24.713   0.737
43379W        W 2816  17.102   5.916   1.401
43380W        W 2817  20.048   3.860  14.767
43381W        W 2818   9.726  19.649   2.212
43382W        W 2819  24.027  12.168  11.949
43383W        W 2820   1.260  28.660  10.569
43384W        W 2821  39.014  29.925   4.322
43385W        W 2822  17.776  26.612  13.440
43386W        W 2823  19.561  18.261  14.822
43387W        W 2824  44.778   5.903   1.261
43388W        W 2825  33.919  38.046  12.561
43389W        W 2826  38.427   4.336   4.260
43390W        W 2827  11.668  43.011   1.293
43391W        W 2828   5.756   1.849  12.832
43392W        W 2829  17.610  31.638  11.025
43393W        W 2830  36.875  17.773   3.221
43394W        W 2831  20.207  28.669   0.302
43395W        W 2832  11.638   8.805  13.360
43396W        W 2833  42.007  15.584  14.017
43397W        W 2834  12.242  13.152   3.658
43398W        W 2835  21.628  18.786  14.349
43399W        W 2836  18.747   6.849  13.058
43400W        W 2837   7.847   7.229  12.837
43401W        W 2838  41.789  35.083   1.317
43402W        W 2839   9.234  19.236  10.929
43403W        W 2840   0.945  21.713  10.933
43404W        W 2841  30.080  12.673  14.761
43405W        W 2842  15.271  36.870  11.440
43406W        W 2843  33.429  37.917  14.029
43407W        W 2844  44.321  16.595   3.707
43408W        W 2845   7.788  42.299   2.363
43409W        W 2846  25.621   9.223   0.421
43410W        W 2847  19.123  22.572   2.253
43411W        W 2848  29.037  20.722   2.702
43412W        W 2849  42.459  14.612   1.320
43413W        W 2850  42.472  20.524  12.567
43414W        W 2851  37.974   3.321  13.498
43415W        W 2852  14.317  11.815  11.874
43416W        W 2853  43.813  29.101  14.904
43417W        W 2854  37.426  21.104   3.265
43418W        W 2855   1.844  17.792   4.307
43419W        W 2856  12.843  23.558  10.607
43420W        W 2857  26.183  16.594  13.920
43421W        W 2858  40.375  41.809  14.429
43422W        W 2859  40.937  12.768  11.470
43423W        W 2860  37.910  26.155   4.232
43424W        W 2861   8.301  17.752  12.069
43425W        W 2862  15.792  23.127   4.266
43426W        W 2863  20.044  37.933  14.372
43427W        W 2864  42.807  38.549  13.031
43428W        W 2865  14.677  44.358  13.815
43429W        W 2866   8.776   6.188   3.796
43430W        W 2867  44.826  15.710  11.976
43431W        W 2868  30.489  11.367  12.474
43432W        W 2869  29.016  14.105  12.058
43433W        W 2870  20.216  34.454  12.435
43434W        W 2871  38.031  21.052   0.768
43435W        W 2872  36.439  26.594   3.362
43436W        W 2873   4.345  25.978  12.062
43437W        W 2874  17.612  30.550   0.283
43438W        W 2875  16.811  16.201   0.293
43439W        W 2876   8.860  42.480  10.509
43440W        W 2877  28.584  27.010  11.599
43441W        W 2878  37.844   6.869  10.933
43442W        W 2879   1.323   8.316   1.901
43443W        W 2880  12.634   9.392   0.460
43444W        W 2881   5.308  29.424   9.990
43445W        W 2882  12.643   3.845  14.851
43446W        W 2883  20.527  13.620   0.360
43447W        W 2884  32.122  39.836  13.922
43448W        W 2885  10.318  10.842   3.361
43449W        W 2886  27.052  22.165   9.444
43450W        W 2887  28.013  32.928   3.633
43451W        W 2888  42.463  32.071   0.266
43452W        W 2889  40.882  29.977   2.892
43453W        W 2890   6.753  35.086  10.450
43454W        W 2891  36.977  34.497   2.280
43455W        W 2892  34.609  32.399  14.883
43456W        W 2893   5.850  43.510   2.178
43457W        W 2894  35.530  17.204  13.059
43458W        W 2895   6.395  13.206   4.198
43459W        W 2896  37.976  25.493   2.357
43460W        W 2897   6.228  36.474   2.873
43461W        W 2898  15.724   3.803  14.489
43462W        W 2899   0.485  33.071  14.325
43463W        W 2900  32.625   9.310  13.388
43464W        W 2901  37.922  17.274   0.921
43465W        W 2902  31.916  14.177  11.455
43466W        W 2903  16.725  35.388   4.241
43467W        W 2904  11.831   1.349   3.245
43468W        W 2905  44.469  15.085  11.129
43469W        W 2906  10.269  39.433   3.191
43470W        W 2907   8.763   3.772   0.850
43471W        W 2908  18.757  20.696   2.902
43472W        W 2909  23.506   3.243   4.794
43473W        W 2910  20.664  36.946  12.569
43474W        W 2911  24.084  39.825  13.949
43475W        W 2912  34.930  33.591  14.899
43476W        W 2913   9.228  27.475   2.273
43477W        W 2914  35.918  41.975  14.013
43478W        W 2915  15.815  36.043   3.632
43479W        W 2916  14.610  30.556  13.493
43480W        W 2917  26.650   1.906  14.449
43481W        W 2918  11.174  23.146  12.374
43482W        W 2919   8.405  40.418  10.888
43483W        W 2920  43.782   1.830   1.881
43484W        W 2921  12.239   4.355   0.364
43485W        W 2922  18.560   0.433  13.503
43486W        W 2923  37.435  40.345   1.840
43487W        W 2924   1.872  36.908  11.525
43488W        W 2925  12.144  26.071  10.584
43489W        W 2926  28.130  32.897  13.932
43490W        W 2927  27.132  41.360   1.321
43491W        W 2928  26.463  17.653  14.376
43492W        W 2929  29.038  23.059  11.965
43493W        W 2930  30.017  30.009   4.256
43494W        W 2931   7.191  12.639   1.765
43495W        W 2932  22.208  17.756   1.227
43496W        W 2933   0.880  27.964   5.197
43497W        W 2934  38.885  30.427   4.203
43498W        W 2935  41.488  10.368   4.705
43499W        W 2936  42.304  20.223  12.382
43500W        W 2937  23.704  40.395   0.338
43501W        W 2938  10.701  35.015   2.784
43502W        W 2939  15.133  20.137  14.864
43503W        W 2940  14.783  37.509   9.972
43504W        W 2941  25.206  38.345  13.487
43505W        W 2942  29.040  31.140  12.370
43506W        W 2943  36.034  38.821  10.144
43507W        W 2944  37.495  25.587  13.878
43508W        W 2945  24.724  35.874  12.573
43509W        W 2946  22.589  37.873  14.870
43510W        W 2947  33.582   8.183   3.308
43511W        W 2948  11.341  18.758   2.191
43512W        W 2949  32.564  42.364   0.246
43513W        W 2950   0.988  17.638  12.874
43514W        W 2951  20.068  30.520   0.453
43515W        W 2952  14.253  36.503  10.983
43516W        W 2953  30.435   1.303  12.987
43517W        W 2954  12.660  12.744   4.209
43518W        W 2955  24.022  35.548   4.339
43519W        W 2956  21.627  16.781  13.827
43520W        W 2957  28.467  21.661  14.967
43521W        W 2958  33.089   6.708   1.890
43522W        W 2959  32.888  35.476  12.871
43523W        W 2960  44.797  15.682  12.911
43524W        W 2961  41.359  44.488   1.232
43525W        W 2962  35.874  22.708   5.270
43526W        W 2963  36.047  30.429   4.185
43527W        W 2964  10.719  24.025  12.071
43528W        W 2965  32.391   8.846   1.809
43529W        W 2966  44.819   7.322  13.309
43530W        W 2967  35.024  40.501   2.369
43531W        W 2968  43.905  33.509   4.638
43532W        W 2969  18.086   6.249  12.055
43533W        W 2970  37.059  19.079  11.974
43534W        W 2971  26.111  21.022  11.412
43535W        W 2972  40.847   6.896  14.794
43536W        W 2973  35.460  23.493  12.865
43537W        W 2974   7.789  29.603  12.386
43538W        W 2975  35.051  16.695   4.284
43539W        W 2976  38.040  20.044  11.034
43540W        W 2977  15.242  31.950   3.269
43541W        W 2978  12.183  42.957  13.461
43542W        W 2979   8.199  37.878   0.775
43543W        W 2980  34.425  21.221  11.100
43544W        W 2981  15.628   1.351  10.534
43545W        W 2982  12.689  42.508   3.242
43546W        W 2983  36.855   4.708   3.780
43547W        W 2984  40.313   5.359   3.332
43548W        W 2985   0.397  16.623  12.355
43549W        W 2986  35.035  34.486  14.283
43550W        W 2987  25.699   1.805   2.786
43551W        W 2988  44.330  30.516  11.911
43552W        W 2989  31.976  19.727   2.190
43553W        W 2990  39.009  24.107   1.404
43554W        W 2991  11.242  42.865  14.484
43555W        W 2992  41.007  21.159   4.676
43556W        W 2993   1.465  38.886  13.014
43557W        W 2994   1.462  12.347   3.813
43558W        W 2995  23.593  43.858  13.844
43559W        W 2996  41.940  20.119   2.834
43560W        W 2997  34.406   0.368   0.389
43561W        W 2998  14.110  44.488  10.090
43562W        W 2999  32.450  36.418  10.457
43563W        W 3000  15.252  29.926   4.798
43564W        W 3001  20.730  16.193  11.934
43565W        W 3002  13.116   0.810  11.906
43566W        W 3003   4.788   6.323   4.114
43567W        W 3004  44.414  28.572   3.251
43568W        W 3005  17.271  22.228  14.952
43569W        W 3006   7.385  30.909   1.301
43570W        W 3007  39.343  34.072   0.798
43571W        W 3008  33.544   8.206  10.633
43572W        W 3009  11.734  30.418   4.235
43573W        W 3010  18.234   5.234   4.113
43574W        W 3011  37.867   4.720  13.937
43575W        W 3012  28.178  21.030  12.959
43576W        W 3013  22.516  42.030  13.868
43577W        W 3014  17.574  27.597   4.236
43578W        W 3015   0.940  26.672  12.043
43579W        W 3016  23.570  29.650   1.357
43580W        W 3017  17.793  38.864   2.737
43581W        W 3018  35.079  37.498   2.672
43582W        W 3019  28.108  11.362   0.957
43583W        W 3020  33.475  21.184  13.990
43584W        W 3021  38.832  11.663  13.517
43585W        W 3022  16.605  20.187   3.372
43586W        W 3023  42.291   5.736  11.484
43587W        W 3024  33.560  30.011  13.448
43588W        W 3025  24.712   5.777  11.876
43589W        W 3026  27.985  38.968   4.707
43590W        W 3027  37.393  20.148  14.780
43591W        W 3028  33.919  37.908  11.528
43592W        W 3029   9.831  14.104   2.876
43593W        W 3030  34.393   7.321   1.381
43594W        W 3031  27.557  13.153   4.118
43595W        W 3032   5.875  27.556  11.452
43596W        W 3033  21.658  37.061  14.985
43597W        W 3034  16.198  37.412  12.995
43598W        W 3035  27.562  23.580   1.935
43599W        W 3036  30.955  25.066  13.958
43600W        W 3037  38.056  14.109  10.033
43601W        W 3038  19.744  12.254   4.222
43602W        W 3039  35.376  40.896  12.454
43603W        W 3040  34.492  40.321  12.536
43604W        W 3041  38.827  21.558   1.294
43605W        W 3042  23.156   5.325   0.418
43606W        W 3043  20.219   1.950   3.677
43607W        W 3044  13.200  32.014   0.426
43608W        W 3045  11.805   6.247  14.460
43609W        W 3046  38.896  17.792   1.431
43610W        W 3047  17.164   6.687   1.813
43611W        W 3048  43.950  17.687   4.761
43612W        W 3049  33.914  26.054   1.927
43613W        W 3050   6.829  37.558   1.275
43614W        W 3051  15.104   0.358   3.254
43615W        W 3052  33.032  35.050   0.307
43616W        W 3053  44.451   6.823  13.511
43617W        W 3054  27.531   8.210   1.237
43618W        W 3055  24.040  19.068   0.276
43619W        W 3056  21.254  37.422   5.237
43620W        W 3057  18.071  23.237   4.660
43621W        W 3058  12.356  19.598  13.525
43622W        W 3059   1.462  25.014   4.269
43623W        W 3060  43.843  15.280   1.908
43624W        W 3061  34.438  16.625  12.942
43625W        W 3062  30.596  25.198   4.215
43626W        W 3063  29.163  37.467   3.831
43627W        W 3064  27.462  19.649   2.418
43628W        W 3065  17.721  40.363   0.887
43629W        W 3066  15.671   7.257  13.424
43630W        W 3067  32.992  38.873  13.823
43631W        W 3068  29.515  43.856  14.831
43632W        W 3069  32.463   1.354  14.441
43633W        W 3070  39.389  11.216  12.365
43634W        W 3071   0.760  15.601  12.097
43635W        W 3072  25.694  37.543  12.059
43636W        W 3073  15.229  40.805  12.456
43637W        W 3074  16.174  38.425   9.514
43638W        W 3075  23.164   4.224   2.691
43639W        W 3076  24.579  24.655  14.453
43640W        W 3077  11.187  14.637  11.106
43641W        W 3078  15.761  43.352   2.255
43642W        W 3079  29.103  18.210  13.548
43643W        W 3080  13.780   2.722   4.266
43644W        W 3081  26.562   8.665  14.279
43645W        W 3082  33.001  14.798   1.786
43646W        W 3083   3.429  13.216  11.979
43647W        W 3084   2.365  32.081  14.340
43648W        W 3085  43.397   3.269   4.825
43649W        W 3086  26.514  24.517  14.452
43650W        W 3087  15.267  21.667  11.580
43651W        W 3088  16.168  16.790  11.993
43652W        W 3089  44.963  28.506   2.885
43653W        W 3090  16.072   0.969  10.520
43654W        W 3091  43.452  14.598  14.493
43655W        W 3092  10.788  31.490  13.033
43656W        W 3093  26.685  11.712  13.427
43657W        W 3094  24.515   6.334   4.829
43658W        W 3095   2.946  11.269  12.392
43659W        W 3096  27.517  40.306   4.174
43660W        W 3097  21.198  29.563  12.844
43661W        W 3098  10.247  18.148  12.923
43662W        W 3099  24.630  23.668   2.184
43663W        W 3100  33.388  12.691   4.776
43664W        W 3101  21.638  36.917  13.373
43665W        W 3102  19.250  26.617  12.906
43666W        W 3103  42.927  29.012  12.415
43667W        W 3104  30.602  38.990   0.801
43668W        W 3105   4.444  32.541   4.711
43669W        W 3106  38.063   7.208   2.802
43670W        W 3107  30.960   7.303   5.286
43671W        W 3108  27.684  36.356  14.371
43672W        W 3109  19.217  21.530  12.536
43673W        W 3110   7.900   3.859   2.832
43674W        W 3111  12.197   8.674   2.223
43675W        W 3112  11.333  40.309  12.857
43676W        W 3113  38.448  36.530  14.412
43677W        W 3114  28.160  13.628   1.442
43678W        W 3115  34.512  32.966  14.358
43679W        W 3116   3.356  24.036  14.410
43680W        W 3117   4.832  25.038  11.486
43681W        W 3118  33.430  12.240   1.802
43682W        W 3119  40.517  37.510  10.120
43683W        W 3120  39.475   1.258   3.369
43684W        W 3121  43.999   1.299  12.346
43685W        W 3122  24.651  42.360   3.722
43686W        W 3123   1.349  29.958   4.278
43687W        W 3124  34.908  19.728  14.419
43688W        W 3125  17.150   8.791  10.408
43689W        W 3126  31.492  36.544   0.405
43690W        W 3127  35.914   2.865   4.617
43691W        W 3128  12.340  35.974   2.794
43692W        W 3129  12.746   3.798   2.192
43693W        W 3130  17.114  39.534   1.285
43694W        W 3131  36.481  14.132   1.800
43695W        W 3132   2.428   6.772  14.816
43696W        W 3133   2.848  24.985   3.630
43697W        W 3134  14.313  38.850  10.624
43698W        W 3135  19.090  26.987   2.778
43699W        W 3136  38.556  36.950   3.764
43700W        W 3137  16.153  41.308  11.417
43701W        W 3138  37.082  19.231  10.503
43702W        W 3139   9.730  31.031   4.827
43703W        W 3140  18.647  38.935   1.287
43704W        W 3141  27.036  26.539   3.709
43705W        W 3142  19.582  16.788  12.996
43706W        W 3143   9.757  38.443  13.940
43707W        W 3144  19.214  32.942  13.975
43708W        W 3145   9.698  32.130   4.196
43709W        W 3146  17.217  34.116  14.788
43710W        W 3147  16.176  22.542  13.487
43711W        W 3148  26.106  27.189  13.017
43712W        W 3149  29.569   2.756   2.256
43713W        W 3150  24.676   2.393   3.176
43714W        W 3151   5.235  13.654   3.682
43715W        W 3152  34.054  14.238   2.366
43716W        W 3153  41.487  12.304   0.303
43717W        W 3154  27.075  10.845   9.613
43718W        W 3155  33.510   2.321  10.509
43719W        W 3156   4.259  23.609   4.762
43720W        W 3157  22.248  36.848   1.899
43721W        W 3158  42.918  25.470  12.873
43722W        W 3159  23.620  10.675  11.495
43723W        W 3160  25.210  20.034  11.091
43724W        W 3161   4.412   3.337  11.432
43725W        W 3162  34.960  13.183   4.352
43726W        W 3163  18.666  13.240  14.908
43727W        W 3164  43.350  44.880  11.467
43728W        W 3165  22.641  40.932   0.814
43729W        W 3166  40.974   3.320   3.316
43730W        W 3167  29.459  18.626  11.372
43731W        W 3168   3.414  18.766   2.219
43732W        W 3169   7.764  44.264   3.195
43733W        W 3170  20.220  17.773   4.645
43734W        W 3171  12.719  15.190   2.234
43735W        W 3172  16.631  38.560   2.227
43736W        W 3173   6.208  27.538  12.925
43737W        W 3174  43.003   7.895   5.190
43738W        W 3175  22.193  44.911  13.847
43739W        W 3176  15.307   2.228   4.198
43740W        W 3177  36.434  15.664   5.093
43741W        W 3178  10.652  31.134  11.936
43742W        W 3179  32.512   7.711   3.175
43743W        W 3180  20.675  43.783  13.338
43744W        W 3181  34.984  20.240   1.328
43745W        W 3182  44.261  12.674   3.725
43746W        W 3183  27.531  24.089   3.749
43747W        W 3184   7.906  39.408   0.270
43748W        W 3185  28.143  25.991   3.858
43749W        W 3186  28.120   6.821   4.124
43750W        W 3187  10.230   4.858  10.963
43751W        W 3188  14.169   7.880  11.055
43752W        W 3189  11.182  19.127   4.673
43753W        W 3190  11.252  11.656  14.828
43754W        W 3191  31.111  43.936   0.345
43755W        W 3192  22.536  30.429  12.577
43756W        W 3193  25.676  29.088  14.453
43757W        W 3194  28.113  33.434   0.948
43758W        W 3195  29.154  38.468  11.949
43759W        W 3196  20.028  40.337   1.929
43760W        W 3197   0.905   0.337   4.613
43761W        W 3198  18.789  36.494  14.919
43762W        W 3199  26.130  29.059   4.188
43763W        W 3200   4.719   7.395   1.833
43764W        W 3201  16.132  19.215  12.904
43765W        W 3202  41.368  27.971  14.302
43766W        W 3203  13.794  43.497  12.398
43767W        W 3204  44.008   2.313  14.812
43768W        W 3205   3.917  27.189  14.426
43769W        W 3206   5.416  14.661  14.334
43770W        W 3207  17.241  37.451  13.476
43771W        W 3208  23.732  42.434  10.488
43772W        W 3209  37.999  38.051   0.459
43773W        W 3210   6.240  10.372  10.148
43774W        W 3211  43.857  10.150  13.479
43775W        W 3212  40.349  25.994  10.493
43776W        W 3213   1.474  36.905  11.858
43777W        W 3214  38.924  27.474   4.711
43778W        W 3215  13.651   2.396   2.868
43779W        W 3216  11.663  28.573   3.302
43780W        W 3217  16.605   1.962   4.187
43781W        W 3218  14.717  43.371   3.766
43782W        W 3219  43.843  29.428  11.122
43783W        W 3220  39.402  33.544  13.383
43784W        W 3221  26.152  29.483   1.701
43785W        W 3222  22.539   0.866   1.275
43786W        W 3223  33.599  38.894   3.785
43787W        W 3224   5.930  10.718  13.874
43788W        W 3225  29.463  25.099  11.554
43789W        W 3226  25.173  36.512  12.086
43790W        W 3227  33.093  16.269   1.727
43791W        W 3228  38.045   6.326   0.341
43792W        W 3229  15.768  30.092  12.827
43793W        W 3230   5.406  11.847   4.298
43794W        W 3231  37.338  39.425   3.320
43795W        W 3232  16.677  15.215  12.891
43796W        W 3233   6.299  14.605   0.461
43797W        W 3234   3.719  33.392   1.309
43798W        W 3235  29.643  43.986   0.481
43799W        W 3236  30.619  37.542  11.103
43800W        W 3237  22.046   0.868   0.398
43801W        W 3238  22.022  29.135  14.939
43802W        W 3239  28.549  32.393  14.334
43803W        W 3240  20.085  11.229   0.289
43804W        W 3241  18.195   6.749   1.281
43805W        W 3242  23.490   3.838  13.470
43806W        W 3243  16.634  37.960   4.701
43807W        W 3244  18.757  37.890  11.869
43808W        W 3245   6.223   4.309   3.368
43809W        W 3246  26.572  26.695  10.888
43810W        W 3247  19.588   1.878   2.253
43811W        W 3248  38.338  21.034  11.461
43812W        W 3249  36.040   3.340   3.206
43813W        W 3250  40.989   5.880   1.827
43814W        W 3251  34.950  41.448   0.909
43815W        W 3252   1.256  40.956  14.472
43816W        W 3253  15.168  14.272  12.448
43817W        W 3254  27.576  40.399  12.862
43818W        W 3255  36.852  33.441  11.969
43819W        W 3256  38.445  42.805   4.301
43820W        W 3257   0.902  38.330  10.889
43821W        W 3258  44.990  35.368  12.523
43822W        W 3259   7.177  14.125   1.903
43823W        W 3260  22.512  32.515   2.354
43824W        W 3261  20.172  20.105  12.408
43825W        W 3262  31.070  20.764  11.863
43826W        W 3263   2.341  22.720   3.862
43827W        W 3264  12.228  18.569  10.554
43828W        W 3265  13.171  18.189  10.540
43829W        W 3266   4.897  12.801  12.464
43830W        W 3267  14.700  14.815  10.901
43831W        W 3268  42.376  37.350  12.414
43832W        W 3269   8.738   6.359  10.533
43833W        W 3270  44.458   1.906   2.228
43834W        W 3271   2.746  33.002   0.458
43835W        W 3272  24.012  41.341   4.224
43836W        W 3273  24.577  16.777   4.156
43837W        W 3274   8.352   3.852  14.352
43838W        W 3275  17.273  34.880  10.451
43839W        W 3276  43.976   6.782  13.506
43840W        W 3277  33.514   5.233   1.319
43841W        W 3278  13.279   8.273  13.526
43842W        W 3279  44.949  15.129  12.997
43843W        W 3280  10.707  12.675  10.892
43844W        W 3281  38.456  37.399  13.343
43845W        W 3282  19.143  43.447   0.418
43846W        W 3283  27.040   9.694   0.848
43847W        W 3284  40.960  35.426  11.518
43848W        W 3285  28.093  38.908  12.389
43849W        W 3286  23.015  20.552  10.597
43850W        W 3287  34.420  44.842  14.499
43851W        W 3288  35.856  31.559   0.265
43852W        W 3289  19.116  33.611  13.850
43853W        W 3290  35.859  15.623  12.978
43854W        W 3291  17.152   6.830  12.473
43855W        W 3292   9.221  15.625   3.256
43856W        W 3293  30.586   9.349   0.752
43857W        W 3294  38.889   9.762   9.985
43858W        W 3295  33.009  34.540   1.356
43859W        W 3296  18.116   9.326   1.400
43860W        W 3297   7.364  14.111   3.729
43861W        W 3298  35.013  40.011   3.346
43862W        W 3299  44.502  42.817   4.666
43863W        W 3300  37.872  30.473   4.668
43864W        W 3301  16.236  19.612   0.907
43865W        W 3302   3.916   1.972   1.722
43866W        W 3303  41.469  20.607   2.303
43867W        W 3304  11.664  21.684   1.282
43868W        W 3305  41.853  12.620  10.084
43869W        W 3306  26.465   3.840   2.770
43870W        W 3307   6.284  34.569   4.642
43871W        W 3308  22.089   0.820   1.733
43872W        W 3309  31.573   7.784  12.416
43873W        W 3310  23.026  37.337   3.689
43874W        W 3311  15.617  40.801  14.471
43875W        W 3312  19.625  22.016   1.371
43876W        W 3313  27.488  23.680  10.964
43877W        W 3314  15.738  32.429  14.005
43878W        W 3315  29.027  40.039   0.353
43879W        W 3316   5.871  12.614   1.448
43880W        W 3317  38.068  33.472   4.256
43881W        W 3318  22.519  21.533   1.290
43882W        W 3319  25.199   1.909   3.833
43883W        W 3320  23.708  23.056  13.801
43884W        W 3321  18.678  10.755   0.730
43885W        W 3322   4.901  19.572  13.372
43886W        W 3323  32.458  42.901  13.912
43887W        W 3324  34.958   1.961  13.513
43888W        W 3325  16.204  19.137   4.752
43889W        W 3326  40.950   3.303  14.350
43890W        W 3327  29.043  22.154   0.906
43891W        W 3328  41.413  22.178  11.510
43892W        W 3329   7.171  13.628   4.694
43893W        W 3330  39.431   6.316   1.275
43894W        W 3331   9.883  17.162   3.824
43895W        W 3332  30.008  41.314  11.448
43896W        W 3333  42.905  36.038   3.206
43897W        W 3334  39.549  14.130  13.504
43898W        W 3335  19.179  29.596  13.513
43899W        W 3336  40.969  10.320  13.825
43900W        W 3337  36.545  22.667   1.717
43901W        W 3338  31.122  19.600  10.966
43902W        W 3339  35.517  37.866   2.832
43903W        W 3340  23.043  28.102   2.207
43904W        W 3341  44.928  43.453  10.410
43905W        W 3342  33.504   4.823   2.889
43906W        W 3343  31.613   1.447  12.046
43907W        W 3344  23.235   6.413  12.949
43908W        W 3345  42.431  40.976   3.306
43909W        W 3346  22.998  24.025  12.938
43910W        W 3347  14.675  17.565  11.013
43911W        W 3348   8.319  24.987  13.450
43912W        W 3349  16.146  36.381  13.488
43913W        W 3350  13.653  38.935   1.238
43914W        W 3351  23.604  22.562  12.487
43915W        W 3352  27.143  31.621  13.857
43916W        W 3353  28.531  19.096  11.096
43917W        W 3354  20.539  13.674  12.423
43918W        W 3355   3.226  20.115  13.363
43919W        W 3356   9.310   1.462  11.386
43920W        W 3357  40.925  21.723  14.837
43921W        W 3358  29.934  16.810  12.035
43922W        W 3359  32.592  42.480   1.822
43923W        W 3360  27.648  33.019  13.518
43924W        W 3361  34.479  32.459   2.804
43925W        W 3362  43.438  14.228  14.463
43926W        W 3363  34.003  13.723  11.508
43927W        W 3364   6.252   2.746   2.191
43928W        W 3365   0.948  33.101  14.355
43929W        W 3366  18.257  25.130  11.530
43930W        W 3367  18.072  37.065  14.427
43931W        W 3368   3.442  19.194  11.001
43932W        W 3369   1.932   8.398  12.033
43933W        W 3370  22.173  18.073  13.522
43934W        W 3371  16.245  31.990   2.196
43935W        W 3372  20.032   2.759  12.419
43936W        W 3373  16.637  15.302   4.618
43937W        W 3374  37.048  40.954  13.528
43938W        W 3375  39.544  14.616   0.942
43939W        W 3376  36.003   4.894  13.988
43940W        W 3377  24.184   7.184  14.927
43941W        W 3378  22.714   1.787   2.256
43942W        W 3379  31.009   9.309   3.191
43943W        W 3380  42.776   8.782   0.407
43944W        W 3381  12.221  39.908  13.487
43945W        W 3382  19.095  26.039  14.985
43946W        W 3383  25.578  14.191   4.207
43947W        W 3384   4.406   6.904   0.388
43948W        W 3385   5.869  25.685  14.951
43949W        W 3386  17.079  30.585   1.892
43950W        W 3387   9.353  21.060   2.834
43951W        W 3388  39.880  33.456  12.990
43952W        W 3389  26.653  24.226   0.827
43953W        W 3390  18.161   7.733  12.931
43954W        W 3391  37.003   8.860   2.383
43955W        W 3392  11.716  42.881  12.351
43956W        W 3393   3.758  22.723  11.519
43957W        W 3394  34.080  30.016  13.517
43958W        W 3395  23.168  28.963   0.737
43959W        W 3396  37.035  40.359  14.913
43960W        W 3397  37.931  39.833   3.770
43961W        W 3398  25.698   9.331   4.654
43962W        W 3399   3.810  17.731  11.930
43963W        W 3400  23.115  42.973   4.141
43964W        W 3401  43.437  17.121  11.563
43965W        W 3402  11.743  40.305  12.434
43966W        W 3403  37.872  20.131  14.840
43967W        W 3404  20.030  26.502  13.056
43968W        W 3405   8.181  32.487   0.928
43969W        W 3406  12.813   3.281  11.898
43970W        W 3407   8.268  26.688   0.963
43971W        W 3408   8.335   0.257   4.638
43972W        W 3409   0.782   4.814  14.464
43973W        W 3410  10.218   8.272  13.044
43974W        W 3411  34.483  13.816  12.414
43975W        W 3412  40.441   8.870   4.672
43976W        W 3413  31.607  15.612  13.828
43977W        W 3414   7.823  33.072  13.520
43978W        W 3415  42.977  38.431  14.880
43979W        W 3416   3.243  28.960  12.553
43980W        W 3417   0.416  39.463  10.924
43981W        W 3418  41.522  11.247  11.912
43982W        W 3419  31.481   3.239  12.013
43983W        W 3420  36.059  10.651   1.361
43984W        W 3421  31.631  42.478  11.534
43985W        W 3422  24.089   0.870   0.833
43986W        W 3423  16.143  11.202   3.182
43987W        W 3424  14.255  14.171  11.396
43988W        W 3425  22.230  41.346  12.886
43989W        W 3426  41.386  32.502   3.800
43990W        W 3427  38.031  28.954   4.788
43991W        W 3428   6.368  31.518   0.415
43992W        W 3429  37.396  12.755   4.818
43993W        W 3430  21.657  23.110  13.383
43994W        W 3431   4.215  23.128   1.281
43995W        W 3432  37.916  38.548  13.927
43996W        W 3433  23.684  20.618   1.300
43997W        W 3434   3.717  26.649  14.809
43998W        W 3435  38.407  43.987  14.289
43999W        W 3436  37.949   4.740   4.761
44000W        W 3437  39.534  43.794  14.398
44001W        W 3438  11.187  13.148  13.878
44002W        W 3439  43.450  38.819  11.124
44003W        W 3440  31.469  33.578  14.790
44004W        W 3441  41.017  16.271  13.535
44005W        W 3442  29.108  43.780  10.887
44006W        W 3443   6.414  31.554   4.650
44007W        W 3444  14.819  39.388  13.536
44008W        W 3445  37.044  39.488   3.166
44009W        W 3446  44.930  44.838   2.870
44010W        W 3447  10.687  14.827  12.839
44011W        W 3448   4.278  25.494   2.267
44012W        W 3449   2.427   5.716  10.592
44013W        W 3450   6.786  11.638   1.730
44014W        W 3451  44.849  17.629  12.388
44015W        W 3452  17.759   5.708  12.550
44016W        W 3453  43.464  38.072  12.423
44017W        W 3454  33.417  35.045   0.898
44018W        W 3455  43.423  29.565   1.916
44019W        W 3456  28.181  38.879  10.529
44020W        W 3457   9.181   3.325   4.616
44021W        W 3458  23.606  19.694   4.632
44022W        W 3459  40.968  42.503   4.739
44023W        W 3460  39.509  26.702   3.383
44024W        W 3461  34.503  30.110  10.565
44025W        W 3462  22.995  16.568   1.848
44026W        W 3463  18.639  40.491   9.507
44027W        W 3464  40.482  13.243  13.920
44028W        W 3465  26.462  25.564   5.183
44029W        W 3466  31.130  19.569  14.326
44030W        W 3467  31.910  24.112   9.535
44031W        W 3468  21.244  35.396  12.378
44032W        W 3469  36.582  13.732  14.470
44033W        W 3470  37.079  35.093   2.379
44034W        W 3471   8.327  36.546   2.719
44035W        W 3472   8.698   5.880   1.843
44036W        W 3473   8.324  37.505   0.891
44037W        W 3474  19.146  22.171   0.907
44038W        W 3475  43.020  40.041  10.004
44039W        W 3476  25.978  34.117   1.802
44040W        W 3477   3.409  11.623  12.487
44041W        W 3478   6.326   2.363  14.875
44042W        W 3479  13.319   5.375  11.462
44043W        W 3480  34.003  43.425  12.501
44044W        W 3481  25.652  20.696  14.347
44045W        W 3482   0.901   8.299  14.380
44046W        W 3483   8.298  14.620   3.680
44047W        W 3484  32.894   2.414  12.841
44048W        W 3485  20.566  37.994  11.125
44049W        W 3486  40.319  25.180   3.350
44050W        W 3487   4.787   2.928   0.940
44051W        W 3488  15.731  25.210  13.033
44052W        W 3489  36.026  37.522   2.299
44053W        W 3490  39.932  22.689  12.027
44054W        W 3491   0.918  37.405  10.073
44055W        W 3492  20.259  26.595   4.624
44056W        W 3493  13.668  31.481  14.952
44057W        W 3494  32.896   8.658   4.659
44058W        W 3495  12.762   7.778   0.819
44059W        W 3496  19.208  38.328   3.778
44060W        W 3497   8.298   1.479   2.901
44061W        W 3498   8.671   7.681   0.410
44062W        W 3499  19.253  15.107   4.176
44063W        W 3500   9.816  28.150  10.599
44064W        W 3501  40.306  19.727   9.937
44065W        W 3502  21.199  22.133  13.813
44066W        W 3503  41.488  23.531  14.801
44067W        W 3504   5.869  35.886   2.828
44068W        W 3505  39.962  16.318  11.108
44069W        W 3506  13.828  37.443   3.313
44070W        W 3507  17.693  27.155   4.216
44071W        W 3508  39.329  22.644   2.900
44072W        W 3509   2.309   1.393   2.710
44073W        W 3510   9.258   4.230  12.554
44074W        W 3511  22.551  19.284  11.034
44075W        W 3512  37.020   7.357  11.892
44076W        W 3513  40.312   0.421  10.093
44077W        W 3514  26.663  35.852  11.453
44078W        W 3515  10.321   2.932   3.386
44079W        W 3516  33.000   7.885   0.733
44080W        W 3517  38.354  43.939   4.314
44081W        W 3518  35.446  43.778  13.377
44082W        W 3519  29.050  44.327   4.826
44083W        W 3520  30.043   7.195   2.383
44084W        W 3521  16.794  23.220  11.436
44085W        W 3522  11.685  14.207  11.036
44086W        W 3523  42.847  17.786  12.837
44087W        W 3524  38.376  33.433  11.433
44088W        W 3525   4.748  25.056   9.584
44089W        W 3526   9.257  35.501   1.419
44090W        W 3527  42.966  42.894  14.861
44091W        W 3528   5.322  10.870  10.914
44092W        W 3529  15.620  26.597   3.866
44093W        W 3530   4.417   4.744   3.182
44094W        W 3531  43.836   0.464  14.861
44095W        W 3532   0.282  25.147  13.869
44096W        W 3533  20.656  12.835   0.303
44097W        W 3534  15.258   9.313   3.189
44098W        W 3535  13.150  11.727  14.030
44099W        W 3536  38.470  17.163  13.820
44100W        W 3537  39.922  19.250   1.214
44101W        W 3538  35.425   4.445  11.427
44102W        W 3539  36.054  34.417  14.931
44103W        W 3540  41.901  24.209   0.444
44104W        W 3541  32.621  28.675   2.871
44105W        W 3542  30.958  31.955  10.142
44106W        W 3543  21.163  36.406  12.578
44107W        W 3544  12.320  31.429  10.607
44108W        W 3545  16.684   0.781  12.405
44109W        W 3546   8.379  42.962  11.564
44110W        W 3547  21.083   0.399   3.757
44111W        W 3548  20.587  22.609   5.102
44112W        W 3549  20.727  19.193   1.841
44113W        W 3550  11.771   9.825   4.165
44114W        W 3551   2.866  33.043   1.266
44115W        W 3552   3.329  40.497   3.816
44116W        W 3553   9.792  41.324   0.299
44117W        W 3554  28.151   8.372   1.823
44118W        W 3555  21.686  22.745  12.001
44119W        W 3556  30.937  30.064  11.959
44120W        W 3557   9.852   4.785   2.189
44121W        W 3558  12.828   0.792  13.497
44122W        W 3559   0.489  16.212  12.439
44123W        W 3560  27.530  25.560  11.926
44124W        W 3561   8.732   8.767   4.199
44125W        W 3562  18.668  43.973  13.795
44126W        W 3563   8.713   9.787   1.411
44127W        W 3564   5.214  30.540  13.820
44128W        W 3565   5.928  14.095   0.262
44129W        W 3566  17.661  21.723  11.579
44130W        W 3567  25.659   1.383   3.673
44131W        W 3568  31.148  34.528  10.517
44132W        W 3569  23.559  33.045   1.838
44133W        W 3570   1.897  12.844   2.827
44134W        W 3571  44.310  29.946  13.480
44135W        W 3572   0.456  20.709  11.969
44136W        W 3573  19.080  18.133  10.016
44137W        W 3574  20.138  29.040   0.910
44138W        W 3575   9.737  44.404   4.681
44139W        W 3576   1.436  25.518   0.786
44140W        W 3577  13.652  22.704  10.480
44141W        W 3578   9.311   5.825   1.261
44142W        W 3579   1.452  24.004   1.249
44143W        W 3580  21.642  38.866  12.086
44144W        W 3581  34.408  41.021   5.780
44145W        W 3582  16.309  17.243   5.101
44146W        W 3583   4.214  27.503  13.528
44147W        W 3584  24.156  12.632   0.248
44148W        W 3585   0.888   7.844   3.200
44149W        W 3586  39.930  39.831  14.981
44150W        W 3587  22.627  39.552  10.620
44151W        W 3588   7.390  16.116  10.568
44152W        W 3589  22.244  14.254  11.447
44153W        W 3590  19.638  26.596  13.530
44154W        W 3591  12.816  23.650   1.292
44155W        W 3592  21.149  10.329   4.233
44156W        W 3593  30.026  14.826  11.949
44157W        W 3594  24.013  15.663   2.246
44158W        W 3595   9.739  27.090  13.405
44159W        W 3596   2.258  43.943   2.859
44160W        W 3597   9.221  27.634   3.808
44161W        W 3598   6.835  19.169   2.729
44162W        W 3599  30.506  17.754   4.797
44163W        W 3600   0.266  25.504  11.562
44164W        W 3601  11.260  17.204  12.006
44165W        W 3602  24.992  36.917   3.824
44166W        W 3603  29.153   6.703   2.363
44167W        W 3604   1.848  32.503  12.532
44168W        W 3605  20.576  42.956  12.538
44169W        W 3606  13.231  21.033  10.569
44170W        W 3607  20.672   9.296   3.682
44171W        W 3608  42.809  28.065   1.315
44172W        W 3609  33.571  21.117   5.170
44173W        W 3610  38.821  29.631  12.499
44174W        W 3611  16.147  16.655  11.103
44175W        W 3612  20.079  10.355  10.551
44176W        W 3613  12.790  26.083   3.320
44177W        W 3614  19.165  34.389   2.691
44178W        W 3615  27.952  29.660   0.957
44179W        W 3616  31.998  14.095   5.223
44180W        W 3617  40.928  28.148  10.491
44181W        W 3618   7.209  31.610   1.759
44182W        W 3619  18.599   1.376   0.805
44183W        W 3620   3.254   1.332  14.889
44184W        W 3621  35.935  13.313  13.372
44185W        W 3622  12.260   2.912   0.870
44186W        W 3623  39.886  15.146   3.252
44187W        W 3624  33.619   6.385   0.303
44188W        W 3625  39.319  12.830   1.337
44189W        W 3626  16.725  42.875   1.875
44190W        W 3627  22.514  44.281   3.316
44191W        W 3628  17.256   5.411   1.827
44192W        W 3629   6.677  12.727   2.720
44193W        W 3630  24.088  34.876   2.858
44194W        W 3631  36.438   1.477  10.493
44195W        W 3632  15.098  14.152  10.893
44196W        W 3633  23.998   3.731   0.967
44197W        W 3634  33.048  20.641   3.268
44198W        W 3635  33.113  38.001   1.424
44199W        W 3636  33.530  15.293   3.769
44200W        W 3637   0.405  22.187   4.287
44201W        W 3638   9.164   8.365   2.830
44202W        W 3639  17.151  36.544   4.812
44203W        W 3640  39.388  38.550   3.709
44204W        W 3641   4.865   9.388   1.717
44205W        W 3642  36.570  43.478   4.129
44206W        W 3643   6.211   1.341  12.043
44207W        W 3644  24.636   9.760   3.651
44208W        W 3645  40.934  34.972  12.455
44209W        W 3646  43.001  22.678  12.075
44210W        W 3647  14.736  32.451   1.711
44211W        W 3648  38.855  28.997   2.706
44212W        W 3649  17.714  36.094   2.857
44213W        W 3650  43.786  35.436  10.973
44214W        W 3651  24.200  28.436   3.151
44215W        W 3652  43.948  33.540  13.887
44216W        W 3653  23.589  18.634   1.361
44217W        W 3654  17.199  43.884   3.775
44218W        W 3655   6.211  40.993  12.360
44219W        W 3656  28.454  36.936  13.355
44220W        W 3657  17.290  38.027   1.898
44221W        W 3658  13.181  15.718   3.212
44222W        W 3659  18.051  41.954   1.849
44223W        W 3660  34.100   2.289  13.336
44224W        W 3661  14.250   3.447   3.348
44225W        W 3662  43.893  12.750   2.871
44226W        W 3663  16.271  34.039  14.405
44227W        W 3664  43.899  36.029  13.851
44228W        W 3665   5.857  30.490   4.150
44229W        W 3666   9.762  21.056   3.233
44230W        W 3667  19.198   1.842   2.901
44231W        W 3668   7.327  44.951   2.330
44232W        W 3669  18.749   3.807  14.798
44233W        W 3670   6.404  22.189  14.313
44234W        W 3671  21.741  35.499  10.564
44235W        W 3672  30.108   2.399  13.903
44236W        W 3673   9.200  23.108   3.163
44237W        W 3674  21.034  13.790   4.752
44238W        W 3675  35.891  25.558  11.492
44239W        W 3676  11.197  10.345   1.740
44240W        W 3677   2.842  37.346  14.918
44241W        W 3678   9.884  30.558   4.259
44242W        W 3679  19.118   4.219  13.800
44243W        W 3680   8.727  19.682  10.406
44244W        W 3681  41.470   0.899  13.369
44245W        W 3682  12.848   1.332   4.819
44246W        W 3683  10.356  24.112  10.592
44247W        W 3684   2.874  43.288  13.800
44248W        W 3685  35.514  29.631  12.446
44249W        W 3686  19.171  28.454  14.431
44250W        W 3687  19.580  12.283   1.413
44251W        W 3688   5.873  42.782   2.346
44252W        W 3689  29.517   4.943  13.933
44253W        W 3690  21.527  36.928  11.590
44254W        W 3691  29.609  10.813  12.365
44255W        W 3692  28.100   8.892  13.845
44256W        W 3693   3.219   4.434   2.226
44257W        W 3694  28.041  19.738  13.314
44258W        W 3695  32.023  25.658  12.898
44259W        W 3696  29.001   5.421   3.645
44260W        W 3697  25.573   0.412   2.793
44261W        W 3698   8.289   8.794   0.462
44262W        W 3699  21.706  30.554   3.349
44263W        W 3700  40.839  28.041  12.860
44264W        W 3701  30.910  28.501  12.075
44265W        W 3702  27.458  31.495   2.884
44266W        W 3703   2.884   4.705   0.356
44267W        W 3704  30.034  43.911  14.006
44268W        W 3705  43.473  36.461  12.365
44269W        W 3706  19.169  27.005   0.901
44270W        W 3707  17.695   5.291  12.545
44271W        W 3708  17.110  32.138   4.664
44272W        W 3709   6.723   7.743  10.938
44273W        W 3710  41.514  35.543  13.485
44274W        W 3711  37.063  39.371   1.893
44275W        W 3712   0.286  18.772  14.030
44276W        W 3713  31.585  22.097  14.432
44277W        W 3714   9.786  12.329  12.059
44278W        W 3715  14.095  42.964  11.091
44279W        W 3716  21.726   2.369  12.970
44280W        W 3717  36.052   9.808  11.484
44281W        W 3718  33.997  13.318  11.864
44282W        W 3719  24.028  23.234  11.989
44283W        W 3720  33.517  32.011  13.415
44284W        W 3721  22.542  16.074  14.372
44285W        W 3722  26.068  23.095   5.205
44286W        W 3723  15.785  21.229  12.456
44287W        W 3724  31.497  39.440  10.133
44288W        W 3725   2.259   6.234   0.437
44289W        W 3726  25.148  16.773   0.403
44290W        W 3727  11.862   3.913   2.298
44291W        W 3728  44.924  23.999  13.459
44292W        W 3729   1.282  24.205   1.910
44293W        W 3730  16.622   1.323   3.196
44294W        W 3731  29.483  31.536   2.307
44295W        W 3732   7.786  18.631   2.848
44296W        W 3733   6.189  20.031  11.556
44297W        W 3734  35.518  27.460   3.325
44298W        W 3735  25.165  44.302   5.211
44299W        W 3736  34.469   6.695  12.928
44300W        W 3737  29.153  33.041  13.370
44301W        W 3738  14.597  14.657   2.726
44302W        W 3739  34.118  13.149   4.331
44303W        W 3740  10.241  17.592  12.024
44304W        W 3741  22.042  35.498   1.724
44305W        W 3742  24.568  16.263   0.775
44306W        W 3743   5.831  10.775   1.325
44307W        W 3744   2.298  15.128   0.926
44308W        W 3745  10.691  34.002   1.867
44309W        W 3746  44.980  37.985  11.952
44310W        W 3747  31.042  40.858  13.407
44311W        W 3748  34.614  17.264   3.292
44312W        W 3749  15.744  32.508   0.906
44313W        W 3750  15.257  25.126  14.291
44314W        W 3751  19.186   6.347   0.839
44315W        W 3752   6.225  33.408   2.373
44316W        W 3753  24.003   8.235  11.565
44317W        W 3754  42.411   4.781  14.871
44318W        W 3755  37.528  30.957  13.832
44319W        W 3756  44.318  16.230   2.307
44320W        W 3757  25.480  29.616  12.365
44321W        W 3758  40.844  38.054   1.864
44322W        W 3759  12.262  11.709   2.181
44323W        W 3760   0.262  20.213  12.351
44324W        W 3761  10.235   8.664   4.158
44325W        W 3762   7.858   4.836  11.420
44326W        W 3763  16.176  44.394  14.881
44327W        W 3764  41.932  14.591  10.924
44328W        W 3765  23.055  17.290   1.251
44329W        W 3766   7.385  44.376   3.287
44330W        W 3767  11.696  15.764   0.258
44331W        W 3768  18.087   9.764   4.772
44332W        W 3769  37.337  24.216   3.177
44333W        W 3770  33.010  20.157  14.814
44334W        W 3771   9.313   1.456   4.217
44335W        W 3772  24.723   1.829  11.927
44336W        W 3773  37.894  40.395  11.501
44337W        W 3774  19.775  32.583   3.836
44338W        W 3775  24.158  31.130   0.756
44339W        W 3776  43.411   9.340  13.388
44340W        W 3777  10.153  12.253   0.763
44341W        W 3778   3.406   5.399   2.195
44342W        W 3779  43.387  25.062  14.939
44343W        W 3780  29.602  38.855  12.417
44344W        W 3781  35.456  35.576  13.517
44345W        W 3782  43.991  26.990  13.361
44346W        W 3783  15.298  15.303   0.355
44347W        W 3784  40.488  32.108   2.331
44348W        W 3785  29.024  32.637  13.412
44349W        W 3786  11.169  33.458   4.233
44350W        W 3787  11.662  36.039  14.948
44351W        W 3788  37.075  37.375  12.397
44352W        W 3789   1.850  13.327   1.828
44353W        W 3790  31.084  26.554  13.860
44354W        W 3791  22.720   5.692  12.482
44355W        W 3792  14.762  31.614   2.758
44356W        W 3793  16.177  31.510   2.755
44357W        W 3794  22.123  16.269  12.892
44358W        W 3795  24.977  36.386   2.677
44359W        W 3796  38.417  43.900  12.982
44360W        W 3797   3.365  26.049  13.957
44361W        W 3798  18.661   8.851   4.793
44362W        W 3799  15.662  25.607  11.989
44363W        W 3800  19.713  20.653  12.448
44364W        W 3801  26.642  42.984   0.945
44365W        W 3802  36.577  11.724   3.377
44366W        W 3803  31.488  26.587  14.383
44367W        W 3804  40.453   3.255  12.516
44368W        W 3805  34.408  15.681   0.249
44369W        W 3806  38.338  19.585   2.311
44370W        W 3807  26.607  16.573  11.012
44371W        W 3808  36.856   3.451  12.044
44372W        W 3809  39.893  44.379  13.314
44373W        W 3810  38.475  37.392  14.288
44374W        W 3811  30.437  36.964   3.302
44375W        W 3812   9.782  39.022  12.847
44376W        W 3813  38.511  29.628  12.546
44377W        W 3814   9.704  19.060  10.598
44378W        W 3815  28.084  33.922   2.766
44379W        W 3816  36.971  35.543  13.975
44380W        W 3817   9.257  34.117   0.905
44381W        W 3818  36.438  28.436   2.695
44382W        W 3819  19.057  15.650   1.430
44383W        W 3820  32.916  29.930  10.404
44384W        W 3821  35.922  11.218   4.697
44385W        W 3822  33.416   1.893  13.358
44386W        W 3823  41.488  10.145   3.234
44387W        W 3824  41.902  31.417   3.283
44388W        W 3825  14.153  40.954   3.831
44389W        W 3826  13.230  13.124  10.929
44390W        W 3827  44.788  44.305   1.326
44391W        W 3828  30.511   7.838   3.262
44392W        W 3829  38.987  18.262  12.435
44393W        W 3830  14.826  26.674   5.160
44394W        W 3831   9.295  24.030   1.753
44395W        W 3832  14.802  29.148   2.339
44396W        W 3833  23.196  30.560  10.592
44397W        W 3834  34.553  43.465   0.313
44398W        W 3835  16.687  11.250   0.913
44399W        W 3836  22.198   5.221  12.847
44400W        W 3837  30.067  13.303  13.829
44401W        W 3838  41.937  40.415   0.814
44402W        W 3839  15.680  27.669  10.432
44403W        W 3840  35.549  35.362   4.672
44404W        W 3841  19.624   8.406   0.953
44405W        W 3842  44.308   8.730  14.467
44406W        W 3843   3.271  42.022  13.490
44407W        W 3844   6.842  21.648   2.295
44408W        W 3845   7.849  39.907  13.868
44409W        W 3846  34.445  17.569   1.398
44410W        W 3847  25.531  34.404   0.250
44411W        W 3848  18.677  27.572  11.544
44412W        W 3849  19.752  19.089   3.186
44413W        W 3850  36.868  10.282  13.431
44414W        W 3851  44.850  40.896   4.185
44415W        W 3852  37.943  40.035  11.385
44416W        W 3853   0.357  33.952  14.878
44417W        W 3854  14.226  10.223  12.082
44418W        W 3855  17.779  12.355  13.839
44419W        W 3856   5.899   6.851   1.347
44420W        W 3857  44.315   6.747  11.884
44421W        W 3858  23.531   0.471   3.747
44422W        W 3859  32.545  43.892  14.508
44423W        W 3860  10.316  12.788  11.939
44424W        W 3861   8.730  38.985   3.757
44425W        W 3862  21.592  29.536  12.956
44426W        W 3863  22.725  18.057   0.802
44427W        W 3864   7.172  38.862  12.025
44428W        W 3865  12.713   0.815  13.871
44429W        W 3866  27.606  29.171   4.135
44430W        W 3867  37.497  22.240  10.591
44431W        W 3868   8.264  14.684   1.338
44432W        W 3869  13.324  29.037  14.809
44433W        W 3870  20.535  33.546  11.031
44434W        W 3871  38.073  27.666   2.237
44435W        W 3872  33.452  28.631  14.495
44436W        W 3873  42.934  20.197  11.987
44437W        W 3874   4.450  21.715  14.806
44438W        W 3875  13.743   1.944  11.952
44439W        W 3876  21.714  13.846   4.196
44440W        W 3877  16.149  26.543   0.933
44441W        W 3878  12.275  21.178   1.310
44442W        W 3879  22.062  34.491  12.460
44443W        W 3880  19.539   2.317   1.776
44444W        W 3881  39.937   4.699   4.726
44445W        W 3882  30.913  35.868  11.906
44446W        W 3883  41.927  34.934  12.066
44447W        W 3884   6.201  10.344  10.931
44448W        W 3885  12.742   6.236   4.701
44449W        W 3886  14.153  32.551  14.874
44450W        W 3887  35.415  41.815  14.370
44451W        W 3888   1.879  32.926   3.316
44452W        W 3889  43.457  22.167   2.231
44453W        W 3890  12.123   3.300   3.176
44454W        W 3891  37.007  41.008   0.483
44455W        W 3892  29.621  43.797  12.346
44456W        W 3893  33.391   0.286   1.385
44457W        W 3894  29.425  12.246   3.663
44458W        W 3895  37.071  43.344  11.450
44459W        W 3896   2.815  33.531  11.552
44460W        W 3897   5.280  36.556   2.356
44461W        W 3898   0.485   4.224   1.929
44462W        W 3899   2.227  34.049  12.932
44463W        W 3900   0.332  25.176  10.540
44464W        W 3901  26.176  32.109  11.924
44465W        W 3902   7.342  15.742  14.887
44466W        W 3903  16.171  21.749  10.981
44467W        W 3904  12.815  23.580  14.941
44468W        W 3905  29.565  16.759   3.261
44469W        W 3906  34.543   7.824  11.113
44470W        W 3907  39.903   8.246   3.208
44471W        W 3908  17.185  28.140  13.342
44472W        W 3909   1.832  19.225  11.050
44473W        W 3910   4.783  43.018   4.177
44474W        W 3911  21.599  39.835  14.894
44475W        W 3912  43.286   4.804   1.348
44476W        W 3913  40.963  20.116  13.875
44477W        W 3914  32.126  37.974   3.833
44478W        W 3915  25.572  33.498  14.922
44479W        W 3916  13.738  38.881  11.510
44480W        W 3917   3.429  26.679   2.682
44481W        W 3918  43.950  44.427   3.808
44482W        W 3919  21.555  12.822  10.926
44483W        W 3920  43.385   7.753  14.427
44484W        W 3921  17.157   0.936  12.071
44485W        W 3922  31.483  27.630   5.789
44486W        W 3923  35.996  27.113  13.039
44487W        W 3924  18.086   4.896  14.500
44488W        W 3925  44.489  40.526  12.366
44489W        W 3926  39.324  38.535  11.467
44490W        W 3927  39.371  44.377   0.441
44491W        W 3928   8.361  33.036   0.352
44492W        W 3929  24.012  29.665  12.882
44493W        W 3930  34.105  21.708   3.175
44494W        W 3931  28.146   9.294  13.477
44495W        W 3932  33.461  11.352   0.451
44496W        W 3933  15.249  24.215  13.974
44497W        W 3934  24.103  35.102  14.356
44498W        W 3935  11.337  39.987   4.222
44499W        W 3936  28.183  38.487  13.014
44500W        W 3937  10.376   2.939  10.632
44501W        W 3938  34.024  40.381   1.316
44502W        W 3939   9.324  39.842   1.876
44503W        W 3940  29.081  11.764  13.897
44504W        W 3941  10.226  41.314  10.573
44505W        W 3942  31.967  39.978  14.866
44506W        W 3943   3.737  10.375   4.153
44507W        W 3944  37.024  23.090  14.398
44508W        W 3945  16.733   8.819   1.706
44509W        W 3946  25.170  42.383  10.482
44510W        W 3947  33.905  16.141  11.901
44511W        W 3948   2.770  29.572  12.580
44512W        W 3949  30.934  44.787  10.945
44513W        W 3950  31.527   9.372  11.026
44514W        W 3951  24.504  23.130   9.935
44515W        W 3952  27.042  26.080  10.642
44516W        W 3953  33.125  17.646   3.286
44517W        W 3954  26.497  28.145   1.829
44518W        W 3955  41.528  25.610  10.892
44519W        W 3956  20.059   0.274  11.859
44520W        W 3957  44.284  18.697   0.818
44521W        W 3958  20.610  10.642  14.800
44522W        W 3959  39.447  17.257  11.453
44523W        W 3960  21.081  22.011   0.931
44524W        W 3961  26.031  12.362   4.127
44525W        W 3962  15.256  16.227  11.556
44526W        W 3963  33.121  15.748  12.965
44527W        W 3964  25.691  31.146   0.324
44528W        W 3965   5.388  30.071  11.461
44529W        W 3966   6.384  24.030   1.390
44530W        W 3967  13.671  27.661  11.072
44531W        W 3968  19.661  44.771   3.210
44532W        W 3969   8.802  29.430  14.404
44533W        W 3970  25.172  35.919   2.316
44534W        W 3971  37.551  39.443  14.513
44535W        W 3972  32.545   1.849   1.822
44536W        W 3973  29.586  32.988   3.692
44537W        W 3974   6.193  26.552   0.866
44538W        W 3975  13.645  39.430   1.220
44539W        W 3976  35.109  35.357   4.801
44540W        W 3977  20.627  41.942  11.975
44541W        W 3978  19.576  18.675  12.078
44542W        W 3979  35.088  34.553   3.749
44543W        W 3980  30.965  32.912   0.262
44544W        W 3981  11.139   4.373   1.914
44545W        W 3982   8.714  28.562   9.634
44546W        W 3983   5.424  37.548  12.990
44547W        W 3984   9.354  23.654  11.951
44548W        W 3985  24.528  38.823  11.909
44549W        W 3986  31.044  38.963   0.412
44550W        W 3987  16.308  34.986  13.939
44551W        W 3988   6.878  42.921  13.325
44552W        W 3989   5.729  27.550   4.328
44553W        W 3990   8.314  42.438   1.780
44554W        W 3991  33.500  19.282  10.977
44555W        W 3992  32.412  10.859   2.200
44556W        W 3993  22.071  36.464  12.503
44557W        W 3994   0.489  44.437  12.042
44558W        W 3995   3.278  20.226  13.980
44559W        W 3996  28.054  18.667  13.447
44560W        W 3997  16.268  38.969  14.400
44561W        W 3998  32.573  29.649   1.867
44562W        W 3999   8.266  41.924   0.885
44563W        W 4000   9.345  27.495  10.080
44564W        W 4001  32.909   2.297  11.569
44565W        W 4002  34.560  44.891  10.932
44566W        W 4003  42.806   5.408   1.329
44567W        W 4004  13.132  27.190   0.384
44568W        W 4005  19.069  21.213   9.574
44569W        W 4006   3.755  31.509  10.919
44570W        W 4007  29.451  14.292   1.213
44571W        W 4008  13.707  42.023   0.943
44572W        W 4009  19.550  13.224  10.944
44573W        W 4010  39.431  14.758  13.059
44574W        W 4011  43.828  36.854  14.846
44575W        W 4012   5.311  34.052   3.819
44576W        W 4013  28.999  40.979   4.295
44577W        W 4014   8.304   8.739  10.453
44578W        W 4015  24.073  16.671  14.809
44579W        W 4016  17.801  31.452  12.068
44580W        W 4017  38.842  38.540  13.534
44581W        W 4018  21.691  12.182  12.003
44582W        W 4019  22.193  38.375   1.416
44583W        W 4020  18.088  38.009  11.108
44584W        W 4021  36.085  17.222   1.346
44585W        W 4022  19.572   1.733  14.919
44586W        W 4023  43.440   5.278  10.942
44587W        W 4024  10.311  17.152   1.833
44588W        W 4025  22.101  33.983  12.083
44589W        W 4026   9.154   3.726  11.482
44590W        W 4027  44.398   7.687   0.817
44591W        W 4028   1.905  10.876   2.891
44592W        W 4029  43.851  35.520   9.532
44593W        W 4030  41.999  17.305   3.642
44594W        W 4031   4.327  44.276   0.889
44595W        W 4032  22.516  38.487   2.828
44596W        W 4033  21.566  25.171  12.559
44597W        W 4034  37.987  32.488   4.776
44598W        W 4035  31.072  16.693  14.773
44599W        W 4036  42.888  41.335  11.027
44600W        W 4037  32.490  42.979   2.694
44601W        W 4038  28.082  31.916  13.058
44602W        W 4039  13.246  35.470   0.921
44603W        W 4040  44.323  38.428   9.596
44604W        W 4041  15.684  10.668  12.991
44605W        W 4042  36.502  18.089  12.935
44606W        W 4043   8.730  11.738  13.433
44607W        W 4044  27.625  42.831  12.545
44608W        W 4045  11.633  30.022   1.309
44609W        W 4046  23.675  12.257  13.547
44610W        W 4047   9.329  38.063   4.709
44611W        W 4048  40.350  36.364   3.808
44612W        W 4049   2.853   9.315  11.870
44613W        W 4050  18.193  10.210  14.365
44614W        W 4051  27.103  18.563  11.871
44615W        W 4052  28.572   6.339   4.338
44616W        W 4053   4.333  30.619  13.002
44617W        W 4054  26.698  33.037  11.927
44618W        W 4055  28.049  12.733  11.925
44619W        W 4056  42.352  19.243  12.343
44620W        W 4057  26.660   7.726  11.481
44621W        W 4058   2.734  38.922  13.959
44622W        W 4059  10.659  15.622  12.844
44623W        W 4060  30.956  36.904  14.352
44624W        W 4061   2.435  21.652   2.191
44625W        W 4062  27.133  26.540   5.082
44626W        W 4063  22.020  12.219   3.254
44627W        W 4064   0.968  38.974  11.563
44628W        W 4065   2.836  41.528  13.842
44629W        W 4066  44.777  12.339  12.833
44630W        W 4067  30.416  22.250   2.855
44631W        W 4068   1.947   9.334  11.913
44632W        W 4069  41.382  13.270  10.533
44633W        W 4070  13.691   7.194  10.512
44634W        W 4071  41.529   7.363   4.782
44635W        W 4072  42.299  11.273  13.318
44636W        W 4073  23.654  18.237   1.428
44637W        W 4074  15.809   7.793   9.969
44638W        W 4075  29.569  11.153  13.012
44639W        W 4076  26.585  31.550  13.345
44640W        W 4077  22.130  30.604  12.865
44641W        W 4078  37.545  27.605   2.711
44642W        W 4079   8.735  16.724   0.357
44643W        W 4080   3.221  13.711   2.212
44644W        W 4081  35.061  28.678   4.259
44645W        W 4082   2.757  39.329  12.342
44646W        W 4083   3.864  32.986   1.831
44647W        W 4084  29.551  40.304  13.470
44648W        W 4085  31.018  12.277  11.509
44649W        W 4086  19.591  35.444  12.382
44650W        W 4087  21.670  35.498  12.389
44651W        W 4088  37.564  25.166   0.257
44652W        W 4089  42.524  38.969  13.919
44653W        W 4090  21.206   4.935  13.819
44654W        W 4091  11.682  32.532  12.365
44655W        W 4092  31.921  42.838   1.763
44656W        W 4093   8.798  44.404  13.845
44657W        W 4094   9.663   2.904  14.832
44658W        W 4095  36.571  15.791   3.211
44659W        W 4096  39.838   8.800   0.784
44660W        W 4097  14.736  40.800   9.472
44661W        W 4098  34.912   4.384   4.707
44662W        W 4099  37.032  24.647   2.318
44663W        W 4100  43.326  35.947  14.342
44664W        W 4101  41.917  22.594   0.947
44665W        W 4102  38.347  16.104   2.201
44666W        W 4103  22.584  30.156   2.839
44667W        W 4104  10.195  27.594   0.243
44668W        W 4105  43.948  12.758   3.812
44669W        W 4106  36.434  27.103  12.037
44670W        W 4107  42.280  41.400   3.664
44671W        W 4108  21.624   1.825   1.872
44672W        W 4109  20.677  11.795  13.990
44673W        W 4110  17.757  10.649   3.840
44674W        W 4111  33.523  40.460   3.731
44675W        W 4112  36.942  33.904  10.977
44676W        W 4113  27.175   5.229  14.959
44677W        W 4114  17.580  26.011  12.944
44678W        W 4115  44.477  14.601  11.481
44679W        W 4116  38.880  36.451   0.288
44680W        W 4117  36.393  13.197   2.901
44681W        W 4118  28.585  33.428   3.827
44682W        W 4119  13.270   5.224   1.345
44683W        W 4120  24.691  32.390  12.955
44684W        W 4121   8.290  43.330   2.709
44685W        W 4122   4.852  44.348   2.802
44686W        W 4123  38.890  41.896  10.624
44687W        W 4124  42.032   5.433   3.296
44688W        W 4125  10.271   9.653   1.834
44689W        W 4126  23.032  21.023   0.254
44690W        W 4127  35.034   1.935   5.215
44691W        W 4128  34.374   2.877  13.029
44692W        W 4129  16.186  22.070   2.717
44693W        W 4130  35.106  22.207   2.403
44694W        W 4131  39.951  21.146   5.219
44695W        W 4132  15.169   5.934   4.285
44696W        W 4133  17.734  38.410  13.346
44697W        W 4134  29.016   3.217   5.104
44698W        W 4135  19.247  19.068  10.979
44699W        W 4136   7.396   0.297   4.648
44700W        W 4137  32.886  37.973   1.918
44701W        W 4138  36.403  35.514   2.255
44702W        W 4139   3.769  27.679  10.924
44703W        W 4140  44.377  18.649   4.681
44704W        W 4141   2.366   9.796   2.186
44705W        W 4142   1.404  18.268   4.707
44706W        W 4143  28.972  43.835  14.360
44707W        W 4144  29.514  26.033  14.486
44708W        W 4145   8.797  30.096   2.743
44709W        W 4146   5.319   5.361  13.851
44710W        W 4147  16.112  14.699  11.471
44711W        W 4148   2.445  33.056  10.639
44712W        W 4149  21.032  27.454   3.165
44713W        W 4150  18.054   3.347   1.762
44714W        W 4151  19.670  37.348   3.255
44715W        W 4152  29.136  30.159   3.387
44716W        W 4153  21.549   7.771   1.268
44717W        W 4154   7.723   9.151   4.263
44718W        W 4155  32.039   6.424   1.258
44719W        W 4156   9.315  21.610  14.870
44720W        W 4157  28.081  29.518   2.233
44721W        W 4158  34.375  35.459  14.027
44722W        W 4159  38.543  28.633  13.866
44723W        W 4160  30.956   8.759  12.925
44724W        W 4161  23.035  21.733  10.955
44725W        W 4162   2.294  41.406  10.420
44726W        W 4163  35.588  15.257   4.777
44727W        W 4164   5.785  16.679   3.217
44728W        W 4165  38.882  13.747   1.291
44729W        W 4166  21.247  17.644   0.387
44730W        W 4167   5.770  10.725   2.782
44731W        W 4168  18.129   7.783  12.065
44732W        W 4169   4.204  39.357   3.228
44733W        W 4170  10.640  33.596   4.640
44734W        W 4171  21.204  41.819   1.273
44735W        W 4172  18.124  38.834  13.906
44736W        W 4173  12.237  23.229  10.568
44737W        W 4174  19.285  13.308   4.305
44738W        W 4175   4.819  30.972   1.376
44739W        W 4176  12.638  39.921  13.393
44740W        W 4177  12.237  12.191   1.273
44741W        W 4178  14.669  42.973   2.287
44742W        W 4179  18.161  16.300   2.309
44743W        W 4180  25.196  44.401   3.802
44744W        W 4181  41.952   2.749   4.304
44745W        W 4182  38.019  27.174  11.390
44746W        W 4183  41.395   7.697  13.978
44747W        W 4184  10.858  23.673   4.664
44748W        W 4185  40.006   0.985  13.984
44749W        W 4186  22.106   0.381  11.987
44750W        W 4187  21.235  29.596   4.829
44751W        W 4188  10.710  19.602   4.753
44752W        W 4189   5.240  39.324  11.070
44753W        W 4190  21.158  13.265  14.313
44754W        W 4191   0.875   1.756  11.374
44755W        W 4192   4.227  25.033   0.258
44756W        W 4193   8.232  14.190   1.895
44757W        W 4194  39.404   4.410  14.304
44758W        W 4195  16.225   8.736  10.512
44759W        W 4196  31.441   8.314   4.327
44760W        W 4197   5.854  44.339   3.198
44761W        W 4198  28.945   8.845  12.964
44762W        W 4199  19.226  19.561  13.884
44763W        W 4200  39.396  35.373  10.988
44764W        W 4201  18.672   9.739   0.354
44765W        W 4202  44.466  44.481   1.415
44766W        W 4203  38.539  15.621   1.729
44767W        W 4204   7.359   0.872  12.385
44768W        W 4205   4.318  20.049  14.411
44769W        W 4206  31.426  16.288  13.535
44770W        W 4207  19.125   8.298   2.294
44771W        W 4208  26.987  37.465  10.967
44772W        W 4209  35.931  22.575  12.094
44773W        W 4210  39.422  16.088   0.831
44774W        W 4211  36.367  25.966  11.994
44775W        W 4212  17.225  29.027   3.300
44776W        W 4213  18.733  39.034  14.354
44777W        W 4214  38.993  32.530  13.495
44778W        W 4215   5.301  34.510   0.416
44779W        W 4216  20.621  21.570   2.719
44780W        W 4217  23.614  11.799  12.080
44781W        W 4218  42.448   2.301   4.285
44782W        W 4219  14.642  39.853  11.927
44783W        W 4220  36.526  38.332   3.245
44784W        W 4221  17.229  30.034   0.849
44785W        W 4222   3.400  37.944  11.889
44786W        W 4223   9.358  36.349   4.810
44787W        W 4224   6.202  16.690   0.933
44788W        W 4225  21.050  44.006   3.363
44789W        W 4226  37.534  17.645  12.996
44790W        W 4227  18.116  26.034   4.784
44791W        W 4228  44.344  35.427  14.787
44792W        W 4229  44.960  42.309   2.207
44793W        W 4230  32.516  44.848  12.489
44794W        W 4231   0.460  13.701   4.738
44795W        W 4232  42.459  31.936  12.947
44796W        W 4233  26.629  35.559  13.371
44797W        W 4234  30.010  20.033   2.685
44798W        W 4235  30.490  25.078   1.253
44799W        W 4236  35.392   6.210   1.219
44800W        W 4237  30.413  41.380  11.011
44801W        W 4238   5.350  40.941  13.400
44802W        W 4239  27.147   8.201   4.795
44803W        W 4240  31.588  31.452  12.912
44804W        W 4241  17.227  35.374   4.618
44805W        W 4242  34.086  39.917  13.436
44806W        W 4243  15.811  18.260  11.080
44807W        W 4244   9.853  43.493  10.404
44808W        W 4245  38.885  25.673   4.127
44809W        W 4246  14.744  16.633   4.267
44810W        W 4247  27.510  21.141   0.793
44811W        W 4248  15.205  16.187  12.382
44812W        W 4249   3.935  28.572  12.396
44813W        W 4250  34.972  38.452  14.471
44814W        W 4251   6.267  11.727  10.091
44815W        W 4252  40.898  14.295  11.113
44816W        W 4253  12.246  32.931  14.859
44817W        W 4254   4.820  31.145   2.242
44818W        W 4255  14.802  30.115   4.283
44819W        W 4256  33.970  14.769  13.475
44820W        W 4257  29.058  31.551   3.840
44821W        W 4258  20.073  35.579  13.965
44822W        W 4259   5.424  40.046   2.219
44823W        W 4260  41.959   8.730  11.518
44824W        W 4261  34.894   0.766   4.231
44825W        W 4262  30.550  18.144  14.507
44826W        W 4263   3.740   4.833   1.792
44827W        W 4264  14.690   1.868   2.780
44828W        W 4265  10.822  18.685  11.405
44829W        W 4266  44.375  44.770  14.980
44830W        W 4267  21.036  16.255  11.453
44831W        W 4268   4.831  13.829   5.184
44832W        W 4269  17.729   9.839  12.058
44833W        W 4270  21.534  41.876  14.394
44834W        W 4271  19.648   9.779   2.816
44835W        W 4272  13.730  15.224   3.173
44836W        W 4273   7.880  29.562  13.485
44837W        W 4274  24.097  41.525  12.062
44838W        W 4275  25.215   3.389  14.029
44839W        W 4276   9.356  36.554  12.559
44840W        W 4277  16.298  19.636  12.400
44841W        W 4278  16.747   0.755  10.458
44842W        W 4279   3.746   3.752  12.427
44843W        W 4280  17.638  29.424   4.293
44844W        W 4281  28.533   4.733   3.242
44845W        W 4282   6.815  17.099   1.415
44846W        W 4283  27.611  44.855  11.998
44847W        W 4284  11.847   4.282  13.828
44848W        W 4285  17.120   6.746  13.362
44849W        W 4286  38.995   5.877   4.665
44850W        W 4287  13.145  27.646  14.925
44851W        W 4288  38.568  18.106  12.914
44852W        W 4289  35.956  42.974   4.125
44853W        W 4290  29.167  21.043   0.915
44854W        W 4291  34.424  43.824   0.411
44855W        W 4292  32.596   5.335  14.501
44856W        W 4293   8.298  32.888  11.431
44857W        W 4294  39.890   9.194  12.344
44858W        W 4295   1.431  34.495  11.112
44859W        W 4296  28.600  31.000   2.418
44860W        W 4297  21.199  43.020   1.872
44861W        W 4298  10.331  12.625   4.658
44862W        W 4299   5.919  17.294   2.294
44863W        W 4300  44.309   8.166   1.753
44864W        W 4301  15.683  38.978   4.297
44865W        W 4302  29.966  28.006   2.661
44866W        W 4303  11.768   4.713  12.347
44867W        W 4304  25.544   0.840   3.741
44868W        W 4305  36.035  23.137   4.601
44869W        W 4306   1.796  28.988   4.136
44870W        W 4307  21.651  27.967   3.749
44871W        W 4308  21.031  28.542   4.342
44872W        W 4309  27.581  42.374  10.896
44873W        W 4310   6.292   3.286  14.956
44874W        W 4311  13.349  19.698  13.835
44875W        W 4312  23.534  12.709  13.348
44876W        W 4313   7.856   9.299  11.583
44877W        W 4314  40.531  32.456   4.327
44878W        W 4315  30.918  20.177   0.965
44879W        W 4316  36.508   4.263   2.219
44880W        W 4317  19.568  17.568   5.150
44881W        W 4318  17.756  37.913   3.744
44882W        W 4319   9.851  20.178  12.963
44883W        W 4320  39.507  26.564  10.535
44884W        W 4321  27.943  27.075  12.874
44885W        W 4322  24.101   2.341  12.517
44886W        W 4323  28.533  19.759   2.303
44887W        W 4324   2.878   2.738   0.959
44888W        W 4325   5.691   1.408  14.293
44889W        W 4326  41.836  42.786   9.926
44890W        W 4327  16.263  17.739  10.602
44891W        W 4328   8.182  31.573  12.357
44892W        W 4329   9.889   5.321  12.485
44893W        W 4330   3.287  43.788   2.382
44894W        W 4331  13.167  29.529  12.454
44895W        W 4332  22.700  11.324   4.157
44896W        W 4333  14.808  24.586   4.189
44897W        W 4334  18.639  40.819  12.880
44898W        W 4335  31.613  10.295  10.507
44899W        W 4336  12.169  39.494   2.891
44900W        W 4337  44.451  21.525   2.309
44901W        W 4338  44.967  11.715  11.095
44902W        W 4339  43.992  16.293  12.905
44903W        W 4340  20.755  36.936  10.537
44904W        W 4341  19.578  41.870   0.372
44905W        W 4342  26.601  10.667  12.390
44906W        W 4343  20.685  22.090   5.765
44907W        W 4344  44.393   5.384  11.898
44908W        W 4345  42.429  16.577   0.753
44909W        W 4346  35.390   3.341  10.537
44910W        W 4347  16.127  20.062   4.781
44911W        W 4348  30.910  28.520  10.603
44912W        W 4349  22.613  32.490  10.943
44913W        W 4350  43.360  19.779   4.751
44914W        W 4351  34.481  43.898  14.765
44915W        W 4352  20.677   5.341   1.421
44916W        W 4353  35.448  32.089   3.179
44917W        W 4354  41.365  18.147  12.824
44918W        W 4355   9.872   9.177   4.819
44919W        W 4356  28.631  35.511   0.967
44920W        W 4357  31.013  18.776  14.317
44921W        W 4358  42.379  36.535   2.212
44922W        W 4359   6.717  28.446   4.335
44923W        W 4360  31.973  28.090  10.146
44924W        W 4361  28.997  31.119  13.358
44925W        W 4362  25.480  16.761   1.271
44926W        W 4363   0.402  37.490  14.443
44927W        W 4364  12.612  11.638   3.329
44928W        W 4365  41.316  14.334  12.487
44929W        W 4366  16.608  10.200   3.835
44930W        W 4367  36.397  18.109  14.332
44931W        W 4368   6.421  21.240   4.787
44932W        W 4369  27.129  29.920  14.877
44933W        W 4370  34.407   5.321   0.930
44934W        W 4371  37.921   1.956  12.918
44935W        W 4372  39.444  24.615   1.404
44936W        W 4373  37.530   8.240  12.021
44937W        W 4374  18.747   6.732  14.994
44938W        W 4375  17.265   4.876  14.851
44939W        W 4376  37.950  18.654  10.415
44940W        W 4377  39.945  12.738  13.963
44941W        W 4378  30.510  18.212  10.561
44942W        W 4379  14.830   3.272  13.489
44943W        W 4380   7.399  14.663   4.673
44944W        W 4381  39.324   8.206   3.378
44945W        W 4382  36.392   9.698   4.810
44946W        W 4383  15.323  21.692   2.832
44947W        W 4384  18.767  20.051   2.366
44948W        W 4385  42.448   5.315   4.612
44949W        W 4386  36.985  35.417   2.375
44950W        W 4387  17.170  38.025   9.519
44951W        W 4388  22.574  21.138  11.955
44952W        W 4389  15.638  37.935   0.254
44953W        W 4390   1.895   0.251   1.797
44954W        W 4391  44.497  23.221   0.779
44955W        W 4392   3.282   9.852  10.079
44956W        W 4393  24.630  32.103   3.831
44957W        W 4394   1.853  43.510   4.767
44958W        W 4395  18.743  39.031  12.831
44959W        W 4396   8.313  34.959  11.989
44960W        W 4397   9.700  11.840   0.848
44961W        W 4398  34.101  34.432  11.904
44962W        W 4399  32.930   6.745   0.252
44963W        W 4400  18.689   9.310   3.856
44964W        W 4401   3.231  28.621   2.374
44965W        W 4402  26.646  15.098   4.336
44966W        W 4403   9.659  36.437   2.705
44967W        W 4404  32.528  44.443  12.859
44968W        W 4405  10.152  42.997  14.282
44969W        W 4406  23.090  33.420   1.369
44970W        W 4407   7.899  40.345  11.423
44971W        W 4408  29.971  23.625   1.791
44972W        W 4409  41.989  29.997  13.899
44973W        W 4410  23.643  27.148   1.708
44974W        W 4411   7.823   8.252   4.150
44975W        W 4412  24.533  41.294   1.841
44976W        W 4413  34.994  31.097   4.273
44977W        W 4414  21.702  42.857   4.674
44978W        W 4415   8.172  21.663  13.308
44979W        W 4416  43.407  12.789   2.719
44980W        W 4417  32.520  39.818   5.686
44981W        W 4418  10.688   3.281   1.268
44982W        W 4419   0.423  19.276   2.788
44983W        W 4420  24.994   1.460  14.770
44984W        W 4421  13.207  13.130  10.576
44985W        W 4422  16.751   1.737   1.296
44986W        W 4423   7.205  25.153   2.833
44987W        W 4424  24.177  16.173  13.546
44988W        W 4425  33.976  14.313  10.958
44989W        W 4426  21.673  11.153  13.513
44990W        W 4427  13.279  11.350  12.996
44991W        W 4428  16.271  26.548   4.132
44992W        W 4429  42.372  30.515  13.869
44993W        W 4430   3.797  30.094   3.177
44994W        W 4431   1.421   7.879  11.937
44995W        W 4432  19.586   7.841   3.804
44996W        W 4433  34.889   0.442   3.356
44997W        W 4434   1.434  12.224   1.282
44998W        W 4435  34.065  38.934   0.308
44999W        W 4436  29.489  37.012  13.839
45000W        W 4437  10.206  12.191  12.916
45001W        W 4438  31.456  36.449   3.376
45002W        W 4439  37.367   6.228  13.535
45003W        W 4440  16.226  35.447   4.641
45004W        W 4441  28.661  19.282  10.410
45005W        W 4442  21.668  18.197  11.887
45006W        W 4443  43.480  28.440   4.126
45007W        W 4444   7.668   1.748   9.960
45008W        W 4445   9.756  15.593   1.696
45009W        W 4446  28.029   5.695  13.832
45010W        W 4447  10.671  34.955   1.430
45011W        W 4448   8.250  26.515  11.857
45012W        W 4449  28.034  11.737   1.769
45013W        W 4450  32.531  40.484   1.248
45014W        W 4451   9.253  22.153  14.838
45015W        W 4452  20.756  28.956   3.740
45016W        W 4453  35.415  12.208   4.695
45017W        W 4454  10.164  30.037  10.898
45018W        W 4455  14.242  26.020  13.534
45019W        W 4456  11.262  41.874  10.972
45020W        W 4457  39.816  32.046  13.462
45021W        W 4458  39.321  17.132  13.050
45022W        W 4459  41.952  16.151  11.551
45023W        W 4460  29.035  33.120   4.751
45024W        W 4461  13.679  23.018   4.754
45025W        W 4462   0.318  28.614  10.591
45026W        W 4463  38.543  13.668  11.983
45027W        W 4464   0.784  22.626   2.736
45028W        W 4465  41.803  10.667   1.932
45029W        W 4466   0.361  11.645  11.421
45030W        W 4467  35.015  35.895  12.347
45031W        W 4468   5.374  21.217  13.453
45032W        W 4469  41.333  21.588  11.918
45033W        W 4470  37.430   4.429  12.369
45034W        W 4471   0.394  12.689   1.928
45035W        W 4472  34.942  36.521   2.748
45036W        W 4473  28.466   8.380  10.475
45037W        W 4474   4.229  13.779   5.701
45038W        W 4475  38.921  27.544  12.507
45039W        W 4476  20.033   0.284   4.178
45040W        W 4477  26.062  23.654  10.447
45041W        W 4478  20.074   2.920  10.983
45042W        W 4479  14.776  42.027  11.409
45043W        W 4480  17.715  13.210  11.042
45044W        W 4481   6.417   2.313  12.890
45045W        W 4482  39.395   9.155  12.837
45046W        W 4483  10.140  38.874  10.058
45047W        W 4484  40.512  18.785   3.376
45048W        W 4485  29.508  13.113   3.797
45049W        W 4486  24.154  15.160   3.347
45050W        W 4487   4.261  39.334  10.527
45051W        W 4488   5.376  25.647   2.353
45052W        W 4489  25.984  41.846   0.904
45053W        W 4490  34.415  31.927   0.320
45054W        W 4491  15.805  16.641  14.286
45055W        W 4492  22.588  16.604  12.375
45056W        W 4493  27.123  19.657   3.343
45057W        W 4494   1.833  18.136   1.706
45058W        W 4495  12.643   1.434   1.924
45059W        W 4496  10.717  29.613  12.065
45060W        W 4497  15.297  35.563   3.246
45061W        W 4498  25.703  25.513  14.855
45062W        W 4499  18.188  42.895  14.300
45063W        W 4500  34.069  10.765  14.427
45064W        W 4501   8.321  17.095  14.414
45065W        W 4502  13.179   1.272   1.930
45066W        W 4503  12.152   3.719   4.768
45067W        W 4504  20.722  31.118   1.445
45068W        W 4505   4.395  17.706  12.354
45069W        W 4506  17.580   2.442  11.905
45070W        W 4507   9.333   5.352  10.994
45071W        W 4508   8.210  13.671   2.322
45072W        W 4509  11.759   0.454   0.893
45073W        W 4510  23.507   1.418   2.336
45074W        W 4511   8.176  38.070  11.870
45075W        W 4512   2.749  11.361  11.579
45076W        W 4513  13.645  25.577  10.591
45077W        W 4514  12.199  18.205  11.958
45078W        W 4515  30.467  24.638  10.125
45079W        W 4516  14.771  33.114  12.513
45080W        W 4517   0.465   2.436  10.485
45081W        W 4518  29.083  21.245  11.056
45082W        W 4519  34.922  11.362   3.821
45083W        W 4520   9.229   5.899   3.858
45084W        W 4521  42.818  21.523   2.311
45085W        W 4522  35.399   8.318  12.966
45086W        W 4523  31.104   2.256   0.297
45087W        W 4524   9.313  17.645   2.237
45088W        W 4525  18.211  43.367  12.404
45089W        W 4526  43.490   6.338  11.010
45090W        W 4527  23.106  34.972   4.126
45091W        W 4528  39.535  36.593   2.191
45092W        W 4529  28.948  38.967  10.548
45093W        W 4530   5.932  16.602  11.460
45094W        W 4531  19.098  39.553   5.677
45095W        W 4532  39.819  35.548  13.409
45096W        W 4533   3.394  38.014  10.938
45097W        W 4534  14.223  13.764  10.439
45098W        W 4535  19.191  12.727  11.453
45099W        W 4536  40.394  29.434   4.319
45100W        W 4537  20.224  28.653  11.484
45101W        W 4538   0.743  26.060   2.862
45102W        W 4539  20.645  34.475   3.679
45103W        W 4540   9.721  43.463   0.294
45104W        W 4541  17.766   0.850  11.580
45105W        W 4542  21.564  34.470  11.473
45106W        W 4543  36.000  29.140   1.916
45107W        W 4544  14.294   6.806  11.038
45108W        W 4545  26.143  16.570   3.848
45109W        W 4546   6.239  43.782  14.830
45110W        W 4547  19.086  14.666  14.945
45111W        W 4548  26.143  18.253   4.334
45112W        W 4549   2.848   6.199  13.935
45113W        W 4550   8.775  19.669   3.280
45114W        W 4551  23.158   3.751   2.378
45115W        W 4552  24.671   4.435  14.810
45116W        W 4553  30.636  41.496  12.078
45117W        W 4554   8.257  26.960   2.262
45118W        W 4555   1.310   7.763   4.304
45119W        W 4556  14.181   2.859  10.519
45120W        W 4557  37.060  16.573  12.454
45121W        W 4558  43.402  43.837  13.879
45122W        W 4559   3.755  38.366  10.985
45123W        W 4560  44.379  37.344   2.265
45124W        W 4561  35.434  21.048   3.297
45125W        W 4562  26.156  22.176   2.193
45126W        W 4563  24.040  24.980   1.847
45127W        W 4564  10.727  36.493   4.116
45128W        W 4565  44.762  11.129   2.203
45129W        W 4566  20.211   9.680   2.768
45130W        W 4567  16.613  37.907   1.319
45131W        W 4568  35.911  20.105   2.888
45132W        W 4569  20.062  38.326  12.505
45133W        W 4570  23.027  20.064  13.971
45134W        W 4571   2.424   8.733   0.453
45135W        W 4572  21.577   3.751  10.891
45136W        W 4573  15.103  44.997   0.847
45137W        W 4574  18.260  32.443   4.630
45138W        W 4575  32.921  24.597   2.846
45139W        W 4576  28.994  21.523  13.524
45140W        W 4577   3.711  35.482   0.436
45141W        W 4578  17.135   1.744   2.698
45142W        W 4579  16.796   7.738  14.025
45143W        W 4580  18.135  14.323   0.474
45144W        W 4581  32.477   8.824  13.505
45145W        W 4582   5.415   5.200   3.167
45146W        W 4583  30.583  17.699   2.382
45147W        W 4584  42.323  15.240   1.361
45148W        W 4585  30.158  16.719   3.717
45149W        W 4586  41.960  19.534   0.830
45150W        W 4587  23.530  30.621   2.832
45151W        W 4588  29.494  14.666  12.888
45152W        W 4589  34.479  14.825   1.326
45153W        W 4590  40.861  23.202   4.654
45154W        W 4591  25.649  25.057  11.978
45155W        W 4592  25.160   6.415   0.383
45156W        W 4593   8.812  32.119  13.480
45157W        W 4594   4.270  22.708  10.513
45158W        W 4595  20.225  44.979  10.475
45159W        W 4596  40.393  21.131   0.920
45160W        W 4597  37.854  20.597  10.614
45161W        W 4598  26.539   2.277  13.038
45162W        W 4599  33.624  30.978  10.943
45163W        W 4600   0.987   8.679   2.208
45164W        W 4601  43.892  24.721  14.013
45165W        W 4602  18.258  43.900   3.301
45166W        W 4603  26.951  25.654  11.597
45167W        W 4604   3.926  36.395   0.392
45168W        W 4605  43.962   9.369  13.892
45169W        W 4606  39.477  32.502  11.865
45170W        W 4607   2.388   2.470  13.917
45171W        W 4608  35.963  24.498   4.669
45172W        W 4609  42.944  17.575  13.354
45173W        W 4610  37.373  14.164   1.696
45174W        W 4611  39.019  44.969   0.419
45175W        W 4612   7.383  19.183  10.635
45176W        W 4613  32.071  30.919   2.261
45177W        W 4614  38.859  25.186  13.007
45178W        W 4615   8.775  26.557   1.928
45179W        W 4616  12.629  18.742  10.457
45180W        W 4617  19.579  14.152  14.488
45181W        W 4618  32.440   3.425   0.412
45182W        W 4619  39.489   1.860  10.452
45183W        W 4620  19.543  20.030   3.662
45184W        W 4621  25.190   5.901  13.418
45185W        W 4622  15.234  41.956   4.133
45186W        W 4623  16.118  25.679  10.560
45187W        W 4624  33.493  41.791   1.882
45188W        W 4625  14.677  14.692   4.652
45189W        W 4626  41.974  37.552  14.939
45190W        W 4627  21.745  10.812   2.260
45191W        W 4628  40.393  24.079  11.081
45192W        W 4629  29.526  44.470   1.288
45193W        W 4630   4.331  11.193  13.528
45194W        W 4631  23.691  13.321  12.898
45195W        W 4632   7.224  33.946  13.367
45196W        W 4633   1.480   3.779  13.471
45197W        W 4634  29.498  14.298  14.877
45198W        W 4635   5.419  17.627   1.447
45199W        W 4636   7.725  44.349   2.663
45200W        W 4637   8.744   1.764   1.270
45201W        W 4638   1.444  17.764   1.222
45202W        W 4639   3.935  18.773   3.199
45203W        W 4640   4.880  29.003   2.261
45204W        W 4641  29.055   9.795   1.818
45205W        W 4642  15.628  26.193  14.487
45206W        W 4643  15.773  31.628  10.983
45207W        W 4644   8.243  14.255  14.403
45208W        W 4645  23.216  38.977   3.206
45209W        W 4646   2.742  18.630   4.688
45210W        W 4647  18.702  33.552   9.979
45211W        W 4648  37.468  25.136   3.773
45212W        W 4649   7.351  20.270  11.057
45213W        W 4650  24.070  19.201  14.365
45214W        W 4651  21.640   4.781   1.706
45215W        W 4652   2.305  40.842   4.780
45216W        W 4653  28.016  33.055   0.809
45217W        W 4654   7.728  40.374   3.149
45218W        W 4655  31.421  43.310  13.870
45219W        W 4656   5.294  33.037  10.422
45220W        W 4657  22.597  27.470   4.803
45221W        W 4658  21.519  27.446  14.473
45222W        W 4659   4.900  22.735  14.992
45223W        W 4660  21.224  15.135  11.973
45224W        W 4661  40.535  19.070   3.634
45225W        W 4662  17.563   7.265  10.568
45226W        W 4663   2.225  31.086   2.837
45227W        W 4664  14.184   7.309  10.610
45228W        W 4665  29.119  15.131   1.853
45229W        W 4666  19.195  35.569  11.986
45230W        W 4667  39.977  24.606   2.199
45231W        W 4668   5.203  35.382   2.257
45232W        W 4669  13.314  17.210  13.434
45233W        W 4670  11.225   6.919  12.954
45234W        W 4671  44.280   5.906   0.423
45235W        W 4672  43.866   9.259   4.300
45236W        W 4673   5.735  32.518   3.357
45237W        W 4674  41.039  21.661  13.004
45238W        W 4675  36.078  36.939   2.221
45239W        W 4676  41.533  19.249  14.011
45240W        W 4677  15.736  35.491  11.050
45241W        W 4678  12.140   0.789   1.213
45242W        W 4679  23.086  38.940  10.049
45243W        W 4680   4.343  31.057   0.399
45244W        W 4681  13.765   5.747  11.117
45245W        W 4682   1.249  14.746  14.477
45246W        W 4683  27.008  35.101   1.248
45247W        W 4684   0.493   9.282   1.865
45248W        W 4685  11.359  30.490   1.441
45249W        W 4686  35.991  37.947  13.963
45250W        W 4687  38.880  27.004  12.558
45251W        W 4688  18.724  22.060  13.044
45252W        W 4689  11.834  17.253   1.256
45253W        W 4690  22.636   4.335  14.027
45254W        W 4691  10.180  33.449   2.342
45255W        W 4692  43.896   1.835  11.081
45256W        W 4693  29.590  42.945  13.389
45257W        W 4694  39.877  11.295  11.930
45258W        W 4695   6.705  10.268  14.349
45259W        W 4696  27.489  42.392   0.357
45260W        W 4697  22.510   8.252  11.382
45261W        W 4698  44.481  36.880   4.193
45262W        W 4699  11.325  20.639  11.961
45263W        W 4700  34.594   9.816  13.920
45264W        W 4701  17.190  26.131   1.766
45265W        W 4702   9.704  19.068   1.872
45266W        W 4703  36.416  21.537  14.284
45267W        W 4704  31.133  16.733  12.523
45268W        W 4705   8.295  20.042  13.493
45269W        W 4706   9.236  26.585   2.342
45270W        W 4707  25.042  19.686   4.794
45271W        W 4708  38.569   9.338   2.687
45272W        W 4709  42.875  42.459  10.952
45273W        W 4710   4.432  28.031  13.827
45274W        W 4711  21.544  37.409   0.453
45275W        W 4712  34.046  17.075  12.918
45276W        W 4713  26.143  31.472   0.437
45277W        W 4714  41.401  29.026  13.022
45278W        W 4715   8.901  29.128  11.436
45279W        W 4716  30.496  36.041   2.692
45280W        W 4717  22.202  21.101  13.361
45281W        W 4718   9.272   7.840   4.671
45282W        W 4719  11.701   6.211   0.769
45283W        W 4720   2.771   7.252  11.408
45284W        W 4721  18.272   3.823   3.680
45285W        W 4722   0.931   7.394   1.735
45286W        W 4723  18.273  27.063  10.523
45287W        W 4724  30.025   3.411   2.758
45288W        W 4725  13.839   5.697   3.359
45289W        W 4726  23.498  21.260  12.375
45290W        W 4727   0.404  34.398  14.380
45291W        W 4728   2.769  24.607   2.252
45292W        W 4729  15.731  20.119   3.245
45293W        W 4730  19.129  22.034  10.510
45294W        W 4731  21.664  25.701   3.648
45295W        W 4732  43.338  35.498  11.508
45296W        W 4733   0.911  38.539   3.306
45297W        W 4734  16.218  29.649   2.379
45298W        W 4735  41.340  40.306   2.363
45299W        W 4736   9.187  29.024   1.897
45300W        W 4737  39.845  13.166  12.857
45301W        W 4738  27.096  40.543   3.223
45302W        W 4739  15.740  14.674  11.021
45303W        W 4740  42.780  30.600  13.015
45304W        W 4741  29.566  27.497  12.984
45305W        W 4742  13.300  33.000  11.454
45306W        W 4743  39.040  36.482  10.945
45307W        W 4744  38.904  13.820  12.880
45308W        W 4745  28.076   0.415   4.342
45309W        W 4746   3.869  24.064  13.928
45310W        W 4747  16.198  44.827   5.742
45311W        W 4748  23.500  12.735  14.840
45312W        W 4749  14.726  41.354  13.322
45313W        W 4750  17.741  24.718  12.978
45314W        W 4751   9.213  31.080  14.763
45315W        W 4752  14.158  44.378   3.258
45316W        W 4753  12.665  12.315   2.704
45317W        W 4754   9.785   1.280   2.390
45318W        W 4755  14.241  15.623  14.795
45319W        W 4756   6.873  21.533  13.320
45320W        W 4757   1.768  32.014   1.909
45321W        W 4758  17.796  29.576   3.381
45322W        W 4759  17.770  37.036  11.097
45323W        W 4760  34.086  14.725  14.953
45324W        W 4761  41.409  18.123   0.800
45325W        W 4762  22.057  19.742   2.195
45326W        W 4763   6.228  19.208  11.958
45327W        W 4764  16.219  20.530   4.335
45328W        W 4765   0.441   4.421  10.980
45329W        W 4766   5.291  35.891  13.029
45330W        W 4767  20.163  14.592   4.719
45331W        W 4768  28.059  33.484   5.148
45332W        W 4769  24.175  44.315   1.298
45333W        W 4770   8.264  17.683  12.968
45334W        W 4771  24.503  36.096   2.755
45335W        W 4772  18.612  29.085  12.067
45336W        W 4773  14.222   4.263  12.851
45337W        W 4774  20.653   2.439  11.968
45338W        W 4775   0.852   1.371  14.506
45339W        W 4776  28.988  13.701  12.396
45340W        W 4777  41.956  43.769  12.524
45341W        W 4778  22.640  39.450   0.293
45342W        W 4779  10.634   6.789   4.274
45343W        W 4780  36.863  27.004  13.848
45344W        W 4781   3.887   1.351   0.397
45345W        W 4782  28.933  15.762  10.514
45346W        W 4783   1.331  10.689  13.509
45347W        W 4784  22.704  28.653  11.941
45348W        W 4785   5.276   3.245   4.245
45349W        W 4786  41.981  27.494  13.402
45350W        W 4787  15.130  40.971  11.112
45351W        W 4788  37.927  36.518   0.407
45352W        W 4789   4.872  19.258   3.798
45353W        W 4790  27.664  22.166  12.069
45354W        W 4791  36.082  19.061   3.291
45355W        W 4792   2.845   2.365   3.866
45356W        W 4793  16.243  25.197  14.281
45357W        W 4794  27.628  24.687  13.825
45358W        W 4795  43.978  15.785   2.875
45359W        W 4796   0.287  34.948   4.800
45360W        W 4797  33.879  35.055  12.072
45361W        W 4798  30.514  44.415   0.740
45362W        W 4799  16.690  24.675   4.227
45363W        W 4800  31.418  17.777  14.824
45364W        W 4801  21.019   8.675  11.453
45365W        W 4802  13.775  35.007  12.865
45366W        W 4803   4.840  30.471  14.373
45367W        W 4804  33.553  23.042   5.160
45368W        W 4805  20.061   3.843  14.397
45369W        W 4806  19.639   4.209  11.931
45370W        W 4807  36.545  29.514  10.965
45371W        W 4808  14.810   9.339   2.332
45372W        W 4809  22.601  19.253  14.850
45373W        W 4810  38.054  43.489   3.677
45374W        W 4811   1.454  25.962   1.314
45375W        W 4812  39.018   7.230   2.845
45376W        W 4813  21.742   9.301  10.962
45377W        W 4814  29.582  17.172  13.417
45378W        W 4815  23.167   5.881  13.034
45379W        W 4816  18.210  31.916   1.450
45380W        W 4817  26.483  15.678   0.956
45381W        W 4818  12.357  17.139  14.001
45382W        W 4819  21.546  16.118  13.362
45383W        W 4820  37.077  43.798   2.852
45384W        W 4821  22.188   9.265  11.118
45385W        W 4822  18.699  38.409   3.654
45386W        W 4823  24.025  28.099   4.329
45387W        W 4824  17.156   6.724  14.032
45388W        W 4825   5.424  31.640  13.479
45389W        W 4826  35.876  16.717  14.874
45390W        W 4827  24.689  40.853  14.974
45391W        W 4828  12.788  20.046   4.256
45392W        W 4829   8.790   0.860   5.085
45393W        W 4830   6.322   8.746   4.312
45394W        W 4831  18.278  21.680   2.284
45395W        W 4832   0.915  39.500   0.251
45396W        W 4833  30.522   9.286  11.019
45397W        W 4834  41.024   0.275   3.209
45398W        W 4835  24.607  31.504   3.220
45399W        W 4836   5.383   9.698  13.379
45400W        W 4837   0.851  17.740  11.870
45401W        W 4838  15.670  13.675   4.620
45402W        W 4839  17.280  23.554  13.548
45403W        W 4840  33.399  43.325  10.904
45404W        W 4841   5.408  42.491  12.421
45405W        W 4842  16.248  17.669   4.153
45406W        W 4843  20.052  32.007   3.168
45407W        W 4844   0.360   5.241  14.009
45408W        W 4845  31.077  19.055   0.321
45409W        W 4846  36.467  30.958   2.836
45410W        W 4847   7.373  27.149  11.109
45411W        W 4848  42.961  37.460   0.244
45412W        W 4849  20.225  19.655   4.724
45413W        W 4850  37.940  28.934  11.940
45414W        W 4851  21.695  16.256  12.897
45415W        W 4852  34.583  39.909   0.463
45416W        W 4853  36.060  14.273   1.261
45417W        W 4854  40.992  11.640  12.002
45418W        W 4855  15.643   9.744   3.363
45419W        W 4856   3.716  16.094  12.971
45420W        W 4857  11.294  21.701  14.032
45421W        W 4858  29.961  42.354  11.090
45422W        W 4859   1.892   4.800   4.242
45423W        W 4860  11.649  35.565  11.423
45424W        W 4861   4.749  34.976  13.850
45425W        W 4862   7.903  41.928  12.507
45426W        W 4863  20.539  17.565   0.482
45427W        W 4864   7.884   7.226  14.485
45428W        W 4865  44.391   3.421   1.252
45429W        W 4866  30.511  27.069  13.323
45430W        W 4867  37.833  32.537  11.475
45431W        W 4868  44.369  20.267  12.870
45432W        W 4869   6.723  20.691  12.041
45433W        W 4870  13.673  19.562  11.380
45434W        W 4871  36.970   7.698   3.693
45435W        W 4872  18.244  23.072   1.901
45436W        W 4873   2.338  39.370   2.770
45437W        W 4874   9.260  30.525   9.969
45438W        W 4875  41.031   6.707   1.736
45439W        W 4876   7.384  13.348  12.939
45440W        W 4877  22.063  12.221  11.453
45441W        W 4878  34.883  23.542   3.741
45442W        W 4879  36.030   5.412   0.760
45443W        W 4880   2.815  34.955   0.302
45444W        W 4881  30.996  42.513   4.737
45445W        W 4882   1.320   6.860   3.336
45446W        W 4883  31.450  26.465  12.349
45447W        W 4884  16.734  18.186   5.571
45448W        W 4885  24.712  30.646   3.844
45449W        W 4886  20.058  16.265   2.199
45450W        W 4887  19.606  40.816  11.570
45451W        W 4888   4.219  27.043  13.031
45452W        W 4889  26.467  33.040   3.361
45453W        W 4890  19.757  32.123  11.997
45454W        W 4891  14.275  14.125  14.424
45455W        W 4892  35.871  27.512   2.411
45456W        W 4893   6.336   3.354  11.109
45457W        W 4894  41.895  23.183   1.741
45458W        W 4895  20.063   7.398  10.065
45459W        W 4896  42.332   3.746   2.268
45460W        W 4897   7.414  33.512   3.237
45461W        W 4898  29.118   2.872  12.517
45462W        W 4899   2.395   2.931   0.397
45463W        W 4900   4.263  41.014   4.342
45464W        W 4901  41.495  20.646  11.053
45465W        W 4902  19.688  31.520   4.790
45466W        W 4903  18.132  33.419   1.862
45467W        W 4904  43.821   1.448   0.333
45468W        W 4905  15.324  26.204   3.238
45469W        W 4906  41.935  36.565  14.383
45470W        W 4907   2.720   7.747   1.762
45471W        W 4908  38.346  31.591  12.419
45472W        W 4909  34.563  17.298   4.702
45473W        W 4910  22.101  19.224  10.108
45474W        W 4911  27.055   2.436  11.428
45475W        W 4912  35.898  24.018   3.654
45476W        W 4913  14.146   8.352   1.240
45477W        W 4914  21.522  40.334   0.850
45478W        W 4915  24.142  12.144  10.438
45479W        W 4916  34.922  23.725  14.810
45480W        W 4917   8.309  28.106  10.625
45481W        W 4918  19.103  36.027   3.317
45482W        W 4919  26.140   1.784  11.124
45483W        W 4920  28.661   2.284   3.810
45484W        W 4921  19.134  24.592  14.463
45485W        W 4922   0.907  28.084  10.107
45486W        W 4923  37.830  23.125  13.542
45487W        W 4924  27.593  27.965  14.299
45488W        W 4925   6.683  16.638  11.423
45489W        W 4926  20.563  21.205   2.352
45490W        W 4927   7.372   6.856  12.515
45491W        W 4928  41.029  44.275  11.499
45492W        W 4929   0.899  16.711   4.306
45493W        W 4930  18.546  42.866   2.371
45494W        W 4931  27.033  31.067   4.776
45495W        W 4932  39.891  35.424  11.447
45496W        W 4933  22.165  20.192  10.423
45497W        W 4934   0.447  36.973   1.275
45498W        W 4935  14.815  31.977  13.822
45499W        W 4936  43.945  16.155  14.379
45500W        W 4937  24.140  25.631   1.769
45501W        W 4938  38.522   3.368   4.286
45502W        W 4939  40.347  44.846  12.893
45503W        W 4940  12.647  44.866  11.515
45504W        W 4941   2.771  31.413  14.445
45505W        W 4942  38.361  23.602   0.783
45506W        W 4943   7.706   5.761   3.723
45507W        W 4944  41.501  37.399   5.255
45508W        W 4945  33.576   1.931  11.472
45509W        W 4946  23.196  42.328  14.000
45510W        W 4947  25.160  38.050   1.268
45511W        W 4948  20.682  27.606  11.897
45512W        W 4949  11.764  34.550  14.879
45513W        W 4950  34.927  42.359  14.393
45514W        W 4951  15.290   9.822   4.162
45515W        W 4952  17.093  28.457  11.539
45516W        W 4953  44.284  30.990   3.811
45517W        W 4954  22.230  15.792  10.471
45518W        W 4955  43.382  27.135  11.408
45519W        W 4956  38.973  21.584   1.900
45520W        W 4957  33.609   6.895   1.405
45521W        W 4958   7.224  40.974  10.556
45522W        W 4959   5.919  13.774   2.881
45523W        W 4960  25.609  41.007   3.229
45524W        W 4961  35.512  23.515  12.392
45525W        W 4962  12.188   9.157   0.746
45526W        W 4963   3.895  27.478   3.645
45527W        W 4964   8.727  39.840  11.940
45528W        W 4965   2.436  26.672   5.174
45529W        W 4966  17.677  22.532  14.889
45530W        W 4967  41.027   5.722   2.280
45531W        W 4968  26.018  24.177   3.355
45532W        W 4969  22.535   0.367   2.321
45533W        W 4970  25.977  14.157  10.636
45534W        W 4971  14.751  43.780  11.057
45535W        W 4972  23.568  44.823   4.650
45536W        W 4973  26.513  37.510   4.229
45537W        W 4974  33.516  25.574   2.760
45538W        W 4975  37.957   5.755  10.593
45539W        W 4976  28.166   4.718   2.226
45540W        W 4977  13.752  39.326   9.518
45541W        W 4978  18.666  31.920   1.306
45542W        W 4979  28.071  35.870   3.156
45543W        W 4980  12.775  20.189  13.963
45544W        W 4981  39.519   7.703  11.933
45545W        W 4982  40.832  41.012   3.686
45546W        W 4983   7.731   7.692  11.540
45547W        W 4984  19.554  41.831   0.787
45548W        W 4985  26.189  38.384  14.793
45549W        W 4986  34.936   6.250  13.483
45550W        W 4987  41.478  11.198   1.360
45551W        W 4988  11.345  32.609  13.008
45552W        W 4989  24.065  30.914  10.891
45553W        W 4990  31.015  24.062  11.410
45554W        W 4991  14.627  27.136   4.772
45555W        W 4992  39.518  44.503   2.736
45556W        W 4993   8.721  11.230   4.660
45557W        W 4994  19.153  30.923   4.659
45558W        W 4995  35.918  41.312  14.770
45559W        W 4996   4.370  44.302   0.383
45560W        W 4997  41.456  18.748   0.364
45561W        W 4998   3.735   7.271  13.544
45562W        W 4999  34.495  11.183  11.069
45563W        W 5000   9.816  18.060   4.176
45564W        W 5001  34.978  29.563  14.340
45565W        W 5002  36.856  28.649   4.346
45566W        W 5003   6.837   8.696  12.080
45567W        W 5004  17.133  25.082  12.492
45568W        W 5005  31.011   7.679   4.818
45569W        W 5006  36.909  33.880   1.271
45570W        W 5007  30.026  25.638  12.382
45571W        W 5008  23.500  19.201  14.882
45572W        W 5009  26.045   2.793   2.224
45573W        W 5010  25.578  31.598   4.732
45574W        W 5011   1.442  33.598  10.508
45575W        W 5012  36.367  24.616  13.433
45576W        W 5013  34.003  36.851   2.337
45577W        W 5014  12.709   9.762   3.204
45578W        W 5015  33.480   2.333  12.994
45579W        W 5016  27.154  19.229   4.208
45580W        W 5017   2.297  43.384   0.796
45581W        W 5018   9.783  43.319  10.938
45582W        W 5019   1.878  13.654   0.355
45583W        W 5020  14.188  15.199   1.378
45584W        W 5021  13.778   3.351   0.892
45585W        W 5022  30.127  43.270  13.471
45586W        W 5023  39.042   5.773  14.442
45587W        W 5024  10.693  37.399  11.018
45588W        W 5025  25.554  44.416  12.387
45589W        W 5026  34.939   4.911   0.961
45590W        W 5027   1.317  32.137  11.005
45591W        W 5028  20.216  24.525  13.517
45592W        W 5029  19.178  22.563  11.374
45593W        W 5030  11.831  36.547  12.520
45594W        W 5031  16.078  17.302  10.026
45595W        W 5032  42.385  20.268   4.618
45596W        W 5033  26.506  35.885   1.239
45597W        W 5034   4.813   9.876   1.286
45598W        W 5035  37.048  40.485  13.405
45599W        W 5036  33.003  44.270   1.852
45600W        W 5037  22.230  33.020   0.911
45601W        W 5038   8.365  35.880  10.973
45602W        W 5039  27.589  22.053  12.973
45603W        W 5040  44.945   3.348  10.956
45604W        W 5041   1.788   7.819   4.789
45605W        W 5042  36.543  44.770  10.585
45606W        W 5043   5.330  40.371   2.361
45607W        W 5044  35.053  19.609   0.333
45608W        W 5045  29.623  37.522   1.398
45609W        W 5046  17.581  20.726  14.414
45610W        W 5047  32.575  30.042   1.755
45611W        W 5048  44.385  33.463  10.456
45612W        W 5049  31.108  15.192  11.443
45613W        W 5050  21.672  42.777   1.260
45614W        W 5051  26.502   1.251  14.422
45615W        W 5052  26.176   5.849  12.399
45616W        W 5053  33.468  25.672  14.473
45617W        W 5054  43.482   4.813   2.325
45618W        W 5055  12.352  43.823   3.362
45619W        W 5056  24.181   0.436  10.925
45620W        W 5057   6.306  11.855  12.409
45621W        W 5058  24.004  40.036  10.486
45622W        W 5059  30.995  19.226   2.784
45623W        W 5060  28.524  17.594  11.440
45624W        W 5061  18.254   6.191   1.824
45625W        W 5062  23.058   0.347  14.985
45626W        W 5063  40.371  30.503  11.903
45627W        W 5064  37.463  24.988   2.823
45628W        W 5065  14.146   4.273   1.905
45629W        W 5066   2.275  29.582  12.052
45630W        W 5067  38.453  35.102  13.424
45631W        W 5068   2.430   9.710  11.597
45632W        W 5069  32.475  31.643   0.889
45633W        W 5070  39.837   0.255   1.305
45634W        W 5071  41.852  11.840   1.810
45635W        W 5072  26.052  40.800  13.059
45636W        W 5073  31.516   7.176   1.759
45637W        W 5074  23.709  24.505   5.272
45638W        W 5075  39.860  14.204   4.127
45639W        W 5076  21.098  33.396   0.958
45640W        W 5077  19.268  29.655   2.354
45641W        W 5078  36.397   5.922  13.476
45642W        W 5079   1.457  38.999   3.294
45643W        W 5080   3.421  34.035  11.932
45644W        W 5081  26.576  35.528  11.957
45645W        W 5082  15.785  26.531   5.208
45646W        W 5083  12.273  13.201  14.863
45647W        W 5084  41.538  31.050  14.407
45648W        W 5085  14.629  42.297  13.352
45649W        W 5086   6.906  35.944  13.459
45650W        W 5087   5.337  38.526   3.369
45651W        W 5088   8.265  28.602  13.400
45652W        W 5089  13.141   0.365  10.970
45653W        W 5090  39.517  14.096   4.265
45654W        W 5091  18.137  15.624  12.928
45655W        W 5092  13.680  12.805  10.970
45656W        W 5093  25.655   7.189   2.758
45657W        W 5094   4.779  32.521  10.462
45658W        W 5095  29.947  25.185  12.378
45659W        W 5096  26.065  38.547   1.864
45660W        W 5097   9.154  17.132   1.278
45661W        W 5098  25.626  16.590  10.576
45662W        W 5099  33.972  44.796  14.443
45663W        W 5100  11.679  25.183   3.384
45664W        W 5101  33.992   0.799  12.513
45665W        W 5102   0.906  16.215   2.375
45666W        W 5103   7.400  25.016   4.675
45667W        W 5104  24.703  27.614  11.030
45668W        W 5105  43.376   2.422  13.920
45669W        W 5106  30.029  35.519   3.355
45670W        W 5107  29.069   0.366  12.517
45671W        W 5108  19.677   7.369   1.321
45672W        W 5109  22.087   2.470  14.858
45673W        W 5110  16.788  10.193   0.834
45674W        W 5111  23.165  22.541   0.839
45675W        W 5112  10.647   3.790  11.928
45676W        W 5113  38.909  40.935   1.386
45677W        W 5114  33.532  18.196   3.795
45678W        W 5115  18.707   7.413  11.991
45679W        W 5116   9.716   2.860   4.124
45680W        W 5117  21.049   6.210  14.010
45681W        W 5118  21.565   9.196  10.426
45682W        W 5119  35.998   8.760   1.849
45683W        W 5120  31.633  22.583  12.016
45684W        W 5121  30.960   9.243  10.488
45685W        W 5122  25.693  25.187  14.788
45686W        W 5123   2.822  42.378  13.496
45687W        W 5124  27.012  28.036  11.513
45688W        W 5125  39.417  37.943   2.783
45689W        W 5126  38.478   4.805  13.364
45690W        W 5127   0.253  10.146   4.255
45691W        W 5128   1.269  31.495   2.321
45692W        W 5129   9.685  11.337   2.869
45693W        W 5130  42.970  14.155  11.959
45694W        W 5131   7.237  38.847   0.285
45695W        W 5132  33.440  13.278   3.200
45696W        W 5133   6.685  31.482  13.315
45697W        W 5134  26.559  43.273  13.929
45698W        W 5135  26.971  31.111   3.798
45699W        W 5136  30.997  35.392  12.552
45700W        W 5137  10.833  17.109   1.920
45701W        W 5138  13.687  19.209  12.948
45702W        W 5139  26.515  23.165   0.297
45703W        W 5140  30.029  29.963  13.821
45704W        W 5141  32.957  36.581  13.998
45705W        W 5142  42.825  34.043  14.923
45706W        W 5143  35.951  25.535  11.080
45707W        W 5144  43.825  13.343   4.341
45708W        W 5145  26.009  14.230   1.421
45709W        W 5146  36.039  22.691   3.722
45710W        W 5147  19.162  30.113   0.873
45711W        W 5148  43.982  43.372  14.865
45712W        W 5149  43.892   7.219   1.361
45713W        W 5150  23.703  34.987  11.541
45714W        W 5151  11.842  43.885   2.276
45715W        W 5152   6.196  27.197   0.789
45716W        W 5153  44.822  14.136  11.420
45717W        W 5154  19.246  20.705  13.911
45718W        W 5155  11.221   8.199   4.294
45719W        W 5156  15.208  18.198  10.544
45720W        W 5157  39.001  35.423   0.479
45721W        W 5158  32.892  35.942   5.115
45722W        W 5159   1.250  31.527   0.781
45723W        W 5160  41.952   8.365  14.987
45724W        W 5161  42.324  12.782   1.886
45725W        W 5162  40.044  30.938  11.986
45726W        W 5163  41.858  17.762   2.414
45727W        W 5164  32.893  32.089  13.970
45728W        W 5165   9.380  16.116   1.310
45729W        W 5166  30.549   9.793  13.794
45730W        W 5167  29.012  15.607   1.362
45731W        W 5168  42.809   9.754  14.778
45732W        W 5169  34.512  43.328  10.970
45733W        W 5170  19.620  27.076  13.454
45734W        W 5171  10.790   2.393   1.220
45735W        W 5172  33.398  17.296   1.449
45736W        W 5173  35.938  18.128   1.792
45737W        W 5174  19.647  12.126   0.367
45738W        W 5175   5.348  15.585  11.008
45739W        W 5176  30.047  32.425  12.089
45740W        W 5177  31.629  13.763   2.875
45741W        W 5178  29.619  16.735   0.369
45742W        W 5179  35.093  24.029   1.718
45743W        W 5180  38.001   6.275   4.263
45744W        W 5181  43.896  14.742   2.798
45745W        W 5182  39.061  25.704   2.759
45746W        W 5183   7.198  25.543  13.045
45747W        W 5184  26.972  27.147   1.906
45748W        W 5185  38.432  13.251  10.567
45749W        W 5186  20.693  16.296   3.167
45750W        W 5187  24.153  20.572   2.710
45751W        W 5188   9.643  18.087  10.929
45752W        W 5189  31.941  33.422  11.499
45753W        W 5190  44.826   1.924  14.481
45754W        W 5191   3.337  15.133  12.411
45755W        W 5192  23.049  21.101   2.318
45756W        W 5193  36.031  26.651  11.010
45757W        W 5194  39.317  29.163   1.742
45758W        W 5195  14.149  16.093  13.846
45759W        W 5196  35.863  41.986  11.007
45760W        W 5197  23.204  29.566  12.472
45761W        W 5198  32.101  34.524  12.556
45762W        W 5199  15.264  28.958  14.820
45763W        W 5200  36.984  17.194  11.420
45764W        W 5201   2.420  30.423   3.863
45765W        W 5202   0.259  43.461   1.326
45766W        W 5203  41.836  12.258  11.419
45767W        W 5204  33.005  41.039  14.779
45768W        W 5205  15.621  42.515  12.080
45769W        W 5206  33.115  28.086   1.839
45770W        W 5207  16.633  19.259  14.951
45771W        W 5208  16.668  24.036  11.550
45772W        W 5209  11.752  31.921   4.222
45773W        W 5210  19.573  24.997  11.870
45774W        W 5211   9.738  15.151  14.009
45775W        W 5212  26.035  10.732  13.815
45776W        W 5213  30.563  17.061  14.893
45777W        W 5214   3.719  43.383   0.340
45778W        W 5215  19.116  39.481  12.921
45779W        W 5216  29.172  21.203   2.721
45780W        W 5217  28.464   6.710   3.672
45781W        W 5218  13.669   1.409   2.215
45782W        W 5219  15.811  41.488  13.977
45783W        W 5220  25.200   0.907  14.457
45784W        W 5221  22.204  23.149   0.455
45785W        W 5222  23.994  31.085  12.864
45786W        W 5223  18.784   4.738  11.612
45787W        W 5224  18.727  35.419   3.842
45788W        W 5225  43.414   3.300  12.897
45789W        W 5226  39.390  43.361  14.420
45790W        W 5227   6.857   1.395   3.695
45791W        W 5228  11.699   3.947  14.977
45792W        W 5229  41.509  24.169  14.445
45793W        W 5230   3.775  36.474  12.420
45794W        W 5231  28.995  32.395   2.267
45795W        W 5232  12.757  37.834   0.822
45796W        W 5233   3.287  15.789  10.924
45797W        W 5234  28.648   3.751   1.214
45798W        W 5235   0.957  24.979   0.419
45799W        W 5236  39.955   1.921  14.014
45800W        W 5237  13.643  39.041  14.031
45801W        W 5238   0.346  32.477  10.942
45802W        W 5239  22.234  34.865  14.807
45803W        W 5240   1.906   3.758   2.862
45804W        W 5241  19.541  24.153  11.962
45805W        W 5242  36.043  26.563   0.373
45806W        W 5243  40.888   6.870  11.974
45807W        W 5244  23.630  43.328   2.845
45808W        W 5245   0.320  12.241   3.338
45809W        W 5246   6.858   2.316  12.383
45810W        W 5247  10.772   5.700   1.807
45811W        W 5248  42.789   5.362  14.411
45812W        W 5249  12.177  32.574   4.151
45813W        W 5250   0.866  37.830   2.723
45814W        W 5251   8.900  15.692  11.971
45815W        W 5252  28.086  19.661  11.968
45816W        W 5253  16.194  34.869  11.388
45817W        W 5254   2.446  39.446  14.886
45818W        W 5255  19.171  32.125  11.889
45819W        W 5256  30.113   3.740  13.838
45820W        W 5257  37.386  44.451  10.984
45821W        W 5258  18.664  23.148   0.269
45822W        W 5259   2.458   4.731   1.911
45823W        W 5260  30.159  25.623  13.375
45824W        W 5261  16.613  20.622  10.615
45825W        W 5262  39.884  37.508  11.578
45826W        W 5263  35.564   7.413  11.381
45827W        W 5264  26.578  42.349  11.125
45828W        W 5265  30.156  13.154   1.755
45829W        W 5266  22.226  32.605   4.266
45830W        W 5267  38.860   4.290  13.474
45831W        W 5268  42.400  11.746   3.373
45832W        W 5269  12.796  26.030   1.214
45833W        W 5270  13.175  22.504   1.342
45834W        W 5271  18.229   8.675   4.174
45835W        W 5272  10.838  25.004   0.824
45836W        W 5273  19.774   2.432  12.477
45837W        W 5274  37.034  24.533   4.703
45838W        W 5275  18.749  42.811   3.792
45839W        W 5276  24.668  19.085   4.113
45840W        W 5277  42.839   8.744   4.236
45841W        W 5278  16.659  10.755  10.530
45842W        W 5279  43.417  25.616   1.892
45843W        W 5280  33.891   8.253   1.826
45844W        W 5281  44.796  44.999  12.357
45845W        W 5282  28.150  18.100   2.218
45846W        W 5283  43.874  26.025  11.931
45847W        W 5284   2.886  16.224   0.304
45848W        W 5285  16.755  34.443  13.846
45849W        W 5286   7.717  19.264  14.372
45850W        W 5287  17.202  18.159  13.058
45851W        W 5288  21.523  36.999  12.403
45852W        W 5289  12.351  13.682  11.388
45853W        W 5290   0.285  24.992   1.451
45854W        W 5291  17.172  29.931  12.424
45855W        W 5292  19.137   8.767   0.767
45856W        W 5293  41.512  38.066   4.711
45857W        W 5294  31.591   4.743  13.534
45858W        W 5295  20.251  16.685   1.263
45859W        W 5296  35.085  34.484  13.526
45860W        W 5297  41.516  32.007   3.249
45861W        W 5298  42.915  23.508  13.414
45862W        W 5299  24.042  19.688   1.235
45863W        W 5300  38.021  44.367  11.567
45864W        W 5301   7.209  29.995  11.374
45865W        W 5302  32.004  20.105   5.242
45866W        W 5303   9.269  16.643   3.698
45867W        W 5304  12.194   4.902   4.121
45868W        W 5305  22.076  20.745  13.544
45869W        W 5306   5.313   8.383   3.260
45870W        W 5307  11.639   5.780  11.433
45871W        W 5308  24.701  36.555  11.593
45872W        W 5309  30.051  44.405  12.058
45873W        W 5310  39.855   0.984  11.860
45874W        W 5311  31.437  38.559  11.915
45875W        W 5312   7.781  36.010  11.864
45876W        W 5313  19.605   2.342  14.902
45877W        W 5314   2.741  30.572  14.942
45878W        W 5315  25.690   1.239   0.740
45879W        W 5316   5.732  37.452   0.770
45880W        W 5317  40.824  32.981  11.605
45881W        W 5318  36.421  34.559   4.315
45882W        W 5319  38.034  33.425  12.503
45883W        W 5320  16.724  22.730   4.715
45884W        W 5321   2.458  11.194   3.299
45885W        W 5322  28.112  29.042   3.237
45886W        W 5323  38.537  26.025   4.247
45887W        W 5324  33.949  18.201   2.289
45888W        W 5325  38.465  34.520  13.877
45889W        W 5326  39.510  27.613  14.367
45890W        W 5327  17.684  24.087   2.694
45891W        W 5328  25.984   2.417  13.938
45892W        W 5329  22.630   9.240  11.580
45893W        W 5330  43.304   0.790   2.791
45894W        W 5331   0.341  25.214   2.197
45895W        W 5332  30.969  24.701   3.727
45896W        W 5333  22.565  24.696   5.789
45897W        W 5334   1.913  29.426   0.442
45898W        W 5335   9.240   1.459  12.087
45899W        W 5336  10.355   6.847  10.630
45900W        W 5337  42.943  24.093  13.327
45901W        W 5338  19.252  43.385  13.877
45902W        W 5339  14.621   0.394  11.972
45903W        W 5340   8.751  10.332  10.499
45904W        W 5341   3.743  26.155  13.014
45905W        W 5342  30.114  42.435  13.426
45906W        W 5343  40.424  34.409  12.865
45907W        W 5344   6.689   4.765  11.563
45908W        W 5345  17.679  43.328   9.521
45909W        W 5346   9.740  23.613   2.903
45910W        W 5347  12.300  39.371   1.365
45911W        W 5348  11.701  31.494  13.329
45912W        W 5349  15.641   4.720   1.741
45913W        W 5350  12.803  23.042  13.413
45914W        W 5351  28.485  42.959   0.388
45915W        W 5352  25.012  25.588  12.516
45916W        W 5353  37.475  19.557   0.246
45917W        W 5354   6.261  29.974   2.714
45918W        W 5355  19.093  44.410  11.422
45919W        W 5356  16.600  25.696   2.682
45920W        W 5357  28.526  42.351  11.927
45921W        W 5358  12.738   0.366   1.349
45922W        W 5359   2.245  34.378   9.560
45923W        W 5360  37.876  16.306  13.913
45924W        W 5361  26.526  33.476  14.889
45925W        W 5362  21.177  39.933   2.791
45926W        W 5363  15.267   0.813   2.184
45927W        W 5364   2.432  41.921   4.300
45928W        W 5365  10.268  15.309   4.641
45929W        W 5366  23.684  38.868   3.381
45930W        W 5367  14.167  41.303  12.428
45931W        W 5368  29.149   2.848   1.356
45932W        W 5369  19.221  20.727   1.761
45933W        W 5370  20.200   0.818  10.433
45934W        W 5371  19.183  13.609  11.382
45935W        W 5372  21.126  18.151   2.334
45936W        W 5373  23.724  23.607   5.281
45937W        W 5374  24.485  34.402  12.534
45938W        W 5375  44.942  27.061   1.844
45939W        W 5376  23.074  32.468   4.170
45940W        W 5377  10.188  43.297   4.762
45941W        W 5378  33.546  27.133   2.267
45942W        W 5379  25.656  17.200   4.222
45943W        W 5380  22.060  29.660   3.777
45944W        W 5381  33.960  39.344   2.220
45945W        W 5382  33.381  27.655   2.314
45946W        W 5383  18.684  38.949   3.842
45947W        W 5384  40.476  15.283  13.919
45948W        W 5385   7.205  43.853  12.951
45949W        W 5386   5.910  33.070  14.796
45950W        W 5387  12.747  31.521   1.386
45951W        W 5388   1.785  26.497  11.475
45952W        W 5389   3.294   9.276   3.355
45953W        W 5390  29.034  25.102   4.815
45954W        W 5391  17.762   6.835  12.490
45955W        W 5392  31.088   5.823  11.560
45956W        W 5393  37.865   8.263   4.682
45957W        W 5394  37.968  36.889  14.436
45958W        W 5395  26.096  27.539   4.733
45959W        W 5396  35.484  42.323  14.402
45960W        W 5397  23.219  37.971   4.307
45961W        W 5398   7.902  39.478   4.135
45962W        W 5399  35.429   0.805   3.154
45963W        W 5400  37.546  40.431  12.519
45964W        W 5401   3.870  26.519   1.904
45965W        W 5402  10.348   5.925   2.903
45966W        W 5403  37.359  10.665  10.915
45967W        W 5404  31.547   1.895   0.404
45968W        W 5405  24.560  11.864   2.373
45969W        W 5406  24.682  40.510   4.312
45970W        W 5407  39.339  45.000  10.590
45971W        W 5408   7.341  15.619  12.020
45972W        W 5409  43.925  15.136   0.292
45973W        W 5410  16.609  42.921   4.828
45974W        W 5411  16.229  33.048   1.402
45975W        W 5412  10.183  15.289  13.547
45976W        W 5413  42.803  33.569  13.811
45977W        W 5414  21.733  30.539  10.961
45978W        W 5415  24.505  20.566   0.339
45979W        W 5416   8.659   3.308   0.840
45980W        W 5417  28.002  23.076  11.604
45981W        W 5418  39.003   0.296   0.341
45982W        W 5419  34.915  40.970   2.803
45983W        W 5420   3.383  29.658  11.068
45984W        W 5421  34.399  33.596   2.743
45985W        W 5422  33.489  37.571   2.266
45986W        W 5423  42.385  37.419  14.776
45987W        W 5424   3.741  44.377  14.288
45988W        W 5425   2.288   8.242   1.833
45989W        W 5426   1.248  38.456   4.801
45990W        W 5427  27.660   1.826   4.813
45991W        W 5428  12.354  30.552  10.527
45992W        W 5429  38.529   6.303  12.496
45993W        W 5430  43.364   8.244  14.318
45994W        W 5431  36.927  28.612  12.458
45995W        W 5432  18.077  10.346  10.616
45996W        W 5433  20.594  12.141  13.876
45997W        W 5434   4.913  21.066   3.813
45998W        W 5435   0.888  17.151   4.625
45999W        W 5436  19.175  27.983  14.008
46000W        W 5437  41.879  16.148   1.219
46001W        W 5438  17.141  17.797  14.286
46002W        W 5439   7.762   4.908  12.370
46003W        W 5440  16.171   4.715  13.896
46004W        W 5441  44.326  42.312   1.219
46005W        W 5442   4.426  27.536   4.184
46006W        W 5443  34.925  16.216   1.767
46007W        W 5444  32.020  32.527   1.231
46008W        W 5445  33.106  16.650   2.837
46009W        W 5446  26.066  11.346  13.836
46010W        W 5447  15.137   4.888   0.864
46011W        W 5448  27.559  13.674  14.929
46012W        W 5449  30.575  30.080  14.809
46013W        W 5450   8.355   1.475   1.756
46014W        W 5451  32.911   7.742  12.010
46015W        W 5452  32.610   5.877  13.048
46016W        W 5453  34.370   3.387   1.741
46017W        W 5454  44.403  38.964  13.887
46018W        W 5455  21.103  10.633  13.477
46019W        W 5456   7.312  18.672   4.619
46020W        W 5457  19.548  39.375  14.809
46021W        W 5458  22.555  32.119  14.903
46022W        W 5459   8.236  42.429   1.446
46023W        W 5460   1.335  35.470   3.178
46024W        W 5461  20.220  23.056  13.824
46025W        W 5462   8.284   9.250  13.516
46026W        W 5463  12.672  33.512  11.018
46027W        W 5464  29.547  36.866   4.796
46028W        W 5465   9.862  26.027   1.353
46029W        W 5466  27.088  10.162   9.991
46030W        W 5467  10.815  10.841   4.236
46031W        W 5468  17.662  12.177   1.705
46032W        W 5469  17.793   0.485  13.366
46033W        W 5470   9.354  34.494  14.032
46034W        W 5471  31.950   3.458   0.818
46035W        W 5472  10.704  27.570  14.335
46036W        W 5473   7.340   1.881   1.446
46037W        W 5474  42.287  15.256  13.521
46038W        W 5475  17.729  33.903  14.818
46039W        W 5476  40.332  31.019  13.540
46040W        W 5477  18.775  23.041   0.797
46041W        W 5478  34.065  11.317  12.871
46042W        W 5479   4.944  17.282   3.230
46043W        W 5480  10.824   1.242   3.190
46044W        W 5481   9.712   2.303  12.390
46045W        W 5482   1.759  25.079   3.657
46046W        W 5483   9.656   1.880  13.349
46047W        W 5484  14.629   0.409   2.900
46048W        W 5485   8.675   4.896   2.730
46049W        W 5486  37.376  24.714  11.871
46050W        W 5487  20.081  25.538  11.079
46051W        W 5488  20.751  40.431  10.901
46052W        W 5489   9.183   9.843   2.855
46053W        W 5490  27.055  42.005   3.847
46054W        W 5491  16.741  37.429  11.396
46055W        W 5492  32.074  39.940  11.864
46056W        W 5493   0.296  39.002   4.677
46057W        W 5494  44.871  20.652   1.342
46058W        W 5495  28.536   4.945  13.537
46059W        W 5496  43.987  43.968  12.959
46060W        W 5497   2.918  30.642  14.359
46061W        W 5498  19.761   5.240   2.278
46062W        W 5499  12.787  24.995  11.104
46063W        W 5500  27.489  30.946   0.391
46064W        W 5501  38.335  10.877  13.309
46065W        W 5502  43.904  30.974   3.830
46066W        W 5503  18.777  31.612   2.349
46067W        W 5504  43.962  39.906   5.180
46068W        W 5505  41.994  16.611   2.691
46069W        W 5506  29.443  24.033   0.784
46070W        W 5507  44.276  17.609  11.432
46071W        W 5508  41.301   8.167  11.018
46072W        W 5509  31.913  44.406  14.432
46073W        W 5510   4.872  30.615  10.082
46074W        W 5511  39.830  11.753   2.225
46075W        W 5512   0.823  30.105  12.033
46076W        W 5513  27.472   1.481   2.779
46077W        W 5514  19.108  14.273  13.365
46078W        W 5515   4.897  40.983  13.962
46079W        W 5516  39.868  36.407   1.296
46080W        W 5517   9.296   7.227  11.861
46081W        W 5518  35.897  10.869  13.800
46082W        W 5519  42.526   5.222  13.924
46083W        W 5520  43.511   7.287   1.404
46084W        W 5521   3.873  12.699  10.961
46085W        W 5522  35.576   5.339  14.027
46086W        W 5523  31.083  16.249  10.641
46087W        W 5524  36.006  37.486   3.838
46088W        W 5525  19.159  44.376   3.179
46089W        W 5526  26.621  10.829  13.864
46090W        W 5527  36.852  14.747  13.059
46091W        W 5528   8.814  31.438   4.162
46092W        W 5529  31.490  30.957   4.351
46093W        W 5530  40.500  28.526  12.444
46094W        W 5531  24.513  10.192  14.983
46095W        W 5532  25.066  43.895   1.922
46096W        W 5533  22.701  23.708  10.920
46097W        W 5534  14.627  39.357   1.812
46098W        W 5535  34.563  18.563   1.700
46099W        W 5536  30.614  36.429  12.447
46100W        W 5537  18.177   2.870  10.985
46101W        W 5538  20.182  26.497  10.606
46102W        W 5539  16.278  35.472  12.008
46103W        W 5540   5.714  16.616  10.453
46104W        W 5541  26.093  24.116  10.611
46105W        W 5542  42.903  32.118  14.515
46106W        W 5543  19.171  36.968  14.463
46107W        W 5544  36.019  42.418   0.425
46108W        W 5545  40.548   4.794  13.048
46109W        W 5546  26.653  26.018  12.442
46110W        W 5547   0.377   0.489   2.881
46111W        W 5548  11.848  19.769   1.413
46112W        W 5549  32.900   8.757  12.483
46113W        W 5550   2.924  44.926   0.252
46114W        W 5551   4.420  23.717  14.997
46115W        W 5552  34.393  16.208   1.390
46116W        W 5553  25.176  32.002   2.327
46117W        W 5554  17.586   1.964   2.876
46118W        W 5555  39.329  23.078   2.706
46119W        W 5556   5.926   7.392   3.826
46120W        W 5557   8.714   7.206  12.853
46121W        W 5558  26.993   4.853  11.042
46122W        W 5559   8.226  20.234  13.940
46123W        W 5560  13.719  14.693  11.574
46124W        W 5561   6.273  39.451  13.387
46125W        W 5562  20.169  32.508   1.275
46126W        W 5563  35.959  40.346   4.737
46127W        W 5564  11.297  36.886   1.839
46128W        W 5565  26.589  15.651  13.360
46129W        W 5566  16.257  34.508   3.757
46130W        W 5567   5.298  14.137   4.305
46131W        W 5568   5.393  36.407  13.338
46132W        W 5569  39.936  17.188  14.874
46133W        W 5570  17.185  23.650   5.313
46134W        W 5571  30.645  11.169  13.841
46135W        W 5572  25.703  28.058   2.763
46136W        W 5573  22.205  31.549  12.422
46137W        W 5574  41.991  44.275  13.382
46138W        W 5575  30.963   3.736  14.301
46139W        W 5576  39.826   2.800  13.895
46140W        W 5577  24.065  11.749   2.346
46141W        W 5578  29.557  14.607   1.328
46142W        W 5579  22.537  15.248  12.472
46143W        W 5580  27.158  23.709  10.531
46144W        W 5581   7.738  11.791   4.804
46145W        W 5582  29.600  15.153  11.117
46146W        W 5583  25.477  11.795  11.437
46147W        W 5584  36.512  43.305  10.629
46148W        W 5585  40.964  39.898   4.188
46149W        W 5586   9.646   6.851  11.128
46150W        W 5587   9.733  33.591   0.310
46151W        W 5588   2.371  33.063   3.802
46152W        W 5589   3.412  10.655   2.213
46153W        W 5590  25.527  19.082   3.759
46154W        W 5591  36.855  24.108  14.839
46155W        W 5592  14.600  12.786   0.451
46156W        W 5593  43.006  11.819   0.335
46157W        W 5594  39.558  42.296   2.866
46158W        W 5595   9.759  13.204   1.854
46159W        W 5596   6.301  24.547  12.923
46160W        W 5597  23.991   1.355   1.823
46161W        W 5598  15.209  31.045  12.358
46162W        W 5599   0.946  21.230   3.305
46163W        W 5600  21.201   9.671   3.643
46164W        W 5601  32.442   3.411  10.544
46165W        W 5602  37.548  36.033   1.235
46166W        W 5603  24.157  36.012   0.457
46167W        W 5604  15.710   7.830   3.865
46168W        W 5605  15.296  21.110  14.835
46169W        W 5606  28.087  23.643   5.290
46170W        W 5607  11.262   5.222  13.390
46171W        W 5608   7.904   2.281  11.906
46172W        W 5609  32.413  13.600  12.552
46173W        W 5610  28.147   6.719  11.036
46174W        W 5611  28.563   6.313  11.938
46175W        W 5612  40.007   2.934   3.689
46176W        W 5613  13.635  30.157  12.015
46177W        W 5614   5.893  30.145   1.416
46178W        W 5615  11.664  14.798   4.671
46179W        W 5616  17.759  15.329  11.527
46180W        W 5617  44.270  26.665  13.428
46181W        W 5618  20.171  32.120  10.508
46182W        W 5619  10.785   3.743  11.502
46183W        W 5620  24.061  12.843   0.824
46184W        W 5621   5.386   1.382  14.476
46185W        W 5622  13.733  23.611   1.423
46186W        W 5623   1.784  22.513  10.598
46187W        W 5624  16.112  12.231  11.039
46188W        W 5625  34.581   1.852  13.429
46189W        W 5626   4.841   4.764  13.521
46190W        W 5627  35.497  32.398  10.584
46191W        W 5628   3.876  31.596  12.546
46192W        W 5629  19.777  24.989   3.372
46193W        W 5630  29.053  18.697   0.953
46194W        W 5631  23.689  39.350   1.236
46195W        W 5632  10.637  33.624   2.202
46196W        W 5633   3.747  30.073  14.296
46197W        W 5634  25.597  27.962  11.457
46198W        W 5635  11.753  40.441   2.826
46199W        W 5636   8.265   9.726   1.845
46200W        W 5637  16.623  36.451  14.010
46201W        W 5638  38.844  24.165  12.001
46202W        W 5639  24.231  16.173   2.321
46203W        W 5640   2.300  36.998   2.889
46204W        W 5641   9.360  18.639   1.701
46205W        W 5642  17.650  36.031   1.405
46206W        W 5643  32.493   5.368  11.108
46207W        W 5644  32.100   9.329  13.391
46208W        W 5645  33.432   4.364   0.940
46209W        W 5646   2.323  28.012  14.860
46210W        W 5647  36.067  17.723  13.049
46211W        W 5648   2.314   3.775   4.830
46212W        W 5649  21.741  12.816  13.905
46213W        W 5650  20.762   8.701  11.461
46214W        W 5651  32.059   6.327   1.880
46215W        W 5652  24.001  36.450   2.219
46216W        W 5653  36.885   4.835   0.731
46217W        W 5654  43.829  22.112   4.269
46218W        W 5655   7.693  35.876  13.862
46219W        W 5656  36.922  11.648  10.549
46220W        W 5657  34.475  23.020   2.839
46221W        W 5658  25.493  13.829  11.436
46222W        W 5659  17.670  32.113  14.450
46223W        W 5660  17.601  43.441  10.127
46224W        W 5661  28.155  40.414   0.913
46225W        W 5662  24.163  19.160  12.391
46226W        W 5663  33.115   0.302   4.329
46227W        W 5664  23.539   6.771   0.850
46228W        W 5665  18.239   0.877  14.795
46229W        W 5666  38.435   0.955   3.208
46230W        W 5667   8.804  23.638  14.016
46231W        W 5668  37.471  24.065  11.449
46232W        W 5669  10.854  26.618   4.130
46233W        W 5670  41.330  40.368  14.857
46234W        W 5671   2.903  37.559   1.332
46235W        W 5672   2.377  26.486  10.576
46236W        W 5673  18.692  12.323  14.318
46237W        W 5674  13.194   9.242   4.140
46238W        W 5675   6.800   9.786  14.393
46239W        W 5676  38.970  17.115  12.009
46240W        W 5677  42.470  10.285  12.425
46241W        W 5678   0.262   1.832   2.672
46242W        W 5679  32.479  39.905  10.123
46243W        W 5680  26.026  28.019   4.729
46244W        W 5681   7.713  25.619   4.647
46245W        W 5682   5.768  16.074  10.952
46246W        W 5683  12.204  41.913  13.818
46247W        W 5684   2.308   7.749   2.698
46248W        W 5685  40.479  21.661  13.033
46249W        W 5686  32.494   0.747  10.942
46250W        W 5687  10.262  14.205  14.486
46251W        W 5688  23.101  14.101   2.227
46252W        W 5689  16.733  34.084   3.794
46253W        W 5690   9.843  44.003  11.530
46254W        W 5691  12.159  24.990  13.940
46255W        W 5692  13.222  30.603   1.264
46256W        W 5693  22.716  44.407   1.905
46257W        W 5694   0.953   5.756   1.392
46258W        W 5695  38.331  40.843  11.386
46259W        W 5696   5.841   5.695  10.957
46260W        W 5697  18.229  32.544   3.229
46261W        W 5698  36.485  27.994   4.614
46262W        W 5699  33.590  40.395   2.307
46263W        W 5700  36.449  32.601  11.868
46264W        W 5701  43.941  39.846  11.937
46265W        W 5702   9.179   8.705   2.374
46266W        W 5703  23.092  29.107   0.441
46267W        W 5704  33.482   9.348   1.334
46268W        W 5705  10.350  13.352   2.836
46269W        W 5706  29.045  20.106  10.578
46270W        W 5707  38.367  19.584  11.022
46271W        W 5708  36.964   5.418   2.292
46272W        W 5709  32.922  32.996   0.920
46273W        W 5710  35.103  35.452   3.224
46274W        W 5711  27.016  25.141  11.017
46275W        W 5712  22.168   0.282   0.753
46276W        W 5713  15.108  39.945   2.318
46277W        W 5714   2.732   8.203  14.811
46278W        W 5715  27.122  17.290   3.748
46279W        W 5716  40.981  41.338  12.903
46280W        W 5717  44.286  33.905   2.852
46281W        W 5718  33.906  19.638  13.022
46282W        W 5719   0.868  28.053   4.723
46283W        W 5720  17.143  16.311   3.741
46284W        W 5721  34.025  22.188  12.546
46285W        W 5722   3.381  32.483   1.407
46286W        W 5723  20.620  25.017  10.505
46287W        W 5724   1.345  26.123  14.375
46288W        W 5725  24.184   1.281  13.902
46289W        W 5726  41.002  23.109  10.431
46290W        W 5727  26.675  42.018   4.345
46291W        W 5728   5.841   5.337  13.878
46292W        W 5729   2.759  22.578  11.035
46293W        W 5730  19.228  10.331   2.342
46294W        W 5731  28.071   3.459  12.969
46295W        W 5732  43.510  22.692  11.098
46296W        W 5733  44.925  41.427   0.457
46297W        W 5734  32.552  34.988   2.750
46298W        W 5735  15.257  36.855   2.296
46299W        W 5736  21.515  21.559   1.414
46300W        W 5737  36.045   6.875  14.324
46301W        W 5738  24.691  28.562  12.848
46302W        W 5739  11.755  38.005  11.983
46303W        W 5740   9.762  35.865  14.424
46304W        W 5741  43.784  40.501  13.804
46305W        W 5742  44.900   5.779  14.340
46306W        W 5743  44.992  17.145  11.449
46307W        W 5744  16.795  24.978  10.590
46308W        W 5745  33.900  41.004  11.920
46309W        W 5746  21.553  38.325  13.927
46310W        W 5747  31.442   7.842   4.286
46311W        W 5748  44.480  21.069  10.129
46312W        W 5749  26.658  25.473   0.904
46313W        W 5750  33.130  19.077  11.488
46314W        W 5751  26.082  22.555   1.415
46315W        W 5752  16.250   4.780  10.069
46316W        W 5753  21.205  22.615  13.018
46317W        W 5754  29.041   5.853   3.324
46318W        W 5755  12.804  13.730  10.910
46319W        W 5756  21.135  20.553  11.603
46320W        W 5757  18.055  36.002  13.883
46321W        W 5758  15.779  33.577   5.313
46322W        W 5759  41.354  43.777   0.373
46323W        W 5760  18.767  16.791  13.518
46324W        W 5761  25.166  18.227  14.349
46325W        W 5762   5.356  34.930  12.517
46326W        W 5763  35.082  41.518   3.179
46327W        W 5764  14.776  14.804   1.365
46328W        W 5765  13.651   6.918   1.444
46329W        W 5766  25.684  15.180   4.721
46330W        W 5767  18.248  24.118  13.541
46331W        W 5768  39.907  16.309   3.676
46332W        W 5769  30.448   6.239   1.894
46333W        W 5770  41.925  13.314  10.590
46334W        W 5771   9.358  38.030   0.872
46335W        W 5772  21.589  36.866   4.172
46336W        W 5773  27.949   9.741   3.835
46337W        W 5774  42.822  34.882   3.631
46338W        W 5775  30.066   3.376  13.971
46339W        W 5776   1.838  21.202  12.024
46340W        W 5777  22.522  38.887   3.780
46341W        W 5778  37.355  38.894  14.913
46342W        W 5779  22.237  27.165   1.775
46343W        W 5780   9.280  15.260   0.253
46344W        W 5781  19.728  16.153  14.359
46345W        W 5782  29.426  41.315  10.099
46346W        W 5783  42.839  43.417   0.770
46347W        W 5784  32.026  36.964   0.810
46348W        W 5785   0.927  17.649   2.345
46349W        W 5786  36.521  25.679  12.029
46350W        W 5787  25.567  41.534  11.600
46351W        W 5788  28.525   0.782   1.417
46352W        W 5789  30.059  40.960   3.737
46353W        W 5790  32.466  16.102  11.472
46354W        W 5791   3.926  20.600  12.495
46355W        W 5792  22.200   5.219   2.365
46356W        W 5793  20.705  25.215   2.758
46357W        W 5794   4.725  43.452   3.357
46358W        W 5795   7.815   0.959  11.508
46359W        W 5796  41.483   1.959   1.892
46360W        W 5797  38.851  25.068  14.010
46361W        W 5798   5.907   9.819   1.768
46362W        W 5799  20.538  30.645  14.997
46363W        W 5800  35.540   6.230  13.486
46364W        W 5801  39.831  39.316  14.294
46365W        W 5802  27.139  38.998  12.444
46366W        W 5803  35.362  29.107  13.324
46367W        W 5804  22.563  21.232   5.092
46368W        W 5805  33.382   6.407  14.947
46369W        W 5806  16.139  12.613   4.667
46370W        W 5807  12.808  31.472   4.673
46371W        W 5808  31.044  33.916  14.967
46372W        W 5809  19.555  39.336   1.440
46373W        W 5810   1.386  40.877  13.792
46374W        W 5811  20.657  32.932   0.949
46375W        W 5812  40.024  42.838  12.007
46376W        W 5813   0.364  34.492  11.399
46377W        W 5814  18.131  11.367  10.430
46378W        W 5815  11.749   3.786  13.317
46379W        W 5816  17.158   3.801  14.908
46380W        W 5817  15.116   6.288  12.867
46381W        W 5818  22.106   5.341   2.799
46382W        W 5819  29.561  21.232   4.823
46383W        W 5820  16.670   9.887   1.857
46384W        W 5821  13.699  15.617  14.922
46385W        W 5822  15.117  39.347   4.825
46386W        W 5823  38.028  29.664   3.755
46387W        W 5824  41.963  11.332  11.592
46388W        W 5825  33.078  36.976  13.002
46389W        W 5826  20.132   1.844   2.330
46390W        W 5827  42.801  32.586   3.234
46391W        W 5828  28.093  22.139   4.241
46392W        W 5829   4.341  29.556  13.392
46393W        W 5830  24.095  44.831   2.275
46394W        W 5831  18.212   1.262  14.883
46395W        W 5832  29.106  33.405   2.354
46396W        W 5833  26.486  41.303  14.468
46397W        W 5834  26.511  33.994  11.401
46398W        W 5835  16.110   1.391   1.854
46399W        W 5836  28.449  17.250   0.740
46400W        W 5837  43.973   9.719  14.372
46401W        W 5838  21.700  13.270  12.828
46402W        W 5839  34.879   2.386  12.057
46403W        W 5840  28.971  14.203   1.414
46404W        W 5841  33.602   4.404  13.900
46405W        W 5842  13.676  38.327  13.404
46406W        W 5843  30.458   7.330  13.921
46407W        W 5844  25.486  43.800   0.921
46408W        W 5845  37.879   4.281   1.284
46409W        W 5846  39.916  16.130  13.949
46410W        W 5847   0.481  22.552   0.457
46411W        W 5848  28.668   5.871   1.219
46412W        W 5849   3.908  34.528  12.433
46413W        W 5850  31.550  23.151  13.013
46414W        W 5851  36.353  20.164   0.409
46415W        W 5852  43.857  17.759  11.050
46416W        W 5853  27.687  40.849   3.312
46417W        W 5854  27.474  16.206   3.827
46418W        W 5855  32.607   7.324   5.258
46419W        W 5856  30.449   8.303   1.868
46420W        W 5857  43.394  44.861  12.067
46421W        W 5858  11.176   5.717   1.885
46422W        W 5859   1.461  38.493  11.056
46423W        W 5860   8.735  31.076   2.395
46424W        W 5861   0.791   2.290  11.517
46425W        W 5862  27.494  25.566  14.291
46426W        W 5863  23.575  21.079  11.414
46427W        W 5864  28.065   5.759   2.691
46428W        W 5865  18.179  34.041  13.991
46429W        W 5866   6.325  33.104  11.048
46430W        W 5867   8.875  32.573   2.234
46431W        W 5868  28.563  42.481   0.774
46432W        W 5869  27.992  17.153  13.814
46433W        W 5870  25.162  20.547   3.816
46434W        W 5871  37.058  24.617   0.923
46435W        W 5872  14.794  26.133   1.877
46436W        W 5873  24.593  27.658   4.832
46437W        W 5874  44.761  27.616   2.274
46438W        W 5875   4.745  12.267   3.378
46439W        W 5876  42.382  41.018   1.736
46440W        W 5877  36.054  28.495  13.541
46441W        W 5878  18.680  13.184  10.533
46442W        W 5879  27.460  37.557   0.888
46443W        W 5880  16.697   3.253   1.287
46444W        W 5881  37.847   2.844   2.883
46445W        W 5882  43.482  40.385  10.582
46446W        W 5883  22.527  33.013  13.862
46447W        W 5884  39.389  30.967  14.780
46448W        W 5885  26.005  32.096   2.761
46449W        W 5886  10.785  31.929   0.273
46450W        W 5887  11.233  10.272  10.471
46451W        W 5888  17.213   7.830  10.506
46452W        W 5889   2.337   7.344  11.040
46453W        W 5890  39.893  39.825   4.760
46454W        W 5891  13.751   7.405  13.904
46455W        W 5892  20.258  20.132   5.130
46456W        W 5893  28.162   5.278   4.282
46457W        W 5894  18.575   3.808  11.466
46458W        W 5895  11.255  44.314   4.620
46459W        W 5896   0.292  31.899   4.155
46460W        W 5897  36.056  43.365   3.673
46461W        W 5898   2.339   6.274  10.641
46462W        W 5899  23.549  32.139  10.964
46463W        W 5900   2.761   0.824   1.777
46464W        W 5901   3.388  35.583  13.963
46465W        W 5902   5.361   0.771   3.792
46466W        W 5903  18.162  26.122  13.825
46467W        W 5904  23.561  12.760  12.075
46468W        W 5905  23.107  17.642   3.253
46469W        W 5906  20.594  35.486   3.209
46470W        W 5907  24.123  10.796  10.046
46471W        W 5908  27.523  34.881  13.026
46472W        W 5909   2.947  27.617  14.384
46473W        W 5910   6.919  11.670  11.092
46474W        W 5911  19.052   2.886  10.522
46475W        W 5912  42.448  26.032  11.124
46476W        W 5913  39.867  37.415   3.364
46477W        W 5914  44.456  23.124   2.226
46478W        W 5915  35.506  37.006  14.873
46479W        W 5916   5.322  22.225  10.450
46480W        W 5917  34.400  26.670  14.010
46481W        W 5918  40.454  39.033   3.644
46482W        W 5919   6.831   3.922  12.359
46483W        W 5920  34.577   0.883   4.306
46484W        W 5921  22.729  12.704  13.043
46485W        W 5922  44.826  29.096   4.739
46486W        W 5923  24.518   7.249  11.586
46487W        W 5924  18.677  36.051   1.365
46488W        W 5925  16.101  40.050  12.903
46489W        W 5926  43.979  35.902   0.782
46490W        W 5927   5.758  10.838   4.737
46491W        W 5928  16.087  31.151  10.491
46492W        W 5929  35.509  33.083  12.869
46493W        W 5930  37.082  26.997  13.002
46494W        W 5931   4.856  34.536  10.480
46495W        W 5932  19.105   1.339  13.019
46496W        W 5933  28.140  32.529   1.236
46497W        W 5934  29.642  17.657  14.860
46498W        W 5935  44.829  23.159   3.275
46499W        W 5936  42.501  26.483  11.913
46500W        W 5937  27.083  26.458   2.827
46501W        W 5938   8.788   3.383   4.206
46502W        W 5939  31.459  41.888  11.953
46503W        W 5940  11.182  33.573   4.761
46504W        W 5941  34.925  13.836  10.489
46505W        W 5942  42.321  41.477  14.781
46506W        W 5943  15.581  33.620  11.581
46507W        W 5944  15.744  22.633  14.471
46508W        W 5945  36.435   9.245  13.326
46509W        W 5946  40.331  21.054   3.239
46510W        W 5947   5.694  16.734  14.490
46511W        W 5948  12.270  23.141  11.127
46512W        W 5949   5.315  10.719   2.842
46513W        W 5950  18.721  39.533   0.786
46514W        W 5951   5.779   9.797  10.980
46515W        W 5952   9.746  27.158  13.827
46516W        W 5953  37.462  40.446  13.346
46517W        W 5954  12.324   9.259  13.476
46518W        W 5955   1.973   7.192   0.434
46519W        W 5956  10.168  30.595   5.190
46520W        W 5957  43.409  23.215  10.637
46521W        W 5958  33.931  27.643   3.799
46522W        W 5959  25.568  15.240  14.904
46523W        W 5960  43.361   8.308   0.846
46524W        W 5961  41.419  20.627  14.421
46525W        W 5962  44.923  24.126  13.819
46526W        W 5963  21.204   4.733   0.799
46527W        W 5964   5.869  44.765   1.324
46528W        W 5965  35.072   6.697   0.809
46529W        W 5966  41.992  24.723   2.269
46530W        W 5967  24.593  43.914   3.336
46531W        W 5968  42.432  18.061  12.565
46532W        W 5969  13.228  43.895  13.058
46533W        W 5970  34.935  32.423   2.754
46534W        W 5971   3.883  44.921  12.464
46535W        W 5972  17.138  11.856  13.515
46536W        W 5973  32.003  40.458  11.481
46537W        W 5974  25.514  21.619   5.659
46538W        W 5975   4.262  35.020  11.418
46539W        W 5976  32.031  18.586  14.288
46540W        W 5977  43.370  17.594   0.823
46541W        W 5978  41.900  10.834  13.473
46542W        W 5979  21.075  44.945  12.420
46543W        W 5980  37.868  14.163   0.769
46544W        W 5981  42.017   2.878   2.363
46545W        W 5982   3.287  24.664   2.317
46546W        W 5983  22.630  20.553  10.532
46547W        W 5984   0.895  27.559   0.884
46548W        W 5985  33.910   3.860   0.825
46549W        W 5986   9.310  32.551   4.608
46550W        W 5987  14.644   6.835   2.331
46551W        W 5988   8.252   2.931  11.416
46552W        W 5989  13.824  33.046   4.320
46553W        W 5990  16.214  34.436  11.096
46554W        W 5991  14.262  32.534   1.380
46555W        W 5992  35.460  39.409   1.430
46556W        W 5993  12.851  27.077  13.985
46557W        W 5994   6.695  25.668   2.187
46558W        W 5995  26.018  21.721  11.925
46559W        W 5996  39.397  44.956  13.525
46560W        W 5997  40.513   1.383  11.091
46561W        W 5998  42.506   6.352  11.884
46562W        W 5999   7.813  38.525  14.892
46563W        W 6000  14.100  38.395   1.244
46564W        W 6001   6.733  36.407  11.024
46565W        W 6002   2.967  11.240  12.908
46566W        W 6003  43.782   2.311   4.626
46567W        W 6004  18.672  26.578  12.546
46568W        W 6005  34.453   1.766   0.391
46569W        W 6006  29.120  24.226  14.378
46570W        W 6007  31.517  13.822  10.443
46571W        W 6008  32.068  40.314  11.983
46572W        W 6009  17.277  28.610   4.273
46573W        W 6010   1.837  10.857  10.454
46574W        W 6011  22.112   7.711  14.512
46575W        W 6012   2.762  15.310   1.242
46576W        W 6013  20.028  10.763  14.913
46577W        W 6014   7.372  19.681  13.821
46578W        W 6015  20.676  22.128   0.469
46579W        W 6016  19.710  18.086   3.851
46580W        W 6017   4.229  40.854   1.286
46581W        W 6018   4.920   9.802  14.475
46582W        W 6019   9.680  34.050  13.001
46583W        W 6020  43.764   3.931  13.866
46584W        W 6021  44.447   9.388  12.384
46585W        W 6022  37.033  12.691  14.365
46586W        W 6023  30.636  43.503  13.808
46587W        W 6024  16.568   1.266  11.371
46588W        W 6025  24.514  17.571  11.048
46589W        W 6026  16.654  21.022  10.887
46590W        W 6027  19.639  32.047   4.708
46591W        W 6028  33.504  26.975  14.354
46592W        W 6029  11.829  26.664   3.172
46593W        W 6030   5.426  23.633   2.290
46594W        W 6031  24.492  34.960   1.377
46595W        W 6032  41.339  25.630   1.763
46596W        W 6033  28.018  14.124   4.249
46597W        W 6034  33.956   1.767   3.284
46598W        W 6035  28.463  43.430  12.838
46599W        W 6036  28.075  23.034  12.870
46600W        W 6037  37.837  27.023   0.277
46601W        W 6038  37.976  26.652  13.030
46602W        W 6039   8.760  22.104   3.719
46603W        W 6040  31.522  42.898   4.211
46604W        W 6041  34.397  32.961  12.547
46605W        W 6042  42.889  10.166   1.885
46606W        W 6043  14.234  19.762  12.908
46607W        W 6044  39.867  15.632  13.953
46608W        W 6045  39.823  23.633   0.382
46609W        W 6046   4.270  28.632   0.466
46610W        W 6047  29.618  33.964  10.492
46611W        W 6048  31.988  27.494   5.194
46612W        W 6049  35.428  32.440  11.000
46613W        W 6050  23.175   5.194   3.381
46614W        W 6051  13.126  32.468  11.931
46615W        W 6052   1.802  39.031  11.561
46616W        W 6053  24.564  21.687   1.372
46617W        W 6054  29.998   6.275   1.793
46618W        W 6055   3.795  37.573   3.253
46619W        W 6056  36.025   4.355   3.648
46620W        W 6057  19.711  31.405  12.357
46621W        W 6058   3.457  30.435  13.366
46622W        W 6059   0.380  12.211  14.781
46623W        W 6060  10.669   4.868  14.431
46624W        W 6061   6.321  39.537   1.227
46625W        W 6062  15.578  16.157   1.313
46626W        W 6063  40.307  21.174  10.106
46627W        W 6064  21.168  30.115   3.688
46628W        W 6065  15.734   2.806  14.771
46629W        W 6066   1.387  24.647  13.961
46630W        W 6067  16.152   5.716  12.434
46631W        W 6068  30.610  31.483   3.357
46632W        W 6069   0.369   3.367   3.268
46633W        W 6070   9.650   2.241   2.839
46634W        W 6071  43.899  39.385  14.377
46635W        W 6072  25.524  18.173   0.423
46636W        W 6073   5.930   8.235   1.868
46637W        W 6074  44.455  16.640   1.917
46638W        W 6075   8.741  23.547   3.266
46639W        W 6076   8.707  18.222  12.035
46640W        W 6077  22.570  15.743   0.350
46641W        W 6078  32.982  33.552   0.778
46642W        W 6079  23.114   5.264  11.469
46643W        W 6080  12.664   8.847  13.841
46644W        W 6081  24.005   4.416  11.427
46645W        W 6082  33.569  23.610   5.569
46646W        W 6083   6.763  14.186   3.785
46647W        W 6084  44.767  31.487  10.931
46648W        W 6085   6.189  35.423  11.097
46649W        W 6086   6.708  25.993  14.430
46650W        W 6087  23.000  15.654   3.351
46651W        W 6088   0.490  23.010   4.309
46652W        W 6089  42.898  23.063  11.397
46653W        W 6090  22.541  39.484   3.642
46654W        W 6091  14.771  42.978   5.167
46655W        W 6092  19.678  21.089   2.721
46656W        W 6093   1.257  10.160  14.327
46657W        W 6094   1.466   8.204  10.641
46658W        W 6095  30.064   4.446  11.400
46659W        W 6096   5.823  28.623  13.404
46660W        W 6097  37.387  13.194   4.326
46661W        W 6098  19.236  11.185   2.713
46662W        W 6099   1.474   3.839  12.865
46663W        W 6100   7.392  42.380  14.012
46664W        W 6101   1.476  44.889  12.043
46665W        W 6102  36.019  22.085   0.897
46666W        W 6103  10.706  25.170  10.511
46667W        W 6104  36.532  42.520   2.733
46668W        W 6105  38.878  10.338   3.799
46669W        W 6106  24.113  36.935   3.835
46670W        W 6107  27.997  22.998   5.095
46671W        W 6108  31.519  17.176   2.408
46672W        W 6109  10.215  35.061   2.351
46673W        W 6110  15.172  16.697  13.861
46674W        W 6111   4.234  24.671   4.754
46675W        W 6112  16.314  27.148   3.831
46676W        W 6113  44.879  37.043  11.425
46677W        W 6114  31.098   2.411  11.105
46678W        W 6115  14.097  12.283  14.906
46679W        W 6116  12.198   3.839   0.365
46680W        W 6117  34.968  37.846   2.377
46681W        W 6118  36.031  10.319   2.842
46682W        W 6119  19.634  44.985  14.299
46683W        W 6120  22.252  29.434  10.599
46684W        W 6121  39.499  37.867  10.435
46685W        W 6122  28.666  23.155  14.505
46686W        W 6123  40.347  11.836   2.237
46687W        W 6124  43.846   7.322   2.838
46688W        W 6125  37.943  44.968   1.865
46689W        W 6126   4.348  44.862  13.914
46690W        W 6127  17.130  42.435   4.211
46691W        W 6128  14.603  29.972   0.815
46692W        W 6129  37.842  27.682   3.219
46693W        W 6130  44.895  23.092   3.710
46694W        W 6131  17.260   0.928   4.763
46695W        W 6132  12.829  33.595   0.807
46696W        W 6133   6.686  12.208  14.998
46697W        W 6134  38.037   0.753  12.883
46698W        W 6135   7.271  29.484  13.367
46699W        W 6136  28.473  20.650   2.248
46700W        W 6137   4.734  29.610  14.810
46701W        W 6138  44.932   4.257   4.244
46702W        W 6139   8.388  20.684   0.756
46703W        W 6140  16.740   7.354  13.939
46704W        W 6141  44.770  12.199   4.329
46705W        W 6142  14.755  18.767   4.343
46706W        W 6143   1.291  33.130  14.361
46707W        W 6144  42.775  19.093   2.205
46708W        W 6145  37.534  39.540   0.352
46709W        W 6146  14.780  37.061   4.784
46710W        W 6147   9.201  27.682  12.413
46711W        W 6148  29.479  44.393  10.083
46712W        W 6149  42.408  39.958   0.416
46713W        W 6150  20.275  28.622   3.688
46714W        W 6151  40.929  36.566  10.025
46715W        W 6152  14.231   6.695   4.834
46716W        W 6153  33.626  29.576   5.187
46717W        W 6154  31.022  20.671  14.879
46718W        W 6155  28.968  28.524  11.076
46719W        W 6156   2.370  37.354  12.559
46720W        W 6157  19.229  30.441   2.362
46721W        W 6158  35.540  35.907   3.277
46722W        W 6159  10.823  15.318  13.502
46723W        W 6160  28.081   8.794  12.549
46724W        W 6161   2.899  15.102   3.261
46725W        W 6162   1.926   3.262   0.912
46726W        W 6163  39.999   3.379   0.807
46727W        W 6164  21.654  19.174  10.135
46728W        W 6165  40.405  12.678  10.633
46729W        W 6166  16.582  27.576   2.731
46730W        W 6167  19.184  20.745  12.437
46731W        W 6168  28.981  24.068   3.658
46732W        W 6169  18.055   0.325   1.381
46733W        W 6170  34.446  30.973   2.269
46734W        W 6171  32.517  19.163   4.789
46735W        W 6172  30.626  21.041   0.916
46736W        W 6173  32.034  33.983   4.650
46737W        W 6174  32.082  16.305   0.891
46738W        W 6175  31.036  36.994  12.381
46739W        W 6176  13.306  27.546   0.443
46740W        W 6177  27.152   8.304   3.814
46741W        W 6178  14.238  42.506   2.762
46742W        W 6179  32.901  37.521   9.469
46743W        W 6180  30.482  28.675  10.515
46744W        W 6181  28.571  31.136  14.375
46745W        W 6182  37.416  24.142   1.934
46746W        W 6183  44.926  27.025  11.403
46747W        W 6184  39.395   6.321  10.590
46748W        W 6185  38.847  43.285   1.867
46749W        W 6186  40.398  15.588  12.875
46750W        W 6187   0.333  39.966   1.310
46751W        W 6188  20.738  11.769  13.534
46752W        W 6189  27.025  18.243   0.783
46753W        W 6190  14.281  15.237   3.380
46754W        W 6191  16.654  11.760  11.087
46755W        W 6192   0.892  44.960   3.696
46756W        W 6193  36.390  11.228  14.370
46757W        W 6194  40.033  24.161  11.048
46758W        W 6195  12.617  43.393   3.285
46759W        W 6196  21.714  17.739  14.999
46760W        W 6197  36.059   6.782   2.217
46761W        W 6198   3.312   3.930   1.446
46762W        W 6199  17.215  41.448   1.294
46763W        W 6200  22.233  41.963   3.784
46764W        W 6201  42.417   5.707   2.366
46765W        W 6202  19.100  14.220   4.251
46766W        W 6203  35.066  23.510   3.345
46767W        W 6204  22.027  10.353   1.407
46768W        W 6205   8.706  10.795  12.391
46769W        W 6206   7.295  16.223  13.398
46770W        W 6207  32.930  38.831  12.406
46771W        W 6208  32.131   2.371   5.158
46772W        W 6209  25.165  26.662  11.400
46773W        W 6210  21.569  11.778  11.385
46774W        W 6211   7.790  12.318  12.559
46775W        W 6212  37.969  14.226  13.813
46776W        W 6213  19.540  30.970  10.932
46777W        W 6214  33.446  27.172   4.642
46778W        W 6215  36.033  31.627  10.406
46779W        W 6216   5.828  42.854   0.444
46780W        W 6217  44.966  25.591   3.784
46781W        W 6218  41.995  26.586  13.004
46782W        W 6219  41.791  37.351  10.430
46783W        W 6220   7.228  44.948  13.832
46784W        W 6221  41.927  44.908   0.938
46785W        W 6222  37.013  29.555   1.410
46786W        W 6223  40.819  28.073   0.379
46787W        W 6224  40.018  39.031   1.722
46788W        W 6225  36.566  17.218   4.785
46789W        W 6226  16.687  43.876  11.005
46790W        W 6227   9.353  18.287   2.202
46791W        W 6228  26.204   3.750  14.307
46792W        W 6229  30.487   5.218   4.180
46793W        W 6230   8.713   3.458   2.210
46794W        W 6231  10.171  12.611   3.325
46795W        W 6232  17.226  29.620   5.084
46796W        W 6233   4.938  26.580   2.889
46797W        W 6234   3.881   8.788  11.942
46798W        W 6235  40.814  38.534  12.825
46799W        W 6236  18.073  26.500  14.000
46800W        W 6237  29.081  26.070  13.513
46801W        W 6238  19.630   4.794   4.823
46802W        W 6239  23.093  37.060  14.899
46803W        W 6240   6.305  35.989   0.882
46804W        W 6241  34.012  43.295   1.433
46805W        W 6242  43.941  14.699   1.396
46806W        W 6243  12.250  35.027   0.401
46807W        W 6244  15.308   9.727   0.942
46808W        W 6245  19.091  38.834  14.281
46809W        W 6246  15.675  16.108   9.934
46810W        W 6247   8.375   8.214  13.954
46811W        W 6248   2.250  42.885  10.105
46812W        W 6249  23.558  19.749   2.762
46813W        W 6250   7.902  42.394  13.911
46814W        W 6251  31.116   6.683  14.910
46815W        W 6252  11.767  10.213  12.001
46816W        W 6253  42.920  23.119  12.484
46817W        W 6254  20.732   2.836   2.732
46818W        W 6255   4.800  24.605  13.838
46819W        W 6256  30.556   1.892  14.933
46820W        W 6257   4.286  18.229   4.270
46821W        W 6258  40.358  24.530  12.031
46822W        W 6259  27.017   6.796   4.677
46823W        W 6260  41.313  13.706   1.743
46824W        W 6261  12.283  40.518   1.798
46825W        W 6262   0.930   5.249   0.797
46826W        W 6263  42.478  25.061  10.587
46827W        W 6264  18.704  33.110  10.985
46828W        W 6265   4.839   1.760  10.058
46829W        W 6266  33.551  38.367   5.795
46830W        W 6267  20.762  41.397   4.224
46831W        W 6268   4.889  44.787  13.868
46832W        W 6269  18.748   6.239   2.669
46833W        W 6270  20.677   2.762   0.820
46834W        W 6271  30.094  29.156   3.368
46835W        W 6272  20.588  29.486  12.891
46836W        W 6273  20.550  19.180  11.885
46837W        W 6274  42.519  42.457   2.773
46838W        W 6275  38.847  42.471   2.840
46839W        W 6276   9.807  29.934  13.435
46840W        W 6277  12.779  40.327  12.466
46841W        W 6278  29.558  32.105   4.768
46842W        W 6279  26.077   1.265  12.036
46843W        W 6280  19.123   8.195  13.980
46844W        W 6281  12.842  44.937   4.722
46845W        W 6282   3.445  14.809  12.028
46846W        W 6283  17.734   0.352  11.019
46847W        W 6284   4.273  35.396  12.518
46848W        W 6285  23.163  39.475   3.855
46849W        W 6286  43.832   6.196  12.364
46850W        W 6287  35.483   5.844  12.498
46851W        W 6288   4.446  19.130  12.567
46852W        W 6289  38.349  34.110   2.241
46853W        W 6290  26.456  29.948  12.454
46854W        W 6291   3.266  36.562   4.188
46855W        W 6292   9.744  21.652  13.310
46856W        W 6293  30.553   6.425  10.904
46857W        W 6294  12.678  30.105  10.461
46858W        W 6295  22.726  41.511   3.860
46859W        W 6296  16.102  24.018   2.274
46860W        W 6297  10.304  28.177   3.366
46861W        W 6298  30.604  32.015   3.359
46862W        W 6299  44.982  27.970  12.528
46863W        W 6300   3.374  23.569   3.739
46864W        W 6301  34.872   8.221   0.827
46865W        W 6302   3.747  43.827   4.275
46866W        W 6303  37.351  22.150   9.929
46867W        W 6304  24.518  12.241  13.329
46868W        W 6305  30.639   4.735   2.269
46869W        W 6306  40.867  11.718  13.877
46870W        W 6307  10.215   8.675   0.397
46871W        W 6308  21.744  21.258  14.992
46872W        W 6309  34.395  12.296   0.811
46873W        W 6310  28.994   7.902   4.710
46874W        W 6311  39.549   3.864  13.528
46875W        W 6312   5.355  29.559  12.090
46876W        W 6313  12.698  23.551  11.072
46877W        W 6314  17.258  44.439  11.032
46878W        W 6315  37.915  25.057   5.126
46879W        W 6316  19.564  31.059  10.538
46880W        W 6317  36.917  40.457   2.411
46881W        W 6318  23.112  42.509   1.285
46882W        W 6319  28.642   4.447  14.772
46883W        W 6320  30.581  32.920  10.966
46884W        W 6321   3.454   6.426  13.990
46885W        W 6322  19.694  31.114   4.263
46886W        W 6323   6.196  14.748  11.977
46887W        W 6324  35.417   6.727   3.345
46888W        W 6325  22.125   9.243  12.531
46889W        W 6326  14.219   8.327   1.794
46890W        W 6327  31.413  22.140  10.552
46891W        W 6328  14.194  42.961   3.809
46892W        W 6329  36.998  37.564  11.984
46893W        W 6330  14.151  25.149   0.407
46894W        W 6331  27.682  43.995  10.585
46895W        W 6332  36.956  34.023   0.838
46896W        W 6333  32.555  23.055  12.493
46897W        W 6334  21.177  24.165  11.417
46898W        W 6335  25.164   9.729  14.511
46899W        W 6336  41.305  44.458  14.378
46900W        W 6337  41.475  26.067   0.810
46901W        W 6338   7.207  21.549   3.729
46902W        W 6339  37.965   4.321  13.998
46903W        W 6340   8.780  22.198   4.153
46904W        W 6341  13.624  19.222   3.803
46905W        W 6342  36.066   4.421  13.884
46906W        W 6343  18.207  29.161   0.858
46907W        W 6344  18.287   9.150   4.699
46908W        W 6345   0.420  20.528  14.792
46909W        W 6346  22.151  31.055   3.357
46910W        W 6347  42.436   1.267  12.580
46911W        W 6348  44.796   1.936   1.449
46912W        W 6349   5.918   6.255   4.792
46913W        W 6350  37.449  12.808   1.833
46914W        W 6351  41.827  30.418   2.319
46915W        W 6352  19.700   3.856  12.538
46916W        W 6353  44.805  28.536  12.069
46917W        W 6354  31.591  16.721   1.365
46918W        W 6355  31.131   7.213   3.337
46919W        W 6356  16.587  34.611   3.219
46920W        W 6357  37.987   6.272  13.336
46921W        W 6358  21.033   6.823   2.245
46922W        W 6359   7.264  24.172   3.787
46923W        W 6360  40.908  18.294   0.891
46924W        W 6361  27.124  44.853   3.257
46925W        W 6362  34.085  17.559  10.500
46926W        W 6363  30.012  11.184   3.664
46927W        W 6364  22.544   9.783  11.380
46928W        W 6365   1.888   9.723  12.094
46929W        W 6366  10.713   5.825  10.949
46930W        W 6367  40.010  30.973   4.813
46931W        W 6368  28.625  19.701  11.949
46932W        W 6369   3.312   8.768   1.300
46933W        W 6370  35.357  35.438   4.196
46934W        W 6371  25.057   0.287   3.168
46935W        W 6372  29.636  30.652  14.860
46936W        W 6373  35.456  28.438  13.970
46937W        W 6374  25.631  18.613   1.237
46938W        W 6375  28.032  30.046   3.283
46939W        W 6376  11.650  29.596  11.928
46940W        W 6377  13.199   7.896   0.298
46941W        W 6378  28.643   7.408   2.419
46942W        W 6379   5.691  19.147  13.971
46943W        W 6380  29.645  29.034  13.509
46944W        W 6381  35.365  40.317   9.950
46945W        W 6382  20.670  21.653  13.016
46946W        W 6383   5.352  17.113   0.314
46947W        W 6384  12.812   9.250   1.259
46948W        W 6385   2.347  22.240  14.879
46949W        W 6386   2.230  33.546   0.884
46950W        W 6387  38.907  10.202  11.390
46951W        W 6388  14.122  15.581  11.950
46952W        W 6389  38.008  36.929   1.872
46953W        W 6390  33.885  23.143   4.156
46954W        W 6391   9.275  18.665   4.701
46955W        W 6392  12.251  24.654  11.374
46956W        W 6393  15.600  42.486  11.418
46957W        W 6394   5.790  30.075   2.773
46958W        W 6395  18.549  43.989   2.744
46959W        W 6396  20.178  17.579  14.002
46960W        W 6397  24.136  24.499   4.280
46961W        W 6398  32.968  38.907  14.339
46962W        W 6399   2.263  33.394  11.489
46963W        W 6400  17.620  20.272   4.742
46964W        W 6401  31.073  23.612  13.033
46965W        W 6402  26.983  21.516  14.931
46966W        W 6403   8.728  23.194   2.282
46967W        W 6404  25.532  19.124  12.995
46968W        W 6405   4.385  25.185   2.730
46969W        W 6406  26.091  22.629  11.548
46970W        W 6407  39.841  33.079   3.274
46971W        W 6408   1.789   6.817  12.342
46972W        W 6409  23.994  37.418   3.720
46973W        W 6410   6.206  25.211   5.118
46974W        W 6411  34.514  28.524   0.257
46975W        W 6412  39.840   7.302  11.408
46976W        W 6413  27.590  26.172  10.076
46977W        W 6414  39.331  27.004  12.879
46978W        W 6415  18.202  35.966  12.055
46979W        W 6416  11.352  28.600  14.837
46980W        W 6417  25.220  14.274  12.054
46981W        W 6418   2.895   2.323   2.365
46982W        W 6419   2.343   2.872  13.917
46983W        W 6420  34.060  28.650  13.984
46984W        W 6421   1.921  43.459  12.464
46985W        W 6422  20.645   3.225   0.891
46986W        W 6423   6.909   0.393  13.422
46987W        W 6424  30.515  16.813  10.550
46988W        W 6425  20.052  39.363  13.353
46989W        W 6426  43.843  23.110   0.791
46990W        W 6427  15.619  26.152   1.880
46991W        W 6428  28.529  30.969  10.600
46992W        W 6429   0.393  25.166   0.808
46993W        W 6430  18.211  25.548   2.752
46994W        W 6431  19.157  20.048  14.275
46995W        W 6432  16.119  24.674  11.859
46996W        W 6433  23.124  27.679   2.668
46997W        W 6434  26.621   1.955  13.936
46998W        W 6435  38.868  24.650  13.397
46999W        W 6436  24.560   0.795  14.976
47000W        W 6437  40.901  40.043  12.521
47001W        W 6438  17.793  30.617   4.137
47002W        W 6439  10.175  39.549  11.018
47003W        W 6440  25.155  24.995   3.261
47004W        W 6441   3.854  18.645   2.770
47005W        W 6442  18.588  41.327  13.943
47006W        W 6443   6.205  18.617  10.447
47007W        W 6444  35.470   6.906   3.642
47008W        W 6445  23.233  29.135  10.901
47009W        W 6446  39.991   4.705  13.487
47010W        W 6447  21.135  32.582  12.361
47011W        W 6448  23.239  25.699   0.813
47012W        W 6449  22.527  21.073   4.702
47013W        W 6450  40.882  35.092   0.409
47014W        W 6451  32.476   4.434  10.441
47015W        W 6452  36.402  36.930  11.916
47016W        W 6453  43.877  40.522   2.857
47017W        W 6454   3.220  41.449   3.281
47018W        W 6455   4.248  32.546  13.843
47019W        W 6456  18.104  10.704  12.504
47020W        W 6457  10.636  43.924  11.046
47021W        W 6458  31.437  28.157  13.489
47022W        W 6459  32.934  19.151   1.869
47023W        W 6460  30.142   6.414   0.880
47024W        W 6461   6.313  17.070  12.535
47025W        W 6462  31.461  34.570  13.417
47026W        W 6463  15.607   4.943  12.447
47027W        W 6464  23.528  23.620  14.822
47028W        W 6465   2.730   8.325  11.921
47029W        W 6466  14.706  34.423  14.898
47030W        W 6467  10.153  43.840  14.303
47031W        W 6468  44.832  27.964  11.869
47032W        W 6469   7.802  33.465   1.704
47033W        W 6470  26.188  19.575  12.870
47034W        W 6471  16.645  16.604   2.849
47035W        W 6472   6.875   4.329  14.388
47036W        W 6473  35.001  14.153   1.728
47037W        W 6474   1.266  39.458   2.668
47038W        W 6475  11.138  14.288   2.868
47039W        W 6476  23.091  19.210   1.835
47040W        W 6477  37.460  41.043   0.759
47041W        W 6478   1.813  13.271  14.028
47042W        W 6479  21.581   4.358   4.290
47043W        W 6480  39.998  26.074  12.435
47044W        W 6481   8.282  21.175  12.420
47045W        W 6482  39.911   0.388  14.416
47046W        W 6483  12.831  14.319   0.838
47047W        W 6484   7.199   2.776  10.536
47048W        W 6485  28.608  10.869  14.505
47049W        W 6486   3.918  33.513  10.538
47050W        W 6487  26.469  16.133   4.116
47051W        W 6488  35.107   8.748  12.894
47052W        W 6489  27.133   2.965   1.814
47053W        W 6490  35.533  14.780  12.028
47054W        W 6491  35.921  36.347   1.866
47055W        W 6492  26.187  41.504  11.547
47056W        W 6493  28.627  12.814  10.607
47057W        W 6494  36.417  39.985   9.991
47058W        W 6495   9.278  25.507   9.976
47059W        W 6496  33.089  15.227   1.906
47060W        W 6497  42.811  35.601  12.928
47061W        W 6498   5.851   9.203   1.723
47062W        W 6499  33.965  26.119  13.349
47063W        W 6500   3.837  20.267   0.371
47064W        W 6501   9.217   2.758  13.006
47065W        W 6502  34.089  15.256   2.672
47066W        W 6503  36.031  36.076  13.991
47067W        W 6504  34.101  16.274   1.422
47068W        W 6505  39.891  12.786  11.446
47069W        W 6506  34.999  26.057  14.921
47070W        W 6507   9.171  16.083  14.928
47071W        W 6508  13.225  11.227   2.357
47072W        W 6509  14.136  17.211   0.780
47073W        W 6510  12.343  31.971  11.102
47074W        W 6511  17.765   6.389   2.289
47075W        W 6512  27.971  11.742   9.984
47076W        W 6513  20.613  28.467   1.328
47077W        W 6514  25.050  36.962  10.562
47078W        W 6515  34.614  24.024   0.757
47079W        W 6516  43.868  16.580  14.367
47080W        W 6517  13.632  28.536  10.440
47081W        W 6518  10.226  18.774   1.757
47082W        W 6519  19.656  27.044  12.853
47083W        W 6520  33.965   2.359   3.788
47084W        W 6521  26.551  12.827  13.805
47085W        W 6522  17.071  30.034  11.912
47086W        W 6523  28.569  12.714   3.275
47087W        W 6524  32.533  28.525   3.369
47088W        W 6525   8.232  20.047   0.350
47089W        W 6526   0.438  18.641  12.047
47090W        W 6527  30.565  24.059   0.298
47091W        W 6528  13.659  43.818  11.474
47092W        W 6529  23.725   5.921   3.216
47093W        W 6530   7.174   6.917   4.632
47094W        W 6531  28.582  22.125   3.842
47095W        W 6532  39.932   5.361   4.597
47096W        W 6533  37.449   2.940  13.956
47097W        W 6534  40.958  35.563  11.863
47098W        W 6535  23.151  14.828  12.060
47099W        W 6536   9.827   0.766  13.514
47100W        W 6537  20.168  11.753   1.815
47101W        W 6538  17.080   1.254   2.711
47102W        W 6539  31.900  12.182   1.309
47103W        W 6540   5.741  27.134   5.676
47104W        W 6541   6.730  41.959  10.940
47105W        W 6542  41.369  17.105  12.359
47106W        W 6543  35.946  34.571  12.572
47107W        W 6544  34.373  33.074  11.877
47108W        W 6545  10.236  21.520  12.412
47109W        W 6546  26.078   7.825  10.538
47110W        W 6547  10.240  11.812  14.428
47111W        W 6548   3.920   6.870  12.899
47112W        W 6549  11.740  30.976   0.254
47113W        W 6550   1.458  33.006   3.343
47114W        W 6551  44.900  25.608   2.828
47115W        W 6552  33.907  25.607  10.548
47116W        W 6553   2.356   6.258   2.369
47117W        W 6554  42.291   4.322  11.129
47118W        W 6555  18.606  31.488   1.875
47119W        W 6556  17.688  22.717   3.276
47120W        W 6557  19.651  27.027  14.401
47121W        W 6558  21.089  38.336   4.326
47122W        W 6559   8.843  16.232   3.801
47123W        W 6560  25.980  23.717  11.108
47124W        W 6561   1.789  16.749   4.174
47125W        W 6562  16.081  28.677   3.784
47126W        W 6563  18.264  23.644  13.540
47127W        W 6564  16.187  19.619  13.501
47128W        W 6565  35.949   3.276  12.047
47129W        W 6566  31.135  28.954  10.441
47130W        W 6567  16.728  44.864  12.928
47131W        W 6568   0.350  21.672   2.757
47132W        W 6569  13.770  37.069   4.158
47133W        W 6570   1.390  42.818   2.403
47134W        W 6571  21.612  18.659  14.794
47135W        W 6572  30.437   0.819   0.785
47136W        W 6573  33.391   7.858   3.847
47137W        W 6574  22.065  19.268  12.480
47138W        W 6575  21.629   4.747   3.299
47139W        W 6576  21.226  42.353  10.443
47140W        W 6577  32.084  22.735  12.011
47141W        W 6578   5.376  41.487   2.720
47142W        W 6579  39.023  36.947  11.067
47143W        W 6580  37.518  19.591  10.455
47144W        W 6581  33.523   9.701  11.561
47145W        W 6582   9.717  27.132   2.203
47146W        W 6583  42.811  16.779  14.916
47147W        W 6584  30.157  34.053  12.442
47148W        W 6585   8.840   3.287  14.949
47149W        W 6586  31.503  43.853   1.708
47150W        W 6587  10.147  23.095  11.907
47151W        W 6588  10.718  20.032  11.562
47152W        W 6589  42.848  12.688  11.485
47153W        W 6590  32.616  16.131   0.346
47154W        W 6591   2.933  21.126  11.438
47155W        W 6592  38.070   4.328   3.336
47156W        W 6593  31.075  41.022   2.786
47157W        W 6594  11.808   8.297  11.995
47158W        W 6595  31.951   0.748   1.302
47159W        W 6596  32.130   1.833  14.365
47160W        W 6597   6.794  19.236  12.455
47161W        W 6598  20.636   0.389   1.776
47162W        W 6599  15.706  35.977  13.359
47163W        W 6600  38.458  10.639  12.440
47164W        W 6601  34.509  15.252  12.022
47165W        W 6602   2.359   9.237   1.308
47166W        W 6603   8.366   0.964  11.923
47167W        W 6604   2.365  22.126   0.920
47168W        W 6605  40.423   3.298  12.844
47169W        W 6606  33.492  29.469   1.896
47170W        W 6607   9.362  31.971   1.697
47171W        W 6608   5.239  43.874  14.805
47172W        W 6609  26.458  16.251   0.452
47173W        W 6610  21.206  17.213  13.921
47174W        W 6611  30.100  38.997  11.544
47175W        W 6612  41.501  30.919  13.451
47176W        W 6613  31.611   0.276  13.874
47177W        W 6614  24.063  15.137   4.817
47178W        W 6615  26.697  29.099  11.448
47179W        W 6616   8.160  43.357   4.644
47180W        W 6617  13.604  11.682   4.227
47181W        W 6618   1.295  19.718  10.536
47182W        W 6619   8.214   3.380   3.658
47183W        W 6620   9.212  37.908   2.673
47184W        W 6621  32.416  18.194  14.316
47185W        W 6622  17.597  25.007   1.398
47186W        W 6623  42.851   8.168   4.683
47187W        W 6624   1.389  11.852   1.341
47188W        W 6625   0.902  14.152  13.412
47189W        W 6626   0.970  44.841  11.865
47190W        W 6627  43.327  13.649   3.794
47191W        W 6628  18.745   9.155  13.972
47192W        W 6629  16.226   8.287  10.912
47193W        W 6630  12.122  23.634   0.750
47194W        W 6631  32.968  13.309  10.639
47195W        W 6632  44.880  15.771   4.354
47196W        W 6633  35.358  21.146   3.632
47197W        W 6634   6.841  15.747  11.968
47198W        W 6635  17.292  34.454   1.364
47199W        W 6636  27.516  32.476  14.857
47200W        W 6637  24.494  23.646   0.344
47201W        W 6638  32.475   2.748  11.939
47202W        W 6639  40.479  19.570   3.274
47203W        W 6640  21.214   7.732  13.938
47204W        W 6641   2.888  13.256  13.316
47205W        W 6642  26.536  20.644  13.012
47206W        W 6643  14.270  42.878  12.401
47207W        W 6644  13.109   7.228   3.662
47208W        W 6645   9.371  18.611   0.941
47209W        W 6646  34.909   0.446  13.546
47210W        W 6647   4.918   4.287  12.389
47211W        W 6648  27.634  14.338  14.317
47212W        W 6649   9.315  36.507  13.539
47213W        W 6650   6.349  15.747  11.429
47214W        W 6651   6.364  12.781  12.919
47215W        W 6652  28.126  37.531  14.011
47216W        W 6653  38.883  15.243  12.909
47217W        W 6654  17.090   1.257  13.970
47218W        W 6655  37.960  13.166   1.284
47219W        W 6656  15.734  33.943  13.869
47220W        W 6657  30.948  29.075  11.542
47221W        W 6658  23.034  11.188  12.916
47222W        W 6659  30.924  43.982  14.503
47223W        W 6660  43.829  12.793  11.590
47224W        W 6661  20.588  37.527   4.671
47225W        W 6662  18.547  42.022   3.847
47226W        W 6663  12.173  30.527  12.015
47227W        W 6664  44.941  10.744  14.985
47228W        W 6665  36.090  26.188  13.475
47229W        W 6666  24.494  42.006   3.732
47230W        W 6667  42.981  35.927  13.358
47231W        W 6668  35.518  44.921   0.773
47232W        W 6669  42.024  29.926   1.771
47233W        W 6670  19.189   0.902   4.791
47234W        W 6671  22.572  39.346  12.473
47235W        W 6672   7.827   5.388   0.908
47236W        W 6673  34.017  44.493   2.330
47237W        W 6674  34.956  36.016  14.490
47238W        W 6675  42.337  43.993  11.519
47239W        W 6676  39.858   8.286  14.765
47240W        W 6677   0.873   6.900   4.143
47241W        W 6678  40.323  25.096   0.455
47242W        W 6679  20.538  20.604  12.955
47243W        W 6680  17.292  36.358  14.768
47244W        W 6681  29.989  21.052   4.300
47245W        W 6682   9.340  24.552  14.868
47246W        W 6683  24.152  35.873  13.838
47247W        W 6684   9.271  19.740  12.838
47248W        W 6685  41.387  42.453  13.878
47249W        W 6686  29.490  34.373  11.558
47250W        W 6687  38.401   8.861  14.322
47251W        W 6688   8.738   0.970   4.137
47252W        W 6689  24.079   1.768  14.783
47253W        W 6690  39.346  25.143  14.497
47254W        W 6691  31.983  16.239  11.507
47255W        W 6692  40.498  31.493   3.666
47256W        W 6693  23.536   2.464   1.890
47257W        W 6694  26.967  44.951   3.764
47258W        W 6695   2.803  32.983   2.809
47259W        W 6696  13.655  17.078   2.735
47260W        W 6697  18.103  17.652  13.008
47261W        W 6698  31.923  22.139  12.923
47262W        W 6699  25.101   9.157   1.238
47263W        W 6700  42.344  29.949   2.375
47264W        W 6701  28.478   7.174  13.888
47265W        W 6702  20.044  26.548   3.776
47266W        W 6703  39.856  34.017  13.903
47267W        W 6704  16.072   6.315  11.530
47268W        W 6705   5.815  29.138   1.299
47269W        W 6706  32.913  16.737   0.734
47270W        W 6707  28.437  12.193   3.700
47271W        W 6708  42.847   7.328  13.912
47272W        W 6709   8.206  37.957  12.375
47273W        W 6710   7.841  21.037  12.355
47274W        W 6711   0.975  24.096   0.299
47275W        W 6712  28.132  27.108  14.507
47276W        W 6713  31.502   0.857  14.821
47277W        W 6714  18.774  35.387  14.854
47278W        W 6715  34.423  38.833  14.014
47279W        W 6716   5.891  38.380   0.787
47280W        W 6717  26.697  34.027  14.027
47281W        W 6718  16.229   8.727  12.021
47282W        W 6719  32.944  24.196  14.455
47283W        W 6720  31.962  10.178   2.895
47284W        W 6721  35.416  11.332  12.408
47285W        W 6722  37.405  15.814  14.017
47286W        W 6723  20.108  33.460  11.910
47287W        W 6724  16.294  11.795  12.437
47288W        W 6725  30.156   0.967   1.750
47289W        W 6726  22.625  39.317  13.938
47290W        W 6727   3.430  27.500   4.115
47291W        W 6728  32.943  11.841  13.814
47292W        W 6729  35.052   3.863  13.001
47293W        W 6730  36.982  37.397   1.249
47294W        W 6731  27.577  19.726   3.179
47295W        W 6732  25.646   0.800  12.981
47296W        W 6733   8.300   4.325  13.974
47297W        W 6734  11.307  13.656   1.751
47298W        W 6735  11.194   4.841   2.902
47299W        W 6736  34.526  11.719  11.531
47300W        W 6737   7.825  37.564   0.783
47301W        W 6738  10.709  16.145   3.799
47302W        W 6739  16.238   3.359   1.891
47303W        W 6740  27.599  16.120   4.248
47304W        W 6741  30.592   3.348   4.633
47305W        W 6742  14.209  20.625   0.282
47306W        W 6743  42.385   4.448   2.687
47307W        W 6744  25.100   0.808   3.177
47308W        W 6745  38.362  37.916  14.967
47309W        W 6746  28.024  13.838   2.361
47310W        W 6747  12.663  23.228  12.461
47311W        W 6748  17.601  18.675   4.336
47312W        W 6749   8.388  18.285   4.189
47313W        W 6750   5.796  36.491  14.399
47314W        W 6751  24.124  40.972  11.091
47315W        W 6752  23.596  33.453  10.970
47316W        W 6753  43.275  31.965  14.919
47317W        W 6754  27.631   3.418   1.218
47318W        W 6755   9.707   0.770   2.857
47319W        W 6756  24.671  12.219  14.416
47320W        W 6757   6.420  44.778   4.740
47321W        W 6758  37.348   4.423   4.234
47322W        W 6759  32.589  34.549  12.986
47323W        W 6760  24.586  25.173   4.151
47324W        W 6761  26.097  12.857  14.828
47325W        W 6762  19.141  41.898  11.935
47326W        W 6763  16.704   9.768   3.179
47327W        W 6764   0.471  26.674  12.884
47328W        W 6765  16.647   0.305   0.457
47329W        W 6766  36.387  23.546  10.933
47330W        W 6767  36.090  22.551  14.326
47331W        W 6768  16.113  15.734  13.885
47332W        W 6769   8.267  12.267  13.489
47333W        W 6770  44.788  12.677   3.652
47334W        W 6771   6.777  24.682   0.391
47335W        W 6772  15.698  42.833   3.786
47336W        W 6773  41.874  15.137  12.980
47337W        W 6774  18.704  34.915   3.804
47338W        W 6775  26.969  13.158  12.978
47339W        W 6776   4.790  42.384   4.700
47340W        W 6777  15.272  25.632   2.392
47341W        W 6778   3.440   1.912   1.246
47342W        W 6779   0.428  26.643   2.780
47343W        W 6780   3.215  27.105   0.791
47344W        W 6781  39.341  19.249  14.342
47345W        W 6782  44.388  42.514  13.844
47346W        W 6783  43.472  43.423  13.436
47347W        W 6784  38.075   4.342  14.758
47348W        W 6785   2.784  23.090  12.406
47349W        W 6786   5.348  12.193   9.590
47350W        W 6787  42.940  35.068   0.928
47351W        W 6788  11.631  24.574  13.030
47352W        W 6789   2.934   6.313  14.512
47353W        W 6790  28.041  27.009   3.241
47354W        W 6791  31.982  35.465  13.906
47355W        W 6792   8.737   0.826   4.605
47356W        W 6793   1.860  24.126   2.732
47357W        W 6794  10.167  31.954   4.260
47358W        W 6795  40.367  31.010  11.053
47359W        W 6796   1.257  11.227  10.076
47360W        W 6797   3.788  32.960  11.549
47361W        W 6798  35.884   6.245   2.205
47362W        W 6799  29.941  13.639   3.234
47363W        W 6800  22.737  42.910  11.486
47364W        W 6801  13.749  25.022   4.245
47365W        W 6802  17.130  39.911  14.461
47366W        W 6803   9.378  20.661   1.383
47367W        W 6804  12.654  39.395  14.461
47368W        W 6805  18.115  22.158   2.859
47369W        W 6806  17.178  44.420   3.380
47370W        W 6807  15.728   9.713  12.998
47371W        W 6808  32.093  12.307  12.074
47372W        W 6809   1.351  32.492   1.264
47373W        W 6810  24.069  20.579   0.822
47374W        W 6811   8.882  37.495   4.693
47375W        W 6812  16.805   2.442   0.799
47376W        W 6813  20.657  44.474  11.932
47377W        W 6814  17.226  13.135   1.284
47378W        W 6815  38.328  34.867  11.947
47379W        W 6816  28.612   2.757  11.073
47380W        W 6817   3.271  12.841   5.691
47381W        W 6818  44.391  28.009  12.374
47382W        W 6819  37.026  26.141  13.001
47383W        W 6820  15.597   0.369  13.380
47384W        W 6821  39.549  14.321   1.438
47385W        W 6822   2.938   8.677  13.420
47386W        W 6823   4.313  35.400   2.258
47387W        W 6824  30.456  27.628   0.292
47388W        W 6825  32.928  14.269  10.424
47389W        W 6826  40.989  20.726  12.401
47390W        W 6827  42.972  36.388   0.945
47391W        W 6828  36.076   4.213  12.570
47392W        W 6829  37.412  16.769  11.126
47393W        W 6830  36.444  34.109  10.575
47394W        W 6831   8.300  40.948  12.578
47395W        W 6832  28.084  21.029   0.935
47396W        W 6833   7.188   8.823  13.313
47397W        W 6834  28.040  41.867   2.283
47398W        W 6835  12.190  30.439  11.611
47399W        W 6836   1.408   9.203  14.999
47400W        W 6837  14.161   1.282  14.333
47401W        W 6838   3.807  36.873  10.989
47402W        W 6839   1.905  28.127   2.721
47403W        W 6840  36.994   8.182  13.483
47404W        W 6841  15.768  26.640   1.907
47405W        W 6842  19.073  37.524   3.270
47406W        W 6843  14.649  38.062  11.532
47407W        W 6844   0.302   2.795   4.205
47408W        W 6845  29.128  44.395   0.787
47409W        W 6846  26.551  27.541  11.109
47410W        W 6847   4.318  41.909  10.428
47411W        W 6848  42.779  41.452  12.969
47412W        W 6849  22.231   0.802  10.528
47413W        W 6850  14.196  10.866  11.887
47414W        W 6851  42.402   5.315  11.461
47415W        W 6852  10.148  28.623   4.663
47416W        W 6853  35.362  38.000  13.955
47417W        W 6854   6.247  28.946   5.315
47418W        W 6855  32.621  14.167   1.269
47419W        W 6856  21.195  40.429   0.343
47420W        W 6857   6.291  17.658   1.824
47421W        W 6858  27.120  13.646   2.707
47422W        W 6859  35.453  33.103  12.556
47423W        W 6860  32.139  33.572  13.498
47424W        W 6861  15.787   8.795  13.869
47425W        W 6862  27.144  24.716   5.717
47426W        W 6863  32.114  28.526  14.847
47427W        W 6864  11.761  35.452   1.800
47428W        W 6865  38.007  28.034   4.348
47429W        W 6866   1.969  41.929  14.012
47430W        W 6867  12.177  34.381   3.186
47431W        W 6868   5.822  43.424   4.774
47432W        W 6869   6.694  26.499   3.198
47433W        W 6870   4.293  35.004  12.940
47434W        W 6871  14.715  16.766  12.433
47435W        W 6872  14.770  33.999   0.346
47436W        W 6873  33.075  35.854  11.580
47437W        W 6874  42.283  29.453   0.244
47438W        W 6875  29.431  26.560  10.021
47439W        W 6876   7.394   5.858  11.999
47440W        W 6877  14.754  36.565   3.243
47441W        W 6878  11.308  14.191   0.894
47442W        W 6879  27.115  27.974  10.096
47443W        W 6880  43.444  30.587  11.947
47444W        W 6881  34.940  31.552  10.477
47445W        W 6882  28.100  21.673  14.485
47446W        W 6883   4.830   0.374  10.041
47447W        W 6884   6.804  29.005   2.715
47448W        W 6885   3.870  26.648   1.411
47449W        W 6886   7.749   9.178   1.762
47450W        W 6887  44.757  22.505   1.922
47451W        W 6888  43.290  21.654   2.349
47452W        W 6889  38.838   5.327  11.891
47453W        W 6890  10.659  18.633   1.446
47454W        W 6891   2.287  23.559  11.382
47455W        W 6892   2.331  41.859   2.745
47456W        W 6893  34.868  32.104  12.574
47457W        W 6894  17.115   2.421  14.948
47458W        W 6895   0.747  29.134   0.424
47459W        W 6896  32.466  30.134   4.757
47460W        W 6897   9.178  16.656  13.874
47461W        W 6898  10.760  17.127   2.703
47462W        W 6899  20.572  18.293   3.187
47463W        W 6900  18.287  39.512  11.882
47464W        W 6901  20.619   9.338  13.330
47465W        W 6902  29.467  24.166  12.064
47466W        W 6903  16.218  30.498   4.162
47467W        W 6904  13.786   2.907   0.381
47468W        W 6905   7.230  14.763  13.518
47469W        W 6906  31.096  28.971   0.472
47470W        W 6907  30.925  15.707  14.380
47471W        W 6908  32.101  26.626   3.307
47472W        W 6909  28.930  12.809  11.542
47473W        W 6910  31.099  22.529  14.361
47474W        W 6911   9.803  40.346  12.841
47475W        W 6912  18.748  29.997   0.732
47476W        W 6913  18.569  14.739  13.821
47477W        W 6914  43.456  35.057   1.306
47478W        W 6915   1.850   3.370   4.244
47479W        W 6916  26.611  33.039   3.639
47480W        W 6917  12.332   4.712   3.756
47481W        W 6918  44.466  23.634   0.389
47482W        W 6919   5.350  12.359  13.350
47483W        W 6920   6.904  16.275   0.272
47484W        W 6921  41.516  14.663  13.822
47485W        W 6922  30.046  29.624  12.409
47486W        W 6923  38.881  14.250   1.240
47487W        W 6924  30.477  34.986  12.434
47488W        W 6925   8.844  23.534  12.045
47489W        W 6926  11.742  18.069  13.046
47490W        W 6927  40.920  16.718  13.430
47491W        W 6928   7.823  43.514   2.374
47492W        W 6929  20.612  15.730   0.346
47493W        W 6930  34.389  16.210   2.726
47494W        W 6931  15.203   1.793  12.011
47495W        W 6932   7.413  10.703   0.847
47496W        W 6933   5.265  24.550   9.668
47497W        W 6934   0.879  23.581  10.613
47498W        W 6935   2.767  29.114   2.849
47499W        W 6936   9.229  41.029  14.022
47500W        W 6937  23.218  31.510   0.423
47501W        W 6938  36.864   4.278  10.533
47502W        W 6939  43.270  16.269  14.909
47503W        W 6940   1.480  14.590  11.534
47504W        W 6941  20.162  39.548   3.726
47505W        W 6942  17.191   4.819   2.378
47506W        W 6943   8.219  43.385   2.399
47507W        W 6944  14.318  31.018   0.815
47508W        W 6945   4.376  17.178   1.865
47509W        W 6946  42.822  27.042   4.336
47510W        W 6947  17.720   3.325   0.875
47511W        W 6948  25.711   4.320  13.476
47512W        W 6949  27.588  13.756  12.988
47513W        W 6950  36.085  12.148  13.008
47514W        W 6951  31.127  18.218  12.088
47515W        W 6952   0.250   4.228   3.274
47516W        W 6953  30.002  38.386  11.602
47517W        W 6954  40.534  14.655  14.878
47518W        W 6955  10.300   9.394  14.405
47519W        W 6956  21.161  17.712  13.502
47520W        W 6957  14.105  39.946  14.393
47521W        W 6958   9.228   6.861  14.320
47522W        W 6959  18.132   3.292  14.843
47523W        W 6960  14.301   9.776   0.387
47524W        W 6961  25.994   4.842  12.345
47525W        W 6962  16.073  17.593  13.032
47526W        W 6963   6.758  39.460  13.444
47527W        W 6964  24.116  16.634   3.735
47528W        W 6965  44.346  32.530  11.073
47529W        W 6966  43.936  33.560  11.120
47530W        W 6967  29.018  34.521   0.793
47531W        W 6968  29.426   1.469   3.268
47532W        W 6969  20.065  29.627   2.781
47533W        W 6970  14.218  15.653  13.985
47534W        W 6971  18.097   3.954  10.443
47535W        W 6972  17.062  21.714   2.372
47536W        W 6973   4.367  19.254  13.459
47537W        W 6974  36.841  17.567   2.232
47538W        W 6975  25.207   6.212  13.445
47539W        W 6976  28.184  17.785  11.509
47540W        W 6977   0.445  14.219   2.883
47541W        W 6978  16.131  15.286  13.927
47542W        W 6979   9.307  15.669   5.154
47543W        W 6980  17.636  19.722  14.018
47544W        W 6981  32.409  35.450   0.257
47545W        W 6982  15.821   3.256   5.292
47546W        W 6983   2.834   9.782  11.083
47547W        W 6984  26.693  24.685   4.608
47548W        W 6985  25.097  10.242   0.889
47549W        W 6986   0.974   3.284  10.466
47550W        W 6987  22.019   1.449   1.815
47551W        W 6988  34.397  15.292   0.422
47552W        W 6989  36.088  18.693   1.241
47553W        W 6990  28.167   9.804  13.345
47554W        W 6991   6.387  16.640  10.416
47555W        W 6992   1.753  18.705   2.200
47556W        W 6993  28.669  30.129   0.322
47557W        W 6994  10.728  42.815   2.763
47558W        W 6995  32.952  39.538  11.983
47559W        W 6996  22.041   5.424  11.018
47560W        W 6997  32.626  40.830   2.255
47561W        W 6998  20.066   7.682   4.124
47562W        W 6999  18.171  20.187   3.689
47563W        W 7000  38.001  40.491   1.404
47564W        W 7001  40.549  39.057  11.557
47565W        W 7002  19.744  14.627  12.479
47566W        W 7003  31.629   1.785  10.641
47567W        W 7004  24.163  31.511   0.872
47568W        W 7005  38.389  14.593  11.029
47569W        W 7006  24.999  35.959   1.419
47570W        W 7007  43.374  21.532   4.192
47571W        W 7008  38.470  41.405   1.342
47572W        W 7009  19.644  34.065   4.301
47573W        W 7010  36.059  35.525  10.527
47574W        W 7011  15.783   7.732  10.965
47575W        W 7012  19.200   6.797  11.423
47576W        W 7013  29.047  36.443  11.049
47577W        W 7014  42.878  38.909   1.767
47578W        W 7015  36.411  12.700   3.730
47579W        W 7016  10.139   2.776   2.686
47580W        W 7017  37.352  38.871   0.445
47581W        W 7018   7.844  19.065   3.763
47582W        W 7019  26.016  10.319   1.387
47583W        W 7020  21.599  16.666  14.911
47584W        W 7021  41.456  11.315  14.949
47585W        W 7022  14.203  33.123   3.286
47586W        W 7023  39.012   3.776   2.663
47587W        W 7024  42.293  24.703   1.896
47588W        W 7025  38.419  32.019   3.296
47589W        W 7026  38.398  39.900  13.816
47590W        W 7027   1.847  41.517  11.908
47591W        W 7028  37.339  30.584   0.733
47592W        W 7029  16.629  34.568   1.274
47593W        W 7030  35.953  22.132  12.922
47594W        W 7031  34.910   2.322   1.858
47595W        W 7032   8.697  42.306  13.956
47596W        W 7033  11.844  36.907  10.500
47597W        W 7034   2.726  42.805  12.862
47598W        W 7035  38.053  16.783   4.787
47599W        W 7036  38.916  15.679  14.976
47600W        W 7037   8.280   7.787   1.872
47601W        W 7038  41.922  15.757  10.513
47602W        W 7039   7.816  17.564  13.474
47603W        W 7040   0.395  44.307   1.371
47604W        W 7041  29.576  42.502  10.591
47605W        W 7042  16.296  36.388   2.395
47606W        W 7043  14.232  42.859   0.463
47607W        W 7044  44.408  27.637   2.258
47608W        W 7045   4.756  33.903  14.892
47609W        W 7046  10.830   4.741   2.400
47610W        W 7047  25.561   1.782   0.938
47611W        W 7048  16.746  14.804  14.383
47612W        W 7049   9.381   8.813  13.526
47613W        W 7050  19.044  44.893  12.431
47614W        W 7051  25.692  32.613   3.640
47615W        W 7052  11.164  43.414  12.892
47616W        W 7053  39.978   8.277  11.926
47617W        W 7054  16.803  26.701   1.443
47618W        W 7055  19.136  41.965   1.752
47619W        W 7056  28.959  18.291  14.898
47620W        W 7057   7.395  39.445  14.507
47621W        W 7058  24.702  36.398   1.304
47622W        W 7059  44.477   6.227  12.934
47623W        W 7060   9.658  37.486   0.344
47624W        W 7061   6.261  40.392  10.964
47625W        W 7062  21.664   1.396   0.447
47626W        W 7063  16.800   9.346  14.515
47627W        W 7064   8.395   7.696  11.929
47628W        W 7065  37.972  43.899   1.245
47629W        W 7066  19.578  21.144   0.880
47630W        W 7067  29.140  17.091  12.360
47631W        W 7068  40.956  10.847   1.722
47632W        W 7069  30.104  12.614  12.387
47633W        W 7070   7.826  24.725   0.419
47634W        W 7071  19.661  30.047   0.440
47635W        W 7072  32.993   9.658  10.537
47636W        W 7073  43.912  18.245   0.436
47637W        W 7074  10.714  25.649  11.955
47638W        W 7075  19.749  22.714  14.383
47639W        W 7076  32.910  38.058   5.314
47640W        W 7077  13.311   5.310  12.876
47641W        W 7078  33.594  34.023   2.697
47642W        W 7079  31.081   4.366  12.048
47643W        W 7080   2.909  16.810  10.475
47644W        W 7081  13.206  22.627   0.375
47645W        W 7082  18.282  12.763   1.364
47646W        W 7083   0.248  42.351   4.701
47647W        W 7084  35.419  37.947  13.402
47648W        W 7085  13.158   5.911  11.506
47649W        W 7086  25.675  27.165   0.367
47650W        W 7087  19.266  25.987   1.252
47651W        W 7088  20.075  11.862   2.806
47652W        W 7089  36.992  16.719  12.948
47653W        W 7090  44.791   0.863   2.356
47654W        W 7091  19.169   4.252  10.601
47655W        W 7092  28.970  43.424  13.900
47656W        W 7093  26.987  44.385  10.121
47657W        W 7094  24.628  12.231   3.199
47658W        W 7095  37.942  41.365  11.922
47659W        W 7096  38.868  36.065  14.336
47660W        W 7097  44.437  42.803   4.262
47661W        W 7098  27.528  19.252   1.792
47662W        W 7099  25.049  10.146   2.280
47663W        W 7100  35.541  37.423  13.867
47664W        W 7101  42.382  36.572  11.480
47665W        W 7102  13.162  19.757  12.888
47666W        W 7103  16.747  29.125   2.330
47667W        W 7104   0.810  30.492  14.343
47668W        W 7105  29.048  12.777  10.435
47669W        W 7106  10.802  38.449  10.989
47670W        W 7107  22.036  33.598  14.970
47671W        W 7108   2.458  37.004  14.768
47672W        W 7109  38.449  31.020   1.444
47673W        W 7110   2.320   4.925  11.417
47674W        W 7111  30.479  42.349   2.211
47675W        W 7112  27.520  44.436   1.226
47676W        W 7113  10.310   5.751   0.333
47677W        W 7114  43.478  35.402   4.825
47678W        W 7115   0.835  31.577   1.424
47679W        W 7116  28.960  41.799   1.402
47680W        W 7117   0.759   7.779   1.812
47681W        W 7118  23.234   7.178  13.868
47682W        W 7119  36.095  12.629  14.483
47683W        W 7120  12.231  14.335  14.962
47684W        W 7121  23.608  42.478   1.226
47685W        W 7122   6.268  27.123  11.044
47686W        W 7123  13.106  39.322   4.626
47687W        W 7124  36.510   1.333  12.380
47688W        W 7125  43.889  19.586   1.300
47689W        W 7126  23.568   0.311   4.213
47690W        W 7127  29.599  43.427  12.088
47691W        W 7128  13.254  20.695  12.039
47692W        W 7129  14.593  32.071  11.454
47693W        W 7130   4.287  34.510  14.371
47694W        W 7131  32.088   5.785  14.762
47695W        W 7132  16.727   0.770  12.062
47696W        W 7133  42.867  33.965  13.452
47697W        W 7134   5.369  30.582   2.374
47698W        W 7135  44.872  13.286  14.298
47699W        W 7136  31.489  15.272  10.595
47700W        W 7137  37.558  33.898  12.373
47701W        W 7138  25.205  41.470  14.938
47702W        W 7139   0.293   3.930   1.890
47703W        W 7140  29.463  23.592  13.934
47704W        W 7141   2.458  27.542   4.313
47705W        W 7142  18.704  40.038   2.246
47706W        W 7143  41.301   1.849  10.898
47707W        W 7144  40.890  34.107   2.897
47708W        W 7145  40.998  18.096  10.577
47709W        W 7146  34.942   1.766  12.875
47710W        W 7147  17.562   1.463   0.394
47711W        W 7148  19.752   3.335   3.166
47712W        W 7149  44.849  33.897  13.490
47713W        W 7150  31.010   7.764   0.831
47714W        W 7151   6.289  17.187  13.961
47715W        W 7152   5.408  21.192   0.907
47716W        W 7153  43.897  10.379  11.599
47717W        W 7154   8.855  26.683  13.840
47718W        W 7155  15.206  13.624  12.466
47719W        W 7156  21.557  10.187  14.805
47720W        W 7157   9.684   1.951   4.215
47721W        W 7158  23.703  19.678  10.610
47722W        W 7159  15.294   2.830  13.526
47723W        W 7160  17.770  33.446   2.878
47724W        W 7161  39.325  12.199   0.798
47725W        W 7162  18.609  23.676  14.028
47726W        W 7163  25.651  40.417   5.612
47727W        W 7164  38.918  32.056  13.492
47728W        W 7165  37.063  41.786   5.190
47729W        W 7166  28.997   3.245   0.806
47730W        W 7167   4.750  26.485   3.252
47731W        W 7168   8.885   7.303   1.427
47732W        W 7169   9.705  16.226   1.795
47733W        W 7170  25.677  43.866  14.862
47734W        W 7171  26.037  34.070   0.343
47735W        W 7172   5.790  24.014   1.235
47736W        W 7173  32.016   6.845   4.756
47737W        W 7174  35.550  18.132  11.093
47738W        W 7175  28.113  21.539   4.735
47739W        W 7176  44.283  26.018   0.462
47740W        W 7177   9.156  44.285   1.326
47741W        W 7178  43.914  34.370  11.999
47742W        W 7179  38.481  10.348  10.907
47743W        W 7180  18.281  21.240  12.507
47744W        W 7181  33.539   4.422   3.645
47745W        W 7182  41.810   0.821   2.261
47746W        W 7183  15.222  43.002  12.045
47747W        W 7184  17.606  20.548  11.403
47748W        W 7185   2.889  34.495  14.896
47749W        W 7186  34.534  34.550  10.552
47750W        W 7187  14.204  39.398   1.274
47751W        W 7188  14.153  43.364  12.347
47752W        W 7189  35.870  12.661   0.750
47753W        W 7190  20.549  37.901  12.934
47754W        W 7191  24.597  42.859   3.711
47755W        W 7192   3.874  27.128   4.318
47756W        W 7193  42.959  22.016  14.278
47757W        W 7194  41.484   1.304  13.336
47758W        W 7195  31.504   9.824  13.828
47759W        W 7196  30.536   4.394  12.482
47760W        W 7197  32.540  25.013  11.564
47761W        W 7198  38.469  11.769  13.481
47762W        W 7199  37.510   2.959   3.787
47763W        W 7200  13.192  43.390   0.254
47764W        W 7201  19.679  44.416   2.304
47765W        W 7202  26.463  18.108   5.184
47766W        W 7203  37.564   0.832  14.346
47767W        W 7204  38.971  25.020   2.848
47768W        W 7205  21.212   4.852  10.510
47769W        W 7206  39.319  38.072  13.989
47770W        W 7207   8.720  22.029   4.825
47771W        W 7208  38.049   3.782   1.895
47772W        W 7209  35.039  37.528  14.347
47773W        W 7210  24.701   8.713  13.969
47774W        W 7211  10.835   4.206   2.845
47775W        W 7212  20.560  39.057   3.820
47776W        W 7213  42.411  16.267   3.831
47777W        W 7214  17.609   4.245   3.366
47778W        W 7215  39.946  21.036  14.478
47779W        W 7216  16.159  25.053   0.281
47780W        W 7217  30.505  36.973   1.852
47781W        W 7218  27.688  20.623   4.630
47782W        W 7219  15.162  37.087   3.285
47783W        W 7220   3.414   4.272   1.810
47784W        W 7221   1.245  23.516  12.484
47785W        W 7222  22.162  17.270  14.836
47786W        W 7223  36.923  16.112   0.929
47787W        W 7224  27.682  41.950   1.808
47788W        W 7225  37.038  44.906   2.694
47789W        W 7226  37.386  37.527   9.992
47790W        W 7227  11.157  14.720   1.930
47791W        W 7228  23.148  19.653   5.322
47792W        W 7229  14.099  22.529   4.337
47793W        W 7230   8.340  38.476  10.545
47794W        W 7231  30.020  19.601   5.270
47795W        W 7232  31.087  43.442   0.364
47796W        W 7233   3.233   5.712  11.558
47797W        W 7234  11.621  31.105  14.375
47798W        W 7235  25.483   8.320   2.331
47799W        W 7236  21.742   9.328  13.983
47800W        W 7237   3.834  20.036  11.036
47801W        W 7238  37.372  31.087   3.346
47802W        W 7239  16.082  10.364  13.924
47803W        W 7240  33.019   4.258   0.937
47804W        W 7241  43.981  27.146   1.311
47805W        W 7242  39.503  36.086  13.842
47806W        W 7243  19.640  36.546   0.927
47807W        W 7244  14.764  18.780  12.410
47808W        W 7245   3.736  31.041  11.501
47809W        W 7246  16.614  38.386  10.535
47810W        W 7247  32.029  34.507   1.358
47811W        W 7248   0.360  30.511   4.202
47812W        W 7249  34.976  21.564  14.505
47813W        W 7250  42.420  32.060  14.920
47814W        W 7251   0.433  37.401  12.454
47815W        W 7252  32.049  22.508   2.899
47816W        W 7253   6.235  34.874   2.897
47817W        W 7254  32.886  33.454   4.599
47818W        W 7255  35.925  32.118   1.867
47819W        W 7256   3.798  43.772   4.723
47820W        W 7257  24.700  18.111   4.240
47821W        W 7258  18.280  23.172   0.925
47822W        W 7259  11.863  38.352  13.041
47823W        W 7260   4.805   7.336  14.983
47824W        W 7261  33.933  42.295  10.506
47825W        W 7262  18.075  21.081  12.913
47826W        W 7263   4.907  31.572  14.856
47827W        W 7264   7.870  20.231  13.404
47828W        W 7265  12.728  35.080  11.084
47829W        W 7266   6.384  43.964   4.136
47830W        W 7267   6.867   2.951   2.372
47831W        W 7268  40.494  38.065  13.815
47832W        W 7269  32.987  32.007  10.925
47833W        W 7270  38.833  32.015  12.377
47834W        W 7271  40.813   5.884   1.379
47835W        W 7272  20.586  26.099  14.938
47836W        W 7273  41.326  12.330  11.608
47837W        W 7274   1.737  30.516  13.499
47838W        W 7275   4.271  20.125   1.318
47839W        W 7276   3.711  22.248  13.344
47840W        W 7277   1.756  40.346  10.606
47841W        W 7278  10.806   1.855  13.333
47842W        W 7279  23.209  32.967  14.761
47843W        W 7280  13.168   4.374  13.009
47844W        W 7281   8.215  26.146   0.964
47845W        W 7282  29.982  25.684  14.858
47846W        W 7283  36.590  17.259   0.854
47847W        W 7284  37.400  27.043   4.652
47848W        W 7285  10.712  36.084  11.070
47849W        W 7286  34.085  30.131   2.199
47850W        W 7287   7.309  39.017   2.758
47851W        W 7288   6.274  20.138   0.270
47852W        W 7289  14.780  41.997  11.977
47853W        W 7290  25.481  21.149  13.391
47854W        W 7291  43.979  32.621   2.310
47855W        W 7292  35.029  14.248   1.360
47856W        W 7293  23.558  10.205  13.932
47857W        W 7294  30.505  37.509  11.470
47858W        W 7295   9.680   8.352  12.575
47859W        W 7296  24.158  31.498  10.888
47860W        W 7297   0.488  44.783  11.055
47861W        W 7298  14.282  37.396   4.173
47862W        W 7299  30.434  35.549   4.706
47863W        W 7300  17.674  23.677   3.804
47864W        W 7301  44.767   1.926  12.860
47865W        W 7302   9.155  38.535  10.996
47866W        W 7303   4.373  33.891   3.259
47867W        W 7304  19.703   9.220   2.267
47868W        W 7305  20.139  44.918   1.909
47869W        W 7306  13.641  26.958   1.762
47870W        W 7307  38.336  13.293   2.695
47871W        W 7308  42.797   1.383   1.763
47872W        W 7309  37.045  25.545  10.418
47873W        W 7310  38.494  14.209   2.686
47874W        W 7311  28.087  29.064  10.404
47875W        W 7312   6.314  10.237  13.036
47876W        W 7313  17.731  32.015  11.581
47877W        W 7314  30.618  37.421  14.357
47878W        W 7315  44.778  33.939   0.767
47879W        W 7316  36.852  39.001  10.435
47880W        W 7317  21.250   3.772  12.946
47881W        W 7318   6.274  26.994  13.964
47882W        W 7319  15.811  33.570   0.337
47883W        W 7320  21.038  17.120  12.004
47884W        W 7321  36.031  20.201  12.556
47885W        W 7322  18.625   3.742   1.334
47886W        W 7323   9.844  17.716   2.222
47887W        W 7324  21.648  17.752   4.692
47888W        W 7325  38.958  41.501   1.812
47889W        W 7326  22.535  10.879   2.311
47890W        W 7327   3.774   0.952   1.261
47891W        W 7328   8.793  22.526  12.093
47892W        W 7329   3.885  41.522   3.146
47893W        W 7330  24.675  21.561  10.922
47894W        W 7331   0.905  33.127  12.037
47895W        W 7332   4.890  28.680  11.033
47896W        W 7333   7.274  15.716  13.954
47897W        W 7334  31.606  43.356  10.953
47898W        W 7335  24.194  32.630  11.372
47899W        W 7336  16.802  39.343   9.455
47900W        W 7337  15.608  44.993   3.738
47901W        W 7338  12.729   1.352  11.928
47902W        W 7339  43.016   0.937   1.318
47903W        W 7340  32.910  39.877   2.798
47904W        W 7341  26.121  16.572  10.888
47905W        W 7342  32.047   3.925  14.857
47906W        W 7343  29.486  29.500   2.249
47907W        W 7344  15.133  31.088  10.529
47908W        W 7345  42.869   2.839   3.229
47909W        W 7346  23.111  23.195  11.609
47910W        W 7347  40.955  12.854  10.590
47911W        W 7348  11.659   2.837   1.737
47912W        W 7349  30.041  25.044   0.758
47913W        W 7350  13.305   5.851  10.416
47914W        W 7351   5.273  32.895  13.525
47915W        W 7352   5.852  42.969  11.402
47916W        W 7353  41.890  35.908  12.491
47917W        W 7354  16.611  24.578   1.262
47918W        W 7355  40.819  25.095  10.454
47919W        W 7356  41.885  39.887   1.694
47920W        W 7357  40.530   7.727  13.952
47921W        W 7358  13.189  29.540   0.768
47922W        W 7359  11.149   8.196  12.984
47923W        W 7360   6.386   4.714   0.922
47924W        W 7361   3.923  11.823   2.800
47925W        W 7362  11.737  36.433   2.706
47926W        W 7363   2.278   6.818  10.427
47927W        W 7364  21.534  14.667   3.290
47928W        W 7365  12.190  22.014   1.231
47929W        W 7366  20.534  16.296  12.970
47930W        W 7367  44.901  23.994   4.648
47931W        W 7368  38.424  18.260   3.835
47932W        W 7369  39.446  31.085  12.405
47933W        W 7370  21.220  26.593  11.413
47934W        W 7371  23.535  39.912  12.994
47935W        W 7372  30.478  20.727   4.299
47936W        W 7373  16.137   3.287   0.834
47937W        W 7374  27.505  37.010  13.523
47938W        W 7375  15.648  20.707   4.751
47939W        W 7376  10.326   9.285  12.348
47940W        W 7377   8.399  32.990  13.466
47941W        W 7378  26.671   5.379   0.756
47942W        W 7379  15.090  32.891   1.228
47943W        W 7380  19.742   5.331  12.451
47944W        W 7381  12.678  24.618   3.164
47945W        W 7382   3.285   9.768  11.470
47946W        W 7383  20.524  40.450  14.990
47947W        W 7384   1.377  14.793  13.877
47948W        W 7385  13.759  27.056  11.383
47949W        W 7386   6.328  16.271   1.449
47950W        W 7387  38.967  32.566   1.291
47951W        W 7388  24.006  21.221   0.441
47952W        W 7389  20.177  31.519   2.695
47953W        W 7390   2.795  40.524   3.204
47954W        W 7391  26.632  19.609  13.055
47955W        W 7392   9.376  19.223  10.485
47956W        W 7393  20.671  39.025  11.427
47957W        W 7394  25.083  22.512   5.188
47958W        W 7395  18.214  26.548   0.318
47959W        W 7396  32.982   9.793  11.863
47960W        W 7397  32.062  22.507  14.326
47961W        W 7398  31.566  42.469  10.977
47962W        W 7399  18.272  41.397   2.354
47963W        W 7400  44.806  40.327   3.157
47964W        W 7401  40.971  12.301   4.331
47965W        W 7402   4.760  26.199  13.313
47966W        W 7403  34.007   7.888  12.403
47967W        W 7404  21.524   2.930   4.118
47968W        W 7405  33.615  11.725  12.500
47969W        W 7406  27.017  20.074  14.854
47970W        W 7407  43.840   9.176   1.250
47971W        W 7408  40.304  15.123   4.767
47972W        W 7409   2.414  41.416   4.730
47973W        W 7410  14.803   8.766  10.925
47974W        W 7411  40.042   0.341   2.211
47975W        W 7412  26.011  43.992  10.930
47976W        W 7413  23.142   5.224   1.711
47977W        W 7414  34.916  12.302  13.350
47978W        W 7415   1.245   4.945  14.887
47979W        W 7416   0.370  35.508   4.688
47980W        W 7417  25.194  17.588  11.862
47981W        W 7418   7.196  25.171   0.360
47982W        W 7419  19.057  24.628  11.517
47983W        W 7420  21.653  16.139  11.867
47984W        W 7421  36.581  21.222   2.284
47985W        W 7422  30.075  23.077   2.777
47986W        W 7423   9.883  12.666  10.519
47987W        W 7424  39.449  19.242  14.808
47988W        W 7425   6.704   4.868  12.946
47989W        W 7426  12.188   7.727   4.669
47990W        W 7427  24.173  21.263   1.248
47991W        W 7428  14.270   4.915  11.502
47992W        W 7429  40.804  40.928  11.867
47993W        W 7430  39.906  44.445   0.280
47994W        W 7431  42.871  41.467   3.272
47995W        W 7432  31.990  34.445   3.674
47996W        W 7433  32.533   5.290  12.575
47997W        W 7434  10.779   2.316   2.302
47998W        W 7435  39.542  35.581   4.742
47999W        W 7436  29.094  37.988  12.348
48000W        W 7437  37.372   1.349   1.814
48001W        W 7438  20.233   5.194  10.896
48002W        W 7439   3.434  14.198  11.976
48003W        W 7440  31.412  15.276  13.346
48004W        W 7441  23.721  39.410   3.386
48005W        W 7442  24.075  22.101   2.799
48006W        W 7443  31.565  40.933  14.855
48007W        W 7444  14.816   2.412   2.207
48008W        W 7445  33.958  26.209  10.592
48009W        W 7446  16.584  38.856   3.220
48010W        W 7447  40.388  20.147  12.975
48011W        W 7448  26.964  35.984   1.401
48012W        W 7449  20.539  18.175  12.000
48013W        W 7450  16.297  18.277  10.056
48014W        W 7451  31.647  33.071  14.445
48015W        W 7452  24.484  25.690   4.762
48016W        W 7453  44.768  39.452   0.271
48017W        W 7454  23.576  27.103   1.367
48018W        W 7455  11.350  32.547   3.148
48019W        W 7456   1.460  12.278   1.788
48020W        W 7457  30.542   6.882   3.367
48021W        W 7458  17.710  19.653   4.250
48022W        W 7459  21.061  21.178   1.379
48023W        W 7460   9.871  40.837   4.117
48024W        W 7461  34.108  10.816   1.377
48025W        W 7462   0.408  23.720   4.611
48026W        W 7463   6.379  44.890   3.770
48027W        W 7464  18.647   5.789  10.928
48028W        W 7465   6.791   2.298   3.363
48029W        W 7466   2.721   4.940   2.224
48030W        W 7467  13.811  15.249  10.541
48031W        W 7468  38.860  43.873  14.333
48032W        W 7469  32.043  17.195   4.168
48033W        W 7470  37.377  28.038   4.339
48034W        W 7471  33.909  10.824  10.526
48035W        W 7472  43.383   3.902   0.481
48036W        W 7473  36.523   8.694  13.477
48037W        W 7474   1.298  11.826   5.707
48038W        W 7475  42.996  11.868  11.918
48039W        W 7476  41.870  37.078   2.730
48040W        W 7477   7.376  16.271   3.682
48041W        W 7478   7.374   7.761  11.891
48042W        W 7479  14.714   7.819  12.411
48043W        W 7480  24.649   7.796  14.436
48044W        W 7481   3.797   8.284  11.902
48045W        W 7482  14.264  30.500   3.186
48046W        W 7483  13.842   3.366   9.946
48047W        W 7484  41.356  40.517   5.213
48048W        W 7485  10.220  40.862  13.847
48049W        W 7486  39.458  41.963   3.726
48050W        W 7487   7.667  39.011   4.643
48051W        W 7488  10.780  17.739   0.318
48052W        W 7489  16.107   0.450  12.546
48053W        W 7490  36.520  18.714   3.378
48054W        W 7491  33.494  36.592  13.445
48055W        W 7492  12.682  24.085   5.263
48056W        W 7493  35.944  19.039  10.577
48057W        W 7494   6.230  19.591  12.059
48058W        W 7495  11.662   7.184  12.555
48059W        W 7496   2.789  21.261   4.352
48060W        W 7497  21.651   5.694   2.812
48061W        W 7498  19.190  41.387  10.529
48062W        W 7499  13.706  34.083  10.893
48063W        W 7500  41.386  28.681  13.332
48064W        W 7501  32.615  22.032   2.782
48065W        W 7502  30.149  44.995  11.023
48066W        W 7503   4.216  15.734   0.914
48067W        W 7504  32.927   5.324   3.210
48068W        W 7505  14.181  15.269   0.959
48069W        W 7506  38.890   4.869   2.379
48070W        W 7507   9.662  42.838   2.761
48071W        W 7508  18.738  39.538   1.401
48072W        W 7509  27.180  24.097   4.609
48073W        W 7510  37.506   9.323   3.657
48074W        W 7511  24.002  39.923   1.869
48075W        W 7512  35.079   3.375   4.624
48076W        W 7513  38.364  13.786   2.217
48077W        W 7514  37.066  29.482  13.987
48078W        W 7515  33.118  15.608   3.808
48079W        W 7516  14.667  25.533  13.922
48080W        W 7517  14.311  41.870  11.584
48081W        W 7518   6.255  30.062   5.195
48082W        W 7519  24.208  19.102   4.807
48083W        W 7520   2.448  30.157  14.371
48084W        W 7521  40.356  39.495  13.947
48085W        W 7522   6.854  40.024  11.026
48086W        W 7523  41.314  31.465   1.785
48087W        W 7524  16.648   3.225   0.267
48088W        W 7525  42.842  41.293  14.774
48089W        W 7526  35.919   3.288   4.204
48090W        W 7527  11.636  39.059   2.300
48091W        W 7528  24.129  37.846  12.876
48092W        W 7529  19.179  16.585  11.583
48093W        W 7530   3.311  34.903  14.775
48094W        W 7531   9.663   0.388   2.792
48095W        W 7532  10.642   5.378  12.368
48096W        W 7533   4.789   3.297   3.232
48097W        W 7534  28.962  10.380  11.092
48098W        W 7535  12.856  13.126   3.698
48099W        W 7536  43.310  10.145   3.840
48100W        W 7537  24.153  42.384  11.418
48101W        W 7538  34.996  43.309   3.686
48102W        W 7539  22.597  28.530   4.255
48103W        W 7540  14.232   8.696  11.568
48104W        W 7541  23.229   9.394  13.516
48105W        W 7542  16.082  12.687   1.442
48106W        W 7543  21.552  44.995  10.612
48107W        W 7544  42.829  33.556  10.922
48108W        W 7545  19.186  44.303  11.038
48109W        W 7546  35.971  33.062  11.511
48110W        W 7547   7.869  44.281   4.755
48111W        W 7548  27.477  18.207   0.811
48112W        W 7549  16.135  28.552   1.322
48113W        W 7550  38.872   8.165  10.982
48114W        W 7551  21.699  38.026   4.743
48115W        W 7552  33.424  17.237  12.415
48116W        W 7553  10.174  32.541  12.061
48117W        W 7554   6.741  36.589  14.774
48118W        W 7555  25.022  37.933  14.003
48119W        W 7556   6.182  12.835   0.246
48120W        W 7557  31.494  18.270   3.168
48121W        W 7558   0.333  25.480  12.407
48122W        W 7559  25.119   6.231   4.820
48123W        W 7560  27.191   4.422   2.714
48124W        W 7561  39.887  13.350   1.704
48125W        W 7562  36.034  18.564  14.368
48126W        W 7563  39.913  30.455  11.608
48127W        W 7564  29.925  35.968   2.735
48128W        W 7565  38.373  43.004   9.956
48129W        W 7566  39.411   6.818  11.031
48130W        W 7567  40.386  16.657  10.425
48131W        W 7568  11.846  16.647  12.447
48132W        W 7569   2.851  25.657   0.899
48133W        W 7570  43.486   0.809  11.376
48134W        W 7571  13.765   2.762  12.373
48135W        W 7572  14.671   7.816   4.182
48136W        W 7573  32.070  11.235   3.700
48137W        W 7574  40.952  10.643  12.375
48138W        W 7575  31.047  19.239  14.951
48139W        W 7576   5.744  36.916  13.337
48140W        W 7577  26.980  41.510  14.358
48141W        W 7578  21.578  13.705  14.514
48142W        W 7579   4.824  40.353   4.730
48143W        W 7580  15.214   6.334  12.560
48144W        W 7581  37.835  23.651  11.467
48145W        W 7582   9.719  28.034  11.879
48146W        W 7583  22.602   6.814  10.421
48147W        W 7584  26.171  40.516  13.482
48148W        W 7585  36.368   4.260  12.017
48149W        W 7586  43.363  16.634   2.240
48150W        W 7587  42.300  37.837   2.375
48151W        W 7588  20.603   8.292   4.724
48152W        W 7589  43.928   5.790  11.380
48153W        W 7590  11.731  38.032  12.835
48154W        W 7591   8.800   3.729  11.088
48155W        W 7592  26.576  41.488  14.027
48156W        W 7593   6.314  12.352   2.801
48157W        W 7594   9.351  30.473  12.880
48158W        W 7595   4.819  16.758   9.933
48159W        W 7596  34.439  44.425   4.744
48160W        W 7597  12.214  38.429  10.645
48161W        W 7598  21.127  12.684  11.029
48162W        W 7599  22.708  24.567   3.201
48163W        W 7600  10.225  26.524  13.431
48164W        W 7601  42.435  40.969  10.908
48165W        W 7602   0.755  28.616  13.395
48166W        W 7603  19.614  22.121   0.738
48167W        W 7604  37.085  36.465   4.126
48168W        W 7605   6.252   2.241   2.229
48169W        W 7606  33.908   4.743   0.947
48170W        W 7607   7.728  39.851   3.334
48171W        W 7608  17.130  40.489  10.968
48172W        W 7609  33.928  23.629  13.988
48173W        W 7610  23.558  29.967   3.712
48174W        W 7611   0.367  15.660  13.432
48175W        W 7612  22.211   0.296  12.918
48176W        W 7613   5.200  38.888  11.606
48177W        W 7614  29.451  40.959   3.368
48178W        W 7615  28.128  39.851  12.531
48179W        W 7616   0.927  37.993   1.699
48180W        W 7617  32.416  26.042  12.859
48181W        W 7618   2.355  20.091  13.519
48182W        W 7619  41.511  15.789  11.417
48183W        W 7620   5.836  36.582  11.511
48184W        W 7621  15.607   3.812  10.930
48185W        W 7622   7.866   4.845   0.299
48186W        W 7623  40.911  12.747  13.799
48187W        W 7624  21.548   2.813   1.418
48188W        W 7625   5.804  25.123  12.028
48189W        W 7626  41.478  13.335  13.021
48190W        W 7627  12.230   5.298  10.567
48191W        W 7628  25.678  15.637   5.166
48192W        W 7629  40.542  24.682   2.342
48193W        W 7630   2.876   1.267   2.687
48194W        W 7631  25.709  40.343  13.835
48195W        W 7632  31.425  38.976  14.979
48196W        W 7633  32.476  27.037  14.008
48197W        W 7634  30.506  35.873   2.205
48198W        W 7635  12.258  27.512  13.866
48199W        W 7636  36.391   1.797  11.909
48200W        W 7637   3.722  13.274   0.918
48201W        W 7638  35.050  33.053   3.293
48202W        W 7639  42.012  17.733  10.962
48203W        W 7640  39.406   9.758   2.178
48204W        W 7641   0.328  44.963  12.433
48205W        W 7642  35.037  10.803   1.419
48206W        W 7643  37.851  20.562   1.802
48207W        W 7644  24.192  26.014  10.912
48208W        W 7645  43.910  23.644   1.451
48209W        W 7646   7.736  17.225  13.461
48210W        W 7647   1.315  22.150  13.034
48211W        W 7648  43.868   2.282   3.702
48212W        W 7649  23.075   6.864  11.485
48213W        W 7650  27.019  31.029   2.286
48214W        W 7651   8.184   7.804   4.309
48215W        W 7652  26.004  39.937  14.919
48216W        W 7653  27.169  40.305   1.219
48217W        W 7654   9.795  28.610  11.067
48218W        W 7655  20.537  14.834   1.321
48219W        W 7656   8.851  31.930   3.265
48220W        W 7657   4.265  33.921   4.154
48221W        W 7658  23.044   5.219   2.365
48222W        W 7659  40.512  23.165  11.015
48223W        W 7660  33.889  29.127  12.375
48224W        W 7661  33.960   0.482  10.407
48225W        W 7662  36.023  38.504  11.125
48226W        W 7663   5.401   3.757  14.491
48227W        W 7664  34.472  36.042  12.840
48228W        W 7665  34.080   5.741   3.337
48229W        W 7666   1.422  37.893   4.180
48230W        W 7667  10.748  12.752   0.352
48231W        W 7668   6.427  11.672   2.310
48232W        W 7669  22.123  28.481  12.528
48233W        W 7670   9.880  19.123   4.303
48234W        W 7671  26.012  30.140  11.971
48235W        W 7672  31.951  44.324  13.462
48236W        W 7673   1.364  36.579   9.450
48237W        W 7674   5.834  11.631  11.024
48238W        W 7675  13.688  23.606  10.444
48239W        W 7676  41.300  38.862  12.023
48240W        W 7677  13.818  44.418   3.159
48241W        W 7678  39.977  42.909   3.786
48242W        W 7679  32.119  34.447  10.586
48243W        W 7680   6.851  26.148  12.057
48244W        W 7681  16.311  35.562  10.889
48245W        W 7682   1.246  39.011  13.318
48246W        W 7683   1.906  38.359  11.573
48247W        W 7684  27.580  17.604  13.543
48248W        W 7685  11.335  21.250  11.427
48249W        W 7686  29.470  17.685   4.774
48250W        W 7687  33.399  36.465  11.445
48251W        W 7688   9.822  22.614   3.800
48252W        W 7689  10.207  11.335  13.055
48253W        W 7690  43.377  19.169   1.390
48254W        W 7691   0.285  33.550  13.471
48255W        W 7692  13.801   7.300   1.738
48256W        W 7693  31.130  24.704   4.230
48257W        W 7694  19.720  24.176  12.571
48258W        W 7695   4.349  14.629   0.249
48259W        W 7696  26.553  32.105   4.645
48260W        W 7697  40.944  15.107  14.903
48261W        W 7698  16.105  27.538  11.502
48262W        W 7699  36.417  44.872  14.840
48263W        W 7700  13.785  40.465   3.790
48264W        W 7701  18.748   6.884   1.308
48265W        W 7702   8.715  16.646  11.029
48266W        W 7703  13.154  23.224  10.609
48267W        W 7704  25.473   9.280  10.070
48268W        W 7705  24.171   1.354   4.178
48269W        W 7706  32.540  18.224   2.260
48270W        W 7707  19.144   9.249   0.299
48271W        W 7708  30.928  41.304   3.326
48272W        W 7709  24.197  12.810  11.010
48273W        W 7710   1.968  27.554  12.996
48274W        W 7711  37.435  29.042  13.976
48275W        W 7712  39.996  25.691  12.064
48276W        W 7713  17.786  27.526   4.683
48277W        W 7714  14.317   8.802  10.953
48278W        W 7715  38.930   9.395  12.391
48279W        W 7716   4.227  15.322  14.878
48280W        W 7717  38.926  30.100  13.537
48281W        W 7718  26.136  20.150   3.320
48282W        W 7719   5.866  20.146  11.017
48283W        W 7720  21.206   6.904  12.391
48284W        W 7721  12.346  28.586  11.990
48285W        W 7722  10.197  32.415  11.017
48286W        W 7723  25.013   1.770   2.766
48287W        W 7724   0.850  16.306   9.965
48288W        W 7725  23.658  32.395  11.899
48289W        W 7726  31.118  15.239  14.295
48290W        W 7727  11.320  43.444   4.834
48291W        W 7728  18.669  33.019   1.794
48292W        W 7729  28.590  10.365  10.441
48293W        W 7730  39.403   9.851  11.015
48294W        W 7731  22.071  41.946   1.332
48295W        W 7732   8.707  44.864  11.561
48296W        W 7733  20.197  30.944  11.383
48297W        W 7734  20.100  43.911   4.343
48298W        W 7735   5.369  26.104  13.801
48299W        W 7736  11.213  41.011  13.880
48300W        W 7737  18.126  21.622  14.412
48301W        W 7738  30.953  14.281   3.745
48302W        W 7739  27.180  21.029  14.877
48303W        W 7740  27.160  24.138   1.898
48304W        W 7741   2.459   0.361   4.231
48305W        W 7742  35.023  39.051   0.871
48306W        W 7743  23.233   6.704  12.459
48307W        W 7744  32.503  43.388  13.401
48308W        W 7745  32.044  19.151  14.853
48309W        W 7746  34.484  42.978   0.812
48310W        W 7747  41.007  24.143   2.341
48311W        W 7748  26.588   2.452   5.149
48312W        W 7749  14.829   6.906   1.303
48313W        W 7750  23.147  32.534   1.411
48314W        W 7751  29.514   5.431  10.475
48315W        W 7752  44.885  21.539  10.989
48316W        W 7753  19.108  37.971  11.864
48317W        W 7754  12.743  40.433   2.213
48318W        W 7755  29.161  28.678   0.442
48319W        W 7756  31.126  17.691  10.554
48320W        W 7757  27.472  20.736   1.301
48321W        W 7758  12.811  11.344   0.349
48322W        W 7759  28.537  18.710   3.655
48323W        W 7760  36.384  30.014  12.984
48324W        W 7761  26.951  16.271   3.351
48325W        W 7762  25.001  13.842   1.853
48326W        W 7763  41.376  25.687   1.428
48327W        W 7764  11.793   6.766  14.962
48328W        W 7765  10.683   8.160   4.148
48329W        W 7766   3.456  31.019  12.472
48330W        W 7767  32.428  19.122  14.512
48331W        W 7768  29.020   9.174   2.370
48332W        W 7769  40.851  28.934  14.978
48333W        W 7770   6.388  10.208   4.201
48334W        W 7771  28.065   5.889  12.498
48335W        W 7772  20.251  24.516  12.519
48336W        W 7773  29.589  34.484   2.802
48337W        W 7774  22.237  16.597  11.524
48338W        W 7775  36.499  40.383  13.491
48339W        W 7776  10.372   2.779  13.938
48340W        W 7777  21.189   8.825   4.607
48341W        W 7778  33.531   1.383   1.787
48342W        W 7779  19.239  38.948  11.934
48343W        W 7780  40.467  27.562  12.004
48344W        W 7781  32.951  19.068   0.788
48345W        W 7782  37.460  14.273   0.767
48346W        W 7783  23.031  25.619  14.843
48347W        W 7784  31.995  25.214   3.673
48348W        W 7785   9.686  22.544  12.872
48349W        W 7786  24.208  22.138   0.774
48350W        W 7787   3.414  42.988   0.422
48351W        W 7788  25.172  20.255   4.305
48352W        W 7789  37.557  23.015   2.233
48353W        W 7790  13.303  41.873  12.520
48354W        W 7791  34.987  29.140  10.611
48355W        W 7792  13.722  17.727   3.826
48356W        W 7793  13.773   3.935   4.212
48357W        W 7794  41.888  11.813  10.929
48358W        W 7795  43.942  25.693   3.650
48359W        W 7796  41.878  40.376   4.250
48360W        W 7797  23.717  22.052   2.185
48361W        W 7798  34.064  26.546   0.243
48362W        W 7799   8.383   5.819  11.956
48363W        W 7800   8.687  17.251  12.044
48364W        W 7801  14.116  35.527  10.490
48365W        W 7802   4.208   0.902   3.256
48366W        W 7803  10.858  42.006   1.375
48367W        W 7804  37.063   5.279   2.673
48368W        W 7805   5.780  33.583   4.696
48369W        W 7806  32.442   4.252   0.865
48370W        W 7807  14.271  21.227   4.760
48371W        W 7808   2.445  28.672   0.867
48372W        W 7809  16.088  38.057  13.806
48373W        W 7810  28.990  41.033  14.978
48374W        W 7811  44.446  21.600   4.659
48375W        W 7812  39.411  16.698  12.572
48376W        W 7813  37.011  17.729   3.858
48377W        W 7814  22.527  33.611  14.919
48378W        W 7815   6.226  13.763  11.056
48379W        W 7816  41.400  34.046   0.853
48380W        W 7817  15.329   3.278  11.069
48381W        W 7818   4.814  29.434   0.897
48382W        W 7819   5.298  15.201  13.894
48383W        W 7820  44.993  27.034  11.024
48384W        W 7821  36.587  19.737  10.595
48385W        W 7822   4.734  24.559   2.805
48386W        W 7823  42.478   5.692  13.944
48387W        W 7824  17.793  21.135   0.774
48388W        W 7825  22.148  24.197   3.742
48389W        W 7826  30.083  29.468  11.109
48390W        W 7827  32.106  23.537   3.286
48391W        W 7828  27.665  43.828   1.380
48392W        W 7829  17.656  40.956   0.740
48393W        W 7830  26.077  10.878   2.263
48394W        W 7831  31.020  28.643   3.797
48395W        W 7832  17.219  33.545  13.793
48396W        W 7833  26.991  32.463   0.263
48397W        W 7834   4.276  25.069  13.548
48398W        W 7835   0.354  26.077   3.769
48399W        W 7836  11.318   8.358   1.398
48400W        W 7837  33.516  17.756   2.757
48401W        W 7838   4.795  24.663  13.372
48402W        W 7839  19.221  11.134  14.893
48403W        W 7840  13.687  23.155   0.960
48404W        W 7841  43.874  11.161  14.827
48405W        W 7842   7.854  27.994   0.473
48406W        W 7843  44.401  36.880  10.514
48407W        W 7844  33.077  11.791   4.747
48408W        W 7845  42.997   7.323   3.816
48409W        W 7846  31.994  13.345  11.486
48410W        W 7847  38.952  41.528  12.975
48411W        W 7848  18.050  38.404  13.518
48412W        W 7849  42.474  15.591  11.544
48413W        W 7850  44.292  16.808   4.833
48414W        W 7851  27.522  27.686   0.889
48415W        W 7852  11.622  39.935   0.456
48416W        W 7853  26.169  21.057  13.368
48417W        W 7854  32.595  44.812  14.315
48418W        W 7855  35.093  10.664  12.990
48419W        W 7856   5.919   6.737  13.038
48420W        W 7857  30.421  10.140   4.142
48421W        W 7858   4.292  37.497  13.824
48422W        W 7859  18.629  24.569  10.415
48423W        W 7860  13.112  30.641  12.030
48424W        W 7861  40.974  37.401   2.299
48425W        W 7862   6.381  24.502   3.773
48426W        W 7863   2.850  15.324   4.194
48427W        W 7864  41.999  14.744   4.147
48428W        W 7865   5.261  38.986  13.374
48429W        W 7866  39.316  39.000   1.895
48430W        W 7867  32.476  22.241   0.435
48431W        W 7868  33.432  22.080  11.053
48432W        W 7869  42.795   4.910   4.811
48433W        W 7870  21.092  33.989   2.334
48434W        W 7871  44.002   0.374   4.127
48435W        W 7872  34.480  19.275   3.187
48436W        W 7873  14.605   1.458   4.610
48437W        W 7874  31.620  28.518  10.941
48438W        W 7875  44.761  40.467  10.630
48439W        W 7876  40.960  32.950  12.477
48440W        W 7877  34.491  15.763  14.359
48441W        W 7878  41.516  12.215  12.048
48442W        W 7879  31.037  10.669  14.438
48443W        W 7880  38.053  26.667  14.371
48444W        W 7881  15.274  44.842  14.909
48445W        W 7882  28.073  17.763   2.811
48446W        W 7883   6.703  33.440   4.170
48447W        W 7884  13.331  24.688   1.261
48448W        W 7885  31.132  22.999   1.253
48449W        W 7886   9.236  14.632   0.280
48450W        W 7887  17.179  19.661   2.786
48451W        W 7888  42.289   2.446   1.783
48452W        W 7889  27.944  33.076   1.929
48453W        W 7890  32.398  27.035   1.441
48454W        W 7891  11.160  23.986  14.823
48455W        W 7892  26.969  38.074  14.826
48456W        W 7893   9.159  15.625  11.612
48457W        W 7894   1.861  24.723   0.878
48458W        W 7895  40.925  17.135   4.270
48459W        W 7896  16.797   4.904  10.645
48460W        W 7897  27.074  40.038  14.986
48461W        W 7898  12.667  14.712   0.396
48462W        W 7899   0.340  20.726   0.381
48463W        W 7900  20.736  39.528   4.798
48464W        W 7901  44.502  27.999   3.669
48465W        W 7902  36.387  19.605   2.696
48466W        W 7903  10.799  37.401  10.433
48467W        W 7904  43.498  31.118  11.091
48468W        W 7905  10.223  36.001  14.012
48469W        W 7906   5.236   5.920  13.836
48470W        W 7907  18.275  22.116  14.395
48471W        W 7908   6.863  31.428  11.969
48472W        W 7909  26.981  10.768   0.816
48473W        W 7910  16.092  14.304  11.500
48474W        W 7911   6.858  26.614   0.381
48475W        W 7912  39.424  20.054   0.378
48476W        W 7913  10.255  41.936   4.246
48477W        W 7914  29.092  21.696   3.857
48478W        W 7915  40.409  12.332  12.404
48479W        W 7916  29.463  14.177  10.636
48480W        W 7917  16.630  16.261   3.678
48481W        W 7918  34.383  33.480  13.313
48482W        W 7919  22.574  37.569   3.865
48483W        W 7920  19.621  44.890  13.918
48484W        W 7921  35.453   8.749   2.689
48485W        W 7922  32.109   4.204  12.434
48486W        W 7923  17.155  16.674   9.672
48487W        W 7924  10.834  33.937  13.995
48488W        W 7925   3.935  34.024   2.684
48489W        W 7926  12.726  16.294  12.932
48490W        W 7927  41.818  37.386  13.953
48491W        W 7928  44.293  37.833  13.977
48492W        W 7929  11.855   4.740   3.227
48493W        W 7930  11.836  25.027  10.644
48494W        W 7931  36.543  23.601  14.286
48495W        W 7932  28.002  35.022   1.882
48496W        W 7933  10.324  36.030   2.332
48497W        W 7934  44.490  44.486  14.294
48498W        W 7935  13.696  28.129   3.351
48499W        W 7936  12.708  11.770  11.585
48500W        W 7937  38.884  24.679  11.928
48501W        W 7938  42.508  43.406  13.383
48502W        W 7939  40.403  24.675  13.048
48503W        W 7940   1.296  22.165  10.416
48504W        W 7941   2.753  14.681  12.948
48505W        W 7942  39.828   0.892  11.111
48506W        W 7943  39.956   6.785   2.399
48507W        W 7944  37.415  22.190  14.419
48508W        W 7945  27.034   7.690  11.091
48509W        W 7946   1.903  14.223  11.526
48510W        W 7947  17.707   1.326   4.130
48511W        W 7948  32.977   7.883   4.248
48512W        W 7949  18.194  36.976   2.686
48513W        W 7950  14.748   6.883  11.447
48514W        W 7951  43.953  42.363  10.530
48515W        W 7952  17.768  19.622   1.805
48516W        W 7953  11.262  16.580  11.893
48517W        W 7954  31.440  42.863  12.408
48518W        W 7955  18.101  29.039   3.768
48519W        W 7956  19.736  21.019   2.357
48520W        W 7957  17.576  32.592   2.315
48521W        W 7958  41.021  17.566   0.408
48522W        W 7959  42.443  34.394   1.733
48523W        W 7960   3.371  44.944   0.331
48524W        W 7961  10.240  42.832  10.901
48525W        W 7962  30.452   9.669   0.275
48526W        W 7963  31.011  10.342   4.261
48527W        W 7964  44.401  37.407  10.634
48528W        W 7965  13.136  19.600  11.503
48529W        W 7966   5.893  18.583  14.350
48530W        W 7967  41.467  21.539  14.317
48531W        W 7968  23.721  28.670  10.493
48532W        W 7969  26.695  30.560  12.513
48533W        W 7970  40.468  36.934   4.339
48534W        W 7971  28.082  37.996   2.220
48535W        W 7972  32.477   7.724   0.898
48536W        W 7973   7.403  25.537  13.879
48537W        W 7974   1.317  39.508   3.193
48538W        W 7975  43.859   4.215  13.807
48539W        W 7976  15.261  28.975   4.200
48540W        W 7977  40.377   3.311   5.283
48541W        W 7978  18.188  17.252  13.533
48542W        W 7979  31.107  34.924  12.058
48543W        W 7980  34.888  32.129  14.814
48544W        W 7981   0.376  41.895   4.661
48545W        W 7982  39.520  16.635   2.741
48546W        W 7983  30.600  17.615  12.092
48547W        W 7984  44.448  31.645   1.934
48548W        W 7985  27.552  42.355  14.419
48549W        W 7986  32.139  39.809   3.232
48550W        W 7987   0.821  37.420   5.087
48551W        W 7988  19.576   7.323  14.971
48552W        W 7989  42.021  25.086  12.551
48553W        W 7990  36.990   9.380  14.358
48554W        W 7991   5.767  17.193   0.361
48555W        W 7992   2.950  37.876  11.534
48556W        W 7993  15.278  30.163   2.258
48557W        W 7994  32.600  18.575   2.854
48558W        W 7995   3.909  42.890   9.982
48559W        W 7996   2.930  33.881   4.670
48560W        W 7997   9.720   1.473   4.664
48561W        W 7998  10.197  32.980  12.035
48562W        W 7999  11.688  22.171  11.856
48563W        W 8000   8.691  37.358   2.671
48564W        W 8001   1.935  18.703   3.811
48565W        W 8002  11.159  12.787  12.410
48566W        W 8003  40.357  31.961   1.299
48567W        W 8004  19.742   1.873   2.897
48568W        W 8005   8.281   2.745   2.285
48569W        W 8006  29.658  22.009  11.431
48570W        W 8007   7.856  17.652  12.989
48571W        W 8008   5.374  41.844   0.253
48572W        W 8009  26.197  33.082   1.354
48573W        W 8010  31.639  15.715  13.435
48574W        W 8011   3.853  36.388  13.885
48575W        W 8012  23.150  12.821   4.148
48576W        W 8013  33.055  43.503  10.068
48577W        W 8014   0.964  40.520  12.041
48578W        W 8015  26.641  40.355   2.717
48579W        W 8016   7.893  44.843  11.114
48580W        W 8017   7.853   7.851  12.044
48581W        W 8018  27.471  10.296  11.377
48582W        W 8019  11.752  18.143   1.925
48583W        W 8020   4.933  17.590   1.378
48584W        W 8021  22.702  12.345  10.431
48585W        W 8022   1.850  35.907  11.598
48586W        W 8023  40.547  11.332  12.027
48587W        W 8024  25.178  25.655   1.413
48588W        W 8025   8.719  40.824   1.400
48589W        W 8026  26.461  44.801   2.711
48590W        W 8027  32.011  16.582  11.067
48591W        W 8028  18.084  25.143  13.819
48592W        W 8029  16.185  15.780   2.231
48593W        W 8030  31.024   3.285  10.150
48594W        W 8031  33.394  19.681   5.161
48595W        W 8032  12.214  40.877   1.926
48596W        W 8033  18.242  13.125   0.784
48597W        W 8034  31.506  17.581   4.135
48598W        W 8035  17.696   3.765  14.761
48599W        W 8036  18.068   2.756   3.225
48600W        W 8037  10.180  33.461   0.351
48601W        W 8038  40.469  29.486  12.977
48602W        W 8039  27.142   8.223   1.277
48603W        W 8040   6.187  31.110   3.709
48604W        W 8041   0.398  11.690   3.857
48605W        W 8042  25.005  15.176  13.838
48606W        W 8043  12.621  27.104   3.771
48607W        W 8044  39.001  30.095  12.377
48608W        W 8045  39.349  19.565   5.225
48609W        W 8046  20.045  33.582   2.819
48610W        W 8047   0.788   7.226  12.411
48611W        W 8048  25.538  38.982   1.918
48612W        W 8049  21.553  36.560  13.366
48613W        W 8050  24.599   7.181   2.681
48614W        W 8051  37.032   5.917   2.329
48615W        W 8052  39.521  33.125  12.051
48616W        W 8053  31.121  21.625  10.098
48617W        W 8054  39.489  30.074   4.766
48618W        W 8055  29.160  15.699  13.340
48619W        W 8056   2.962   2.371   2.744
48620W        W 8057  34.906  26.600   3.287
48621W        W 8058   2.845   1.891  12.855
48622W        W 8059   3.799  20.073   1.814
48623W        W 8060  10.785  19.587  12.492
48624W        W 8061  37.976  41.297  14.299
48625W        W 8062   2.835   6.334   2.902
48626W        W 8063  34.496  44.284   0.827
48627W        W 8064  16.783  19.139  13.973
48628W        W 8065  23.118   7.823  11.455
48629W        W 8066  33.568  21.583   3.833
48630W        W 8067  37.909   9.311   1.893
48631W        W 8068  24.200  27.578   4.226
48632W        W 8069  13.332  20.274   3.190
48633W        W 8070   7.309  34.500   1.384
48634W        W 8071  27.455   7.408  14.498
48635W        W 8072  19.635  35.859  13.486
48636W        W 8073  42.371  23.079  10.928
48637W        W 8074   3.260   0.758   2.263
48638W        W 8075  17.101  37.952   0.819
48639W        W 8076   6.426  30.033  14.762
48640W        W 8077  14.190  19.732  12.018
48641W        W 8078   4.429   3.951  14.767
48642W        W 8079  39.322   2.364   0.332
48643W        W 8080  25.081  27.097  13.484
48644W        W 8081  39.536  11.834  12.562
48645W        W 8082  11.833  37.448   1.435
48646W        W 8083  35.441   5.695   0.782
48647W        W 8084  38.508  40.810  13.958
48648W        W 8085   1.802   8.210  14.851
48649W        W 8086  32.988  40.855   2.388
48650W        W 8087  20.104   6.711  14.417
48651W        W 8088  25.591   9.332   3.801
48652W        W 8089  43.364   8.715  13.930
48653W        W 8090  43.481  41.877   2.736
48654W        W 8091  20.626  19.534   2.893
48655W        W 8092  27.635  28.060   4.740
48656W        W 8093  36.538   7.846  13.422
48657W        W 8094   3.275   9.380   2.368
48658W        W 8095  25.617  10.727  13.480
48659W        W 8096   4.380  44.300  11.906
48660W        W 8097  24.522  10.871  14.410
48661W        W 8098   3.886  20.201   4.669
48662W        W 8099  38.002  25.606   4.302
48663W        W 8100  11.304  35.500   2.717
48664W        W 8101  27.049   1.342   0.353
48665W        W 8102  41.297  23.212   3.798
48666W        W 8103   8.824  16.141  10.431
48667W        W 8104  37.390  18.090   4.605
48668W        W 8105  12.237  24.193   0.957
48669W        W 8106  22.564  36.454   1.226
48670W        W 8107  17.278  10.743   2.830
48671W        W 8108  44.399  39.449   1.286
48672W        W 8109   7.251  36.569   4.352
48673W        W 8110   3.925  42.976   1.218
48674W        W 8111  20.726  34.391   1.929
48675W        W 8112  11.244  13.208  11.572
48676W        W 8113  29.605  36.404  14.947
48677W        W 8114  14.235  28.553   4.651
48678W        W 8115  14.616   9.714   2.180
48679W        W 8116  32.067  10.158   0.744
48680W        W 8117   8.274   1.829   0.966
48681W        W 8118  20.055  43.814   3.639
48682W        W 8119  33.512  12.731   4.282
48683W        W 8120  11.804  40.815  13.459
48684W        W 8121   8.785  26.672  12.445
48685W        W 8122  31.941   2.865  10.611
48686W        W 8123  37.963  12.336  10.500
48687W        W 8124  32.986  40.413   5.137
48688W        W 8125  29.087   0.893   3.822
48689W        W 8126  20.075   6.330  13.355
48690W        W 8127  35.554  14.789  13.347
48691W        W 8128  37.012  40.048  13.000
48692W        W 8129  27.977  39.541   3.383
48693W        W 8130  19.100  43.802  13.798
48694W        W 8131  16.706  31.582   2.842
48695W        W 8132  15.153   8.850  12.898
48696W        W 8133  31.971  38.351   3.208
48697W        W 8134  43.387  11.276  14.907
48698W        W 8135  30.555  33.575  12.007
48699W        W 8136  42.436   3.864  12.571
48700W        W 8137  32.074  39.849   2.777
48701W        W 8138  24.618   8.174  13.468
48702W        W 8139  25.090  19.217  11.437
48703W        W 8140   1.740   6.712  10.462
48704W        W 8141   4.737   4.266  10.140
48705W        W 8142  28.054  17.705   4.127
48706W        W 8143  43.863  37.444   2.815
48707W        W 8144  22.577  22.583  14.893
48708W        W 8145  29.124  16.175  14.890
48709W        W 8146  25.115  23.546   1.294
48710W        W 8147  16.293  17.643   3.212
48711W        W 8148  33.524  10.661  13.906
48712W        W 8149   0.775   3.884  11.427
48713W        W 8150  30.548  29.579   5.125
48714W        W 8151  21.100  33.038  12.891
48715W        W 8152   2.431  14.833  13.859
48716W        W 8153  43.290   3.381  11.909
48717W        W 8154  18.590   3.845  13.321
48718W        W 8155  30.091   5.291   4.755
48719W        W 8156  17.571  37.450   4.620
48720W        W 8157   6.695   4.434   1.255
48721W        W 8158   8.316  15.775   3.243
48722W        W 8159  37.375  22.688  12.982
48723W        W 8160  21.627  18.752  12.052
48724W        W 8161  43.967   2.885  14.766
48725W        W 8162  26.085  12.699  12.460
48726W        W 8163  14.289  25.160   1.840
48727W        W 8164  33.997   4.913   3.249
48728W        W 8165  37.479  34.412  13.476
48729W        W 8166   2.873  26.126  11.128
48730W        W 8167  35.872   0.306   1.251
48731W        W 8168  19.564  16.667   3.304
48732W        W 8169  39.961  32.976  11.022
48733W        W 8170  20.567  19.279  11.013
48734W        W 8171  32.459   1.959  13.962
48735W        W 8172  24.184  35.560   2.250
48736W        W 8173  38.431   4.761   0.875
48737W        W 8174  33.615  34.468   4.142
48738W        W 8175  13.837  41.941  10.550
48739W        W 8176  21.670   2.359  10.565
48740W        W 8177  36.076  30.503  10.507
48741W        W 8178  15.649   6.288   4.638
48742W        W 8179   1.373   7.392  12.387
48743W        W 8180   9.822  38.422  11.087
48744W        W 8181  38.554  14.768  14.352
48745W        W 8182  10.323  26.569  11.593
48746W        W 8183  30.446  39.885  13.429
48747W        W 8184   4.377  18.629  10.563
48748W        W 8185  39.510  14.165   2.197
48749W        W 8186   6.313  21.209   2.765
48750W        W 8187   0.755  43.817   2.724
48751W        W 8188  19.156  12.647  13.985
48752W        W 8189  20.619   9.366  14.404
48753W        W 8190  20.745  39.020   0.925
48754W        W 8191  25.569  20.712   4.158
48755W        W 8192   9.773  28.111   0.294
48756W        W 8193  18.780  40.340   1.878
48757W        W 8194  19.183  10.331   4.349
48758W        W 8195  18.640  18.276   3.315
48759W        W 8196  14.252  38.958   2.360
48760W        W 8197  23.094  27.656   4.120
48761W        W 8198  11.732  24.058   1.728
48762W        W 8199  35.099  36.083   0.325
48763W        W 8200  30.656  13.166   3.208
48764W        W 8201   6.242  10.834   4.679
48765W        W 8202   1.875   7.782  12.003
48766W        W 8203  11.748  23.165   2.868
48767W        W 8204   2.815   0.899  14.447
48768W        W 8205  41.012  27.531  12.560
48769W        W 8206  42.950  27.603  14.885
48770W        W 8207  35.028  29.150  14.765
48771W        W 8208  10.721  33.049   2.184
48772W        W 8209  32.055  15.226  13.022
48773W        W 8210  33.597   1.853   3.328
48774W        W 8211  22.544  19.044  12.360
48775W        W 8212   2.450  23.708  10.906
48776W        W 8213   0.743  20.263  12.033
48777W        W 8214  35.547   4.897   1.365
48778W        W 8215  33.494   6.243   3.369
48779W        W 8216   5.257   1.356  12.909
48780W        W 8217  35.019  24.654  13.334
48781W        W 8218  35.556   5.249  14.439
48782W        W 8219   2.444   1.778   0.920
48783W        W 8220  25.516  32.630  14.432
48784W        W 8221   3.412   3.254   3.311
48785W        W 8222   6.730  41.889   2.680
48786W        W 8223  28.979  27.472   4.145
48787W        W 8224  43.325  27.003   4.287
48788W        W 8225  11.178  32.105  13.366
48789W        W 8226   4.356  15.781   0.321
48790W        W 8227   8.848   7.227   3.311
48791W        W 8228  10.713   7.874  11.536
48792W        W 8229   7.262  26.570   3.842
48793W        W 8230  41.454  38.940   3.860
48794W        W 8231  17.241  19.157   1.212
48795W        W 8232  41.810  24.174   1.341
48796W        W 8233  29.159   7.272  14.998
48797W        W 8234   2.762  33.896   1.231
48798W        W 8235  39.880  21.611  12.573
48799W        W 8236  36.966  21.596  10.409
48800W        W 8237  13.624  25.586   1.737
48801W        W 8238  20.739   6.843  11.052
48802W        W 8239  26.043  42.792   5.692
48803W        W 8240  43.370  31.150   2.710
48804W        W 8241  17.105  19.612   2.210
48805W        W 8242  11.359   7.381   0.878
48806W        W 8243  24.553   6.199  14.788
48807W        W 8244  41.853   9.240   2.840
48808W        W 8245  10.793  36.901  14.507
48809W        W 8246  32.507  27.033   1.717
48810W        W 8247   4.363  32.504  14.767
48811W        W 8248  41.392   0.746   4.819
48812W        W 8249  14.637  39.318  12.002
48813W        W 8250  19.123  34.965   1.829
48814W        W 8251  40.844  14.667   3.703
48815W        W 8252  27.633  22.721   5.706
48816W        W 8253  31.446  21.726  13.910
48817W        W 8254  31.439   9.211  12.924
48818W        W 8255  15.238  40.507  12.033
48819W        W 8256   6.320  42.503  12.388
48820W        W 8257  37.944   8.721  14.362
48821W        W 8258   5.308  27.600  10.157
48822W        W 8259  27.514   1.244   4.638
48823W        W 8260  30.596  19.611  13.906
48824W        W 8261  21.245  17.215   2.862
48825W        W 8262  29.973  41.861  11.040
48826W        W 8263   9.827  29.542   0.355
48827W        W 8264  20.552  42.489   0.892
48828W        W 8265  14.600  31.952  14.801
48829W        W 8266  14.765   2.408  11.912
48830W        W 8267  12.821   7.288   3.247
48831W        W 8268  42.443   2.334   2.807
48832W        W 8269  15.723  16.576  11.980
48833W        W 8270  14.140  23.534   1.846
48834W        W 8271  33.017  37.856  13.344
48835W        W 8272  37.458  41.906   1.356
48836W        W 8273   9.157  33.607   0.292
48837W        W 8274   7.265  43.021   1.855
48838W        W 8275   9.747   0.890   1.447
48839W        W 8276  17.579   0.762   0.919
48840W        W 8277  33.406  26.189   3.258
48841W        W 8278  39.975   1.448   4.637
48842W        W 8279   1.904  22.699  12.455
48843W        W 8280  41.861  10.722   4.718
48844W        W 8281  35.099  35.002  10.616
48845W        W 8282  33.900   8.803   1.908
48846W        W 8283  21.175  33.439   0.396
48847W        W 8284   0.454  16.144   3.326
48848W        W 8285  35.483   9.828  11.894
48849W        W 8286  12.180   9.152   4.824
48850W        W 8287  31.978   8.272  11.124
48851W        W 8288  31.962   7.779  14.456
48852W        W 8289  23.075  30.920  12.882
48853W        W 8290   8.772  18.575   0.966
48854W        W 8291   7.221  26.664   1.787
48855W        W 8292  35.030   5.861   4.199
48856W        W 8293  14.187  41.498   0.867
48857W        W 8294   1.769  42.356   1.854
48858W        W 8295   0.419  43.491  12.482
48859W        W 8296  28.937  28.144   4.771
48860W        W 8297   2.784  20.178   0.481
48861W        W 8298  40.424  44.768   1.443
48862W        W 8299  31.022  43.782   1.232
48863W        W 8300  23.035  19.172   3.242
48864W        W 8301  19.563  21.118  12.504
48865W        W 8302  13.124   7.900   3.378
48866W        W 8303  28.121  35.081  13.920
48867W        W 8304  32.988  39.339   0.765
48868W        W 8305  38.567   5.720  14.408
48869W        W 8306  34.495  24.567   3.330
48870W        W 8307  24.637  31.941  14.379
48871W        W 8308  31.573  44.426   1.264
48872W        W 8309  20.141  27.100  14.294
48873W        W 8310   1.246  36.480   1.802
48874W        W 8311   2.811  24.506  12.530
48875W        W 8312  15.196  14.698  11.004
48876W        W 8313  19.111  11.777  12.973
48877W        W 8314  24.068  34.585   4.179
48878W        W 8315  15.583  37.354  14.863
48879W        W 8316  25.564  30.114   2.869
48880W        W 8317  22.623   2.453   2.309
48881W        W 8318  26.150  36.008   0.264
48882W        W 8319   0.258  30.006   2.368
48883W        W 8320  36.879  16.232  14.895
48884W        W 8321  25.173  33.039  14.917
48885W        W 8322  20.109   2.331   1.415
48886W        W 8323  17.192  17.764  12.394
48887W        W 8324  34.053  34.043   4.234
48888W        W 8325   7.669  15.203   2.334
48889W        W 8326  30.626  18.247   3.312
48890W        W 8327  24.605  35.424  14.852
48891W        W 8328   4.328  11.653   3.641
48892W        W 8329   2.270  14.186   2.323
48893W        W 8330  16.275   2.301   4.624
48894W        W 8331  19.243  35.535  14.337
48895W        W 8332  42.423  31.467  12.483
48896W        W 8333  32.053  21.732   1.386
48897W        W 8334  39.334  18.559  10.484
48898W        W 8335  38.342  23.692  13.510
48899W        W 8336  42.495   9.319   0.358
48900W        W 8337   4.846   2.820  14.433
48901W        W 8338  40.393  33.451  13.807
48902W        W 8339  31.002   8.723  11.417
48903W        W 8340  39.923  43.473  14.449
48904W        W 8341  13.150  38.532   1.889
48905W        W 8342  22.030  18.067   4.316
48906W        W 8343  19.595  19.246  13.797
48907W        W 8344   8.373   1.901  13.889
48908W        W 8345   0.369  19.741   4.778
48909W        W 8346  16.804  35.365  13.034
48910W        W 8347  33.877  20.705   4.140
48911W        W 8348  35.910  12.184  13.414
48912W        W 8349  23.043  21.545   1.420
48913W        W 8350  18.074  15.587  12.014
48914W        W 8351  16.661  24.589  12.341
48915W        W 8352   6.269  23.640  10.982
48916W        W 8353  30.582  26.457  13.939
48917W        W 8354  15.095  30.638   4.717
48918W        W 8355  42.020  44.924   4.210
48919W        W 8356  21.018  17.731  12.921
48920W        W 8357  24.725   3.750   3.697
48921W        W 8358  40.451  42.371  14.853
48922W        W 8359   1.353   5.229   4.287
48923W        W 8360  42.328  30.497   4.275
48924W        W 8361  42.389   8.195  13.967
48925W        W 8362   4.235  36.491   1.263
48926W        W 8363   8.878   7.773  10.454
48927W        W 8364   5.806   3.725  14.957
48928W        W 8365  30.562  31.522   4.807
48929W        W 8366  42.909  14.128  13.532
48930W        W 8367  30.541  39.438  12.856
48931W        W 8368  18.622  10.864   4.233
48932W        W 8369  29.037  19.049   4.326
48933W        W 8370  16.633   9.392  14.989
48934W        W 8371  42.490   2.755  13.545
48935W        W 8372   0.361  30.936  12.462
48936W        W 8373  21.198  41.944  11.484
48937W        W 8374  33.579  23.678  14.783
48938W        W 8375  40.817  31.082  14.002
48939W        W 8376  17.207  12.180   3.362
48940W        W 8377  14.224  39.003  11.485
48941W        W 8378  39.986  21.653   4.144
48942W        W 8379  15.158   4.442   3.273
48943W        W 8380   3.918  20.230   0.777
48944W        W 8381  39.969  18.752  14.776
48945W        W 8382  23.071  42.386  11.040
48946W        W 8383  37.446   5.247  12.937
48947W        W 8384  33.622  16.786  11.934
48948W        W 8385  41.787   2.911   1.796
48949W        W 8386  36.906   7.403   0.439
48950W        W 8387  35.384  16.218   0.746
48951W        W 8388  31.946  13.197  14.333
48952W        W 8389  15.254   0.932  13.482
48953W        W 8390  44.277  43.978  10.501
48954W        W 8391   0.311  34.591   2.384
48955W        W 8392  40.013  20.604  13.960
48956W        W 8393  26.187  12.185  14.009
48957W        W 8394   3.921  15.092   9.529
48958W        W 8395  20.557  10.718  10.909
48959W        W 8396   0.963  12.685  14.309
48960W        W 8397  36.940   9.188  10.564
48961W        W 8398  31.920  35.077   0.261
48962W        W 8399  23.176  13.622   1.794
48963W        W 8400  26.583   8.191   4.631
48964W        W 8401  17.776  25.044  12.947
48965W        W 8402   1.744  17.652  12.392
48966W        W 8403   0.485  20.614   3.381
48967W        W 8404  42.438  14.293  14.787
48968W        W 8405   0.358  18.249  10.899
48969W        W 8406   3.428  23.704   1.789
48970W        W 8407  13.256   6.719   1.382
48971W        W 8408  24.516  29.069  11.993
48972W        W 8409   1.964  34.499  13.017
48973W        W 8410  34.047  34.438   0.915
48974W        W 8411  31.424   9.150   3.339
48975W        W 8412   2.835  10.813  14.863
48976W        W 8413   2.754  43.336  10.435
48977W        W 8414  31.417  11.229   4.329
48978W        W 8415   5.207   8.392   0.452
48979W        W 8416  18.226  12.125   4.136
48980W        W 8417  12.632  27.991  11.081
48981W        W 8418   0.293   4.709   4.263
48982W        W 8419  25.659  28.131   1.881
48983W        W 8420  14.232  44.469  13.351
48984W        W 8421  21.229  13.134   1.772
48985W        W 8422  40.992  29.170  12.565
48986W        W 8423  22.203  44.988  10.559
48987W        W 8424  33.506  38.384   5.138
48988W        W 8425  43.995   5.372  12.340
48989W        W 8426  12.291  13.665  13.035
48990W        W 8427  42.807   1.352  12.409
48991W        W 8428   1.463  32.920  13.966
48992W        W 8429   5.787  32.422  14.858
48993W        W 8430   5.827  41.858  10.491
48994W        W 8431   0.761  38.902  13.017
48995W        W 8432  11.806   7.679  11.563
48996W        W 8433  24.718  34.044  13.513
48997W        W 8434  40.938  42.381  11.965
48998W        W 8435  20.170  21.111  14.310
48999W        W 8436   8.227  40.835   2.287
49000W        W 8437  25.968  33.074   1.805
49001W        W 8438  22.081  20.567   4.241
49002W        W 8439  15.237  42.332  11.371
49003W        W 8440   3.226  44.424  11.076
49004W        W 8441  20.649  14.094  12.404
49005W        W 8442  37.486   2.721   0.877
49006W        W 8443  21.151  41.461  13.513
49007W        W 8444  38.978   6.402   1.844
49008W        W 8445  41.018  39.425   3.232
49009W        W 8446   0.947  31.517  10.622
49010W        W 8447   0.880  43.791  11.935
49011W        W 8448  39.924  11.252   4.709
49012W        W 8449  10.707  17.725  10.424
49013W        W 8450   5.358  37.496   0.369
49014W        W 8451   4.221   5.901  14.505
49015W        W 8452  43.337  31.121  11.495
49016W        W 8453   3.902  13.845   0.377
49017W        W 8454  10.866  13.135   3.213
49018W        W 8455  21.650   5.421   2.340
49019W        W 8456  40.501   7.787  12.079
49020W        W 8457  32.452  34.597  13.321
49021W        W 8458  40.488   9.679   1.754
49022W        W 8459  10.655  21.180   1.261
49023W        W 8460  22.042  23.560  12.488
49024W        W 8461  41.856   7.269   5.186
49025W        W 8462  40.436  36.044   0.357
49026W        W 8463  43.417  17.159   3.845
49027W        W 8464  25.053   7.751  12.885
49028W        W 8465  38.059  26.697  14.902
49029W        W 8466   8.801  25.468   9.997
49030W        W 8467   7.732   8.772   9.928
49031W        W 8468  30.996  10.271  13.378
49032W        W 8469  39.556  33.383  14.301
49033W        W 8470  39.514  13.187   3.216
49034W        W 8471  43.851   8.247   1.247
49035W        W 8472  22.043  40.391  11.453
49036W        W 8473  24.713   3.930  13.541
49037W        W 8474  31.058   7.881  12.520
49038W        W 8475   0.307  19.076  12.990
49039W        W 8476  33.096  14.820   3.162
49040W        W 8477  15.230  35.930  13.366
49041W        W 8478   8.862  23.583  13.493
49042W        W 8479  28.601  15.161   1.286
49043W        W 8480   6.226  13.163  13.991
49044W        W 8481  27.624  25.530   3.247
49045W        W 8482  13.741  44.392  14.014
49046W        W 8483  33.099   1.858  11.522
49047W        W 8484  22.134   6.400   3.362
49048W        W 8485  10.357   2.469  11.457
49049W        W 8486  28.630  16.287  14.343
49050W        W 8487  11.688  24.670  14.877
49051W        W 8488  17.696  26.202   0.726
49052W        W 8489  39.438  39.356   2.803
49053W        W 8490   0.931  41.493   5.085
49054W        W 8491   9.886  35.436   2.704
49055W        W 8492  26.999   4.371  12.457
49056W        W 8493   8.192  26.042   0.316
49057W        W 8494  16.799  16.231  12.840
49058W        W 8495  31.008  28.623   4.156
49059W        W 8496  20.226  16.640  12.985
49060W        W 8497  42.491   1.790   1.397
49061W        W 8498   4.367  13.844  12.972
49062W        W 8499  31.007  35.535  13.882
49063W        W 8500  25.605  19.648  13.529
49064W        W 8501  42.783  29.560  12.051
49065W        W 8502  20.538   3.292   5.207
49066W        W 8503  32.894  42.499   3.743
49067W        W 8504  10.639  14.674   0.320
49068W        W 8505  31.441  36.353  13.913
49069W        W 8506  39.041   6.883   3.702
49070W        W 8507  15.303  25.487  10.468
49071W        W 8508  31.110  28.584  11.417
49072W        W 8509   7.823  20.240  10.951
49073W        W 8510  31.101  12.777  14.864
49074W        W 8511  37.971  42.454   0.785
49075W        W 8512  29.145   5.819   2.221
49076W        W 8513   2.346  32.434  11.968
49077W        W 8514  14.203  39.341   4.168
49078W        W 8515  35.856  36.965  11.414
49079W        W 8516  17.802   2.891   4.822
49080W        W 8517  42.295  20.757   2.858
49081W        W 8518   8.803  39.051  11.560
49082W        W 8519  40.949  41.882   4.324
49083W        W 8520   7.871  44.463   3.796
49084W        W 8521  22.235  18.594  11.101
49085W        W 8522  25.630  21.610  12.441
49086W        W 8523  26.479   3.248  13.505
49087W        W 8524  18.731  10.638  14.386
49088W        W 8525  30.465  36.368  13.021
49089W        W 8526  20.545  32.636  14.021
49090W        W 8527  29.577  26.674   0.965
49091W        W 8528  22.518  25.219   1.379
49092W        W 8529  12.247  38.002  13.954
49093W        W 8530  11.668  16.683   3.705
49094W        W 8531  22.595  10.799  10.499
49095W        W 8532  28.985  11.856  11.486
49096W        W 8533  27.990   7.843   1.781
49097W        W 8534  23.057  11.761  13.383
49098W        W 8535  26.590  34.578   9.954
49099W        W 8536  31.137  14.684   0.749
49100W        W 8537  21.163   4.446  11.936
49101W        W 8538   8.328   4.324  10.934
49102W        W 8539  16.778  17.680   4.826
49103W        W 8540   2.774  34.985  13.488
49104W        W 8541  31.481  14.743   3.341
49105W        W 8542  44.841  24.616  12.552
49106W        W 8543   9.369  31.093   0.456
49107W        W 8544  43.370   8.292  12.368
49108W        W 8545  25.989  44.917  13.032
49109W        W 8546   8.276  35.976  14.963
49110W        W 8547  30.079  32.067   4.334
49111W        W 8548   7.672  12.343  14.418
49112W        W 8549  40.351  27.033   4.260
49113W        W 8550  44.402  23.698   1.866
49114W        W 8551  39.512   4.829   2.308
49115W        W 8552  12.768  41.467   0.398
49116W        W 8553  44.901  32.113   2.901
49117W        W 8554  10.223  29.161   0.775
49118W        W 8555  33.039  35.585   4.732
49119W        W 8556  19.274  20.643  14.499
49120W        W 8557  43.004  30.047   2.859
49121W        W 8558  21.153   8.401  11.109
49122W        W 8559  10.349  26.024  14.005
49123W        W 8560  30.988  31.454  11.995
49124W        W 8561  21.057  44.375  11.946
49125W        W 8562  15.095  36.495   2.243
49126W        W 8563   0.910  26.536  14.902
49127W        W 8564  17.214   5.351  12.924
49128W        W 8565  33.914  28.566  14.420
49129W        W 8566  38.889  41.965  11.527
49130W        W 8567  10.704   3.892  12.975
49131W        W 8568  11.659   4.438   4.274
49132W        W 8569  37.900  17.557  13.386
49133W        W 8570  29.568  30.565  14.350
49134W        W 8571  40.978  18.602  14.428
49135W        W 8572  31.088  20.034   3.727
49136W        W 8573  17.267  31.139   3.292
49137W        W 8574  28.550  30.970  11.074
49138W        W 8575  28.023  29.160  14.302
49139W        W 8576  13.273  42.346   4.125
49140W        W 8577  20.612  42.018  10.444
49141W        W 8578  35.883  16.721   0.787
49142W        W 8579   7.396  34.032  10.962
49143W        W 8580  14.601  13.701  11.066
49144W        W 8581  20.583  25.504  12.981
49145W        W 8582  33.109  31.037  11.997
49146W        W 8583  23.013  26.955  10.983
49147W        W 8584  38.470  33.576  10.941
49148W        W 8585  14.158  37.902  11.408
49149W        W 8586   9.207  38.537  14.917
49150W        W 8587  14.104  20.709  14.349
49151W        W 8588  40.515   2.345  12.343
49152W        W 8589  17.638  39.909  14.506
49153W        W 8590  37.856  42.525  14.365
49154W        W 8591  28.630   2.850  12.386
49155W        W 8592  22.229  37.577  10.887
49156W        W 8593  38.429  29.583  13.964
49157W        W 8594   5.408  25.485   1.819
49158W        W 8595  34.494  18.239   2.748
49159W        W 8596  13.750  37.574  14.455
49160W        W 8597  38.515   6.699   2.358
49161W        W 8598   9.744  34.559   1.332
49162W        W 8599   7.755  37.879   4.817
49163W        W 8600   1.310   6.212   3.302
49164W        W 8601  41.801  43.968   0.964
49165W        W 8602  40.473  13.757  10.552
49166W        W 8603  33.032  23.666   2.349
49167W        W 8604  21.075  14.240   3.338
49168W        W 8605  18.575  19.723   5.305
49169W        W 8606  10.159  44.908   0.298
49170W        W 8607   8.381  44.283   0.440
49171W        W 8608   0.469  18.194  11.894
49172W        W 8609  16.801  18.678  14.351
49173W        W 8610   2.461  23.616   2.353
49174W        W 8611  19.738   9.346  13.826
49175W        W 8612  27.568  28.465   4.316
49176W        W 8613  13.171  29.014   0.264
49177W        W 8614  37.914  34.089   0.863
49178W        W 8615  15.797  34.465   4.124
49179W        W 8616  12.831  26.636  12.023
49180W        W 8617  25.605  21.114  14.032
49181W        W 8618  44.315  16.090  14.322
49182W        W 8619   5.235  12.650  13.309
49183W        W 8620  32.394   5.200   3.762
49184W        W 8621   9.329   9.320  10.594
49185W        W 8622  42.979  15.189  12.975
49186W        W 8623  29.057  40.895  11.093
49187W        W 8624  25.664  42.474  12.998
49188W        W 8625  40.528  26.055  13.985
49189W        W 8626  14.234  28.079  11.544
49190W        W 8627  38.456  25.593  14.401
49191W        W 8628   9.359  18.238   3.209
49192W        W 8629  12.712  20.537   4.745
49193W        W 8630  44.842   3.859   1.449
49194W        W 8631  18.066   2.409  14.414
49195W        W 8632  38.338  42.905  13.997
49196W        W 8633  23.194  24.565  13.356
49197W        W 8634  13.661  44.010   2.717
49198W        W 8635  35.372  15.309  13.490
49199W        W 8636  34.013  18.091  12.526
49200W        W 8637  24.559  27.456  14.503
49201W        W 8638  10.746  34.498   0.837
49202W        W 8639   7.339  13.637   1.739
49203W        W 8640  41.798  31.520   4.249
49204W        W 8641  34.493  29.532  11.010
49205W        W 8642  38.488  22.608   0.306
49206W        W 8643  33.606  36.571   1.237
49207W        W 8644  43.442  25.006  12.353
49208W        W 8645   1.951   7.816   3.673
49209W        W 8646  15.666   0.882  11.400
49210W        W 8647  37.528  18.650  13.310
49211W        W 8648  16.252  26.540   1.384
49212W        W 8649   1.910  14.802  11.995
49213W        W 8650  12.775  28.627   3.264
49214W        W 8651  11.836  41.787   4.281
49215W        W 8652   0.887  20.711   0.755
49216W        W 8653  32.950  23.662   0.275
49217W        W 8654  25.620   6.836  14.343
49218W        W 8655  29.091  29.093  11.884
49219W        W 8656  18.126  12.287  14.934
49220W        W 8657  15.170   4.357  11.426
49221W        W 8658  35.558  41.840  12.966
49222W        W 8659  16.766  35.887   1.245
49223W        W 8660  10.329  32.623  14.349
49224W        W 8661  40.461  44.381   3.331
49225W        W 8662  39.030  29.456  14.508
49226W        W 8663  13.251  44.499   4.134
49227W        W 8664   8.334  41.427  13.387
49228W        W 8665  29.935  10.167  13.508
49229W        W 8666  35.859   1.797   3.199
49230W        W 8667  18.662  19.615  10.436
49231W        W 8668   7.713  23.698   0.857
49232W        W 8669  28.557  21.576  12.548
49233W        W 8670   0.928  19.725   3.307
49234W        W 8671  38.002  11.748  12.883
49235W        W 8672   1.450  37.983  14.815
49236W        W 8673  30.934   4.380  14.461
49237W        W 8674  21.591   5.788   0.962
49238W        W 8675   3.716  42.512  14.977
49239W        W 8676  39.480  24.697   2.362
49240W        W 8677  16.726  35.935  13.987
49241W        W 8678  12.770   9.257   4.714
49242W        W 8679   6.227  16.097   4.628
49243W        W 8680  18.080  25.068   1.365
49244W        W 8681  17.214  41.839   2.720
49245W        W 8682  36.910  28.458  12.969
49246W        W 8683  39.975  12.635  11.882
49247W        W 8684  15.680  35.889   2.269
49248W        W 8685   2.803  17.800   4.827
49249W        W 8686  33.888   6.756  12.916
49250W        W 8687  42.887  30.985  12.950
49251W        W 8688  22.620  44.324  11.119
49252W        W 8689  34.872  41.356  11.980
49253W        W 8690   2.351  26.058  12.548
49254W        W 8691  17.140   8.679  14.276
49255W        W 8692  35.467  36.959   0.309
49256W        W 8693  25.614   9.804   3.692
49257W        W 8694  37.085  44.963   0.932
49258W        W 8695  37.532  28.660   2.373
49259W        W 8696   2.789  24.179  13.490
49260W        W 8697  21.041  39.859  12.987
49261W        W 8698   7.710  33.389  10.112
49262W        W 8699  17.209  40.317  14.489
49263W        W 8700  15.578  14.778   3.783
49264W        W 8701  23.575  33.926   1.410
49265W        W 8702  30.453   6.703  11.610
49266W        W 8703  17.643  12.633  14.007
49267W        W 8704  30.548   3.751  10.975
49268W        W 8705  44.841   7.199   4.607
49269W        W 8706  27.970  38.431   3.354
49270W        W 8707   4.826  14.764   1.380
49271W        W 8708  28.649   3.405   4.330
49272W        W 8709  29.098   7.261  10.628
49273W        W 8710  27.480  14.638  13.921
49274W        W 8711  44.955  24.054   4.166
49275W        W 8712  30.594  30.517  14.336
49276W        W 8713  25.523  21.656   2.707
49277W        W 8714  35.915  14.324  14.944
49278W        W 8715  15.599  16.246  13.523
49279W        W 8716  26.525  22.134  14.489
49280W        W 8717  10.778  11.352  13.352
49281W        W 8718   3.217  22.649   0.882
49282W        W 8719  12.310  44.416   4.607
49283W        W 8720  17.640  40.951   2.353
49284W        W 8721  38.025  20.071   1.280
49285W        W 8722   5.210  26.667  13.342
49286W        W 8723  40.803  32.889   1.863
49287W        W 8724  40.858  42.011  12.395
49288W        W 8725  34.035  37.576  12.081
49289W        W 8726  13.814  25.053   3.761
49290W        W 8727  28.528  22.241  14.939
49291W        W 8728  12.667  41.792   0.905
49292W        W 8729  39.889  33.910  10.449
49293W        W 8730   9.807  40.527   0.415
49294W        W 8731  29.606  39.930   0.855
49295W        W 8732  37.509  35.365  13.428
49296W        W 8733  22.735   9.726   0.348
49297W        W 8734  36.489   6.203  11.107
49298W        W 8735  44.941  43.406   2.889
49299W        W 8736  40.378  33.393   4.644
49300W        W 8737   1.733  35.858  13.052
49301W        W 8738  12.846  28.975  13.025
49302W        W 8739  43.447  36.952   0.421
49303W        W 8740  41.036   3.744  13.426
49304W        W 8741  31.538  12.648   1.776
49305W        W 8742  15.713   9.680   0.268
49306W        W 8743  24.030  35.942  14.408
49307W        W 8744  11.647  27.044   2.749
49308W        W 8745  41.938  17.730   0.892
49309W        W 8746   7.395  34.949   4.782
49310W        W 8747  30.539   7.886  13.548
49311W        W 8748  31.447  14.332   2.696
49312W        W 8749   1.843   6.864   1.241
49313W        W 8750  28.606  40.878   0.901
49314W        W 8751  12.735  35.868   1.358
49315W        W 8752   4.851  17.269  13.420
49316W        W 8753  22.620  14.162   3.203
49317W        W 8754  14.322  22.709  13.312
49318W        W 8755  36.473  30.567   4.692
49319W        W 8756   6.196  16.206   3.790
49320W        W 8757  27.666  30.425  12.430
49321W        W 8758   1.960  26.052   3.202
49322W        W 8759   2.895  30.425   1.712
49323W        W 8760   7.270  16.310   3.305
49324W        W 8761  12.297  36.941  11.071
49325W        W 8762  41.911  32.898  11.039
49326W        W 8763  44.792  24.514   4.813
49327W        W 8764  14.276  17.774  12.404
49328W        W 8765   1.406  26.190   2.369
49329W        W 8766  35.558  13.682  12.855
49330W        W 8767  25.215  35.029   3.148
49331W        W 8768  11.278   2.898  13.014
49332W        W 8769  31.565  36.542  11.008
49333W        W 8770  30.652  34.953  13.846
49334W        W 8771  27.474   0.429   0.290
49335W        W 8772  17.194   6.817  11.859
49336W        W 8773  42.994  19.570  11.442
49337W        W 8774  43.927  34.525  11.563
49338W        W 8775  34.540  34.023   2.827
49339W        W 8776  11.753  44.762  12.074
49340W        W 8777  14.833  26.168   3.640
49341W        W 8778   9.838  28.044  11.570
49342W        W 8779  30.010  11.213   0.836
49343W        W 8780  38.557  13.771   4.231
49344W        W 8781  42.494  11.373  13.024
49345W        W 8782  15.635  10.244   3.338
49346W        W 8783  11.831   9.281   0.381
49347W        W 8784  33.429  22.508   5.263
49348W        W 8785  27.573  12.687   2.848
49349W        W 8786  25.591  22.649  10.553
49350W        W 8787  32.118  15.624   4.797
49351W        W 8788  25.611   9.737   1.892
49352W        W 8789   3.730  26.954  11.943
49353W        W 8790  35.090  37.381  13.393
49354W        W 8791  29.985  28.562   0.890
49355W        W 8792  21.731   2.933   2.285
49356W        W 8793  11.840  42.391  11.969
49357W        W 8794  24.569  40.885  13.424
49358W        W 8795   1.324   4.330   1.380
49359W        W 8796  35.017  15.260   4.117
49360W        W 8797   1.956   0.982  12.969
49361W        W 8798  29.121  31.126   1.804
49362W        W 8799  44.932   9.381  13.913
49363W        W 8800  27.059  26.003  12.520
49364W        W 8801   3.829  34.063   4.657
49365W        W 8802  37.455   6.729   3.631
49366W        W 8803  10.200  26.494   1.346
49367W        W 8804  19.569  17.090  13.851
49368W        W 8805  31.947  10.291  14.859
49369W        W 8806  14.151  44.477  13.884
49370W        W 8807   2.948   2.748   3.717
49371W        W 8808  14.783  14.219  13.496
49372W        W 8809  40.306  17.096   4.638
49373W        W 8810  44.763  31.555  11.979
49374W        W 8811  14.309  36.891   1.855
49375W        W 8812  43.383   1.255   0.738
49376W        W 8813  10.173  42.860   1.230
49377W        W 8814  33.498  25.614   2.298
49378W        W 8815   6.424  21.116   5.090
49379W        W 8816  21.713   6.228   4.816
49380W        W 8817  24.700  22.148   1.438
49381W        W 8818  37.473  17.121  14.928
49382W        W 8819  38.962  24.987  13.424
49383W        W 8820  37.471  29.455  13.992
49384W        W 8821   5.919  24.487   9.970
49385W        W 8822   5.394   4.776   2.870
49386W        W 8823  20.669   6.352  11.993
49387W        W 8824  27.657  31.043  11.564
49388W        W 8825  27.160  44.774  14.867
49389W        W 8826   2.320   3.767   2.669
49390W        W 8827  39.844  16.314  13.027
49391W        W 8828  16.802  22.084   4.614
49392W        W 8829  16.594  43.991  12.578
49393W        W 8830   7.311   0.359   4.180
49394W        W 8831  10.185  38.382   4.661
49395W        W 8832  39.330  35.061   9.971
49396W        W 8833   5.373  16.132   3.641
49397W        W 8834  29.171  17.556   1.912
49398W        W 8835  24.157  22.584  10.899
49399W        W 8836  26.685  10.186  13.491
49400W        W 8837  12.271  30.583   1.729
49401W        W 8838  44.867  28.510   1.218
49402W        W 8839   0.805  24.106   0.864
49403W        W 8840  39.375  22.598   0.265
49404W        W 8841  22.045   0.757  12.010
49405W        W 8842   9.370   3.217   3.689
49406W        W 8843  10.384  14.784  10.456
49407W        W 8844  27.506   1.921  12.005
49408W        W 8845  34.069  20.040   4.727
49409W        W 8846   5.248   1.809  13.900
49410W        W 8847  27.944  44.444  14.802
49411W        W 8848   6.319   7.870   3.373
49412W        W 8849   4.235  11.692   1.842
49413W        W 8850  42.409  37.954   1.905
49414W        W 8851  37.887  14.713  12.891
49415W        W 8852  41.895   9.779   0.243
49416W        W 8853  25.569  20.210   1.239
49417W        W 8854  36.860  35.448  11.109
49418W        W 8855  20.686   7.355   0.741
49419W        W 8856   3.722  37.944   3.732
49420W        W 8857  14.220  13.718   2.259
49421W        W 8858   4.803  15.767  12.435
49422W        W 8859  32.914  15.767  13.896
49423W        W 8860   2.882  29.022   0.866
49424W        W 8861  20.627   1.809  10.424
49425W        W 8862   4.798   5.349   0.840
49426W        W 8863  15.116  38.870  13.809
49427W        W 8864  28.529  11.689  14.833
49428W        W 8865   3.759  31.594  11.561
49429W        W 8866  15.748  25.497  10.018
49430W        W 8867  14.795  27.680  12.084
49431W        W 8868   2.316   0.431  13.981
49432W        W 8869  11.668  20.692  14.927
49433W        W 8870  21.119   1.444   2.865
49434W        W 8871  14.636  31.153   2.708
49435W        W 8872  44.875   1.373  10.417
49436W        W 8873  31.000  20.576   2.685
49437W        W 8874   0.750  17.291  12.363
49438W        W 8875  42.498  11.335   0.455
49439W        W 8876  17.752  30.983  13.020
49440W        W 8877  13.117  19.222  14.826
49441W        W 8878  41.888  43.999   1.342
49442W        W 8879   6.248  19.251  13.390
49443W        W 8880  33.054  10.695   3.833
49444W        W 8881  35.967  25.647  12.878
49445W        W 8882   8.691   1.448  12.867
49446W        W 8883  21.647  19.099  11.862
49447W        W 8884  43.394  12.273  13.025
49448W        W 8885   1.312  27.688   4.122
49449W        W 8886  11.823  40.432   4.337
49450W        W 8887  44.782  23.511  11.390
49451W        W 8888   6.243  28.448  12.022
49452W        W 8889  35.108  15.663  11.009
49453W        W 8890  20.723  38.018   0.427
49454W        W 8891  38.463  11.372  14.296
49455W        W 8892  21.173   1.954  12.404
49456W        W 8893  19.566  18.685  13.339
49457W        W 8894  29.441   9.332   4.784
49458W        W 8895  18.627  29.550  14.398
49459W        W 8896   4.437  28.667  12.415
49460W        W 8897  14.682  18.617   1.373
49461W        W 8898  43.361  11.807   1.333
49462W        W 8899  23.172  25.212   2.347
49463W        W 8900  36.962  27.486   0.357
49464W        W 8901  42.514  10.354   4.724
49465W        W 8902   2.233   8.291  13.016
49466W        W 8903   9.800   9.760  13.791
49467W        W 8904   7.332  40.526  10.576
49468W        W 8905  38.039  36.064  14.357
49469W        W 8906  36.476  24.677   2.242
49470W        W 8907  11.226  34.394  13.004
49471W        W 8908  20.724  38.423  13.940
49472W        W 8909  34.966  23.676  13.825
49473W        W 8910  29.599  28.092   0.451
49474W        W 8911  14.191  36.498  12.411
49475W        W 8912  13.340  34.499  11.576
49476W        W 8913  42.819  13.791   4.244
49477W        W 8914   1.763  32.610  14.824
49478W        W 8915   7.743  17.113   4.597
49479W        W 8916   9.182  14.097   2.674
49480W        W 8917  15.713  11.209   0.408
49481W        W 8918  26.569  25.676  10.630
49482W        W 8919  15.197  18.625   5.092
49483W        W 8920   1.454   4.766   3.236
49484W        W 8921  20.614  37.031  13.360
49485W        W 8922   9.667  14.644  11.093
49486W        W 8923   3.840  36.044  14.496
49487W        W 8924  34.480  36.999   4.282
49488W        W 8925  27.656  24.011  13.814
49489W        W 8926  30.487   8.719   3.322
49490W        W 8927  41.334  30.525  11.465
49491W        W 8928  40.439  22.201  12.956
49492W        W 8929  10.180  24.680  10.995
49493W        W 8930  36.994  38.385  14.492
49494W        W 8931  26.172   6.684  14.963
49495W        W 8932  23.519   7.316  13.971
49496W        W 8933  30.970  42.840   2.672
49497W        W 8934   1.930  43.987   4.731
49498W        W 8935  11.167  38.855  13.855
49499W        W 8936  23.037  43.935  13.538
49500W        W 8937  20.051  40.447  12.072
49501W        W 8938   6.424   6.414  14.338
49502W        W 8939  40.902  22.586  11.106
49503W        W 8940  23.666  32.894  13.419
49504W        W 8941  22.537   4.320   3.766
49505W        W 8942  36.916  25.702  11.548
49506W        W 8943  44.479  15.646  11.998
49507W        W 8944   4.447  23.108  13.451
49508W        W 8945  15.808  17.757  11.475
49509W        W 8946  41.431  39.817  12.460
49510W        W 8947  20.219   8.787   4.682
49511W        W 8948   9.355  39.060   2.210
49512W        W 8949   8.795  21.585   4.245
49513W        W 8950  18.740  29.093  14.973
49514W        W 8951  26.493   2.377   2.726
49515W        W 8952  25.617  14.097   5.203
49516W        W 8953   6.363  42.796   2.398
49517W        W 8954  41.997  40.503  14.465
49518W        W 8955  32.586  32.993  11.434
49519W        W 8956   8.260  44.427   4.832
49520W        W 8957  29.516  32.052  11.406
49521W        W 8958  19.650  15.589  13.974
49522W        W 8959  24.672   3.257  13.468
49523W        W 8960  15.185   5.212  14.446
49524W        W 8961  31.607  34.868   2.415
49525W        W 8962  22.596   0.953  13.955
49526W        W 8963   9.746  43.815  12.373
49527W        W 8964   4.857  43.493  12.841
49528W        W 8965  44.471  10.289  13.507
49529W        W 8966   3.308  40.401   4.293
49530W        W 8967  36.022  23.538  11.579
49531W        W 8968  26.594  25.601   4.301
49532W        W 8969  14.215   2.415   1.346
49533W        W 8970  31.039  25.199   0.775
49534W        W 8971  43.449  43.769   2.304
49535W        W 8972  38.899  22.575  12.441
49536W        W 8973  31.625   2.270  11.563
49537W        W 8974  14.218  41.041  12.519
49538W        W 8975  29.634  18.119   3.372
49539W        W 8976   9.204   2.733  13.511
49540W        W 8977  14.723   0.788  14.408
49541W        W 8978   8.674  15.318   1.244
49542W        W 8979  22.235  39.407   2.408
49543W        W 8980  26.117  18.782   3.288
49544W        W 8981  35.429  20.257  10.554
49545W        W 8982  26.187  28.129   3.642
49546W        W 8983  33.875  41.532  14.788
49547W        W 8984  44.978  19.619   0.303
49548W        W 8985  42.334   2.826  11.024
49549W        W 8986  39.811   3.303  12.386
49550W        W 8987  40.888  38.489  10.486
49551W        W 8988  20.690  10.754  10.607
49552W        W 8989  38.447  27.676   1.860
49553W        W 8990  35.108  26.685   4.308
49554W        W 8991  21.535  31.004  14.423
49555W        W 8992   7.705   7.688  11.043
49556W        W 8993  37.967  27.087  11.004
49557W        W 8994  26.198  38.837   1.843
49558W        W 8995  13.119  41.982  14.362
49559W        W 8996  42.290  28.671  12.848
49560W        W 8997  17.799  44.295   9.998
49561W        W 8998  43.290  41.887   3.246
49562W        W 8999  33.475   5.401   0.344
49563W        W 9000  29.048  41.480   2.891
49564W        W 9001  38.415  43.378  13.491
49565W        W 9002  11.640  13.835  12.452
49566W        W 9003  43.384   2.746   3.853
49567W        W 9004  22.147  24.125  12.356
49568W        W 9005  13.666   1.420  11.582
49569W        W 9006  34.480  25.472  13.320
49570W        W 9007  27.142  17.585   3.840
49571W        W 9008  43.310  21.665  14.960
49572W        W 9009  31.403  41.883  14.413
49573W        W 9010  19.048   4.831   4.734
49574W        W 9011  44.760  40.902   0.951
49575W        W 9012  21.560   2.277  12.340
49576W        W 9013  18.266   7.760   0.957
49577W        W 9014  15.097  15.720   3.371
49578W        W 9015  19.066   8.177  12.862
49579W        W 9016   5.296  44.925   4.670
49580W        W 9017  13.805  37.558  12.900
49581W        W 9018  12.313  44.371   4.116
49582W        W 9019  29.006  29.607  14.350
49583W        W 9020   2.868   4.788  14.419
49584W        W 9021   0.469   2.798  10.594
49585W        W 9022  37.428  18.680  14.353
49586W        W 9023  37.878  26.700   0.808
49587W        W 9024  19.675  35.572  13.540
49588W        W 9025   8.878  39.358   2.740
49589W        W 9026   6.911  11.758  11.980
49590W        W 9027  41.956  43.766   4.623
49591W        W 9028   0.436   0.365   1.302
49592W        W 9029  25.546  25.205  14.383
49593W        W 9030  30.036  41.018  12.965
49594W        W 9031  35.526  43.478   0.247
49595W        W 9032  25.962   4.775   4.224
49596W        W 9033  43.793  26.955  14.983
49597W        W 9034  35.923  34.528   3.293
49598W        W 9035  41.945  19.616   3.376
49599W        W 9036  26.077  32.517   1.430
49600W        W 9037  10.349  21.603  12.838
49601W        W 9038  13.618   6.699  14.797
49602W        W 9039  40.002   3.955  13.890
49603W        W 9040  24.516  42.958   1.844
49604W        W 9041  29.603  14.599   2.386
49605W        W 9042   7.749  33.925  12.074
49606W        W 9043  12.260  33.429   2.388
49607W        W 9044   0.941  39.031  14.989
49608W        W 9045   3.937   5.317  14.982
49609W        W 9046   3.952  20.563   0.344
49610W        W 9047   8.776  24.605  11.534
49611W        W 9048   1.277  31.008   4.339
49612W        W 9049  15.278   8.323   1.268
49613W        W 9050  31.489  15.810  11.460
49614W        W 9051   7.854  26.525   2.705
49615W        W 9052  16.635  23.999   4.298
49616W        W 9053   2.377  29.038   0.794
49617W        W 9054  34.886  27.988  10.991
49618W        W 9055  18.168  42.782  11.952
49619W        W 9056  25.478  14.834   2.181
49620W        W 9057  27.100  13.820   4.829
49621W        W 9058  23.706  44.478  13.806
49622W        W 9059  19.577  36.494  14.946
49623W        W 9060   0.324   1.863  14.418
49624W        W 9061  19.571   7.402  13.852
49625W        W 9062   1.787  31.637   2.381
49626W        W 9063  11.242  28.461   4.834
49627W        W 9064  18.562  25.078   0.777
49628W        W 9065  30.160  18.116   2.829
49629W        W 9066  44.352  34.051  11.945
49630W        W 9067  24.190  14.240   4.141
49631W        W 9068  28.005  38.570  10.993
49632W        W 9069   1.335   6.301   0.955
49633W        W 9070  39.409  17.307  13.425
49634W        W 9071  40.044  21.711   0.887
49635W        W 9072  41.523  14.184  11.046
49636W        W 9073  43.799   2.322   1.838
49637W        W 9074   9.693  12.321  11.451
49638W        W 9075  40.853  14.709   2.850
49639W        W 9076  41.899  30.579  14.460
49640W        W 9077  31.974  11.714  14.276
49641W        W 9078  11.821  16.695  14.492
49642W        W 9079  14.226  32.434  14.480
49643W        W 9080  28.540   9.374  12.995
49644W        W 9081  30.603  34.030   0.805
49645W        W 9082  11.139  25.698   4.748
49646W        W 9083  34.557   0.943  10.577
49647W        W 9084  23.597  32.596  13.983
49648W        W 9085  16.658  42.318   9.583
49649W        W 9086  26.683   5.201  12.939
49650W        W 9087  31.627  19.650   1.368
49651W        W 9088  40.872  43.362  14.901
49652W        W 9089  34.535   0.839   0.352
49653W        W 9090  38.991   1.747  13.999
49654W        W 9091  43.868  13.708  13.518
49655W        W 9092   6.190   8.660  10.539
49656W        W 9093  15.173  22.191  12.830
49657W        W 9094  24.132   2.288   2.885
49658W        W 9095  23.997  31.092  11.455
49659W        W 9096   8.890  34.527   3.215
49660W        W 9097  22.187   8.341   0.318
49661W        W 9098  32.545  43.778   4.641
49662W        W 9099  34.941  15.699   3.216
49663W        W 9100  30.565  28.975  13.496
49664W        W 9101  21.065   5.859   1.431
49665W        W 9102  21.088  25.065   0.461
49666W        W 9103  22.146  22.217   1.369
49667W        W 9104  20.750   6.848  11.450
49668W        W 9105   3.264  33.480  14.463
49669W        W 9106   7.352  11.776  13.506
49670W        W 9107  41.328  41.886  14.820
49671W        W 9108   7.785   6.230   3.812
49672W        W 9109  20.188   2.427  14.014
49673W        W 9110  10.242   0.485  11.956
49674W        W 9111  39.914   3.388   2.848
49675W        W 9112  11.276  25.201   5.291
49676W        W 9113  30.632  40.909   4.137
49677W        W 9114  24.089  30.488   0.735
49678W        W 9115  38.473  19.588   0.407
49679W        W 9116  27.163  32.620  14.300
49680W        W 9117  39.549   1.956  14.328
49681W        W 9118   6.229  11.362   0.322
49682W        W 9119  29.017  22.557  10.572
49683W        W 9120  23.170  38.400  13.823
49684W        W 9121  32.046  38.535  11.107
49685W        W 9122  17.690  30.052   0.249
49686W        W 9123  20.052  30.919  14.444
49687W        W 9124  17.574  26.616   0.768
49688W        W 9125   1.422  31.511  13.050
49689W        W 9126  29.662  19.073   1.703
49690W        W 9127  14.798  25.192   1.899
49691W        W 9128   4.813  10.783  13.454
49692W        W 9129   8.832  37.843  14.873
49693W        W 9130   0.326   5.859  14.306
49694W        W 9131  12.353  43.282  11.405
49695W        W 9132  42.870  17.661  14.793
49696W        W 9133  15.203  27.197  13.950
49697W        W 9134  42.898  34.602  11.037
49698W        W 9135  18.717   4.945   5.145
49699W        W 9136  15.185   6.357   0.321
49700W        W 9137  29.976  18.272   1.751
49701W        W 9138  17.741  43.814   2.861
49702W        W 9139  28.962  12.207   3.156
49703W        W 9140  19.558   5.393   1.802
49704W        W 9141  35.855  25.692   2.244
49705W        W 9142  13.634  35.501   3.331
49706W        W 9143  43.426  19.248  13.439
49707W        W 9144  33.424   7.201   1.337
49708W        W 9145  10.870  30.655   1.733
49709W        W 9146  24.993  18.670   4.158
49710W        W 9147   0.409  35.097   0.960
49711W        W 9148  42.314  33.924   3.360
49712W        W 9149  20.137  39.813  11.955
49713W        W 9150  10.850  41.827   2.355
49714W        W 9151  44.823  31.448  13.930
49715W        W 9152  29.664  41.987   0.727
49716W        W 9153  22.721  27.598   2.697
49717W        W 9154  44.959   2.907  12.922
49718W        W 9155  25.507  41.850   1.930
49719W        W 9156   6.414  17.205   4.336
49720W        W 9157  20.530  41.933  13.364
49721W        W 9158  41.292  11.276   4.634
49722W        W 9159  34.526   7.766   4.142
49723W        W 9160  11.816  26.205  14.299
49724W        W 9161  12.639  42.868   3.640
49725W        W 9162   7.210   1.269  10.601
49726W        W 9163  12.847  36.531  14.469
49727W        W 9164   5.869   7.396  10.971
49728W        W 9165  28.035   5.695  13.399
49729W        W 9166  28.615  12.762   4.825
49730W        W 9167  24.228   7.881   3.342
49731W        W 9168   4.327  33.079   2.213
49732W        W 9169   1.389   4.814   2.325
49733W        W 9170   6.399  30.063  10.477
49734W        W 9171  31.499  38.863  11.036
49735W        W 9172  33.572  39.836  14.924
49736W        W 9173  12.307  16.123   1.386
49737W        W 9174  33.393   9.317   0.414
49738W        W 9175  24.182  22.515  10.456
49739W        W 9176  21.644  41.401   3.722
49740W        W 9177   7.891  35.523   1.838
49741W        W 9178  39.967  34.561   2.834
49742W        W 9179  26.088  36.376  12.947
49743W        W 9180  36.517  20.627  11.443
49744W        W 9181  11.664   1.968  14.767
49745W        W 9182  24.116  22.741  11.531
49746W        W 9183   1.461  17.724  12.975
49747W        W 9184  37.931  30.946  14.308
49748W        W 9185   6.243  28.533   4.279
49749W        W 9186  17.184  30.087  14.986
49750W        W 9187  27.023  18.636   1.716
49751W        W 9188  35.021  37.462  12.392
49752W        W 9189  19.599  21.674   0.413
49753W        W 9190   7.808  17.138  10.096
49754W        W 9191  28.071  38.529   1.726
49755W        W 9192  37.849   3.380  10.505
49756W        W 9193  17.221   3.317  12.909
49757W        W 9194  40.907  41.920   4.660
49758W        W 9195  33.504  22.564   5.648
49759W        W 9196  36.842  31.534  11.084
49760W        W 9197   1.746  14.603  13.042
49761W        W 9198  13.754  44.373  12.002
49762W        W 9199  24.119  24.139  11.433
49763W        W 9200  34.952  31.005   4.816
49764W        W 9201  28.162   9.314  11.605
49765W        W 9202  21.122  43.352  10.495
49766W        W 9203  19.238  39.404  10.962
49767W        W 9204  40.998  21.111  10.965
49768W        W 9205  26.619  30.148  10.592
49769W        W 9206  38.907  28.997  10.622
49770W        W 9207  11.342  13.305   2.772
49771W        W 9208  33.096  44.998   4.667
49772W        W 9209  44.775  15.106   4.614
49773W        W 9210  25.617  27.509  12.972
49774W        W 9211   2.866  24.654  14.311
49775W        W 9212  30.972  31.470   2.713
49776W        W 9213  41.898  23.241  10.981
49777W        W 9214  23.160  19.640   4.749
49778W        W 9215  38.983   3.247   2.729
49779W        W 9216  39.032  18.152  13.832
49780W        W 9217   6.827  15.723   2.238
49781W        W 9218  28.546   0.903   9.981
49782W        W 9219  14.209  13.732  12.351
49783W        W 9220  19.566  18.204  14.327
49784W        W 9221  13.770  10.811  11.913
49785W        W 9222   0.447   4.286   4.131
49786W        W 9223  30.928  27.525   1.765
49787W        W 9224  28.957   4.274   2.344
49788W        W 9225  11.790  33.570   2.312
49789W        W 9226  36.855  16.632  14.822
49790W        W 9227  17.266  41.351   1.861
49791W        W 9228  31.605   6.300  13.449
49792W        W 9229  31.569   5.377  13.055
49793W        W 9230  22.517  44.409  12.963
49794W        W 9231  40.315  25.505  14.344
49795W        W 9232  24.481  43.924  13.885
49796W        W 9233  39.873  30.113  10.468
49797W        W 9234  32.592   2.845   2.225
49798W        W 9235  18.224  26.637   4.131
49799W        W 9236  15.116  33.463   1.353
49800W        W 9237  31.626  24.661  13.990
49801W        W 9238   9.673  26.047   3.747
49802W        W 9239  34.471  36.981  10.941
49803W        W 9240  15.750  21.657   1.894
49804W        W 9241  33.005  41.442   1.750
49805W        W 9242  16.278  26.193   3.815
49806W        W 9243  42.996  40.813   1.713
49807W        W 9244   9.659  29.517  10.525
49808W        W 9245  42.825  10.793  10.503
49809W        W 9246   4.867  41.798   0.382
49810W        W 9247  36.056  34.606  13.037
49811W        W 9248  14.740  24.595   2.673
49812W        W 9249  28.985  10.160   9.978
49813W        W 9250  13.157  19.237  12.505
49814W        W 9251   1.810  42.413  13.509
49815W        W 9252  38.893  28.935  14.281
49816W        W 9253  14.270  22.163  10.570
49817W        W 9254   2.948  16.695   5.304
49818W        W 9255  32.905  43.368  11.585
49819W        W 9256  36.423  23.123  12.859
49820W        W 9257  36.038  14.698  10.932
49821W        W 9258   8.693  36.544   3.837
49822W        W 9259  21.662  41.333   4.691
49823W        W 9260  37.912  25.183   3.755
49824W        W 9261  38.055  24.634   2.891
49825W        W 9262  33.031  23.128   3.235
49826W        W 9263  31.496  34.118   4.654
49827W        W 9264  14.659  19.096   4.634
49828W        W 9265  25.061  35.558  11.100
49829W        W 9266   5.696   5.439   0.379
49830W        W 9267   7.362  39.327   3.251
49831W        W 9268  39.832  41.981   3.751
49832W        W 9269  40.482  38.820  12.485
49833W        W 9270  30.492  10.252  13.546
49834W        W 9271  43.341  33.957   9.947
49835W        W 9272  27.458   8.855   2.730
49836W        W 9273  36.000  23.622  11.899
49837W        W 9274   6.677  24.568   3.673
49838W        W 9275  18.574  14.621   1.702
49839W        W 9276   5.335  16.174  14.815
49840W        W 9277  10.265  32.593   4.651
49841W        W 9278  24.111   7.295   0.432
49842W        W 9279  11.808   2.830  10.903
49843W        W 9280  33.881  25.654   0.853
49844W        W 9281  30.146   3.908   4.254
49845W        W 9282  28.663   5.889   4.285
49846W        W 9283  26.613  20.718   2.366
49847W        W 9284  25.628  24.216  11.108
49848W        W 9285  36.857  27.653   3.330
49849W        W 9286  29.087  26.627   1.275
49850W        W 9287  23.187  30.943   1.292
49851W        W 9288   7.239  19.758  14.276
49852W        W 9289   4.725  16.185  10.918
49853W        W 9290   5.701  34.007  10.934
49854W        W 9291  16.274  17.571   2.244
49855W        W 9292  28.075  11.763   0.931
49856W        W 9293  29.159  10.722  14.829
49857W        W 9294  11.716  22.591  12.918
49858W        W 9295  20.577  43.400  11.913
49859W        W 9296  23.507   4.896  11.594
49860W        W 9297  28.654  26.992   0.941
49861W        W 9298  41.519  18.183  10.525
49862W        W 9299   2.941  40.809  12.960
49863W        W 9300  37.929  11.857  12.088
49864W        W 9301  40.010  22.067   1.700
49865W        W 9302  27.014   6.406  13.437
49866W        W 9303  39.887  39.045  13.908
49867W        W 9304  14.816  16.206  14.015
49868W        W 9305  31.063  12.688   0.916
49869W        W 9306   7.290  32.103  14.353
49870W        W 9307   3.762  27.665   4.820
49871W        W 9308  29.558  28.660  12.981
49872W        W 9309  14.731  19.073   2.282
49873W        W 9310  11.283  12.222   0.372
49874W        W 9311  11.175  36.499   4.330
49875W        W 9312  42.824  33.584   0.762
49876W        W 9313  10.851  10.137   4.731
49877W        W 9314  14.697   1.308   0.319
49878W        W 9315  31.051   1.256  14.963
49879W        W 9316   4.941  27.569   0.462
49880W        W 9317  21.619  26.102   0.793
49881W        W 9318  13.778  37.526  10.971
49882W        W 9319  33.063  42.468  12.371
49883W        W 9320  25.198  27.485   1.307
49884W        W 9321  40.991  33.517   1.820
49885W        W 9322  37.368  26.129  13.869
49886W        W 9323  34.544   0.928  14.327
49887W        W 9324   8.191   5.226  12.574
49888W        W 9325   0.967  25.099  10.965
49889W        W 9326   1.301  36.954   9.497
49890W        W 9327  36.563  44.831   1.387
49891W        W 9328   7.210  21.626   2.722
49892W        W 9329  20.142  15.168   1.218
49893W        W 9330  15.715  30.006   2.308
49894W        W 9331  29.643   3.775  10.407
49895W        W 9332  14.604  22.143   4.724
49896W        W 9333  18.791  34.024  14.436
49897W        W 9334  43.890  33.000   2.796
49898W        W 9335   5.198  11.276   3.216
49899W        W 9336  12.775  21.559   3.714
49900W        W 9337  18.586  26.459   3.870
49901W        W 9338  12.181   6.393   4.120
49902W        W 9339  27.957   4.338   2.896
49903W        W 9340  22.696  35.025   3.710
49904W        W 9341  18.594  19.277  13.884
49905W        W 9342   1.467  42.323  11.990
49906W        W 9343   6.764  23.634  13.983
49907W        W 9344  33.990  16.778   4.755
49908W        W 9345  22.249  37.432   1.810
49909W        W 9346  10.737   3.906   3.378
49910W        W 9347   3.306  19.241  11.558
49911W        W 9348  19.664  21.207   4.137
49912W        W 9349  41.905  20.123  14.956
49913W        W 9350  37.431  34.373  10.498
49914W        W 9351  43.406  24.536  11.885
49915W        W 9352  43.826   4.245   3.283
49916W        W 9353  43.373  42.477  13.403
49917W        W 9354   7.747   8.288  12.900
49918W        W 9355  35.511  19.649  11.025
49919W        W 9356   6.862  35.553   3.783
49920W        W 9357  23.700   3.929  13.908
49921W        W 9358  18.553  10.143   0.452
49922W        W 9359   5.226   8.865  11.086
49923W        W 9360  26.112   3.218  12.541
49924W        W 9361  28.567   7.225   1.731
49925W        W 9362  13.821  41.898   1.305
49926W        W 9363  40.864   6.684  13.348
49927W        W 9364  10.308  35.939  14.971
49928W        W 9365   5.895   5.876   0.381
49929W        W 9366   2.858  16.742   3.691
49930W        W 9367  13.626  31.961   2.672
49931W        W 9368  15.211   6.893  13.525
49932W        W 9369   5.689  27.037   2.383
49933W        W 9370  36.468   5.331  14.798
49934W        W 9371  33.407   4.449   2.220
49935W        W 9372  22.060  43.849  12.859
49936W        W 9373  30.065  40.023   1.387
49937W        W 9374  27.967  21.716   3.688
49938W        W 9375   3.884  44.891  11.020
49939W        W 9376  37.421  12.208   1.414
49940W        W 9377  14.588   1.772  10.075
49941W        W 9378  34.029  23.114   1.419
49942W        W 9379  23.153  42.370   3.777
49943W        W 9380  10.740  37.506   3.302
49944W        W 9381   5.304  18.649  10.996
49945W        W 9382  30.064  28.075   3.632
49946W        W 9383  39.370  13.235   1.704
49947W        W 9384   8.197  18.723  13.314
49948W        W 9385  11.787  22.726   0.778
49949W        W 9386  20.604  26.615  12.091
49950W        W 9387  30.589  32.957  13.369
49951W        W 9388  34.866  33.589   0.763
49952W        W 9389   3.293  31.953  12.061
49953W        W 9390  39.409  17.135   2.283
49954W        W 9391  25.637  33.906   1.349
49955W        W 9392   4.241  18.754  14.024
49956W        W 9393  33.469  37.568   5.598
49957W        W 9394  26.126   7.372   0.422
49958W        W 9395  41.420  29.953   3.744
49959W        W 9396  28.180   1.355   2.772
49960W        W 9397  41.512  29.493   0.892
49961W        W 9398  22.594  33.955  10.001
49962W        W 9399  38.824  32.571  12.568
49963W        W 9400  36.078  31.421  14.776
49964W        W 9401  30.524  31.137   4.114
49965W        W 9402  13.750  28.091  10.575
49966W        W 9403  19.587  42.004   2.247
49967W        W 9404   5.814  12.195   1.438
49968W        W 9405  11.310  10.327   1.364
49969W        W 9406  21.076   2.330  12.521
49970W        W 9407  26.037   4.237  11.381
49971W        W 9408   0.252  35.376   5.761
49972W        W 9409  27.096  13.757   4.331
49973W        W 9410   0.377  33.911   2.782
49974W        W 9411  35.555  13.832   3.200
49975W        W 9412  42.878  19.685  12.542
49976W        W 9413  26.018  12.227   4.756
49977W        W 9414  40.328   1.803   4.311
49978W        W 9415  36.442  12.156   4.734
49979W        W 9416   8.213  40.409   3.379
49980W        W 9417  21.724  34.374   2.766
49981W        W 9418  40.382  33.608   0.915
49982W        W 9419   9.838   2.753  13.004
49983W        W 9420  28.492   4.900   3.738
49984W        W 9421  25.608  27.002   3.700
49985W        W 9422  13.308  26.652  14.456
49986W        W 9423  29.932   7.690  12.515
49987W        W 9424  32.437   3.918  12.580
49988W        W 9425   3.927  33.569  11.985
49989W        W 9426  10.640  40.483   0.797
49990W        W 9427  35.103  18.674  12.416
49991W        W 9428  40.410  21.717  11.556
49992W        W 9429  34.085  30.922   1.701
49993W        W 9430   4.389  40.519   0.819
49994W        W 9431  27.960  13.298  12.000
49995W        W 9432  31.103  43.378  12.974
49996W        W 9433  23.638  28.479  11.095
49997W        W 9434  26.174  14.631   0.353
49998W        W 9435  38.364  22.661   2.311
49999W        W 9436  27.165  23.135   4.340
50000W        W 9437  19.649  13.351   4.284
50001W        W 9438  28.143  26.609   9.949
50002W        W 9439   1.848  18.695  13.497
50003W        W 9440  17.690  41.505   0.459
50004W        W 9441  11.202  29.089  12.825
50005W        W 9442  44.312   1.475  10.556
50006W        W 9443  10.138   7.294   0.892
50007W        W 9444  16.298  34.996  11.122
50008W        W 9445   5.389  39.976   1.897
50009W        W 9446  20.717  33.905   0.910
50010W        W 9447  17.089   9.227  14.447
50011W        W 9448  16.753  19.711   4.168
50012W        W 9449  26.684   2.386  10.902
50013W        W 9450   2.761  26.118   0.818
50014W        W 9451  43.276  31.124   1.222
50015W        W 9452  32.111   9.718   2.185
50016W        W 9453  10.732  20.274  14.000
50017W        W 9454  38.415  37.028   3.295
50018W        W 9455   0.962  27.607  10.536
50019W        W 9456  37.440  42.954  10.058
50020W        W 9457  43.983   2.333   4.242
50021W        W 9458   3.221  23.078   2.203
50022W        W 9459   6.699  32.125   1.349
50023W        W 9460  26.665  23.549  11.891
50024W        W 9461  44.363  28.146   9.931
50025W        W 9462  17.173  19.158   9.996
50026W        W 9463  18.682  20.125  14.774
50027W        W 9464  42.299  14.740  13.001
50028W        W 9465  15.715   8.235   0.911
50029W        W 9466  38.982  22.618  14.918
50030W        W 9467  25.070  17.225  12.365
50031W        W 9468  32.628   8.890  12.862
50032W        W 9469  43.920   9.331  12.840
50033W        W 9470  31.096  32.438   2.829
50034W        W 9471  31.497  18.281  14.819
50035W        W 9472  23.503   7.397  13.378
50036W        W 9473  40.808  18.233  14.918
50037W        W 9474  20.147  10.809  12.864
50038W        W 9475   5.413   5.282  11.543
50039W        W 9476   8.220  23.677   2.846
50040W        W 9477  10.837  42.322   4.310
50041W        W 9478   1.412  43.303  10.438
50042W        W 9479  40.321  17.701   0.732
50043W        W 9480  34.501  16.271  12.960
50044W        W 9481  41.005  18.779  11.996
50045W        W 9482   2.850  28.958  13.503
50046W        W 9483  36.974  30.960   3.285
50047W        W 9484   0.458  24.529   2.760
50048W        W 9485  23.024  43.359  11.063
50049W        W 9486  17.684  43.414  12.400
50050W        W 9487  40.026   9.739   3.369
50051W        W 9488  34.942   5.376   3.674
50052W        W 9489  33.625  29.553   0.830
50053W        W 9490   5.746   1.343   1.370
50054W        W 9491   2.250  13.621  14.295
50055W        W 9492  34.095  23.644   1.918
50056W        W 9493  17.779   0.330  12.824
50057W        W 9494   2.256  36.901  14.402
50058W        W 9495  37.034  21.236   0.394
50059W        W 9496  16.645  44.443  14.917
50060W        W 9497   3.409  42.465  13.361
50061W        W 9498  20.567  36.516  11.876
50062W        W 9499   3.330   1.946  12.402
50063W        W 9500  33.491  38.451   4.696
50064W        W 9501  40.907  22.198  12.945
50065W        W 9502   6.375  23.499   0.446
50066W        W 9503  38.343  16.766  13.838
50067W        W 9504  36.051  18.151   1.365
50068W        W 9505  13.266  12.728   2.886
50069W        W 9506   7.341  44.961   1.699
50070W        W 9507  10.220  20.075   3.865
50071W        W 9508  15.298   2.802   4.346
50072W        W 9509  24.110   8.865   3.344
50073W        W 9510  32.001  31.410   3.826
50074W        W 9511  12.686  10.809   2.760
50075W        W 9512  38.553  10.137  12.469
50076W        W 9513  28.167  32.893   0.474
50077W        W 9514  44.928  20.634   1.882
50078W        W 9515  35.363  32.053   1.254
50079W        W 9516   0.398  27.587  10.911
50080W        W 9517  44.947  39.849   1.286
50081W        W 9518  17.246  29.556   4.234
50082W        W 9519  42.001  29.934   0.867
50083W        W 9520  17.693  20.664  12.368
50084W        W 9521  30.114   7.707   1.772
50085W        W 9522  11.259  41.462  14.396
50086W        W 9523  39.898  33.908   1.930
50087W        W 9524  33.054  10.837  13.909
50088W        W 9525  26.040  13.295  11.423
50089W        W 9526  36.515  39.356  12.480
50090W        W 9527   6.771  35.928   3.158
50091W        W 9528  32.556  38.074   4.240
50092W        W 9529   0.415   1.311   4.774
50093W        W 9530  24.674  13.744   2.387
50094W        W 9531  18.127   2.351  11.481
50095W        W 9532  23.734   2.369  12.487
50096W        W 9533   6.796   1.465   0.907
50097W        W 9534   3.911  20.685  14.021
50098W        W 9535  30.908  33.965  12.828
50099W        W 9536  11.169  22.116  11.064
50100W        W 9537  19.581  37.029   3.869
50101W        W 9538   5.898   6.756  14.758
50102W        W 9539  36.436  29.950   3.851
50103W        W 9540  39.052   2.370   1.835
50104W        W 9541  34.609   4.443  14.933
50105W        W 9542  43.409  10.293  13.894
50106W        W 9543  35.549  14.105  14.423
50107W        W 9544   6.761  29.571  12.457
50108W        W 9545   7.789  36.483   2.338
50109W        W 9546  16.289  43.497  12.056
50110W        W 9547   5.821  43.992  12.549
50111W        W 9548  29.091  44.341  10.581
50112W        W 9549  36.984  16.255   0.336
50113W        W 9550  26.092   6.766   2.247
50114W        W 9551   9.240  22.569   1.725
50115W        W 9552  23.548  40.540  13.903
50116W        W 9553  27.604  33.061  10.964
50117W        W 9554  39.954  37.922  12.894
50118W        W 9555  44.301   9.247   4.690
50119W        W 9556  31.489  27.187   2.845
50120W        W 9557  33.988  41.379  13.362
50121W        W 9558  12.845  17.773  12.519
50122W        W 9559  38.825  13.258  14.426
50123W        W 9560  21.225  36.476   0.378
50124W        W 9561  21.084  13.702   0.766
50125W        W 9562  39.959  23.006  13.470
50126W        W 9563  11.801  43.793   0.337
50127W        W 9564  28.470   2.813  13.318
50128W        W 9565  10.272  35.856   0.734
50129W        W 9566  44.928  19.774  13.536
50130W        W 9567   5.294  30.948   4.672
50131W        W 9568   2.856  35.590   3.719
50132W        W 9569  29.498  35.934  11.402
50133W        W 9570  33.621   2.270   5.136
50134W        W 9571  15.114  14.803   4.158
50135W        W 9572  13.639  27.148   4.143
50136W        W 9573  13.114  11.373  11.574
50137W        W 9574   8.263   9.269   1.403
50138W        W 9575  36.951  25.130  14.969
50139W        W 9576  25.134  32.470  10.598
50140W        W 9577  16.574  31.081  14.825
50141W        W 9578   2.310   8.338   2.220
50142W        W 9579  11.826  13.658  11.487
50143W        W 9580  38.923  23.039  11.421
50144W        W 9581  20.622  35.052   2.845
50145W        W 9582  29.484  44.971  13.539
50146W        W 9583  11.293   4.786   3.849
50147W        W 9584  27.499  39.437   5.178
50148W        W 9585   0.251  33.528  11.104
50149W        W 9586  27.050  21.545   3.661
50150W        W 9587  44.865   3.722  12.067
50151W        W 9588   5.303   7.323  14.886
50152W        W 9589  34.103  17.784   4.759
50153W        W 9590  13.807  27.152   4.815
50154W        W 9591   8.853   0.313   1.291
50155W        W 9592  20.260   0.898   4.233
50156W        W 9593  23.118  29.016  12.900
50157W        W 9594  12.629  34.417  10.922
50158W        W 9595   0.834   0.250  10.539
50159W        W 9596   0.492  20.071   4.615
50160W        W 9597  35.061  25.644   3.711
50161W        W 9598  42.940  25.581  10.497
50162W        W 9599  25.477  19.731   1.828
50163W        W 9600  10.744  38.937   2.258
50164W        W 9601  24.724  14.681  10.971
50165W        W 9602  28.137   2.882   2.857
50166W        W 9603  16.741  14.629   3.379
50167W        W 9604  33.032   1.255  12.340
50168W        W 9605  38.415  24.135  13.343
50169W        W 9606  40.949   8.719  12.881
50170W        W 9607  21.657  43.349   2.737
50171W        W 9608   0.818  36.919  13.062
50172W        W 9609  15.129  41.300  12.043
50173W        W 9610  40.347  39.885   4.242
50174W        W 9611  40.386  41.857  12.493
50175W        W 9612  26.688  13.641  14.459
50176W        W 9613   7.902  17.102  12.437
50177W        W 9614  26.634  38.482  12.431
50178W        W 9615  11.645  15.308  13.878
50179W        W 9616   1.779  40.882   0.957
50180W        W 9617   3.818  25.173  14.436
50181W        W 9618  32.408   9.776  13.353
50182W        W 9619  29.036  22.235   1.339
50183W        W 9620  17.284  15.289  10.514
50184W        W 9621  21.133  21.205   0.732
50185W        W 9622  40.952  12.849   0.386
50186W        W 9623   8.897   5.242  14.283
50187W        W 9624  38.829  19.752   4.675
50188W        W 9625  23.641  15.660   4.292
50189W        W 9626   1.415   7.237   2.664
50190W        W 9627  28.145   7.736  12.024
50191W        W 9628  23.091   8.218   0.249
50192W        W 9629  20.113  33.084  14.464
50193W        W 9630  34.555  10.256   1.739
50194W        W 9631  29.920  21.575  12.881
50195W        W 9632   6.423  22.504  14.961
50196W        W 9633   5.233  30.630   1.823
50197W        W 9634   3.949   6.279  10.121
50198W        W 9635  38.866  10.757  10.516
50199W        W 9636  19.578  33.532   3.357
50200W        W 9637   2.905  41.892  10.524
50201W        W 9638  15.157   2.925   3.836
50202W        W 9639  21.697   6.759  13.840
50203W        W 9640   7.795   3.862  13.483
50204W        W 9641  10.814   0.331   4.119
50205W        W 9642  42.804  15.706  14.431
50206W        W 9643  24.690  35.072  14.481
50207W        W 9644  29.081  29.167  14.964
50208W        W 9645  38.419  28.173  13.946
50209W        W 9646  35.402   7.251  12.563
50210W        W 9647  31.457  12.747   3.748
50211W        W 9648  44.880  23.203  13.902
50212W        W 9649  19.747  15.628   2.742
50213W        W 9650   7.683  34.966   3.780
50214W        W 9651  19.648  28.967   2.832
50215W        W 9652  31.622  31.591   1.317
50216W        W 9653  26.624  16.757   5.169
50217W        W 9654  33.578  31.495   3.363
50218W        W 9655   6.260  18.787   4.351
50219W        W 9656  12.807  26.465  14.347
50220W        W 9657  31.401  36.933   2.842
50221W        W 9658  11.260  10.233   0.910
50222W        W 9659  16.221   8.688   1.930
50223W        W 9660  10.715  13.180  11.600
50224W        W 9661  30.509   4.705  10.979
50225W        W 9662  29.056  33.127   3.731
50226W        W 9663  21.202  11.815  14.303
50227W        W 9664   9.770  31.042  10.488
50228W        W 9665  16.582  29.506  10.494
50229W        W 9666  23.127  36.879  14.324
50230W        W 9667  40.436  18.782   2.246
50231W        W 9668  32.070   8.371  14.789
50232W        W 9669  33.955  43.821   4.604
50233W        W 9670  16.293   9.736   1.861
50234W        W 9671   4.698  33.963  13.856
50235W        W 9672  30.968  42.285   1.717
50236W        W 9673  27.546   6.380   1.307
50237W        W 9674  23.523   3.456  11.898
50238W        W 9675   5.752  30.016  13.033
50239W        W 9676  23.190  31.595   1.775
50240W        W 9677  16.795  20.649   1.299
50241W        W 9678  26.969  40.851   2.665
50242W        W 9679  39.833   7.680  14.384
50243W        W 9680  25.065  16.174   4.783
50244W        W 9681   2.383  41.506  10.055
50245W        W 9682  23.572  14.804  12.382
50246W        W 9683  26.580  32.614  11.075
50247W        W 9684  43.477  34.070   9.666
50248W        W 9685   2.873   4.374   3.365
50249W        W 9686  22.589   5.851   4.337
50250W        W 9687   3.272  14.761   2.856
50251W        W 9688  21.262  37.079   3.237
50252W        W 9689  21.595  27.130  12.444
50253W        W 9690   6.806  42.977   3.326
50254W        W 9691  32.963  18.159  13.432
50255W        W 9692  23.535   2.248  12.895
50256W        W 9693  29.591  22.100   2.805
50257W        W 9694  39.997   8.686  12.355
50258W        W 9695  33.516  30.140   0.797
50259W        W 9696  19.258   5.336  13.812
50260W        W 9697  12.162  33.105  12.387
50261W        W 9698  10.201  17.790   4.261
50262W        W 9699  21.250  11.785  10.629
50263W        W 9700  32.999   3.287   1.889
50264W        W 9701  34.119   1.409   1.343
50265W        W 9702  37.490  37.505   4.195
50266W        W 9703  43.842   1.397  12.930
50267W        W 9704  14.138  17.078   5.129
50268W        W 9705  36.576  28.636  13.508
50269W        W 9706  41.476   4.744  11.446
50270W        W 9707  17.682   2.438   4.780
50271W        W 9708   8.831  11.132  13.939
50272W        W 9709   8.234  32.062  10.049
50273W        W 9710  40.396  17.079  14.364
50274W        W 9711  25.492   7.182  14.467
50275W        W 9712   5.700  23.644  13.871
50276W        W 9713  36.403  17.117   2.810
50277W        W 9714   8.691   0.776  14.403
50278W        W 9715  44.337  23.547  13.505
50279W        W 9716  24.141  14.823   5.157
50280W        W 9717  29.624  33.066   2.283
50281W        W 9718   1.344  11.304  10.499
50282W        W 9719  41.938   6.409   1.308
50283W        W 9720  13.335  21.069   1.732
50284W        W 9721  26.059  35.922   2.872
50285W        W 9722  12.791  41.892   2.835
50286W        W 9723   4.787  22.545   2.854
50287W        W 9724  39.062  34.976   0.384
50288W        W 9725  16.174  10.172  10.432
50289W        W 9726  20.698  15.285   2.783
50290W        W 9727  24.012  24.651  13.473
50291W        W 9728   3.443  19.043   1.367
50292W        W 9729  44.862  39.823   1.929
50293W        W 9730  33.956  27.672   0.945
50294W        W 9731  23.674   9.686   2.865
50295W        W 9732  26.953  31.009  12.449
50296W        W 9733   0.296  27.154   0.856
50297W        W 9734  30.013   9.795  13.055
50298W        W 9735  30.559  21.684  10.445
50299W        W 9736  26.634   6.867  10.899
50300W        W 9737  10.744  33.109  12.824
50301W        W 9738   7.797  19.074  10.989
50302W        W 9739  18.619  14.779   4.152
50303W        W 9740  10.751   1.740   1.726
50304W        W 9741   4.801  15.170   2.898
50305W        W 9742  44.500   5.764  12.884
50306W        W 9743   9.261   6.209  11.858
50307W        W 9744  35.546  23.709   4.611
50308W        W 9745  12.710  36.532   0.303
50309W        W 9746   1.739  44.786   4.705
50310W        W 9747  26.013  32.938   3.346
50311W        W 9748  25.676  40.479  10.956
50312W        W 9749  43.020  14.814  11.934
50313W        W 9750  19.050   6.412  12.460
50314W        W 9751   4.750  13.793   1.933
50315W        W 9752  15.662  32.950   0.893
50316W        W 9753  13.621  38.366  14.489
50317W        W 9754  26.610  30.913  11.908
50318W        W 9755  36.458  15.259  13.489
50319W        W 9756  32.976  25.981  12.479
50320W        W 9757  28.575  17.782   0.373
50321W        W 9758  35.486  11.662   4.736
50322W        W 9759  29.553  20.657   1.398
50323W        W 9760  36.377   2.256   0.396
50324W        W 9761  11.341  32.625  11.966
50325W        W 9762  36.911  17.171   1.236
50326W        W 9763   3.942  42.359   1.887
50327W        W 9764  31.636   6.353   3.301
50328W        W 9765  24.982   7.751   4.652
50329W        W 9766  24.191  12.325   0.354
50330W        W 9767   6.282  34.387  12.510
50331W        W 9768  32.632  20.208  11.453
50332W        W 9769  44.326  27.019  10.450
50333W        W 9770  34.393   5.727  12.012
50334W        W 9771   3.343  19.768   0.293
50335W        W 9772   9.232   7.788  12.951
50336W        W 9773  32.572   5.219  12.087
50337W        W 9774  16.120  17.190  13.810
50338W        W 9775  15.759  11.131   4.174
50339W        W 9776  38.473  43.487  11.929
50340W        W 9777  38.555  16.778   4.683
50341W        W 9778  19.188  40.983   0.878
50342W        W 9779  30.504   7.390  13.431
50343W        W 9780  22.162   3.771   1.764
50344W        W 9781  28.466  27.504   0.393
50345W        W 9782  22.683  31.460   1.330
50346W        W 9783  37.397   4.868  14.320
50347W        W 9784  42.511  13.816  11.385
50348W        W 9785  11.812   1.424   4.684
50349W        W 9786  14.307  30.964   0.258
50350W        W 9787  30.126   4.306  12.403
50351W        W 9788  40.321  13.117   1.364
50352W        W 9789  17.665  23.015  14.373
50353W        W 9790  20.231  36.956   3.160
50354W        W 9791   9.363   0.326   4.819
50355W        W 9792  35.876  21.713   1.866
50356W        W 9793  23.497   2.845  13.411
50357W        W 9794  31.070   2.388  12.559
50358W        W 9795   1.791  21.621   1.709
50359W        W 9796  38.031  38.471  10.118
50360W        W 9797  39.555  10.150   0.418
50361W        W 9798  43.285  38.951   0.958
50362W        W 9799  33.031   9.249  14.818
50363W        W 9800  44.287  12.331   3.710
50364W        W 9801  36.375  12.155   0.380
50365W        W 9802  28.445  43.873  10.474
50366W        W 9803  36.084   2.411  10.586
50367W        W 9804  43.790  41.842   0.465
50368W        W 9805  12.694  38.365  14.291
50369W        W 9806   2.256  37.850  10.540
50370W        W 9807  41.996  15.158   1.930
50371W        W 9808  29.990   0.423   3.708
50372W        W 9809  30.057  12.273   0.440
50373W        W 9810   1.259  33.429   3.248
50374W        W 9811  15.134  19.546  10.625
50375W        W 9812   7.732  15.223  13.874
50376W        W 9813  37.865  33.116  11.378
50377W        W 9814  32.415  28.110  11.880
50378W        W 9815  39.439  38.899   2.666
50379W        W 9816  30.481  16.229  12.947
50380W        W 9817   5.420  43.488  12.558
50381W        W 9818  43.813  20.030  14.343
50382W        W 9819  41.457   1.466   4.830
50383W        W 9820  14.329  43.430  11.447
50384W        W 9821  28.651  14.140  11.872
50385W        W 9822  28.484  42.465   4.117
50386W        W 9823  14.609   0.466   1.854
50387W        W 9824  11.334  27.619   0.322
50388W        W 9825  14.820  14.686  12.511
50389W        W 9826  34.931  20.220  12.976
50390W        W 9827  43.013  10.305   3.153
50391W        W 9828  14.325   9.339   0.291
50392W        W 9829   5.772  30.966  13.887
50393W        W 9830   6.236   0.804   1.926
50394W        W 9831  15.207  29.049   2.803
50395W        W 9832  43.294  41.811   3.870
50396W        W 9833  30.467   0.987  10.479
50397W        W 9834   1.391  39.846   2.184
50398W        W 9835  37.900  17.620   3.784
50399W        W 9836  43.895   7.686  14.372
50400W        W 9837   3.295  13.347  14.400
50401W        W 9838  26.665   4.329  11.382
50402W        W 9839  31.097  11.643  14.017
50403W        W 9840   1.437  37.882  13.859
50404W        W 9841  10.775  32.137  13.963
50405W        W 9842  27.566  30.563  14.456
50406W        W 9843  14.792  14.272  10.545
50407W        W 9844  30.427   9.838   0.793
50408W        W 9845  23.229   0.860   1.731
50409W        W 9846  39.392  38.451   4.683
50410W        W 9847  25.568   4.816   4.328
50411W        W 9848  34.429   9.668   4.794
50412W        W 9849  26.977  24.631   5.159
50413W        W 9850   8.899  27.079   2.663
50414W        W 9851  33.392  35.393   1.225
50415W        W 9852  34.928  33.393   5.149
50416W        W 9853  36.038  11.720   2.726
50417W        W 9854  26.075  24.708   9.546
50418W        W 9855  33.497  16.129   4.225
50419W        W 9856  27.526  41.952  11.596
50420W        W 9857  33.455  23.994  12.070
50421W        W 9858  34.532  24.019   0.403
50422W        W 9859  42.522  21.610   2.732
50423W        W 9860  36.399  30.428  12.870
50424W        W 9861  38.562  36.061  13.441
50425W        W 9862  42.028  27.585  13.821
50426W        W 9863  24.679  11.189   2.864
50427W        W 9864   0.439  36.485  13.376
50428W        W 9865  23.201  19.575  14.881
50429W        W 9866   6.760   1.401   2.396
50430W        W 9867   5.283  10.642  14.331
50431W        W 9868  43.291  40.876  14.944
50432W        W 9869  36.972   6.419   0.375
50433W        W 9870  41.318  41.899   2.186
50434W        W 9871  23.728  31.081  10.938
50435W        W 9872  17.629   3.316  13.936
50436W        W 9873  18.172   1.449  11.906
50437W        W 9874  34.561   3.367  11.506
50438W        W 9875   6.847  21.660   3.231
50439W        W 9876  25.523  26.702  11.128
50440W        W 9877  10.721  27.004  12.368
50441W        W 9878  19.200  23.173  12.902
50442W        W 9879  16.112  18.162  11.905
50443W        W 9880  35.976  19.184   1.809
50444W        W 9881  28.050  36.449   0.823
50445W        W 9882  24.186   6.747  13.995
50446W        W 9883   4.370  36.019  11.115
50447W        W 9884  13.614  35.534  13.993
50448W        W 9885  15.742  16.121  14.381
50449W        W 9886  33.968  22.137  11.517
50450W        W 9887   1.349  25.166  13.868
50451W        W 9888  20.249  19.579  11.579
50452W        W 9889  20.146  11.370  14.298
50453W        W 9890  15.623   7.278   4.601
50454W        W 9891  20.048  38.975  13.864
50455W        W 9892   9.667   5.777  11.561
50456W        W 9893  22.219  37.433  12.039
50457W        W 9894  21.154  29.533   1.286
50458W        W 9895  32.116  42.307  12.854
50459W        W 9896  41.802  42.847   4.651
50460W        W 9897   8.699   6.797   3.299
50461W        W 9898  29.476  37.394  10.644
50462W        W 9899  25.658   7.804  12.967
50463W        W 9900  16.628   3.716   0.297
50464W        W 9901   0.261  41.005  12.830
50465W        W 9902  40.431  33.600   4.153
50466W        W 9903   8.710  21.066  12.550
50467W        W 9904  39.876   2.402   4.647
50468W        W 9905  33.527  37.035  12.878
50469W        W 9906  38.066  40.524   2.317
50470W        W 9907  16.682   7.378   4.675
50471W        W 9908   2.961  37.567   3.306
50472W        W 9909  26.558   2.355  10.470
50473W        W 9910  44.387  42.777   2.801
50474W        W 9911  40.891   9.753  10.640
50475W        W 9912  24.098  17.723   4.255
50476W        W 9913  23.656  39.364  11.924
50477W        W 9914  24.202  42.009  12.482
50478W        W 9915  25.583  12.190   1.297
50479W        W 9916  33.894  36.865   4.186
50480W        W 9917  43.303  20.180  11.514
50481W        W 9918   7.739  22.665   4.225
50482W        W 9919  32.993  19.769  10.592
50483W        W 9920  30.513   0.874   4.126
50484W        W 9921  40.418  23.719   4.822
50485W        W 9922  19.586  25.108   4.721
50486W        W 9923  42.392   6.395   3.262
50487W        W 9924   8.175  14.113  12.451
50488W        W 9925  34.405   6.296   3.760
50489W        W 9926  28.175  13.327   1.887
50490W        W 9927  21.644  16.295   4.629
50491W        W 9928   1.271   6.182   2.387
50492W        W 9929  25.191  44.976  14.899
50493W        W 9930   5.909  15.246   4.680
50494W        W 9931   1.395  39.003  12.572
50495W        W 9932  30.135   9.238   1.284
50496W        W 9933  22.147   9.329   0.453
50497W        W 9934  40.356   0.981   0.764
50498W        W 9935   5.894  32.062   3.734
50499W        W 9936  34.372  32.408  12.493
50500W        W 9937  39.318   8.261   4.231
50501W        W 9938  27.669  31.986  12.448
50502W        W 9939  19.074  32.954  10.468
50503W        W 9940  27.622  14.826   1.386
50504W        W 9941  24.623   6.860  12.076
50505W        W 9942  26.172   7.744  12.340
50506W        W 9943  37.364   0.472  14.382
50507W        W 9944   6.207  37.466  10.021
50508W        W 9945  12.361  31.143   2.344
50509W        W 9946  25.110  12.163  13.864
50510W        W 9947  19.545  28.680  12.456
50511W        W 9948  40.369   9.681  13.989
50512W        W 9949  13.680  32.936  14.805
50513W        W 9950  23.734  29.582  12.927
50514W        W 9951   1.314  10.687   2.306
50515W        W 9952   3.722  43.286   2.779
50516W        W 9953  25.061  38.431   0.862
50517W        W 9954  29.558  21.708   4.624
50518W        W 9955  12.682  10.727  11.555
50519W        W 9956  41.455  32.426  12.069
50520W        W 9957  38.364  17.753   2.368
50521W        W 9958  16.655   6.361   4.229
50522W        W 9959  24.105  11.171   0.444
50523W        W 9960  28.640  22.662  14.479
50524W        W 9961  19.703  28.018  12.991
50525W        W 9962  10.759   6.876   3.260
50526W        W 9963  37.924  14.710  10.960
50527W        W 9964  22.126  36.053  11.955
50528W        W 9965  40.452   1.884  14.859
50529W        W 9966  33.070  41.948   0.352
50530W        W 9967  15.640  27.497  14.504
50531W        W 9968  43.285  10.722   3.322
50532W        W 9969  40.799  11.757  14.414
50533W        W 9970  42.854   5.310   3.729
50534W        W 9971  23.149  19.661   0.242
50535W        W 9972  44.304   8.787  10.522
50536W        W 9973  38.000  38.515   1.346
50537W        W 9974  17.674  35.068  11.033
50538W        W 9975  21.539   3.430  13.457
50539W        W 9976   7.260  28.985  13.547
50540W        W 9977  30.931  44.481   9.942
50541W        W 9978   3.737  19.590  11.938
50542W        W 9979  31.049   1.913   0.342
50543W        W 9980  30.483  30.933  10.425
50544W        W 9981  41.993  23.729   2.392
50545W        W 9982  23.177   8.199  12.445
50546W        W 9983  23.133  26.955   3.159
50547W        W 9984  30.091   0.427  13.870
50548W        W 9985   7.770  15.103   1.408
50549W        W 9986  28.057   7.225   3.154
50550W        W 9987   5.798  11.647  12.406
50551W        W 9988   1.292  16.250  13.027
50552W        W 9989  22.643  39.040   1.837
50553W        W 9990  20.163  44.922  12.435
50554W        W 9991  29.476   1.897  10.548
50555W        W 9992  37.370  33.996  11.023
50556W        W 9993  30.113  31.582  12.838
50557W        W 9994  18.648  41.998   2.207
50558W        W 9995  26.488  29.604  12.347
50559W        W 9996  22.631  29.078   3.653
50560W        W 9997  23.056  12.808  12.366
50561W        W 9998  25.064   2.298   3.183
50562W        W 9999  41.298  32.066   3.713
50563W        W10000   6.355  31.419  11.481
50564W        W10001  42.033   4.315   4.131
50565W        W10002  29.643  21.675   1.899
50566W        W10003  37.062  19.609   2.722
50567W        W10004  15.635  34.092  11.566
50568W        W10005  12.247  36.897   2.795
50569W        W10006  29.102  22.250   4.759
50570W        W10007   7.780  33.515  10.888
50571W        W10008  16.168  22.522   1.256
50572W        W10009   2.772  33.387   0.743
50573W        W10010  10.170  41.808   1.738
50574W        W10011  30.553  17.165   1.801
50575W        W10012  44.907  27.170   3.674
50576W        W10013  44.890  17.119   4.349
50577W        W10014  23.140  18.702  13.877
50578W        W10015  36.051   0.807   2.353
50579W        W10016  31.003  29.670  11.893
50580W        W10017  29.099  17.652   0.309
50581W        W10018  33.057   8.876  13.436
50582W        W10019  20.703  27.147  14.877
50583W        W10020  38.931  22.179   3.788
50584W        W10021  30.524  40.937  13.405
50585W        W10022   0.797  26.116  11.022
50586W        W10023  28.506  40.500  11.398
50587W        W10024  32.006  14.326   4.734
50588W        W10025   6.763  43.925  11.433
50589W        W10026  31.103  22.087   2.726
50590W        W10027  28.044  38.055   3.321
50591W        W10028   3.424  33.038  12.550
50592W        W10029   9.163  39.318  12.030
50593W        W10030  32.514  13.175   4.728
50594W        W10031  20.743  22.739   0.471
50595W        W10032  11.368  13.245  11.903
50596W        W10033  18.193   1.294   4.253
50597W        W10034   8.283  34.550  14.436
50598W        W10035  34.997  22.593   3.668
50599W        W10036  12.635   8.745   4.299
50600W        W10037   6.686  26.026   1.358
50601W        W10038  17.248  16.286  14.509
50602W        W10039   9.802  37.428   2.871
50603W        W10040  27.022  18.271   2.833
50604W        W10041  31.433  24.575   4.806
50605W        W10042   8.260  24.486   2.802
50606W        W10043  39.921  35.051   2.734
50607W        W10044  34.004  24.116   3.210
50608W        W10045  39.911  15.171   2.866
50609W        W10046   3.798  20.273  10.426
50610W        W10047  41.463  42.499   3.719
50611W        W10048  42.329  33.076  14.782
50612W        W10049  35.910  30.609   2.291
50613W        W10050  39.824  40.328   1.864
50614W        W10051  42.804  34.048  11.421
50615W        W10052  13.763  42.946   1.404
50616W        W10053  16.255  13.673   1.807
50617W        W10054  26.089   2.266   1.305
50618W        W10055  12.632  25.146   2.748
50619W        W10056  37.359  30.545  11.072
50620W        W10057  15.202  13.132   2.867
50621W        W10058  10.635  19.555   0.362
50622W        W10059  34.521  13.328  13.974
50623W        W10060  32.054  24.993   1.426
50624W        W10061  12.168   7.861  12.063
50625W        W10062  28.677   2.742   4.638
50626W        W10063  32.947  39.933  14.448
50627W        W10064   9.685  25.064  14.813
50628W        W10065  18.274  27.107   0.422
50629W        W10066   9.715  24.519  14.946
50630W        W10067  43.839  25.628   1.234
50631W        W10068  37.958  11.707   1.873
50632W        W10069  27.110  27.509  12.030
50633W        W10070  15.591  36.448   4.795
50634W        W10071  37.835  36.554   3.728
50635W        W10072  38.386  27.625   2.902
50636W        W10073   2.881   1.345   1.350
50637W        W10074  17.721  13.258  13.328
50638W        W10075   8.403   5.357  13.520
50639W        W10076  27.102  14.805  12.357
50640W        W10077  44.788  37.071   3.363
50641W        W10078  15.192   1.851  11.574
50642W        W10079  35.066  43.408   4.777
50643W        W10080   8.211   7.884   2.717
50644W        W10081   5.688  19.233   0.771
50645W        W10082  15.237   4.735  13.847
50646W        W10083   7.395   4.785  12.565
50647W        W10084  18.630  13.178  10.931
50648W        W10085  19.631  23.730  10.901
50649W        W10086  30.639  17.263  13.029
50650W        W10087   9.811   2.364  14.020
50651W        W10088  22.660  27.151   4.260
50652W        W10089  33.429   1.435   3.780
50653W        W10090  26.501  16.094  13.389
50654W        W10091  44.375  30.959   2.263
50655W        W10092   1.951  24.109   4.150
50656W        W10093  23.723  42.001  12.387
50657W        W10094  37.838  39.839   2.280
50658W        W10095   7.789  16.312   0.822
50659W        W10096   3.733  31.950   0.827
50660W        W10097  15.241  27.606   2.877
50661W        W10098   7.745  18.654   9.940
50662W        W10099  35.990  44.921   0.820
50663W        W10100  24.517   7.688   3.743
50664W        W10101  19.054  41.398  11.482
50665W        W10102  38.892   6.212   4.826
50666W        W10103   3.306  37.459   1.450
50667W        W10104  15.799  10.814   2.821
50668W        W10105  28.535  35.374  11.063
50669W        W10106  21.658   5.201   1.275
50670W        W10107  29.121   8.190   3.201
50671W        W10108  18.295   7.850  13.985
50672W        W10109  26.057  15.659  12.444
50673W        W10110   6.834   9.189   4.198
50674W        W10111  43.981  25.523   2.768
50675W        W10112  32.037   1.385   3.711
50676W        W10113  23.126  38.920   5.206
50677W        W10114  32.394  28.574  11.056
50678W        W10115  21.663  27.013   3.796
50679W        W10116  13.131  31.064   3.791
50680W        W10117  22.683  24.998   0.896
50681W        W10118   4.888  25.179   2.748
50682W        W10119  44.899  34.081  11.887
50683W        W10120  39.821  29.491   4.131
50684W        W10121  33.388   2.361  11.561
50685W        W10122  37.917  33.607  10.509
50686W        W10123  14.232  29.550  14.963
50687W        W10124  31.413  40.851  11.079
50688W        W10125  44.996  37.997  12.831
50689W        W10126  23.736  15.115   4.248
50690W        W10127  41.377  26.489   1.329
50691W        W10128  12.719  44.390   2.244
50692W        W10129   9.284  13.775   4.125
50693W        W10130  24.230  31.898   0.245
50694W        W10131  12.309  10.227  10.894
50695W        W10132  40.536   4.885  10.617
50696W        W10133  11.827  33.460  13.905
50697W        W10134  19.088  40.919  14.807
50698W        W10135  43.988  19.083  10.998
50699W        W10136   9.223  19.268   1.316
50700W        W10137  35.456  40.404   4.788
50701W        W10138   7.388  11.679   4.295
50702W        W10139  43.992  40.024   5.788
50703W        W10140  14.805   2.776   1.901
50704W        W10141  40.317   2.379  12.866
50705W        W10142   8.326  35.481   3.687
50706W        W10143   9.746  18.735  14.515
50707W        W10144  20.699  40.498   2.824
50708W        W10145  28.593  32.036   2.758
50709W        W10146   3.753   1.848  11.942
50710W        W10147   3.456   2.304   0.334
50711W        W10148  23.599  42.516  14.956
50712W        W10149  11.344  40.471  10.636
50713W        W10150  18.643  22.178   2.332
50714W        W10151  13.787   8.671  13.377
50715W        W10152  43.502  27.120  13.460
50716W        W10153  10.181  17.175  13.444
50717W        W10154  22.596  21.156  13.313
50718W        W10155   2.366  42.349   4.769
50719W        W10156  26.992  21.536   0.823
50720W        W10157  32.968   6.203  14.421
50721W        W10158  10.841  14.172   0.398
50722W        W10159  16.593  37.973   3.163
50723W        W10160  29.101  14.187   2.894
50724W        W10161  14.160  20.739   1.759
50725W        W10162  38.990   2.933  14.413
50726W        W10163  22.594  38.045   4.291
50727W        W10164  40.400  43.000  11.960
50728W        W10165  18.560   5.878   3.294
50729W        W10166  37.978  39.348   2.226
50730W        W10167  15.243  12.781  11.597
50731W        W10168  36.383  11.718  12.877
50732W        W10169   8.889   5.851   2.891
50733W        W10170  39.382  20.532   2.728
50734W        W10171   1.872  28.117   1.224
50735W        W10172  18.579  44.861  11.870
50736W        W10173   3.837  18.675   4.125
50737W        W10174  28.593  17.122  13.799
50738W        W10175  13.186  14.280   0.306
50739W        W10176  20.029  14.629  12.350
50740W        W10177  21.739  28.672   3.784
50741W        W10178  11.265  30.033  13.484
50742W        W10179  29.014   4.918   3.722
50743W        W10180  32.986   3.438   3.151
50744W        W10181   4.276  15.663  13.403
50745W        W10182  17.739  21.595   4.710
50746W        W10183  39.877  22.516  14.778
50747W        W10184  43.003   2.942   1.745
50748W        W10185   0.248  35.465  12.874
50749W        W10186  21.747   3.456  14.901
50750W        W10187  28.092  34.096   0.821
50751W        W10188  41.410  15.653  13.914
50752W        W10189   8.361  28.017  13.991
50753W        W10190  12.766  33.970   1.848
50754W        W10191  11.326  44.475  10.047
50755W        W10192  24.710  29.454   1.399
50756W        W10193  13.669  15.639   2.399
50757W        W10194  27.984  10.291  11.002
50758W        W10195   9.887  35.971   0.322
50759W        W10196  44.842   8.876  14.961
50760W        W10197  20.538  40.430   2.234
50761W        W10198  21.102  12.783   2.242
50762W        W10199  14.236  19.236   2.409
50763W        W10200  38.881  42.502  13.439
50764W        W10201   9.166  25.988  12.992
50765W        W10202  39.442  19.568   4.688
50766W        W10203  14.247  23.682   3.262
50767W        W10204  42.904  18.636   3.384
50768W        W10205   3.262  22.019  13.517
50769W        W10206   7.715  39.852  14.416
50770W        W10207  37.849  39.944   4.694
50771W        W10208  23.047   1.271  10.906
50772W        W10209  30.458  11.630  14.810
50773W        W10210  32.903   7.901  14.305
50774W        W10211  15.595   2.734  12.393
50775W        W10212  41.939  11.774   3.638
50776W        W10213  38.484  44.470  13.970
50777W        W10214  11.322   5.868  12.881
50778W        W10215  23.708  40.809  11.451
50779W        W10216  25.567  16.112  13.054
50780W        W10217  36.368   8.269  10.422
50781W        W10218   0.337  35.508   2.831
50782W        W10219  41.993  10.219   1.750
50783W        W10220   8.805  13.226  12.350
50784W        W10221   4.394  40.966   3.224
50785W        W10222  35.869  24.515   1.901
50786W        W10223  37.573  44.374   5.292
50787W        W10224  30.069  35.370  13.024
50788W        W10225  23.637  42.403   0.483
50789W        W10226  36.959  26.959  12.063
50790W        W10227  21.607  14.216  11.971
50791W        W10228  36.554  44.291  12.994
50792W        W10229   5.347  30.436   5.770
50793W        W10230  14.765  17.294  11.551
50794W        W10231  21.165  10.313   1.694
50795W        W10232  25.008  20.270   0.862
50796W        W10233  31.984  16.763   0.357
50797W        W10234   3.878   7.826  11.433
50798W        W10235   5.287   8.680   5.098
50799W        W10236  21.180  28.465   3.215
50800W        W10237  41.959   1.290  14.400
50801W        W10238   5.889  44.463  13.483
50802W        W10239   4.283   1.801  12.007
50803W        W10240   7.714  44.995  11.526
50804W        W10241  39.825  17.164   4.179
50805W        W10242  35.487   0.764   2.382
50806W        W10243  35.578  18.767   1.439
50807W        W10244  41.007  16.794   0.400
50808W        W10245  16.751  44.401  12.834
50809W        W10246  34.423  21.615  13.903
50810W        W10247   8.747  44.500  12.562
50811W        W10248  44.390  13.160  14.905
50812W        W10249  43.972  40.355   0.901
50813W        W10250   3.425  16.603   0.353
50814W        W10251  35.990  30.652  13.912
50815W        W10252  43.853   8.275  12.844
50816W        W10253  37.850  39.401   0.422
50817W        W10254  30.958  21.202   5.682
50818W        W10255  17.259  30.436   2.865
50819W        W10256   2.942  28.026  14.864
50820W        W10257  13.165  18.689   1.754
50821W        W10258  29.512  33.518   2.295
50822W        W10259  24.192  39.488   4.653
50823W        W10260   8.285  12.816  12.527
50824W        W10261  22.117   7.193  11.023
50825W        W10262  17.605   0.837   2.348
50826W        W10263   1.895   5.394  13.312
50827W        W10264  28.464  33.911  13.026
50828W        W10265  10.161  44.490  10.023
50829W        W10266  12.692  25.663  11.602
50830W        W10267  15.734  26.992   1.343
50831W        W10268   1.395   2.872   0.401
50832W        W10269  18.617  20.203  13.886
50833W        W10270  17.178   7.289  14.912
50834W        W10271  19.085  10.159  13.319
50835W        W10272  36.876   5.410   0.397
50836W        W10273  36.881   2.372   0.336
50837W        W10274  24.548  39.330  13.473
50838W        W10275   7.690  22.217  10.421
50839W        W10276   2.852   2.353   3.319
50840W        W10277   0.353  43.010  10.404
50841W        W10278  12.256  34.400   1.924
50842W        W10279   2.946  43.970   0.245
50843W        W10280  27.953  41.933   1.879
50844W        W10281  32.896  11.798   0.923
50845W        W10282  39.931  39.946  12.924
50846W        W10283  16.175  40.937   0.775
50847W        W10284  40.511   3.790   0.757
50848W        W10285  21.567  38.014   3.378
50849W        W10286  16.628  21.550  12.965
50850W        W10287   5.306   7.270  13.320
50851W        W10288  29.439  16.073  14.967
50852W        W10289  33.029   6.334   1.258
50853W        W10290  33.919  32.594  13.403
50854W        W10291  38.489  20.758   2.899
50855W        W10292  28.085   1.483  14.453
50856W        W10293  42.802  42.347  11.561
50857W        W10294  10.367  19.779   2.846
50858W        W10295  28.603  22.064   3.353
50859W        W10296  36.458  26.169  10.642
50860W        W10297  40.404  20.560   2.386
50861W        W10298   6.821  23.059  13.943
50862W        W10299  17.644   5.323  13.430
50863W        W10300  21.119  20.076   3.827
50864W        W10301  27.998  16.619   4.141
50865W        W10302   6.800  31.647   0.921
50866W        W10303  12.130   6.882   1.278
50867W        W10304  36.576  13.671  10.543
50868W        W10305  27.676   8.742   9.996
50869W        W10306  28.147  35.588   3.770
50870W        W10307  30.011  19.632  12.055
50871W        W10308   2.330  35.433   9.541
50872W        W10309  40.390  27.044  12.548
50873W        W10310  10.718   1.818  11.120
50874W        W10311  28.139  40.384  14.493
50875W        W10312   4.209   4.209  13.424
50876W        W10313  22.128  40.340  14.513
50877W        W10314  20.253  43.277  11.068
50878W        W10315   0.405  11.334  14.459
50879W        W10316   4.802   9.378   2.852
50880W        W10317   2.320  27.998   1.236
50881W        W10318  20.117   2.810   0.934
50882W        W10319   2.844  42.890   3.194
50883W        W10320   5.248  10.666   4.818
50884W        W10321  20.741   3.929   4.632
50885W        W10322  34.054   9.203  14.824
50886W        W10323   8.766  39.553   3.150
50887W        W10324  29.942  12.358  11.044
50888W        W10325  40.446  21.599   0.281
50889W        W10326  44.933  40.900   3.735
50890W        W10327  38.833  11.770   0.822
50891W        W10328  10.347  41.818   2.329
50892W        W10329  35.560   3.879   4.830
50893W        W10330  19.717  32.443   1.704
50894W        W10331  34.428   6.909  13.924
50895W        W10332  35.074   4.281  14.973
50896W        W10333  19.650  41.956   1.334
50897W        W10334  10.780   0.491  13.992
50898W        W10335  28.543  14.275   1.858
50899W        W10336   3.425  32.911  10.565
50900W        W10337  35.971  21.083   0.377
50901W        W10338  33.875  11.721  12.825
50902W        W10339   0.923  12.838  13.360
50903W        W10340  43.482   3.727   4.729
50904W        W10341  31.021  17.762  13.325
50905W        W10342   8.886  32.925  13.002
50906W        W10343  25.115  43.304   5.244
50907W        W10344   1.935  22.681  14.851
50908W        W10345  28.533  24.541   0.397
50909W        W10346  37.991  34.520   2.302
50910W        W10347   0.417  11.712   0.827
50911W        W10348  20.658   6.794   2.781
50912W        W10349  11.833  22.518  10.498
50913W        W10350  33.585  22.545   9.603
50914W        W10351  15.582  21.636  11.023
50915W        W10352   2.799  10.364   4.773
50916W        W10353  14.608   8.764  12.988
50917W        W10354   2.962  28.598   2.871
50918W        W10355   4.791  17.266  11.086
50919W        W10356  37.834  40.993  10.551
50920W        W10357  24.722  34.914  13.355
50921W        W10358  38.034  22.132  10.977
50922W        W10359   2.295  25.472  12.348
50923W        W10360  14.759  34.600  14.436
50924W        W10361  32.625  39.000   0.759
50925W        W10362  26.026   6.812   3.327
50926W        W10363  27.036   1.431  13.935
50927W        W10364   0.355  31.524  10.455
50928W        W10365   6.814   9.651   4.729
50929W        W10366  44.920  11.138   3.806
50930W        W10367  34.373  20.573   0.788
50931W        W10368   9.681  22.651  11.385
50932W        W10369  22.021  14.171   3.776
50933W        W10370  17.167  24.143  14.830
50934W        W10371  31.087  40.337   2.774
50935W        W10372  20.205  34.875  11.991
50936W        W10373  27.653   5.736   0.737
50937W        W10374  32.908   9.717   4.143
50938W        W10375  12.204  37.347  14.007
50939W        W10376  44.367  19.743  10.542
50940W        W10377   7.397  22.060  11.433
50941W        W10378   7.673  38.359  11.966
50942W        W10379   8.366  30.591  14.490
50943W        W10380  22.083   6.379  14.421
50944W        W10381  18.684   3.379   3.342
50945W        W10382  21.531  32.419  14.384
50946W        W10383  34.014  11.741   9.999
50947W        W10384   9.886  19.659  10.991
50948W        W10385  37.349  36.454   1.882
50949W        W10386  30.441  32.446  10.424
50950W        W10387  24.571  23.620  14.810
50951W        W10388  30.648  25.099  10.051
50952W        W10389  17.163  42.385   3.815
50953W        W10390  15.228  24.071   4.720
50954W        W10391  22.666   8.672  12.383
50955W        W10392  31.510   6.781  10.416
50956W        W10393  32.904  34.474  14.338
50957W        W10394  20.567  40.879  14.495
50958W        W10395  14.122   8.234   0.849
50959W        W10396  15.239  31.577   2.234
50960W        W10397  11.695  14.647  12.045
50961W        W10398   9.349  41.407   1.314
50962W        W10399   0.278  43.354   0.429
50963W        W10400  39.826  19.715  13.440
50964W        W10401  29.011  17.301   3.359
50965W        W10402  26.635   8.236  12.963
50966W        W10403  28.576  34.536   1.317
50967W        W10404  35.538  28.642  14.822
50968W        W10405   4.215  20.252   0.323
50969W        W10406  44.376  26.530  10.515
50970W        W10407  32.440  35.007  13.834
50971W        W10408  27.470  13.313   3.352
50972W        W10409  31.051  24.057   2.381
50973W        W10410  16.238   0.924  12.553
50974W        W10411  39.855  13.797  11.964
50975W        W10412   3.264  23.635   2.406
50976W        W10413  21.193  44.907  11.952
50977W        W10414   7.778  43.504   2.780
50978W        W10415  10.303   8.367   0.369
50979W        W10416   4.887  33.606  11.856
50980W        W10417  23.094  22.045   1.825
50981W        W10418  36.466  30.586  12.508
50982W        W10419  33.612  24.026  10.080
50983W        W10420  22.700  43.442   9.987
50984W        W10421  37.876  25.075  13.914
50985W        W10422  29.504  12.242  13.373
50986W        W10423   1.784   1.816   2.344
50987W        W10424   9.249  33.573  12.520
50988W        W10425  27.485  22.195  13.815
50989W        W10426  12.213   6.716   1.809
50990W        W10427   3.811   4.240   3.722
50991W        W10428  20.623  11.712  12.517
50992W        W10429  26.176  14.721  10.552
50993W        W10430   3.388  37.847   5.297
50994W        W10431  35.603  11.216   1.278
50995W        W10432  41.789  30.978  11.553
50996W        W10433  37.849   3.760   2.731
50997W        W10434  27.126  25.656   4.155
50998W        W10435  42.876  35.076   4.250
50999W        W10436  33.449  14.142  11.906
51000W        W10437  31.115  14.615   2.340
51001W        W10438  17.775  11.822   1.715
51002W        W10439  37.380  31.153  12.884
51003W        W10440  43.449  22.534   3.219
51004W        W10441  40.538   1.429  13.953
51005W        W10442  14.340  31.631   2.861
51006W        W10443  32.597  12.671   4.198
51007W        W10444  33.962   9.189   4.727
51008W        W10445  36.088  26.068   0.330
51009W        W10446   9.860   4.778  13.528
51010W        W10447  37.399  36.553   2.714
51011W        W10448  15.220  43.419   3.158
51012W        W10449  33.557  28.565  12.067
51013W        W10450  27.081  36.885  10.997
51014W        W10451   5.243  24.513   3.741
51015W        W10452  43.467  13.262   2.323
51016W        W10453  18.231   7.328  13.321
51017W        W10454  44.859  30.157   0.946
51018W        W10455  26.688   3.724   1.713
51019W        W10456  14.215  37.517  14.476
51020W        W10457   6.208  14.229  14.499
51021W        W10458  20.645  23.570   2.388
51022W        W10459  17.240  30.631  12.935
51023W        W10460  43.490  36.548   0.404
51024W        W10461   3.710   3.940  12.862
51025W        W10462  32.117  37.033  13.820
51026W        W10463  17.706  44.809   1.842
51027W        W10464  13.298  13.322  11.537
51028W        W10465  14.651  23.503  12.998
51029W        W10466  15.162   5.274   1.263
51030W        W10467  11.708  20.132  13.026
51031W        W10468  14.813  13.815   2.181
51032W        W10469  11.663  26.573  10.010
51033W        W10470  12.833  41.444   1.264
51034W        W10471   7.836  28.151  13.401
51035W        W10472   3.951   3.267  14.826
51036W        W10473  36.896  24.576  11.950
51037W        W10474   5.755  22.723  11.879
51038W        W10475   6.828  22.160   4.814
51039W        W10476  11.361  12.630   0.325
51040W        W10477  39.015  42.441  14.994
51041W        W10478   8.735  31.980   0.476
51042W        W10479  31.060  35.471   4.125
51043W        W10480  23.721   2.957   4.606
51044W        W10481  36.904  40.335   0.372
51045W        W10482   7.820  18.255   2.885
51046W        W10483   3.349  21.567   0.424
51047W        W10484  38.037   1.855   1.817
51048W        W10485  13.131  17.640  11.916
51049W        W10486  42.974  41.485   3.742
51050W        W10487  27.123  13.158   0.278
51051W        W10488  38.423  28.004   2.856
51052W        W10489  22.729  33.094  14.510
51053W        W10490  30.913  34.037  13.996
51054W        W10491  11.140  38.445   4.785
51055W        W10492  14.127  17.177   1.857
51056W        W10493  25.993  33.955  13.329
51057W        W10494  16.774  34.985  12.491
51058W        W10495  11.737   9.183  14.490
51059W        W10496  14.195  42.378  13.003
51060W        W10497  37.059  16.570   3.155
51061W        W10498  30.627  32.049  12.994
51062W        W10499  19.602  26.565   0.269
51063W        W10500  13.227  23.224  14.489
51064W        W10501  33.521   5.365  10.135
51065W        W10502  38.528  40.326   2.682
51066W        W10503   2.248  42.973  14.339
51067W        W10504  42.885   2.801   0.737
51068W        W10505  34.081   0.450  14.286
51069W        W10506  15.211  20.207   0.861
51070W        W10507  17.565  23.026  12.514
51071W        W10508   2.772  15.127  14.983
51072W        W10509  25.066  32.906  11.013
51073W        W10510   1.328  40.518  11.954
51074W        W10511  33.934  25.574   1.835
51075W        W10512   2.437  32.027   3.656
51076W        W10513  13.137  32.602   1.802
51077W        W10514   2.751  26.006   2.717
51078W        W10515  22.732   9.740   4.691
51079W        W10516  16.779  27.089  10.972
51080W        W10517  39.994  23.059   1.279
51081W        W10518  19.255  44.889  10.443
51082W        W10519  28.144  29.566  12.041
51083W        W10520  39.480  18.787  14.858
51084W        W10521  39.550   3.844   1.255
51085W        W10522   0.333  20.114  11.401
51086W        W10523  11.844  17.274   2.356
51087W        W10524   5.416  23.544  14.275
51088W        W10525   0.953   1.482  12.435
51089W        W10526  18.714  15.790  14.502
51090W        W10527  44.331  30.984   4.126
51091W        W10528  22.553  25.994   4.736
51092W        W10529  21.236  23.647  10.572
51093W        W10530   0.285  22.198  12.830
51094W        W10531  13.843  33.994  12.575
51095W        W10532  42.297  26.972   2.752
51096W        W10533   1.909  31.574  11.006
51097W        W10534   2.724   7.386  13.981
51098W        W10535  27.148  25.612   2.870
51099W        W10536  13.310   4.324   2.890
51100W        W10537  15.299  21.034  13.480
51101W        W10538  12.130  38.914   4.253
51102W        W10539  17.720  21.100  13.375
51103W        W10540  34.544  32.607  11.402
51104W        W10541  42.353  33.990   0.824
51105W        W10542  28.937   1.874  12.547
51106W        W10543  16.723  17.699   9.992
51107W        W10544  12.677  36.010   0.743
51108W        W10545  18.688  24.671   2.782
51109W        W10546   1.917  42.859   3.821
51110W        W10547  26.143  11.854  12.985
51111W        W10548  25.082  27.064  14.479
51112W        W10549  21.207  17.154   1.696
51113W        W10550  24.172  34.105  10.890
51114W        W10551  15.237  29.530  13.488
51115W        W10552   5.222   1.973  11.097
51116W        W10553   1.897   9.335  13.379
51117W        W10554  10.798  22.196   1.731
51118W        W10555   0.842  16.253  14.335
51119W        W10556  25.981  44.368   0.921
51120W        W10557  10.770  17.172  12.949
51121W        W10558  37.921   9.650  14.348
51122W        W10559   2.469  19.631  13.973
51123W        W10560   5.821  44.833   2.304
51124W        W10561  44.335  37.991  12.068
51125W        W10562   2.256  41.979   0.883
51126W        W10563  12.655   7.861  13.985
51127W        W10564  10.717   4.890   3.366
51128W        W10565  37.512  33.963   2.235
51129W        W10566  15.722  20.584  13.470
51130W        W10567   9.702  25.088   4.814
51131W        W10568   8.404  19.660   2.361
51132W        W10569  26.173  32.409   4.319
51133W        W10570  40.363  20.135   3.841
51134W        W10571  11.671  44.841  11.604
51135W        W10572  11.715   2.822  13.009
51136W        W10573  15.256  43.814   1.819
51137W        W10574  32.954  26.058  12.060
51138W        W10575  19.689  31.047   5.267
51139W        W10576  29.146   0.786   4.189
51140W        W10577   3.767  19.151   1.364
51141W        W10578   9.349  17.586   1.291
51142W        W10579  40.365   2.261   1.230
51143W        W10580  15.105   4.324   0.871
51144W        W10581   8.739  44.774  10.901
51145W        W10582  24.095  37.463  10.970
51146W        W10583  36.561  23.082  14.285
51147W        W10584   3.279  27.498   2.747
51148W        W10585  13.109  16.707  13.834
51149W        W10586  10.280  22.170   1.814
51150W        W10587  27.478   5.237   2.870
51151W        W10588  23.130  41.858  13.399
51152W        W10589  32.054  37.998  14.364
51153W        W10590  12.686  16.198  12.460
51154W        W10591  21.254  31.022  14.398
51155W        W10592  12.290  31.513  12.051
51156W        W10593   3.371   1.834   2.675
51157W        W10594   2.873  15.109  12.968
51158W        W10595  21.744  22.658  14.877
51159W        W10596  44.007  28.154  13.059
51160W        W10597  44.879  41.321   2.398
51161W        W10598  15.304  26.994   1.276
51162W        W10599  25.589  42.350   2.899
51163W        W10600   9.175   3.317   2.329
51164W        W10601  37.864   3.893  13.482
51165W        W10602  43.938  44.911  13.005
51166W        W10603  32.125  27.088   3.179
51167W        W10604   2.446  16.567  12.518
51168W        W10605   8.360   6.793   3.766
51169W        W10606  23.124  18.150  13.461
51170W        W10607  16.220  37.450  10.504
51171W        W10608   2.393  39.945   3.650
51172W        W10609  26.686  38.877  13.424
51173W        W10610  30.458  21.022  13.885
51174W        W10611  17.170  27.011   3.272
51175W        W10612   7.246  38.355  14.460
51176W        W10613  19.236  32.060   4.122
51177W        W10614  38.464  17.619  13.530
51178W        W10615  15.292   0.916   1.823
51179W        W10616   8.867   5.296   1.931
51180W        W10617   7.722  34.968   1.841
51181W        W10618  12.639  25.606  13.857
51182W        W10619  19.089  19.681   4.834
51183W        W10620  27.100  28.536  11.397
51184W        W10621  14.791  44.432  11.956
51185W        W10622  38.511  42.314   0.778
51186W        W10623   7.416  16.714  12.414
51187W        W10624  35.020  39.965   0.247
51188W        W10625  42.473  14.248   2.262
51189W        W10626  31.414   8.288  12.959
51190W        W10627  44.347  16.660  11.986
51191W        W10628  42.898  40.405   4.269
51192W        W10629  18.678  35.394   0.275
51193W        W10630  35.375  17.162   0.269
51194W        W10631  29.591  27.634  14.851
51195W        W10632  16.112  31.088   1.331
51196W        W10633  19.675   6.359   2.202
51197W        W10634  12.234  38.343   0.442
51198W        W10635  23.074  23.643   3.299
51199W        W10636  20.598  18.554   2.263
51200W        W10637  21.085  14.143  11.437
51201W        W10638  14.158  13.799   3.165
51202W        W10639  20.099   8.171  14.760
51203W        W10640  40.320  24.522  14.855
51204W        W10641  36.943  18.625   2.705
51205W        W10642   7.185  38.370  13.007
51206W        W10643  28.001  24.169  14.966
51207W        W10644  13.137  18.594   4.780
51208W        W10645   2.783  13.621   3.318
51209W        W10646  22.609  18.171   3.199
51210W        W10647  44.858  21.038  11.546
51211W        W10648  35.964   2.324   3.237
51212W        W10649  15.191  19.713   2.297
51213W        W10650  19.636   3.884   1.882
51214W        W10651  42.018  19.057   2.841
51215W        W10652   6.702  23.490  14.801
51216W        W10653   8.764  15.670   0.772
51217W        W10654  21.089  36.047   1.290
51218W        W10655  32.027   7.350   3.756
51219W        W10656  27.118   1.446  10.956
51220W        W10657   9.869  28.620   0.845
51221W        W10658  19.251  42.391  10.477
51222W        W10659  25.994  14.176  14.441
51223W        W10660  11.623  14.811  13.900
51224W        W10661  43.979   1.287  14.298
51225W        W10662  18.557   6.320  13.365
51226W        W10663  18.204   9.744  13.006
51227W        W10664  16.130  30.082  10.454
51228W        W10665  25.064   5.925   2.840
51229W        W10666  34.481  31.988  12.578
51230W        W10667  31.940  36.030  14.395
51231W        W10668   2.362   8.831  12.922
51232W        W10669  32.084  24.034   9.949
51233W        W10670  10.816   2.808  13.339
51234W        W10671  32.394  17.634  11.513
51235W        W10672  19.183  29.115  12.991
51236W        W10673  19.257  16.688   4.313
51237W        W10674  38.486  12.643  12.011
51238W        W10675  28.551  25.172  10.602
51239W        W10676  16.253   2.823  10.554
51240W        W10677   1.365  16.165  10.642
51241W        W10678  23.501  14.688   0.793
51242W        W10679  10.238  12.656  13.846
51243W        W10680   2.926  36.018   1.392
51244W        W10681  24.149   5.231   4.657
51245W        W10682   2.291  19.266   2.328
51246W        W10683  16.307   0.948   2.821
51247W        W10684  27.015  34.406   2.739
51248W        W10685  36.544  11.860  10.519
51249W        W10686  17.067  17.688   0.897
51250W        W10687  22.565  29.073  14.948
51251W        W10688  42.872  30.463   3.325
51252W        W10689   1.424   1.305   3.850
51253W        W10690  12.358  20.150  13.929
51254W        W10691  15.660  39.505   2.859
51255W        W10692   6.223  18.197  13.423
51256W        W10693  28.162  20.662   1.350
51257W        W10694  29.434  37.908   0.250
51258W        W10695  34.459  11.716  11.017
51259W        W10696  33.050  36.050   2.739
51260W        W10697  29.519  27.943   4.318
51261W        W10698  26.577  33.379  13.909
51262W        W10699  36.078  14.156  12.831
51263W        W10700  28.458  18.724   4.814
51264W        W10701  44.267  11.339  12.566
51265W        W10702  29.592  34.431  11.978
51266W        W10703   6.755  18.156  14.352
51267W        W10704   3.736   2.354  13.327
51268W        W10705  38.042  15.737  11.080
51269W        W10706  44.384  17.188   9.949
51270W        W10707  11.212  40.363   2.755
51271W        W10708  21.656  21.252  10.079
51272W        W10709  21.598  35.589  13.401
51273W        W10710  18.612  31.991   2.353
51274W        W10711  18.286   5.422   3.258
51275W        W10712  41.870  25.473   3.786
51276W        W10713  24.679   0.838  11.459
51277W        W10714  11.289   8.341  11.442
51278W        W10715  14.634   8.335  14.833
51279W        W10716  44.803   7.400  14.428
51280W        W10717  15.584  18.237   4.759
51281W        W10718  43.354  21.239  10.961
51282W        W10719  17.118   1.254  12.572
51283W        W10720   6.842  23.065   4.630
51284W        W10721   7.305   7.265   0.398
51285W        W10722  31.916  32.012  14.330
51286W        W10723  30.454   2.816   2.362
51287W        W10724  22.084   3.729   4.239
51288W        W10725  22.588  43.936  13.852
51289W        W10726  15.315   6.332  11.601
51290W        W10727  13.285   6.237  13.848
51291W        W10728  36.457   2.378   3.217
51292W        W10729   2.860  18.767  13.850
51293W        W10730  33.041  41.538   4.186
51294W        W10731  13.728  33.523   0.874
51295W        W10732  40.312  33.537  11.871
51296W        W10733   7.776  34.097   2.773
51297W        W10734  21.720   4.897   0.815
51298W        W10735  26.586  25.195   2.217
51299W        W10736  26.087  17.579  11.862
51300W        W10737  41.952  44.843  10.566
51301W        W10738  37.888  38.871   5.309
51302W        W10739  29.929  20.164   1.727
51303W        W10740   9.169  12.275   1.789
51304W        W10741  20.110  32.430  13.037
51305W        W10742  11.210  22.104   2.766
51306W        W10743  27.507   5.824  11.394
51307W        W10744  20.042  22.045  14.770
51308W        W10745   1.925  27.153  14.466
51309W        W10746  16.649  32.949  11.013
51310W        W10747  33.391   7.911  13.358
51311W        W10748  20.246  34.563   1.829
51312W        W10749  20.134  17.214  10.112
51313W        W10750  28.161  34.880   0.295
51314W        W10751  34.379   2.230  11.440
51315W        W10752  24.665  44.441  14.915
51316W        W10753   2.861  12.734  14.944
51317W        W10754  29.433  12.812  13.921
51318W        W10755  18.295   0.490  12.375
51319W        W10756  25.596   4.933   3.376
51320W        W10757   0.820   7.849  12.091
51321W        W10758  27.174  17.209  13.379
51322W        W10759   7.173  34.888   4.312
51323W        W10760  41.863  15.253   4.737
51324W        W10761  25.622  37.068  12.577
51325W        W10762  33.395   9.342  11.584
51326W        W10763  17.678  44.892   2.705
51327W        W10764   4.923  23.174   1.301
51328W        W10765  10.830  18.117   1.442
51329W        W10766  20.613  23.126  13.809
51330W        W10767  36.037   8.746  11.116
51331W        W10768  44.921  43.478   3.805
51332W        W10769  22.550  44.891  10.534
51333W        W10770  27.009   8.800  14.484
51334W        W10771  33.519  12.231   9.938
51335W        W10772  23.561  31.056   0.369
51336W        W10773  13.158  34.374  11.952
51337W        W10774  15.655  12.843   4.640
51338W        W10775  17.609   7.690   4.693
51339W        W10776  27.120  30.144  11.984
51340W        W10777  22.148  43.287   1.852
51341W        W10778   0.883  43.016  11.058
51342W        W10779  32.500   2.793   0.453
51343W        W10780  10.379  37.043  12.085
51344W        W10781   5.330   4.830   1.917
51345W        W10782  14.333  40.473  12.856
51346W        W10783   3.939   6.291  12.073
51347W        W10784  15.786  11.270   2.208
51348W        W10785  32.992  15.612   4.254
51349W        W10786   8.900  17.673  14.478
51350W        W10787  32.552  35.401   1.335
51351W        W10788   6.188  40.462  10.506
51352W        W10789  22.244  22.691  13.370
51353W        W10790  36.013  15.104  10.549
51354W        W10791  15.589  32.012   4.160
51355W        W10792   8.794  22.578   5.154
51356W        W10793  10.207  13.227   3.774
51357W        W10794  33.552  26.501  14.010
51358W        W10795   3.302  16.796   4.638
51359W        W10796  26.195   8.319   4.698
51360W        W10797  20.163  35.081  14.458
51361W        W10798  40.487   0.917   2.388
51362W        W10799  31.464  26.128  10.494
51363W        W10800  18.671  26.096  13.382
51364W        W10801  34.501  25.038   0.400
51365W        W10802  24.692  30.056   0.899
51366W        W10803  17.755  27.622   2.824
51367W        W10804  40.360  39.529  12.356
51368W        W10805  22.679  10.188  13.966
51369W        W10806  30.056  44.293   4.693
51370W        W10807   9.647  44.367   3.349
51371W        W10808   2.415  28.140  13.529
51372W        W10809  23.125  41.899   4.116
51373W        W10810   7.249  16.788  11.975
51374W        W10811  21.675  44.266  11.412
51375W        W10812  24.507  19.177  13.352
51376W        W10813   4.312  16.240   0.281
51377W        W10814  28.135  24.607   0.895
51378W        W10815  19.197   0.949   2.324
51379W        W10816  10.185   5.793  11.422
51380W        W10817  32.430  19.086  11.450
51381W        W10818  44.414  12.656  13.867
51382W        W10819  36.456  30.621   4.275
51383W        W10820  19.273   9.877   4.122
51384W        W10821   8.895  35.459  10.936
51385W        W10822   8.726  21.072  10.001
51386W        W10823  38.481  34.524   2.228
51387W        W10824  42.833  24.123  10.502
51388W        W10825  31.116  18.289   4.600
51389W        W10826  21.233   1.437   2.268
51390W        W10827   8.259  43.829   3.806
51391W        W10828  17.262  26.101   3.295
51392W        W10829  37.016  10.306  12.050
51393W        W10830  25.668  18.236   4.233
51394W        W10831  35.958  43.883  14.504
51395W        W10832  30.521  21.689  13.983
51396W        W10833  28.936  33.530  12.055
51397W        W10834   6.894  35.001  14.763
51398W        W10835   4.755  32.088  13.376
51399W        W10836  17.255  42.955  12.023
51400W        W10837  30.946   6.274   5.095
51401W        W10838   3.243  44.838  14.292
51402W        W10839  37.875  38.865  14.930
51403W        W10840   6.822   8.398   2.695
51404W        W10841  17.182  20.624   2.833
51405W        W10842  14.618  44.471   0.413
51406W        W10843  14.334  39.014  14.451
51407W        W10844  10.348  15.722  14.985
51408W        W10845  24.230  29.518  13.941
51409W        W10846  35.446  21.190   4.629
51410W        W10847  30.435  39.030  12.853
51411W        W10848  33.082  26.101   3.198
51412W        W10849  42.824  38.072   2.800
51413W        W10850  39.342  29.589  14.964
51414W        W10851  12.271   9.886  11.019
51415W        W10852  23.211   1.316  13.912
51416W        W10853  14.828  41.878   1.388
51417W        W10854  25.094  37.498   5.242
51418W        W10855  12.632  42.421   2.286
51419W        W10856  37.445  10.246   2.705
51420W        W10857  40.317  23.533   4.293
51421W        W10858  37.429  37.919   4.301
51422W        W10859  23.198  26.146   0.393
51423W        W10860   4.341  27.618   0.872
51424W        W10861   4.279  21.142  10.893
51425W        W10862  25.036   4.422   9.977
51426W        W10863  40.372   5.244  11.127
51427W        W10864  38.404   5.347  14.986
51428W        W10865  10.777   2.373  14.014
51429W        W10866  37.352   2.729  12.952
51430W        W10867  35.096  21.693   0.880
51431W        W10868   6.716  42.400   3.181
51432W        W10869  20.643   2.820  11.124
51433W        W10870  36.042  33.055   4.600
51434W        W10871  22.597  17.061   0.387
51435W        W10872  31.405  25.571  12.846
51436W        W10873   3.357  22.995   1.279
51437W        W10874  27.092  37.845   4.294
51438W        W10875  25.651  20.075   1.835
51439W        W10876   2.879  28.624  13.006
51440W        W10877  21.062  36.994  11.594
51441W        W10878  38.453  24.596  14.963
51442W        W10879  21.242   4.323   1.885
51443W        W10880   7.748  21.685   2.343
51444W        W10881  41.966  41.915  13.010
51445W        W10882  41.416  39.996  12.077
51446W        W10883  30.003  27.611  10.475
51447W        W10884  17.623  28.009  12.015
51448W        W10885  14.101  38.885   0.316
51449W        W10886   3.279  36.951   2.732
51450W        W10887  27.641   4.702   0.845
51451W        W10888   8.360  43.838  14.898
51452W        W10889   0.888  13.208   2.236
51453W        W10890   2.462  38.399  14.969
51454W        W10891  16.088   7.794   2.773
51455W        W10892  29.962  24.100   0.416
51456W        W10893  30.927  35.987  10.988
51457W        W10894  44.811  43.372   0.897
51458W        W10895  20.221  24.588   1.419
51459W        W10896   6.206  16.687   1.320
51460W        W10897  43.880  37.833  10.519
51461W        W10898  40.934  42.917   4.337
51462W        W10899   6.290  33.964  13.792
51463W        W10900   2.311  10.875   4.131
51464W        W10901  34.397  17.654  12.059
51465W        W10902   3.954   4.229   4.707
51466W        W10903  43.379   6.258   3.764
51467W        W10904  38.417  20.261   4.770
51468W        W10905   4.364  43.786  10.962
51469W        W10906  31.623  15.796  10.453
51470W        W10907  35.583  10.191   5.084
51471W        W10908  21.160  25.560   3.681
51472W        W10909   7.755  17.126  11.929
51473W        W10910  21.671  19.711   3.647
51474W        W10911   2.236  15.161   0.254
51475W        W10912   6.380  24.193   4.237
51476W        W10913  28.639  35.484  10.592
51477W        W10914   8.377  25.125  12.067
51478W        W10915  37.044   6.211  12.930
51479W        W10916  24.177   6.257   0.841
51480W        W10917   2.321  37.437  13.025
51481W        W10918  23.168  15.175  11.081
51482W        W10919   5.430   0.290   3.232
51483W        W10920  25.969  35.953   2.305
51484W        W10921  32.925  12.344   2.280
51485W        W10922  21.603   2.263   3.278
51486W        W10923  35.493  22.180   3.814
51487W        W10924  42.996  32.544   0.952
51488W        W10925  27.038  30.478  12.400
51489W        W10926  41.993   0.781   3.340
51490W        W10927   5.903   2.397  11.993
51491W        W10928  10.350   9.767   4.797
51492W        W10929  35.513  28.458  13.363
51493W        W10930  27.119   3.429  12.885
51494W        W10931  14.228  43.342  10.574
51495W        W10932  40.496  34.412  11.518
51496W        W10933   7.752  19.715   2.358
51497W        W10934   2.293  11.228   4.638
51498W        W10935  12.738  31.470  10.559
51499W        W10936  31.145   6.251  14.400
51500W        W10937  23.050  23.186   1.731
51501W        W10938  38.824   1.804   9.981
51502W        W10939   6.305  18.213   0.411
51503W        W10940  26.569  27.597  13.018
51504W        W10941  34.058  32.404   4.652
51505W        W10942   6.744  36.880  13.856
51506W        W10943  42.297  33.958   2.247
51507W        W10944  23.029  12.711  12.868
51508W        W10945   1.851  26.148  11.484
51509W        W10946  14.772  27.179  12.516
51510W        W10947  38.018  33.530   4.688
51511W        W10948   5.894   5.375  13.006
51512W        W10949  44.875  39.861   3.170
51513W        W10950  30.617  44.928   4.128
51514W        W10951  13.198   1.749   1.428
51515W        W10952  17.171  16.706   1.231
51516W        W10953  26.617  21.720   2.725
51517W        W10954  28.980   8.203  12.574
51518W        W10955   4.909  40.046   0.465
51519W        W10956  19.567  23.736  14.934
51520W        W10957  18.638  22.658   1.775
51521W        W10958  36.356   0.472  10.479
51522W        W10959  40.802   9.208   4.724
51523W        W10960  35.411  41.852   3.679
51524W        W10961  35.556   5.368   3.846
51525W        W10962  37.030  35.093  14.291
51526W        W10963  37.895  16.623   0.920
51527W        W10964  36.358  18.203   9.957
51528W        W10965  12.846  12.132  13.870
51529W        W10966  18.577   7.215   1.835
51530W        W10967   4.793  11.773   3.259
51531W        W10968  16.236  26.057  11.936
51532W        W10969  30.546   7.384   0.733
51533W        W10970  40.432  18.101   4.619
51534W        W10971   0.343  42.288  12.541
51535W        W10972  18.051  22.738   1.279
51536W        W10973  27.653  15.312   4.267
51537W        W10974  14.125  19.586  14.437
51538W        W10975  35.038  40.872   4.343
51539W        W10976   4.855  12.300   5.663
51540W        W10977  39.415   8.809  11.500
51541W        W10978  20.063  11.708   3.794
51542W        W10979  29.548   7.910  11.970
51543W        W10980  24.230  44.406   5.141
51544W        W10981  24.553  21.194   4.710
51545W        W10982  20.636  26.061  14.294
51546W        W10983   8.227  26.041  12.965
51547W        W10984   2.790   6.696  12.871
51548W        W10985  33.893   6.416   3.161
51549W        W10986   7.291  41.879   3.839
51550W        W10987  39.053  28.142   4.215
51551W        W10988  15.312  44.407   1.259
51552W        W10989  10.274  14.781   4.822
51553W        W10990  41.861  27.187  14.997
51554W        W10991  44.433   9.789  12.867
51555W        W10992  15.672   0.807   4.774
51556W        W10993  42.444  18.699  10.964
51557W        W10994  23.621   5.206   4.739
51558W        W10995  28.607  31.055  11.469
51559W        W10996  25.485   5.703  11.600
51560W        W10997  40.507  22.126  12.519
51561W        W10998  31.441  16.073  12.955
51562W        W10999  24.075  41.987   4.122
51563W        W11000   9.200  38.953  14.769
51564W        W11001   2.290   0.382   3.662
51565W        W11002  24.534  30.146   1.785
51566W        W11003  44.957   0.268  11.973
51567W        W11004  35.978  22.140   0.285
51568W        W11005  20.087  37.466  14.451
51569W        W11006   7.218  23.722  11.510
51570W        W11007  19.067  16.111   0.422
51571W        W11008  16.073  25.208  11.105
51572W        W11009  17.736  34.411  13.942
51573W        W11010  37.380  17.064   2.328
51574W        W11011  23.155   7.896  12.414
51575W        W11012  10.303  24.623   3.201
51576W        W11013  25.980  43.313  10.120
51577W        W11014  28.096  44.345  12.434
51578W        W11015  36.368  19.582   3.371
51579W        W11016  14.331  10.778  12.825
51580W        W11017  32.027  10.656   0.903
51581W        W11018  36.426   2.800   2.190
51582W        W11019   1.328  32.080   0.398
51583W        W11020   8.735   0.927  12.937
51584W        W11021   5.709  42.888   4.713
51585W        W11022  37.004   3.851   0.937
51586W        W11023  43.789   6.895  11.527
51587W        W11024   3.363  33.386  10.483
51588W        W11025  11.724  44.496   4.782
51589W        W11026  41.356  28.146   2.289
51590W        W11027  13.820  17.659   3.370
51591W        W11028  13.274  26.102  13.972
51592W        W11029  13.308  11.209  13.411
51593W        W11030   1.410  28.609   3.663
51594W        W11031  24.554   1.414  11.451
51595W        W11032   7.672   9.269  13.018
51596W        W11033  44.303  39.917  11.450
51597W        W11034  25.002  11.784   2.722
51598W        W11035  13.605   0.804   4.834
51599W        W11036  19.640  21.534  10.895
51600W        W11037   9.272  35.054  12.553
51601W        W11038   7.238  14.655   3.825
51602W        W11039  17.273  17.214  11.446
51603W        W11040  32.473  13.704  11.583
51604W        W11041   2.760  17.129  12.091
51605W        W11042  22.096  20.254  10.029
51606W        W11043   4.712   6.705   0.868
51607W        W11044  42.505  44.820   4.138
51608W        W11045  26.485  14.186   1.277
51609W        W11046  42.847  37.350  14.955
51610W        W11047  39.843   7.362  12.090
51611W        W11048  17.139  26.085   0.444
51612W        W11049   1.890  11.148   3.184
51613W        W11050   8.759  12.132  11.089
51614W        W11051  22.559  22.052  11.883
51615W        W11052  40.825  31.902   1.895
51616W        W11053  36.494  29.489  11.505
51617W        W11054  21.039  25.968   4.651
51618W        W11055  25.102   6.788  12.979
51619W        W11056   5.923  11.357   3.149
51620W        W11057  20.241   3.382   3.255
51621W        W11058   9.858  10.332  10.148
51622W        W11059   8.747  26.066   3.684
51623W        W11060  37.019  12.278  11.375
51624W        W11061  39.057  21.756  10.899
51625W        W11062  25.507  15.094   1.368
51626W        W11063   9.745  37.050   0.911
51627W        W11064   9.169  39.399   3.364
51628W        W11065  23.069   8.865   1.212
51629W        W11066  37.382   6.339   5.172
51630W        W11067  36.992  30.003   1.376
51631W        W11068  10.237   1.754   2.774
51632W        W11069  11.643  42.777  10.112
51633W        W11070  28.046   9.769  11.519
51634W        W11071   1.377  21.601   1.932
51635W        W11072   8.251  19.128   0.439
51636W        W11073  23.060  41.306  11.514
51637W        W11074   1.863  35.484  12.578
51638W        W11075  23.620   0.471  13.385
51639W        W11076  31.496  27.674   2.213
51640W        W11077  33.996   0.880   0.405
51641W        W11078   0.748  20.100   2.867
51642W        W11079  19.710  30.429  10.489
51643W        W11080  39.911  24.995   4.213
51644W        W11081  11.188  28.073  14.969
51645W        W11082  31.127  40.876  14.437
51646W        W11083  30.622  21.728  10.063
51647W        W11084   9.759  22.175   3.732
51648W        W11085  29.438  21.258  10.459
51649W        W11086  27.547  34.466   3.836
51650W        W11087  38.326  21.215   3.280
51651W        W11088  12.673  22.639  11.451
51652W        W11089  25.665  17.213   1.292
51653W        W11090  25.069  43.981  11.514
51654W        W11091  30.087   4.309   1.703
51655W        W11092  17.647   6.705   1.224
51656W        W11093  24.489  28.564   3.157
51657W        W11094  32.137   5.807  11.421
51658W        W11095  29.155  40.048  14.020
51659W        W11096  20.095  13.697   4.732
51660W        W11097  31.421  29.955  11.958
51661W        W11098  42.283  13.306   2.757
51662W        W11099   8.294  30.956  11.998
51663W        W11100  23.616  35.574   0.759
51664W        W11101  35.428  36.443   2.280
51665W        W11102  10.243  22.049   3.765
51666W        W11103  26.954  38.488   0.780
51667W        W11104  44.883  30.938  12.901
51668W        W11105   1.946  23.995   0.747
51669W        W11106   0.865  19.166  10.580
51670W        W11107  11.264  32.129  14.513
51671W        W11108   9.794  18.224   3.178
51672W        W11109   4.833   8.724   0.795
51673W        W11110  15.795  40.897   5.117
51674W        W11111  30.147  28.641  11.527
51675W        W11112   4.835  29.923   4.644
51676W        W11113   6.757   8.754   1.427
51677W        W11114  34.434  43.487  10.454
51678W        W11115  22.117  20.733   4.736
51679W        W11116  19.204  29.433   4.214
51680W        W11117  19.202  13.339   0.909
51681W        W11118  44.275   1.377   2.820
51682W        W11119  38.501  30.137   3.360
51683W        W11120  10.743   4.290   0.798
51684W        W11121  44.998  14.261  12.995
51685W        W11122  43.381   2.772  12.883
51686W        W11123  40.996   1.764  12.427
51687W        W11124  35.376  42.488   0.438
51688W        W11125  40.820  10.855  11.934
51689W        W11126  44.861  26.655  13.864
51690W        W11127   4.377   8.665  11.963
51691W        W11128  23.525  35.059  10.595
51692W        W11129  35.854  11.804  12.511
51693W        W11130  26.099   3.281  13.417
51694W        W11131  10.690  36.532  11.096
51695W        W11132   8.684  44.855  13.544
51696W        W11133  23.677  26.204  14.979
51697W        W11134  37.556  14.216  13.345
51698W        W11135  34.393  17.795  14.286
51699W        W11136  39.486   1.791  13.349
51700W        W11137  28.143  33.115  10.527
51701W        W11138  41.939  10.163  12.495
51702W        W11139   8.340   9.770  12.541
51703W        W11140  29.154  17.639  12.423
51704W        W11141  44.443  10.645   9.959
51705W        W11142  10.785  40.478  13.422
51706W        W11143  16.109  25.025  13.827
51707W        W11144  18.286   3.360  10.922
51708W        W11145  38.009   4.715   3.287
51709W        W11146  31.545   2.778   3.869
51710W        W11147  42.455  25.470   0.310
51711W        W11148  13.835  26.515  14.420
51712W        W11149  35.405  26.089  10.627
51713W        W11150  39.521  35.483  14.340
51714W        W11151  30.022   1.894   0.817
51715W        W11152  34.006  35.453  12.381
51716W        W11153  10.184  24.140  12.013
51717W        W11154  30.926  34.063   4.129
51718W        W11155  12.829  19.057   4.180
51719W        W11156  25.611  29.073   3.721
51720W        W11157   9.313  24.579  13.418
51721W        W11158  16.773  12.191   4.150
51722W        W11159   1.468  16.105   0.783
51723W        W11160  25.067  32.430   4.673
51724W        W11161  40.805  30.014  10.942
51725W        W11162  15.622   3.837   3.635
51726W        W11163  40.017  24.725   0.391
51727W        W11164  17.137  24.597   2.710
51728W        W11165  19.278   6.740   0.477
51729W        W11166  28.515  18.180   4.225
51730W        W11167  26.066  35.878   1.311
51731W        W11168  44.478   0.960   5.108
51732W        W11169   0.450  35.598   5.293
51733W        W11170  41.001  41.839   2.861
51734W        W11171  40.014  38.828   4.828
51735W        W11172  25.038  28.469   3.652
51736W        W11173   2.298  18.116   4.187
51737W        W11174   7.884  16.722   1.884
51738W        W11175  29.612  43.994  13.898
51739W        W11176  26.999  13.218   3.779
51740W        W11177  21.025  25.510   1.426
51741W        W11178  41.979   3.341  14.802
51742W        W11179  31.577  28.662   4.233
51743W        W11180  36.847  21.230   2.886
51744W        W11181   8.678   7.344  13.350
51745W        W11182  14.280  12.199  12.932
51746W        W11183  22.579  26.512   4.721
51747W        W11184  22.160  36.885   4.750
51748W        W11185   6.687  43.474  13.945
51749W        W11186  14.679  19.678   0.726
51750W        W11187  19.204  25.199   1.248
51751W        W11188  37.442  15.127  11.539
51752W        W11189   1.404  12.261   3.291
51753W        W11190  44.868   1.894   0.903
51754W        W11191  43.994  27.503  11.038
51755W        W11192  35.461   8.883  10.527
51756W        W11193  24.673  41.994   4.724
51757W        W11194  16.605  38.419   1.313
51758W        W11195  44.441   3.242  11.121
51759W        W11196  35.074  15.783   3.632
51760W        W11197  41.833  22.626  13.048
51761W        W11198  42.308   6.734  10.471
51762W        W11199  15.093  39.815  12.482
51763W        W11200  19.237  34.121   3.270
51764W        W11201  38.032  10.867   3.296
51765W        W11202  25.192  38.464   3.737
51766W        W11203  12.802  34.045  14.863
51767W        W11204  11.160  34.002   2.397
51768W        W11205  39.056  33.090  13.398
51769W        W11206   2.864   8.326   4.759
51770W        W11207  33.504  24.143   1.708
51771W        W11208   1.796   9.879  10.991
51772W        W11209  26.047  17.695   0.361
51773W        W11210   8.341  10.733  11.026
51774W        W11211   9.651   3.372  13.008
51775W        W11212  39.348  36.365  10.931
51776W        W11213  38.571  27.132   0.813
51777W        W11214  25.969   6.831  13.394
51778W        W11215  39.931  28.573  12.409
51779W        W11216  25.644  41.301   3.342
51780W        W11217  40.831  29.918   1.254
51781W        W11218  15.623  13.303  13.542
51782W        W11219  10.647  32.539  10.916
51783W        W11220   4.900  27.528  13.832
51784W        W11221  41.492   9.707   2.898
51785W        W11222  20.198  24.580  10.910
51786W        W11223  22.213   2.397   0.747
51787W        W11224  22.231  13.813   1.406
51788W        W11225  30.504  26.099  14.853
51789W        W11226  26.151  20.164  13.808
51790W        W11227  43.326  12.828  14.405
51791W        W11228  14.154  28.506  14.288
51792W        W11229  33.450  41.444  14.302
51793W        W11230  32.099  34.559   0.280
51794W        W11231  25.532  17.273  11.072
51795W        W11232   3.870  23.216   3.238
51796W        W11233  10.796  10.257  12.061
51797W        W11234  16.584   9.854  11.076
51798W        W11235   3.305  28.651  13.334
51799W        W11236  41.845  27.058   0.343
51800W        W11237  21.017   9.759   1.764
51801W        W11238   5.292  28.438  11.101
51802W        W11239  10.204  22.240   2.711
51803W        W11240   6.319  39.536   0.808
51804W        W11241   1.391  36.368  12.489
51805W        W11242  23.504  44.961   3.658
51806W        W11243  16.125  38.464   1.727
51807W        W11244   5.364  43.003   0.398
51808W        W11245   1.966  14.723  14.482
51809W        W11246  40.381   4.384   4.785
51810W        W11247  22.724  35.898   1.873
51811W        W11248  41.450  19.162  10.444
51812W        W11249  19.753  29.564   2.349
51813W        W11250   8.330  10.180   3.353
51814W        W11251  16.115  21.702   0.286
51815W        W11252  40.355  19.561   4.254
51816W        W11253  17.794  29.062   1.815
51817W        W11254  10.686  10.323  14.303
51818W        W11255   5.911  38.880  10.506
51819W        W11256   2.427  37.982  10.927
51820W        W11257  10.793  30.940  14.340
51821W        W11258   5.295  36.869  11.941
51822W        W11259  28.550   9.820   2.259
51823W        W11260   5.739   6.330  12.355
51824W        W11261  10.226  31.607   0.375
51825W        W11262   8.825  40.327  13.006
51826W        W11263  15.302   5.828   1.807
51827W        W11264   9.320  25.218  14.412
51828W        W11265  20.173  16.625   0.438
51829W        W11266   5.255   7.373  10.624
51830W        W11267  11.271   0.950   1.276
51831W        W11268  39.346  40.832  11.084
51832W        W11269  42.886  22.193   9.999
51833W        W11270  27.460  39.384  10.118
51834W        W11271  31.617  39.948   0.728
51835W        W11272  21.578  20.661  11.399
51836W        W11273  18.144  12.729  13.456
51837W        W11274   2.741  22.139   3.674
51838W        W11275  16.240  41.916  10.548
51839W        W11276  29.148  40.935  11.866
51840W        W11277   8.735  37.408  12.439
51841W        W11278  21.634  13.108   1.260
51842W        W11279  37.940  28.561  12.469
51843W        W11280  12.250  23.579   4.252
51844W        W11281  41.350   5.323  13.829
51845W        W11282  30.451  39.314   1.395
51846W        W11283  38.493   9.741   4.209
51847W        W11284   8.209  27.662  11.545
51848W        W11285  23.500  11.205   1.349
51849W        W11286  20.125  40.513   0.886
51850W        W11287  41.418  19.771  11.894
51851W        W11288  14.219  40.849  13.308
51852W        W11289  13.204  28.537  12.894
51853W        W11290   2.275   8.388   0.864
51854W        W11291   9.660  24.121   4.220
51855W        W11292  34.942  41.305  13.547
51856W        W11293  44.326  41.968   3.739
51857W        W11294  16.276   8.201  14.486
51858W        W11295  28.652  41.921  12.541
51859W        W11296  22.032  43.440  12.934
51860W        W11297  16.624  21.627   3.279
51861W        W11298   8.776   7.205  12.508
51862W        W11299  34.915   9.165  11.452
51863W        W11300  19.537  24.686  11.962
51864W        W11301  40.876   8.163   0.447
51865W        W11302  28.491  14.334   0.899
51866W        W11303  25.583   4.857  13.853
51867W        W11304  22.678   8.881   1.811
51868W        W11305  25.038  23.109   2.722
51869W        W11306  23.013  38.371   2.876
51870W        W11307  37.951  36.418  11.553
51871W        W11308   4.415  16.130  13.839
51872W        W11309   4.708  35.479   3.734
51873W        W11310  26.967  42.954  11.903
51874W        W11311  12.220   5.932  10.537
51875W        W11312  21.087  24.135   2.678
51876W        W11313  18.547   7.259  13.048
51877W        W11314  27.082  16.757   4.189
51878W        W11315  42.305  27.099   1.774
51879W        W11316  36.073  31.007  13.923
51880W        W11317  41.405  34.005   1.815
51881W        W11318  39.481  32.011   1.325
51882W        W11319  19.216  37.998  11.054
51883W        W11320  23.671  41.468  11.397
51884W        W11321  18.710  25.993  11.973
51885W        W11322   3.362   4.940   0.897
51886W        W11323  38.876   5.884   3.294
51887W        W11324  34.545   9.278   3.331
51888W        W11325   0.282  17.118  13.836
51889W        W11326   8.771   1.252   1.702
51890W        W11327  30.953  11.811   3.383
51891W        W11328  17.780  28.064  10.627
51892W        W11329  12.701  34.411   1.780
51893W        W11330  33.532  33.975  10.098
51894W        W11331  28.085  11.136  14.321
51895W        W11332  33.584  36.967  10.120
51896W        W11333  13.632  40.508   3.150
51897W        W11334  43.358  13.787  12.901
51898W        W11335  41.440  34.071   3.330
51899W        W11336   4.220  18.137   4.617
51900W        W11337   3.373  40.996  14.977
51901W        W11338   3.866  15.601  14.456
51902W        W11339  31.482  42.518  13.446
51903W        W11340   6.853  15.139   1.907
51904W        W11341  14.789   8.778   2.824
51905W        W11342  21.557  43.789  13.950
51906W        W11343  41.489  42.385   0.810
51907W        W11344  13.825   7.358   0.849
51908W        W11345  39.831   8.187  10.407
51909W        W11346  38.376  22.683   3.340
51910W        W11347  34.458  14.203   3.851
51911W        W11348  25.004  11.176  14.805
51912W        W11349  23.213  23.163   4.347
51913W        W11350  42.788  27.172  11.110
51914W        W11351  27.672  38.015  13.853
51915W        W11352  18.633  11.696   5.322
51916W        W11353  29.590   2.790   0.759
51917W        W11354  35.550  42.855   3.313
51918W        W11355   2.413   9.832  12.083
51919W        W11356  13.145  14.667   3.763
51920W        W11357   3.234  22.622   0.364
51921W        W11358  36.389  12.854   1.224
51922W        W11359  28.436  24.594   1.231
51923W        W11360  26.702  16.132  10.586
51924W        W11361  27.613   3.433  13.346
51925W        W11362  33.972  38.887  13.322
51926W        W11363  13.792   0.358  11.551
51927W        W11364  40.891  39.987  11.593
51928W        W11365  14.736  22.579   4.340
51929W        W11366  43.382  37.958  13.352
51930W        W11367  11.355  28.074   1.375
51931W        W11368  34.536  31.540  11.473
51932W        W11369  10.833  19.250  10.622
51933W        W11370  10.192   2.471  12.426
51934W        W11371   9.731  15.733  12.074
51935W        W11372  15.779  22.697   4.832
51936W        W11373   6.691  24.060   3.230
51937W        W11374  42.373   3.451   2.779
51938W        W11375  31.408  42.502   3.342
51939W        W11376  42.837  11.826  13.534
51940W        W11377   9.302   7.321   2.369
51941W        W11378  10.644  13.225   1.258
51942W        W11379  32.569  12.770   0.836
51943W        W11380  29.983   3.263   4.231
51944W        W11381  25.652  22.101  14.847
51945W        W11382  30.047  11.185  11.085
51946W        W11383  21.601   6.373  11.868
51947W        W11384  22.687  10.270   3.781
51948W        W11385  22.010  26.041   3.289
51949W        W11386  27.001  25.180  14.448
51950W        W11387  40.874   0.884   2.880
51951W        W11388  44.924   1.395   3.702
51952W        W11389  28.149   8.873  11.488
51953W        W11390   2.379  28.135   4.264
51954W        W11391  18.240   4.211  10.553
51955W        W11392  15.820  14.217   4.347
51956W        W11393  37.041  14.152   0.408
51957W        W11394  20.192  19.672   2.817
51958W        W11395   4.204  15.270   0.745
51959W        W11396   6.777  25.169   5.082
51960W        W11397   0.405   0.756   0.798
51961W        W11398  27.183   6.797   2.835
51962W        W11399  30.414  15.739   3.649
51963W        W11400  35.082   2.940  10.487
51964W        W11401  42.989  42.294   4.225
51965W        W11402  30.932  30.591  12.044
51966W        W11403  40.907  34.891  13.795
51967W        W11404  38.024   2.890   3.725
51968W        W11405  35.997  19.570   4.189
51969W        W11406  10.334   4.925   3.269
51970W        W11407  22.710  36.490   2.335
51971W        W11408  34.597  33.610   3.346
51972W        W11409   5.692  19.260   3.366
51973W        W11410  39.991  21.054  12.920
51974W        W11411  38.393  28.611  10.433
51975W        W11412  34.121  28.095   0.265
51976W        W11413  41.850  38.993  12.506
51977W        W11414   4.808   2.904  10.584
51978W        W11415   0.399  44.835  10.562
51979W        W11416  10.749  13.189   4.335
51980W        W11417  22.551  30.929  13.388
51981W        W11418  37.347   0.487   1.341
51982W        W11419  20.670  21.144   2.812
51983W        W11420  19.163  20.258  12.980
51984W        W11421  36.098  32.893  12.041
51985W        W11422  19.280   7.203   4.144
51986W        W11423  27.113   3.905  11.081
51987W        W11424  33.999  43.903   1.713
51988W        W11425   1.406  31.117  10.977
51989W        W11426  29.509  19.163   2.319
51990W        W11427  18.580  19.766   3.836
51991W        W11428  39.866   7.835  11.374
51992W        W11429  12.218  40.942   2.275
51993W        W11430  23.119  37.963  14.917
51994W        W11431  28.946  19.752   3.350
51995W        W11432  22.588  12.762  14.321
51996W        W11433   7.854  43.283   0.346
51997W        W11434  37.912  44.495   3.383
51998W        W11435  38.364  26.026  10.945
51999W        W11436  38.829  39.549  11.906
52000W        W11437  11.286  19.704   4.775
52001W        W11438  30.033   8.686  13.334
52002W        W11439  21.079  13.778   0.273
52003W        W11440  10.262  21.205  13.866
52004W        W11441   7.713  11.201  12.097
52005W        W11442  11.338   2.908   3.327
52006W        W11443  38.936  15.235  14.789
52007W        W11444  29.039  28.034   3.718
52008W        W11445   9.349  28.659  11.089
52009W        W11446  44.946  36.462   3.253
52010W        W11447   9.332  35.425   3.363
52011W        W11448  22.095  31.137  14.297
52012W        W11449  33.040  23.718   3.292
52013W        W11450  16.159  37.365   0.402
52014W        W11451  14.208  16.173   3.824
52015W        W11452  28.565  40.881  13.542
52016W        W11453   0.935  32.555   1.391
52017W        W11454   4.316   2.276   2.789
52018W        W11455   0.782  34.887   0.469
52019W        W11456   7.849   0.868   1.784
52020W        W11457  14.785  26.667  10.086
52021W        W11458  27.629  11.635  12.843
52022W        W11459  24.545   2.326   3.829
52023W        W11460  37.927  42.445  11.429
52024W        W11461  26.200   0.963   0.875
52025W        W11462  16.234  39.004   1.800
52026W        W11463  18.065  28.168  11.077
52027W        W11464  25.594   5.854  14.429
52028W        W11465  25.211  24.678   2.246
52029W        W11466  34.970  41.381  13.938
52030W        W11467  39.458  42.447   1.300
52031W        W11468  25.171  37.040  13.837
52032W        W11469  42.014  34.989  11.611
52033W        W11470   5.860  30.054   1.714
52034W        W11471  13.251  13.143  13.358
52035W        W11472   9.374   9.823   4.667
52036W        W11473  25.535   1.785  11.587
52037W        W11474   7.191  41.879   2.762
52038W        W11475   3.318  39.330   2.715
52039W        W11476  43.819   4.397   2.196
52040W        W11477  35.590  29.612   2.709
52041W        W11478   1.247  44.816  12.535
52042W        W11479  26.688  44.318   3.296
52043W        W11480   4.344  10.645  12.488
52044W        W11481  29.135  18.071  10.924
52045W        W11482  39.894  18.553  11.964
52046W        W11483  41.820  19.131  10.534
52047W        W11484  44.269   7.203   2.851
52048W        W11485  11.836   3.851  11.518
52049W        W11486   1.963  12.136   3.869
52050W        W11487  18.629  20.645   1.857
52051W        W11488  14.832  27.531   0.431
52052W        W11489  11.261   4.317  11.413
52053W        W11490  26.492  13.268   4.763
52054W        W11491  36.408  28.452  12.555
52055W        W11492  24.522  14.108  14.311
52056W        W11493   7.715   9.885  14.847
52057W        W11494  30.445  21.157  11.428
52058W        W11495  40.031  10.261   1.430
52059W        W11496   0.308  24.205  14.878
52060W        W11497  32.051   6.798  10.467
52061W        W11498   4.407   1.780   1.439
52062W        W11499   5.382  39.422  12.562
52063W        W11500   8.868  41.305   0.833
52064W        W11501  23.645  12.325   0.428
52065W        W11502   3.351   4.238   0.831
52066W        W11503  30.140   8.791  11.374
52067W        W11504  38.038  12.349   4.622
52068W        W11505  24.697   7.176   2.324
52069W        W11506  22.745   6.260   3.224
52070W        W11507   2.233  13.674   1.917
52071W        W11508  21.139  36.891  10.643
52072W        W11509  18.183  38.896   4.706
52073W        W11510  10.384  44.357  14.324
52074W        W11511  32.625  32.614  11.391
52075W        W11512  13.109  21.106  10.089
52076W        W11513  19.558  43.413  13.946
52077W        W11514  27.188  41.414  13.398
52078W        W11515  40.905  42.991  14.966
52079W        W11516  30.613  33.624   3.834
52080W        W11517   3.847   6.183   3.791
52081W        W11518   3.438  42.416  13.848
52082W        W11519  44.844   6.360  14.395
52083W        W11520  19.150  12.258  11.042
52084W        W11521  11.680  31.413  14.477
52085W        W11522  29.442   1.874   3.752
52086W        W11523  12.666  34.456  11.956
52087W        W11524  37.910   4.312  11.026
52088W        W11525   4.905  13.284  13.826
52089W        W11526  30.910   4.315  12.425
52090W        W11527   9.247  34.877   4.350
52091W        W11528   6.196  14.687  13.836
52092W        W11529  37.568  33.025   1.221
52093W        W11530  20.169  43.325  13.396
52094W        W11531  25.483  39.028  10.420
52095W        W11532  38.848   0.480   1.392
52096W        W11533  44.878  25.603  14.391
52097W        W11534   4.910  41.871   2.706
52098W        W11535  34.008  20.217   1.929
52099W        W11536  35.081  20.650  13.485
52100W        W11537  25.035   3.408  11.028
52101W        W11538  35.363  38.371  12.003
52102W        W11539  26.675  10.826   2.767
52103W        W11540  18.260  21.616  10.514
52104W        W11541  35.107  31.005  14.296
52105W        W11542  23.640  17.634   1.893
52106W        W11543  41.331  15.165   1.317
52107W        W11544  42.798   6.733   1.810
52108W        W11545   6.897  18.585  11.435
52109W        W11546  15.267  29.466   2.312
52110W        W11547   0.754  33.469   3.159
52111W        W11548   0.424  13.202   1.275
52112W        W11549  22.083  23.200  11.865
52113W        W11550  23.129  37.436   1.715
52114W        W11551  27.645  17.624  14.919
52115W        W11552   8.346  35.566   1.290
52116W        W11553  38.952  41.850   2.324
52117W        W11554  21.041  38.002  12.430
52118W        W11555  21.046  10.759   3.238
52119W        W11556  29.649  13.120   4.274
52120W        W11557  33.582  21.096  13.541
52121W        W11558  20.193  22.720   3.828
52122W        W11559   6.273  16.270  14.763
52123W        W11560  44.348  37.928  13.015
52124W        W11561  19.232  37.880   4.117
52125W        W11562  18.595  11.311  11.888
52126W        W11563   6.694  20.078  14.887
52127W        W11564  27.519  32.916  14.377
52128W        W11565  37.054  39.938   4.653
52129W        W11566   0.263  25.971  11.490
52130W        W11567  20.618   1.286  14.019
52131W        W11568  31.066   6.377  13.010
52132W        W11569   0.438  24.560   3.194
52133W        W11570  37.403  33.395   1.314
52134W        W11571   2.922  22.573  14.407
52135W        W11572  41.983  33.540  12.426
52136W        W11573  25.148  26.184   2.316
52137W        W11574  37.398  16.140   3.349
52138W        W11575  42.863   0.279   2.839
52139W        W11576  36.366  26.457  12.068
52140W        W11577  40.041  32.489   0.441
52141W        W11578  19.704  41.485  11.897
52142W        W11579   7.796   1.860   4.316
52143W        W11580  43.413  22.123   0.435
52144W        W11581  11.224   7.903   3.663
52145W        W11582  21.600   1.802   1.425
52146W        W11583  41.299  29.121  13.451
52147W        W11584  40.875  39.921   3.264
52148W        W11585  25.156  13.243   1.770
52149W        W11586   2.338   2.439  11.409
52150W        W11587  30.915  34.436   3.331
52151W        W11588   8.674   8.879  11.502
52152W        W11589  25.575   5.820   3.278
52153W        W11590   6.352  20.665  10.564
52154W        W11591  42.441  21.135   1.379
52155W        W11592  26.603  41.957  14.982
52156W        W11593   3.296  39.458   3.748
52157W        W11594  27.106  24.628  11.596
52158W        W11595  40.906  31.027  14.945
52159W        W11596   6.342  22.032   0.411
52160W        W11597  26.047  14.603  14.994
52161W        W11598  21.243  16.185  13.448
52162W        W11599  17.568  21.512  14.008
52163W        W11600  24.490  15.805   3.265
52164W        W11601  41.303   2.437   4.727
52165W        W11602   9.659   6.751  13.538
52166W        W11603   3.834  11.309   3.181
52167W        W11604  24.552   0.987   4.647
52168W        W11605   7.669  30.471  14.844
52169W        W11606  22.720  38.489  11.005
52170W        W11607  42.898  43.513  14.817
52171W        W11608  14.760  25.647   2.187
52172W        W11609  34.968  20.700  12.019
52173W        W11610  11.268  12.216   2.787
52174W        W11611  41.042  14.162  12.921
52175W        W11612  23.541  34.900   1.449
52176W        W11613  40.977  42.306   0.810
52177W        W11614  13.619  17.131  12.410
52178W        W11615  40.017  25.978  11.412
52179W        W11616  38.019   7.357  12.902
52180W        W11617   4.345  15.160  11.611
52181W        W11618  27.558  11.167  13.334
52182W        W11619  33.132  32.018   3.373
52183W        W11620   6.212  24.720  12.378
52184W        W11621  21.024  19.564  11.902
52185W        W11622   2.306  27.519   0.889
52186W        W11623   9.794  25.698  12.908
52187W        W11624  40.865  36.381  12.091
52188W        W11625  38.407  13.843   1.827
52189W        W11626   3.809  13.110   3.808
52190W        W11627  31.978  13.175   3.670
52191W        W11628  35.473  27.194   2.368
52192W        W11629   3.877   4.274  13.032
52193W        W11630  38.547  32.094   3.868
52194W        W11631  38.445  28.607   0.753
52195W        W11632  44.830  34.882  11.076
52196W        W11633  24.596  25.650  14.836
52197W        W11634  44.976   5.913  10.461
52198W        W11635  28.542  10.848  11.971
52199W        W11636  33.576  31.970  12.561
52200W        W11637  22.714  35.025  10.468
52201W        W11638   4.851  19.049   3.282
52202W        W11639  26.685  39.864  12.554
52203W        W11640  26.194  20.559  11.006
52204W        W11641  16.243  10.704   4.293
52205W        W11642  25.648  21.032  11.961
52206W        W11643  22.535  28.460  14.446
52207W        W11644   6.758   9.178  12.852
52208W        W11645  11.663  25.614  13.053
52209W        W11646  17.652  36.911   0.418
52210W        W11647  37.852  22.557  14.404
52211W        W11648  17.258  44.936   5.093
52212W        W11649  38.544  44.991  13.514
52213W        W11650  18.634  28.099   2.845
52214W        W11651  14.785  37.878  13.480
52215W        W11652  41.957  35.360   1.272
52216W        W11653  25.660  36.354   5.752
52217W        W11654   4.413   5.250  13.368
52218W        W11655  24.009  44.284   4.225
52219W        W11656   2.231  18.569   2.772
52220W        W11657  12.622   3.828  12.362
52221W        W11658  19.677  32.603   2.824
52222W        W11659   0.757  34.960  13.359
52223W        W11660  27.655  31.441   4.752
52224W        W11661  15.786  30.956   4.609
52225W        W11662  44.964   2.408   2.360
52226W        W11663   1.428  18.095  10.413
52227W        W11664   9.747  28.501   2.668
52228W        W11665  25.703  15.220  13.400
52229W        W11666  32.998  31.449  10.514
52230W        W11667  26.042  26.462  10.910
52231W        W11668  17.225  37.411  14.883
52232W        W11669   0.292   0.434  14.769
52233W        W11670  18.098  20.667   4.623
52234W        W11671  34.418  21.617   3.681
52235W        W11672  19.697  21.157   0.442
52236W        W11673  23.641   0.954   3.362
52237W        W11674  32.544  29.611   3.730
52238W        W11675  41.325  38.936  14.335
52239W        W11676  28.656  37.990  12.522
52240W        W11677  14.707  29.968  13.320
52241W        W11678   7.393  10.759   1.806
52242W        W11679  20.685  43.844  14.490
52243W        W11680  26.092  37.001   3.641
52244W        W11681  41.959  21.748   2.884
52245W        W11682  29.143  39.490  14.499
52246W        W11683  25.510  25.613   3.344
52247W        W11684  14.787  37.573   5.279
52248W        W11685  12.296  14.138   5.234
52249W        W11686  32.564  37.889   2.893
52250W        W11687  44.464  41.829   0.948
52251W        W11688   8.837  18.118  14.435
52252W        W11689  28.630  40.398   0.901
52253W        W11690  11.287  34.393  10.580
52254W        W11691   9.334  19.765  11.535
52255W        W11692  19.585  27.623   4.147
52256W        W11693  13.632  43.371  12.957
52257W        W11694  18.146   5.761   2.795
52258W        W11695   1.776  42.285  13.796
52259W        W11696  22.593   7.707   4.813
52260W        W11697  14.314   6.334   0.817
52261W        W11698  19.101  42.391   1.310
52262W        W11699  43.282  26.056   4.309
52263W        W11700   9.203  20.198   1.383
52264W        W11701   7.197  16.690  13.420
52265W        W11702   6.870   2.732  12.825
52266W        W11703  14.284  38.843   3.651
52267W        W11704  42.866  42.956  11.515
52268W        W11705   9.247  22.621   3.799
52269W        W11706   2.722   9.164   0.887
52270W        W11707  37.028  10.169   2.790
52271W        W11708  33.881  34.984  10.419
52272W        W11709  10.722  10.288  13.994
52273W        W11710  23.686  22.598   3.208
52274W        W11711   5.430   7.244   1.806
52275W        W11712  43.321   6.351   1.829
52276W        W11713  43.274  32.438  11.449
52277W        W11714  25.013  40.029  11.467
52278W        W11715  20.112   5.764   2.844
52279W        W11716  38.901  12.138   2.379
52280W        W11717   2.388  21.644   2.804
52281W        W11718  14.292  30.932  11.016
52282W        W11719  26.061  29.532  14.346
52283W        W11720  10.338  15.299   1.404
52284W        W11721   3.268   7.736   4.291
52285W        W11722  12.745  36.430   3.373
52286W        W11723  13.658  34.418  13.920
52287W        W11724  44.467  11.705  12.547
52288W        W11725   6.302  42.489   4.347
52289W        W11726  38.051  15.636  14.936
52290W        W11727  22.221  15.721  12.996
52291W        W11728  21.170  21.213  10.519
52292W        W11729  15.286  43.780   9.580
52293W        W11730   7.878  15.323   0.944
52294W        W11731  36.506  32.061   3.237
52295W        W11732  44.821  38.439   0.316
52296W        W11733  21.032  40.829  11.396
52297W        W11734  18.060  12.145  14.382
52298W        W11735  17.235  40.991   4.199
52299W        W11736  28.664  25.480  14.450
52300W        W11737  16.686  37.418  14.989
52301W        W11738   3.336  43.501   4.654
52302W        W11739  16.144  28.610  10.502
52303W        W11740   3.265  11.232  14.310
52304W        W11741  21.632  31.533   4.734
52305W        W11742   5.281  44.488  13.022
52306W        W11743  18.147  25.576   4.713
52307W        W11744   0.464  31.444   4.114
52308W        W11745  37.529  27.469   1.315
52309W        W11746  18.291  12.145   0.255
52310W        W11747  12.704  34.478   0.917
52311W        W11748  17.214  30.119  10.425
52312W        W11749   5.702   7.787  14.779
52313W        W11750   1.252  22.715   1.261
52314W        W11751   1.906  23.078   4.775
52315W        W11752  42.353  24.001  13.478
52316W        W11753  38.408  21.609  13.543
52317W        W11754  38.327  17.753   2.808
52318W        W11755   6.707  13.606   3.317
52319W        W11756  41.970  22.160   1.767
52320W        W11757  31.062  14.640  14.510
52321W        W11758  14.786  37.424   3.370
52322W        W11759   1.355  40.041   3.186
52323W        W11760   8.888   5.734   2.272
52324W        W11761   2.415  16.128  14.399
52325W        W11762   2.906  30.424  10.932
52326W        W11763  43.411  17.581  14.821
52327W        W11764  44.343  40.454  13.496
52328W        W11765  34.879  40.802  14.873
52329W        W11766  26.158  20.219   1.779
52330W        W11767   3.793  20.269  12.860
52331W        W11768  41.454  36.024  10.528
52332W        W11769  20.038  10.826  13.956
52333W        W11770  20.049   8.657   1.434
52334W        W11771  43.293  24.226   2.730
52335W        W11772  11.234  14.776  12.081
52336W        W11773  40.900  33.485  13.002
52337W        W11774  13.822  27.674  12.577
52338W        W11775  27.165  18.146  14.385
52339W        W11776  37.852  16.188   4.158
52340W        W11777  11.772  41.385   0.355
52341W        W11778   9.278  18.293  11.494
52342W        W11779  27.447  17.608   4.665
52343W        W11780  16.072  18.050   1.346
52344W        W11781   4.231  38.526   4.326
52345W        W11782  44.894  21.114  13.407
52346W        W11783   0.880  20.265   0.805
52347W        W11784  22.232  28.009  10.949
52348W        W11785  11.342  12.341  13.351
52349W        W11786  44.281  37.889   5.650
52350W        W11787  40.449  33.624  13.337
52351W        W11788  26.109  17.705  13.387
52352W        W11789  40.410  13.665   0.270
52353W        W11790  31.540  40.971  12.572
52354W        W11791  10.209  22.678   5.234
52355W        W11792  39.417   4.715  12.063
52356W        W11793  33.438  37.987   1.926
52357W        W11794  27.083  17.170   0.286
52358W        W11795  11.371  36.899  11.920
52359W        W11796   7.315  26.959  10.425
52360W        W11797   0.967  35.420   5.319
52361W        W11798   9.678  31.490  11.492
52362W        W11799   6.909   6.327   0.458
52363W        W11800   0.905  11.340   9.617
52364W        W11801  11.829   4.258   3.798
52365W        W11802   9.685   7.708   2.684
52366W        W11803  27.084  43.014   3.153
52367W        W11804   6.345  41.366   1.698
52368W        W11805  17.616  19.721  12.540
52369W        W11806  10.163  11.187   1.759
52370W        W11807  36.038   3.769  11.533
52371W        W11808  37.581   6.346  11.421
52372W        W11809  30.145  39.354   1.247
52373W        W11810  16.225  42.889   3.693
52374W        W11811  21.699   1.923  11.572
52375W        W11812   8.886  17.118   4.812
52376W        W11813   7.724  25.187   2.391
52377W        W11814  33.476  42.460  13.886
52378W        W11815  25.587  25.571   2.236
52379W        W11816  27.079  15.140   2.666
52380W        W11817  16.603   6.311  10.563
52381W        W11818  38.947  41.018  10.055
52382W        W11819   6.286  42.898  10.042
52383W        W11820  13.774   0.899   2.833
52384W        W11821  42.838   4.296   1.795
52385W        W11822  28.101  22.607  10.634
52386W        W11823   7.320   4.742   0.750
52387W        W11824  35.444  36.979   0.830
52388W        W11825  42.927  21.755  11.454
52389W        W11826  21.677  16.648   5.735
52390W        W11827   8.815  34.947  14.991
52391W        W11828   8.398  43.929  13.444
52392W        W11829   9.870  20.058  11.067
52393W        W11830  25.692   9.758  10.460
52394W        W11831  36.086  33.006  14.957
52395W        W11832  42.873  33.086  10.919
52396W        W11833  35.867  19.651   2.322
52397W        W11834   2.363   7.905   4.142
52398W        W11835  28.631  25.713  10.527
52399W        W11836  29.442  31.576   3.355
52400W        W11837   0.930  44.262   3.639
52401W        W11838  30.479  44.344  12.559
52402W        W11839  33.498  36.028  11.058
52403W        W11840   2.776  38.565  12.574
52404W        W11841  35.416  40.841  11.554
52405W        W11842   3.912  10.722  13.453
52406W        W11843  38.385  23.050  13.045
52407W        W11844  32.501  20.224   0.956
52408W        W11845   3.894  44.303   9.921
52409W        W11846  17.631  12.149  14.277
52410W        W11847  15.196  44.418   2.734
52411W        W11848  20.081  11.246   2.417
52412W        W11849  40.492  30.040   3.746
52413W        W11850  26.981  41.872   2.310
52414W        W11851  19.572  29.144  14.480
52415W        W11852  18.727  11.231   4.245
52416W        W11853  42.956  17.114  13.423
52417W        W11854  29.152  42.526  10.442
52418W        W11855  38.038   5.418  13.517
52419W        W11856  10.320  13.191   1.798
52420W        W11857   0.421  29.145  14.920
52421W        W11858  37.389  20.541   2.247
52422W        W11859  42.307   9.746  12.945
52423W        W11860  12.617  35.483   2.760
52424W        W11861  33.058  31.052   1.261
52425W        W11862  40.310  19.176   4.326
52426W        W11863   7.911  39.462  12.401
52427W        W11864   2.460  27.546  12.003
52428W        W11865  36.939  40.834   1.836
52429W        W11866  10.360   3.425  12.424
52430W        W11867  16.079   3.938   0.483
52431W        W11868  14.835  31.061  11.513
52432W        W11869  21.720  33.050   0.358
52433W        W11870  36.547  29.551  12.544
52434W        W11871  27.003  42.940  12.546
52435W        W11872   4.348  17.646  12.073
52436W        W11873  32.625  44.361  14.406
52437W        W11874  33.414  31.457  13.053
52438W        W11875  44.006  43.951  10.601
52439W        W11876   9.188  43.775  12.907
52440W        W11877   5.238  36.565  14.825
52441W        W11878   1.900  17.589  14.862
52442W        W11879  12.747  31.097   4.625
52443W        W11880  12.795  41.520   0.867
52444W        W11881  37.576  21.745   1.379
52445W        W11882  25.705  11.278   4.172
52446W        W11883  19.644  24.681  13.802
52447W        W11884  13.289  33.432   0.412
52448W        W11885  28.497  17.306   3.354
52449W        W11886  20.718  43.325  13.480
52450W        W11887  30.947  35.482   2.887
52451W        W11888  17.717  26.696  13.053
52452W        W11889   1.810  44.502   2.205
52453W        W11890  13.786  36.585  12.839
52454W        W11891  34.920  41.873   3.800
52455W        W11892  40.397  32.477   3.709
52456W        W11893  29.482  31.916  10.616
52457W        W11894  26.179   8.295  11.085
52458W        W11895  26.522  33.031  12.516
52459W        W11896  41.466  25.560   4.125
52460W        W11897  25.482   0.928   2.831
52461W        W11898  14.709   7.768  14.330
52462W        W11899  11.337  21.063   3.186
52463W        W11900  43.007  11.203  11.449
52464W        W11901  13.302   0.835   1.890
52465W        W11902  36.087  40.966  13.837
52466W        W11903  41.952  43.782   4.255
52467W        W11904  13.799  23.096   2.726
52468W        W11905   4.237  43.017   5.258
52469W        W11906  41.459   6.309   0.365
52470W        W11907  10.760  27.642  13.881
52471W        W11908  35.104  28.638   0.752
52472W        W11909  26.192   7.852   0.923
52473W        W11910   3.773  33.004  12.873
52474W        W11911  18.621  22.034   1.451
52475W        W11912  41.422   5.331  10.533
52476W        W11913  17.253  10.360  10.093
52477W        W11914  30.635  21.057   2.859
52478W        W11915  31.974   2.352  14.971
52479W        W11916   3.906  21.061  14.378
52480W        W11917  44.925  24.534  13.810
52481W        W11918  29.956  13.653   3.662
52482W        W11919  26.504   3.413   4.755
52483W        W11920  10.156   8.790   0.922
52484W        W11921  13.654  40.857   4.600
52485W        W11922  43.004  33.899   5.204
52486W        W11923  17.801  36.500  13.844
52487W        W11924  19.124   9.644   2.749
52488W        W11925  17.095  27.565  14.383
52489W        W11926  40.374  29.638  10.563
52490W        W11927   9.183  25.624   9.674
52491W        W11928   3.931   9.850   4.760
52492W        W11929  30.637  15.250  14.357
52493W        W11930  12.181  37.878   2.709
52494W        W11931   3.736   9.852  13.900
52495W        W11932   9.738  31.469  13.883
52496W        W11933   3.747  12.648  14.502
52497W        W11934  31.102  15.640   3.736
52498W        W11935   5.270  40.412   1.216
52499W        W11936   2.317  42.483  11.509
52500W        W11937  44.452  31.974  10.142
52501W        W11938  42.967  20.632  11.934
52502W        W11939  36.426  27.042   3.815
52503W        W11940  33.498  29.494   0.480
52504W        W11941  41.407  10.652   4.669
52505W        W11942  13.345  36.541  14.366
52506W        W11943  27.134   1.356  11.967
52507W        W11944  11.767  37.013  13.413
52508W        W11945  27.445   7.733   1.819
52509W        W11946   1.858  22.010   1.848
52510W        W11947  29.630  19.758  11.571
52511W        W11948  16.106   0.419   3.731
52512W        W11949  42.787  37.573  10.032
52513W        W11950  19.245   8.684  14.982
52514W        W11951   0.298  10.843  10.002
52515W        W11952  35.520  13.191   2.813
52516W        W11953  42.828  39.000  13.437
52517W        W11954   1.276  29.498  12.412
52518W        W11955  15.246  41.943  11.379
52519W        W11956   2.247  44.293  13.895
52520W        W11957  35.951  40.949   0.389
52521W        W11958  23.150  23.137   1.314
52522W        W11959  15.125   9.651  13.927
52523W        W11960  31.491  19.257  12.467
52524W        W11961  36.085  30.483  12.417
52525W        W11962   5.734  37.002   0.426
52526W        W11963   4.400  11.801  13.374
52527W        W11964   3.768   0.308   0.292
52528W        W11965  21.555  18.750  13.320
52529W        W11966  28.106   9.226   3.146
52530W        W11967  10.657  35.495   1.392
52531W        W11968   7.300  32.061  11.554
52532W        W11969  12.218  42.498  10.966
52533W        W11970  44.837  20.135  13.877
52534W        W11971  19.059  31.581  13.348
52535W        W11972   6.749  12.123  10.482
52536W        W11973  25.489  30.456   0.943
52537W        W11974   1.442  37.990   3.203
52538W        W11975   6.192  33.940  13.482
52539W        W11976   9.317  23.075   1.853
52540W        W11977  29.919   4.936  10.586
52541W        W11978  17.260  13.832  14.984
52542W        W11979  13.127   5.205   4.748
52543W        W11980   7.403   9.217   1.826
52544W        W11981   1.941  32.132  14.497
52545W        W11982  27.976  28.078  13.341
52546W        W11983   2.817  35.877  13.320
52547W        W11984   7.237  32.019   0.744
52548W        W11985  11.191  25.513  12.497
52549W        W11986  23.509  24.518  10.538
52550W        W11987  21.099  20.160  11.440
52551W        W11988  33.586  16.248  13.320
52552W        W11989   2.889  25.067   2.289
52553W        W11990  12.180  25.668  14.372
52554W        W11991  44.340   4.882   3.661
52555W        W11992  14.225  28.482   2.391
52556W        W11993   8.670  36.358   0.296
52557W        W11994  15.100  11.184   1.747
52558W        W11995  38.849   6.382  11.952
52559W        W11996  34.017  16.177   4.678
52560W        W11997  23.200  26.565   3.808
52561W        W11998  30.432  11.853   4.142
52562W        W11999  13.182   9.371  11.897
52563W        W12000  33.525   3.842   1.275
52564W        W12001  25.566  22.122   0.247
52565W        W12002  21.191  32.468   0.426
52566W        W12003  35.522   6.715  14.877
52567W        W12004  33.526  31.576   1.728
52568W        W12005  13.199  17.675   0.483
52569W        W12006  37.051  33.487  13.455
52570W        W12007  42.873  38.980   0.330
52571W        W12008  10.798  11.819  13.359
52572W        W12009  44.435  38.469   5.228
52573W        W12010  24.180  19.190  13.405
52574W        W12011  34.919  22.999  12.926
52575W        W12012  42.511  40.436  13.893
52576W        W12013  26.985  11.860  12.438
52577W        W12014   2.890   6.811   3.727
52578W        W12015   9.176  26.201  13.946
52579W        W12016  40.861  26.961   0.249
52580W        W12017   5.301  17.708  13.391
52581W        W12018   8.892  33.440   1.403
52582W        W12019  37.499  36.888  10.939
52583W        W12020  42.790  17.782   2.840
52584W        W12021  16.287  32.600   2.672
52585W        W12022  36.400  35.057   3.339
52586W        W12023  23.718  18.099  14.818
52587W        W12024  38.953  29.492   2.339
52588W        W12025  28.576  25.542  11.018
52589W        W12026  40.473   3.454  13.920
52590W        W12027  23.076  43.013  12.473
52591W        W12028  27.690  13.716  11.034
52592W        W12029  15.801   7.880  12.867
52593W        W12030   4.268  10.701  13.312
52594W        W12031  31.990  24.046  12.531
52595W        W12032  28.984  34.443  11.115
52596W        W12033  33.915  43.310   2.188
52597W        W12034  36.050  42.478  11.977
52598W        W12035  41.441  14.216  13.491
52599W        W12036  42.441  37.419  11.086
52600W        W12037  18.711  32.041  12.383
52601W        W12038  21.528  11.811  14.296
52602W        W12039   4.391  33.512   0.378
52603W        W12040  43.887  20.112   1.827
52604W        W12041  13.698  44.315   1.310
52605W        W12042  24.648  36.388  13.026
52606W        W12043  32.515  44.997  14.818
52607W        W12044  35.011  35.868   5.201
52608W        W12045  13.780   0.749  13.439
52609W        W12046  42.000  30.006  14.973
52610W        W12047  33.467  33.058   2.888
52611W        W12048  27.189  15.706  14.415
52612W        W12049   1.890  17.703   0.433
52613W        W12050  43.398  16.205   0.354
52614W        W12051  36.039   4.912   5.243
52615W        W12052  23.105  28.986   1.800
52616W        W12053  28.614  20.245   2.413
52617W        W12054  24.215  43.435  12.904
52618W        W12055  33.622  38.421   9.618
52619W        W12056  11.864  32.084   1.762
52620W        W12057  30.435   2.259  13.510
52621W        W12058  17.712  12.298   3.713
52622W        W12059  11.767  30.037  12.465
52623W        W12060  36.414  34.936  11.461
52624W        W12061  30.075  12.698   3.830
52625W        W12062  22.508  10.190   0.843
52626W        W12063  24.563  32.464  13.456
52627W        W12064  10.149  15.775   1.428
52628W        W12065  31.620  21.580   4.318
52629W        W12066  33.612  29.516   1.257
52630W        W12067  41.306  14.802   2.847
52631W        W12068  30.916  30.060  13.457
52632W        W12069  23.555  23.013  11.865
52633W        W12070  17.708  24.189  11.466
52634W        W12071  42.926  21.115  11.481
52635W        W12072  12.675  31.092   4.148
52636W        W12073   3.405  26.988   1.296
52637W        W12074  28.101  23.525  13.860
52638W        W12075  39.486  25.207   4.709
52639W        W12076  14.627   9.339   1.278
52640W        W12077  36.536  40.830   0.267
52641W        W12078  17.560  12.317  12.546
52642W        W12079  19.578  34.883   4.656
52643W        W12080  39.990  18.656  10.999
52644W        W12081  25.981   1.372  12.888
52645W        W12082  35.442  29.593   3.632
52646W        W12083  16.686  10.316  10.639
52647W        W12084  13.807  42.824  10.030
52648W        W12085  18.727  12.835   2.824
52649W        W12086  39.543   0.815   1.886
52650W        W12087  34.503  40.384  14.836
52651W        W12088  41.425  16.150  10.495
52652W        W12089  38.389  37.837  12.478
52653W        W12090  13.330  17.631  12.897
52654W        W12091   0.268  43.791  12.495
52655W        W12092  44.952  34.038  10.492
52656W        W12093   6.748  25.989   0.306
52657W        W12094  12.301   5.889   1.797
52658W        W12095  38.473   4.393   2.762
52659W        W12096   3.325  44.370  14.456
52660W        W12097   0.446  36.929  11.449
52661W        W12098  26.961  35.910  10.462
52662W        W12099  17.660  13.614  11.086
52663W        W12100  40.536  17.697   2.401
52664W        W12101  14.148   7.172   0.830
52665W        W12102  39.906  38.388   4.618
52666W        W12103  31.520  11.853   2.299
52667W        W12104   1.386  37.938   1.880
52668W        W12105  12.836  31.981   1.241
52669W        W12106   3.876  29.098   3.361
52670W        W12107   1.819  41.819  12.884
52671W        W12108  41.840  39.470  12.494
52672W        W12109  20.635  18.658   1.929
52673W        W12110  39.972  27.613  11.040
52674W        W12111  43.765  28.457  10.948
52675W        W12112   4.808   0.346   3.205
52676W        W12113  28.645  21.630  10.896
52677W        W12114  38.341  20.573   3.179
52678W        W12115  27.643  42.843   3.168
52679W        W12116  13.701   2.272   1.741
52680W        W12117  17.191  38.435  13.488
52681W        W12118  20.114  35.978  13.386
52682W        W12119  13.602  12.624   1.910
52683W        W12120  44.470  30.925  12.021
52684W        W12121   7.371  23.140  11.893
52685W        W12122  27.024  31.441   1.213
52686W        W12123  11.162   3.346   2.360
52687W        W12124  18.691   6.754  11.549
52688W        W12125  11.627  11.233  14.948
52689W        W12126  37.346  43.365  12.986
52690W        W12127   4.781  24.565   5.746
52691W        W12128  29.983  32.476   4.764
52692W        W12129  12.632  29.036   3.170
52693W        W12130  32.573  35.591  12.065
52694W        W12131  43.354  17.742   4.250
52695W        W12132  34.473  10.825   3.358
52696W        W12133  21.063  39.958  10.983
52697W        W12134   9.837  21.232   0.367
52698W        W12135  15.247  42.827  14.337
52699W        W12136  44.453  38.825  12.941
52700W        W12137  22.726  10.776  10.083
52701W        W12138  15.210  31.403   1.328
52702W        W12139  33.396   6.337   0.908
52703W        W12140  21.585  43.978   3.637
52704W        W12141  12.237  22.734  13.310
52705W        W12142  20.609  32.072  11.051
52706W        W12143  36.991  38.921  14.464
52707W        W12144  27.669  22.103  11.529
52708W        W12145  28.038  39.982  12.945
52709W        W12146  44.780   1.859  13.456
52710W        W12147  38.392  18.076  10.495
52711W        W12148  13.657  35.517   2.823
52712W        W12149   2.395  42.809  10.504
52713W        W12150  29.107   9.818  14.976
52714W        W12151  19.746  39.962   0.881
52715W        W12152  30.522  22.544   1.882
52716W        W12153  27.057  32.459  13.435
52717W        W12154  13.343  24.113  12.083
52718W        W12155  11.757  37.440  12.963
52719W        W12156  18.629  32.425  13.392
52720W        W12157  22.220  38.834  10.990
52721W        W12158  14.801  38.828  14.340
52722W        W12159  10.199  21.660   0.254
52723W        W12160  25.162  26.022  14.384
52724W        W12161  39.426  18.178  14.502
52725W        W12162  43.432   3.763  12.467
52726W        W12163   8.841  22.129  13.972
52727W        W12164  37.082  41.320  13.009
52728W        W12165  25.059  39.536  13.432
52729W        W12166   8.173  12.650   2.307
52730W        W12167  13.805   7.772   1.422
52731W        W12168  18.270  14.143   1.404
52732W        W12169   6.225  44.864  11.012
52733W        W12170  27.119   4.234  11.472
52734W        W12171   3.434  10.207   5.209
52735W        W12172   6.809  41.982   3.863
52736W        W12173  30.569  11.133   3.200
52737W        W12174  35.381   4.758  11.460
52738W        W12175  38.479  44.334  14.872
52739W        W12176   8.241  38.061   3.743
52740W        W12177  40.479  33.113   3.152
52741W        W12178  34.482   5.365  13.894
52742W        W12179  39.429  42.427  10.560
52743W        W12180  36.882  36.899  14.323
52744W        W12181  23.065  40.472  11.124
52745W        W12182  25.103  17.091  14.505
52746W        W12183   4.934  34.573  14.326
52747W        W12184  40.997   9.198  11.476
52748W        W12185   1.856  24.708   4.697
52749W        W12186  20.054   4.250  13.408
52750W        W12187  17.792  32.490   0.395
52751W        W12188  33.965  23.155  13.478
52752W        W12189  40.531  33.481  11.426
52753W        W12190  12.688  31.950  13.502
52754W        W12191  23.132   6.266   0.798
52755W        W12192  32.634  12.187   2.807
52756W        W12193  27.448   2.846   4.244
52757W        W12194   3.299  10.208  11.919
52758W        W12195  29.590  19.749   0.761
52759W        W12196  24.177   1.245  11.117
52760W        W12197  28.492  26.982   1.312
52761W        W12198   6.895   0.448  14.775
52762W        W12199  13.201  24.681  12.896
52763W        W12200  26.523  30.455  11.018
52764W        W12201  32.991  26.015  13.353
52765W        W12202  33.112   3.251  14.014
52766W        W12203  42.527  38.521  10.946
52767W        W12204   1.279   3.404  11.440
52768W        W12205  37.030  27.471  10.635
52769W        W12206   6.902  17.272   0.940
52770W        W12207  12.185  34.539  11.012
52771W        W12208  20.717  17.163   9.982
52772W        W12209  24.058  15.274  13.534
52773W        W12210  29.130  26.612   0.388
52774W        W12211  36.868  37.968   0.834
52775W        W12212  28.000  14.176  11.906
52776W        W12213  42.312   0.870  14.842
52777W        W12214  43.481  39.451   4.305
52778W        W12215   2.753  31.462   0.838
52779W        W12216  36.465   4.790   4.179
52780W        W12217  38.855  42.949   3.723
52781W        W12218  15.165  23.055   3.795
52782W        W12219   7.780  38.487   2.885
52783W        W12220  41.511   5.901  12.938
52784W        W12221   3.453  21.713  13.877
52785W        W12222  23.226  27.560  12.841
52786W        W12223  37.427  22.007   4.753
52787W        W12224  14.729   9.776  11.021
52788W        W12225  39.496  13.647   2.293
52789W        W12226  26.091   8.818   3.244
52790W        W12227  10.849  31.125   3.347
52791W        W12228  30.569  21.261   1.447
52792W        W12229  37.563  14.104  12.954
52793W        W12230  16.163   6.412  14.892
52794W        W12231  44.299  15.151  13.952
52795W        W12232  23.009  28.567  13.799
52796W        W12233  33.874   9.797   3.842
52797W        W12234  35.066   8.778   4.336
52798W        W12235  16.713  15.308  14.415
52799W        W12236  13.769  39.816  14.841
52800W        W12237  26.982   4.231  10.994
52801W        W12238  42.304  26.969  10.431
52802W        W12239  18.230  25.482  13.463
52803W        W12240  15.642  13.601   0.364
52804W        W12241   9.711  31.598  13.524
52805W        W12242  33.404  11.693   0.383
52806W        W12243   3.812  32.505   0.370
52807W        W12244  35.970  39.485   2.719
52808W        W12245  30.021   9.684   1.824
52809W        W12246  36.582  43.846  13.887
52810W        W12247  10.736  17.245   3.149
52811W        W12248  39.341  37.444   2.399
52812W        W12249  17.559  15.626   4.811
52813W        W12250  14.606   5.429  10.915
52814W        W12251  34.998  16.306  12.942
52815W        W12252  37.432   4.357   4.640
52816W        W12253  20.525  21.663   3.869
52817W        W12254  29.944  14.598  13.963
52818W        W12255  44.263  18.232  10.584
52819W        W12256   3.883  12.651   3.207
52820W        W12257  14.696  21.186  10.486
52821W        W12258  36.419  23.684  12.444
52822W        W12259   6.804  18.641   2.262
52823W        W12260  14.726  29.105  13.468
52824W        W12261   1.441  22.171  14.335
52825W        W12262  35.107  30.987  12.031
52826W        W12263  10.251  34.591   1.862
52827W        W12264   5.356  27.629  11.092
52828W        W12265  21.135  19.172  11.946
52829W        W12266  40.982  11.201   2.296
52830W        W12267  37.551   6.772  11.067
52831W        W12268  19.189  41.308  12.021
52832W        W12269  34.523   1.909  13.874
52833W        W12270  25.192  41.494  14.510
52834W        W12271  18.781  24.039  13.837
52835W        W12272  24.530  31.125  14.368
52836W        W12273  30.943   0.962  13.870
52837W        W12274  10.301  38.490  10.593
52838W        W12275  34.382  12.253   1.312
52839W        W12276  28.982   8.278  12.991
52840W        W12277  14.212  26.123  10.572
52841W        W12278  42.960   9.163   4.161
52842W        W12279  41.449  42.492   4.246
52843W        W12280  37.060  12.707   3.159
52844W        W12281  43.948   1.761  14.455
52845W        W12282  38.851  34.907   1.218
52846W        W12283  28.954  16.146   1.295
52847W        W12284  29.511  32.965   4.133
52848W        W12285  30.089  26.671   2.804
52849W        W12286  42.399  37.339  12.915
52850W        W12287  36.550  12.707  11.507
52851W        W12288  26.502  38.415  13.057
52852W        W12289  21.122  14.665   3.364
52853W        W12290  16.254  24.614   2.774
52854W        W12291  26.112   5.197   3.386
52855W        W12292  11.852  24.562  10.407
52856W        W12293   7.896  36.900   0.398
52857W        W12294  39.808  10.730   0.726
52858W        W12295  15.676  17.772  12.451
52859W        W12296  28.646  34.438   4.224
52860W        W12297  13.254   3.828  14.927
52861W        W12298  32.006  42.303  13.376
52862W        W12299  14.166  15.726  10.944
52863W        W12300  30.967  23.726  14.803
52864W        W12301  35.054  25.172  13.478
52865W        W12302  26.099  29.948   1.372
52866W        W12303   9.253  35.106  11.865
52867W        W12304  13.707  18.570   3.783
52868W        W12305  18.785   8.262  12.862
52869W        W12306  40.318   0.852   0.287
52870W        W12307   6.394  30.562   3.225
52871W        W12308  40.482   1.900   4.637
52872W        W12309  10.647  20.558  14.015
52873W        W12310  28.633   4.885  11.517
52874W        W12311  16.666   8.271   4.810
52875W        W12312  44.007   5.418   1.875
52876W        W12313  35.873  23.220   0.390
52877W        W12314  43.363  40.497   4.329
52878W        W12315  10.671  10.663   1.277
52879W        W12316   8.742  11.212  12.456
52880W        W12317  19.614  27.071  12.382
52881W        W12318  43.837  32.889   4.341
52882W        W12319  17.069  37.460  12.533
52883W        W12320   9.705   4.922   2.747
52884W        W12321  20.625  31.485  14.864
52885W        W12322  10.202  32.527   2.212
52886W        W12323  19.664   3.887   2.387
52887W        W12324  18.199   3.822  13.950
52888W        W12325  15.318  44.283  13.364
52889W        W12326  27.626   2.310  11.540
52890W        W12327  38.956  18.712  12.519
52891W        W12328  17.200   4.390   0.323
52892W        W12329   9.360  19.259   3.698
52893W        W12330  40.867  38.847   1.929
52894W        W12331  12.652  15.806   3.275
52895W        W12332  39.402  28.013   1.861
52896W        W12333   6.863  37.371   3.682
52897W        W12334  31.137  37.931  14.467
52898W        W12335  24.656  42.923  14.994
52899W        W12336   5.411  11.238   2.413
52900W        W12337  36.901   5.330  11.485
52901W        W12338   1.307  37.442   1.739
52902W        W12339  24.983  37.425   4.277
52903W        W12340  36.942  35.415   1.413
52904W        W12341  16.585  24.635   1.751
52905W        W12342  32.579  30.447  11.097
52906W        W12343  28.102  16.758  11.991
52907W        W12344   8.234  38.367  13.852
52908W        W12345   7.234  33.535  13.520
52909W        W12346   6.186  20.238  12.908
52910W        W12347  43.885   7.278   3.675
52911W        W12348  13.141  43.807   3.323
52912W        W12349   5.914   2.886   0.347
52913W        W12350   7.239  15.641   0.360
52914W        W12351  39.889  19.065   3.295
52915W        W12352  15.679  31.454  11.425
52916W        W12353  40.042  16.635  13.848
52917W        W12354  40.386  14.188  13.446
52918W        W12355  21.177   8.273  10.562
52919W        W12356   6.792  15.622  12.867
52920W        W12357   7.315  41.441  12.981
52921W        W12358  37.876  41.509   1.737
52922W        W12359  26.992  27.656   1.737
52923W        W12360   2.227   2.311   1.922
52924W        W12361  37.459  24.557   4.206
52925W        W12362   4.796  29.164  13.025
52926W        W12363  16.150  34.939  10.643
52927W        W12364   5.325   2.943  14.858
52928W        W12365  29.987   2.863  12.006
52929W        W12366  19.275   7.750   1.738
52930W        W12367  19.074  12.164  13.323
52931W        W12368   6.760  31.944  10.977
52932W        W12369   8.344  34.012   1.824
52933W        W12370  18.554  38.481   2.382
52934W        W12371   4.788   0.270   0.805
52935W        W12372  32.488   7.910  11.127
52936W        W12373   6.261  10.729  11.586
52937W        W12374  34.604  40.972   5.292
52938W        W12375  31.636  16.588  14.910
52939W        W12376   9.197   5.237  13.484
52940W        W12377  15.258  40.523   0.859
52941W        W12378   8.339  44.770   4.130
52942W        W12379   2.323  10.327  12.485
52943W        W12380   0.247   6.730   4.677
52944W        W12381  26.486  42.401  13.412
52945W        W12382  39.003   1.461   3.298
52946W        W12383  29.478  29.065   1.860
52947W        W12384  24.124  42.886  13.804
52948W        W12385   8.234  24.098  10.557
52949W        W12386  17.126  12.610  11.585
52950W        W12387  27.630  21.235   1.819
52951W        W12388  37.528   5.824   0.346
52952W        W12389  30.922  40.337  14.884
52953W        W12390   3.310  17.267  13.375
52954W        W12391  10.206   6.729   2.271
52955W        W12392  13.150  28.996   0.871
52956W        W12393   4.369  23.230  14.410
52957W        W12394  34.959  15.586  13.872
52958W        W12395  29.548  23.719  14.899
52959W        W12396   6.826  21.101  12.570
52960W        W12397  26.467  42.927   3.381
52961W        W12398  36.871  18.286  11.546
52962W        W12399  19.235  25.661  12.577
52963W        W12400  42.489  14.730  10.458
52964W        W12401   4.211  26.079   1.234
52965W        W12402  42.867   1.872   9.995
52966W        W12403  42.010  30.916   0.791
52967W        W12404  22.069  38.849  11.513
52968W        W12405  29.529   5.815   4.712
52969W        W12406   0.402   9.366   2.271
52970W        W12407  13.746  21.680  11.516
52971W        W12408  29.009   2.229  13.827
52972W        W12409  17.066  24.572  12.472
52973W        W12410  29.031  35.970   1.355
52974W        W12411  29.003  19.194   3.760
52975W        W12412  35.424  21.718   0.378
52976W        W12413  31.985  15.577   2.377
52977W        W12414  38.539  31.094   0.953
52978W        W12415   6.379  18.695   2.253
52979W        W12416  22.657  20.181   5.162
52980W        W12417  11.173  27.942   0.362
52981W        W12418  24.663  22.542   0.441
52982W        W12419  34.009  39.847  14.343
52983W        W12420   8.792  17.711   0.799
52984W        W12421   4.883  12.657   4.134
52985W        W12422  11.624  20.194  10.601
52986W        W12423  26.484  35.026   0.438
52987W        W12424   7.739  34.386   4.269
52988W        W12425   9.350  35.975  11.598
52989W        W12426  17.738  32.085  14.954
52990W        W12427  17.578  29.935   3.344
52991W        W12428  16.773  12.640  13.894
52992W        W12429  21.748  11.139  12.074
52993W        W12430  21.515  42.029   0.312
52994W        W12431  18.664  11.129  13.452
52995W        W12432  39.545   2.958  12.973
52996W        W12433  33.606  12.260  13.543
52997W        W12434  41.418  28.491   0.760
52998W        W12435   9.375  37.486   4.667
52999W        W12436   9.722   8.249   3.258
53000W        W12437  26.491  18.279   3.629
53001W        W12438  26.136  11.321   3.718
53002W        W12439  37.910  10.372  14.458
53003W        W12440  17.064  36.948  14.981
53004W        W12441   8.803  17.184  13.919
53005W        W12442  33.499  20.274  13.401
53006W        W12443  34.485   3.376  14.959
53007W        W12444  40.424  34.499   1.849
53008W        W12445  25.669  19.689  10.063
53009W        W12446  34.957  27.085  13.873
53010W        W12447  22.030  17.579   4.187
53011W        W12448  10.701  16.193  12.088
53012W        W12449   8.716  43.420   1.314
53013W        W12450   0.400  42.867  14.509
53014W        W12451  17.207  14.621   4.170
53015W        W12452  12.270  26.634  11.576
53016W        W12453  26.602  23.730  14.399
53017W        W12454  37.994  28.172  12.575
53018W        W12455  21.047  15.245  12.849
53019W        W12456  21.045  33.122   4.832
53020W        W12457  17.664  15.636   0.418
53021W        W12458   8.362  39.389   3.806
53022W        W12459  20.743  29.582   0.771
53023W        W12460  36.950   7.323   1.327
53024W        W12461  12.315   6.786   0.785
53025W        W12462  23.986  24.557   1.915
53026W        W12463  36.358  19.610  13.851
53027W        W12464  10.324  35.363   0.340
53028W        W12465  44.290  24.182   2.397
53029W        W12466  25.066   3.867  10.425
53030W        W12467  33.521   1.276   2.746
53031W        W12468  21.597  16.702   1.754
53032W        W12469  36.583  19.276   2.208
53033W        W12470  27.628  22.078  11.066
53034W        W12471  12.345   1.269  12.462
53035W        W12472  15.783  24.080   2.703
53036W        W12473  36.453   4.273  10.579
53037W        W12474  18.146   9.316  13.418
53038W        W12475  25.514   1.855  13.449
53039W        W12476  20.762  26.695  10.520
53040W        W12477  30.986  17.613  14.985
53041W        W12478   3.221  20.174  11.958
53042W        W12479  23.226  14.237  10.934
53043W        W12480  25.571  32.053  11.938
53044W        W12481  15.723   4.247  14.447
53045W        W12482  21.548  18.722   0.478
53046W        W12483  37.504  36.949   1.800
53047W        W12484   7.667   5.413  10.623
53048W        W12485   9.762   5.362  14.368
53049W        W12486  41.890   6.780   1.303
53050W        W12487   7.716  31.959   0.753
53051W        W12488   8.363   8.799   4.311
53052W        W12489  29.151  33.606  10.962
53053W        W12490   0.413  19.258  13.499
53054W        W12491  27.005  25.990  13.520
53055W        W12492  29.015  30.020  13.448
53056W        W12493  16.576   4.730  11.391
53057W        W12494  28.508  22.582  12.077
53058W        W12495  28.960  17.089  14.834
53059W        W12496  33.876  21.184   3.172
53060W        W12497  14.779  10.840  11.408
53061W        W12498   1.945  23.172  12.497
53062W        W12499  33.000  12.659  11.445
53063W        W12500  17.576  28.508   0.919
53064W        W12501  41.371  12.652   2.185
53065W        W12502  18.210  20.108   1.812
53066W        W12503  39.530  44.273   1.793
53067W        W12504  28.049  25.558  13.456
53068W        W12505   6.722  18.083   2.260
53069W        W12506  27.508   5.862  13.999
53070W        W12507  38.371  30.928  13.812
53071W        W12508  21.190  38.523  14.946
53072W        W12509   3.715  31.100   3.668
53073W        W12510  26.188  41.951   2.801
53074W        W12511  40.456  22.715   2.226
53075W        W12512  17.732  38.949   0.397
53076W        W12513  33.878   0.448   1.395
53077W        W12514  36.544  44.844   4.745
53078W        W12515  16.598  44.861   3.737
53079W        W12516  29.024  13.246   4.652
53080W        W12517  15.172   2.439  11.100
53081W        W12518  13.610  31.464   1.365
53082W        W12519  38.993   1.482  13.828
53083W        W12520  19.648  27.668   1.887
53084W        W12521   3.459   5.829   0.479
53085W        W12522  30.435   2.894   0.768
53086W        W12523  35.929  14.598   2.662
53087W        W12524  19.046  39.983   1.868
53088W        W12525   7.384  16.145  11.104
53089W        W12526  25.034   7.280   1.441
53090W        W12527   9.229  27.498   9.510
53091W        W12528  13.109   6.248  10.072
53092W        W12529  18.278  15.604  12.556
53093W        W12530  14.816  10.336  14.989
53094W        W12531  37.021  25.676   2.300
53095W        W12532  40.926   9.392  14.511
53096W        W12533  25.109  39.923  13.848
53097W        W12534  28.071  44.258   4.155
53098W        W12535  12.247   8.372  13.035
53099W        W12536   2.300  31.096   4.169
53100W        W12537  30.075  31.488   2.263
53101W        W12538  13.636  31.536   2.820
53102W        W12539  26.195  39.440  12.556
53103W        W12540  29.554  21.547   4.220
53104W        W12541  34.581  35.597   4.319
53105W        W12542   7.706  27.471  11.900
53106W        W12543  36.863  32.888   4.162
53107W        W12544   2.346  22.195   0.414
53108W        W12545  31.597  17.211   2.754
53109W        W12546  21.172   2.407  10.481
53110W        W12547   7.890   2.874  11.023
53111W        W12548  41.506  36.348  10.905
53112W        W12549  38.873   8.780  14.488
53113W        W12550  13.780   6.314   2.784
53114W        W12551   0.868  10.285   0.864
53115W        W12552  35.037  34.385   2.802
53116W        W12553   8.381  14.654   0.905
53117W        W12554   1.470  44.835  11.586
53118W        W12555  38.452   0.807   2.752
53119W        W12556  32.549  37.497   3.287
53120W        W12557   0.800   0.454  12.967
53121W        W12558  25.213  16.297  14.898
53122W        W12559  25.627  18.290  11.485
53123W        W12560   2.278  39.936   3.269
53124W        W12561  29.149  41.892   3.725
53125W        W12562  25.193  25.520  14.495
53126W        W12563   0.447   0.291   2.315
53127W        W12564  31.005   7.811   1.697
53128W        W12565  39.527  26.619   1.832
53129W        W12566  43.002  17.175   2.252
53130W        W12567  24.062  40.529  14.444
53131W        W12568  17.761   0.902   1.930
53132W        W12569  12.692  16.695  12.380
53133W        W12570   9.745   1.886  10.422
53134W        W12571  20.037  26.004  12.847
53135W        W12572  26.168  16.676  11.431
53136W        W12573  32.429  22.561   0.420
53137W        W12574  20.057  29.648   4.786
53138W        W12575  40.331   4.434   3.744
53139W        W12576  29.474   1.908  14.955
53140W        W12577  28.638  12.780  12.570
53141W        W12578  33.418  39.361  11.498
53142W        W12579   8.330   9.312  11.537
53143W        W12580  20.063   3.392  12.568
53144W        W12581  21.709  44.325   0.847
53145W        W12582   2.428  36.097   3.330
53146W        W12583  14.768   1.836   3.780
53147W        W12584  40.856  36.499   0.371
53148W        W12585  28.940  39.935  11.982
53149W        W12586  33.995  29.030  10.986
53150W        W12587   0.899  26.505  11.028
53151W        W12588  35.931  42.032  12.477
53152W        W12589  24.098   3.711  10.940
53153W        W12590  35.503  33.919  11.413
53154W        W12591  21.528  11.228   1.348
53155W        W12592  35.409  21.717   3.312
53156W        W12593  26.129  42.523  13.999
53157W        W12594   2.814  36.486  10.434
53158W        W12595  21.704  12.801   0.777
53159W        W12596  35.996  18.555   3.864
53160W        W12597   4.340  16.147   4.115
53161W        W12598  17.725  26.182  14.361
53162W        W12599  36.889  36.018  14.789
53163W        W12600  27.641  16.662   4.751
53164W        W12601  42.795  13.167   0.837
53165W        W12602  39.390  40.448   1.911
53166W        W12603  38.416  31.492   1.735
53167W        W12604  14.646  40.536  14.343
53168W        W12605  41.935   2.358   4.823
53169W        W12606  30.990   2.926   4.640
53170W        W12607  25.673  31.954  10.638
53171W        W12608  25.023  11.762  12.915
53172W        W12609   6.724  22.690  10.911
53173W        W12610   5.762  30.162  13.986
53174W        W12611  31.143  36.386  11.933
53175W        W12612   4.897  36.054   5.259
53176W        W12613   4.282  23.580  12.390
53177W        W12614  41.896  44.313  14.344
53178W        W12615  37.351  25.016  14.007
53179W        W12616  29.620  39.934   3.223
53180W        W12617  39.533  30.089   2.837
53181W        W12618  12.349  19.685   4.746
53182W        W12619   8.195  22.522   3.341
53183W        W12620  20.194  31.143  10.481
53184W        W12621  12.332   2.953   4.824
53185W        W12622  42.506  10.878   2.681
53186W        W12623  43.379   9.150  10.568
53187W        W12624   0.884   4.863  14.894
53188W        W12625  13.799   2.850  12.983
53189W        W12626  24.571  42.921  13.537
53190W        W12627  33.590  19.108   0.827
53191W        W12628  40.834  12.727  13.441
53192W        W12629  32.600  12.192   1.702
53193W        W12630  40.022  34.076   0.906
53194W        W12631  24.648   5.794  10.940
53195W        W12632  38.976  32.938   1.729
53196W        W12633  43.331  44.769   3.631
53197W        W12634  35.484  33.912  10.527
53198W        W12635  20.181  13.656   1.356
53199W        W12636  22.106  13.697   3.685
53200W        W12637  34.449   7.277   3.866
53201W        W12638   2.937  39.483  14.027
53202W        W12639  38.564  30.643  14.355
53203W        W12640   7.905  32.069   4.345
53204W        W12641   3.291  14.757  11.586
53205W        W12642   2.753  43.843   4.657
53206W        W12643  38.953  22.057   4.239
53207W        W12644  41.819  43.273  14.900
53208W        W12645  38.483  15.278  14.819
53209W        W12646  32.014  42.347   0.730
53210W        W12647  34.461   3.852   3.760
53211W        W12648  34.879   9.875  11.536
53212W        W12649  40.522  26.620   1.338
53213W        W12650  33.565  40.485  10.565
53214W        W12651  27.508  27.950   1.783
53215W        W12652  44.759   8.186   2.662
53216W        W12653  43.802  11.192   3.765
53217W        W12654  41.900  43.366  11.485
53218W        W12655   3.807   9.178  13.901
53219W        W12656   5.197  31.135   2.786
53220W        W12657  13.283   0.963  12.845
53221W        W12658  29.527  10.255  12.084
53222W        W12659   8.791  32.616   1.322
53223W        W12660   6.906  34.929   0.790
53224W        W12661  22.130  43.412  12.354
53225W        W12662  39.525  28.460   2.362
53226W        W12663   8.883  21.514  12.524
53227W        W12664  31.507  34.376  12.070
53228W        W12665  14.619  44.958  11.591
53229W        W12666  14.100  14.318  12.017
53230W        W12667   8.268   6.895  11.030
53231W        W12668   9.760  38.464   0.862
53232W        W12669  14.589  43.991  12.383
53233W        W12670  11.727   2.892   4.781
53234W        W12671  18.565  43.802  14.781
53235W        W12672  36.916   4.393  13.344
53236W        W12673  30.042  10.683  14.817
53237W        W12674  12.144  22.252  12.505
53238W        W12675   8.738  14.283  11.124
53239W        W12676  42.962  43.903   4.223
53240W        W12677  20.677  32.008   1.436
53241W        W12678  34.558  10.704  13.525
53242W        W12679   8.863  21.138   1.317
53243W        W12680  38.035  38.050  14.955
53244W        W12681  12.191  27.181   1.401
53245W        W12682  22.729  26.471  12.500
53246W        W12683  41.387  15.297  11.547
53247W        W12684   9.659  11.631   0.415
53248W        W12685  26.059   5.712  14.410
53249W        W12686  20.603  42.955   5.106
53250W        W12687   2.931  21.189  11.108
53251W        W12688  29.118   0.296   3.832
53252W        W12689  27.127  40.999   1.428
53253W        W12690   2.920  43.904  10.616
53254W        W12691  40.954   0.442   4.191
53255W        W12692  40.368  43.273   1.704
53256W        W12693  27.966  21.258   1.744
53257W        W12694  40.988  40.324   0.438
53258W        W12695  43.499  44.886   2.716
53259W        W12696  23.108  17.633   2.337
53260W        W12697  25.642  34.560  14.864
53261W        W12698  31.606   3.933  14.979
53262W        W12699  13.271  19.634   1.832
53263W        W12700  23.567  31.637   2.271
53264W        W12701   8.375  33.428  13.327
53265W        W12702  40.320  39.396   3.378
53266W        W12703  34.890  22.537  11.414
53267W        W12704  40.831  34.086  10.524
53268W        W12705   3.918   8.861   3.718
53269W        W12706  40.006  10.774  12.936
53270W        W12707  15.640   0.848   3.689
53271W        W12708  10.828   2.889  10.644
53272W        W12709  16.230  17.179   3.707
53273W        W12710  27.565  44.284  14.948
53274W        W12711  39.870  37.032   1.387
53275W        W12712  19.198  14.281  13.990
53276W        W12713  30.968   1.779   4.324
53277W        W12714  26.994  18.076   3.841
53278W        W12715   5.770  32.984  11.605
53279W        W12716  20.153  13.199  14.281
53280W        W12717  22.526  39.421   0.837
53281W        W12718  27.523   8.280  12.364
53282W        W12719  35.478  44.812   3.376
53283W        W12720  17.206  18.696   1.419
53284W        W12721  41.918  17.196   4.167
53285W        W12722  17.291   7.246  14.302
53286W        W12723  13.799  36.511   4.793
53287W        W12724  27.967  28.994   0.293
53288W        W12725   9.164  27.457  13.386
53289W        W12726  26.203  16.744   2.366
53290W        W12727  33.966  12.310   3.266
53291W        W12728  10.371  14.805   1.409
53292W        W12729  41.296  37.860  11.556
53293W        W12730   6.239  11.182  12.455
53294W        W12731  10.259  12.631  11.423
53295W        W12732   3.825  12.126   0.307
53296W        W12733   8.881  19.145  11.011
53297W        W12734  32.004   8.748  14.904
53298W        W12735  28.580  31.995  13.316
53299W        W12736  16.706  27.003  14.396
53300W        W12737  38.863  37.914  11.109
53301W        W12738  40.031  11.653  12.974
53302W        W12739  23.048  27.512   1.819
53303W        W12740  10.858  18.159   2.253
53304W        W12741  36.498  34.071  12.934
53305W        W12742  38.948  20.226   4.127
53306W        W12743  29.488  44.343  10.525
53307W        W12744  27.987   3.217   4.634
53308W        W12745  31.459   1.284   0.288
53309W        W12746  18.278  19.208   1.758
53310W        W12747  36.089  34.943   3.837
53311W        W12748   4.292  17.140  11.939
53312W        W12749  42.949  41.908  14.926
53313W        W12750  37.974  31.524   3.698
53314W        W12751   7.721  27.124   0.908
53315W        W12752   3.311  36.538  13.868
53316W        W12753   0.292  31.420  14.986
53317W        W12754  38.438  12.795  14.883
53318W        W12755  30.958  14.286   3.331
53319W        W12756   5.787  28.106  14.455
53320W        W12757  36.972   3.412  12.962
53321W        W12758   0.304  35.095   2.719
53322W        W12759  25.567  36.418   4.699
53323W        W12760  43.819  12.247   4.641
53324W        W12761  28.503  12.202  14.339
53325W        W12762  10.268  37.535   4.757
53326W        W12763  36.924  15.264   2.733
53327W        W12764   7.297  23.587   0.337
53328W        W12765   0.475  21.085   4.635
53329W        W12766   0.817  21.512  13.054
53330W        W12767  31.607  26.985  11.073
53331W        W12768  44.275  23.630  10.532
53332W        W12769   4.781   6.395  12.988
53333W        W12770   3.386  20.734   0.928
53334W        W12771   6.400  21.152  10.583
53335W        W12772  38.014  40.990  12.438
53336W        W12773  30.160  33.509  12.013
53337W        W12774   5.201   1.373   3.809
53338W        W12775  28.500  18.188  14.495
53339W        W12776   0.474   7.787  14.403
53340W        W12777  10.836  39.425   3.816
53341W        W12778  42.434  43.890  11.891
53342W        W12779  15.162  21.628   0.394
53343W        W12780  11.771  17.790   1.318
53344W        W12781   2.811  37.922   0.791
53345W        W12782  17.194  15.762   3.199
53346W        W12783  44.789  13.616   3.666
53347W        W12784  41.303   5.239  10.989
53348W        W12785  34.055  32.617  10.503
53349W        W12786  31.020  40.532  14.339
53350W        W12787   6.915   7.769   2.192
53351W        W12788   3.440  26.629   3.197
53352W        W12789  36.846  21.024   1.788
53353W        W12790  13.752   7.686   2.263
53354W        W12791  30.629  13.795   0.441
53355W        W12792  22.021  15.625  11.539
53356W        W12793  24.701  31.105   0.312
53357W        W12794  30.023  44.368   2.662
53358W        W12795  41.422  15.582   2.387
53359W        W12796  33.118  42.373   1.373
53360W        W12797  11.783  41.437   4.275
53361W        W12798  12.299  10.278   0.268
53362W        W12799  30.156   7.192   0.754
53363W        W12800  22.081  11.132   4.761
53364W        W12801  25.109  33.026   0.414
53365W        W12802  34.990  44.889   0.917
53366W        W12803  13.342  13.154   0.734
53367W        W12804  38.023  24.620   4.797
53368W        W12805  33.585  19.062  10.574
53369W        W12806  31.146  32.947  12.510
53370W        W12807  35.860  19.568   3.193
53371W        W12808  13.340  19.577   1.350
53372W        W12809  18.082  31.910   3.708
53373W        W12810  21.218  37.382   2.273
53374W        W12811   2.252   3.369   0.402
53375W        W12812  39.935  14.632   0.780
53376W        W12813  44.791  40.446  12.897
53377W        W12814  21.570  22.241   1.730
53378W        W12815  33.030  14.301   2.903
53379W        W12816  23.671  37.047  13.461
53380W        W12817  38.009   7.301   9.925
53381W        W12818   1.955  15.764   2.293
53382W        W12819  27.545  34.561   0.824
53383W        W12820   3.340  25.104  14.992
53384W        W12821  25.049  34.932  10.986
53385W        W12822  41.903  19.221  14.338
53386W        W12823  36.523  30.160   2.246
53387W        W12824  38.931  42.822  12.383
53388W        W12825  12.705  38.839   1.249
53389W        W12826   0.910   2.909  14.837
53390W        W12827  37.476  26.563  11.952
53391W        W12828  28.953  11.715  10.577
53392W        W12829  16.287   4.237   2.359
53393W        W12830   6.905  41.361  13.888
53394W        W12831  39.514  21.076  12.838
53395W        W12832   5.239  40.546  13.981
53396W        W12833  24.058  24.692  14.809
53397W        W12834  11.723  10.306   3.243
53398W        W12835  17.198  16.157  14.815
53399W        W12836  17.679  41.876   4.711
53400W        W12837  26.535  23.207  10.152
53401W        W12838  32.982  33.123  12.859
53402W        W12839  16.291  36.071  13.941
53403W        W12840  40.493  29.067   0.414
53404W        W12841  17.774   6.846  11.452
53405W        W12842  14.617  13.808   4.677
53406W        W12843  12.349   3.329  13.845
53407W        W12844  21.718  34.480  12.825
53408W        W12845  38.025  25.148  14.999
53409W        W12846  21.160  20.693  12.930
53410W        W12847  14.758  23.209  13.996
53411W        W12848  43.997  40.887  13.039
53412W        W12849  10.243  15.747  13.824
53413W        W12850  25.105   3.333   2.289
53414W        W12851  40.497  40.020  13.502
53415W        W12852  32.091  39.966  13.527
53416W        W12853  37.857  15.139  11.011
53417W        W12854  31.588   9.371  11.553
53418W        W12855  31.000   0.864   3.639
53419W        W12856  37.482  28.946  10.499
53420W        W12857  40.842  25.700  11.108
53421W        W12858  39.857  24.197  13.506
53422W        W12859   1.799   5.225   4.704
53423W        W12860   5.216  35.912  10.931
53424W        W12861  18.644  25.492  13.847
53425W        W12862  14.783  25.645  10.427
53426W        W12863  16.175  32.560  14.008
53427W        W12864  10.791  17.591  14.783
53428W        W12865  38.526   8.664   3.147
53429W        W12866  42.006  19.280  12.082
53430W        W12867  18.696  15.329   2.275
53431W        W12868  27.033  36.009   3.665
53432W        W12869   4.343   0.416   2.830
53433W        W12870  30.086  10.219  14.458
53434W        W12871  30.545   1.758  10.639
53435W        W12872  22.529  40.366  13.463
53436W        W12873  12.636   4.730   0.274
53437W        W12874  29.505   5.320   1.237
53438W        W12875   5.267  20.692   1.347
53439W        W12876  19.068  27.605   0.350
53440W        W12877   1.457  40.033   4.681
53441W        W12878  38.442  13.331   0.878
53442W        W12879  18.664  35.072  14.285
53443W        W12880  15.723  20.149  13.374
53444W        W12881  33.577  37.974   9.966
53445W        W12882  15.186   3.724   0.872
53446W        W12883   0.980  24.113   5.100
53447W        W12884  12.337   7.795   3.654
53448W        W12885  10.744  38.456  10.414
53449W        W12886  40.904  21.512   2.780
53450W        W12887  28.517  33.110  11.593
53451W        W12888  36.588  36.014   4.679
53452W        W12889  43.923  21.217   1.247
53453W        W12890  15.146  32.032  11.460
53454W        W12891  24.099  10.825   5.210
53455W        W12892  19.549  10.751  14.432
53456W        W12893  43.458  17.090  13.874
53457W        W12894  30.543  25.186   3.675
53458W        W12895  13.247  39.345  14.958
53459W        W12896  14.631  33.382   1.312
53460W        W12897   8.860  11.766   1.335
53461W        W12898   5.709  10.781   4.235
53462W        W12899  33.127   5.420  14.396
53463W        W12900  35.051  26.028   1.302
53464W        W12901   8.675  19.071   4.123
53465W        W12902   0.942  17.737   4.819
53466W        W12903  22.025  23.672  14.770
53467W        W12904  36.390   0.388  11.027
53468W        W12905  21.558  12.654   2.392
53469W        W12906  43.317  17.074   0.424
53470W        W12907   7.885   6.779   4.710
53471W        W12908  23.694  26.487  12.519
53472W        W12909  40.816   1.292  11.586
53473W        W12910   5.737   8.719  11.452
53474W        W12911  33.612  15.687   3.226
53475W        W12912  35.918  19.716  13.950
53476W        W12913  12.802  27.495   4.791
53477W        W12914  41.925  44.961   3.701
53478W        W12915  13.628  40.815   2.737
53479W        W12916   1.787   9.158   1.364
53480W        W12917  10.188  12.356  11.382
53481W        W12918  15.782  41.506  12.496
53482W        W12919  36.898  24.980  11.502
53483W        W12920  28.640  18.720   3.224
53484W        W12921  12.332  26.530  11.081
53485W        W12922   4.892   1.758  12.494
53486W        W12923  17.275  23.103   0.821
53487W        W12924  37.058  38.497   2.274
53488W        W12925  42.288  18.684  12.987
53489W        W12926   6.293  15.116   4.304
53490W        W12927  10.308   8.839   3.753
53491W        W12928   3.919  36.361  13.323
53492W        W12929  10.365  37.869   4.123
53493W        W12930   0.292   3.925  11.547
53494W        W12931  39.530   3.447   3.796
53495W        W12932   3.335  37.557  11.088
53496W        W12933   1.458   1.911  12.082
53497W        W12934  18.276  11.165   2.874
53498W        W12935  12.350  37.949  12.897
53499W        W12936  28.661  31.908  10.497
53500W        W12937  19.536   4.894   1.385
53501W        W12938  17.188  10.365   4.646
53502W        W12939  23.148  27.046   1.830
53503W        W12940  18.687   6.737   4.300
53504W        W12941  29.554  30.619   3.321
53505W        W12942  32.591  19.232   4.201
53506W        W12943  11.131  26.508  10.918
53507W        W12944   5.333  26.695   2.227
53508W        W12945  32.929  24.663  10.499
53509W        W12946  18.577  40.989   1.811
53510W        W12947  44.880  39.464  14.394
53511W        W12948  34.386   6.685   0.379
53512W        W12949   1.802  24.516   3.829
53513W        W12950  33.384  37.393   4.233
53514W        W12951  11.198  33.500   1.859
53515W        W12952   5.373  41.835   2.884
53516W        W12953  25.962   0.369   1.713
53517W        W12954  26.553  24.981   0.880
53518W        W12955  14.318  41.500   1.213
53519W        W12956   0.985  24.725   0.734
53520W        W12957  39.530  11.277   1.776
53521W        W12958  16.784  29.061   0.278
53522W        W12959  22.525  34.010  14.386
53523W        W12960  39.977   7.249  13.979
53524W        W12961  37.935  32.000  10.459
53525W        W12962  23.732  30.499   0.850
53526W        W12963  36.468  22.650   2.740
53527W        W12964  28.670  12.703  14.852
53528W        W12965   0.841  29.627   0.348
53529W        W12966  21.089  16.242   4.118
53530W        W12967   9.771  39.536  10.497
53531W        W12968   6.292   9.806  10.891
53532W        W12969  40.495  36.876  10.448
53533W        W12970  44.461  37.025  14.941
53534W        W12971   5.739   8.740  13.046
53535W        W12972  31.617   9.741  11.562
53536W        W12973  33.085  35.418  10.511
53537W        W12974  18.146  35.538   2.299
53538W        W12975  34.015  24.716  11.610
53539W        W12976   7.847  29.016  10.995
53540W        W12977  21.151  15.798  12.389
53541W        W12978  41.964  13.782   3.354
53542W        W12979  42.417   7.261  13.402
53543W        W12980  13.159  21.732   4.352
53544W        W12981  31.603  35.542   0.479
53545W        W12982  24.597  34.937  11.450
53546W        W12983  26.988  25.698  12.567
53547W        W12984  21.197   9.170   2.682
53548W        W12985  19.578  31.047   0.452
53549W        W12986   5.251  36.404  10.422
53550W        W12987  11.308  36.907   2.209
53551W        W12988  22.618  10.357   1.220
53552W        W12989  42.419  39.966  12.568
53553W        W12990  24.118  32.421   4.689
53554W        W12991  35.361  15.600   2.341
53555W        W12992   3.217   2.731   3.643
53556W        W12993  42.972   3.290  10.920
53557W        W12994  37.453   1.447   4.716
53558W        W12995  40.398  24.995  12.470
53559W        W12996  38.405   8.383  14.315
53560W        W12997  21.611  24.539  12.415
53561W        W12998  32.609  27.145   3.812
53562W        W12999  37.886  36.515  14.864
53563W        W13000   3.832   3.938  14.893
53564W        W13001  25.106  36.543   9.988
53565W        W13002  14.730  29.670   4.325
53566W        W13003  30.641  30.535   2.332
53567W        W13004  30.044  21.193  12.395
53568W        W13005  26.683  17.756   1.366
53569W        W13006   1.380  19.123  14.394
53570W        W13007  24.174  10.721   0.879
53571W        W13008  21.166  34.444   3.210
53572W        W13009  13.608  43.476   1.935
53573W        W13010  41.429  38.452  12.484
53574W        W13011  43.843   8.747   1.339
53575W        W13012  31.450  44.896  11.088
53576W        W13013  40.327  42.326  14.346
53577W        W13014   3.736   8.169   4.127
53578W        W13015  18.709  22.627  13.037
53579W        W13016  10.163   0.829   1.837
53580W        W13017   5.734  39.960   1.923
53581W        W13018  37.399  36.075   2.760
53582W        W13019  40.399  16.678   2.862
53583W        W13020   2.826   2.780  12.516
53584W        W13021  37.963   5.225  13.816
53585W        W13022  18.666  33.009   2.689
53586W        W13023  15.181  18.098   4.625
53587W        W13024  42.852   7.345   4.122
53588W        W13025   3.942  39.040   2.763
53589W        W13026   4.384  18.293   1.765
53590W        W13027   9.668  13.275  13.889
53591W        W13028  14.146   5.343   0.483
53592W        W13029  15.778  33.540   2.859
53593W        W13030   1.250   6.706  13.915
53594W        W13031   9.756  26.185   2.761
53595W        W13032  36.894  43.366   2.665
53596W        W13033  19.130  34.070   1.352
53597W        W13034  42.472  11.740  11.986
53598W        W13035  13.811   2.912  14.013
53599W        W13036  41.523  37.950   0.422
53600W        W13037  15.721  39.363  12.420
53601W        W13038  28.981   3.779  13.954
53602W        W13039  39.459  31.487  13.808
53603W        W13040  35.402  37.996   4.305
53604W        W13041  44.808   6.318  14.882
53605W        W13042   9.833  41.420  11.959
53606W        W13043  18.125  21.048  14.316
53607W        W13044  22.065  17.099   1.757
53608W        W13045  27.543  27.035   0.469
53609W        W13046   9.293  10.172  10.611
53610W        W13047  29.062   6.289   3.671
53611W        W13048  35.986   6.720  11.562
53612W        W13049  34.431  13.139   4.141
53613W        W13050   6.689  43.886  12.859
53614W        W13051  35.026  29.559   0.358
53615W        W13052  23.506   0.763  11.057
53616W        W13053   5.884   7.711   1.264
53617W        W13054  21.618  30.541  11.578
53618W        W13055  31.015  14.120   2.770
53619W        W13056   4.231  42.332  14.421
53620W        W13057   4.216  23.100  10.581
53621W        W13058   8.773   7.888  13.376
53622W        W13059  29.632  42.823   1.728
53623W        W13060   5.227   9.365   2.273
53624W        W13061  22.652  19.534   0.855
53625W        W13062  32.441   2.233  14.467
53626W        W13063   5.703  32.613   2.335
53627W        W13064  11.298  44.765  14.942
53628W        W13065  15.687   4.365   0.838
53629W        W13066   3.783  35.364   4.636
53630W        W13067  14.596  25.064  13.311
53631W        W13068  34.902  23.176  12.479
53632W        W13069   4.811  32.038  10.493
53633W        W13070  24.556  29.152   3.148
53634W        W13071  12.208  32.401   0.921
53635W        W13072  44.342  18.746  13.540
53636W        W13073  20.158   2.861  14.787
53637W        W13074   5.930   5.928   3.780
53638W        W13075  39.434  43.420   4.187
53639W        W13076  30.919  16.612   1.394
53640W        W13077  25.591  13.123  13.861
53641W        W13078  19.671  39.535   9.579
53642W        W13079  14.808   9.311  10.535
53643W        W13080   6.834  12.705   0.396
53644W        W13081  21.552  23.108   1.771
53645W        W13082   5.797   5.922   0.916
53646W        W13083  38.983   3.826  13.530
53647W        W13084   7.872  23.146  12.448
53648W        W13085  11.174  37.486  12.363
53649W        W13086  13.660   2.321   3.154
53650W        W13087  43.853  28.996   2.276
53651W        W13088  15.163  31.957  14.806
53652W        W13089  13.806  25.509   3.348
53653W        W13090  12.321  44.311   2.875
53654W        W13091  39.988  31.558  14.009
53655W        W13092   8.732  29.498  12.936
53656W        W13093  44.912  14.267  11.054
53657W        W13094  15.105  13.240  10.453
53658W        W13095  31.630   5.770  12.556
53659W        W13096  26.986   3.710   1.219
53660W        W13097  29.946  38.467  13.878
53661W        W13098  36.384  26.081  13.857
53662W        W13099  32.957  42.510  12.996
53663W        W13100   6.697  43.506   2.777
53664W        W13101  16.677  30.050  13.877
53665W        W13102   0.314  33.035  11.598
53666W        W13103  33.483  33.084   4.282
53667W        W13104  23.674  33.541  12.848
53668W        W13105  42.455   7.679   4.353
53669W        W13106  21.636   1.340  11.035
53670W        W13107  38.534  31.965  11.601
53671W        W13108  17.253  12.285  13.361
53672W        W13109   2.313  38.005  14.446
53673W        W13110  17.096  11.279   1.883
53674W        W13111  26.964   6.695  12.017
53675W        W13112   0.745  32.574  11.071
53676W        W13113   0.456  12.354  12.470
53677W        W13114   7.350  36.491   2.279
53678W        W13115   8.872  17.195   4.169
53679W        W13116  22.998  30.106  14.360
53680W        W13117  28.548  16.797  12.565
53681W        W13118  23.614  34.403  11.921
53682W        W13119   3.852  38.558   4.136
53683W        W13120  37.540  10.359  11.541
53684W        W13121  26.113  30.998  12.884
53685W        W13122  24.219  18.560  11.390
53686W        W13123  12.319  34.418  14.418
53687W        W13124  44.321   8.348  10.580
53688W        W13125   0.439  35.005   3.762
53689W        W13126  39.332   8.269   4.731
53690W        W13127  29.109  37.006   1.829
53691W        W13128  39.447   7.694  13.919
53692W        W13129   9.229  36.056   0.761
53693W        W13130  20.169  17.765   2.232
53694W        W13131  35.367  39.539  13.526
53695W        W13132   9.263  38.922  10.018
53696W        W13133  21.077  30.429  14.418
53697W        W13134  29.001   7.280  10.900
53698W        W13135  21.600  36.072   2.339
53699W        W13136   0.901  31.088  14.355
53700W        W13137  12.642  32.593  14.896
53701W        W13138  44.856  44.275  12.486
53702W        W13139   6.772  29.067   0.380
53703W        W13140  41.879  26.696   2.869
53704W        W13141  10.686  24.702   0.424
53705W        W13142   3.727  19.775  10.989
53706W        W13143   5.213  21.030  10.417
53707W        W13144  43.504  38.973   4.264
53708W        W13145   6.723  18.657   0.892
53709W        W13146  36.905  33.573   1.713
53710W        W13147  27.083  12.689  14.276
53711W        W13148  16.716  33.077   0.747
53712W        W13149   5.810  14.694   0.296
53713W        W13150   8.676  30.985  14.923
53714W        W13151  23.986   5.279  13.989
53715W        W13152  23.996   1.810   2.252
53716W        W13153  31.153  19.606   4.301
53717W        W13154  38.973  36.361   1.702
53718W        W13155  43.384  31.091   3.638
53719W        W13156   1.940  29.503  13.841
53720W        W13157  40.849  18.276  13.851
53721W        W13158  27.961  24.491  12.043
53722W        W13159   1.464  33.490   2.801
53723W        W13160  22.112  38.431  11.570
53724W        W13161  37.479  34.925   2.344
53725W        W13162  38.497  32.994  10.499
53726W        W13163  24.007   4.923   0.909
53727W        W13164  16.212  18.742  11.411
53728W        W13165  21.714   7.812   3.205
53729W        W13166  33.895  24.639   9.988
53730W        W13167  37.342  28.602  11.399
53731W        W13168  16.577  25.967  10.471
53732W        W13169  36.530  36.575  14.400
53733W        W13170   3.256  43.774  14.928
53734W        W13171  24.157  19.115  12.919
53735W        W13172  21.546  40.818  14.470
53736W        W13173  12.697  38.371  12.355
53737W        W13174   5.437  13.676   3.278
53738W        W13175   8.716  38.446   3.713
53739W        W13176  32.543   0.974   1.796
53740W        W13177  40.386  29.976  13.853
53741W        W13178  18.596  36.371   0.454
53742W        W13179   8.402  24.643  10.532
53743W        W13180   0.964  10.300   3.227
53744W        W13181  28.525  29.535   3.851
53745W        W13182   2.776  29.539  14.971
53746W        W13183  38.904  39.473  14.305
53747W        W13184  21.755   7.742  13.056
53748W        W13185  36.543  29.052   3.856
53749W        W13186  21.205   0.766   3.719
53750W        W13187  29.669  33.482  11.463
53751W        W13188  21.613  42.382  14.865
53752W        W13189  31.406  18.677   0.391
53753W        W13190  13.235  41.365   3.758
53754W        W13191   7.737  35.388   1.338
53755W        W13192  38.999  23.535   0.732
53756W        W13193   0.309  11.193  10.908
53757W        W13194   7.838  13.706   4.701
53758W        W13195  18.776   6.883   3.681
53759W        W13196  30.073   7.209  13.995
53760W        W13197   9.750  26.658  11.396
53761W        W13198  37.868  28.979   2.359
53762W        W13199  13.121   7.282  14.298
53763W        W13200  29.125  32.532   0.891
53764W        W13201  21.560  16.766   3.237
53765W        W13202  19.683   5.734   0.730
53766W        W13203  24.068  26.201   1.221
53767W        W13204  20.738   6.379   0.309
53768W        W13205  38.016  37.393  11.588
53769W        W13206  23.562  37.901   0.945
53770W        W13207  12.199   5.856   0.465
53771W        W13208  23.214  43.991   4.822
53772W        W13209  37.006  34.914  13.987
53773W        W13210  36.484  28.588   0.448
53774W        W13211  34.600  41.537  14.833
53775W        W13212  10.354  38.031  14.788
53776W        W13213  16.612  20.595   3.735
53777W        W13214  30.923  37.979   0.427
53778W        W13215   5.848  33.893   2.410
53779W        W13216  30.542  17.785   2.736
53780W        W13217   7.909  14.602  14.930
53781W        W13218  15.794  20.667  12.076
53782W        W13219  35.050  27.473  11.963
53783W        W13220   0.481   9.212   4.764
53784W        W13221  37.921   3.352   4.667
53785W        W13222  35.597  35.576   0.272
53786W        W13223  42.915  26.656  10.616
53787W        W13224  26.962  39.401  11.865
53788W        W13225  23.732  16.787   2.292
53789W        W13226  30.128   3.950  12.377
53790W        W13227   6.257  38.950  12.403
53791W        W13228  18.290   6.898  11.030
53792W        W13229  13.775  23.618   4.248
53793W        W13230   3.856  10.154  11.426
53794W        W13231  39.854   2.965  11.960
53795W        W13232   2.761  44.915   0.784
53796W        W13233  18.294  24.194   0.482
53797W        W13234  42.286  23.210  13.046
53798W        W13235  35.029  21.599   2.331
53799W        W13236  15.767  17.787   4.133
53800W        W13237  43.324  38.565  10.997
53801W        W13238  33.558  22.010  14.515
53802W        W13239  37.023  31.602   1.917
53803W        W13240   4.408  40.852  14.349
53804W        W13241   3.349  21.138   5.307
53805W        W13242   1.880  39.558   2.207
53806W        W13243  44.393  20.691  14.801
53807W        W13244  33.096  20.143  10.445
53808W        W13245  33.536  10.197   3.703
53809W        W13246  38.880  43.270   4.203
53810W        W13247   8.195  23.567  10.626
53811W        W13248  43.861  41.791  11.420
53812W        W13249  33.611  36.092   4.157
53813W        W13250  31.647  38.400   0.820
53814W        W13251  39.941  13.315   3.870
53815W        W13252  37.341  26.951  11.879
53816W        W13253  29.974  14.319  12.509
53817W        W13254  24.721  19.191  10.989
53818W        W13255   5.739  40.519   1.706
53819W        W13256  13.243   4.740   4.143
53820W        W13257   6.418  37.846  12.042
53821W        W13258  23.665  24.566  13.860
53822W        W13259  12.318   0.948   4.335
53823W        W13260  42.921  16.289  12.010
53824W        W13261  40.809  11.719   1.721
53825W        W13262  29.939   6.302  11.941
53826W        W13263  41.988   6.871  14.781
53827W        W13264  12.265  30.956  13.901
53828W        W13265  39.047  29.064  14.914
53829W        W13266  20.047  29.549  14.455
53830W        W13267  40.544  17.249   1.313
53831W        W13268  39.406  36.591  14.879
53832W        W13269  23.016  18.613  10.894
53833W        W13270   5.698  41.910  13.833
53834W        W13271  29.146  40.373  14.777
53835W        W13272  37.369  12.183   4.304
53836W        W13273   4.440  34.983   3.725
53837W        W13274  31.618  24.625   2.786
53838W        W13275  24.489  26.972  13.468
53839W        W13276   7.219  32.030   3.845
53840W        W13277  13.122   7.397  13.310
53841W        W13278  36.472   2.751  14.371
53842W        W13279  28.613  36.370   1.355
53843W        W13280  17.196   5.824  10.623
53844W        W13281  38.442  15.282  13.482
53845W        W13282  33.553  22.718  14.288
53846W        W13283  28.000   0.432  10.945
53847W        W13284  44.439   1.457  13.309
53848W        W13285  25.029   8.269   2.321
53849W        W13286  43.004  37.984   2.255
53850W        W13287  10.851  42.790  13.342
53851W        W13288  20.624  23.079   0.747
53852W        W13289   5.263  24.605  13.363
53853W        W13290   4.718  26.187  13.833
53854W        W13291  26.701  24.520  14.914
53855W        W13292  21.646   6.717   0.906
53856W        W13293  19.583  32.045  13.838
53857W        W13294  22.158   5.792   3.658
53858W        W13295  40.868  40.946  10.998
53859W        W13296  39.048  43.974  11.566
53860W        W13297   6.827  38.477   1.903
53861W        W13298  31.003   5.339  13.841
53862W        W13299  36.355  25.653   0.909
53863W        W13300   0.770   3.873   2.181
53864W        W13301  38.827  13.276  10.506
53865W        W13302  16.295   1.478   3.826
53866W        W13303  17.273  20.760  11.965
53867W        W13304  19.779  31.990  10.610
53868W        W13305  16.765   2.859  14.863
53869W        W13306  41.904  33.625   3.267
53870W        W13307  21.519  33.878   0.742
53871W        W13308   8.356   8.737   4.832
53872W        W13309  35.890   3.923  12.560
53873W        W13310  24.000  27.159   2.336
53874W        W13311   5.345  43.390  11.550
53875W        W13312  21.664   7.326  12.539
53876W        W13313   3.806  10.808  10.954
53877W        W13314  44.932  31.453   1.249
53878W        W13315  27.542  31.415  12.477
53879W        W13316  16.749   3.316   2.848
53880W        W13317  34.070  30.416   5.129
53881W        W13318  12.151   8.778   2.784
53882W        W13319   5.347   7.703  11.515
53883W        W13320  11.641  19.276  10.613
53884W        W13321  13.349  11.754   3.271
53885W        W13322  15.728  30.084  14.030
53886W        W13323  42.361  31.111  12.880
53887W        W13324  41.797  43.845   0.308
53888W        W13325   8.313  42.974  10.405
53889W        W13326   9.738  28.600  11.421
53890W        W13327  37.995   2.271  11.603
53891W        W13328  38.496  25.103  14.913
53892W        W13329  17.252   3.818  10.416
53893W        W13330   6.724  17.781  13.471
53894W        W13331  40.487  23.025   1.303
53895W        W13332  12.836   7.295   0.881
53896W        W13333  33.931  19.722  11.435
53897W        W13334  21.209   9.830  10.567
53898W        W13335  41.446  11.780  11.877
53899W        W13336  42.861  25.107   0.262
53900W        W13337  31.038  40.893   9.545
53901W        W13338   1.387  23.694  14.998
53902W        W13339  23.080  22.125  11.891
53903W        W13340  22.016  11.833  13.350
53904W        W13341  21.202  21.532   5.222
53905W        W13342  15.193   7.308  12.832
53906W        W13343  17.151  41.841   1.300
53907W        W13344  41.524  18.778   3.653
53908W        W13345  32.523  32.578  12.044
53909W        W13346  15.251  15.759   3.814
53910W        W13347  23.697   8.353  13.880
53911W        W13348  33.094  38.918   0.380
53912W        W13349  12.643  26.693  12.994
53913W        W13350  39.320  21.632  11.597
53914W        W13351   1.753   7.681   0.928
53915W        W13352   7.893  24.722   2.857
53916W        W13353   2.388  26.087  13.995
53917W        W13354  20.559  38.378  12.546
53918W        W13355  31.899  25.650  13.328
53919W        W13356  26.592  25.662   3.800
53920W        W13357   5.852  38.998   4.221
53921W        W13358   4.370  39.351  14.505
53922W        W13359  29.019  30.485   4.619
53923W        W13360   0.870  38.865   2.208
53924W        W13361  40.918   4.898  14.496
53925W        W13362  11.362  41.910   0.777
53926W        W13363  13.636  33.970   2.181
53927W        W13364  15.815  24.222   0.311
53928W        W13365  39.482  23.005   1.380
53929W        W13366  13.201  19.116   0.258
53930W        W13367  12.240  24.618  12.850
53931W        W13368   6.257  28.151   5.757
53932W        W13369  23.113  44.343   0.434
53933W        W13370  19.054   3.905  13.823
53934W        W13371  11.822  30.164   0.293
53935W        W13372  15.307  28.173   4.162
53936W        W13373  12.128  12.749  12.945
53937W        W13374   1.347  35.515   1.386
53938W        W13375  24.133  29.611   1.345
53939W        W13376  12.806  43.425  14.441
53940W        W13377  26.185   0.884  14.760
53941W        W13378   8.281   1.939  11.004
53942W        W13379  42.016  30.415  11.121
53943W        W13380  15.805  15.220  13.363
53944W        W13381   0.433  43.505  11.912
53945W        W13382   8.274  24.195  14.792
53946W        W13383   5.423   3.834   2.813
53947W        W13384  37.047  36.582   2.351
53948W        W13385  15.242  40.950  14.490
53949W        W13386  30.655  13.223  13.851
53950W        W13387  21.101  25.566   4.150
53951W        W13388  39.364  36.537   3.250
53952W        W13389  23.617  31.648  11.123
53953W        W13390   1.453  27.644   3.775
53954W        W13391   8.282  12.307   4.731
53955W        W13392   2.389  20.148   4.205
53956W        W13393  17.565   3.433   4.240
53957W        W13394  36.496  12.134   3.151
53958W        W13395  23.082   6.209   3.751
53959W        W13396   9.320  40.387   0.828
53960W        W13397  18.634  23.010   3.734
53961W        W13398  15.108  27.028   0.884
53962W        W13399  14.681  26.669  11.947
53963W        W13400  10.193  31.927   1.872
53964W        W13401  20.536  35.447   0.428
53965W        W13402  31.001   6.796  13.940
53966W        W13403  34.039   0.463   0.325
53967W        W13404  18.242  33.394   0.778
53968W        W13405  14.688  18.267  12.406
53969W        W13406  15.796  38.448   5.167
53970W        W13407  34.420  15.134   4.221
53971W        W13408   3.265  36.931  13.328
53972W        W13409  43.350   4.416  12.441
53973W        W13410  33.910  22.645   2.817
53974W        W13411  14.598  23.513   4.818
53975W        W13412  17.559  29.669  14.516
53976W        W13413  34.614  43.912  12.996
53977W        W13414  41.310  35.048   3.228
53978W        W13415  28.015  37.888  12.414
53979W        W13416  22.199  39.030   4.254
53980W        W13417  16.679   5.758   2.883
53981W        W13418  39.515   4.392   4.806
53982W        W13419  15.285   6.237  11.095
53983W        W13420  33.072  33.009   4.796
53984W        W13421  17.240  40.972  13.424
53985W        W13422  26.053   7.779  11.433
53986W        W13423  19.250  12.788  10.931
53987W        W13424  30.463  32.976   2.868
53988W        W13425  12.348   2.392  10.962
53989W        W13426  12.181  41.814   1.292
53990W        W13427  38.376   7.698   0.745
53991W        W13428   6.854  18.752   0.458
53992W        W13429  22.144  25.081  14.367
53993W        W13430  17.604   3.217  13.479
53994W        W13431   6.685  24.149   3.800
53995W        W13432  29.669  39.361  13.863
53996W        W13433  13.228  14.191   5.186
53997W        W13434   1.354   3.345   0.461
53998W        W13435  28.976  26.587   1.801
53999W        W13436  41.946  16.672   4.826
54000W        W13437   1.368   2.322   3.365
54001W        W13438  29.630  27.481  13.897
54002W        W13439  17.298  10.717  13.467
54003W        W13440  24.207  43.306   4.755
54004W        W13441  18.691  42.295   1.383
54005W        W13442   3.809  27.039  13.396
54006W        W13443  15.820  32.564  12.990
54007W        W13444   1.830  13.618  12.448
54008W        W13445  27.452  16.146   2.344
54009W        W13446  44.337  11.191   1.315
54010W        W13447  11.248  32.570   0.872
54011W        W13448  32.962  26.095   3.676
54012W        W13449   2.306  29.648  12.958
54013W        W13450  27.085  14.256  13.391
54014W        W13451  27.459  25.216  13.534
54015W        W13452   8.363  20.694  13.493
54016W        W13453   4.286  43.929   2.183
54017W        W13454  10.382  17.663  13.350
54018W        W13455  43.790   8.720  10.921
54019W        W13456   6.369  28.439   0.889
54020W        W13457  10.811  32.016   3.241
54021W        W13458  25.075  42.486   0.341
54022W        W13459  13.695  12.245  14.004
54023W        W13460   1.963  26.572   5.199
54024W        W13461  40.447  27.568   3.801
54025W        W13462  20.599  41.954   4.253
54026W        W13463  15.298  16.754   2.696
54027W        W13464  16.176  34.526   4.206
54028W        W13465  20.047   7.782   0.840
54029W        W13466  23.641  16.104   4.218
54030W        W13467   8.188  27.097   5.190
54031W        W13468   4.235  17.722   2.211
54032W        W13469  19.585  25.539  10.570
54033W        W13470   1.968  16.574  13.906
54034W        W13471   4.442  39.329   1.890
54035W        W13472   1.931  11.263   3.865
54036W        W13473  39.867  19.647   2.386
54037W        W13474  14.669  17.217   2.700
54038W        W13475  33.121   0.386   1.716
54039W        W13476  33.465   5.815  12.864
54040W        W13477   1.929  26.105   1.337
54041W        W13478  15.659  42.920  11.943
54042W        W13479   6.817   6.867  14.782
54043W        W13480   3.889  36.375  11.037
54044W        W13481   4.924   8.406  12.494
54045W        W13482  31.484   0.256  11.059
54046W        W13483   0.981  38.009  11.993
54047W        W13484  23.520  16.569   3.866
54048W        W13485  21.095  10.291   1.236
54049W        W13486  29.642   8.211  14.390
54050W        W13487  17.277  43.435   2.815
54051W        W13488  19.241   9.154   3.209
54052W        W13489  44.367  30.133   1.909
54053W        W13490  34.910  25.540  11.021
54054W        W13491  26.467  44.834   4.293
54055W        W13492  41.839  38.999  11.552
54056W        W13493   1.431   6.203   1.757
54057W        W13494  35.407  26.049   1.819
54058W        W13495  15.782   7.393   2.226
54059W        W13496  22.045   7.773  10.925
54060W        W13497  22.593  38.994   4.793
54061W        W13498  23.692  30.460   2.276
54062W        W13499  24.013  19.651  14.510
54063W        W13500   1.881  42.970   0.425
54064W        W13501  18.115  27.487  10.405
54065W        W13502  11.161  38.884  14.411
54066W        W13503  28.645   7.691  11.540
54067W        W13504  37.956  20.555  12.476
54068W        W13505  33.534   6.385   5.302
54069W        W13506   5.772  41.411  10.411
54070W        W13507  42.876  19.039   0.472
54071W        W13508  30.500  23.633  13.054
54072W        W13509   9.686  12.712   1.770
54073W        W13510  18.077  38.878  12.971
54074W        W13511   9.158  12.182  11.389
54075W        W13512  36.419  37.928   0.920
54076W        W13513  40.548  19.584  14.414
54077W        W13514   8.216  19.651  12.354
54078W        W13515  32.397  41.850   1.341
54079W        W13516  21.722  39.923   9.437
54080W        W13517  19.690  12.336   4.814
54081W        W13518  13.823  43.505  13.829
54082W        W13519  26.627  17.172   2.683
54083W        W13520  18.626  18.227   2.705
54084W        W13521   5.926  34.614  10.633
54085W        W13522  19.193  34.986  11.891
54086W        W13523  23.235  39.004   1.701
54087W        W13524  18.748   0.954   0.468
54088W        W13525  37.055  12.282   1.877
54089W        W13526  42.816   1.901  14.413
54090W        W13527  27.186  37.568   0.251
54091W        W13528   2.939  43.425  14.846
54092W        W13529  44.989  10.787   2.883
54093W        W13530  31.465  25.638  10.058
54094W        W13531   8.661  23.216   2.816
54095W        W13532  42.523   6.328  13.038
54096W        W13533  20.536   0.781  11.481
54097W        W13534  40.926  28.573  13.011
54098W        W13535  14.667  11.728  12.939
54099W        W13536   5.303   0.313  10.929
54100W        W13537  41.413  42.859   4.674
54101W        W13538  30.915  33.052  11.123
54102W        W13539  37.371  27.692  12.877
54103W        W13540  42.983  27.467   4.784
54104W        W13541  27.468   3.794  14.282
54105W        W13542   3.459   6.324   2.704
54106W        W13543   1.385  26.073   0.474
54107W        W13544  17.621  28.605   2.683
54108W        W13545  13.660  19.717  14.835
54109W        W13546   0.299  30.508  14.770
54110W        W13547   4.890  40.915   5.290
54111W        W13548  15.702  41.924  13.833
54112W        W13549  27.582  39.407  14.806
54113W        W13550  15.115   1.393   1.211
54114W        W13551   8.886  22.661   2.377
54115W        W13552  17.305   9.861  11.936
54116W        W13553  40.539  14.615  11.051
54117W        W13554   1.408   4.409  12.010
54118W        W13555   7.402  40.945  14.884
54119W        W13556  10.673   7.743  14.413
54120W        W13557   8.695  24.502  13.950
54121W        W13558  42.311  27.093  10.912
54122W        W13559  36.912  39.427  10.975
54123W        W13560   1.327   5.826  13.502
54124W        W13561   1.383  14.192  13.417
54125W        W13562  22.176  33.969   0.370
54126W        W13563  30.437  38.508   3.684
54127W        W13564   3.430   7.389   4.142
54128W        W13565   4.775  33.042  11.979
54129W        W13566  16.588  29.572  14.888
54130W        W13567  35.861   1.896   0.348
54131W        W13568  13.802  15.319  11.922
54132W        W13569   3.391  27.687  11.895
54133W        W13570  39.993  33.090  11.513
54134W        W13571  44.290  27.101  11.024
54135W        W13572  16.767  24.216  10.610
54136W        W13573  31.546  42.897  14.488
54137W        W13574  21.130  20.134  14.938
54138W        W13575  38.863  29.581   4.769
54139W        W13576  11.862  27.581  10.024
54140W        W13577   5.277  29.967   1.867
54141W        W13578  17.069   2.804  12.464
54142W        W13579  35.376  25.623   0.930
54143W        W13580   4.205   3.951   4.778
54144W        W13581  20.730  10.235  13.910
54145W        W13582  20.108  24.167  11.106
54146W        W13583  35.401  32.545  12.474
54147W        W13584  17.796  37.972  12.405
54148W        W13585  19.565  11.720   2.184
54149W        W13586  38.470  43.501   0.394
54150W        W13587  43.429   0.304  14.410
54151W        W13588   3.282  17.650  11.403
54152W        W13589   8.322  40.025   0.475
54153W        W13590  12.202  34.958  13.861
54154W        W13591  10.166  28.476   0.878
54155W        W13592  11.300  10.758   4.353
54156W        W13593   8.179  35.962  13.886
54157W        W13594  13.836  38.443   1.740
54158W        W13595  26.073  24.088   1.438
54159W        W13596  12.822   6.298  14.507
54160W        W13597   9.305  35.873  14.360
54161W        W13598  10.782  33.994   0.906
54162W        W13599  22.646  12.310  12.034
54163W        W13600  23.217   8.852   3.811
54164W        W13601  41.900   9.745   1.341
54165W        W13602  11.188  21.068   9.970
54166W        W13603  35.434  23.161   4.756
54167W        W13604  38.555  13.249  11.392
54168W        W13605  24.496  32.534  12.362
54169W        W13606  13.630  25.178  10.418
54170W        W13607  41.961  32.439   1.295
54171W        W13608  26.987  30.063  10.542
54172W        W13609  39.827  22.169  13.011
54173W        W13610  27.951  20.599   3.263
54174W        W13611  29.067  10.205  12.935
54175W        W13612  17.582  27.667  10.560
54176W        W13613  35.914  10.356   1.394
54177W        W13614  24.077   0.789  12.472
54178W        W13615   3.232  22.603   4.176
54179W        W13616  27.450  37.944   2.218
54180W        W13617   6.905  32.511  11.509
54181W        W13618  43.999  35.062  12.024
54182W        W13619  29.510  25.487   4.138
54183W        W13620  16.287  35.053  13.392
54184W        W13621  13.661  42.379  12.359
54185W        W13622   3.243  43.278   0.468
54186W        W13623  21.045  20.700   4.309
54187W        W13624   7.238  43.389  14.812
54188W        W13625   8.380  17.689   0.317
54189W        W13626  36.387   7.371   0.376
54190W        W13627  26.956  27.619   2.386
54191W        W13628  33.015  39.900  12.398
54192W        W13629  30.026  34.119   1.366
54193W        W13630  15.281  25.045   1.378
54194W        W13631   1.817   2.258  13.400
54195W        W13632  20.601   3.368  12.572
54196W        W13633  36.452  22.571   4.605
54197W        W13634  44.783  11.269  14.799
54198W        W13635  12.307  33.454  12.349
54199W        W13636  44.315  24.037  12.540
54200W        W13637   2.375   7.399   3.320
54201W        W13638  27.155  17.113  14.798
54202W        W13639  10.653   0.335  11.552
54203W        W13640  43.941  24.220   3.765
54204W        W13641  37.464  34.578   3.791
54205W        W13642  37.580  31.552   0.338
54206W        W13643  43.795  43.892   4.681
54207W        W13644  12.803  35.992  11.893
54208W        W13645  19.141  18.143  13.898
54209W        W13646  33.567  19.674  12.017
54210W        W13647  40.935  10.239   3.802
54211W        W13648  37.400  11.357  13.318
54212W        W13649  34.962  24.227  12.519
54213W        W13650  14.121  19.550   2.791
54214W        W13651  35.933   6.856  13.478
54215W        W13652  20.712   4.362   3.838
54216W        W13653  18.638   7.908   4.625
54217W        W13654  11.143   6.826   0.291
54218W        W13655  19.755  27.536   1.312
54219W        W13656  37.433  44.866   0.875
54220W        W13657  41.972   8.175   4.201
54221W        W13658  41.335  22.115  13.882
54222W        W13659  35.038   4.420   3.721
54223W        W13660  10.794  40.458  11.112
54224W        W13661  32.550  41.869  14.816
54225W        W13662   3.285  29.098   1.740
54226W        W13663  39.885  33.535  14.324
54227W        W13664  14.171   0.795   0.747
54228W        W13665  29.034  38.898  14.429
54229W        W13666  34.987  22.730   2.280
54230W        W13667   6.871   3.423   4.119
54231W        W13668  18.588  33.996  10.920
54232W        W13669  19.678  31.510   2.752
54233W        W13670  38.966   4.328  11.439
54234W        W13671  39.875  13.779   4.221
54235W        W13672  36.912  15.152  13.448
54236W        W13673  24.177  16.707   1.935
54237W        W13674  33.105  11.269   1.924
54238W        W13675   2.294  18.282   0.914
54239W        W13676  28.632  40.336  12.961
54240W        W13677  33.082  43.956  12.548
54241W        W13678   2.784   8.355  11.379
54242W        W13679  37.574  32.634   2.694
54243W        W13680  44.855  19.569   4.223
54244W        W13681  29.631  42.361   3.807
54245W        W13682  43.939  27.534  13.989
54246W        W13683   1.397  26.970   1.428
54247W        W13684  36.466  26.675   1.330
54248W        W13685  25.503  34.899  12.533
54249W        W13686  26.561   6.836  10.436
54250W        W13687  10.350  28.975  10.152
54251W        W13688  31.536  11.205  13.456
54252W        W13689  21.618   3.940   0.847
54253W        W13690  30.412  31.930   2.897
54254W        W13691  27.169   4.275   4.291
54255W        W13692   3.366  19.579   1.241
54256W        W13693  13.109  40.046  11.396
54257W        W13694  17.065  32.991  14.860
54258W        W13695  21.142  44.764   0.791
54259W        W13696   6.870   5.849   0.803
54260W        W13697   8.849  37.398   0.800
54261W        W13698  32.890   9.885   4.765
54262W        W13699   2.382  10.835   5.117
54263W        W13700  35.080  16.182   2.769
54264W        W13701  28.636  18.099  11.457
54265W        W13702   8.293  34.106   3.328
54266W        W13703  30.118   8.178  13.906
54267W        W13704  43.863  15.652   0.248
54268W        W13705  21.129  42.416   3.677
54269W        W13706  30.937  26.483   3.712
54270W        W13707  40.525  30.463   4.637
54271W        W13708  35.076  34.070   2.190
54272W        W13709   5.801   1.948  13.895
54273W        W13710   2.822  38.542  13.989
54274W        W13711  25.198   3.872   0.393
54275W        W13712  23.076  30.007  10.594
54276W        W13713  20.527  31.067   3.838
54277W        W13714  21.174  11.323  14.932
54278W        W13715  12.771  42.806  11.123
54279W        W13716  24.094  26.509  13.855
54280W        W13717   0.817   0.967   3.159
54281W        W13718  13.110  35.549  13.015
54282W        W13719   7.332  41.904  13.402
54283W        W13720  20.158   1.845  11.996
54284W        W13721  25.217   8.403  11.018
54285W        W13722  26.648   2.883   1.443
54286W        W13723   4.838   2.826   5.236
54287W        W13724  42.491  41.335   0.823
54288W        W13725   5.322   8.291  12.876
54289W        W13726  41.377   1.465   1.339
54290W        W13727  39.890  10.343   1.856
54291W        W13728  35.475  30.495   2.873
54292W        W13729  30.130   2.283   1.911
54293W        W13730  10.209  11.785   4.732
54294W        W13731  37.430   7.757   0.414
54295W        W13732  24.485  23.556  10.583
54296W        W13733   7.771  41.324   9.973
54297W        W13734  25.603  35.516   4.807
54298W        W13735  16.128  30.961   1.934
54299W        W13736   4.774  42.331   3.382
54300W        W13737  21.112  21.728  12.975
54301W        W13738   3.342  21.074   0.958
54302W        W13739  43.302  40.021  14.395
54303W        W13740  25.084  38.025  13.473
54304W        W13741  16.161  16.202   1.778
54305W        W13742  44.330  35.083  14.433
54306W        W13743   3.731   8.306  13.385
54307W        W13744   1.351  27.028   2.256
54308W        W13745   4.900  17.293   3.671
54309W        W13746  38.326   9.299  12.833
54310W        W13747  42.806  43.770  14.877
54311W        W13748  20.664  25.972   3.363
54312W        W13749  15.791  19.554   0.279
54313W        W13750   5.282  35.088   3.264
54314W        W13751  44.477   7.271   0.433
54315W        W13752  21.701  34.063  10.431
54316W        W13753   9.786  27.518   1.395
54317W        W13754  22.617  15.685  11.498
54318W        W13755  39.830  44.904   3.171
54319W        W13756   0.815  37.039   1.326
54320W        W13757  44.000  40.447  10.434
54321W        W13758   0.395  42.290  10.406
54322W        W13759  12.851  32.392   4.267
54323W        W13760   6.222   5.785   3.209
54324W        W13761  20.256  21.204  12.827
54325W        W13762  31.599  17.649   1.750
54326W        W13763  16.291   6.848   2.261
54327W        W13764  35.934  18.635  10.560
54328W        W13765   0.982   9.189  10.602
54329W        W13766  11.665  24.651   2.847
54330W        W13767  30.596  36.387  14.941
54331W        W13768   8.326  29.635  13.393
54332W        W13769  26.463  34.499   2.711
54333W        W13770   6.905  26.132  12.939
54334W        W13771  28.594  11.218   4.325
54335W        W13772   5.417  13.710   0.374
54336W        W13773  41.861  22.686  10.621
54337W        W13774  34.442   4.297  12.840
54338W        W13775  42.869   6.826  12.095
54339W        W13776   4.870   7.296  14.024
54340W        W13777  36.978  25.981  13.891
54341W        W13778  34.121  28.107   3.706
54342W        W13779  35.887  30.011  12.381
54343W        W13780  23.663  44.272  11.426
54344W        W13781  38.827  20.071   4.618
54345W        W13782  27.062   9.647  11.054
54346W        W13783  11.683  22.199  10.435
54347W        W13784  19.177  30.501  12.482
54348W        W13785   0.419  41.913   1.919
54349W        W13786  18.638  32.999  12.897
54350W        W13787  11.642   4.923   2.745
54351W        W13788  12.792  17.731  11.084
54352W        W13789  21.074  39.878   9.972
54353W        W13790   2.404  13.739  14.847
54354W        W13791   7.315  12.198  10.403
54355W        W13792  30.564  31.975  13.930
54356W        W13793  39.453   7.200  14.482
54357W        W13794  16.126  35.498  12.373
54358W        W13795  26.059   1.976  10.424
54359W        W13796  19.281  23.581   2.685
54360W        W13797  10.334  19.168  14.477
54361W        W13798  13.261  44.481   2.226
54362W        W13799  40.485  29.461   3.752
54363W        W13800  17.177  14.123   2.205
54364W        W13801  10.148  24.142   3.690
54365W        W13802  31.943  18.574   5.300
54366W        W13803  13.218  28.667   0.371
54367W        W13804  37.554  21.067  13.542
54368W        W13805  16.219  38.014  13.307
54369W        W13806  23.570  24.212  12.889
54370W        W13807   8.369  28.946   2.860
54371W        W13808  14.224  24.556   0.244
54372W        W13809  41.367  22.602   0.418
54373W        W13810  33.009  44.284   2.267
54374W        W13811  32.892  20.539  13.424
54375W        W13812  37.368  26.176  11.953
54376W        W13813   2.852  42.393   1.230
54377W        W13814  27.648  12.771  11.575
54378W        W13815   4.814  37.945   2.389
54379W        W13816  16.078  22.545  11.889
54380W        W13817  37.890  11.360  10.949
54381W        W13818   7.278   8.400  12.377
54382W        W13819  35.091  27.120  13.474
54383W        W13820   8.888  27.950   4.157
54384W        W13821  35.062   7.810  11.046
54385W        W13822   8.165  29.050   3.280
54386W        W13823  30.528  35.038   1.446
54387W        W13824  41.330  34.012  11.095
54388W        W13825   5.277  22.996   2.365
54389W        W13826  21.580  28.493   0.348
54390W        W13827  22.579  10.793  10.901
54391W        W13828  44.833  15.275  11.129
54392W        W13829  15.656  27.526   0.464
54393W        W13830  36.905   1.400  12.093
54394W        W13831  44.265  13.765   0.472
54395W        W13832  17.233   1.442   3.773
54396W        W13833  15.804  24.006  12.361
54397W        W13834  41.406  19.725  14.921
54398W        W13835  23.587  31.040  12.048
54399W        W13836   1.776  13.785  13.948
54400W        W13837   2.325  30.509   0.842
54401W        W13838  16.736  31.942  10.529
54402W        W13839  11.651  29.131   2.247
54403W        W13840  39.964  26.505  10.465
54404W        W13841  16.207   2.771   1.390
54405W        W13842  12.769  20.263  12.848
54406W        W13843  40.384  28.529   4.732
54407W        W13844  43.355  29.642  11.404
54408W        W13845  37.850  21.622  14.307
54409W        W13846  38.872  41.880   4.834
54410W        W13847  11.845  27.004  11.445
54411W        W13848  11.867  23.184  11.013
54412W        W13849  10.248  27.049  10.998
54413W        W13850  42.891   3.856   1.255
54414W        W13851  10.803   3.913  12.410
54415W        W13852  15.657   4.334  11.918
54416W        W13853   6.290   3.353   0.851
54417W        W13854  18.595  17.715  14.294
54418W        W13855  13.120  42.809  13.998
54419W        W13856  25.135  21.739   5.153
54420W        W13857  43.836  17.664   1.406
54421W        W13858  17.777  21.140  13.837
54422W        W13859  35.417   1.787   0.916
54423W        W13860   8.896  29.501   4.340
54424W        W13861   1.378  31.604   3.716
54425W        W13862  17.215  37.957  11.044
54426W        W13863  37.012  27.652  13.865
54427W        W13864  14.663  22.568   3.355
54428W        W13865  26.593   5.851   4.140
54429W        W13866  25.568  29.647   4.168
54430W        W13867  38.355   8.659   1.390
54431W        W13868   1.937   1.901   4.650
54432W        W13869  17.718  23.598  11.071
54433W        W13870  28.664  27.196   5.702
54434W        W13871   9.786   6.260   2.198
54435W        W13872  32.011   1.775   0.390
54436W        W13873  24.680  26.019   2.179
54437W        W13874  23.531  17.698  14.025
54438W        W13875  29.002   2.843   4.205
54439W        W13876  23.092  15.250  13.396
54440W        W13877   3.455   6.784  11.122
54441W        W13878  38.498  12.210  12.384
54442W        W13879   8.183  26.624   2.322
54443W        W13880   3.951  21.633   2.355
54444W        W13881  25.053  19.133  12.861
54445W        W13882  27.071  38.041   3.384
54446W        W13883  35.056  42.900  12.885
54447W        W13884  23.668  16.781  13.392
54448W        W13885  43.861  30.922   2.688
54449W        W13886  32.402  27.145  10.989
54450W        W13887  30.534  38.396   2.368
54451W        W13888  41.323  36.907   1.273
54452W        W13889  11.854  43.876  14.326
54453W        W13890  44.903  22.503  10.962
54454W        W13891  15.641  37.885  14.489
54455W        W13892   8.733  25.526   0.761
54456W        W13893  18.145  44.492  10.466
54457W        W13894  34.959  31.069   1.251
54458W        W13895  34.055  11.290  14.512
54459W        W13896  16.219  24.000  11.400
54460W        W13897  12.225  18.737  14.497
54461W        W13898  20.557  18.718  13.481
54462W        W13899  37.358  41.968  14.382
54463W        W13900  22.013  29.976   2.664
54464W        W13901  20.116  26.462  14.323
54465W        W13902  11.719  10.256   0.284
54466W        W13903   1.949  41.910   1.849
54467W        W13904  26.159   2.236  14.844
54468W        W13905  36.381  14.229  14.784
54469W        W13906  30.641   4.414   1.221
54470W        W13907  11.855   6.778   0.909
54471W        W13908  20.230   3.817   3.635
54472W        W13909  24.480   4.806   1.914
54473W        W13910  17.194  15.657   9.644
54474W        W13911  28.571  24.565  12.966
54475W        W13912   4.248  33.559   1.883
54476W        W13913  14.762   6.356   0.963
54477W        W13914  19.151   9.263  11.874
54478W        W13915  18.637   2.742   3.173
54479W        W13916  42.296  10.310  14.815
54480W        W13917  28.551  41.030   4.233
54481W        W13918   5.865  31.600   1.328
54482W        W13919  20.258   2.246   2.250
54483W        W13920  28.178  11.855  14.831
54484W        W13921  43.455  20.087   2.358
54485W        W13922  11.652  42.864   0.848
54486W        W13923   1.883  33.898   3.647
54487W        W13924  42.876  42.779   4.213
54488W        W13925  43.490  31.461  14.991
54489W        W13926  35.463   4.405  13.046
54490W        W13927  41.924   0.431   1.745
54491W        W13928  26.645  12.614   2.290
54492W        W13929  39.320  22.186  14.861
54493W        W13930   5.886   3.289   4.312
54494W        W13931  15.310   7.283  10.891
54495W        W13932   6.859  26.136   1.883
54496W        W13933  25.092  34.606  13.924
54497W        W13934  24.528  35.000  11.978
54498W        W13935  17.759  40.974   3.252
54499W        W13936  24.638  19.055   2.754
54500W        W13937  28.549  27.129   1.812
54501W        W13938   9.703   4.901  11.963
54502W        W13939  26.017   4.326   4.179
54503W        W13940  29.087   5.337  11.937
54504W        W13941  33.581  13.651   1.392
54505W        W13942  14.654  18.205  10.108
54506W        W13943   8.265  23.067   1.242
54507W        W13944  11.313   1.915   1.753
54508W        W13945  28.546  29.462  11.591
54509W        W13946   8.772   8.855  10.889
54510W        W13947  30.622  25.216  13.956
54511W        W13948  39.889   0.473   0.956
54512W        W13949  37.923  14.799   1.302
54513W        W13950  21.615  36.975  14.323
54514W        W13951  28.151  34.992   3.680
54515W        W13952   8.365  43.288  14.871
54516W        W13953  13.660  14.211  10.519
54517W        W13954   2.846  30.536   1.244
54518W        W13955  40.324   3.865  12.553
54519W        W13956   9.274   0.376  13.363
54520W        W13957  41.880  15.617  11.042
54521W        W13958   1.754  12.313  10.603
54522W        W13959  20.094  12.800   4.723
54523W        W13960  38.955  44.284   5.225
54524W        W13961  17.749  32.074  13.892
54525W        W13962  30.476  21.527   2.687
54526W        W13963  17.091  39.810  12.555
54527W        W13964  18.618  15.765  12.827
54528W        W13965  38.996  24.565  11.442
54529W        W13966  38.879  29.135  12.457
54530W        W13967  17.178  19.709   3.297
54531W        W13968  12.742   8.789  14.977
54532W        W13969   7.290  15.603  13.433
54533W        W13970   7.246  11.672   1.713
54534W        W13971  28.648  40.961  12.468
54535W        W13972  25.667  15.806  12.544
54536W        W13973  27.166  30.070   3.165
54537W        W13974  32.910   5.834  11.899
54538W        W13975  32.022  10.635   5.137
54539W        W13976  31.927   0.329  13.546
54540W        W13977  27.626  22.128   3.352
54541W        W13978  21.109  18.570  12.536
54542W        W13979   8.405  10.783   1.288
54543W        W13980  18.127  11.178  12.375
54544W        W13981  35.384  10.177   3.765
54545W        W13982  43.298  42.806  13.517
54546W        W13983  11.846  42.008   2.314
54547W        W13984  17.676  37.936  13.397
54548W        W13985  14.262  26.590   5.319
54549W        W13986  36.458  10.150   4.118
54550W        W13987   1.834  41.443   4.686
54551W        W13988  38.929  16.785   2.195
54552W        W13989  41.320  16.264  14.450
54553W        W13990  33.922  40.525   5.596
54554W        W13991  20.050  23.179  12.445
54555W        W13992  43.792  35.475  11.588
54556W        W13993  10.837  27.500   3.386
54557W        W13994   8.269  33.459   3.849
54558W        W13995  37.570  42.425   0.422
54559W        W13996   7.274  40.944  12.471
54560W        W13997  21.193   2.306   5.317
54561W        W13998  40.815  11.791   2.414
54562W        W13999  34.939  12.735   3.804
54563W        W14000  21.737  30.455   1.747
54564W        W14001  41.371  19.055  11.483
54565W        W14002  35.007  13.108  10.988
54566W        W14003  24.480  43.468   1.221
54567W        W14004   8.788   5.230   0.780
54568W        W14005   7.332  36.860  13.964
54569W        W14006  19.703  39.455   1.702
54570W        W14007  13.317  26.575  10.427
54571W        W14008  17.254  38.875   3.741
54572W        W14009   1.929  38.566  13.798
54573W        W14010  34.560  18.621  11.418
54574W        W14011  44.776   5.328   3.155
54575W        W14012   7.205  12.692  10.584
54576W        W14013  42.484   5.302  14.406
54577W        W14014  31.419  30.032   1.741
54578W        W14015  22.520  40.962  14.487
54579W        W14016   7.415  43.444  12.979
54580W        W14017  42.282  32.932   3.642
54581W        W14018  13.325   8.711   0.414
54582W        W14019   1.409  29.619   2.256
54583W        W14020  25.635  39.506  10.570
54584W        W14021  42.334  18.250   1.800
54585W        W14022   1.788  20.208   3.736
54586W        W14023  33.411   7.352  11.889
54587W        W14024  12.754  37.392   1.310
54588W        W14025  18.131  34.586  13.917
54589W        W14026   5.203  31.407  12.559
54590W        W14027  15.278  12.756  12.359
54591W        W14028   7.193  12.239  12.976
54592W        W14029  43.892  38.522  12.527
54593W        W14030  19.210  10.743   1.364
54594W        W14031  29.090  11.827   0.868
54595W        W14032  36.385  20.205  12.442
54596W        W14033   3.348  15.132  11.474
54597W        W14034  25.695  15.242   1.911
54598W        W14035  23.570   0.982  11.573
54599W        W14036  37.087  31.915  14.028
54600W        W14037  25.573  32.943   3.275
54601W        W14038  29.120  28.187  13.443
54602W        W14039   0.436  36.489   0.380
54603W        W14040  14.643  27.093  11.911
54604W        W14041  20.195  14.789  14.904
54605W        W14042  16.304  28.148  14.878
54606W        W14043  31.963  19.089  12.580
54607W        W14044   2.846  24.220   2.665
54608W        W14045   2.362  20.609  12.006
54609W        W14046  20.754   6.342  14.485
54610W        W14047   1.317  10.279  13.961
54611W        W14048  10.326  17.086  12.503
54612W        W14049  27.192  42.496  13.913
54613W        W14050  32.930  41.963  13.800
54614W        W14051   4.341  39.386  12.492
54615W        W14052   8.329  29.635  10.463
54616W        W14053   9.186  30.656   4.126
54617W        W14054   8.799  10.174   5.193
54618W        W14055  23.099  16.802  10.644
54619W        W14056   7.179  37.464  13.890
54620W        W14057  44.297  35.984   2.686
54621W        W14058  35.559  19.138  14.985
54622W        W14059  34.527  30.440  10.574
54623W        W14060  25.512  41.317  14.413
54624W        W14061  16.074  21.597  11.883
54625W        W14062   5.351  32.576  12.974
54626W        W14063   3.298  26.119   9.998
54627W        W14064  20.634  19.696  12.356
54628W        W14065  34.515  11.707  14.782
54629W        W14066  44.461   2.955  14.332
54630W        W14067  31.035  35.480   3.830
54631W        W14068   5.305  23.146  11.542
54632W        W14069  23.610  32.895  10.606
54633W        W14070  26.512  24.717   0.306
54634W        W14071  35.056  26.463   2.235
54635W        W14072   7.732   3.257   4.654
54636W        W14073  16.222  40.842  12.374
54637W        W14074  21.525  43.990  14.958
54638W        W14075  15.324  22.033  13.967
54639W        W14076   6.698  40.031  14.797
54640W        W14077  38.871   2.751  11.884
54641W        W14078  29.029  37.830   2.411
54642W        W14079  29.961  42.364   2.842
54643W        W14080  10.170   4.366  13.371
54644W        W14081   2.314  15.804  12.550
54645W        W14082  22.639   5.383   2.378
54646W        W14083  44.298  10.358  10.130
54647W        W14084  15.607  43.965  14.909
54648W        W14085  25.198  27.486   0.345
54649W        W14086  29.095  38.831  13.453
54650W        W14087  11.801   8.319  10.537
54651W        W14088  21.226  27.643  14.461
54652W        W14089   0.776  42.398   4.776
54653W        W14090  18.190  41.370  13.426
54654W        W14091  38.832  43.010   1.773
54655W        W14092  36.570  28.091   1.927
54656W        W14093  33.090  23.229   0.390
54657W        W14094  30.001  23.691  12.419
54658W        W14095  32.538  34.554   1.311
54659W        W14096  19.666  17.162  13.388
54660W        W14097  36.979  20.075   4.749
54661W        W14098   8.297  10.372  12.390
54662W        W14099  12.185  10.832   1.772
54663W        W14100  18.784  27.459   1.935
54664W        W14101   7.365  24.190   4.160
54665W        W14102   7.908  35.436   2.892
54666W        W14103  18.625   7.773   0.465
54667W        W14104  30.486  36.999  14.772
54668W        W14105  31.492   2.914  12.891
54669W        W14106  43.952  43.015   3.688
54670W        W14107  42.951  35.450   0.742
54671W        W14108  28.490  29.584   3.164
54672W        W14109  40.541  20.587  12.548
54673W        W14110  26.966  38.458  12.009
54674W        W14111  21.116  26.965   4.281
54675W        W14112   6.367  38.947  14.467
54676W        W14113  24.220  24.198   2.196
54677W        W14114  32.466  37.904   4.816
54678W        W14115  26.667   4.738   2.795
54679W        W14116  24.199   2.955   4.212
54680W        W14117  19.554   8.764   0.313
54681W        W14118   7.815  32.397  13.881
54682W        W14119  19.582  26.662  11.585
54683W        W14120  37.955  30.580  10.991
54684W        W14121  30.080  42.865  11.469
54685W        W14122  24.010  21.756  11.990
54686W        W14123   4.450  22.581   1.215
54687W        W14124   3.722   6.874   0.259
54688W        W14125  13.733  13.702  12.039
54689W        W14126  26.152  27.518  13.039
54690W        W14127   4.775   5.718   2.307
54691W        W14128  27.533  42.845  10.926
54692W        W14129  19.547  17.557   0.451
54693W        W14130  16.294  12.806  11.604
54694W        W14131  27.039  41.329  14.896
54695W        W14132  28.544   8.701   1.727
54696W        W14133  10.163  27.145   5.313
54697W        W14134  31.956   5.342   4.804
54698W        W14135  30.982  30.584  14.833
54699W        W14136  22.638  11.854   3.274
54700W        W14137  16.263  15.259   3.777
54701W        W14138   0.899  16.626  11.551
54702W        W14139  43.892  22.137   1.712
54703W        W14140   9.652  24.206  13.007
54704W        W14141  35.057   1.428  13.006
54705W        W14142  10.676  27.066  13.045
54706W        W14143   3.947  11.812  11.008
54707W        W14144  19.690  33.962   2.281
54708W        W14145  14.596  28.067  12.939
54709W        W14146   1.315  14.598  13.485
54710W        W14147  33.531  30.608   0.923
54711W        W14148   0.249  39.037  13.030
54712W        W14149  26.625  22.059   2.368
54713W        W14150  36.945  40.985   0.845
54714W        W14151  33.895  24.979  11.878
54715W        W14152  31.428   4.805  14.028
54716W        W14153  40.547  14.250  12.918
54717W        W14154   6.222  17.638   1.371
54718W        W14155   4.388   4.438   2.324
54719W        W14156  16.627  33.459  14.389
54720W        W14157  23.148   1.946  11.927
54721W        W14158  35.446  17.279   2.663
54722W        W14159  20.225  15.318  11.927
54723W        W14160  32.984  38.332  14.505
54724W        W14161  11.656  23.691   0.446
54725W        W14162  17.072  33.531   3.346
54726W        W14163  42.807   3.738  12.081
54727W        W14164  30.446  26.538  13.356
54728W        W14165  33.974  11.158   2.255
54729W        W14166  19.697  44.803   2.253
54730W        W14167   6.251  35.890   0.374
54731W        W14168   8.676  32.125  12.058
54732W        W14169  16.131  13.301   1.855
54733W        W14170  30.597  35.984   1.295
54734W        W14171   5.234  19.055   1.289
54735W        W14172  38.555  18.645  11.515
54736W        W14173  44.326   7.714   2.220
54737W        W14174   1.386   5.889  14.385
54738W        W14175  34.015  13.271   3.283
54739W        W14176  13.832  10.209  12.013
54740W        W14177  26.493  22.632   1.334
54741W        W14178  26.678   2.927   3.804
54742W        W14179   7.907   3.262  13.900
54743W        W14180  43.372  44.944  10.560
54744W        W14181   4.333  28.090   0.929
54745W        W14182  24.639  33.934  14.871
54746W        W14183   0.852  22.229   4.613
54747W        W14184  34.414  29.511   1.382
54748W        W14185  26.528  23.046  14.839
54749W        W14186  36.372  36.077  14.941
54750W        W14187   4.414  29.968   4.700
54751W        W14188  21.088  33.403  10.428
54752W        W14189   5.239  22.560   3.661
54753W        W14190  23.728   4.271  11.008
54754W        W14191   7.816  25.568   5.294
54755W        W14192   8.670   6.237   2.683
54756W        W14193  25.573  34.024   0.450
54757W        W14194  11.838   1.290   1.403
54758W        W14195   4.322  27.967   2.406
54759W        W14196  30.414  13.123   5.275
54760W        W14197  41.432  11.639   2.397
54761W        W14198  40.425   4.928  10.970
54762W        W14199  35.447  29.497  14.834
54763W        W14200  10.728  13.304   4.756
54764W        W14201  36.408  28.968  13.873
54765W        W14202   2.761  40.968   0.849
54766W        W14203  13.776  42.976  12.426
54767W        W14204   8.189   0.884   1.451
54768W        W14205  18.094  38.435  14.416
54769W        W14206  38.853  18.629   2.364
54770W        W14207   9.752  38.052  13.031
54771W        W14208  37.463  18.096  13.899
54772W        W14209  19.129  14.251   3.271
54773W        W14210  32.033  34.936  11.126
54774W        W14211  23.056  19.259   0.309
54775W        W14212  28.503  43.838  14.969
54776W        W14213  19.563  35.405  10.978
54777W        W14214  43.814  39.983   2.268
54778W        W14215   4.818  13.323   0.325
54779W        W14216  36.428  33.908   2.215
54780W        W14217  10.673  39.512  11.038
54781W        W14218   2.788  30.592   2.721
54782W        W14219  25.675  25.173   9.936
54783W        W14220  20.050   5.895   1.325
54784W        W14221  34.428  15.225  13.341
54785W        W14222   5.751  36.355   4.736
54786W        W14223  26.018  27.093   2.790
54787W        W14224  30.928  38.989  14.386
54788W        W14225  34.477  29.554  14.900
54789W        W14226  22.603   9.277   2.851
54790W        W14227   3.268  12.753   2.292
54791W        W14228  14.605  33.452  11.078
54792W        W14229  39.410  19.576  14.937
54793W        W14230   9.731  40.936  10.945
54794W        W14231  30.558   5.710   3.252
54795W        W14232  25.026  40.922  14.397
54796W        W14233   6.899  26.518  12.344
54797W        W14234  29.508  21.249  11.121
54798W        W14235  37.835  12.662  10.600
54799W        W14236  25.163  35.887  12.055
54800W        W14237  30.466  29.524  11.079
54801W        W14238  30.521  29.632   0.421
54802W        W14239  40.546  27.076  13.519
54803W        W14240   4.748  22.111   1.211
54804W        W14241  32.052  39.410  14.861
54805W        W14242  21.024  14.719  14.832
54806W        W14243  34.512   3.894   0.840
54807W        W14244  17.261  43.971   0.440
54808W        W14245  30.977  33.043  14.839
54809W        W14246  12.169  25.138   3.851
54810W        W14247  35.555  17.188   0.730
54811W        W14248  11.173  34.980   2.203
54812W        W14249  38.549  20.531  12.390
54813W        W14250  14.692  15.113   3.824
54814W        W14251  40.487  12.621  11.989
54815W        W14252  20.709   2.902   3.156
54816W        W14253  42.340   9.716  11.509
54817W        W14254  10.809  32.393   4.207
54818W        W14255  15.713  33.566  12.062
54819W        W14256   5.781   2.809   3.734
54820W        W14257  10.823  39.955  11.544
54821W        W14258  13.127  10.340   5.130
54822W        W14259  35.456  16.572  14.438
54823W        W14260  11.813  15.586  10.539
54824W        W14261   5.794  17.634  13.058
54825W        W14262   9.265  25.050   1.391
54826W        W14263  31.055  17.167  14.346
54827W        W14264   5.244  34.532  12.453
54828W        W14265  31.573  30.433   3.203
54829W        W14266  37.016  35.559  14.288
54830W        W14267  21.669  25.081  13.397
54831W        W14268  12.835  12.303   3.853
54832W        W14269   5.765  25.218   0.894
54833W        W14270  36.551  32.936   3.224
54834W        W14271   9.215  11.137   2.247
54835W        W14272   3.329  37.946   2.813
54836W        W14273   2.842  26.028   4.763
54837W        W14274  23.610   5.875   1.811
54838W        W14275  24.016  31.488  11.992
54839W        W14276   7.774  21.604   0.283
54840W        W14277  35.010  31.099  10.935
54841W        W14278  30.592  43.439  13.486
54842W        W14279  40.021   2.757  14.872
54843W        W14280  20.185  18.142   3.317
54844W        W14281  32.887   2.418  14.329
54845W        W14282  10.186  12.827   2.403
54846W        W14283  33.464  32.564   0.356
54847W        W14284  20.541   4.326   3.213
54848W        W14285  44.411  21.212   2.801
54849W        W14286  14.123  12.684   2.279
54850W        W14287  16.149  43.355  14.992
54851W        W14288  32.102  13.300   0.322
54852W        W14289  18.555  31.908  11.509
54853W        W14290   0.811  30.040   1.442
54854W        W14291  33.508  31.983   4.273
54855W        W14292  24.062  27.615   1.236
54856W        W14293  23.718  30.643  14.466
54857W        W14294  31.996  35.920  14.761
54858W        W14295   8.361  21.638   1.739
54859W        W14296  37.856  36.937   2.247
54860W        W14297   3.402  29.506   5.291
54861W        W14298   7.332   4.267  13.443
54862W        W14299  12.710  11.654  12.947
54863W        W14300  16.170  38.956   4.721
54864W        W14301  43.780  31.625   1.805
54865W        W14302   5.776  12.265  14.287
54866W        W14303  37.893  29.988  10.500
54867W        W14304  39.550  12.359  11.912
54868W        W14305  43.439  28.487  12.055
54869W        W14306  36.947   3.418   0.898
54870W        W14307  34.385  26.171  13.423
54871W        W14308  28.563  33.566   1.313
54872W        W14309  12.321  33.561   4.798
54873W        W14310  30.436  37.842   4.228
54874W        W14311   8.802  43.857  10.945
54875W        W14312  32.396  37.448  13.860
54876W        W14313  38.020  31.918  13.988
54877W        W14314   5.831  33.590  14.943
54878W        W14315  40.360   8.378   4.768
54879W        W14316   9.193  30.600   1.886
54880W        W14317   5.833  40.419   3.320
54881W        W14318  41.293  35.934   9.516
54882W        W14319  13.748   5.718  11.450
54883W        W14320   7.412  16.744  12.893
54884W        W14321  44.979  34.981  13.426
54885W        W14322  33.000  30.142   4.690
54886W        W14323  17.152  22.745   2.385
54887W        W14324  16.207  38.494   0.410
54888W        W14325  26.004   8.894  11.066
54889W        W14326  34.979  25.100  12.441
54890W        W14327   5.199  27.144  13.417
54891W        W14328  19.682  30.944   2.199
54892W        W14329  20.539  44.974  11.074
54893W        W14330  34.007  18.602  13.429
54894W        W14331  17.571  37.487  10.037
54895W        W14332  12.202   8.397  11.892
54896W        W14333  18.190  37.559   2.850
54897W        W14334  25.710  14.728   4.787
54898W        W14335  10.776  41.937   3.645
54899W        W14336  34.111  42.308  11.019
54900W        W14337  26.090  33.996   2.212
54901W        W14338  40.353  31.954   3.871
54902W        W14339  24.045  29.175  14.920
54903W        W14340  13.735  19.167  14.013
54904W        W14341  10.140  12.136   1.400
54905W        W14342  14.696  20.143  12.344
54906W        W14343  33.097  42.803  12.363
54907W        W14344  24.622  37.429  14.954
54908W        W14345  40.984  13.826  12.433
54909W        W14346   8.772   1.337   3.263
54910W        W14347   8.740  23.187   4.796
54911W        W14348  11.256  11.308   2.389
54912W        W14349  28.503   8.855  14.420
54913W        W14350   0.402  31.632  13.974
54914W        W14351  29.574  14.141   0.790
54915W        W14352  10.265  20.617   0.478
54916W        W14353  22.707  27.979   2.877
54917W        W14354   7.852  14.609  13.430
54918W        W14355  31.002  16.113  10.918
54919W        W14356   8.304  22.517  14.436
54920W        W14357  29.450  25.524  14.300
54921W        W14358  31.149  44.893   4.308
54922W        W14359  16.194  11.192  10.529
54923W        W14360  25.637  26.595   0.792
54924W        W14361  11.857  43.411  12.879
54925W        W14362  14.102  40.368   3.190
54926W        W14363  32.950   7.184  11.513
54927W        W14364  27.986  39.454   0.351
54928W        W14365  13.739  14.655   4.649
54929W        W14366  30.928   1.884  12.366
54930W        W14367  17.656   2.462   0.476
54931W        W14368  39.556  13.815   3.688
54932W        W14369  39.373  27.173  10.938
54933W        W14370  12.617   8.853  11.517
54934W        W14371   7.700  24.190   1.325
54935W        W14372   8.325  36.962  14.835
54936W        W14373  17.244  21.565   1.756
54937W        W14374  35.010  17.264  12.868
54938W        W14375   5.736  29.643   3.172
54939W        W14376   7.201   3.313  10.124
54940W        W14377   5.857   5.838  11.502
54941W        W14378  40.431  12.635   2.874
54942W        W14379  26.678   9.731   2.362
54943W        W14380  20.698  24.563  13.495
54944W        W14381  39.487  25.990  10.518
54945W        W14382  39.432  31.611   3.853
54946W        W14383  43.361  10.723  11.596
54947W        W14384  37.830  23.537  14.415
54948W        W14385  29.551   4.232   0.924
54949W        W14386  28.980  28.938   1.215
54950W        W14387  34.998  11.832  12.845
54951W        W14388   6.415  23.209   5.202
54952W        W14389  43.299  10.846   0.260
54953W        W14390  38.890  27.977  14.028
54954W        W14391  27.123  22.007   2.326
54955W        W14392  41.452   0.346  14.888
54956W        W14393   6.805   8.689  11.413
54957W        W14394  39.448  27.078  14.476
54958W        W14395  23.641  27.512  11.602
54959W        W14396   7.733  25.171  14.806
54960W        W14397  31.118   7.733  12.864
54961W        W14398  15.586  25.191  11.583
54962W        W14399  28.149  16.308  10.963
54963W        W14400  44.848   6.302  13.907
54964W        W14401  25.963  29.059  10.455
54965W        W14402  14.163  43.447  11.963
54966W        W14403  15.672  13.644  12.499
54967W        W14404   2.776  22.061  11.905
54968W        W14405   0.463  25.989  13.541
54969W        W14406  28.049  30.544  14.489
54970W        W14407   6.862  10.774  12.510
54971W        W14408  14.156   9.282  14.874
54972W        W14409  19.742  20.587   3.791
54973W        W14410  15.695   5.317  14.355
54974W        W14411  30.031   8.237  12.369
54975W        W14412  23.035  44.459   2.728
54976W        W14413  36.991  12.842   0.913
54977W        W14414  34.482  24.184  13.448
54978W        W14415  41.487  16.624   3.643
54979W        W14416  37.065  20.155  11.881
54980W        W14417  19.127  30.599  12.016
54981W        W14418  39.522  13.344   2.355
54982W        W14419  17.166  43.015  11.092
54983W        W14420  10.292  12.171  13.819
54984W        W14421   1.814  23.719  12.867
54985W        W14422   7.403  38.566  12.407
54986W        W14423  34.500  24.531  13.935
54987W        W14424  10.375   5.818  12.438
54988W        W14425  34.592  34.459  13.882
54989W        W14426  42.517  22.637   2.843
54990W        W14427  26.144  30.980   1.726
54991W        W14428  44.808  37.033  12.080
54992W        W14429  28.045  20.753  10.570
54993W        W14430  13.713  28.952  12.828
54994W        W14431   5.375  30.530  13.398
54995W        W14432  41.512  21.242  13.854
54996W        W14433  16.630  26.182  12.366
54997W        W14434   5.830   5.333   4.828
54998W        W14435  34.959  22.109  10.091
54999W        W14436  34.116  20.271   2.856
55000W        W14437  20.250  44.835  14.822
55001W        W14438   1.746  24.554  10.941
55002W        W14439  13.226  24.154   1.420
55003W        W14440  10.656  14.757   3.254
55004W        W14441  27.165  36.074  14.867
55005W        W14442  40.528  30.502   4.195
55006W        W14443  19.096  13.742   1.337
55007W        W14444   4.916  16.780   0.729
55008W        W14445  16.144  21.726   2.193
55009W        W14446  33.624  30.520  10.404
55010W        W14447   4.765  20.699  10.531
55011W        W14448  43.305  30.916   1.782
55012W        W14449   8.291  26.467   3.255
55013W        W14450  39.456  18.561   4.224
55014W        W14451  35.917  40.475   0.425
55015W        W14452  19.112  32.113  11.044
55016W        W14453  28.606  34.972   0.828
55017W        W14454  43.016  44.881  13.817
55018W        W14455  15.125  39.442  12.561
55019W        W14456  11.647  44.855   1.834
55020W        W14457  25.512   0.948  13.539
55021W        W14458  20.578   6.368   0.936
55022W        W14459  35.585  39.883   2.700
55023W        W14460  16.161   8.269   2.689
55024W        W14461   3.234   8.292   0.873
55025W        W14462  44.430  30.929   0.896
55026W        W14463  33.519  29.105  10.899
55027W        W14464   5.800  39.052  10.915
55028W        W14465  15.122  25.695   0.452
55029W        W14466  22.547  36.571  13.972
55030W        W14467   4.410  14.686   2.700
55031W        W14468  29.545   9.739   4.298
55032W        W14469  25.686  35.857   0.845
55033W        W14470  36.934  20.155  14.415
55034W        W14471  35.442  42.990   2.775
55035W        W14472  40.508   3.822   3.761
55036W        W14473  30.011  11.798   0.372
55037W        W14474   2.444  10.861  11.103
55038W        W14475   7.207  26.682  11.957
55039W        W14476  23.585   5.865   3.757
55040W        W14477  21.517  29.600   1.285
55041W        W14478  35.475  20.036  13.058
55042W        W14479  40.469   7.330  14.843
55043W        W14480  35.109   4.324   1.227
55044W        W14481   7.881  39.392   2.232
55045W        W14482  19.741  41.513  14.913
55046W        W14483  43.928  11.769   2.271
55047W        W14484   4.943   8.845  11.128
55048W        W14485  23.674  34.992   3.311
55049W        W14486  21.122  30.921   1.450
55050W        W14487   6.695  37.081  12.531
55051W        W14488  42.418  13.225  12.567
55052W        W14489  19.764  30.628  12.446
55053W        W14490   0.318   2.385   1.292
55054W        W14491  29.937  32.053  11.986
55055W        W14492  26.480  41.787  12.998
55056W        W14493  11.782   3.817   3.746
55057W        W14494   9.824   7.753  11.571
55058W        W14495  28.667  38.404   2.388
55059W        W14496  15.807  35.400  13.880
55060W        W14497   3.411  43.005  13.947
55061W        W14498  42.968  17.668   0.820
55062W        W14499   8.706  27.602   1.228
55063W        W14500  19.062  24.225   1.905
55064W        W14501  17.206   3.285  13.465
55065W        W14502   2.780  22.697  10.516
55066W        W14503  20.646   3.402  14.776
55067W        W14504  25.624  29.095  11.916
55068W        W14505  41.531  36.572  12.950
55069W        W14506  44.505   1.471   3.285
55070W        W14507  42.960  36.081  12.029
55071W        W14508  27.050  14.279   3.172
55072W        W14509  16.159  39.372   0.846
55073W        W14510  30.586   9.151   0.320
55074W        W14511  43.311  20.769   0.763
55075W        W14512   9.323  25.074   5.260
55076W        W14513   6.186  31.555  12.016
55077W        W14514   8.204  32.942   4.829
55078W        W14515   1.880  19.615   2.676
55079W        W14516  30.981   9.193   3.643
55080W        W14517  34.972  16.751   4.828
55081W        W14518  29.653  44.504   4.247
55082W        W14519  41.937   3.407   4.726
55083W        W14520  38.559  28.086   0.729
55084W        W14521  44.367  13.262  14.432
55085W        W14522  37.979  12.143  11.953
55086W        W14523  25.532  44.004  13.330
55087W        W14524  44.858  22.172  13.511
55088W        W14525  42.785  30.571   4.337
55089W        W14526  43.800  16.777   4.235
55090W        W14527  39.895  13.632  10.979
55091W        W14528   8.174   2.862   3.720
55092W        W14529   5.381  40.043  13.022
55093W        W14530  31.912  21.678   4.229
55094W        W14531   5.920  41.975   4.682
55095W        W14532  43.851  14.322   2.700
55096W        W14533  10.860  27.944   4.787
55097W        W14534  15.093  13.722   4.619
55098W        W14535  28.656  20.104   0.744
55099W        W14536  11.292  28.614   1.872
55100W        W14537   1.880  34.587   4.744
55101W        W14538  26.079  41.910  11.965
55102W        W14539   6.690  44.283   0.939
55103W        W14540  43.905  11.751  12.857
55104W        W14541  19.146  44.893   0.751
55105W        W14542  38.942   3.788   4.229
55106W        W14543   0.297  32.930  14.958
55107W        W14544  24.638   0.449  11.486
55108W        W14545  30.096  19.181   2.378
55109W        W14546  39.355   3.749  12.090
55110W        W14547  25.208   8.874  13.018
55111W        W14548   0.373  19.176  14.984
55112W        W14549  37.465   2.403  13.029
55113W        W14550  32.478  28.566  11.411
55114W        W14551  14.293  12.182   0.280
55115W        W14552  20.099  21.026  11.053
55116W        W14553  31.616  28.172  13.928
55117W        W14554  21.205  26.602   3.332
55118W        W14555  28.548  39.992  10.596
55119W        W14556   3.286   6.357  14.479
55120W        W14557  12.171  15.722   4.642
55121W        W14558  35.363   0.459   2.863
55122W        W14559  11.689  23.597  13.849
55123W        W14560  37.830  10.758  10.430
55124W        W14561  39.368   5.760  14.831
55125W        W14562  33.129   7.768   4.797
55126W        W14563   7.864  32.943  12.932
55127W        W14564   1.354  15.768   2.727
55128W        W14565  34.608  10.857   1.299
55129W        W14566  10.821  43.799  10.617
55130W        W14567  26.623  24.059  11.451
55131W        W14568   8.169   7.310   2.349
55132W        W14569  44.468  11.273   1.820
55133W        W14570  39.468  27.518  13.871
55134W        W14571  16.299   1.891   0.307
55135W        W14572  29.025  43.470  13.049
55136W        W14573  33.572  44.864   1.426
55137W        W14574  40.426  41.830   4.176
55138W        W14575   2.813  41.888  14.915
55139W        W14576  16.799  38.852  13.872
55140W        W14577  34.591  13.723  11.046
55141W        W14578  31.564   6.756  11.066
55142W        W14579  25.048   9.861  10.623
55143W        W14580  10.203  38.995   3.353
55144W        W14581   5.419  12.307   1.829
55145W        W14582  22.626  31.946  13.993
55146W        W14583   0.347  44.977   3.255
55147W        W14584   4.914  14.828  14.279
55148W        W14585  22.524   9.665   4.265
55149W        W14586   3.426  34.581  13.894
55150W        W14587   6.344  17.637  14.486
55151W        W14588  30.916  17.205   2.715
55152W        W14589  16.147   9.199   0.430
55153W        W14590  34.922   1.818  10.512
55154W        W14591   5.415  11.776  12.992
55155W        W14592  10.707   8.171   2.230
55156W        W14593  14.123   6.264   1.270
55157W        W14594  17.624  42.023   0.893
55158W        W14595  43.877  27.176  12.882
55159W        W14596  42.022   1.843   4.264
55160W        W14597   2.844  44.940   4.322
55161W        W14598  40.529  44.814  12.047
55162W        W14599  40.896  24.658   2.397
55163W        W14600  23.167  43.405  11.432
55164W        W14601  17.763  29.166  12.373
55165W        W14602  24.574  42.848  11.871
55166W        W14603  24.517  43.006   2.845
55167W        W14604  37.417  16.786   4.134
55168W        W14605  21.676  19.572  13.972
55169W        W14606  22.219  24.060   0.760
55170W        W14607  22.565  36.367  14.514
55171W        W14608   7.358  12.139  14.936
55172W        W14609  16.130  33.390   2.684
55173W        W14610  32.885  18.580   4.748
55174W        W14611  15.218  27.014  14.467
55175W        W14612   8.217   4.204   1.710
55176W        W14613  21.072  41.428   2.314
55177W        W14614  10.810  15.107   2.245
55178W        W14615  19.221  43.842   4.206
55179W        W14616  20.647  40.449  11.611
55180W        W14617   4.737  16.233   0.881
55181W        W14618  12.800   5.905   4.332
55182W        W14619   4.915  32.552   3.689
55183W        W14620  25.091  44.866   2.877
55184W        W14621  28.669   4.898  14.802
55185W        W14622  20.565  15.680   1.238
55186W        W14623  10.660  30.015  12.372
55187W        W14624  21.621  20.130  12.488
55188W        W14625  31.006  39.840  14.496
55189W        W14626  28.021   9.829   1.424
55190W        W14627   1.422   4.370  11.501
55191W        W14628  28.948   3.937  12.943
55192W        W14629  40.433  41.499   0.274
55193W        W14630   0.488  44.979  14.423
55194W        W14631  10.877  13.605  13.861
55195W        W14632  14.245   4.875   1.349
55196W        W14633  14.322  22.608  10.478
55197W        W14634   1.872  30.965   4.675
55198W        W14635  13.755  37.836  13.445
55199W        W14636  42.930  23.550   4.151
55200W        W14637  40.943  10.340   0.749
55201W        W14638  13.176  41.967  13.532
55202W        W14639  37.915  23.540  14.894
55203W        W14640  37.497  14.810   3.151
55204W        W14641  38.335  35.907   1.830
55205W        W14642   8.166  11.621   1.917
55206W        W14643  44.278   0.442  13.389
55207W        W14644  12.792  15.669   1.891
55208W        W14645   8.379  40.814  11.892
55209W        W14646   2.260  36.498  13.919
55210W        W14647   4.874  13.216   5.089
55211W        W14648  31.041  34.995  13.054
55212W        W14649  19.088  13.178  11.538
55213W        W14650  15.636  22.623   1.449
55214W        W14651  21.118  37.344   4.307
55215W        W14652   0.967  15.157   0.848
55216W        W14653  35.897   1.791   1.789
55217W        W14654  42.031  25.531   0.929
55218W        W14655  35.928  30.496   2.831
55219W        W14656  18.551  25.591   2.298
55220W        W14657  16.161  26.955   4.797
55221W        W14658  26.191   0.248  10.486
55222W        W14659  39.525   5.364   4.630
55223W        W14660  14.335  28.130   3.843
55224W        W14661  10.142  36.347   1.780
55225W        W14662  32.491   4.434   2.324
55226W        W14663  27.029  18.590  11.009
55227W        W14664  16.756  23.535  14.000
55228W        W14665   6.204  25.019  11.511
55229W        W14666  37.993  43.816   4.274
55230W        W14667   4.444  41.532   1.324
55231W        W14668   0.958  11.702   0.747
55232W        W14669  36.933  44.782   4.288
55233W        W14670  14.176  20.252  13.361
55234W        W14671  22.576  17.096   4.164
55235W        W14672  34.863   2.908   1.264
55236W        W14673  27.122  24.107  14.952
55237W        W14674   8.379  40.906  10.970
55238W        W14675  20.656  27.998  13.883
55239W        W14676  35.367  36.587   0.806
55240W        W14677  43.507  14.300   2.743
55241W        W14678   9.878  15.592  10.909
55242W        W14679  23.686   6.913  12.037
55243W        W14680   5.835   7.893   2.902
55244W        W14681  22.711  13.342  10.053
55245W        W14682   0.793  20.618  13.481
55246W        W14683  29.480  13.829   3.776
55247W        W14684  36.950  33.488  11.026
55248W        W14685   2.727  42.514  11.865
55249W        W14686  13.349  38.950   9.933
55250W        W14687  26.956  21.657  11.117
55251W        W14688  21.637   9.705  11.554
55252W        W14689  29.444   1.880   2.841
55253W        W14690  19.625  37.004   2.190
55254W        W14691  34.050  28.670  13.331
55255W        W14692  23.734  30.096   0.464
55256W        W14693  39.892   1.238   1.270
55257W        W14694  35.083   3.902   2.320
55258W        W14695  25.486  14.337   0.484
55259W        W14696  18.671  28.958   1.334
55260W        W14697   5.210   7.274   0.779
55261W        W14698   4.331  30.426  10.438
55262W        W14699  42.526  12.152  12.915
55263W        W14700   5.275  26.023  12.052
55264W        W14701  25.182  42.336   3.804
55265W        W14702  23.180   8.271  10.529
55266W        W14703   6.278  23.610   2.828
55267W        W14704   6.721  15.169   0.414
55268W        W14705  26.471   7.194   4.651
55269W        W14706  15.792   8.723  10.456
55270W        W14707  11.316   7.377   4.291
55271W        W14708  41.827  30.581  14.869
55272W        W14709  23.112  24.677   4.727
55273W        W14710  31.463  24.009   9.605
55274W        W14711  18.650   4.885  13.918
55275W        W14712  14.286  14.254   1.728
55276W        W14713  21.111   1.898   2.856
55277W        W14714  35.504  23.081   2.384
55278W        W14715  22.101  32.017  14.396
55279W        W14716  10.683  43.847  14.931
55280W        W14717  34.488  23.587   0.966
55281W        W14718  10.383  29.456  14.993
55282W        W14719  16.245  33.905  11.515
55283W        W14720  38.972   2.916   4.154
55284W        W14721   2.855  40.306   0.951
55285W        W14722  15.315  17.758   2.267
55286W        W14723  41.329  18.219   0.461
55287W        W14724   5.405  42.870  14.931
55288W        W14725   3.835  14.785   0.755
55289W        W14726   9.219  17.097   2.208
55290W        W14727  35.436  13.341  11.494
55291W        W14728  11.711  39.470  12.427
55292W        W14729  20.674  31.498  13.478
55293W        W14730  37.847  44.850   3.289
55294W        W14731  19.047  12.354  13.937
55295W        W14732  14.735  19.759  10.007
55296W        W14733  19.597  20.552  11.868
55297W        W14734   8.802  42.406  14.362
55298W        W14735   1.837   3.784  10.899
55299W        W14736   2.897   4.765  14.868
55300W        W14737  16.745  16.209  11.440
55301W        W14738  40.011  15.736   3.369
55302W        W14739   9.333  21.616  11.042
55303W        W14740  26.129  36.528  14.419
55304W        W14741  11.758  12.720   0.355
55305W        W14742   8.210  32.527   2.273
55306W        W14743  18.161  35.384  10.897
55307W        W14744  27.012   2.233  14.835
55308W        W14745  24.123  19.265  14.024
55309W        W14746  37.394  25.509  12.383
55310W        W14747   6.801  14.763  13.449
55311W        W14748  26.573  36.461   1.770
55312W        W14749   2.331  20.589  10.938
55313W        W14750  22.697  18.709   0.763
55314W        W14751  41.298   6.281   4.124
55315W        W14752  16.312  31.025   3.805
55316W        W14753  13.301  18.296   2.391
55317W        W14754  14.801  21.179  12.357
55318W        W14755   1.482  10.792   3.681
55319W        W14756  14.811  30.118   3.799
55320W        W14757  40.873  42.930  13.835
55321W        W14758  11.805  17.616  13.995
55322W        W14759  14.183  17.731  11.489
55323W        W14760  23.200  31.537  12.883
55324W        W14761  44.296  17.293  12.938
55325W        W14762   7.824  40.973   1.695
55326W        W14763  33.958  39.955  13.883
55327W        W14764  10.768  31.946  12.444
55328W        W14765  34.416   5.313  10.924
55329W        W14766   1.836  41.797   5.317
55330W        W14767  22.611  24.496   0.477
55331W        W14768  16.209  29.524  14.460
55332W        W14769  31.647  13.325  10.563
55333W        W14770  43.431  42.785  12.575
55334W        W14771  39.943  33.876   4.798
55335W        W14772  36.547   3.394   3.270
55336W        W14773  34.084  15.222   2.416
55337W        W14774   3.883  26.094   1.338
55338W        W14775   4.259   1.742  14.913
55339W        W14776  18.258   6.359   2.828
55340W        W14777  44.451  34.971   5.204
55341W        W14778  20.120  11.847   0.422
55342W        W14779   1.851  36.867   2.755
55343W        W14780   7.689   1.810   2.808
55344W        W14781  27.623  40.996  13.908
55345W        W14782  44.760  12.759  14.515
55346W        W14783   6.417  13.660   1.805
55347W        W14784  14.208  25.654   1.853
55348W        W14785  14.197  18.773   4.311
55349W        W14786   4.702  36.438   1.875
55350W        W14787  18.069  40.035  14.895
55351W        W14788  23.653   1.414   3.202
55352W        W14789  32.445  33.389  10.552
55353W        W14790  37.835  33.938   2.707
55354W        W14791   6.921  42.033  11.462
55355W        W14792  37.365  33.557  10.147
55356W        W14793  26.566   1.273  11.554
55357W        W14794  34.571  10.810  14.464
55358W        W14795  33.930  38.552   5.095
55359W        W14796  32.515  35.530  13.450
55360W        W14797  19.267  28.624   1.419
55361W        W14798  13.184  40.401  12.399
55362W        W14799   7.802  20.075   3.321
55363W        W14800  17.753  14.325  11.869
55364W        W14801  42.000  18.239  10.078
55365W        W14802  34.440  27.448   1.421
55366W        W14803   9.389  44.860   0.287
55367W        W14804  44.970  39.407  10.538
55368W        W14805  42.305  40.018  13.478
55369W        W14806  22.051  43.492  14.817
55370W        W14807  19.756  18.758   2.369
55371W        W14808  30.130  21.697   3.727
55372W        W14809   4.819  18.719   1.256
55373W        W14810  11.365   9.671  12.825
55374W        W14811  32.948   1.961   2.824
55375W        W14812  43.514  36.054   3.248
55376W        W14813  17.083   8.365   4.350
55377W        W14814  17.114  29.925   4.748
55378W        W14815  24.099   3.814  12.083
55379W        W14816  37.846  40.306  12.953
55380W        W14817  39.462  20.534   1.894
55381W        W14818   9.673  40.396   1.438
55382W        W14819   3.404  38.982   4.814
55383W        W14820  19.679  38.455   4.720
55384W        W14821   0.923  36.089  12.875
55385W        W14822  29.935  37.455  14.015
55386W        W14823  21.712  17.215   1.394
55387W        W14824  15.111  31.507   3.187
55388W        W14825  14.338  22.049  12.868
55389W        W14826  41.488   8.877  12.401
55390W        W14827  43.279  11.269   3.847
55391W        W14828  37.496  43.418  13.853
55392W        W14829  43.795  43.788  10.931
55393W        W14830  11.708  20.094  11.430
55394W        W14831  37.440  37.417   0.389
55395W        W14832  28.085  17.615  10.933
55396W        W14833  41.446  15.587  10.619
55397W        W14834  13.240  16.134   1.365
55398W        W14835  18.574  27.461   2.883
55399W        W14836  19.619  35.547   4.706
55400W        W14837  24.555  41.293   3.155
55401W        W14838   3.319  34.040  11.066
55402W        W14839   1.357   1.790   0.850
55403W        W14840   5.323  33.603   0.966
55404W        W14841   7.911  43.830   3.240
55405W        W14842  26.569   9.197  11.114
55406W        W14843  25.025   3.767   1.770
55407W        W14844   9.305  26.127   0.360
55408W        W14845  29.573  30.942  11.959
55409W        W14846  27.676   3.272  14.997
55410W        W14847  39.335  42.373   3.243
55411W        W14848  10.721  40.800   0.935
55412W        W14849   3.267  23.165  10.545
55413W        W14850   3.828  40.956  13.309
55414W        W14851  20.036  20.708  14.384
55415W        W14852  31.508   8.174   3.270
55416W        W14853  11.669  11.741   5.227
55417W        W14854  22.214   6.343   4.166
55418W        W14855   0.476   0.857   2.228
55419W        W14856  13.330   8.169  14.898
55420W        W14857  11.676  14.762  14.930
55421W        W14858  31.978   8.761   0.933
55422W        W14859  20.266  13.766  13.876
55423W        W14860  32.939  20.586   0.379
55424W        W14861   1.381  25.043  11.505
55425W        W14862  33.022  30.529   3.371
55426W        W14863  39.960   9.386   1.894
55427W        W14864   1.270   7.890   2.305
55428W        W14865   5.299  34.884  10.449
55429W        W14866   9.336  17.679   3.145
55430W        W14867  19.535   3.893  12.858
55431W        W14868  25.514  10.658   1.904
55432W        W14869  16.201   2.447  12.862
55433W        W14870  14.704  20.105   0.895
55434W        W14871   6.285  33.975   4.603
55435W        W14872  36.925  14.264  13.320
55436W        W14873  26.635  22.682   5.223
55437W        W14874  33.918   8.248  10.959
55438W        W14875   2.751  40.340  11.879
55439W        W14876  43.404  44.856  14.958
55440W        W14877  27.673  10.687   1.838
55441W        W14878   4.899   4.225   3.245
55442W        W14879  24.655  26.579   4.734
55443W        W14880  23.241  17.746  10.546
55444W        W14881  37.370  33.982  10.442
55445W        W14882  29.548  21.117  11.934
55446W        W14883  39.949  24.000  11.961
55447W        W14884  37.533   6.677  14.851
55448W        W14885  30.553  16.255   2.245
55449W        W14886  39.362  29.619   2.211
55450W        W14887  44.334  19.724   5.202
55451W        W14888   5.323  12.230   5.710
55452W        W14889  20.581  11.354  13.023
55453W        W14890  19.230  34.612  13.828
55454W        W14891  26.653  42.343   0.404
55455W        W14892  17.066  11.632   2.317
55456W        W14893  35.998  27.563   1.432
55457W        W14894  28.454  29.020  14.941
55458W        W14895   5.778  14.175  12.522
55459W        W14896  10.245  11.674   1.871
55460W        W14897  13.623   2.829   2.351
55461W        W14898   7.749  10.379   5.208
55462W        W14899  22.052   4.897   4.635
55463W        W14900   2.776  38.392  11.963
55464W        W14901  30.949  18.766  13.408
55465W        W14902   0.815  40.407   0.473
55466W        W14903   8.823   5.201   2.716
55467W        W14904  12.250  36.395   2.857
55468W        W14905  43.282  37.850   3.245
55469W        W14906  16.259  39.958  13.986
55470W        W14907  33.944   3.870   2.419
55471W        W14908  40.506  34.600  10.016
55472W        W14909  42.977  31.525   0.902
55473W        W14910  38.912  14.311   2.249
55474W        W14911  41.966  19.693  14.411
55475W        W14912   6.222  21.516  11.573
55476W        W14913   8.194   0.925   3.715
55477W        W14914  32.925  34.047  13.391
55478W        W14915  33.623  15.295  10.031
55479W        W14916  43.420  40.377  13.897
55480W        W14917  44.874  11.838   0.770
55481W        W14918  23.185  11.836   3.373
55482W        W14919   3.928  14.207   4.309
55483W        W14920  41.365  21.701   1.802
55484W        W14921  43.379  15.613  10.034
55485W        W14922  21.201  16.076   2.747
55486W        W14923   8.277  34.864   2.308
55487W        W14924  23.504  35.383   3.288
55488W        W14925  20.253  25.989  14.885
55489W        W14926  40.885  23.704  13.791
55490W        W14927  33.874   8.785  11.948
55491W        W14928  12.742  16.649  14.974
55492W        W14929  18.571  44.340   3.653
55493W        W14930  39.053  28.047  12.470
55494W        W14931  29.979   8.397   3.749
55495W        W14932  28.515  17.204   3.722
55496W        W14933  40.327  22.655  14.001
55497W        W14934  44.439  41.390  10.455
55498W        W14935  16.299   1.976  13.409
55499W        W14936  41.888  30.532   2.726
55500W        W14937  31.077  13.670   2.282
55501W        W14938   5.786  20.098   1.701
55502W        W14939  44.003  24.191   4.763
55503W        W14940  44.759   6.887  11.895
55504W        W14941  10.759  11.733  11.568
55505W        W14942   4.790  22.586  13.521
55506W        W14943   5.847  15.185  13.954
55507W        W14944   4.439   4.702  14.498
55508W        W14945  18.554  36.381  12.867
55509W        W14946  33.526  11.139   9.981
55510W        W14947  18.141  10.176   2.190
55511W        W14948  22.656  30.123  12.836
55512W        W14949   0.414  14.186  11.896
55513W        W14950  16.754   4.864   3.811
55514W        W14951  25.666   7.340  14.795
55515W        W14952  37.840   8.327  10.930
55516W        W14953  30.508  12.205  11.123
55517W        W14954  30.578  15.301   4.601
55518W        W14955  41.037   7.738  11.526
55519W        W14956   9.212  29.003   4.159
55520W        W14957  35.965  20.764   4.641
55521W        W14958   0.410  43.859   3.249
55522W        W14959  13.114  19.139   0.828
55523W        W14960  19.620  30.454  14.339
55524W        W14961  12.775  11.862   1.273
55525W        W14962  10.646  43.935  13.854
55526W        W14963  22.124  21.707  12.978
55527W        W14964  20.640  23.988   1.369
55528W        W14965  22.044   7.359   2.900
55529W        W14966   0.812  38.354   1.381
55530W        W14967  42.307  26.684   1.859
55531W        W14968  30.612  12.766  10.598
55532W        W14969  31.898   1.472  12.051
55533W        W14970   2.416  27.106  12.871
55534W        W14971  30.144   3.768   3.830
55535W        W14972   0.799  36.057  13.429
55536W        W14973  23.621   8.783  13.497
55537W        W14974   6.861  31.064  10.135
55538W        W14975   3.460  35.516   4.319
55539W        W14976   7.669   3.783  11.440
55540W        W14977  38.331   3.722   4.214
55541W        W14978  22.030  32.920  11.446
55542W        W14979   9.318  11.245  10.523
55543W        W14980  38.383  42.839  10.899
55544W        W14981  33.070  13.610   0.462
55545W        W14982  32.974  44.944   2.846
55546W        W14983  40.021   6.800   0.300
55547W        W14984   1.761  26.093   2.801
55548W        W14985  26.693  10.839   0.277
55549W        W14986  27.635  12.130   3.782
55550W        W14987  31.613  36.979  14.835
55551W        W14988  40.330   1.946   2.881
55552W        W14989  10.678  42.498   3.362
55553W        W14990  24.715   7.698  10.602
55554W        W14991   2.329  25.617   1.811
55555W        W14992  21.530   6.373  12.559
55556W        W14993   8.309  29.656  12.826
55557W        W14994  29.077  11.353   0.366
55558W        W14995  33.380  36.855   1.340
55559W        W14996  35.576  20.625   1.873
55560W        W14997  30.457  41.843  14.515
55561W        W14998  43.967  10.342   3.305
55562W        W14999   7.812  34.468  12.951
55563W        W15000   2.241  10.207   2.381
55564W        W15001  42.996   2.266   3.701
55565W        W15002  32.401  17.792   4.213
55566W        W15003  33.009  33.394   2.665
55567W        W15004   2.232   1.334   3.687
55568W        W15005  42.801  33.130   4.141
55569W        W15006   2.321  24.611  14.318
55570W        W15007  33.930  29.541   0.355
55571W        W15008  17.114  30.158  12.906
55572W        W15009  32.038  26.002   4.211
55573W        W15010  32.435  15.792   3.357
55574W        W15011  43.323  25.626  12.468
55575W        W15012  31.465  31.456   4.308
55576W        W15013  40.520  37.425  11.105
55577W        W15014  24.175  37.398  12.089
55578W        W15015   9.658  35.898  10.469
55579W        W15016  10.382   4.835  14.359
55580W        W15017   4.393  21.694   3.245
55581W        W15018  29.498  26.657   5.133
55582W        W15019  21.175  10.644  12.927
55583W        W15020  28.135  19.626   2.295
55584W        W15021  20.539  25.029  11.502
55585W        W15022  21.640   4.792  11.117
55586W        W15023  33.449  13.249  13.438
55587W        W15024  41.407  26.043  12.096
55588W        W15025  19.608  32.035  14.325
55589W        W15026   3.875   8.740  11.578
55590W        W15027  13.253  37.933   4.680
55591W        W15028   7.176   2.833   1.221
55592W        W15029  27.591  12.254   3.217
55593W        W15030  39.376  23.099   4.721
55594W        W15031  10.818   1.452  14.312
55595W        W15032  19.742  36.076  10.491
55596W        W15033  41.879  32.559  14.959
55597W        W15034   8.226  29.657  10.932
55598W        W15035  14.151   1.973   3.799
55599W        W15036  27.116   0.987  13.879
55600W        W15037  42.860   1.481  14.412
55601W        W15038  40.809  16.617   1.271
55602W        W15039  14.672  43.492   4.598
55603W        W15040  26.622  38.917  12.008
55604W        W15041  19.551  38.902   2.332
55605W        W15042  38.470  34.452  12.393
55606W        W15043  24.085  18.231  14.868
55607W        W15044  29.052  26.165   2.859
55608W        W15045  35.545  20.701  13.531
55609W        W15046   0.950  24.701  14.940
55610W        W15047  35.968  10.184   3.796
55611W        W15048  41.429  41.907   4.130
55612W        W15049  16.134   3.738   0.880
55613W        W15050   4.315   6.384   4.746
55614W        W15051  41.337  11.347  10.457
55615W        W15052  11.731   1.368   2.199
55616W        W15053  21.691  42.861  12.002
55617W        W15054  25.065  44.422   2.779
55618W        W15055  33.001  12.794   1.326
55619W        W15056   1.236  13.266   3.197
55620W        W15057  34.521  35.546  11.998
55621W        W15058   8.312  37.456   3.692
55622W        W15059  36.436  42.380   9.963
55623W        W15060  20.617  17.138  13.795
55624W        W15061   4.319   9.837   1.362
55625W        W15062   2.775  24.149  10.522
55626W        W15063  38.435   1.482   2.874
55627W        W15064  22.621  19.118   0.965
55628W        W15065   9.245  17.159  13.458
55629W        W15066  29.070  18.731   3.299
55630W        W15067  34.450  41.000   3.632
55631W        W15068   9.356   4.858  11.956
55632W        W15069  37.036  39.943  13.884
55633W        W15070  37.408  29.150   2.725
55634W        W15071   2.382  42.414  10.502
55635W        W15072  40.324  30.063   2.250
55636W        W15073  33.559  23.682  12.991
55637W        W15074  29.534  40.511  11.948
55638W        W15075  20.543  24.705  13.941
55639W        W15076  37.000   1.815   4.352
55640W        W15077  27.013   3.727   0.484
55641W        W15078  13.172  44.790   0.872
55642W        W15079  41.521  30.147   2.296
55643W        W15080  39.422  42.809  11.399
55644W        W15081  31.634  14.832  10.629
55645W        W15082  22.534  25.516   4.278
55646W        W15083  21.737   4.776   0.403
55647W        W15084   8.698  11.806  11.992
55648W        W15085  26.542  43.319   4.250
55649W        W15086  14.252  13.741  13.058
55650W        W15087  30.990  27.190  14.795
55651W        W15088   8.307  22.063  13.313
55652W        W15089  35.463  17.187  10.909
55653W        W15090   5.297  25.673   2.816
55654W        W15091  23.226  22.089   4.816
55655W        W15092  30.429   3.895  13.884
55656W        W15093  23.240  22.635   1.280
55657W        W15094  25.551  22.204   4.327
55658W        W15095  33.019  13.156  14.480
55659W        W15096   5.346  38.053  11.497
55660W        W15097  30.121  28.107   0.760
55661W        W15098  16.088  17.795   3.867
55662W        W15099  13.260  26.681   2.748
55663W        W15100   2.748  39.441   3.764
55664W        W15101  36.089  27.446  11.864
55665W        W15102  37.035   8.804   3.329
55666W        W15103  40.524  24.991  11.123
55667W        W15104  37.531  37.909  12.533
55668W        W15105  28.472   1.414   1.421
55669W        W15106  24.570  23.551   3.717
55670W        W15107  19.089  20.742   4.122
55671W        W15108   3.294   4.238   2.900
55672W        W15109   1.917  26.050  11.986
55673W        W15110  28.154  25.088   0.467
55674W        W15111   1.771  33.112  14.857
55675W        W15112  30.444  30.922  12.988
55676W        W15113   6.296  35.019   4.147
55677W        W15114  18.209   9.379  12.467
55678W        W15115  44.478  10.759  14.363
55679W        W15116  28.465   4.397  14.487
55680W        W15117  20.221  24.598  13.893
55681W        W15118   5.265   1.276   0.332
55682W        W15119  40.870  31.518   4.661
55683W        W15120  15.233  44.803   3.380
55684W        W15121  34.429  19.262   3.701
55685W        W15122  12.719  30.545  14.351
55686W        W15123   7.770   9.695   0.883
55687W        W15124  18.227  17.790   1.729
55688W        W15125  24.566  40.976  12.854
55689W        W15126  33.884   9.888   4.140
55690W        W15127  34.551   9.188   4.707
55691W        W15128  34.044   6.896   1.904
55692W        W15129  40.983  42.353   2.286
55693W        W15130  40.882  12.199  11.391
55694W        W15131  32.948  29.642  12.511
55695W        W15132  21.699  25.542   5.109
55696W        W15133  10.326  24.665   1.246
55697W        W15134   0.332  10.247  12.543
55698W        W15135  17.582  30.158   4.122
55699W        W15136  14.130  42.974   1.754
55700W        W15137  42.406   4.417   2.376
55701W        W15138  28.485  12.346   1.292
55702W        W15139  12.839  22.520  13.451
55703W        W15140   9.333  19.709   2.749
55704W        W15141  13.248  14.216   4.833
55705W        W15142  19.597  15.130   1.226
55706W        W15143  39.988  25.505   1.264
55707W        W15144  25.044  10.690  14.496
55708W        W15145  18.763  22.679   0.269
55709W        W15146  18.169   0.337  14.490
55710W        W15147   1.765   1.738  13.816
55711W        W15148  15.712  25.536   1.289
55712W        W15149  21.515  33.936   2.869
55713W        W15150  19.259  43.510  10.032
55714W        W15151  15.602  36.348  14.001
55715W        W15152  19.216   0.745   0.460
55716W        W15153  33.996  26.020   2.892
55717W        W15154  29.992  43.484   0.296
55718W        W15155  40.905  28.116   2.324
55719W        W15156  37.376  37.012  10.591
55720W        W15157   8.351   8.735   1.325
55721W        W15158  39.424  15.614   3.343
55722W        W15159  21.245  44.770   3.171
55723W        W15160  41.507  17.076  14.504
55724W        W15161  17.784   2.231  12.481
55725W        W15162  22.037  34.513   0.397
55726W        W15163  19.257  21.651  12.937
55727W        W15164  29.110  26.164   4.340
55728W        W15165  42.877  20.591   3.844
55729W        W15166  25.583  11.282   0.374
55730W        W15167  44.863  14.695   3.645
55731W        W15168  26.106   7.836   0.456
55732W        W15169  18.235   6.804  13.883
55733W        W15170  42.935  34.551  14.376
55734W        W15171  22.724  12.806  11.482
55735W        W15172   0.954   8.281  13.414
55736W        W15173  28.134  39.831  13.422
55737W        W15174   7.690  31.965  13.866
55738W        W15175   6.917  28.619   0.804
55739W        W15176  17.614   3.912   3.382
55740W        W15177  14.693   5.284  14.971
55741W        W15178  39.414  43.287   1.896
55742W        W15179   7.873  21.597  13.442
55743W        W15180  36.474  26.520   0.400
55744W        W15181  40.360  13.173   2.340
55745W        W15182  11.859  38.837  11.016
55746W        W15183  31.619  15.765   4.193
55747W        W15184  24.489  28.043   3.648
55748W        W15185  21.732   7.743   4.302
55749W        W15186  31.136  42.914  10.954
55750W        W15187  41.515  10.373   4.122
55751W        W15188  31.594   6.712   1.218
55752W        W15189  26.619  13.719  12.922
55753W        W15190  37.035  39.039   1.720
55754W        W15191  15.722   0.346  10.068
55755W        W15192  13.128  38.003  13.955
55756W        W15193  44.488  13.241   9.444
55757W        W15194  38.340  35.443   2.712
55758W        W15195  34.446  14.316  13.944
55759W        W15196  35.930  35.517   4.333
55760W        W15197  40.953  24.097  11.068
55761W        W15198   0.888   6.841  10.982
55762W        W15199  32.610  36.058   4.776
55763W        W15200  12.666  29.577  14.768
55764W        W15201  36.484  28.512   3.196
55765W        W15202   8.383  26.686   1.871
55766W        W15203  41.993   3.752  14.452
55767W        W15204  34.924  10.849  13.853
55768W        W15205  39.825  36.414  13.320
55769W        W15206  15.662  34.468   1.348
55770W        W15207   8.161  18.572  12.001
55771W        W15208  17.727  35.538  14.462
55772W        W15209  30.588   3.444  10.953
55773W        W15210   4.262  16.302   3.669
55774W        W15211  26.583  23.058  12.058
55775W        W15212   2.748  27.099   1.357
55776W        W15213  11.796  32.018   2.295
55777W        W15214  14.186  25.583  11.488
55778W        W15215   5.356   0.989  14.767
55779W        W15216   0.829  18.244   1.893
55780W        W15217   4.796  34.975   0.860
55781W        W15218  21.623  38.450   9.651
55782W        W15219   9.245  32.458   3.794
55783W        W15220  24.691  43.865   2.854
55784W        W15221  14.320  36.059  14.335
55785W        W15222  34.951  27.634  12.973
55786W        W15223  27.654  24.623  10.599
55787W        W15224  21.738  18.244   4.347
55788W        W15225  40.802  18.587  13.381
55789W        W15226  26.664  29.024   0.914
55790W        W15227  14.300  23.035   2.795
55791W        W15228  18.783   5.810   0.947
55792W        W15229  32.098  26.977   1.300
55793W        W15230  16.632   4.289   4.621
55794W        W15231   1.468  36.576  11.936
55795W        W15232  26.700  35.939  10.575
55796W        W15233  27.454  38.061   1.929
55797W        W15234  21.159   6.419  11.966
55798W        W15235  30.118  20.057  13.824
55799W        W15236  24.154  44.264  14.990
55800W        W15237   0.860  17.662  14.991
55801W        W15238  33.120   9.844  14.962
55802W        W15239  25.965  43.403  14.487
55803W        W15240   7.417  25.065   2.337
55804W        W15241  26.676  10.255   3.764
55805W        W15242  17.582  25.138  13.970
55806W        W15243  11.130  33.979   3.217
55807W        W15244  16.143  32.962  12.357
55808W        W15245  35.878  22.725   0.740
55809W        W15246  38.451  30.952  12.834
55810W        W15247  28.609  30.953   3.676
55811W        W15248  16.802  27.012  12.375
55812W        W15249  42.788  29.955   0.362
55813W        W15250  28.175   6.243   0.330
55814W        W15251  37.371  42.841  12.864
55815W        W15252  13.199  10.813  14.390
55816W        W15253  40.522   6.911   4.646
55817W        W15254  30.007  31.527   0.960
55818W        W15255  39.973   8.883   4.275
55819W        W15256   5.790   3.377   1.749
55820W        W15257  21.120  31.002  12.495
55821W        W15258  44.368  11.362   4.283
55822W        W15259  19.696  41.447  13.056
55823W        W15260   6.839  42.359  14.853
55824W        W15261   8.215  29.466   0.392
55825W        W15262  37.408  15.687   3.694
55826W        W15263  22.732  35.005   3.242
55827W        W15264  10.260  41.947  11.048
55828W        W15265  12.799  38.970   3.330
55829W        W15266  25.524   7.363   5.183
55830W        W15267  25.534  41.481  13.523
55831W        W15268  22.628  24.616   0.739
55832W        W15269  14.319   2.726   3.729
55833W        W15270   3.903  15.697   0.880
55834W        W15271  23.083  27.552  12.530
55835W        W15272   9.178  22.156  11.553
55836W        W15273  38.001  17.700   4.754
55837W        W15274   6.887  25.043  10.490
55838W        W15275  33.978  27.119  13.833
55839W        W15276  21.142   6.828  11.096
55840W        W15277  42.513  34.035   2.764
55841W        W15278  19.210  25.630   1.896
55842W        W15279  12.261  44.914   2.696
55843W        W15280  22.135  10.359  13.497
55844W        W15281   5.747  35.366  13.333
55845W        W15282  42.523  34.510  14.316
55846W        W15283  36.504   3.861   4.739
55847W        W15284  31.131  44.807   3.361
55848W        W15285  32.624  42.838  11.529
55849W        W15286  18.143   7.700  11.474
55850W        W15287   2.251  33.590   3.696
55851W        W15288  16.783  28.524   4.306
55852W        W15289   4.712  11.654  14.426
55853W        W15290  14.685   3.901   4.152
55854W        W15291  43.464   3.917   0.781
55855W        W15292  31.002  36.861  11.014
55856W        W15293   0.291  14.781  13.422
55857W        W15294  27.494  36.012  11.957
55858W        W15295  25.142   9.706   4.644
55859W        W15296  22.704  14.655   2.720
55860W        W15297   4.753  20.150   4.684
55861W        W15298   9.729   2.827  13.388
55862W        W15299  42.321  10.145  13.946
55863W        W15300  35.455   9.198  12.550
55864W        W15301  14.135   3.768   0.456
55865W        W15302  30.487  28.133   1.731
55866W        W15303  21.716  23.092   4.632
55867W        W15304   1.424  13.731   0.349
55868W        W15305  13.115   8.850   0.736
55869W        W15306  42.490  21.058   2.377
55870W        W15307  43.297  43.788   0.774
55871W        W15308  37.414   9.194  10.464
55872W        W15309  11.361  14.805  10.577
55873W        W15310  27.999   8.765  10.421
55874W        W15311  30.158   4.901   2.239
55875W        W15312   7.176  10.826   4.829
55876W        W15313  11.646   2.836  13.356
55877W        W15314  44.887  10.862   3.785
55878W        W15315   0.964  34.594   0.950
55879W        W15316  30.542  10.202  11.486
55880W        W15317  27.008   9.250  13.522
55881W        W15318   4.731  20.048  11.431
55882W        W15319  12.191  16.118  10.558
55883W        W15320   8.759  32.899   3.654
55884W        W15321  26.021   4.945   1.731
55885W        W15322  38.368  43.013   5.317
55886W        W15323  22.659  34.062   1.799
55887W        W15324  38.836   5.424  11.044
55888W        W15325   6.230  23.173  14.309
55889W        W15326  39.342  38.912  11.486
55890W        W15327   5.307  23.585  14.896
55891W        W15328   2.940  34.945   1.256
55892W        W15329  36.531   3.364  12.482
55893W        W15330  44.283  20.229  14.505
55894W        W15331  25.644  11.338  14.788
55895W        W15332  30.019  43.850  13.542
55896W        W15333   3.746  24.520  11.497
55897W        W15334  16.078   1.330  14.848
55898W        W15335  22.230   5.836  14.348
55899W        W15336  34.472  19.059  10.519
55900W        W15337   1.772  31.038  12.423
55901W        W15338  25.541  24.008   1.249
55902W        W15339  11.774  16.792   4.806
55903W        W15340   1.827  30.071  14.429
55904W        W15341  41.310  14.630   1.742
55905W        W15342  16.725  40.813   4.719
55906W        W15343  13.198  36.392   2.208
55907W        W15344   2.278  39.865  12.829
55908W        W15345  18.638  11.659  10.159
55909W        W15346  14.767  12.335   3.833
55910W        W15347  39.500  42.866  14.460
55911W        W15348  24.585  10.142   5.286
55912W        W15349   2.346  11.361  12.838
55913W        W15350   4.895  44.349  13.530
55914W        W15351  38.005  27.187   2.329
55915W        W15352  27.144   9.229  13.946
55916W        W15353  29.428  44.945   4.813
55917W        W15354  41.809  17.717   2.700
55918W        W15355  35.007   7.811   3.684
55919W        W15356  18.097  33.936   2.279
55920W        W15357  19.060  24.540   1.274
55921W        W15358  42.503   8.885  12.389
55922W        W15359  18.713  37.930  11.403
55923W        W15360  44.845  20.643   2.888
55924W        W15361  24.548  29.098   0.881
55925W        W15362  15.815   9.293   1.832
55926W        W15363  24.081  36.377   2.835
55927W        W15364  31.114  30.971   4.196
55928W        W15365  19.162  24.685  12.968
55929W        W15366  18.560  11.351   3.175
55930W        W15367   7.858  27.690  14.821
55931W        W15368  43.409  39.894  14.920
55932W        W15369   5.861  18.055   0.824
55933W        W15370  21.664  12.212  14.927
55934W        W15371  32.896  10.755   0.323
55935W        W15372  23.088  16.156   4.707
55936W        W15373  34.940  23.683   4.194
55937W        W15374  25.212  31.507   0.352
55938W        W15375  38.821  17.141  10.907
55939W        W15376   6.372   9.866   1.794
55940W        W15377   3.912   0.490  12.515
55941W        W15378  31.512  24.509   2.347
55942W        W15379  23.552  28.095  13.936
55943W        W15380  30.032   0.911   2.318
55944W        W15381  14.603   0.347  12.389
55945W        W15382   9.668  30.655   0.774
55946W        W15383  41.997   4.289   2.765
55947W        W15384  27.659  36.443   3.146
55948W        W15385  31.117  39.056   9.973
55949W        W15386  18.673  19.546   2.242
55950W        W15387  18.701  28.973  10.502
55951W        W15388  32.459  15.271  14.823
55952W        W15389   2.901  43.948   2.725
55953W        W15390   7.233   3.460  13.049
55954W        W15391  21.576  44.960   0.871
55955W        W15392  34.072  37.999  11.892
55956W        W15393  31.067   4.287   4.823
55957W        W15394  36.533  21.042   1.935
55958W        W15395  37.996  32.074   0.775
55959W        W15396   6.724   3.739   1.276
55960W        W15397  25.040   7.669   2.245
55961W        W15398  37.988  26.613   3.244
55962W        W15399   2.471  16.129  10.912
55963W        W15400  42.984  26.693   4.260
55964W        W15401  12.778  21.074  14.923
55965W        W15402  37.554  40.993   1.791
55966W        W15403  42.003  10.310   9.943
55967W        W15404  23.051  32.890  11.885
55968W        W15405   9.831  33.980   4.759
55969W        W15406  19.162  17.288   0.327
55970W        W15407  31.564  41.464   3.662
55971W        W15408   6.202  17.300   2.314
55972W        W15409  20.584   3.792  13.961
55973W        W15410   1.374   5.412  14.932
55974W        W15411  13.696  27.962  13.328
55975W        W15412  18.201   9.379  13.962
55976W        W15413  30.910  41.031   0.798
55977W        W15414  13.316  35.522  13.507
55978W        W15415  36.035  41.837   2.842
55979W        W15416  30.428  25.494   1.275
55980W        W15417  34.118  41.374  11.933
55981W        W15418   7.729  28.590   0.378
55982W        W15419  21.230   5.816  10.517
55983W        W15420   9.726  39.475  13.347
55984W        W15421   3.906  34.024  11.522
55985W        W15422  35.470   9.862   0.387
55986W        W15423  18.050  28.570   1.250
55987W        W15424  31.043  20.642  10.091
55988W        W15425  40.998   1.902   0.403
55989W        W15426  36.523  12.118  14.503
55990W        W15427  28.058  26.694   0.411
55991W        W15428   6.778  36.002  12.913
55992W        W15429   7.815  30.122   3.755
55993W        W15430  30.069  38.066  14.516
55994W        W15431  39.442  24.562  14.814
55995W        W15432  31.905   6.191   2.709
55996W        W15433  19.574  18.262   1.364
55997W        W15434   0.824  37.929  14.389
55998W        W15435  35.946  24.525  13.533
55999W        W15436  38.961   4.933   4.642
56000W        W15437  15.622  36.956  14.817
56001W        W15438  41.837  26.188   4.141
56002W        W15439  32.436  21.219  11.976
56003W        W15440  44.775  35.597   3.791
56004W        W15441  11.698  16.711  11.603
56005W        W15442  27.173  31.065  13.348
56006W        W15443   6.247  26.182   0.864
56007W        W15444  44.321  44.426  14.838
56008W        W15445   0.423   5.710   3.178
56009W        W15446  17.606   9.340   2.809
56010W        W15447   8.346  33.400   1.223
56011W        W15448  10.231  17.737   3.836
56012W        W15449   6.717  39.476  12.913
56013W        W15450  29.478  44.884   0.308
56014W        W15451  28.676  25.567   4.802
56015W        W15452  38.884  41.381   0.394
56016W        W15453  34.593   2.401  14.842
56017W        W15454  39.320  44.766  12.033
56018W        W15455  15.677  15.660  13.868
56019W        W15456  31.006  38.924  13.540
56020W        W15457  29.015   7.178   3.222
56021W        W15458   9.236  12.251  11.896
56022W        W15459  10.706  26.197  10.604
56023W        W15460  34.914  32.977  11.558
56024W        W15461   9.393  18.132   9.965
56025W        W15462  29.436  14.735  14.812
56026W        W15463  18.639  21.684  12.055
56027W        W15464   2.364  27.017  11.028
56028W        W15465  16.256  27.593   1.739
56029W        W15466  25.149   0.806  10.941
56030W        W15467  10.283   2.720   0.816
56031W        W15468  40.385  41.822   2.663
56032W        W15469  39.896  30.432   3.747
56033W        W15470   7.822  29.056  12.378
56034W        W15471  16.252  26.997  12.094
56035W        W15472  31.403  29.585   0.481
56036W        W15473  13.193  28.553  14.363
56037W        W15474  10.781  27.133  10.527
56038W        W15475  36.483  41.435   2.830
56039W        W15476   6.889  35.098   1.352
56040W        W15477  28.176  33.978  14.453
56041W        W15478  32.478  30.111  11.541
56042W        W15479  33.941  27.684   4.797
56043W        W15480   2.234  22.609  11.860
56044W        W15481  22.678  28.616  13.030
56045W        W15482   7.207  11.287   2.778
56046W        W15483  21.155  32.927   0.351
56047W        W15484  42.846   8.877   3.184
56048W        W15485  39.905  24.573   4.609
56049W        W15486   6.763  38.972   1.864
56050W        W15487  43.364  28.517   3.784
56051W        W15488  12.230  33.418   3.640
56052W        W15489  24.193  39.808   1.375
56053W        W15490  24.582   1.358   4.756
56054W        W15491  44.824  23.544   0.853
56055W        W15492  43.311  44.994   1.808
56056W        W15493  11.251  43.963  14.320
56057W        W15494  35.514  36.907  13.031
56058W        W15495  25.201  29.621  12.375
56059W        W15496  38.889  29.007   0.845
56060W        W15497  32.510  37.011  14.774
56061W        W15498   1.391   7.674   4.759
56062W        W15499  27.188  24.104  13.371
56063W        W15500  15.174  35.464  11.023
56064W        W15501  34.468   6.418   0.726
56065W        W15502   0.366  26.964   1.869
56066W        W15503   2.466   2.758  14.446
56067W        W15504  30.463  22.098   3.378
56068W        W15505  25.473  19.167  10.996
56069W        W15506  33.496  43.287  14.912
56070W        W15507  34.013  45.000   4.278
56071W        W15508  19.064  38.032   3.863
56072W        W15509  36.487  19.725   3.727
56073W        W15510  17.652  28.992  14.322
56074W        W15511  35.489  21.241  11.450
56075W        W15512  31.021  28.111  10.006
56076W        W15513  25.963  11.674  13.513
56077W        W15514  26.116  34.460   4.185
56078W        W15515   0.494  10.796  12.448
56079W        W15516  20.223  37.070  12.528
56080W        W15517   8.251  43.978  11.953
56081W        W15518  32.006  34.530  13.526
56082W        W15519  34.917   2.916   2.355
56083W        W15520  28.570  28.561   4.296
56084W        W15521   1.940  23.705   2.307
56085W        W15522  24.172   3.236   3.263
56086W        W15523  33.917  24.488   1.880
56087W        W15524  19.618  41.446   3.216
56088W        W15525  34.483  42.432   3.802
56089W        W15526  12.674  41.438   1.864
56090W        W15527   7.687  19.089   1.423
56091W        W15528  23.997  21.094   3.739
56092W        W15529  27.580  32.011   2.791
56093W        W15530  26.038  27.457   2.863
56094W        W15531  10.789   1.815   2.287
56095W        W15532  11.749   9.715  12.985
56096W        W15533  31.103  36.412  14.285
56097W        W15534  22.175  33.615   0.839
56098W        W15535   7.783  44.310   0.852
56099W        W15536   4.247  23.526  13.522
56100W        W15537  18.125  32.113   0.344
56101W        W15538  42.970  22.181  14.800
56102W        W15539   4.811   4.214  13.951
56103W        W15540  33.509  15.716   0.920
56104W        W15541  10.823  21.150  13.423
56105W        W15542  13.625  41.306  14.858
56106W        W15543  15.819  10.366   0.918
56107W        W15544  39.842  35.401  13.794
56108W        W15545  41.828  15.737   5.125
56109W        W15546  36.574  20.597  12.837
56110W        W15547  24.225  44.004  14.001
56111W        W15548  18.201   9.773   4.194
56112W        W15549  40.934  20.079   1.766
56113W        W15550   3.294  34.031   1.859
56114W        W15551  27.058  34.965  10.421
56115W        W15552  44.424   8.897   3.852
56116W        W15553  27.630  36.004   0.920
56117W        W15554  24.117  12.812   2.274
56118W        W15555   7.289  10.248   4.779
56119W        W15556  33.970  27.046   2.381
56120W        W15557   3.870  32.468   4.280
56121W        W15558  33.000  19.699   1.858
56122W        W15559  17.169  38.331  12.953
56123W        W15560   2.393  25.172  13.924
56124W        W15561   9.727  17.221   0.940
56125W        W15562  40.857  31.914   1.219
56126W        W15563  38.961  44.344  13.382
56127W        W15564   0.828  35.426  12.985
56128W        W15565   2.936  28.627  13.892
56129W        W15566  27.191   2.284   0.778
56130W        W15567  26.469  11.331   1.325
56131W        W15568  40.004  19.542  12.557
56132W        W15569   5.363   3.397   3.857
56133W        W15570  39.887  40.398  14.443
56134W        W15571  29.052  34.081   2.721
56135W        W15572  26.146  31.034  11.600
56136W        W15573  34.990  17.788   2.323
56137W        W15574   8.373  23.503   3.772
56138W        W15575  13.804   5.317  14.880
56139W        W15576  14.214   3.948   4.735
56140W        W15577   6.692  17.731   1.726
56141W        W15578  16.588  17.636  11.384
56142W        W15579   1.832  23.626   2.890
56143W        W15580  17.187   2.438   0.287
56144W        W15581  26.520  12.160   0.869
56145W        W15582  31.565  43.332   0.899
56146W        W15583   3.792   8.839   0.749
56147W        W15584  12.291   9.732   3.759
56148W        W15585  20.101   2.288   0.808
56149W        W15586  30.498  28.152   4.339
56150W        W15587  40.511  38.846  13.334
56151W        W15588   0.269  18.586  10.545
56152W        W15589  43.774  18.608   3.385
56153W        W15590   8.259  42.367   3.686
56154W        W15591   8.164  31.120   3.281
56155W        W15592   9.674  34.869   1.843
56156W        W15593   7.344  15.673  12.341
56157W        W15594  25.662  27.950  12.346
56158W        W15595  25.159   9.731   0.754
56159W        W15596  32.013  44.896  13.982
56160W        W15597  32.556  19.659   3.793
56161W        W15598  28.625  10.836  10.448
56162W        W15599  44.765  34.889  14.301
56163W        W15600  41.317  31.997   4.341
56164W        W15601  14.646  40.832   1.219
56165W        W15602  39.900  24.550  14.768
56166W        W15603  22.094  34.981   3.843
56167W        W15604   0.904   9.306  13.827
56168W        W15605   4.849  16.756  11.899
56169W        W15606  25.092  34.436   4.636
56170W        W15607  40.526   4.716   4.328
56171W        W15608  40.932  44.931   4.201
56172W        W15609  33.548  40.888  13.890
56173W        W15610   9.360  26.983  10.053
56174W        W15611  31.480  37.413  13.434
56175W        W15612  29.552   5.894  13.819
56176W        W15613  39.970  20.078   0.743
56177W        W15614  13.760  40.957  10.533
56178W        W15615  43.022  27.026  12.865
56179W        W15616  11.846   2.312  11.059
56180W        W15617  21.526   7.723  13.488
56181W        W15618  43.886  10.306   1.694
56182W        W15619  34.600   9.881  11.060
56183W        W15620   5.879  11.762  13.845
56184W        W15621   6.388   9.325  12.894
56185W        W15622  36.476  39.836  13.468
56186W        W15623   0.756  11.656  10.578
56187W        W15624   8.797  18.617  11.127
56188W        W15625   7.907  42.009  13.926
56189W        W15626  27.528  20.648   0.283
56190W        W15627   3.409  16.639   1.724
56191W        W15628  36.514  43.016   2.314
56192W        W15629  35.075  41.397   0.424
56193W        W15630   8.773   5.332   1.343
56194W        W15631  19.554  18.185   4.723
56195W        W15632   1.927   1.741   3.208
56196W        W15633  37.880   2.907   4.153
56197W        W15634   7.711  26.689  13.321
56198W        W15635  39.477  40.826  14.425
56199W        W15636   5.215  37.346   4.603
56200W        W15637  39.372  32.420   4.297
56201W        W15638   0.417  19.202  14.278
56202W        W15639  18.757  31.978  12.062
56203W        W15640  34.052   2.235   1.246
56204W        W15641  15.103  32.972  12.992
56205W        W15642  37.943   2.305   1.762
56206W        W15643   7.755  19.058   2.406
56207W        W15644  21.562  16.241   1.901
56208W        W15645  25.111  18.772   2.882
56209W        W15646   2.795  12.742  12.407
56210W        W15647  23.030  19.776   3.855
56211W        W15648  34.956  36.950  13.324
56212W        W15649  41.350  37.912   4.348
56213W        W15650  44.980  22.137  11.129
56214W        W15651  12.782  36.592  12.987
56215W        W15652   4.390   0.268   3.183
56216W        W15653  28.628   5.705  13.854
56217W        W15654  32.054  11.172   0.296
56218W        W15655  39.322  20.226  12.936
56219W        W15656  44.390  37.016  14.399
56220W        W15657   6.733  41.875  11.951
56221W        W15658   4.376  23.519  12.084
56222W        W15659  23.178  17.188  10.416
56223W        W15660  19.203  12.202   2.254
56224W        W15661  37.336  38.954  13.025
56225W        W15662  38.938  12.750  13.843
56226W        W15663  21.192  22.161   1.711
56227W        W15664  25.548  18.736  13.539
56228W        W15665  10.199  16.187  14.491
56229W        W15666  31.047  25.499  11.880
56230W        W15667  39.952  39.049  14.767
56231W        W15668  39.506  27.077   1.889
56232W        W15669  40.856  36.573   3.671
56233W        W15670   5.708  39.431  12.944
56234W        W15671  30.574  11.136   4.145
56235W        W15672  36.377  14.211   1.237
56236W        W15673   4.266   6.715  11.078
56237W        W15674  38.877   8.809  12.069
56238W        W15675  23.217  28.518   3.786
56239W        W15676   5.398   8.879   3.196
56240W        W15677  26.468  39.826  13.954
56241W        W15678   8.254  21.676   3.705
56242W        W15679  28.664  37.432  10.597
56243W        W15680  13.639  44.844  13.829
56244W        W15681   9.828  15.642  11.605
56245W        W15682  34.028  18.671   1.852
56246W        W15683  14.142  41.013  11.082
56247W        W15684  16.610  22.147   3.783
56248W        W15685  31.431  42.380   5.284
56249W        W15686  31.023   4.433  11.489
56250W        W15687   2.336  38.442  12.026
56251W        W15688  21.580  19.541  14.483
56252W        W15689  30.012  20.618  13.511
56253W        W15690   7.192  22.570   3.324
56254W        W15691  25.091  42.826   1.450
56255W        W15692   9.792  19.704   4.805
56256W        W15693   4.326   9.213  13.901
56257W        W15694  31.505  20.247  12.418
56258W        W15695  14.096   7.221  13.947
56259W        W15696  28.467  42.319   1.702
56260W        W15697   4.904  14.245  10.622
56261W        W15698  22.644  40.942   4.235
56262W        W15699  43.847   9.371  12.434
56263W        W15700  28.971  25.187  12.424
56264W        W15701  26.057   4.791   1.368
56265W        W15702   1.751  17.263  10.533
56266W        W15703  12.676  39.382   2.401
56267W        W15704  22.661  39.916   3.821
56268W        W15705  31.562  25.015   1.787
56269W        W15706  37.411  26.524  12.486
56270W        W15707  28.648  35.089  14.374
56271W        W15708  22.517  36.537   3.674
56272W        W15709  19.678  39.364   0.903
56273W        W15710   7.382  31.494   4.771
56274W        W15711  36.927  41.425   2.868
56275W        W15712  27.598  32.905  12.539
56276W        W15713  20.177  32.088   1.861
56277W        W15714  10.308  43.004  10.123
56278W        W15715  42.520  18.266   4.763
56279W        W15716   9.223  22.701  12.399
56280W        W15717  28.175  13.795   4.299
56281W        W15718  37.560  16.145  11.071
56282W        W15719  20.737  11.156  12.415
56283W        W15720  14.776   8.283   0.395
56284W        W15721  14.688  13.197   3.155
56285W        W15722  35.402  12.623   1.894
56286W        W15723  11.843  24.695   4.707
56287W        W15724  29.173   6.284  11.419
56288W        W15725  11.803  42.450  14.434
56289W        W15726  11.171   7.727  13.044
56290W        W15727  39.004  10.316   0.898
56291W        W15728  35.392  32.573   4.611
56292W        W15729  12.250  28.030  10.534
56293W        W15730  28.162  37.414  14.329
56294W        W15731  36.544  20.193   2.407
56295W        W15732  30.596  19.046  11.457
56296W        W15733  11.759  16.288   3.661
56297W        W15734  28.649  28.656   3.297
56298W        W15735  16.193  20.210  13.798
56299W        W15736  16.148   3.709  13.336
56300W        W15737  34.006  39.341  11.062
56301W        W15738  16.767  33.917   0.387
56302W        W15739  30.521  43.394  10.443
56303W        W15740  27.670  39.388   0.281
56304W        W15741  33.021  10.264   0.777
56305W        W15742  36.960   1.473  11.477
56306W        W15743  29.016  41.374   2.329
56307W        W15744   7.198  20.709  10.622
56308W        W15745  27.075  37.533   0.728
56309W        W15746  15.165  39.889   3.255
56310W        W15747  36.850  43.932   1.799
56311W        W15748  30.115  35.407   4.315
56312W        W15749  40.816   3.403   0.946
56313W        W15750  17.741   9.855   3.653
56314W        W15751  42.442   5.225  13.532
56315W        W15752  44.767  41.333  10.519
56316W        W15753  32.592  14.258  12.892
56317W        W15754   2.426  15.199   1.767
56318W        W15755  10.294  28.153   5.269
56319W        W15756   9.354  22.068   1.257
56320W        W15757  38.410  38.992  12.898
56321W        W15758  33.979   7.753   2.693
56322W        W15759  22.656  11.637   2.680
56323W        W15760  23.597  44.349  12.366
56324W        W15761  18.196  36.535   1.734
56325W        W15762  15.111  22.591   0.374
56326W        W15763   7.685  34.105   0.886
56327W        W15764  37.554  21.120   4.641
56328W        W15765  25.637  38.864  14.435
56329W        W15766  14.651  15.206   1.903
56330W        W15767  37.950  40.894  11.920
56331W        W15768  35.477   4.882  13.882
56332W        W15769  29.066  13.250   2.879
56333W        W15770   4.352  19.753   0.424
56334W        W15771  38.470  29.125  12.978
56335W        W15772  33.903   6.914   0.765
56336W        W15773  16.572  42.330   4.605
56337W        W15774   6.881   9.378  12.456
56338W        W15775  40.920  21.542   1.265
56339W        W15776  29.017  36.938   3.308
56340W        W15777   5.422  11.840  11.403
56341W        W15778  21.236   3.228   3.851
56342W        W15779  10.721   7.184  11.864
56343W        W15780  29.127   6.427   1.749
56344W        W15781  44.322  39.932  13.454
56345W        W15782  40.039  20.032   2.893
56346W        W15783  24.149  27.478  11.026
56347W        W15784  37.019  10.701  13.407
56348W        W15785  39.960  44.872  11.921
56349W        W15786  43.412   8.871  14.391
56350W        W15787  33.062   1.318  12.833
56351W        W15788  23.534  41.804  12.956
56352W        W15789  17.275  18.677   2.863
56353W        W15790  15.681  27.571  11.018
56354W        W15791  44.923   5.859  13.935
56355W        W15792  37.928  17.303  11.471
56356W        W15793  24.723  38.336  13.499
56357W        W15794  13.830  27.979  12.351
56358W        W15795   7.763  44.928   1.289
56359W        W15796  26.159   9.278   4.747
56360W        W15797  40.348   6.699   0.412
56361W        W15798  31.552  27.960  10.109
56362W        W15799  22.659  33.019   1.378
56363W        W15800  43.962  44.274  14.479
56364W        W15801  41.862  29.426  11.020
56365W        W15802  23.231  11.230  14.799
56366W        W15803  35.941  44.838  11.999
56367W        W15804  41.887  13.301   3.336
56368W        W15805  34.957  43.372  11.491
56369W        W15806  41.505  32.430  14.476
56370W        W15807  35.072  21.634   3.828
56371W        W15808   2.909  18.070  14.829
56372W        W15809  21.647   3.227  13.056
56373W        W15810   3.806  38.867  13.487
56374W        W15811  38.890  22.558  14.012
56375W        W15812  17.267  22.627   3.195
56376W        W15813  40.399  36.478  11.485
56377W        W15814  37.836   8.313  14.773
56378W        W15815  12.241  38.875  11.910
56379W        W15816  29.551  32.426   0.319
56380W        W15817  34.096  25.675  13.494
56381W        W15818  16.587   8.224  10.422
56382W        W15819  10.805  16.164   4.135
56383W        W15820  20.560  43.327  13.000
56384W        W15821  21.141  15.715   1.927
56385W        W15822  19.716  37.348   2.732
56386W        W15823  17.205  32.075  12.492
56387W        W15824   2.954   8.397   1.761
56388W        W15825   8.301  10.731   1.836
56389W        W15826  42.451  35.937   4.234
56390W        W15827  30.123  23.231   0.369
56391W        W15828  42.449   1.950  13.831
56392W        W15829   4.749  30.063   2.773
56393W        W15830  18.272   5.849  12.366
56394W        W15831  28.445  21.246  13.388
56395W        W15832   1.340  41.424  10.444
56396W        W15833  15.132  17.193   2.328
56397W        W15834  11.246  37.503   0.765
56398W        W15835  19.635  35.063  13.796
56399W        W15836  33.588  14.328   1.417
56400W        W15837   5.271  32.627   3.333
56401W        W15838   3.948  24.682   1.816
56402W        W15839  17.713  39.863   0.379
56403W        W15840  19.645  17.168   9.610
56404W        W15841  11.765  34.461  12.941
56405W        W15842  25.542  25.609   2.798
56406W        W15843  29.937   5.389  10.435
56407W        W15844  14.165   0.401  14.515
56408W        W15845  32.025  28.972  13.054
56409W        W15846  22.566  26.997  10.426
56410W        W15847  34.599   3.711   2.191
56411W        W15848  11.361  29.999  11.564
56412W        W15849  39.052   0.387  12.946
56413W        W15850  35.894  28.012   3.828
56414W        W15851  37.354  11.358  14.459
56415W        W15852  34.596  19.759  10.974
56416W        W15853  21.525  12.224  13.820
56417W        W15854  17.648  37.438   4.285
56418W        W15855   7.755  15.619   4.321
56419W        W15856  13.776   6.780   3.338
56420W        W15857  13.344   3.932  13.925
56421W        W15858  34.975  17.157   2.389
56422W        W15859  29.647  31.915  14.962
56423W        W15860  35.071  19.546  13.855
56424W        W15861   8.880  12.238   4.721
56425W        W15862   0.777   4.435  12.914
56426W        W15863  40.810  30.486  14.922
56427W        W15864  29.115  37.961  12.970
56428W        W15865  10.841  11.864   4.683
56429W        W15866  43.941  19.264   2.891
56430W        W15867  17.707  11.328   1.813
56431W        W15868  25.120  28.132   0.967
56432W        W15869  43.831   8.882   4.683
56433W        W15870   3.306  14.595   2.285
56434W        W15871  15.125  20.661   2.712
56435W        W15872  35.970   7.763  13.046
56436W        W15873  34.073  41.947  11.916
56437W        W15874  15.139  10.142  10.952
56438W        W15875  36.037  17.800  10.961
56439W        W15876  35.004  40.446  12.396
56440W        W15877   6.719   3.221  11.587
56441W        W15878  11.693  41.442   3.865
56442W        W15879   7.859  33.074  14.511
56443W        W15880  43.815   1.352   3.322
56444W        W15881  34.121  33.483  14.808
56445W        W15882  20.713  32.053   0.918
56446W        W15883  41.937  20.047  13.513
56447W        W15884   3.770  36.912  13.001
56448W        W15885  14.660  40.423   1.875
56449W        W15886  37.040  15.587   4.304
56450W        W15887  32.588  43.954   0.260
56451W        W15888  12.716   8.169   2.317
56452W        W15889  19.241  42.467   4.689
56453W        W15890  40.496   9.844  12.363
56454W        W15891   5.788   0.419  13.318
56455W        W15892   2.831  31.985   3.706
56456W        W15893  39.031  20.203   1.281
56457W        W15894  39.896   4.766  14.827
56458W        W15895  29.083  36.571   1.916
56459W        W15896   1.797   6.795  15.000
56460W        W15897  15.624  15.166   0.769
56461W        W15898  33.511  32.442   2.800
56462W        W15899  13.711   5.279  13.952
56463W        W15900  31.402  42.522   0.409
56464W        W15901   4.375  30.465   4.253
56465W        W15902   2.260  12.271  14.822
56466W        W15903  33.014  39.426   3.322
56467W        W15904   8.710   9.230   0.248
56468W        W15905  39.317  29.613   1.268
56469W        W15906   2.254   2.324  12.969
56470W        W15907  27.616  43.509   1.357
56471W        W15908  20.656  40.946  11.423
56472W        W15909  14.739  39.831  13.365
56473W        W15910  15.108  12.828  13.431
56474W        W15911  29.544  12.614   0.370
56475W        W15912  17.111  34.084  12.555
56476W        W15913  26.695  14.302  10.408
56477W        W15914  12.717  31.941   1.811
56478W        W15915  32.555  38.853  14.435
56479W        W15916   9.774  11.312  13.973
56480W        W15917   9.255  17.199  14.803
56481W        W15918  20.245  34.865   3.164
56482W        W15919  11.804  15.147  12.951
56483W        W15920   1.413  15.100   1.695
56484W        W15921  34.580  31.484  10.975
56485W        W15922  22.742  27.151  14.970
56486W        W15923  37.500  19.127  10.948
56487W        W15924  37.341  27.045  11.571
56488W        W15925  30.472   6.256   4.673
56489W        W15926  23.157  37.982   2.774
56490W        W15927  10.315  31.562   1.326
56491W        W15928   8.190  27.193  10.498
56492W        W15929  29.145  32.424   1.704
56493W        W15930  40.993  39.981   3.657
56494W        W15931  26.614  40.993  13.857
56495W        W15932  43.357  13.665  14.810
56496W        W15933   3.945  34.886  13.799
56497W        W15934  26.472  24.629  11.514
56498W        W15935  44.449   2.388   3.765
56499W        W15936  25.487   3.384   3.344
56500W        W15937  28.180  18.781  11.927
56501W        W15938  42.309   1.760  12.945
56502W        W15939  39.404  39.876   1.868
56503W        W15940  16.084   5.309   0.336
56504W        W15941   4.803  40.896   3.854
56505W        W15942  10.823  24.520   1.840
56506W        W15943  42.900  17.236  11.415
56507W        W15944  35.444  23.013   3.331
56508W        W15945  41.944  38.960   3.798
56509W        W15946  37.365   9.321  12.379
56510W        W15947  17.065  22.188   0.309
56511W        W15948  17.094  21.533   1.222
56512W        W15949  29.020   1.483  12.852
56513W        W15950  39.484  23.058  13.814
56514W        W15951  22.681  44.392   3.712
56515W        W15952  28.142  42.935   2.689
56516W        W15953   3.715  40.511  13.424
56517W        W15954  18.280  16.263  14.436
56518W        W15955  13.281  31.410  11.103
56519W        W15956  24.501   5.755   3.360
56520W        W15957   3.426   1.901   4.796
56521W        W15958  26.481  18.564   3.200
56522W        W15959  23.669   1.251  13.942
56523W        W15960   5.864  18.177   4.152
56524W        W15961  34.545  23.503   1.385
56525W        W15962  39.395  44.958   0.926
56526W        W15963  27.051  40.037  13.860
56527W        W15964  39.017  38.398   1.857
56528W        W15965  24.081  35.017  12.452
56529W        W15966   0.282  10.741  13.882
56530W        W15967  21.690  25.617  13.030
56531W        W15968  41.905  26.585  10.557
56532W        W15969  41.452  33.996  10.558
56533W        W15970  12.148  41.972  14.490
56534W        W15971   3.946  21.218   3.267
56535W        W15972  17.238  29.939   0.357
56536W        W15973  36.351  32.134   3.774
56537W        W15974   6.349  23.600   5.197
56538W        W15975  37.923  26.055  14.909
56539W        W15976  12.164  35.894  12.410
56540W        W15977  25.553  14.291  11.584
56541W        W15978  41.844   3.810   1.237
56542W        W15979  35.535  23.599   1.922
56543W        W15980  20.033  21.245   3.337
56544W        W15981  25.607  10.384  14.507
56545W        W15982  22.155  37.881   9.988
56546W        W15983   8.655  25.535   5.630
56547W        W15984  18.234  16.158  14.820
56548W        W15985  11.662   0.811  10.523
56549W        W15986  30.048  13.671   2.201
56550W        W15987  38.918  31.999  13.895
56551W        W15988  23.204  15.124  14.390
56552W        W15989  24.583  18.264  11.872
56553W        W15990  31.976   6.923  11.885
56554W        W15991  21.140   7.271  13.000
56555W        W15992   4.406  42.969  11.077
56556W        W15993   2.406  18.620  12.411
56557W        W15994  26.034  17.657  12.908
56558W        W15995  27.575   9.334  11.485
56559W        W15996  27.126  30.625   2.672
56560W        W15997  26.459  17.154   3.165
56561W        W15998  37.028   0.407   0.386
56562W        W15999  16.077   7.239   1.743
56563W        W16000  14.338  30.600   2.836
56564W        W16001  18.753  17.728  12.956
56565W        W16002  24.603  28.184   4.307
56566W        W16003  35.592   6.203   0.869
56567W        W16004  12.617  22.164  13.363
56568W        W16005   5.295  29.618   9.613
56569W        W16006   6.268  42.823   1.913
56570W        W16007   3.287  40.317  14.395
56571W        W16008  28.172  43.837   2.338
56572W        W16009   5.341  31.501   4.179
56573W        W16010   4.321  37.857  14.783
56574W        W16011   7.674  25.021   4.175
56575W        W16012   1.907   2.912   2.277
56576W        W16013   7.770   7.400  11.865
56577W        W16014  25.585   1.260  11.009
56578W        W16015  11.744  36.032  13.961
56579W        W16016  30.460  18.595  13.360
56580W        W16017  29.449  28.112   3.810
56581W        W16018   4.268  15.810  14.848
56582W        W16019  42.017  30.050  11.524
56583W        W16020  29.962  41.946   3.748
56584W        W16021  22.647  31.473  13.879
56585W        W16022  37.007  15.158  11.428
56586W        W16023  35.477   6.292  12.531
56587W        W16024  38.885   2.291  13.378
56588W        W16025   1.314  21.078   2.822
56589W        W16026  20.538   3.354   4.812
56590W        W16027  22.625  20.625  13.969
56591W        W16028  12.295   4.243   4.826
56592W        W16029  22.193  25.187  10.586
56593W        W16030   0.332  17.066  12.014
56594W        W16031   0.439  27.016  12.010
56595W        W16032  15.782  27.566  11.595
56596W        W16033  16.186   4.786  14.938
56597W        W16034  13.719  32.983   1.882
56598W        W16035  42.486  13.152   1.348
56599W        W16036   6.832   4.387  13.976
56600W        W16037  28.936  30.478   2.773
56601W        W16038   8.654  34.380   4.712
56602W        W16039   0.248  13.685   2.220
56603W        W16040  27.989  25.471   3.845
56604W        W16041  43.019  31.429   3.677
56605W        W16042  21.604  40.390  14.387
56606W        W16043  14.300  18.242   2.333
56607W        W16044  38.504  37.066  11.959
56608W        W16045  38.530   0.411  14.804
56609W        W16046  22.716  38.034   0.306
56610W        W16047  29.427  20.140   0.802
56611W        W16048  42.492  30.067   1.318
56612W        W16049  18.656  18.604  11.424
56613W        W16050  41.986  16.732   3.189
56614W        W16051  38.831  22.613  11.067
56615W        W16052  11.238  26.681  14.330
56616W        W16053   5.802  24.155  14.422
56617W        W16054  21.194   2.414   4.611
56618W        W16055   4.233  17.716  14.395
56619W        W16056  40.391  25.159  14.003
56620W        W16057  12.743  21.141   0.291
56621W        W16058   4.392  15.286  11.860
56622W        W16059  21.687  23.233  14.946
56623W        W16060   5.718  23.667  10.431
56624W        W16061  24.057   1.825  14.325
56625W        W16062  44.009  44.826   4.617
56626W        W16063  13.182  37.396  10.415
56627W        W16064   0.831  30.082   3.761
56628W        W16065  16.278  24.091   1.231
56629W        W16066  34.509  17.561   4.726
56630W        W16067  41.406  24.154   1.857
56631W        W16068  36.942  17.776   1.223
56632W        W16069   1.748  26.612  12.833
56633W        W16070   2.332  40.474   0.329
56634W        W16071  42.031  43.452  12.995
56635W        W16072  27.673  21.610  11.962
56636W        W16073   5.389  24.617   5.700
56637W        W16074  41.455  40.000  12.921
56638W        W16075  41.007  24.058  12.823
56639W        W16076  31.557   8.797   5.198
56640W        W16077  34.923  18.602  14.376
56641W        W16078  36.450   7.312  13.898
56642W        W16079   8.303   8.325  12.405
56643W        W16080  42.984  15.105   4.778
56644W        W16081  40.985  12.617   4.816
56645W        W16082  16.279  15.687   1.838
56646W        W16083  44.393  35.365  10.150
56647W        W16084  27.505  27.060  11.577
56648W        W16085  23.711  12.187  13.034
56649W        W16086  41.935  16.586   4.194
56650W        W16087  43.381   8.185  13.421
56651W        W16088  34.432  22.700  14.785
56652W        W16089   6.327  15.294  14.827
56653W        W16090   6.726  33.552  11.019
56654W        W16091  21.592  27.459   1.913
56655W        W16092  23.569   4.290   4.274
56656W        W16093  37.053  11.266  12.375
56657W        W16094  32.990  23.009   3.680
56658W        W16095  44.356   0.441   2.308
56659W        W16096  13.785  37.929   1.741
56660W        W16097  38.958  43.444  14.464
56661W        W16098  29.503   7.192  10.404
56662W        W16099  34.878  32.141   0.830
56663W        W16100  36.861  38.851   4.307
56664W        W16101  43.312  18.760  14.866
56665W        W16102   4.421  39.422  13.812
56666W        W16103  37.061  18.688  11.551
56667W        W16104   6.770  16.742   4.704
56668W        W16105   8.669   3.736   4.827
56669W        W16106   2.299  21.171   1.721
56670W        W16107  19.724  23.651   2.727
56671W        W16108  42.890  14.144   2.713
56672W        W16109   2.884  34.429   3.794
56673W        W16110   4.835  44.786  12.415
56674W        W16111  24.227  43.323  11.869
56675W        W16112   1.289   9.855  13.807
56676W        W16113  12.147  10.853   0.469
56677W        W16114   3.749  19.128   3.678
56678W        W16115   6.388   5.203   2.705
56679W        W16116  16.167   2.790  12.569
56680W        W16117   4.264  14.121   0.816
56681W        W16118   1.819   0.307   3.847
56682W        W16119  31.102  33.083  12.884
56683W        W16120   1.881  40.451  12.051
56684W        W16121   6.888   5.380  13.991
56685W        W16122  34.003  35.102  14.872
56686W        W16123  14.783  13.813  12.837
56687W        W16124  18.712  28.618   1.351
56688W        W16125  26.028  19.536   1.807
56689W        W16126   4.806   2.823  14.959
56690W        W16127  19.217   7.410  13.938
56691W        W16128   3.287   3.905   3.323
56692W        W16129  18.284  20.627   1.830
56693W        W16130  19.195  43.430  11.403
56694W        W16131  23.028  31.562   2.255
56695W        W16132   8.726  33.039  11.862
56696W        W16133   3.329  31.550   2.214
56697W        W16134  13.659  18.773  10.566
56698W        W16135  31.638  14.725  12.862
56699W        W16136  18.098  14.681   1.863
56700W        W16137   6.757  21.586   3.719
56701W        W16138  29.990  19.766   0.466
56702W        W16139  23.141  15.666  13.947
56703W        W16140  26.539  15.734  10.969
56704W        W16141  36.872   4.857   4.128
56705W        W16142  41.012  32.429  11.397
56706W        W16143  18.052  25.599  13.862
56707W        W16144  35.088   7.867  10.421
56708W        W16145  33.624  17.609   4.133
56709W        W16146   0.367  26.971  11.062
56710W        W16147   3.255  41.988  14.933
56711W        W16148  43.966  35.561   5.270
56712W        W16149  26.143  18.229   4.773
56713W        W16150   3.420  42.853  10.410
56714W        W16151  42.475  39.543  14.896
56715W        W16152  34.042  23.536   4.243
56716W        W16153  30.532  40.819   2.734
56717W        W16154  31.131  21.586  13.828
56718W        W16155  13.605  24.983  13.366
56719W        W16156  10.646  42.289   4.723
56720W        W16157   6.230  31.624  14.498
56721W        W16158  33.952   2.280  14.469
56722W        W16159  12.677  22.595  14.930
56723W        W16160   9.779  30.078   1.935
56724W        W16161  25.181  10.222   5.163
56725W        W16162  15.091  25.581   3.280
56726W        W16163  10.729  15.318  11.977
56727W        W16164  36.371  16.656   3.186
56728W        W16165  42.030  36.359  12.367
56729W        W16166  26.623  10.200   1.332
56730W        W16167   2.385  24.133   0.887
56731W        W16168   6.402  25.163   4.617
56732W        W16169  16.751   7.759  10.948
56733W        W16170  33.456  22.043   2.864
56734W        W16171  15.283  22.043   3.149
56735W        W16172  17.664   2.932   4.334
56736W        W16173   9.854  15.329   1.773
56737W        W16174   5.426  22.692   2.387
56738W        W16175  10.325  17.790   2.193
56739W        W16176  35.922  11.853   1.892
56740W        W16177   6.913  19.647   3.775
56741W        W16178  25.133  18.657  14.326
56742W        W16179  30.942   5.213   1.728
56743W        W16180   7.195  42.962  14.481
56744W        W16181  33.909   2.461   0.327
56745W        W16182  10.369  19.231  13.436
56746W        W16183  23.598  15.688  11.990
56747W        W16184  16.762  39.827  11.054
56748W        W16185  34.583  12.133  13.389
56749W        W16186  21.109  24.652   0.311
56750W        W16187  27.986  10.250   4.347
56751W        W16188  15.250  31.931  13.416
56752W        W16189  40.541  41.905  10.953
56753W        W16190  29.558  41.002  10.003
56754W        W16191   2.924  39.469   3.226
56755W        W16192   9.337   7.667   3.162
56756W        W16193  20.036  21.181  11.418
56757W        W16194  22.095  14.697  13.951
56758W        W16195  15.221   5.210  12.849
56759W        W16196  29.594   3.782  12.870
56760W        W16197  39.815  23.213   4.313
56761W        W16198  13.772  37.480   0.889
56762W        W16199  33.515  10.157  14.379
56763W        W16200  15.257  44.502  14.453
56764W        W16201  37.918  39.834   3.362
56765W        W16202  33.399  39.065   4.232
56766W        W16203  14.260  33.983  11.445
56767W        W16204  31.588   8.219   2.792
56768W        W16205  16.099  11.286  11.116
56769W        W16206  26.539   5.732   0.450
56770W        W16207  36.434  19.231  12.405
56771W        W16208  37.382  32.966   0.876
56772W        W16209  24.229  25.125   2.715
56773W        W16210  28.089  31.438  12.896
56774W        W16211  14.695  18.177  14.498
56775W        W16212   2.231   2.453  14.908
56776W        W16213  18.291  33.109   1.794
56777W        W16214  32.940  41.447   0.801
56778W        W16215  25.063  39.987  14.343
56779W        W16216  13.210  28.069  10.075
56780W        W16217  14.297  19.544   3.335
56781W        W16218   5.228  30.084   3.761
56782W        W16219  36.885  34.399   1.294
56783W        W16220  25.083  27.007  10.450
56784W        W16221  23.128  24.656  14.310
56785W        W16222  25.097  15.142   4.647
56786W        W16223  19.638  34.944  11.881
56787W        W16224   6.224  18.609  14.329
56788W        W16225  17.154  34.397  13.985
56789W        W16226  38.492  21.726   0.415
56790W        W16227  27.125  25.608   1.862
56791W        W16228   1.297  15.746   9.525
56792W        W16229  44.444  38.019  11.533
56793W        W16230  24.718  34.583   4.662
56794W        W16231   9.816  23.691   1.230
56795W        W16232  36.917  14.259   0.768
56796W        W16233  17.569   1.739   0.244
56797W        W16234  16.688  16.586   3.358
56798W        W16235  21.239  26.556  12.095
56799W        W16236  19.773   8.751  13.399
56800W        W16237  43.923   8.341  11.428
56801W        W16238   6.787   8.369  14.920
56802W        W16239  44.984  24.988  14.906
56803W        W16240  17.075  12.147  14.896
56804W        W16241  11.656  35.101   1.408
56805W        W16242  30.514   7.735   1.259
56806W        W16243  38.437  26.998   1.904
56807W        W16244  16.799  20.215   1.721
56808W        W16245  17.765  38.972  14.311
56809W        W16246  44.987   4.709   4.706
56810W        W16247  37.993  29.577  13.514
56811W        W16248  31.539  14.220   1.413
56812W        W16249   4.270   1.963  13.491
56813W        W16250   8.725  43.279   1.712
56814W        W16251   8.795  20.220   0.959
56815W        W16252  19.169  26.505  13.376
56816W        W16253   8.221  26.048  13.472
56817W        W16254  26.506   0.817  11.957
56818W        W16255   6.369  39.328   4.188
56819W        W16256  44.826  22.182   0.345
56820W        W16257  44.504   4.436   4.282
56821W        W16258   8.809  36.565  11.086
56822W        W16259  39.905  36.032   1.318
56823W        W16260  18.677   1.913   3.157
56824W        W16261   7.836  41.838   0.904
56825W        W16262  26.164  23.142   1.217
56826W        W16263  16.760  17.609  13.371
56827W        W16264  13.682  40.872   9.669
56828W        W16265  31.932  40.997   3.259
56829W        W16266  17.680   4.821   4.613
56830W        W16267  23.157  11.836  14.358
56831W        W16268  21.607  15.770   2.666
56832W        W16269  36.585  20.528  13.994
56833W        W16270   2.949   7.868  12.413
56834W        W16271  21.728  29.587   3.339
56835W        W16272   6.359  14.246   5.283
56836W        W16273  36.031  17.775  14.887
56837W        W16274  17.069   3.332   9.923
56838W        W16275  22.582   0.908   2.274
56839W        W16276   9.728  36.551   0.941
56840W        W16277  20.111  19.120  12.578
56841W        W16278  28.619  13.154  13.455
56842W        W16279  26.964   6.387  14.511
56843W        W16280  33.547  42.846   4.665
56844W        W16281   9.325  29.522  14.827
56845W        W16282  21.617  17.104  10.487
56846W        W16283  11.333  13.747   0.271
56847W        W16284  17.161  26.702  11.378
56848W        W16285  40.013  41.499   1.381
56849W        W16286  39.387   7.288  14.811
56850W        W16287  15.804  43.966  12.876
56851W        W16288  26.475   6.922  11.467
56852W        W16289   3.427  13.786  12.536
56853W        W16290  16.181   3.809  14.793
56854W        W16291  38.368  12.772   3.686
56855W        W16292  20.614  23.558  10.912
56856W        W16293  33.875  19.101  12.544
56857W        W16294  10.667   0.428   3.753
56858W        W16295   5.851  23.164  11.474
56859W        W16296   8.838  26.658  10.484
56860W        W16297   2.441  30.505   5.253
56861W        W16298  42.467  12.356  10.410
56862W        W16299  16.737  11.320  11.976
56863W        W16300  35.367  18.058   1.885
56864W        W16301  11.304  23.583  10.471
56865W        W16302  35.035  29.070   2.405
56866W        W16303  44.846  39.526  11.394
56867W        W16304  40.340  14.305  11.609
56868W        W16305  43.278  22.683   1.310
56869W        W16306  40.326   8.207   2.888
56870W        W16307  33.942  34.430  11.497
56871W        W16308  19.079  27.513  10.455
56872W        W16309   1.480   6.202  14.764
56873W        W16310  16.631  24.582  13.359
56874W        W16311  33.539  12.765   2.822
56875W        W16312  27.506  44.906   3.305
56876W        W16313  22.204  12.806  10.567
56877W        W16314  28.176  29.024   1.875
56878W        W16315  26.997  15.807   9.551
56879W        W16316   4.431   8.380   1.728
56880W        W16317  37.461   1.467   2.757
56881W        W16318  15.118  12.213   1.863
56882W        W16319  23.107   8.322  13.817
56883W        W16320  15.785  24.566   0.257
56884W        W16321  14.310   2.848   1.270
56885W        W16322  29.480  15.647  12.927
56886W        W16323  13.806  40.970   1.366
56887W        W16324   4.323   2.942   3.381
56888W        W16325   4.941  22.034   1.721
56889W        W16326  33.608  27.121   1.775
56890W        W16327  17.618  22.235   1.771
56891W        W16328  36.463  26.679  14.837
56892W        W16329  15.700   9.798   3.642
56893W        W16330  36.401  41.383   0.254
56894W        W16331   2.815  19.074  12.945
56895W        W16332   4.445   5.838   2.676
56896W        W16333  41.972  21.190  11.571
56897W        W16334  26.186   3.789   0.298
56898W        W16335  42.507  13.150  14.330
56899W        W16336   7.375  29.503  14.979
56900W        W16337  34.887  20.695   4.318
56901W        W16338  23.544  33.029   1.402
56902W        W16339  38.861  37.490   4.208
56903W        W16340  15.264   7.834   2.282
56904W        W16341  33.923  32.069  13.394
56905W        W16342  11.327  26.507  14.925
56906W        W16343   3.902  30.973   2.874
56907W        W16344   5.767  34.863   4.601
56908W        W16345  32.503   8.837   1.312
56909W        W16346   3.910   6.415  11.495
56910W        W16347   3.721   4.850   2.767
56911W        W16348   9.283  42.334  14.804
56912W        W16349  41.519  19.055  14.811
56913W        W16350   6.353  30.442   0.860
56914W        W16351  33.025  31.539  13.545
56915W        W16352  20.134  37.368  11.501
56916W        W16353   1.941  43.016  10.539
56917W        W16354  44.832   5.280  13.404
56918W        W16355  11.799  37.926  11.089
56919W        W16356  34.369  27.129  11.944
56920W        W16357   6.740   9.393   0.343
56921W        W16358   9.261  23.694  14.793
56922W        W16359  24.586  22.193  14.867
56923W        W16360   7.274  12.255   0.781
56924W        W16361  14.819  17.082   3.165
56925W        W16362  23.152   4.718  12.050
56926W        W16363  36.064  26.163  14.351
56927W        W16364  18.158  13.765  10.126
56928W        W16365  43.417   3.438   2.370
56929W        W16366  19.591   5.776  12.563
56930W        W16367   3.315  18.610   0.339
56931W        W16368   0.886  31.114   2.286
56932W        W16369   0.759  37.561   4.272
56933W        W16370  31.536  36.909   4.265
56934W        W16371   2.863  24.536   0.402
56935W        W16372   4.721  37.581   0.379
56936W        W16373   3.253  35.501   1.283
56937W        W16374   0.902  22.127   2.213
56938W        W16375  42.478  24.202   0.917
56939W        W16376  10.739  14.147   0.821
56940W        W16377  40.502  29.557  12.477
56941W        W16378  37.526  40.018  10.969
56942W        W16379  18.215   8.310  14.388
56943W        W16380  41.425   9.289   4.599
56944W        W16381   9.351  29.118   0.473
56945W        W16382  26.625  20.173   3.282
56946W        W16383  22.146   3.334  10.614
56947W        W16384  26.125  25.181  12.913
56948W        W16385  20.178   0.420   3.784
56949W        W16386   0.977  29.607   5.169
56950W        W16387  13.646  12.161   0.272
56951W        W16388   5.931  17.589   1.781
56952W        W16389  22.185   3.912  13.390
56953W        W16390  35.933  11.850  14.494
56954W        W16391  41.482  44.913  14.922
56955W        W16392  34.411   4.815   1.376
56956W        W16393  42.000  29.597   1.822
56957W        W16394  35.415  16.602   4.726
56958W        W16395  43.809   3.234   1.854
56959W        W16396  26.174  34.498  10.584
56960W        W16397  10.185  27.032  14.435
56961W        W16398  13.678  43.288  11.878
56962W        W16399  36.532  43.269   2.887
56963W        W16400  29.661  27.973   0.951
56964W        W16401  10.813  36.479  13.061
56965W        W16402  19.229  24.537  10.465
56966W        W16403  33.528  37.903   2.218
56967W        W16404  27.994  26.094  10.989
56968W        W16405  15.783  20.088   2.246
56969W        W16406   6.268   3.857   0.463
56970W        W16407  43.976  13.746   1.397
56971W        W16408  37.376  30.037  12.573
56972W        W16409  30.986  36.899   3.824
56973W        W16410  33.929  36.875   1.363
56974W        W16411  34.478  23.176   4.688
56975W        W16412  27.183  10.349  12.347
56976W        W16413  43.860  40.484  12.524
56977W        W16414   5.382  35.880  14.875
56978W        W16415   6.267   4.208   0.761
56979W        W16416  34.411  10.854  11.464
56980W        W16417  22.558  20.566   4.612
56981W        W16418  31.910  38.460   5.585
56982W        W16419  34.968   1.401   1.714
56983W        W16420  19.609  10.740   0.791
56984W        W16421  21.131  30.146   2.764
56985W        W16422  31.638  29.649  12.505
56986W        W16423  28.518  18.551  14.977
56987W        W16424  24.014  11.175  13.890
56988W        W16425   4.720  43.509  11.059
56989W        W16426  25.607  33.913  14.409
56990W        W16427  44.902  20.272  11.018
56991W        W16428  42.881  44.455   2.266
56992W        W16429  36.430  10.347  10.037
56993W        W16430  37.907  39.378   0.786
56994W        W16431  27.076   7.713   0.297
56995W        W16432  43.425  29.646  11.948
56996W        W16433   3.742   1.360   2.253
56997W        W16434  13.815  36.928   0.444
56998W        W16435  38.999  30.603   2.415
56999W        W16436   1.940  19.605   3.842
57000W        W16437  18.202  21.121   1.769
57001W        W16438  17.589  36.035   0.866
57002W        W16439  26.478  19.765  10.920
57003W        W16440  17.776  35.414  13.989
57004W        W16441   0.786  42.413   2.880
57005W        W16442  21.065  26.514   5.198
57006W        W16443  38.441  30.936  11.035
57007W        W16444  38.957   9.329   2.379
57008W        W16445   1.333  17.102   0.289
57009W        W16446  28.651  37.891  13.987
57010W        W16447  43.433   9.187   0.803
57011W        W16448   1.367  22.189   2.890
57012W        W16449   9.874  12.174  12.475
57013W        W16450   7.814   6.233  11.527
57014W        W16451  29.458  11.246   3.237
57015W        W16452  28.174   7.896   2.366
57016W        W16453  21.259  26.581   0.412
57017W        W16454  14.330  17.216   2.179
57018W        W16455  28.024   6.874   1.837
57019W        W16456  41.789  23.093  12.083
57020W        W16457  44.492   4.236   1.385
57021W        W16458  39.334  35.368   4.194
57022W        W16459  25.691   6.225  13.373
57023W        W16460  21.631  17.165   9.656
57024W        W16461  26.510  26.127  10.934
57025W        W16462  21.675  29.031   4.713
57026W        W16463  11.262  41.909   0.361
57027W        W16464  12.836  12.760   0.481
57028W        W16465  29.026  31.019   3.214
57029W        W16466   7.183  32.579   1.736
57030W        W16467  27.013   7.358  13.053
57031W        W16468  17.214  11.213   2.720
57032W        W16469  36.501  29.614   0.895
57033W        W16470   1.470  37.024   2.892
57034W        W16471   9.269  41.522   2.680
57035W        W16472  26.063  17.139  13.358
57036W        W16473  44.961  15.609   3.282
57037W        W16474  28.035  29.448   4.163
57038W        W16475  23.154  16.267  14.833
57039W        W16476  34.570  34.481   2.218
57040W        W16477  27.980   5.380   2.270
57041W        W16478   7.817   7.376   1.916
57042W        W16479  28.006   0.408  11.519
57043W        W16480  38.962  32.583  10.939
57044W        W16481  15.103  38.823   4.244
57045W        W16482   4.812  33.117  11.059
57046W        W16483   3.715  16.678  12.882
57047W        W16484  18.732  21.059  14.400
57048W        W16485  18.142  12.642  11.445
57049W        W16486  23.612  14.239  10.495
57050W        W16487  11.713  17.187  13.914
57051W        W16488   1.429   5.695  14.023
57052W        W16489  21.727  44.001   1.726
57053W        W16490  38.372  13.841  14.948
57054W        W16491  19.693   0.891  14.835
57055W        W16492  18.061  22.650   3.688
57056W        W16493  43.880  27.588   1.327
57057W        W16494  33.490  29.482  12.358
57058W        W16495   2.386   1.769  12.849
57059W        W16496  27.670  13.237   0.853
57060W        W16497  18.100  20.764  12.900
57061W        W16498  42.024  15.166  10.925
57062W        W16499  39.460  21.190  11.605
57063W        W16500  37.481  40.913  11.927
57064W        W16501  14.611  31.453  11.476
57065W        W16502  14.326  18.662   0.862
57066W        W16503  25.161  34.572   3.226
57067W        W16504   0.847   0.339   0.252
57068W        W16505  39.964   7.848  13.817
57069W        W16506  14.673  34.551  10.423
57070W        W16507  36.963  15.313  10.515
57071W        W16508  11.752  37.978   1.424
57072W        W16509  34.977   0.827   0.857
57073W        W16510  11.349  24.053   0.893
57074W        W16511  12.181  16.652   3.329
57075W        W16512  42.355   0.420   3.335
57076W        W16513  17.093  32.430   2.876
57077W        W16514  21.099  26.970   3.698
57078W        W16515   9.185  32.035  13.340
57079W        W16516  22.229   1.423   0.429
57080W        W16517  17.160  35.594  14.006
57081W        W16518  21.518  27.484   2.834
57082W        W16519   8.656  30.646   3.712
57083W        W16520  41.031  38.500   2.251
57084W        W16521   5.418  12.670   1.273
57085W        W16522  39.053  21.594  13.044
57086W        W16523  36.074   8.835  10.645
57087W        W16524  31.612  24.700  12.974
57088W        W16525  17.242  13.245   3.226
57089W        W16526  17.256  42.890  11.465
57090W        W16527  40.490  35.405   1.698
57091W        W16528  30.164  36.854  10.494
57092W        W16529  20.570   5.761  11.418
57093W        W16530   7.823  21.586   3.349
57094W        W16531  29.574   3.791  11.546
57095W        W16532   7.372  22.204   3.383
57096W        W16533  32.085  35.532   1.726
57097W        W16534  23.604   7.855  11.479
57098W        W16535  22.148  19.780   5.291
57099W        W16536   6.347  25.696  13.902
57100W        W16537  37.902  28.000  13.937
57101W        W16538   5.209  18.562  13.849
57102W        W16539   8.391   0.327   0.914
57103W        W16540  21.563   5.405  12.872
57104W        W16541  14.632   6.321   0.456
57105W        W16542  25.595  37.442   3.247
57106W        W16543  41.384  16.174   3.713
57107W        W16544  13.604  36.548  11.549
57108W        W16545  42.795  19.562   1.343
57109W        W16546  29.950  19.570   3.803
57110W        W16547  17.278  35.487  10.081
57111W        W16548   7.747  35.026  12.057
57112W        W16549  17.243  14.781   0.907
57113W        W16550  25.557  18.666   1.747
57114W        W16551  17.193   9.819   0.332
57115W        W16552  38.549  37.058   2.901
57116W        W16553  10.284  23.516   0.257
57117W        W16554  42.405  44.433   2.233
57118W        W16555  21.672  35.099  12.465
57119W        W16556  41.519  37.493   1.871
57120W        W16557  12.255  42.487  11.969
57121W        W16558   7.212   6.230   4.831
57122W        W16559  34.093  41.350  13.937
57123W        W16560   7.218  20.131  12.516
57124W        W16561  20.680  43.510   4.600
57125W        W16562  23.492  17.279  11.862
57126W        W16563  17.714  38.559   2.762
57127W        W16564   3.294  43.904   2.690
57128W        W16565  32.085  22.249   0.928
57129W        W16566  33.995  27.468   2.792
57130W        W16567  23.238   6.393   2.293
57131W        W16568  29.666  34.026  13.826
57132W        W16569  15.083  10.271  11.568
57133W        W16570  40.862  13.270   1.311
57134W        W16571   9.751  21.620   1.250
57135W        W16572  28.452  17.283  13.039
57136W        W16573  34.941  42.781  11.935
57137W        W16574   3.366  33.941  10.425
57138W        W16575  28.058  41.822  14.859
57139W        W16576  14.268   9.739   4.119
57140W        W16577   4.331  41.804   2.800
57141W        W16578  25.998   1.446   3.275
57142W        W16579  18.168  24.725  13.036
57143W        W16580  18.703   7.750  10.431
57144W        W16581  25.545  19.775   2.749
57145W        W16582  19.749  38.847   0.382
57146W        W16583  16.124  12.844  14.419
57147W        W16584   7.742   7.175  10.899
57148W        W16585  10.869  27.971   1.391
57149W        W16586  23.659  30.007  11.537
57150W        W16587  40.350  40.988  13.912
57151W        W16588  12.824  36.558   3.822
57152W        W16589  19.554  17.756   2.250
57153W        W16590   2.335  20.104  12.365
57154W        W16591  42.391   4.288   1.315
57155W        W16592  21.567   8.819   2.790
57156W        W16593  16.801  44.960  12.353
57157W        W16594  16.744  25.677  14.814
57158W        W16595   0.391  37.454  10.012
57159W        W16596  17.092  36.082  13.909
57160W        W16597  29.437  19.092   0.838
57161W        W16598  16.084  20.134  13.339
57162W        W16599  12.804  12.657   2.880
57163W        W16600  42.411  41.474   4.144
57164W        W16601  35.535  17.724   4.695
57165W        W16602  39.006   3.863  11.507
57166W        W16603  37.374  37.955  12.829
57167W        W16604   9.807  18.727  12.050
57168W        W16605  13.327  30.052   2.741
57169W        W16606  22.736  39.372   4.786
57170W        W16607  28.471  24.163  12.418
57171W        W16608  39.889  42.442  13.036
57172W        W16609  13.829  11.848  10.518
57173W        W16610  43.017  37.448   4.768
57174W        W16611  29.168   3.871  10.959
57175W        W16612  10.751  29.048  13.846
57176W        W16613   4.739  25.589  13.420
57177W        W16614  40.850  33.492   0.826
57178W        W16615  34.879  42.482  11.959
57179W        W16616  30.952   6.769   3.656
57180W        W16617  22.167  33.504   0.307
57181W        W16618  24.582   9.704  13.044
57182W        W16619  17.256   7.394  12.553
57183W        W16620   3.823  20.525   3.786
57184W        W16621  14.096   6.907   4.252
57185W        W16622   0.431  27.093  13.017
57186W        W16623  35.511   6.210  11.611
57187W        W16624  36.350  44.979  11.040
57188W        W16625   9.219   5.691  11.941
57189W        W16626  29.054  22.745  13.362
57190W        W16627  14.214  34.528   2.873
57191W        W16628  43.993   1.931  11.604
57192W        W16629   0.751   5.852  10.429
57193W        W16630   2.803  18.135   3.686
57194W        W16631  15.643  10.373   3.763
57195W        W16632  43.774   8.755   1.746
57196W        W16633  41.470   3.311   3.654
57197W        W16634  17.086  32.930   0.360
57198W        W16635  23.502  43.458  12.429
57199W        W16636  15.169  10.695  13.792
57200W        W16637  10.300  18.554   4.761
57201W        W16638  26.697  18.056  10.424
57202W        W16639   7.680   4.373  12.391
57203W        W16640  27.962  22.034  14.905
57204W        W16641  14.123  21.095   4.206
57205W        W16642  14.770  22.743  14.353
57206W        W16643  28.621  15.090  10.585
57207W        W16644   6.197   4.405  13.419
57208W        W16645  31.627  13.234   2.216
57209W        W16646  14.275  23.676   2.672
57210W        W16647  17.198   0.373  13.921
57211W        W16648  30.009  44.831  11.602
57212W        W16649  29.970  36.437  13.877
57213W        W16650  30.105  25.193  14.826
57214W        W16651  38.001  28.671   2.256
57215W        W16652  37.522  18.774  14.837
57216W        W16653  22.737  31.066  13.918
57217W        W16654   7.675  27.039   4.784
57218W        W16655  38.059   4.864   2.415
57219W        W16656  20.721  27.484  10.630
57220W        W16657  41.383   4.701  12.089
57221W        W16658   8.732   6.884  11.008
57222W        W16659  42.799  18.279   2.811
57223W        W16660  14.305  17.657  14.962
57224W        W16661  15.735  30.088  12.050
57225W        W16662  10.699  14.322  12.985
57226W        W16663  15.655  22.512  13.375
57227W        W16664  20.260  17.686  13.372
57228W        W16665   2.443  24.705  10.544
57229W        W16666  30.055  14.650   2.883
57230W        W16667  28.480  33.471   0.823
57231W        W16668  11.212  19.233   1.377
57232W        W16669  20.163  13.291   1.902
57233W        W16670  42.790  26.190  13.021
57234W        W16671  10.719  19.064  12.379
57235W        W16672  19.578   9.731  14.999
57236W        W16673  37.472  43.788  13.327
57237W        W16674   4.860  21.185  10.490
57238W        W16675  36.904  11.259  13.025
57239W        W16676  17.201  22.162  13.367
57240W        W16677  26.127  40.443  12.001
57241W        W16678  33.939  35.550   4.352
57242W        W16679   1.756   7.771  13.831
57243W        W16680  19.111  35.475   4.353
57244W        W16681   2.251  14.662  12.984
57245W        W16682   9.346  25.016  14.947
57246W        W16683  26.670   2.397   0.269
57247W        W16684  33.471  39.492   3.155
57248W        W16685  35.001  27.941   0.469
57249W        W16686  43.997  38.499   3.836
57250W        W16687  34.474  26.536  11.487
57251W        W16688   7.685  37.043   4.757
57252W        W16689  30.498  14.681  13.960
57253W        W16690  36.905   7.707   0.315
57254W        W16691  13.276  27.053  11.456
57255W        W16692  44.441  18.100   4.649
57256W        W16693  18.660  34.033   3.829
57257W        W16694  11.777  13.691   1.702
57258W        W16695  41.932  35.382   1.934
57259W        W16696   6.913  44.280   2.786
57260W        W16697  37.001  20.725  13.947
57261W        W16698  23.706  40.995   1.344
57262W        W16699   8.328   7.384   3.789
57263W        W16700  11.711  11.846   3.335
57264W        W16701  14.102  30.447   1.825
57265W        W16702  10.673  15.303   3.364
57266W        W16703  30.556  31.538   1.254
57267W        W16704  20.765  11.808  12.912
57268W        W16705  41.988  27.178   4.115
57269W        W16706  32.959  35.514  14.342
57270W        W16707  31.486  11.820   1.237
57271W        W16708  42.896  16.317   1.854
57272W        W16709   6.797   5.319   3.310
57273W        W16710  11.671   4.213  12.548
57274W        W16711   3.390  36.857  14.366
57275W        W16712   8.690  25.113   4.760
57276W        W16713  16.291  30.096   3.213
57277W        W16714  35.987  27.951  14.320
57278W        W16715  21.024  14.207   1.289
57279W        W16716  25.216   4.450  12.888
57280W        W16717  35.991  38.486   4.323
57281W        W16718  42.391  23.042   4.307
57282W        W16719  32.984   6.187   4.653
57283W        W16720  10.725  30.501   0.939
57284W        W16721   6.350  22.056  13.999
57285W        W16722   0.383  25.978  14.966
57286W        W16723  21.752  19.159  13.481
57287W        W16724  38.993  17.227   1.426
57288W        W16725   4.817  11.283   2.670
57289W        W16726   5.881  35.063  14.415
57290W        W16727  33.917  15.636  12.400
57291W        W16728  13.794  44.917  12.902
57292W        W16729  43.790  22.682   3.175
57293W        W16730  15.789  12.350   0.836
57294W        W16731   4.782  31.944  12.371
57295W        W16732  32.607  18.664  13.920
57296W        W16733  26.634  27.653   0.853
57297W        W16734   0.866   3.803  13.309
57298W        W16735  15.153   0.949  10.995
57299W        W16736   8.359  13.746  11.032
57300W        W16737  10.315  13.612   3.855
57301W        W16738  34.541  34.079  13.975
57302W        W16739  15.086  33.910  12.469
57303W        W16740  39.395  29.051  12.830
57304W        W16741  14.121   2.303  10.980
57305W        W16742   4.804   5.815   3.298
57306W        W16743   2.846  28.633   1.928
57307W        W16744  22.506  37.477   3.257
57308W        W16745  22.506  35.050  14.795
57309W        W16746  15.618  14.669   0.803
57310W        W16747   2.909   8.830   1.308
57311W        W16748  17.644  10.336   4.778
57312W        W16749  13.217  38.502  14.275
57313W        W16750  42.293  24.161   3.339
57314W        W16751   5.795  39.064   1.756
57315W        W16752   8.401  18.548  12.446
57316W        W16753  40.373   3.941   2.263
57317W        W16754  31.092  17.711   2.315
57318W        W16755  13.297  22.511  10.888
57319W        W16756  44.950   5.844  13.359
57320W        W16757  13.116   3.354   3.153
57321W        W16758  42.961  36.930  13.308
57322W        W16759  34.594  43.826   4.762
57323W        W16760  26.113  20.144  11.489
57324W        W16761  40.384   5.821   1.376
57325W        W16762   9.732   6.836  10.508
57326W        W16763  23.543  40.046  14.780
57327W        W16764   8.172   8.247  14.869
57328W        W16765  16.667  37.995  12.893
57329W        W16766  20.228  20.669  10.611
57330W        W16767  34.558  38.437  12.378
57331W        W16768  11.737  31.459   4.267
57332W        W16769  22.643  15.685   5.098
57333W        W16770  29.131   6.398  12.350
57334W        W16771   5.837  34.033  10.632
57335W        W16772  15.765   5.201  10.058
57336W        W16773  43.904  12.227  12.567
57337W        W16774  20.070  13.104   1.451
57338W        W16775  21.140  33.980   3.685
57339W        W16776  13.141  15.597  14.322
57340W        W16777  44.436   1.831   0.808
57341W        W16778  25.198   2.938   0.383
57342W        W16779  27.453  36.045  11.391
57343W        W16780  35.925  32.627   1.402
57344W        W16781  16.306  20.613   1.433
57345W        W16782   8.897  20.565   1.438
57346W        W16783   9.365  33.386  12.860
57347W        W16784  12.689  23.494   1.807
57348W        W16785   2.404  41.323   4.247
57349W        W16786  10.742  19.270   4.600
57350W        W16787  27.508  20.194  14.376
57351W        W16788  36.349  36.859  10.483
57352W        W16789  17.767  19.204  11.402
57353W        W16790  36.026  17.230   3.646
57354W        W16791  34.108  12.125  13.880
57355W        W16792  40.453  10.785  12.875
57356W        W16793  11.172  25.710   1.248
57357W        W16794  10.166  37.417  14.378
57358W        W16795  15.719  14.189  11.095
57359W        W16796  24.097  13.677  14.360
57360W        W16797  42.891  11.779   2.861
57361W        W16798  14.800  12.669  14.446
57362W        W16799  13.715  29.147   4.809
57363W        W16800  25.039  35.478  10.502
57364W        W16801  24.112  40.491   3.146
57365W        W16802  34.393  34.504   4.730
57366W        W16803  27.968  28.110   3.770
57367W        W16804  26.529  37.458  11.948
57368W        W16805   1.754  18.686   0.823
57369W        W16806  36.383  30.636  12.063
57370W        W16807   5.225  16.302  13.832
57371W        W16808  14.728  41.828   0.282
57372W        W16809   3.720   8.372   1.710
57373W        W16810  17.136  33.569   0.765
57374W        W16811  25.595   2.426   3.229
57375W        W16812   6.740  22.636  12.083
57376W        W16813  10.713  35.098   1.757
57377W        W16814  12.646   3.803  14.373
57378W        W16815  35.869  40.351   2.662
57379W        W16816  24.557  35.433   1.847
57380W        W16817  15.286   3.775  10.614
57381W        W16818  42.389  27.058  11.470
57382W        W16819  44.921   4.450  14.877
57383W        W16820  40.865  10.639  14.868
57384W        W16821  33.591  12.649  10.071
57385W        W16822  38.547   9.157  14.398
57386W        W16823  32.629  23.564   2.789
57387W        W16824  33.994  12.260   0.754
57388W        W16825  18.120  26.002   0.798
57389W        W16826  30.023  27.592  13.039
57390W        W16827  32.955   9.814  14.354
57391W        W16828   9.876  13.110   1.320
57392W        W16829  21.158  15.766   1.421
57393W        W16830  10.264  12.306   3.365
57394W        W16831  14.664  44.763   4.351
57395W        W16832  37.895  23.575   1.290
57396W        W16833   4.701  27.527   2.700
57397W        W16834  25.633  13.611   1.377
57398W        W16835   7.726  17.589   0.424
57399W        W16836  36.847  31.021  14.336
57400W        W16837  40.052   3.362  14.446
57401W        W16838  27.503   6.221  13.405
57402W        W16839   3.774  25.125   5.296
57403W        W16840  41.805  23.233   2.211
57404W        W16841  17.671   4.443  13.547
57405W        W16842  30.525  13.171   1.411
57406W        W16843  18.650   8.713   0.733
57407W        W16844  23.042   8.815  10.558
57408W        W16845  42.315  16.671   3.164
57409W        W16846  24.085  43.459   1.874
57410W        W16847   3.810  19.068  12.423
57411W        W16848  42.930   3.215   5.131
57412W        W16849   8.272  32.140   1.905
57413W        W16850  41.910  24.115   2.830
57414W        W16851  37.976   1.252   3.285
57415W        W16852  43.405  31.413   2.799
57416W        W16853  37.913   1.376   4.285
57417W        W16854  16.586  14.608   1.870
57418W        W16855  24.203   4.292   3.155
57419W        W16856   8.229  18.554   0.331
57420W        W16857   7.207  32.564   4.133
57421W        W16858  38.822   2.330  13.035
57422W        W16859   4.942   9.798   1.832
57423W        W16860  23.191  40.393  12.003
57424W        W16861   6.300   8.815   3.196
57425W        W16862  28.117  12.314  12.524
57426W        W16863  34.105  27.646  13.360
57427W        W16864  22.523  31.967   2.234
57428W        W16865  24.591   9.307  12.948
57429W        W16866  13.739   6.275  14.846
57430W        W16867  19.578  25.665   5.229
57431W        W16868  18.290   9.196   3.281
57432W        W16869  36.073  16.315  10.954
57433W        W16870  15.776  31.642   1.716
57434W        W16871  12.682  42.335  12.032
57435W        W16872  42.303   2.401  14.379
57436W        W16873  10.273  43.898  11.578
57437W        W16874   8.897   6.407  14.009
57438W        W16875  39.830  35.867  10.933
57439W        W16876  14.783  18.593   3.253
57440W        W16877  31.587  33.452   0.298
57441W        W16878  33.435  10.148  12.876
57442W        W16879   9.332   0.784   1.898
57443W        W16880  29.995   6.835   1.862
57444W        W16881  25.575  29.051   1.863
57445W        W16882  31.444  27.125   2.342
57446W        W16883  34.991  32.488   0.747
57447W        W16884   0.916  29.471   1.248
57448W        W16885   3.303  31.979  13.447
57449W        W16886  20.750  10.321  12.992
57450W        W16887  29.568  27.090   1.252
57451W        W16888  40.912  43.416   3.183
57452W        W16889  28.437  38.003   4.613
57453W        W16890  20.741  19.648   0.327
57454W        W16891   0.858  32.093  13.030
57455W        W16892  14.789  42.956  11.417
57456W        W16893   2.746  37.844   1.919
57457W        W16894  15.578   7.213  12.827
57458W        W16895  30.567  18.761   4.189
57459W        W16896   8.762  41.432  11.915
57460W        W16897  13.228  25.024  12.872
57461W        W16898  18.201  20.094  10.589
57462W        W16899  13.609  26.502  13.893
57463W        W16900  24.211  30.476  14.952
57464W        W16901  30.582  18.692   2.260
57465W        W16902  16.678  43.413  12.463
57466W        W16903  33.092  15.097   1.239
57467W        W16904  31.550  25.213  12.007
57468W        W16905  15.212  19.128   3.306
57469W        W16906  33.117  21.038  10.050
57470W        W16907  17.077  20.720  12.357
57471W        W16908  23.124  18.138   3.867
57472W        W16909   3.841  16.798   0.262
57473W        W16910  41.352  24.077  13.908
57474W        W16911   9.150   8.708   4.127
57475W        W16912  11.626  23.578   4.186
57476W        W16913   6.186   9.845  11.975
57477W        W16914  22.128  42.433  14.949
57478W        W16915  34.475  36.500   5.779
57479W        W16916  42.353  31.921   2.243
57480W        W16917  43.011  40.467  12.486
57481W        W16918  44.851   8.319   4.813
57482W        W16919   4.814  22.110   2.288
57483W        W16920  13.114  38.397  12.010
57484W        W16921  27.983  32.453  11.586
57485W        W16922  24.693   8.656  11.058
57486W        W16923  43.987   3.839  14.483
57487W        W16924   4.933  24.065   4.774
57488W        W16925  16.786  32.914  14.356
57489W        W16926  40.872   9.165   0.878
57490W        W16927  36.845   7.190   3.861
57491W        W16928  26.546  32.011  13.061
57492W        W16929  12.242  24.522  14.471
57493W        W16930  25.630  11.258  14.307
57494W        W16931  11.372  39.465   4.285
57495W        W16932   9.263  30.099  14.964
57496W        W16933  28.612  11.272  14.927
57497W        W16934  40.938  11.723  13.379
57498W        W16935  25.470  24.525   0.335
57499W        W16936  26.023  25.641  14.817
57500W        W16937  28.152  24.574   1.898
57501W        W16938   7.362  11.217  11.428
57502W        W16939  15.237  37.888   0.442
57503W        W16940  18.100  13.189  11.557
57504W        W16941   0.390   7.389   3.855
57505W        W16942  37.547  38.414   4.812
57506W        W16943  29.457  22.215   0.258
57507W        W16944   1.261  41.319   2.266
57508W        W16945  25.138   2.837  12.494
57509W        W16946  26.578  35.028   1.372
57510W        W16947  20.074  36.858  13.963
57511W        W16948  19.585   7.185   2.265
57512W        W16949   9.219  41.039   3.180
57513W        W16950  21.550   6.392  14.991
57514W        W16951  25.656   9.880   0.461
57515W        W16952  37.492  26.056   3.301
57516W        W16953  28.592   1.331  12.491
57517W        W16954  39.987   2.947   2.680
57518W        W16955   3.903  17.227   4.618
57519W        W16956  12.741  44.275  14.989
57520W        W16957  23.683   3.826   0.472
57521W        W16958   6.350  39.551   3.344
57522W        W16959  28.468  22.008  13.540
57523W        W16960  28.538  42.927   3.723
57524W        W16961  26.117  26.176   0.934
57525W        W16962  35.364  29.075  13.887
57526W        W16963  24.207  31.992   4.203
57527W        W16964  33.379  33.601  12.016
57528W        W16965  25.707   8.368   4.270
57529W        W16966  31.628  22.624   2.702
57530W        W16967  11.173  12.274  14.318
57531W        W16968  10.660   9.190  13.880
57532W        W16969  36.066  44.821  12.933
57533W        W16970  15.298  43.783   5.777
57534W        W16971  43.415   2.856  14.875
57535W        W16972  39.324   8.354  13.906
57536W        W16973   8.250   7.351   1.288
57537W        W16974  34.595   5.823   3.688
57538W        W16975  35.987   8.318   1.796
57539W        W16976  27.066   2.824  13.995
57540W        W16977  16.616  39.021   3.773
57541W        W16978  33.017  23.986  11.470
57542W        W16979  42.775  38.409  13.834
57543W        W16980  26.590   3.251   3.193
57544W        W16981  39.477  21.651  10.988
57545W        W16982  36.366  34.938   0.294
57546W        W16983  43.819  14.209   3.187
57547W        W16984  43.332  40.334   1.377
57548W        W16985  43.429  12.810   1.845
57549W        W16986  18.142   3.771  11.870
57550W        W16987   5.822  11.225  11.907
57551W        W16988   2.380  18.702   0.392
57552W        W16989  18.704   3.369  10.617
57553W        W16990  16.247   8.702  12.368
57554W        W16991   4.296  20.060   2.208
57555W        W16992  27.549   7.755  14.899
57556W        W16993  36.886   6.338  10.984
57557W        W16994  24.060  37.962  14.010
57558W        W16995  43.016  27.956   3.336
57559W        W16996  42.496   3.254   0.892
57560W        W16997   8.828  19.686  14.016
57561W        W16998  22.060  18.745   0.906
57562W        W16999  20.263  18.679   9.507
57563W        W17000  14.658  42.358   1.786
57564W        W17001  11.829  18.729   4.780
57565W        W17002   1.970  12.255   0.447
57566W        W17003  18.089  17.646   4.762
57567W        W17004  17.115  30.069   3.848
57568W        W17005  16.202  28.010  10.046
57569W        W17006  38.499  39.408   0.307
57570W        W17007  35.529   9.311   3.764
57571W        W17008  13.141  28.128   4.174
57572W        W17009   3.797  42.315   3.754
57573W        W17010   7.727  37.535   3.768
57574W        W17011  40.915   1.242   3.829
57575W        W17012   6.743   6.703  11.961
57576W        W17013  25.041   6.683  11.105
57577W        W17014  37.012  25.515  13.827
57578W        W17015  32.414  25.671  14.505
57579W        W17016  19.148  14.171   0.959
57580W        W17017  35.428  15.686  10.419
57581W        W17018  15.747  13.653   3.646
57582W        W17019  33.022  29.124  10.563
57583W        W17020  13.328  35.991   0.867
57584W        W17021  40.933  44.471  12.570
57585W        W17022  38.959  39.888  14.953
57586W        W17023   5.384  18.735   2.226
57587W        W17024  13.830  13.172  13.426
57588W        W17025   1.955  33.018  14.460
57589W        W17026  11.223   3.770   3.300
57590W        W17027  14.170  24.120   2.871
57591W        W17028  23.072   4.214  11.408
57592W        W17029  13.165  10.862   0.954
57593W        W17030   2.962  19.648   3.155
57594W        W17031  22.710  31.582   3.302
57595W        W17032  19.721  12.829  13.995
57596W        W17033   9.242   5.721  13.861
57597W        W17034  11.370  22.565   0.406
57598W        W17035  41.417  21.243   0.742
57599W        W17036  19.572  27.987   3.316
57600W        W17037  13.313  28.949   4.769
57601W        W17038  16.265   9.356   4.802
57602W        W17039   9.861   7.676  11.021
57603W        W17040  37.028  44.832  11.915
57604W        W17041   2.922  24.180  13.897
57605W        W17042   0.314  10.363  10.912
57606W        W17043  27.602  36.873   4.352
57607W        W17044  22.701  25.674  10.892
57608W        W17045   5.395  35.000   2.293
57609W        W17046  22.650  15.604  14.004
57610W        W17047   2.903   7.705   1.320
57611W        W17048  21.192  22.129   1.220
57612W        W17049   5.374  12.136  14.306
57613W        W17050  31.411   1.801  12.006
57614W        W17051  16.281  10.660   4.621
57615W        W17052  33.541  25.482   1.918
57616W        W17053  31.568  28.601   2.796
57617W        W17054   0.403   4.856  12.969
57618W        W17055   7.679  13.160   4.269
57619W        W17056  23.578  22.531   0.791
57620W        W17057   9.689   3.222   4.733
57621W        W17058  21.161  34.973   0.272
57622W        W17059  22.653  32.097  11.588
57623W        W17060  30.092  34.099   1.723
57624W        W17061   0.360  12.759   0.391
57625W        W17062  22.580  32.574   0.862
57626W        W17063  17.751   6.349  13.543
57627W        W17064  40.030  35.598   0.340
57628W        W17065  23.110  38.034  12.480
57629W        W17066  23.622  41.365   0.963
57630W        W17067  43.329  34.453   9.474
57631W        W17068  16.592  30.164  12.354
57632W        W17069  24.998   3.428   0.456
57633W        W17070   7.703  41.301   3.688
57634W        W17071  21.555  35.085   1.845
57635W        W17072  10.667  33.624   3.198
57636W        W17073  20.600  19.660  14.395
57637W        W17074  38.405  31.545   4.186
57638W        W17075  21.191  20.119   2.269
57639W        W17076  30.127  19.266   1.338
57640W        W17077   1.464   1.409   1.884
57641W        W17078   4.247  18.779   4.160
57642W        W17079  16.151  33.963   3.167
57643W        W17080  31.149  29.542  10.075
57644W        W17081  32.447   0.395   2.271
57645W        W17082  30.112  30.443   4.671
57646W        W17083  33.497  34.976   1.892
57647W        W17084  14.305  12.782  10.548
57648W        W17085  39.879   4.253   1.824
57649W        W17086  26.116  26.165  11.574
57650W        W17087   4.433  35.596  12.087
57651W        W17088  16.158  10.337  14.985
57652W        W17089  15.087  39.333   3.367
57653W        W17090  25.602  21.574   0.359
57654W        W17091  15.216  29.059   1.699
57655W        W17092  41.953  29.072   3.716
57656W        W17093   9.234  26.074  10.518
57657W        W17094   0.293  32.416  13.408
57658W        W17095  23.089  24.138   1.383
57659W        W17096  20.576   9.658  10.942
57660W        W17097  28.967   5.823   1.303
57661W        W17098  16.754  20.731  13.320
57662W        W17099  34.003  13.689   3.870
57663W        W17100   4.698  25.086  14.420
57664W        W17101  12.242  23.172  11.406
57665W        W17102  27.613  17.662   0.393
57666W        W17103  30.418  18.752  12.552
57667W        W17104  38.913  38.430  13.950
57668W        W17105   0.417  38.388   4.818
57669W        W17106   2.772  37.453   0.343
57670W        W17107  38.895  35.455  14.009
57671W        W17108   7.856  37.071   3.783
57672W        W17109   6.371  14.173   1.763
57673W        W17110  29.062  43.830   1.411
57674W        W17111   7.677  40.044   3.786
57675W        W17112  29.606  38.557   1.239
57676W        W17113  42.444  24.102  10.917
57677W        W17114  42.456  16.167   1.746
57678W        W17115  36.092  13.110  14.371
57679W        W17116  24.722  30.640   3.174
57680W        W17117  29.093  17.100   4.779
57681W        W17118  21.706  29.119  13.383
57682W        W17119   3.829   6.344  11.044
57683W        W17120  44.494  37.534  13.892
57684W        W17121  24.631  43.858  11.423
57685W        W17122   1.908   0.464   3.262
57686W        W17123  37.389  42.862   1.260
57687W        W17124  37.980   4.875  11.446
57688W        W17125   5.365   3.940  13.308
57689W        W17126  25.170  42.913  12.965
57690W        W17127   4.447   2.903  10.953
57691W        W17128  25.470  36.983  13.912
57692W        W17129  32.561  21.180  12.939
57693W        W17130   3.409  18.669  10.985
57694W        W17131  22.207  41.430   4.685
57695W        W17132  36.874  10.361   0.463
57696W        W17133   5.426   6.337  13.023
57697W        W17134  16.687  14.296   2.670
57698W        W17135  18.711  11.196   1.350
57699W        W17136  42.524  24.001  11.474
57700W        W17137  27.132  41.896  10.954
57701W        W17138  38.959  25.150  10.080
57702W        W17139   4.779  12.696   1.854
57703W        W17140  35.899  24.131   1.767
57704W        W17141   7.208  12.278   2.669
57705W        W17142  25.553   3.776   3.193
57706W        W17143   6.749  35.580  12.962
57707W        W17144  14.317  24.016  10.897
57708W        W17145   6.235  33.107  11.932
57709W        W17146  10.795  26.180  12.371
57710W        W17147  25.143   3.435   0.767
57711W        W17148  35.547  20.621  12.060
57712W        W17149  40.382  28.039  12.571
57713W        W17150  24.168  25.471   3.148
57714W        W17151   8.829  14.638   0.926
57715W        W17152   8.344  35.022   4.128
57716W        W17153   5.866  12.123  14.894
57717W        W17154  20.694   1.411  12.026
57718W        W17155  16.749  41.434   3.232
57719W        W17156  20.028  36.360  12.008
57720W        W17157  20.107   2.743  12.866
57721W        W17158  40.971  30.097   1.859
57722W        W17159   7.682  10.851   4.730
57723W        W17160  32.575  18.655   3.278
57724W        W17161  15.752  25.552   0.391
57725W        W17162   2.838  20.243   1.318
57726W        W17163  26.621  17.634   1.805
57727W        W17164  11.357   1.804  11.942
57728W        W17165  34.553  38.338   5.707
57729W        W17166  14.827  13.197   4.335
57730W        W17167  39.448   9.166  11.024
57731W        W17168  40.344   6.253  11.892
57732W        W17169  37.904   2.813   1.347
57733W        W17170  14.758  27.950  12.419
57734W        W17171  13.171  42.324   3.691
57735W        W17172  38.022  11.835   3.847
57736W        W17173  26.692  14.159  12.413
57737W        W17174  12.162  28.640  12.940
57738W        W17175  36.568  27.507  14.016
57739W        W17176  16.673  10.185   3.379
57740W        W17177  40.903   6.826  11.056
57741W        W17178  42.920  29.004  11.581
57742W        W17179  26.655  19.140   4.618
57743W        W17180  16.154  15.797  14.361
57744W        W17181  26.954  10.289   3.656
57745W        W17182  14.332  30.448   4.662
57746W        W17183  14.759  21.057   1.296
57747W        W17184  40.933  44.459   1.299
57748W        W17185  36.444   1.868   1.776
57749W        W17186  32.436  10.240  11.605
57750W        W17187  44.999   9.865   2.270
57751W        W17188  21.258   6.324  10.548
57752W        W17189  16.605  11.659  13.320
57753W        W17190  17.665  17.665  12.495
57754W        W17191  23.045  15.740  14.474
57755W        W17192  27.048  38.074  10.944
57756W        W17193   6.295  30.960   1.735
57757W        W17194  43.896  33.573  14.351
57758W        W17195   0.755   8.771  14.384
57759W        W17196  31.587  40.304   2.769
57760W        W17197  10.708   3.724   2.179
57761W        W17198  32.627   7.256   2.282
57762W        W17199   2.917  43.826  14.311
57763W        W17200  41.387  30.978  11.080
57764W        W17201  23.586   9.836   1.315
57765W        W17202  38.920  13.111  13.875
57766W        W17203  39.017  39.835  12.917
57767W        W17204  15.175  19.240   2.779
57768W        W17205  16.151  44.844  12.552
57769W        W17206  35.109   0.851   0.445
57770W        W17207  43.909  40.882  11.944
57771W        W17208  38.839   8.206  13.452
57772W        W17209  22.027  32.409  14.506
57773W        W17210   4.329   9.288   3.853
57774W        W17211  34.440  25.058   4.671
57775W        W17212  29.505   3.424   2.751
57776W        W17213   1.449  13.753  11.049
57777W        W17214  19.564  38.566  12.406
57778W        W17215   9.270  24.546   2.351
57779W        W17216  38.023  34.086  14.303
57780W        W17217  31.433   1.437  10.458
57781W        W17218  42.526  35.950   0.782
57782W        W17219  39.445  41.324  11.594
57783W        W17220  13.752  12.850  12.920
57784W        W17221  28.664  36.432   2.896
57785W        W17222   5.849  38.032   4.352
57786W        W17223  15.240  38.841  11.570
57787W        W17224  13.810  25.057   4.673
57788W        W17225   2.741  42.004   1.287
57789W        W17226   3.250   7.871   3.726
57790W        W17227  30.496  34.954   0.929
57791W        W17228   1.887  10.344   3.281
57792W        W17229  27.126  33.465   1.811
57793W        W17230  39.037  35.369   4.295
57794W        W17231  12.807  39.431   0.450
57795W        W17232  11.254  16.597   0.759
57796W        W17233  26.106   8.260   2.252
57797W        W17234   6.386  38.999  13.490
57798W        W17235  20.578  33.048  10.588
57799W        W17236  43.283  26.527   1.763
57800W        W17237  38.943  26.072   2.313
57801W        W17238  31.425  19.200  11.407
57802W        W17239  10.750   3.350   1.847
57803W        W17240  39.819   1.360  14.992
57804W        W17241   5.928  10.211   0.814
57805W        W17242  34.561  23.051  14.400
57806W        W17243   8.349   4.766   2.892
57807W        W17244  13.175   2.936   0.295
57808W        W17245  25.186  23.048   4.668
57809W        W17246  19.259  39.842  11.925
57810W        W17247  27.188  27.524  10.404
57811W        W17248  40.031  40.340   3.224
57812W        W17249   7.701  43.461  10.990
57813W        W17250  11.764   6.303  14.003
57814W        W17251  13.613   0.419   2.276
57815W        W17252  28.176  18.237  12.007
57816W        W17253  25.673  15.767   1.798
57817W        W17254  28.515  43.414   2.293
57818W        W17255   1.411  24.546  10.547
57819W        W17256  26.492  25.182   4.263
57820W        W17257  29.068  31.625   3.158
57821W        W17258   2.255  42.455  13.814
57822W        W17259   3.306  38.378  11.124
57823W        W17260  32.473  30.635   2.366
57824W        W17261  29.528  43.834   1.903
57825W        W17262  37.542   8.676   0.270
57826W        W17263  10.365  20.148  10.950
57827W        W17264   5.334  25.101   1.794
57828W        W17265  29.633  23.984  14.340
57829W        W17266  26.960  14.835   0.466
57830W        W17267  31.133  23.682   4.174
57831W        W17268  24.634  33.069   3.346
57832W        W17269  13.320   7.331  12.051
57833W        W17270  23.668  20.709   2.786
57834W        W17271  43.305  38.854  14.975
57835W        W17272  40.012  33.093   2.878
57836W        W17273  16.140  30.474   1.250
57837W        W17274  25.659  43.015  10.506
57838W        W17275  43.465  15.730  12.431
57839W        W17276  43.307  17.618   3.793
57840W        W17277  17.650  43.907  12.565
57841W        W17278   2.819  40.031  10.428
57842W        W17279  37.391   5.201  10.928
57843W        W17280  23.715  19.157  12.851
57844W        W17281  15.243  30.956   2.790
57845W        W17282  26.164  14.789   4.248
57846W        W17283  33.458  22.626   2.868
57847W        W17284  14.206  24.153   0.886
57848W        W17285  11.695  19.086   0.945
57849W        W17286  31.489  19.600  13.004
57850W        W17287  26.026  39.452   2.718
57851W        W17288  16.569  21.757   3.695
57852W        W17289  12.661   8.282   3.768
57853W        W17290  15.690  25.616   5.167
57854W        W17291  17.228  17.219   0.913
57855W        W17292  28.442  40.855  11.387
57856W        W17293   9.794  19.124  11.116
57857W        W17294  44.925  28.106  10.423
57858W        W17295  31.430  30.607   2.360
57859W        W17296  34.014  16.309   0.876
57860W        W17297  26.682  32.127  14.941
57861W        W17298  13.818  20.736   0.792
57862W        W17299   8.202   0.746   0.882
57863W        W17300  30.594   3.246  12.544
57864W        W17301  16.172   2.747  10.974
57865W        W17302  12.208  14.812  14.434
57866W        W17303  21.036  27.554   4.785
57867W        W17304   7.680  13.213  14.868
57868W        W17305  14.247  44.372  11.862
57869W        W17306   5.335  20.129   3.168
57870W        W17307  21.512  38.475   3.793
57871W        W17308  23.545  41.934  12.066
57872W        W17309  15.251  10.334   1.888
57873W        W17310  32.887  25.500  13.476
57874W        W17311  35.361  22.141  11.872
57875W        W17312  29.962   8.781  14.277
57876W        W17313  30.009  39.466   0.359
57877W        W17314  32.433  23.117   0.842
57878W        W17315   9.755  12.667  12.539
57879W        W17316  26.068  36.573   0.839
57880W        W17317  28.973  38.479   2.748
57881W        W17318  22.223  18.134  14.362
57882W        W17319  42.479  30.457  14.975
57883W        W17320  20.652  26.484   3.254
57884W        W17321   1.862  31.405  14.791
57885W        W17322   7.288  11.796  12.895
57886W        W17323   2.320  17.115  14.021
57887W        W17324   2.755  40.969  13.998
57888W        W17325  12.157  39.353   2.367
57889W        W17326  26.175  16.247  14.420
57890W        W17327  26.006  43.779  11.911
57891W        W17328   1.317  32.633   0.428
57892W        W17329  32.448  39.887  14.772
57893W        W17330  28.466   6.269   4.631
57894W        W17331  33.985  27.949  12.449
57895W        W17332   2.729  27.637  12.539
57896W        W17333  17.296  10.170  14.896
57897W        W17334  31.933  26.664  12.826
57898W        W17335  38.412  28.151   3.726
57899W        W17336  31.111   2.368  14.809
57900W        W17337  34.428  31.608  11.992
57901W        W17338  32.895  12.138   3.806
57902W        W17339  25.125  37.445  13.792
57903W        W17340   3.781  36.009   4.326
57904W        W17341  11.256  16.609   4.719
57905W        W17342  38.431  30.436  11.579
57906W        W17343  28.664  39.910  13.823
57907W        W17344   7.271  19.187  12.831
57908W        W17345   5.322  33.998  14.783
57909W        W17346  23.508   9.862  13.843
57910W        W17347   1.953  41.863   4.680
57911W        W17348  22.064  31.046  11.913
57912W        W17349  27.506  15.286  11.098
57913W        W17350  39.911  22.624   2.901
57914W        W17351  22.616  34.463  14.779
57915W        W17352  15.196  24.718   3.216
57916W        W17353   0.298  21.537  14.300
57917W        W17354  35.871  17.701  14.324
57918W        W17355  13.714  31.565  13.451
57919W        W17356   4.907  38.897   3.371
57920W        W17357  44.479  26.138   1.807
57921W        W17358  28.014  14.760  14.456
57922W        W17359  12.699  24.680  12.448
57923W        W17360  27.480  18.685   2.249
57924W        W17361  30.642  32.487  11.859
57925W        W17362  38.869   6.845  11.020
57926W        W17363  19.135  28.984   4.297
57927W        W17364  32.531   9.787  12.058
57928W        W17365  26.107  13.183   1.268
57929W        W17366   0.814  15.763   1.344
57930W        W17367  42.883  41.034  13.521
57931W        W17368  19.695  24.183   3.687
57932W        W17369   3.776  10.705   5.179
57933W        W17370  25.082  12.803   0.727
57934W        W17371  28.956   1.258  14.375
57935W        W17372  10.254  31.574   3.845
57936W        W17373  14.833   0.971   4.298
57937W        W17374  21.563  10.669  13.379
57938W        W17375  16.777  31.983   1.852
57939W        W17376  30.612  37.389   4.814
57940W        W17377   8.345  44.285  13.977
57941W        W17378   6.205   1.846  11.453
57942W        W17379  15.088  17.692  14.425
57943W        W17380  33.612  22.505  13.934
57944W        W17381   5.402  22.736  14.426
57945W        W17382  40.336  25.515  13.831
57946W        W17383  42.791  20.627   2.705
57947W        W17384  32.437  29.123  14.801
57948W        W17385   6.742  13.773   2.331
57949W        W17386   9.859  15.676  10.425
57950W        W17387  15.212  21.534   3.167
57951W        W17388  21.082  27.992   2.729
57952W        W17389  11.741   2.722   0.435
57953W        W17390  20.163  22.100   2.705
57954W        W17391  34.461   5.407   4.153
57955W        W17392   7.170  39.921  12.482
57956W        W17393   5.721  10.824  13.059
57957W        W17394   1.295  40.902   4.756
57958W        W17395  40.804  22.052  10.643
57959W        W17396   3.395  19.550   0.830
57960W        W17397  20.608  29.623  13.793
57961W        W17398  35.532  43.506   0.935
57962W        W17399  21.181  38.903  10.550
57963W        W17400   8.395  27.014   3.738
57964W        W17401  36.023  29.174   4.251
57965W        W17402  39.391  41.983   2.399
57966W        W17403  18.248  28.122   4.640
57967W        W17404  24.178   4.351   2.795
57968W        W17405  37.050   5.245   3.807
57969W        W17406  14.695  26.655   4.733
57970W        W17407  17.244  27.167   2.242
57971W        W17408  29.063  37.953  10.612
57972W        W17409  43.439  33.448  14.355
57973W        W17410  32.015   2.436   3.799
57974W        W17411  27.100  24.650  14.829
57975W        W17412  10.200  16.184   3.295
57976W        W17413  28.950  12.179   0.802
57977W        W17414   8.699  17.570  12.046
57978W        W17415  13.126   1.883   4.725
57979W        W17416  16.754  21.629   0.424
57980W        W17417  32.930   0.382  12.926
57981W        W17418   6.773  33.453  14.961
57982W        W17419  19.689  12.840  11.124
57983W        W17420  21.611  34.984  14.513
57984W        W17421  32.392  37.569   0.738
57985W        W17422  43.007  21.102   0.253
57986W        W17423  25.103  38.946  14.416
57987W        W17424   7.352  22.717  12.017
57988W        W17425   4.412  30.106  12.428
57989W        W17426  32.930  29.114   4.812
57990W        W17427  30.083  13.688   1.694
57991W        W17428  27.564  17.610  12.056
57992W        W17429  15.222   7.317   1.873
57993W        W17430  38.543  27.959   1.224
57994W        W17431  12.324  35.095   2.273
57995W        W17432  35.510  26.971   1.868
57996W        W17433  20.633  27.604   2.798
57997W        W17434  30.437  36.568   1.378
57998W        W17435  14.307  19.112   4.228
57999W        W17436  28.539  22.624   1.918
58000W        W17437  11.247   4.325   2.305
58001W        W17438  33.889  17.624  11.866
58002W        W17439  14.238  27.460   4.832
58003W        W17440  14.646  44.885  13.464
58004W        W17441  13.810  10.180   3.731
58005W        W17442  16.175  12.783   4.238
58006W        W17443  25.581  32.424   2.195
58007W        W17444  16.247  41.000   0.410
58008W        W17445   1.381  17.609   5.269
58009W        W17446  28.934  39.381   1.291
58010W        W17447   7.337   4.370  14.352
58011W        W17448   0.367  12.307   9.531
58012W        W17449   2.441  34.468   4.734
58013W        W17450  13.758  38.396   2.757
58014W        W17451   6.330  21.101  10.993
58015W        W17452  33.409  35.466  13.894
58016W        W17453  23.501  41.948   5.135
58017W        W17454  16.116   0.388   0.848
58018W        W17455  13.808  28.006  11.867
58019W        W17456  16.608  10.254   4.776
58020W        W17457   9.780  21.556   4.777
58021W        W17458  44.869  27.153   3.236
58022W        W17459  29.514  31.429   0.281
58023W        W17460   6.731   4.436  11.917
58024W        W17461  24.488  39.985   0.825
58025W        W17462  43.861  44.483   1.439
58026W        W17463  33.967  38.983  14.381
58027W        W17464  33.517  25.513  13.362
58028W        W17465   8.705  15.297   1.889
58029W        W17466  11.737  36.001  12.400
58030W        W17467  20.600   1.463  12.531
58031W        W17468  41.889   1.757   1.372
58032W        W17469  13.734  16.573   0.868
58033W        W17470  27.662  31.473  14.391
58034W        W17471  33.574   2.469  10.969
58035W        W17472  39.435  40.450  10.541
58036W        W17473  30.481  25.642  10.976
58037W        W17474  37.436  28.488   4.268
58038W        W17475  44.403  11.719   3.681
58039W        W17476   7.343  14.207   4.199
58040W        W17477  15.191  30.510  14.415
58041W        W17478  11.296  27.650   4.257
58042W        W17479   4.745  28.487  13.909
58043W        W17480   6.260  23.137   1.729
58044W        W17481  25.514  15.715  12.967
58045W        W17482  26.093  41.443   0.315
58046W        W17483  44.755   3.872   2.237
58047W        W17484  39.544   3.936   3.699
58048W        W17485  13.290  14.227   3.294
58049W        W17486  36.427  44.859   2.385
58050W        W17487   4.904   0.393   4.764
58051W        W17488  30.124  15.234  10.602
58052W        W17489  22.141  28.519   2.796
58053W        W17490   7.348  23.997  14.479
58054W        W17491  43.461  37.955   4.619
58055W        W17492  27.449   0.388   4.139
58056W        W17493  12.206   6.808  11.432
58057W        W17494  16.272  42.926   5.622
58058W        W17495  14.330  34.579   0.773
58059W        W17496   6.355  42.324   1.764
58060W        W17497  15.792  15.664  10.508
58061W        W17498  21.718  21.643   2.180
58062W        W17499  15.109  29.035  12.051
58063W        W17500  26.192  41.384  13.406
58064W        W17501   3.890  29.108  13.902
58065W        W17502  21.526  14.648   2.886
58066W        W17503  34.572   3.784  11.413
58067W        W17504  22.122   1.338  11.969
58068W        W17505  30.565  44.411  12.901
58069W        W17506  40.308  25.155   0.888
58070W        W17507  18.101  22.700  13.396
58071W        W17508  22.594   3.273   0.760
58072W        W17509  25.156   6.196   1.318
58073W        W17510   1.330  37.043   0.896
58074W        W17511   0.781   8.724   0.913
58075W        W17512   8.722  34.003   1.382
58076W        W17513  13.650  15.788  13.062
58077W        W17514  25.039  22.663   0.808
58078W        W17515  18.678  24.106   2.183
58079W        W17516  14.616  31.902  13.522
58080W        W17517   9.735  26.628  14.316
58081W        W17518   9.758  16.081   4.754
58082W        W17519  40.364  35.895   2.267
58083W        W17520  41.870   8.305   1.926
58084W        W17521  44.414  40.853   4.199
58085W        W17522   0.317  27.449  12.081
58086W        W17523  41.381  44.977  12.509
58087W        W17524  38.546  33.539  12.071
58088W        W17525   2.367  17.716   2.799
58089W        W17526   4.356  22.669   3.765
58090W        W17527  43.335  16.172  13.325
58091W        W17528  34.094  28.510   3.221
58092W        W17529  37.913   5.723  13.815
58093W        W17530  36.548  10.376  11.062
58094W        W17531  27.004  29.149  11.014
58095W        W17532  25.170  22.138  12.564
58096W        W17533  33.464  33.564  11.436
58097W        W17534  31.506  17.624   2.238
58098W        W17535  38.562  29.575   3.660
58099W        W17536  22.687  33.422   2.395
58100W        W17537   3.758  40.387   4.291
58101W        W17538  41.384  28.463   3.299
58102W        W17539  31.971  34.472  14.463
58103W        W17540  27.600  39.559   4.799
58104W        W17541  37.382  42.001   5.226
58105W        W17542   5.258  41.293  13.452
58106W        W17543  15.600  15.589   0.456
58107W        W17544  14.786  37.862  14.323
58108W        W17545  29.481   2.311  12.481
58109W        W17546  24.179  10.232  13.366
58110W        W17547  34.601   5.283  14.889
58111W        W17548  28.162  37.476   4.835
58112W        W17549  25.016  30.588  12.479
58113W        W17550  25.191  37.935   3.793
58114W        W17551  44.979  21.146   4.113
58115W        W17552  29.485  42.919  12.030
58116W        W17553  23.662  22.554  10.599
58117W        W17554  34.538  25.470   2.313
58118W        W17555  10.745  18.714  11.995
58119W        W17556  40.368   7.330   2.213
58120W        W17557  15.278  29.620   0.270
58121W        W17558   2.782  16.635   2.843
58122W        W17559  34.119  39.056   0.932
58123W        W17560  24.621  17.581  14.935
58124W        W17561  38.384  17.703  10.971
58125W        W17562  16.140  27.499  10.952
58126W        W17563   3.774  31.089   3.356
58127W        W17564  12.742  43.833   1.897
58128W        W17565  36.850   7.281   3.340
58129W        W17566  27.103   5.882  11.598
58130W        W17567  10.785   1.457  12.540
58131W        W17568  18.749   6.230  11.019
58132W        W17569   2.900  16.211   3.200
58133W        W17570  34.598   9.787  11.402
58134W        W17571  41.518   7.311  10.433
58135W        W17572  39.533  41.012   4.124
58136W        W17573  21.047  20.670  10.924
58137W        W17574  17.629  33.391  14.302
58138W        W17575  27.968  37.485  12.922
58139W        W17576  27.461  15.262   2.661
58140W        W17577  10.661   6.215   1.803
58141W        W17578   9.240  25.084  11.452
58142W        W17579   5.436   8.695   2.363
58143W        W17580   7.784  28.938  11.934
58144W        W17581  32.077  21.671  14.356
58145W        W17582  38.048  36.026   1.750
58146W        W17583  11.287   4.333  11.048
58147W        W17584  13.108  10.175  10.145
58148W        W17585   0.983   2.767  10.909
58149W        W17586  29.654  12.313   0.366
58150W        W17587  10.755  44.835  11.475
58151W        W17588  19.147   0.296   4.655
58152W        W17589   9.237  21.224   0.842
58153W        W17590  32.966   8.744   2.785
58154W        W17591  19.694   3.334  11.476
58155W        W17592   2.757   6.676   3.311
58156W        W17593   5.409  28.641  11.999
58157W        W17594  27.958  25.578   0.748
58158W        W17595   6.829  13.665  12.845
58159W        W17596   8.226  38.849  12.364
58160W        W17597  27.573   8.711  14.020
58161W        W17598  20.526  20.103  11.579
58162W        W17599  12.813  43.391  12.534
58163W        W17600  24.113  24.984  12.026
58164W        W17601  18.556  17.185   0.881
58165W        W17602  26.968  44.337   3.198
58166W        W17603  12.714  27.145  14.394
58167W        W17604  27.088  23.231  10.035
58168W        W17605   4.852  34.600   5.199
58169W        W17606  21.035  21.520   9.941
58170W        W17607  42.977  37.443   1.742
58171W        W17608  24.559  35.928  11.473
58172W        W17609  41.457  25.173  14.951
58173W        W17610  18.581  20.684  14.781
58174W        W17611  20.141  21.021   2.903
58175W        W17612  10.241  10.301  13.839
58176W        W17613  34.972  43.824   4.262
58177W        W17614  20.714   8.337   2.742
58178W        W17615  29.546  13.119   1.722
58179W        W17616   4.409   9.867  10.516
58180W        W17617  37.347  17.686  11.014
58181W        W17618  22.596  21.179   3.241
58182W        W17619  31.459   2.783   4.604
58183W        W17620  33.001  34.555  13.019
58184W        W17621  44.352  33.551  13.989
58185W        W17622  17.232  30.164  13.990
58186W        W17623   1.945   1.803  14.419
58187W        W17624  14.738  41.474   4.735
58188W        W17625  42.790   8.252  12.548
58189W        W17626  35.975  26.985   3.686
58190W        W17627  23.197  12.852   3.281
58191W        W17628   9.216   1.919   2.796
58192W        W17629  40.037   0.868  12.350
58193W        W17630   9.837  42.298  13.312
58194W        W17631  29.100  10.243   4.814
58195W        W17632   5.700  22.526   0.791
58196W        W17633  33.117  37.354  14.934
58197W        W17634   0.909  11.746  14.830
58198W        W17635  25.050  39.885  12.933
58199W        W17636  16.139  35.477   0.396
58200W        W17637  25.051  26.701   3.670
58201W        W17638  30.539  22.134   4.291
58202W        W17639   4.338  15.277   4.244
58203W        W17640  36.493  29.018   0.260
58204W        W17641  15.773   5.348   3.778
58205W        W17642  32.068  30.097  13.536
58206W        W17643  35.855  31.432   0.818
58207W        W17644  14.159  15.130  14.397
58208W        W17645  25.673  29.623   0.249
58209W        W17646  19.134  42.953   4.287
58210W        W17647  31.136  20.524   0.375
58211W        W17648  40.976  39.516  13.808
58212W        W17649  36.849  16.318  10.943
58213W        W17650  24.134  31.105   1.392
58214W        W17651  36.478   4.813   1.387
58215W        W17652   0.310  42.431  12.912
58216W        W17653  36.095  37.337  14.492
58217W        W17654   2.469  29.535   2.740
58218W        W17655  11.860  28.098   5.179
58219W        W17656  41.863  24.507   4.740
58220W        W17657  42.861  13.210  11.519
58221W        W17658  32.591   8.756   2.670
58222W        W17659   9.272  16.266   2.689
58223W        W17660  38.025   5.235  12.844
58224W        W17661   7.805  24.617  10.938
58225W        W17662  24.055  26.461   2.824
58226W        W17663  37.403   4.257   2.902
58227W        W17664   3.395  42.863   2.235
58228W        W17665  20.070  28.508  10.947
58229W        W17666  22.701   4.942   1.405
58230W        W17667  28.571   0.876   2.792
58231W        W17668  41.841  38.486  14.316
58232W        W17669  30.471   8.249   3.169
58233W        W17670   1.950  26.972   0.283
58234W        W17671   8.672  38.884  13.858
58235W        W17672   8.896  38.917   4.830
58236W        W17673  27.006  17.132  11.524
58237W        W17674   8.352  10.659  14.463
58238W        W17675  16.579  43.364   0.420
58239W        W17676  13.253  10.687  12.563
58240W        W17677  36.458  10.677   4.124
58241W        W17678  44.497   5.687   0.843
58242W        W17679  24.013   8.721  10.464
58243W        W17680  40.899  14.174  13.854
58244W        W17681  16.678  12.168   3.247
58245W        W17682  35.924   8.336  11.565
58246W        W17683   0.312  17.245  14.978
58247W        W17684  30.598   9.215  12.971
58248W        W17685  23.689  22.995   1.766
58249W        W17686   7.183  14.320   3.213
58250W        W17687  34.880  37.027  12.361
58251W        W17688   8.841  33.015   2.405
58252W        W17689  26.205  14.231  13.057
58253W        W17690  37.938  26.969  12.488
58254W        W17691  44.279   9.686  12.053
58255W        W17692  26.170  42.929  14.878
58256W        W17693  33.057  26.150   4.784
58257W        W17694  17.234  41.357   3.291
58258W        W17695   7.859   8.742  14.347
58259W        W17696  15.801  23.997   2.190
58260W        W17697  26.002  28.049  11.078
58261W        W17698   3.922  43.382   1.863
58262W        W17699  24.639  17.693  12.851
58263W        W17700   0.319  41.514   1.345
58264W        W17701  31.990  39.395   3.334
58265W        W17702   3.326  12.338  13.873
58266W        W17703  13.843  41.414  10.565
58267W        W17704   7.304  32.959   2.892
58268W        W17705   7.282  44.389  14.897
58269W        W17706  14.711  38.338   3.387
58270W        W17707  36.472  37.427   4.176
58271W        W17708  43.330  35.017  11.478
58272W        W17709  35.907  30.437  13.026
58273W        W17710  15.239  28.668   4.232
58274W        W17711  37.436   1.930   0.920
58275W        W17712  22.165  20.180   4.307
58276W        W17713  20.208   8.846  11.588
58277W        W17714  38.022  10.634   4.777
58278W        W17715  24.527  23.134   4.185
58279W        W17716  32.526  27.689   2.185
58280W        W17717  26.564  39.335   0.383
58281W        W17718  39.814  43.342   1.432
58282W        W17719   1.483  10.281  10.595
58283W        W17720  41.441   4.749   2.760
58284W        W17721  42.926  32.397   1.869
58285W        W17722  39.437  19.737   0.939
58286W        W17723  41.943  31.452   1.447
58287W        W17724  16.617   9.383   1.424
58288W        W17725  13.314  23.668   4.287
58289W        W17726  25.055  19.743  10.597
58290W        W17727  28.481  15.295  14.936
58291W        W17728   0.347   9.364  11.917
58292W        W17729   8.680  38.337   4.119
58293W        W17730  10.738   2.450   1.857
58294W        W17731  24.547  25.529   0.887
58295W        W17732  17.118  37.477   1.882
58296W        W17733  18.748  43.341  12.545
58297W        W17734   6.417   6.268   1.231
58298W        W17735  24.600  29.153   4.238
58299W        W17736   1.470  10.839   3.199
58300W        W17737  32.094  21.241  13.833
58301W        W17738  32.434   4.318   2.734
58302W        W17739   4.351  23.582  10.551
58303W        W17740  36.493   1.961   0.328
58304W        W17741  36.870  31.431   2.674
58305W        W17742   7.865  19.723   3.840
58306W        W17743  40.931  32.126  14.857
58307W        W17744  22.118  43.509   0.840
58308W        W17745  14.703  39.558  12.553
58309W        W17746  38.377  16.188  13.532
58310W        W17747  36.524   2.302   2.825
58311W        W17748   9.311  28.077   3.826
58312W        W17749  32.105   1.899   1.794
58313W        W17750  16.725  39.369  11.910
58314W        W17751   5.415  24.135  13.404
58315W        W17752  34.059   1.269  14.831
58316W        W17753  29.520  27.600  11.446
58317W        W17754   9.222  40.442  14.913
58318W        W17755   4.280  24.180  13.968
58319W        W17756  18.284  41.001  12.018
58320W        W17757   0.381  25.003   4.730
58321W        W17758  39.820  25.207   0.456
58322W        W17759   5.282  13.308   3.213
58323W        W17760  30.566  22.151   1.930
58324W        W17761  32.404  23.596   0.964
58325W        W17762  29.637  11.709   4.126
58326W        W17763  34.395  35.963  12.039
58327W        W17764  41.370   2.799  13.483
58328W        W17765  42.495   3.420   4.318
58329W        W17766  18.148  43.294  11.567
58330W        W17767  31.555  44.004  12.912
58331W        W17768  33.929  44.973   2.384
58332W        W17769  12.229  25.174  14.998
58333W        W17770  20.163  44.945   0.877
58334W        W17771  37.416  30.014   2.770
58335W        W17772   9.684  20.751   2.787
58336W        W17773  16.567   7.830   4.758
58337W        W17774  17.729   8.744  13.428
58338W        W17775  11.628  32.415  12.063
58339W        W17776  28.101  35.023  12.508
58340W        W17777  27.604  39.017   1.708
58341W        W17778   6.305  35.553   1.326
58342W        W17779  29.476  37.906  13.408
58343W        W17780  44.405  39.890   4.268
58344W        W17781  32.391   6.700  12.356
58345W        W17782  38.497  32.131  12.056
58346W        W17783  26.972   0.756   0.261
58347W        W17784  35.402  40.879  13.480
58348W        W17785  37.406  40.987  10.547
58349W        W17786  14.277  22.510   0.292
58350W        W17787  16.308  30.129  14.841
58351W        W17788   4.430  31.068  11.951
58352W        W17789  35.407  33.464   0.479
58353W        W17790  18.193   6.227  12.355
58354W        W17791  29.987  26.994   3.708
58355W        W17792  10.290  37.516   1.405
58356W        W17793   2.229  17.791  12.867
58357W        W17794  23.490  33.558   4.632
58358W        W17795  44.449  27.062   1.313
58359W        W17796  15.318  41.465   1.431
58360W        W17797  11.230  27.629  14.403
58361W        W17798  29.042  33.035  10.582
58362W        W17799  19.738  25.202  11.371
58363W        W17800   9.655  31.116  12.563
58364W        W17801  11.845  21.236   9.931
58365W        W17802  31.017  15.713  11.058
58366W        W17803  39.377   3.763   1.817
58367W        W17804  29.573  14.299  12.982
58368W        W17805  33.967  10.208   0.832
58369W        W17806  30.461  33.471  13.826
58370W        W17807   0.987   5.806  11.023
58371W        W17808  28.173  11.274  11.562
58372W        W17809  34.580  44.367  11.953
58373W        W17810  28.175  36.485  12.478
58374W        W17811  10.265   5.833   3.838
58375W        W17812  37.498  17.649   0.880
58376W        W17813  40.463  44.326   4.635
58377W        W17814  37.859  34.090  11.371
58378W        W17815  37.894   7.792   3.336
58379W        W17816  44.270  11.677  13.852
58380W        W17817  44.419   7.777   1.725
58381W        W17818   7.712  12.244  14.960
58382W        W17819  25.191  43.881   1.313
58383W        W17820  24.680  20.702  14.889
58384W        W17821  13.656  23.209   1.885
58385W        W17822  27.483   6.693  13.833
58386W        W17823  11.836   9.740  13.878
58387W        W17824  27.571  10.321   3.790
58388W        W17825   6.366   3.842  14.947
58389W        W17826  25.201   2.816  11.107
58390W        W17827   7.417  28.556  11.438
58391W        W17828  36.915  20.646  10.993
58392W        W17829   1.434  12.773   4.126
58393W        W17830  16.633  25.964   0.429
58394W        W17831  25.648  43.843   2.731
58395W        W17832  10.811   6.803  13.411
58396W        W17833   5.708  31.134   2.870
58397W        W17834  14.702  29.050  14.401
58398W        W17835  30.089   0.770   4.639
58399W        W17836  23.023  28.453  14.920
58400W        W17837  38.359   5.226   3.313
58401W        W17838  11.848  29.086   3.355
58402W        W17839  33.398  20.180   4.703
58403W        W17840  14.737  19.539  11.917
58404W        W17841  35.542  28.489   4.749
58405W        W17842  29.525  25.065  13.460
58406W        W17843  22.706  43.313   2.337
58407W        W17844  33.592   6.371   1.254
58408W        W17845   9.784  10.791  14.404
58409W        W17846  12.220  32.121  13.510
58410W        W17847   6.718  24.482  12.089
58411W        W17848  16.640  30.144   0.934
58412W        W17849  14.737  23.117  14.300
58413W        W17850  10.651  17.576  12.545
58414W        W17851  10.301  30.413   2.375
58415W        W17852  34.555  20.551  11.045
58416W        W17853  16.801  16.637  10.417
58417W        W17854  30.991   0.296   0.883
58418W        W17855  42.296   8.677   2.371
58419W        W17856   3.924  33.033   1.389
58420W        W17857   6.821  14.305   5.085
58421W        W17858   6.275  22.054   2.219
58422W        W17859  16.689  13.806   1.442
58423W        W17860   5.696   5.197  12.509
58424W        W17861  19.058  35.524  11.371
58425W        W17862  37.412  15.302  10.952
58426W        W17863   1.298  43.415  13.532
58427W        W17864  23.164  35.082   4.763
58428W        W17865   3.790  15.719  13.448
58429W        W17866   2.872  32.894   3.352
58430W        W17867   9.321  23.057   3.804
58431W        W17868  19.737  15.304   3.255
58432W        W17869  42.026   4.342   2.287
58433W        W17870  27.953  23.144   9.545
58434W        W17871  40.415  17.746   4.148
58435W        W17872  12.328  34.378  12.953
58436W        W17873   8.752  12.236   3.260
58437W        W17874  38.863  10.707   4.605
58438W        W17875  20.081  44.854  10.981
58439W        W17876   7.333   7.179   4.275
58440W        W17877  35.361  40.434  11.923
58441W        W17878   9.804   3.448  13.995
58442W        W17879  31.038  40.837   1.726
58443W        W17880  44.792   0.952  10.474
58444W        W17881   4.274  12.705   3.800
58445W        W17882   4.884  35.552   3.156
58446W        W17883   2.230  40.835   1.442
58447W        W17884  34.428  34.905   1.703
58448W        W17885  17.112  24.039  12.427
58449W        W17886  34.014   7.243   2.838
58450W        W17887  37.541  36.515  10.558
58451W        W17888  44.294  37.050  12.492
58452W        W17889   9.680  41.786   4.349
58453W        W17890  39.879  26.198   3.807
58454W        W17891  29.080  33.532   1.879
58455W        W17892  22.083   7.198  13.834
58456W        W17893  24.609  12.357   1.867
58457W        W17894  35.518  18.150  13.438
58458W        W17895   8.815  39.816  11.400
58459W        W17896   7.370  15.162  11.856
58460W        W17897  18.781   9.792  10.550
58461W        W17898  44.459  23.150  12.474
58462W        W17899  15.281   1.258  11.096
58463W        W17900  41.027  10.191   1.828
58464W        W17901  24.592  23.545   1.903
58465W        W17902  37.852  32.961   2.319
58466W        W17903  42.284   7.175  12.449
58467W        W17904  14.588  20.121   3.848
58468W        W17905  38.370  14.265  13.546
58469W        W17906  43.946   0.962   4.274
58470W        W17907  20.626  24.089   3.158
58471W        W17908  13.249  23.624   0.281
58472W        W17909  43.012  44.372  11.101
58473W        W17910  33.041  42.288   0.775
58474W        W17911   1.781   7.764   1.245
58475W        W17912  27.029  18.729  11.410
58476W        W17913  10.703  19.704  10.529
58477W        W17914  12.173  40.797   2.676
58478W        W17915  16.190  26.684  11.458
58479W        W17916  39.882  25.067  13.529
58480W        W17917  13.171   4.269   3.850
58481W        W17918  10.344  40.859  14.333
58482W        W17919  34.079  13.208  14.028
58483W        W17920  17.652  26.687  10.939
58484W        W17921  14.174   8.232  13.416
58485W        W17922   9.322  31.521  14.857
58486W        W17923  23.162  13.600   3.832
58487W        W17924  36.899  39.370  12.380
58488W        W17925  41.035  34.077  12.827
58489W        W17926  15.205   8.330  13.921
58490W        W17927  11.185  35.558  13.377
58491W        W17928  19.774  26.578   4.712
58492W        W17929  21.700   8.328  13.375
58493W        W17930  24.567  20.198  13.847
58494W        W17931  32.458   0.304   1.296
58495W        W17932  25.109  38.993  13.894
58496W        W17933  41.862  42.787   3.339
58497W        W17934  30.502  21.612   2.232
58498W        W17935  14.815  10.147  11.035
58499W        W17936  18.727  26.561  10.109
58500W        W17937  21.636  21.058  13.905
58501W        W17938  43.832  28.979   0.359
58502W        W17939   8.196  16.184  12.004
58503W        W17940   8.238   2.906   0.805
58504W        W17941  26.207  11.640  10.511
58505W        W17942  26.064  28.067   2.877
58506W        W17943  10.384  20.254  14.772
58507W        W17944  10.192   8.257  11.919
58508W        W17945  30.146  29.924   3.657
58509W        W17946  32.467   8.225  10.544
58510W        W17947  15.125   6.703   3.768
58511W        W17948  25.182  18.691   1.907
58512W        W17949  14.213  35.951   0.363
58513W        W17950  42.011  26.053   1.897
58514W        W17951  35.894  29.954  13.031
58515W        W17952  41.805  28.981   2.842
58516W        W17953  13.175  33.527  10.092
58517W        W17954  11.216   0.895   1.793
58518W        W17955  19.711  31.991   2.407
58519W        W17956  35.023  17.579  10.574
58520W        W17957   9.758   3.305   2.750
58521W        W17958  35.421  10.310  12.876
58522W        W17959   1.866  44.338   0.834
58523W        W17960   1.374  43.853  11.907
58524W        W17961  34.087  36.901  12.553
58525W        W17962  44.505  44.487   3.195
58526W        W17963  14.663  35.971  10.571
58527W        W17964  39.440  44.472   1.379
58528W        W17965  24.639  22.690   2.781
58529W        W17966   7.753  29.570   2.238
58530W        W17967  27.458  40.534  14.994
58531W        W17968  23.241  12.186   4.713
58532W        W17969   1.780  19.197   0.852
58533W        W17970  33.519  38.388   1.819
58534W        W17971  18.050  32.962  11.091
58535W        W17972   8.391  18.204  11.532
58536W        W17973   5.242  15.804   0.285
58537W        W17974  41.414  31.479  10.436
58538W        W17975  24.007  29.475  14.294
58539W        W17976  16.145  38.897   1.434
58540W        W17977  29.633  34.026   2.853
58541W        W17978  19.142  39.814   1.263
58542W        W17979  10.787  24.490   2.380
58543W        W17980  10.152  16.628   0.957
58544W        W17981  16.155  43.383  12.575
58545W        W17982  37.383  24.530  12.884
58546W        W17983   5.285  14.643   4.315
58547W        W17984  14.617   5.341   4.817
58548W        W17985  33.425   6.270  12.937
58549W        W17986  12.142  13.782  10.645
58550W        W17987  21.753  20.238  13.479
58551W        W17988   0.923   5.809   0.443
58552W        W17989  44.809  16.152  14.400
58553W        W17990  20.764  34.039  13.018
58554W        W17991   0.407  44.434  10.981
58555W        W17992   9.766  27.664   2.663
58556W        W17993  12.198   6.792   0.350
58557W        W17994  10.752  12.135  13.052
58558W        W17995  17.073  13.303   1.798
58559W        W17996  34.516  25.989  14.458
58560W        W17997  33.407  41.812  14.839
58561W        W17998  40.838  13.669  11.610
58562W        W17999  37.437   3.361  14.900
58563W        W18000  16.133  27.466   3.669
58564W        W18001  14.759  27.172   1.277
58565W        W18002  34.999  19.207  13.998
58566W        W18003  29.921  31.072  13.886
58567W        W18004  38.887   0.493   4.816
58568W        W18005  26.672  34.534  11.118
58569W        W18006   4.735  28.602  13.319
58570W        W18007  39.505  22.006   4.246
58571W        W18008  27.957  23.534  11.976
58572W        W18009  39.020   6.378  12.346
58573W        W18010  38.845  31.540  14.792
58574W        W18011  14.822  35.475  13.408
58575W        W18012   5.705  21.609  14.344
58576W        W18013  16.283  43.422   5.684
58577W        W18014  26.640  18.114  12.395
58578W        W18015   9.389  41.493   1.897
58579W        W18016  32.948  11.706   2.711
58580W        W18017  12.773  14.327   2.773
58581W        W18018   1.888  30.136  10.463
58582W        W18019   6.752  39.463   3.373
58583W        W18020  17.678  14.246  12.514
58584W        W18021  41.980  15.284   2.720
58585W        W18022  29.604  31.618  14.287
58586W        W18023  38.499  24.066  12.571
58587W        W18024  38.851   2.467  14.873
58588W        W18025   8.890  25.573   5.303
58589W        W18026  30.654  44.861   1.712
58590W        W18027  30.123   2.795   2.309
58591W        W18028  11.131  31.518   2.321
58592W        W18029  33.023  30.162  10.964
58593W        W18030  12.193  25.474   0.471
58594W        W18031   4.706  39.929   3.317
58595W        W18032  42.420  32.567  11.872
58596W        W18033  30.953  32.084   0.823
58597W        W18034   7.232  25.062  14.314
58598W        W18035  11.373  20.113   1.917
58599W        W18036  15.673  35.366  14.842
58600W        W18037  16.792  38.826  14.993
58601W        W18038  14.095  35.078   1.336
58602W        W18039  39.871  18.136   1.803
58603W        W18040  42.856   5.350   0.759
58604W        W18041  27.476  31.630   4.310
58605W        W18042  22.692  44.383  12.399
58606W        W18043  31.108  23.038  11.584
58607W        W18044  23.516  14.159  12.824
58608W        W18045  41.430  39.839  14.343
58609W        W18046  29.579  29.538   4.676
58610W        W18047  32.632   7.686   1.220
58611W        W18048  41.978  32.039   3.293
58612W        W18049  20.132  41.845   1.448
58613W        W18050  11.766  31.953   4.809
58614W        W18051  17.619   5.277   3.189
58615W        W18052  37.991  40.416   1.885
58616W        W18053  14.095  28.119  14.951
58617W        W18054  30.951  16.632  12.012
58618W        W18055  18.203  16.572  13.351
58619W        W18056  21.694  14.814  14.309
58620W        W18057  28.599  31.413  14.867
58621W        W18058  22.048  34.473   4.719
58622W        W18059  38.482  28.582  12.914
58623W        W18060  38.020  38.567   5.168
58624W        W18061  24.547  11.768   2.862
58625W        W18062   5.839  23.671   0.453
58626W        W18063  19.675  38.524   0.834
58627W        W18064  37.858  21.137  11.483
58628W        W18065   7.760  13.124  11.567
58629W        W18066   9.239   9.667   3.780
58630W        W18067  42.485  39.953  10.058
58631W        W18068  17.115  11.822   3.277
58632W        W18069  44.408  40.395  10.905
58633W        W18070  24.625  27.490   0.346
58634W        W18071  24.621  13.178   0.297
58635W        W18072   4.383  42.971  11.403
58636W        W18073  17.638   0.403   3.695
58637W        W18074   1.269  21.193   3.707
58638W        W18075  31.050   2.419  13.453
58639W        W18076  39.947  23.667   3.815
58640W        W18077  33.540   5.323   2.720
58641W        W18078  36.405  33.092  10.933
58642W        W18079   6.921   7.706   4.259
58643W        W18080  32.087  21.549   3.832
58644W        W18081  18.547   8.683  11.523
58645W        W18082   6.680  21.568  12.860
58646W        W18083  43.957  27.593   0.478
58647W        W18084  22.229  21.243  10.948
58648W        W18085  37.040  30.587  11.958
58649W        W18086  25.039  10.692  12.830
58650W        W18087  43.949  23.165  12.413
58651W        W18088   8.778   6.308   4.800
58652W        W18089  44.942  13.616  11.479
58653W        W18090  18.233  39.326   0.437
58654W        W18091   5.928   3.871  11.415
58655W        W18092  32.966  11.660   1.844
58656W        W18093  22.739   8.400   4.603
58657W        W18094  37.053  39.990   1.734
58658W        W18095  17.744  42.797  14.358
58659W        W18096  16.129  18.112  13.927
58660W        W18097  33.531  33.551  14.837
58661W        W18098  10.302  25.129   1.250
58662W        W18099  32.044  42.330  14.851
58663W        W18100  33.104  41.292  12.344
58664W        W18101   4.865  35.864  10.022
58665W        W18102  35.970  20.056   5.187
58666W        W18103  29.653  22.506   1.717
58667W        W18104  10.733  29.633  13.980
58668W        W18105  17.165  43.969   1.316
58669W        W18106  26.007  42.523   0.780
58670W        W18107  30.163  19.618  14.320
58671W        W18108  21.676  34.594   1.827
58672W        W18109  13.767  29.991   4.798
58673W        W18110  25.166  17.590  12.536
58674W        W18111  14.805  24.991   4.140
58675W        W18112  21.028   3.277   0.481
58676W        W18113  34.048  35.552   3.861
58677W        W18114  32.392  27.532  12.891
58678W        W18115  41.997  26.099   2.262
58679W        W18116  24.601  42.961  12.436
58680W        W18117   4.889  16.637   4.781
58681W        W18118  35.430   5.879  11.375
58682W        W18119  11.657   7.756   1.703
58683W        W18120  27.155   5.874  12.976
58684W        W18121  38.943  40.900   4.813
58685W        W18122  33.565  34.474  13.011
58686W        W18123  41.851  11.697  14.275
58687W        W18124   2.891  10.304  10.537
58688W        W18125  10.301  20.754   4.260
58689W        W18126  16.092  41.970  11.415
58690W        W18127  44.845  21.029   1.854
58691W        W18128   9.276  27.074   0.257
58692W        W18129  35.008  38.853   0.392
58693W        W18130  28.572  40.481  12.370
58694W        W18131   0.282  25.209  14.952
58695W        W18132  25.530  29.606  10.977
58696W        W18133  24.495  37.336  11.058
58697W        W18134  35.378  26.649   1.240
58698W        W18135  40.826  37.924   5.713
58699W        W18136   3.856   7.295   1.239
58700W        W18137  33.972  33.129   0.965
58701W        W18138  44.834  19.721  10.477
58702W        W18139  41.822  10.362   2.895
58703W        W18140  28.175   8.684   2.895
58704W        W18141  26.153  34.870  14.469
58705W        W18142  10.322  23.564   4.770
58706W        W18143  28.558  14.744   2.715
58707W        W18144  41.347   4.926  10.973
58708W        W18145  12.141  18.159  11.103
58709W        W18146  32.057  23.012  11.961
58710W        W18147  18.288   3.733  12.489
58711W        W18148   2.910  31.063   4.314
58712W        W18149  14.740   4.257  12.960
58713W        W18150  41.313  17.571   3.752
58714W        W18151  44.327   4.350  11.012
58715W        W18152   6.709   7.842   0.287
58716W        W18153  31.573  32.491   3.382
58717W        W18154  37.376  23.154  12.934
58718W        W18155  38.460  23.641  11.000
58719W        W18156  34.943  16.754  13.815
58720W        W18157  36.398  11.212  13.965
58721W        W18158  35.546  44.269   3.228
58722W        W18159   0.849   8.779   3.363
58723W        W18160  22.079  24.013  14.879
58724W        W18161  28.555   2.263  14.829
58725W        W18162  20.237   0.315  12.370
58726W        W18163  24.129  17.179   9.990
58727W        W18164   0.870  19.139   0.338
58728W        W18165  38.461  27.619  11.447
58729W        W18166  31.587   8.813   3.854
58730W        W18167   9.647  26.684  10.624
58731W        W18168  22.135  37.472   1.376
58732W        W18169  33.109  23.149  11.445
58733W        W18170   9.237  28.675  12.349
58734W        W18171   6.843   9.150   2.795
58735W        W18172  40.843  15.132   4.224
58736W        W18173  17.187  39.847   3.668
58737W        W18174   8.221  16.811   4.755
58738W        W18175  13.740  34.050  10.489
58739W        W18176   7.858  41.025  14.772
58740W        W18177  10.230  10.708   5.255
58741W        W18178  33.943  28.674   0.818
58742W        W18179  27.075  36.844   2.889
58743W        W18180   6.357  39.988   4.655
58744W        W18181  11.689  11.838   1.771
58745W        W18182  28.149  26.489  13.501
58746W        W18183  15.820  14.689  11.924
58747W        W18184  10.210  38.832  11.566
58748W        W18185  39.032  22.615  10.435
58749W        W18186  24.195  34.892   3.854
58750W        W18187  33.612  20.745  13.514
58751W        W18188  15.222  32.098   4.132
58752W        W18189  36.538  37.841  12.881
58753W        W18190  43.876  40.874  14.840
58754W        W18191  27.984  19.250  11.111
58755W        W18192  10.175   3.240   0.963
58756W        W18193  29.990  37.558  13.367
58757W        W18194  44.349  14.623   1.763
58758W        W18195  27.955  34.551  10.517
58759W        W18196  44.897  18.075   0.931
58760W        W18197   4.259  22.582  10.905
58761W        W18198  10.239  10.668  11.422
58762W        W18199   3.347  19.570   1.878
58763W        W18200  38.076  42.942  12.549
58764W        W18201  30.014   1.791  11.530
58765W        W18202   4.789  20.243   0.934
58766W        W18203  23.573  42.975   4.344
58767W        W18204   9.656  25.125   2.816
58768W        W18205  17.279  40.385   3.862
58769W        W18206  33.414   0.400   4.175
58770W        W18207   9.163  15.624  14.860
58771W        W18208   8.224  10.638   4.599
58772W        W18209  23.730  44.334  11.874
58773W        W18210  10.675  21.531   2.773
58774W        W18211  44.468  17.677  11.948
58775W        W18212  26.087   1.898  14.444
58776W        W18213  38.512   6.289  10.596
58777W        W18214  11.627  27.530  10.946
58778W        W18215  42.009  42.290  12.090
58779W        W18216   5.287  44.840  14.822
58780W        W18217   5.926   4.380   0.336
58781W        W18218  14.759  21.547   2.752
58782W        W18219  14.108  36.856   0.470
58783W        W18220  40.021  40.500   1.304
58784W        W18221   2.795  18.082   2.744
58785W        W18222   0.318  13.730   0.392
58786W        W18223  42.398  43.389  10.574
58787W        W18224   7.176  36.409  10.503
58788W        W18225  29.937   0.358   1.282
58789W        W18226   2.427   6.243  11.438
58790W        W18227   2.374  44.480  10.576
58791W        W18228  22.073  30.935   1.713
58792W        W18229  10.760  39.383  13.459
58793W        W18230  19.264  19.261   1.771
58794W        W18231  18.253  13.623  11.427
58795W        W18232  17.248   7.690  14.281
58796W        W18233  16.196  44.313   0.288
58797W        W18234  29.944   9.156  14.872
58798W        W18235   4.840   3.228  14.900
58799W        W18236  26.575  18.720  14.407
58800W        W18237  34.076  35.912   4.238
58801W        W18238  37.553  42.920  11.042
58802W        W18239  17.642  11.807  13.375
58803W        W18240  44.836  33.400  12.979
58804W        W18241   3.349  36.970  11.041
58805W        W18242  20.749  19.749  11.058
58806W        W18243  17.209   1.393  13.548
58807W        W18244  26.493  37.383   1.319
58808W        W18245  42.517   4.366   3.732
58809W        W18246  44.765   1.915  13.861
58810W        W18247   9.388  20.609  12.419
58811W        W18248  40.537   7.234   4.310
58812W        W18249   0.310  31.508  11.996
58813W        W18250  40.024   6.807  12.553
58814W        W18251  32.621  17.722   2.790
58815W        W18252  14.796  26.127   4.247
58816W        W18253  18.608  27.992  10.985
58817W        W18254  29.970  10.869  10.511
58818W        W18255   3.290   3.280  11.129
58819W        W18256   1.962  27.956   5.268
58820W        W18257  34.373  36.985   1.267
58821W        W18258  43.283  42.924  10.455
58822W        W18259  22.050  16.192  13.957
58823W        W18260  26.642  21.703   9.670
58824W        W18261  26.090  27.078  13.927
58825W        W18262  30.444  30.164   2.699
58826W        W18263  27.177  31.082  12.853
58827W        W18264  31.572  35.404  14.375
58828W        W18265   3.729  41.404  14.309
58829W        W18266  25.077  37.434   5.700
58830W        W18267  20.618  35.385   1.233
58831W        W18268   5.428  38.360  11.080
58832W        W18269  15.642  22.155  14.820
58833W        W18270  37.365  39.922   0.960
58834W        W18271  12.187  28.608   1.740
58835W        W18272   5.715  13.350   3.163
58836W        W18273  27.669  18.167  13.367
58837W        W18274   8.786  25.488  12.949
58838W        W18275   6.321  23.544   3.824
58839W        W18276  21.107   9.852  11.062
58840W        W18277  20.569  43.837   4.130
58841W        W18278   8.849   2.267  14.507
58842W        W18279  32.626  44.808   1.411
58843W        W18280  14.335  30.060  14.006
58844W        W18281  22.082  32.899   2.403
58845W        W18282  18.721  29.473  10.496
58846W        W18283  30.005  33.484   1.876
58847W        W18284  32.571  27.691  14.817
58848W        W18285  25.677  16.627   0.296
58849W        W18286   1.477  39.868  10.976
58850W        W18287  40.424  43.931  14.354
58851W        W18288  26.091  25.695   4.284
58852W        W18289  22.235  21.092   0.343
58853W        W18290  15.659   5.343  13.471
58854W        W18291  10.364  30.007   4.766
58855W        W18292   9.727  21.117   0.856
58856W        W18293  12.814  42.416   1.807
58857W        W18294  10.805  18.255  12.863
58858W        W18295  37.366  10.308   4.191
58859W        W18296   7.846  21.146  14.892
58860W        W18297  40.841   6.904   2.900
58861W        W18298  26.623   9.274   2.351
58862W        W18299  33.552  26.147   4.140
58863W        W18300  24.684  27.097   3.850
58864W        W18301  19.697   1.386   3.171
58865W        W18302  15.686  31.070   1.705
58866W        W18303  43.971   5.887  12.504
58867W        W18304  34.950   8.654  12.442
58868W        W18305  39.472  20.685  11.512
58869W        W18306  12.311  14.133   3.856
58870W        W18307   8.685   4.732   0.885
58871W        W18308  20.627  42.971  14.502
58872W        W18309   4.428  23.202  13.829
58873W        W18310   1.949   6.387  10.596
58874W        W18311  14.306   9.816  11.433
58875W        W18312  40.428  10.703  10.410
58876W        W18313  40.010  35.477  14.376
58877W        W18314  33.445  28.444  14.913
58878W        W18315  23.607   2.898   3.861
58879W        W18316  34.411  19.258   0.805
58880W        W18317  15.756   2.236   2.315
58881W        W18318  38.022  43.405   4.636
58882W        W18319  19.554  41.939   2.674
58883W        W18320  11.719  39.443  11.111
58884W        W18321  37.525   6.693   1.240
58885W        W18322  28.999  34.911   3.185
58886W        W18323  39.374  29.546  12.827
58887W        W18324  17.179  33.537  10.050
58888W        W18325  28.011   1.820   9.940
58889W        W18326   5.413  20.200  11.988
58890W        W18327  43.973  19.767   2.227
58891W        W18328  28.034   2.960   0.883
58892W        W18329  25.205  40.423  13.540
58893W        W18330   6.792  22.601  14.763
58894W        W18331   2.904  20.755   0.926
58895W        W18332   6.898  23.600   3.266
58896W        W18333   0.983  34.444   3.166
58897W        W18334   6.189  22.097  13.367
58898W        W18335  29.981   4.234   4.640
58899W        W18336  37.339  39.019   4.749
58900W        W18337   1.748   9.826   5.197
58901W        W18338  43.957  34.095   0.435
58902W        W18339   8.196  27.018   3.171
58903W        W18340  32.444  12.644   2.184
58904W        W18341  24.083   3.811   3.230
58905W        W18342  38.362  19.120   2.288
58906W        W18343  35.473  23.020  14.836
58907W        W18344  20.687  13.256  12.062
58908W        W18345  29.133  34.867   4.681
58909W        W18346  24.528  31.636   1.361
58910W        W18347   4.410  31.633  14.930
58911W        W18348  23.669  29.091   3.667
58912W        W18349  25.077  22.708   3.372
58913W        W18350  37.903  30.034   2.210
58914W        W18351  40.921   2.811   0.382
58915W        W18352  44.357  24.511   0.466
58916W        W18353  40.348  39.823   3.300
58917W        W18354  13.717  10.162  13.034
58918W        W18355  25.471  28.475  14.848
58919W        W18356  13.621  32.591  11.521
58920W        W18357  35.428   3.923  14.483
58921W        W18358  28.028  40.977   1.215
58922W        W18359  21.589  11.653  13.516
58923W        W18360  37.483  27.445  10.541
58924W        W18361  40.942  35.546  12.349
58925W        W18362  33.452  33.531  10.437
58926W        W18363  10.365  13.673   2.827
58927W        W18364  32.015  36.991   2.316
58928W        W18365  17.589  42.349   3.812
58929W        W18366   9.387  10.263  11.103
58930W        W18367   3.313  13.715  12.066
58931W        W18368  34.106  24.499   1.379
58932W        W18369   3.805  44.757  10.501
58933W        W18370  19.755  12.123  12.847
58934W        W18371  17.173  27.614  13.368
58935W        W18372  10.312  31.910   3.779
58936W        W18373   0.465   4.297   4.799
58937W        W18374  13.791   1.343   4.836
58938W        W18375  39.060  38.461  12.549
58939W        W18376  20.722  37.385   3.842
58940W        W18377  31.609  40.958   3.314
58941W        W18378  37.882   8.892  13.513
58942W        W18379  22.073  35.977   2.330
58943W        W18380  17.668  31.090  12.533
58944W        W18381  42.987   0.260  12.020
58945W        W18382  12.204  12.725   0.308
58946W        W18383  18.121  15.116  14.764
58947W        W18384  23.990  43.447   0.911
58948W        W18385  28.485   9.231   0.370
58949W        W18386  24.554   2.853  12.909
58950W        W18387  41.000  28.008   3.804
58951W        W18388  20.730  32.585   1.445
58952W        W18389  44.269  38.522  10.437
58953W        W18390  16.768  14.719   2.824
58954W        W18391  29.994   9.666  10.638
58955W        W18392  23.178  33.398  14.359
58956W        W18393  19.584  30.025  10.558
58957W        W18394  19.179  30.975   1.839
58958W        W18395  10.244  30.082   2.321
58959W        W18396  10.225  38.422  11.381
58960W        W18397  37.075   5.205  11.115
58961W        W18398   0.914  29.008   0.761
58962W        W18399   6.864  31.065   2.688
58963W        W18400  35.864  37.954   1.695
58964W        W18401   8.351  30.504   0.277
58965W        W18402  24.173  10.651   4.122
58966W        W18403  14.280  23.734  11.535
58967W        W18404  36.927   8.815  13.835
58968W        W18405  11.698  10.382  11.406
58969W        W18406  11.820  38.381  11.435
58970W        W18407  42.406  24.207  12.889
58971W        W18408   7.747  33.489   3.719
58972W        W18409   3.238  34.444  14.792
58973W        W18410   5.907  28.146  10.904
58974W        W18411  10.772  38.412   0.387
58975W        W18412  29.453  40.357  11.032
58976W        W18413  33.515  34.390  12.398
58977W        W18414  11.214  42.388  14.864
58978W        W18415   5.431  37.455  14.878
58979W        W18416  23.996  30.136  11.533
58980W        W18417  34.118  15.626  13.002
58981W        W18418  42.411  32.989  10.917
58982W        W18419  27.449   8.262  13.892
58983W        W18420  41.832  10.803  11.968
58984W        W18421  28.103  40.467   0.367
58985W        W18422  14.768  11.360  13.439
58986W        W18423   2.805  42.777   0.317
58987W        W18424   8.253  13.640   1.389
58988W        W18425  29.108   9.870   1.324
58989W        W18426  33.066  15.790   2.284
58990W        W18427  19.554  16.138   1.249
58991W        W18428   3.714   9.153  13.523
58992W        W18429  39.398  26.597  12.044
58993W        W18430  17.212  39.037   4.785
58994W        W18431  12.856  30.489   4.705
58995W        W18432   9.880   1.312   3.672
58996W        W18433  34.935  33.417   4.651
58997W        W18434  32.490  44.856  11.453
58998W        W18435  28.991   0.363  11.962
58999W        W18436  29.460  38.484   2.757
59000W        W18437  19.277   5.871   3.239
59001W        W18438  30.969  44.385  12.856
59002W        W18439  32.007  21.128   1.880
59003W        W18440   4.929  31.943   5.233
59004W        W18441  15.205   1.857  12.458
59005W        W18442  33.477   7.864  11.127
59006W        W18443  37.408  12.359   0.813
59007W        W18444  19.760   8.711   2.241
59008W        W18445  17.216  38.495   3.697
59009W        W18446  40.889   5.249   1.914
59010W        W18447   0.971  26.965  12.948
59011W        W18448  21.033   1.351  13.504
59012W        W18449   1.882   2.864   2.668
59013W        W18450  25.086   0.272  13.798
59014W        W18451  16.303   5.812  12.003
59015W        W18452  42.837  22.219   0.388
59016W        W18453  26.173  43.412  10.598
59017W        W18454  35.475  19.556  12.490
59018W        W18455  19.722  11.174   2.782
59019W        W18456  10.261  23.511   2.214
59020W        W18457  36.893  24.479   4.294
59021W        W18458  23.143  34.963   3.358
59022W        W18459   0.746  25.012   0.726
59023W        W18460   9.239   1.863  13.875
59024W        W18461  26.571  16.168  14.305
59025W        W18462  22.651   6.897   3.735
59026W        W18463  42.288  39.918   2.347
59027W        W18464  10.228  10.740   3.649
59028W        W18465  13.805  26.072   1.213
59029W        W18466  22.586   4.235   4.270
59030W        W18467  10.692  42.397   1.826
59031W        W18468  36.520  37.345   3.802
59032W        W18469  32.417   6.208   2.188
59033W        W18470  36.096   4.940   1.735
59034W        W18471   7.381   2.764   4.203
59035W        W18472  28.502  28.558   0.326
59036W        W18473  10.728   6.910  10.538
59037W        W18474   3.414  12.213   1.798
59038W        W18475  27.972  17.085  14.811
59039W        W18476  22.226  36.066  10.540
59040W        W18477   2.356  10.317  13.973
59041W        W18478  39.027  36.059   4.293
59042W        W18479   7.248  15.765   1.791
59043W        W18480  29.535  25.084  13.022
59044W        W18481  36.460  18.681  12.074
59045W        W18482  30.004  38.387   4.764
59046W        W18483  25.662  13.226  13.427
59047W        W18484  26.951   2.812   1.212
59048W        W18485  10.198  22.079   4.734
59049W        W18486  30.630   2.742   3.326
59050W        W18487  34.550  33.974  13.385
59051W        W18488  16.154  43.369   5.168
59052W        W18489   6.264  31.145  11.055
59053W        W18490   4.781  20.536  11.077
59054W        W18491  41.030   1.432   4.816
59055W        W18492  25.529  16.184  13.414
59056W        W18493  17.246  10.718   3.826
59057W        W18494  12.639  12.686  11.539
59058W        W18495  31.131  36.907   3.242
59059W        W18496   3.792  33.011  12.569
59060W        W18497  36.842  17.253  12.417
59061W        W18498   3.274  38.957  10.434
59062W        W18499  11.759  28.999  11.951
59063W        W18500   5.784  26.017   1.426
59064W        W18501  29.569  13.345  10.942
59065W        W18502  13.808  40.958   0.784
59066W        W18503  33.473  24.198   3.359
59067W        W18504  22.231  20.739   2.383
59068W        W18505  37.913   6.892  13.518
59069W        W18506  25.570  27.021  13.992
59070W        W18507  33.433  23.089  11.579
59071W        W18508  30.133   4.715   3.318
59072W        W18509  41.925  41.410  13.354
59073W        W18510   5.885  36.864  12.969
59074W        W18511  40.938  17.197  14.409
59075W        W18512  24.207  41.362  14.856
59076W        W18513  42.975  11.225  13.541
59077W        W18514  13.339  36.052  13.899
59078W        W18515  32.545  43.833   1.422
59079W        W18516   5.310  19.163  12.353
59080W        W18517  16.137  15.586  14.766
59081W        W18518  39.861   6.342   0.831
59082W        W18519  21.198   2.450   0.731
59083W        W18520  40.516   3.773  13.036
59084W        W18521   0.889   0.860   4.828
59085W        W18522  39.061  19.644  11.610
59086W        W18523  10.381  13.245   0.960
59087W        W18524  12.296   1.289   1.355
59088W        W18525  28.029  42.384  11.917
59089W        W18526  27.466  18.114  12.869
59090W        W18527   6.268  17.115  10.008
59091W        W18528  27.965  14.683   3.749
59092W        W18529  16.769  28.520  11.114
59093W        W18530  42.814  17.600   1.331
59094W        W18531  42.937   4.798  13.443
59095W        W18532   4.801  22.037  11.569
59096W        W18533  24.064   6.686   0.327
59097W        W18534  43.282  20.069  12.442
59098W        W18535  30.085  26.679   1.918
59099W        W18536  18.225  17.269   9.519
59100W        W18537  20.534  20.179  10.946
59101W        W18538  33.103  22.571   2.703
59102W        W18539  17.125  28.527  11.055
59103W        W18540  14.314  36.524   4.296
59104W        W18541  30.608  12.338  12.075
59105W        W18542  39.825  19.076   4.686
59106W        W18543   3.736  26.679   0.918
59107W        W18544  23.992   5.202   0.389
59108W        W18545  33.121  43.946  14.369
59109W        W18546  38.364  11.641   4.250
59110W        W18547  12.177  12.823   1.930
59111W        W18548  40.919  15.592  12.430
59112W        W18549  40.515   2.376   2.379
59113W        W18550  44.887   8.804  11.584
59114W        W18551   8.735   1.436   3.857
59115W        W18552  32.610  18.773   4.632
59116W        W18553  25.539  20.586  11.520
59117W        W18554  21.621  18.715   4.811
59118W        W18555  20.744  35.057   3.855
59119W        W18556   1.870  26.511   0.838
59120W        W18557  19.153  19.683  13.336
59121W        W18558  39.474   5.399  13.487
59122W        W18559  20.591  42.001   1.414
59123W        W18560  20.072  30.610   3.803
59124W        W18561  38.863   8.331   0.376
59125W        W18562  33.485  37.540   3.858
59126W        W18563   3.225  34.522  11.462
59127W        W18564  11.720   0.752   3.240
59128W        W18565   7.369  20.095  12.846
59129W        W18566  29.568  32.411  14.396
59130W        W18567  23.027  37.380   4.603
59131W        W18568  31.031  16.806   0.882
59132W        W18569  21.630  30.928   1.380
59133W        W18570  20.071  34.404   5.294
59134W        W18571   2.296  14.258  12.400
59135W        W18572  24.601  11.247   1.331
59136W        W18573   5.336  36.865  11.096
59137W        W18574  15.821  14.227  10.614
59138W        W18575  44.283  38.827  10.014
59139W        W18576  44.789   4.810  13.849
59140W        W18577   5.218  14.138   5.108
59141W        W18578  15.164  38.064  11.468
59142W        W18579  40.453  16.653  13.384
59143W        W18580  23.009  36.499  10.916
59144W        W18581  24.608   7.339  14.957
59145W        W18582   6.772  20.690  14.333
59146W        W18583  32.494   4.257  11.102
59147W        W18584  22.165  27.549   2.662
59148W        W18585   3.241  11.148  13.939
59149W        W18586  40.824   4.233  12.531
59150W        W18587  15.640  18.606  10.477
59151W        W18588  11.226  41.910   4.736
59152W        W18589  21.728  44.948  13.411
59153W        W18590   3.730  24.578  13.485
59154W        W18591  22.204  41.895  13.862
59155W        W18592  41.372  42.946  13.987
59156W        W18593  23.079  16.759   4.664
59157W        W18594  41.449  20.154  13.336
59158W        W18595  43.516  39.994   1.768
59159W        W18596  39.988  41.360  13.029
59160W        W18597   1.413  23.536   0.268
59161W        W18598  27.143  26.999   0.790
59162W        W18599   9.241  16.086   4.663
59163W        W18600   4.906  10.642  10.623
59164W        W18601  39.322   1.971   4.330
59165W        W18602  39.842  13.206  13.841
59166W        W18603  10.358  31.537   3.214
59167W        W18604  11.704   6.728   4.653
59168W        W18605  25.682   0.470   1.819
59169W        W18606  44.355  18.768   3.859
59170W        W18607  13.826  23.108  12.579
59171W        W18608  34.436  17.606   3.209
59172W        W18609  38.821  31.549  11.016
59173W        W18610   3.757  37.004  13.536
59174W        W18611  31.108  39.408  10.411
59175W        W18612   2.737  39.040  12.973
59176W        W18613  26.561  32.447   4.668
59177W        W18614  22.520   6.251   3.640
59178W        W18615  28.964  36.566  12.045
59179W        W18616  18.584   6.866   0.778
59180W        W18617  10.241  44.905  11.963
59181W        W18618  43.984  14.227  12.399
59182W        W18619  36.017   1.855   2.889
59183W        W18620  20.039  39.905   3.339
59184W        W18621  38.999   8.701  10.419
59185W        W18622  22.169  11.714   4.764
59186W        W18623  18.627  31.459   0.966
59187W        W18624  16.305  35.891  10.914
59188W        W18625  25.197  11.819   3.188
59189W        W18626  26.166  23.089  12.981
59190W        W18627   7.202  23.093  11.450
59191W        W18628  39.393  32.056   2.203
59192W        W18629  36.842  15.808   3.233
59193W        W18630  31.492  40.405  12.565
59194W        W18631  39.399  37.489  14.511
59195W        W18632  15.775  17.639  14.281
59196W        W18633  25.605  38.384   1.904
59197W        W18634   1.397  13.816   3.247
59198W        W18635  32.493  37.893  13.494
59199W        W18636  21.572  13.734  12.896
59200W        W18637   5.226  27.173   1.704
59201W        W18638  36.569   3.433  12.867
59202W        W18639  20.723  13.169  13.530
59203W        W18640   0.454  44.398   0.744
59204W        W18641  35.414  42.440   4.241
59205W        W18642  30.985  43.400  12.381
59206W        W18643  42.878  11.325   9.963
59207W        W18644   5.687  28.545  13.810
59208W        W18645   6.771   2.919  13.899
59209W        W18646  35.465  29.611  12.856
59210W        W18647  25.657  27.964  12.997
59211W        W18648  32.932   2.441   3.376
59212W        W18649   5.696  25.967   4.252
59213W        W18650  23.039  38.481  11.467
59214W        W18651  13.324  23.099  12.828
59215W        W18652  13.666   2.418   4.161
59216W        W18653  30.584   2.429  11.490
59217W        W18654  29.136  22.572   4.642
59218W        W18655   4.744  39.317   2.747
59219W        W18656   9.338   0.916  11.073
59220W        W18657  12.225  43.776   0.403
59221W        W18658   7.255   6.226   1.781
59222W        W18659  16.591  40.855   0.396
59223W        W18660  21.039  36.367  14.371
59224W        W18661  28.988  26.654   0.890
59225W        W18662  35.470  13.788  13.361
59226W        W18663  18.200  13.682   3.231
59227W        W18664  29.471   4.790  12.467
59228W        W18665  21.162  38.950   0.362
59229W        W18666   2.798  18.745   3.693
59230W        W18667  21.721   0.783   0.893
59231W        W18668  18.234  36.005   0.747
59232W        W18669  16.808  28.536   3.298
59233W        W18670  20.606   2.322   0.787
59234W        W18671  38.912   2.260   0.298
59235W        W18672  33.986   7.198   4.300
59236W        W18673   0.845  11.865   2.213
59237W        W18674   9.678  42.945   0.883
59238W        W18675   7.351  18.270   2.338
59239W        W18676   5.333  36.575   0.777
59240W        W18677  11.693  20.756   0.796
59241W        W18678  28.015  15.131   2.262
59242W        W18679  21.619  12.764  12.370
59243W        W18680  31.610  20.608  12.568
59244W        W18681  33.028   1.385  13.354
59245W        W18682  37.848   7.733  12.348
59246W        W18683  36.059  20.696   2.786
59247W        W18684  12.153  30.000   1.807
59248W        W18685  34.595  22.127   4.800
59249W        W18686   9.159  32.464  11.094
59250W        W18687  28.634  22.718  12.852
59251W        W18688  32.062  19.568   4.729
59252W        W18689   3.889  33.093   0.952
59253W        W18690  23.079  44.883   1.312
59254W        W18691  31.961  33.956  11.037
59255W        W18692   9.811  26.112   1.893
59256W        W18693  28.463  15.807   3.353
59257W        W18694   3.787  43.393   4.814
59258W        W18695  44.790  26.967   1.233
59259W        W18696  19.123  19.270  14.467
59260W        W18697  29.961  21.094  11.510
59261W        W18698  32.450  30.943  12.431
59262W        W18699  22.225  13.155  12.913
59263W        W18700  26.043   1.909  13.955
59264W        W18701  23.550  11.818   1.714
59265W        W18702  26.527  34.389  11.592
59266W        W18703   6.261  33.947   1.749
59267W        W18704  24.026  13.757  12.087
59268W        W18705  11.623  30.441   3.707
59269W        W18706  25.988  36.989  13.468
59270W        W18707  41.800   3.758   4.226
59271W        W18708  33.409  38.923  11.608
59272W        W18709  25.655   5.311  11.557
59273W        W18710   2.844  15.630  11.405
59274W        W18711  11.251  23.558  12.446
59275W        W18712  14.291  30.994  10.458
59276W        W18713  41.348  31.624  14.804
59277W        W18714  19.149   6.699   0.849
59278W        W18715  35.392  35.989  13.353
59279W        W18716  40.982  21.521   4.751
59280W        W18717  43.422  11.132  14.347
59281W        W18718  18.256   8.292   1.806
59282W        W18719  32.580  35.457  11.606
59283W        W18720  39.845   8.330  11.546
59284W        W18721  31.014   0.489  14.808
59285W        W18722   8.785  37.023  14.889
59286W        W18723  10.707  44.804   0.866
59287W        W18724  27.981  41.367  14.406
59288W        W18725  12.270   1.895  11.115
59289W        W18726  30.629   9.256   1.422
59290W        W18727  44.283  29.075   3.254
59291W        W18728  30.592  10.680   4.226
59292W        W18729  10.263   3.877  11.947
59293W        W18730  41.936  17.564  11.406
59294W        W18731   1.430  31.014   0.727
59295W        W18732  31.043  10.677  11.421
59296W        W18733  43.459  15.150  12.057
59297W        W18734   6.786  30.995  11.079
59298W        W18735  10.244  37.344   3.362
59299W        W18736  39.383  16.216   3.187
59300W        W18737  11.778  20.720   3.834
59301W        W18738  38.066  25.688   2.833
59302W        W18739  35.477  15.741   1.320
59303W        W18740  23.622  24.494   1.730
59304W        W18741   8.857  11.807   1.915
59305W        W18742  29.554  34.400  13.915
59306W        W18743  19.767  31.541  10.624
59307W        W18744  11.259  19.140  13.878
59308W        W18745  44.475  26.634  11.119
59309W        W18746  15.749  27.535   3.871
59310W        W18747   3.882  30.050   2.902
59311W        W18748  22.745  36.979   4.231
59312W        W18749  14.708  33.971   1.704
59313W        W18750   8.831  42.404  13.001
59314W        W18751   5.927  12.290   0.918
59315W        W18752  26.634  38.004  13.832
59316W        W18753  28.060  18.164  12.482
59317W        W18754  19.080  22.009   3.381
59318W        W18755   8.895  12.288  14.014
59319W        W18756  14.327  12.751  13.052
59320W        W18757  21.646  33.039  12.091
59321W        W18758  39.545  43.451  12.009
59322W        W18759  26.576  43.485   0.460
59323W        W18760  13.701  15.180   3.780
59324W        W18761   0.294  32.477   1.426
59325W        W18762  16.291  16.177  10.027
59326W        W18763   4.725  13.834  11.575
59327W        W18764  10.747  35.035  11.385
59328W        W18765  19.593   2.898   3.784
59329W        W18766   2.350  10.367   0.799
59330W        W18767   3.827  17.784   0.847
59331W        W18768  41.300  44.318   4.835
59332W        W18769  17.245   9.281  11.529
59333W        W18770  39.440  16.771  14.391
59334W        W18771  12.265  11.857  14.322
59335W        W18772  32.885  26.167   0.478
59336W        W18773  39.534   9.172   3.753
59337W        W18774  20.541  10.745   4.758
59338W        W18775  21.605  37.031   4.679
59339W        W18776   3.313  19.125   2.786
59340W        W18777   9.781  38.067  10.482
59341W        W18778   1.280  36.052  10.488
59342W        W18779   9.342  26.691  12.844
59343W        W18780  26.985   4.914  10.571
59344W        W18781  41.950  13.633   4.259
59345W        W18782  29.651  18.070   1.876
59346W        W18783  23.234  12.789  13.901
59347W        W18784  19.115   1.343  11.437
59348W        W18785  40.890  30.527   2.667
59349W        W18786  15.142  36.064   2.239
59350W        W18787  29.655  21.724  11.939
59351W        W18788   4.746  11.224  12.449
59352W        W18789   1.949  35.886  11.013
59353W        W18790  13.144  34.410  13.462
59354W        W18791  28.510  39.464   3.774
59355W        W18792  29.974  25.493  10.415
59356W        W18793  15.671  11.662   0.784
59357W        W18794  37.068   9.217   3.701
59358W        W18795  40.847  38.472   0.747
59359W        W18796  37.002  44.958  14.850
59360W        W18797  31.140  34.949   0.846
59361W        W18798  34.984   5.367   4.704
59362W        W18799  30.909   7.286   2.192
59363W        W18800  28.568  12.666   0.741
59364W        W18801   2.931  44.992   1.848
59365W        W18802   1.386  42.018   1.237
59366W        W18803  11.725  23.138  12.531
59367W        W18804  10.732   8.320  11.913
59368W        W18805  38.880  22.693   1.352
59369W        W18806   0.262  23.638   3.846
59370W        W18807  41.033   2.289   2.729
59371W        W18808  16.654   9.810   4.161
59372W        W18809  12.119  30.415   0.300
59373W        W18810  39.914  12.617  14.352
59374W        W18811   3.743  10.272  10.003
59375W        W18812  22.626  35.979   9.951
59376W        W18813   1.877   0.846   3.202
59377W        W18814   3.785  20.188   2.861
59378W        W18815  36.577  28.592   1.387
59379W        W18816  30.037  15.746   3.658
59380W        W18817  42.347  41.830  11.119
59381W        W18818  26.106  38.454   0.331
59382W        W18819  26.195  44.400  11.906
59383W        W18820   9.189  17.079  12.026
59384W        W18821  13.777  44.879   0.294
59385W        W18822   5.744  43.933   1.399
59386W        W18823   9.222  44.358  10.969
59387W        W18824  22.632  39.824  12.570
59388W        W18825  32.623  42.481   3.856
59389W        W18826  24.131  20.218  12.837
59390W        W18827  43.985   8.207  13.310
59391W        W18828   9.798  42.000  10.412
59392W        W18829  11.181  26.999   3.328
59393W        W18830   9.655  34.025  14.847
59394W        W18831  12.809  18.559  11.981
59395W        W18832  22.083  13.151  11.016
59396W        W18833  40.352  32.950  11.573
59397W        W18834  41.000   1.441  11.047
59398W        W18835  31.942  28.113  10.592
59399W        W18836  13.815  25.480  14.866
59400W        W18837  22.141  23.006  13.943
59401W        W18838  32.124  11.659   5.215
59402W        W18839  44.421  24.188  14.769
59403W        W18840  12.740  37.956  14.814
59404W        W18841  22.552  15.811   4.621
59405W        W18842  16.165  37.390  10.919
59406W        W18843  37.968  25.575  11.595
59407W        W18844   3.368  16.756  10.897
59408W        W18845  12.738  43.494   4.317
59409W        W18846  26.569  23.535   2.682
59410W        W18847  23.179  32.430  14.357
59411W        W18848   0.485  20.066   3.337
59412W        W18849  41.787  34.078  11.974
59413W        W18850  19.211  38.564   1.802
59414W        W18851   3.351  11.275  10.989
59415W        W18852  32.393  41.878   2.263
59416W        W18853  30.476  43.422   0.847
59417W        W18854  40.857   1.914  14.383
59418W        W18855  29.590  20.032  11.093
59419W        W18856  42.878  12.152  13.798
59420W        W18857  14.794   7.219  13.058
59421W        W18858  12.650   7.211  10.627
59422W        W18859   4.211  24.976   1.776
59423W        W18860  33.106  35.865  14.925
59424W        W18861  40.885  38.496   1.433
59425W        W18862  32.552  31.110  13.007
59426W        W18863  25.527  37.450   2.714
59427W        W18864  29.045  31.041  11.874
59428W        W18865  16.751   8.400   0.889
59429W        W18866  31.453   6.734  12.835
59430W        W18867  42.412  20.642   1.316
59431W        W18868  37.490   7.260   2.809
59432W        W18869   5.368  36.958  10.499
59433W        W18870  41.448  30.599  13.380
59434W        W18871  10.868  37.548   1.807
59435W        W18872  35.375  21.558  10.576
59436W        W18873  35.852  24.615  13.048
59437W        W18874  37.360  23.543  12.933
59438W        W18875   8.389   1.354  14.889
59439W        W18876  25.215  24.480   3.268
59440W        W18877  14.824  19.569   0.450
59441W        W18878  32.104  30.540   0.347
59442W        W18879  40.814  32.567   1.728
59443W        W18880   5.705  36.035  14.460
59444W        W18881  42.792  44.829   0.358
59445W        W18882   0.430  32.916  13.525
59446W        W18883  40.947  43.488  11.993
59447W        W18884  23.183  18.681  11.449
59448W        W18885   6.899  14.663   2.250
59449W        W18886  43.870  28.130  11.095
59450W        W18887   5.916  34.055  12.463
59451W        W18888  44.463  19.757   2.763
59452W        W18889  43.793  40.521   5.686
59453W        W18890   0.745   2.892   2.286
59454W        W18891  34.032  31.936   0.466
59455W        W18892  39.944  43.402  12.373
59456W        W18893  13.346  36.850  12.419
59457W        W18894   7.321  12.796  14.421
59458W        W18895   7.226   9.823  11.077
59459W        W18896  25.166  11.792  13.945
59460W        W18897  22.590  37.578  13.495
59461W        W18898  12.783  27.018  11.582
59462W        W18899  20.200  13.140   0.273
59463W        W18900  41.798  34.553   3.684
59464W        W18901  20.194  42.817  14.358
59465W        W18902   0.920  35.940  14.490
59466W        W18903  13.662  38.855  10.416
59467W        W18904  34.394  18.719  14.797
59468W        W18905   7.690   9.676   3.673
59469W        W18906   8.795  13.827   3.256
59470W        W18907   4.835  38.993   3.751
59471W        W18908  34.007  24.978  12.978
59472W        W18909  35.107  42.514   0.290
59473W        W18910  20.034  32.013   2.302
59474W        W18911  41.439   9.362   0.243
59475W        W18912  21.753  25.184   3.650
59476W        W18913  24.104  33.083  13.939
59477W        W18914   5.426  33.488   2.729
59478W        W18915  21.709  40.378   5.258
59479W        W18916  27.571  12.698   3.226
59480W        W18917   9.200  28.116   2.706
59481W        W18918  28.681  28.501  12.571
59482W        W18919   8.221  40.908   1.451
59483W        W18920   7.200   5.365  12.341
59484W        W18921  13.349  37.369  14.968
59485W        W18922  25.515  12.150   4.203
59486W        W18923   8.731  20.609  14.848
59487W        W18924  39.815  40.014  14.011
59488W        W18925  10.684  19.185  14.296
59489W        W18926  30.455  10.633  12.439
59490W        W18927  10.195  35.551  13.485
59491W        W18928  23.685   5.742  14.357
59492W        W18929  20.707  12.130  10.944
59493W        W18930  15.608  43.922  11.001
59494W        W18931  44.843  25.560  11.537
59495W        W18932   3.273  11.154   3.640
59496W        W18933  13.776  17.776  14.899
59497W        W18934   1.814  13.628  12.941
59498W        W18935  20.634  34.526   4.652
59499W        W18936  27.001   1.829  10.462
59500W        W18937  37.918  13.833  14.018
59501W        W18938   3.926  34.088  10.566
59502W        W18939   4.805  30.929  14.017
59503W        W18940  25.151  22.722   0.421
59504W        W18941   9.813  24.075   2.865
59505W        W18942  20.193  28.582  14.286
59506W        W18943  14.153  21.051   2.822
59507W        W18944  22.130  35.415  10.502
59508W        W18945   3.879  41.410   0.375
59509W        W18946  12.660  26.956   2.814
59510W        W18947  34.114  28.653   1.343
59511W        W18948  42.981   0.256   3.795
59512W        W18949  37.475  37.459  12.028
59513W        W18950   9.235   8.745  10.095
59514W        W18951   6.742  38.365   0.887
59515W        W18952  18.766  31.460  10.946
59516W        W18953  40.473  28.952  11.109
59517W        W18954  34.090   5.301  10.454
59518W        W18955  28.986  26.662  12.830
59519W        W18956  42.873  35.477   3.733
59520W        W18957  36.500  30.462  10.553
59521W        W18958  29.026  39.358   3.234
59522W        W18959  20.551  40.401  12.864
59523W        W18960  10.848  21.127   1.770
59524W        W18961   3.720   1.796   0.390
59525W        W18962   5.731  18.125   0.430
59526W        W18963  27.457  36.433  10.439
59527W        W18964  18.776  11.234   2.227
59528W        W18965  37.543  29.651   0.483
59529W        W18966  26.029  28.630  14.293
59530W        W18967  18.091  14.794   5.229
59531W        W18968   3.770   1.960   2.407
59532W        W18969  42.897  37.955  14.766
59533W        W18970  22.519   1.750   3.644
59534W        W18971  17.688  44.916   1.283
59535W        W18972  10.874  31.499  10.604
59536W        W18973  17.165  14.333   0.373
59537W        W18974  24.560  22.252  13.043
59538W        W18975  29.128   6.876   4.327
59539W        W18976  19.636  29.529  13.920
59540W        W18977  16.662  25.532   1.238
59541W        W18978  34.409  37.349  13.543
59542W        W18979  27.042   9.272  14.833
59543W        W18980  26.485  10.756  11.917
59544W        W18981  15.628   9.738  13.505
59545W        W18982   9.654  20.578   3.629
59546W        W18983  41.870  32.130   4.261
59547W        W18984  42.341   9.180  13.804
59548W        W18985  19.158  18.174   5.165
59549W        W18986  42.509  24.491  14.496
59550W        W18987  11.363  32.532   1.419
59551W        W18988  32.417  29.961  12.566
59552W        W18989  30.541   2.410  11.934
59553W        W18990  39.010  23.613   3.827
59554W        W18991  25.484  33.512   5.252
59555W        W18992  33.973  27.522  12.855
59556W        W18993  16.733  43.330   3.768
59557W        W18994   9.200  10.292   2.874
59558W        W18995  44.764  29.922  12.969
59559W        W18996   0.958  22.154  12.450
59560W        W18997   8.803  34.114   3.258
59561W        W18998   8.377   1.370  12.894
59562W        W18999  15.597  36.902   0.410
59563W        W19000  23.537  13.817  10.497
59564W        W19001   0.868  11.341  14.891
59565W        W19002  34.070  21.089   1.426
59566W        W19003  37.085  23.110   4.139
59567W        W19004  42.408   5.797   3.656
59568W        W19005  19.054  35.372  11.078
59569W        W19006   5.391  14.239  14.308
59570W        W19007  27.047  37.560   3.780
59571W        W19008   3.379  20.162   1.813
59572W        W19009  40.797  21.720   2.391
59573W        W19010  11.168  16.609  13.038
59574W        W19011   9.361  37.504  14.760
59575W        W19012  21.042  44.370   3.753
59576W        W19013  41.787   6.703  10.548
59577W        W19014  10.162  42.498  10.895
59578W        W19015  18.070  35.876  13.352
59579W        W19016  26.184   2.304  12.873
59580W        W19017  34.885   2.308  12.416
59581W        W19018   4.344  36.423  14.760
59582W        W19019  14.251  22.147  11.027
59583W        W19020  34.054  33.976   2.896
59584W        W19021  24.189  41.503   3.791
59585W        W19022  30.009  25.554   2.383
59586W        W19023  31.597   3.894   4.803
59587W        W19024  32.890  37.485   3.316
59588W        W19025  19.597   7.761   0.377
59589W        W19026  44.344  33.486   2.233
59590W        W19027  21.043  31.616  10.637
59591W        W19028  23.213  28.071   4.195
59592W        W19029   0.936  25.575   2.197
59593W        W19030   2.851  18.745  14.413
59594W        W19031   3.742  42.480  14.451
59595W        W19032   5.427  33.535  12.899
59596W        W19033  28.065  37.929  13.915
59597W        W19034   0.765  34.899   3.703
59598W        W19035  27.107   0.942  12.351
59599W        W19036  12.767  29.543   0.767
59600W        W19037  23.034   1.734  14.950
59601W        W19038  23.560  26.960   0.315
59602W        W19039  36.001  26.965  14.914
59603W        W19040  22.138  13.271  14.431
59604W        W19041  27.562  20.135  14.890
59605W        W19042  34.872  30.596   2.763
59606W        W19043  33.605  38.968  13.813
59607W        W19044  11.816   8.402  12.489
59608W        W19045  11.677  12.801   2.189
59609W        W19046  16.160  41.447   3.150
59610W        W19047  13.314   5.744   3.193
59611W        W19048  25.541  32.919  14.880
59612W        W19049   1.255  21.143  10.432
59613W        W19050  43.785   1.922   1.218
59614W        W19051  28.533  33.067   0.899
59615W        W19052  25.187   0.364   0.751
59616W        W19053  31.146   3.296  11.009
59617W        W19054  33.937  41.980   2.898
59618W        W19055  18.113  30.570   4.668
59619W        W19056  38.900  24.981  11.954
59620W        W19057  24.617  20.741  12.090
59621W        W19058  12.274   3.392  12.055
59622W        W19059  37.455  10.282  10.995
59623W        W19060  17.245  36.931  11.027
59624W        W19061  17.787   9.809  14.440
59625W        W19062  32.971   8.771   3.193
59626W        W19063  41.302   1.466   4.146
59627W        W19064  18.080   0.347   4.173
59628W        W19065   5.237  37.493  10.464
59629W        W19066  44.407  35.400   1.830
59630W        W19067  12.815  26.142   4.761
59631W        W19068  12.181  10.680  13.017
59632W        W19069  30.448  22.559  12.982
59633W        W19070   8.190  15.263   2.352
59634W        W19071  19.769  32.397   1.288
59635W        W19072  11.701  38.388  14.809
59636W        W19073   1.968  12.644  14.409
59637W        W19074  39.521  23.530  14.957
59638W        W19075  15.273  31.939   3.712
59639W        W19076  17.180   6.334  12.058
59640W        W19077  19.210  42.882  13.382
59641W        W19078   3.953  22.546  13.996
59642W        W19079   9.841  36.912  11.557
59643W        W19080  16.662  22.208  12.830
59644W        W19081  19.766  42.917   3.204
59645W        W19082  19.083   3.741   1.917
59646W        W19083   6.252   7.381  10.474
59647W        W19084  14.781  22.621  13.016
59648W        W19085   4.863  36.454   0.780
59649W        W19086  39.911  15.328   3.690
59650W        W19087  23.717  13.123  12.030
59651W        W19088  11.797  28.496   0.737
59652W        W19089  29.636  44.987  11.490
59653W        W19090  17.726  17.556   4.698
59654W        W19091  21.209  34.013   2.729
59655W        W19092  22.128  25.204   2.257
59656W        W19093  21.178  20.767   1.805
59657W        W19094  17.288  22.176  13.022
59658W        W19095  27.489  36.004  13.345
59659W        W19096   7.803  18.113  10.523
59660W        W19097  11.295  37.040  12.956
59661W        W19098   7.907  22.510  13.876
59662W        W19099  27.194  37.504  14.936
59663W        W19100  25.186  29.500  11.446
59664W        W19101  42.787  31.486  10.969
59665W        W19102   1.397  27.565  13.927
59666W        W19103  35.998  41.891  13.360
59667W        W19104  30.061  42.331  12.394
59668W        W19105   2.247  35.899  11.116
59669W        W19106  44.329  23.105   1.746
59670W        W19107  25.143  44.345   1.375
59671W        W19108   2.380  43.964   0.479
59672W        W19109  18.578  13.304  11.465
59673W        W19110  35.930  19.538   0.887
59674W        W19111  16.632   4.770   4.805
59675W        W19112  15.589  14.121  13.347
59676W        W19113  34.546  15.606  10.036
59677W        W19114  39.452  20.625  14.406
59678W        W19115  33.508   8.351   0.404
59679W        W19116  31.985  44.873  10.617
59680W        W19117  11.805  33.020   2.366
59681W        W19118   2.918  32.522   3.761
59682W        W19119  22.029  34.110   1.415
59683W        W19120  27.496  37.893  11.039
59684W        W19121  25.152   2.456  11.006
59685W        W19122  25.169  32.895   1.826
59686W        W19123  39.447  13.170  12.074
59687W        W19124  31.430   6.368  13.055
59688W        W19125   8.690  21.732   0.406
59689W        W19126  26.125   9.264   9.450
59690W        W19127  26.563   4.258  11.119
59691W        W19128  23.599  13.686  14.962
59692W        W19129  39.920  44.979  14.479
59693W        W19130   8.318  21.738  12.465
59694W        W19131  24.986  20.766  10.630
59695W        W19132   5.767  18.558  11.883
59696W        W19133  30.577  23.018   0.863
59697W        W19134   0.850  40.983   2.764
59698W        W19135  28.036  17.790   1.331
59699W        W19136  29.558   9.823   4.712
59700W        W19137  28.619  38.499   0.441
59701W        W19138  23.210  35.005  11.107
59702W        W19139  21.692  37.837  13.950
59703W        W19140  17.556  23.133  14.989
59704W        W19141   5.435  21.614   2.838
59705W        W19142  17.605  15.312  11.113
59706W        W19143   2.736  17.201   4.744
59707W        W19144  17.603   8.680   2.887
59708W        W19145   4.812  35.986  10.638
59709W        W19146  16.123   0.876  14.766
59710W        W19147   7.882  21.144   5.283
59711W        W19148  30.133  18.791   3.360
59712W        W19149  14.206   0.280  11.958
59713W        W19150  12.668  11.695  14.286
59714W        W19151  14.183  33.540   0.727
59715W        W19152  36.544   8.734   3.256
59716W        W19153   2.382  26.051  12.042
59717W        W19154  19.186  13.821  13.334
59718W        W19155  21.569   2.453   2.345
59719W        W19156  17.652  19.128   1.711
59720W        W19157  26.120   1.443   2.739
59721W        W19158  24.075   5.850  14.286
59722W        W19159   7.886  39.902  14.938
59723W        W19160  11.160  40.428   0.772
59724W        W19161  42.960  14.649   0.939
59725W        W19162   7.765  10.360   4.802
59726W        W19163  35.473  10.221   3.150
59727W        W19164  42.367  13.299   3.747
59728W        W19165  27.054  23.025   9.642
59729W        W19166  24.657   6.185  10.409
59730W        W19167  32.005   3.243   4.656
59731W        W19168  24.104  26.651   1.362
59732W        W19169   5.863   1.466  12.910
59733W        W19170   4.860  38.362   0.937
59734W        W19171  25.179  29.170  10.448
59735W        W19172  26.181   2.966   3.713
59736W        W19173  32.957  28.640  14.293
59737W        W19174  34.025  19.605   1.219
59738W        W19175  21.601  38.929   1.866
59739W        W19176  13.781   6.897  12.074
59740W        W19177  26.520  42.838   4.255
59741W        W19178   3.336   6.268   2.418
59742W        W19179  17.181   8.251   3.186
59743W        W19180  38.365  44.368  12.542
59744W        W19181  11.157  15.222  11.517
59745W        W19182   9.701  30.473   0.416
59746W        W19183  21.735  11.733   1.396
59747W        W19184   3.265  28.072  13.978
59748W        W19185   8.689  15.101   4.777
59749W        W19186  44.461  16.302   3.680
59750W        W19187  42.010  19.265   4.233
59751W        W19188  43.303  17.244  13.378
59752W        W19189   4.905  22.053   3.374
59753W        W19190   0.368   9.347  11.395
59754W        W19191  10.254  13.329   2.375
59755W        W19192  27.661  31.076   1.860
59756W        W19193   5.743  24.122   4.236
59757W        W19194  38.071  32.397   2.198
59758W        W19195   5.272   0.309   1.826
59759W        W19196  19.571  26.698  10.407
59760W        W19197  43.896   4.790  13.006
59761W        W19198  40.036  11.297  14.500
59762W        W19199   7.731  21.255  13.380
59763W        W19200  13.655  24.703  14.319
59764W        W19201   2.338  11.333   1.843
59765W        W19202   1.360  11.720   0.764
59766W        W19203  23.231  42.330   0.302
59767W        W19204   5.705  10.690  11.891
59768W        W19205  33.915   2.752  14.987
59769W        W19206  27.957   2.950   1.894
59770W        W19207  20.046  36.561  12.948
59771W        W19208   1.340  18.733   4.822
59772W        W19209  14.765  32.033  12.383
59773W        W19210   1.835   9.664  10.632
59774W        W19211  18.696  17.680  13.903
59775W        W19212  41.396  13.606   1.272
59776W        W19213  28.154  31.521  10.594
59777W        W19214   7.747  34.543  14.999
59778W        W19215   1.751   3.295   2.280
59779W        W19216  34.069  32.424   4.224
59780W        W19217  29.081  34.500  11.437
59781W        W19218   8.894  21.588   1.311
59782W        W19219   9.169  18.572   1.338
59783W        W19220  37.393  13.681  12.891
59784W        W19221  28.543  22.640   3.700
59785W        W19222   6.916  25.640  13.044
59786W        W19223  29.017  20.568   2.334
59787W        W19224  33.543  13.643   0.386
59788W        W19225  12.168  29.942  10.494
59789W        W19226  10.213   4.266   4.657
59790W        W19227   5.693  16.172   4.236
59791W        W19228  22.693  42.453   3.840
59792W        W19229   7.294  25.496   5.202
59793W        W19230  25.197  21.672   1.358
59794W        W19231  37.884  14.787  13.968
59795W        W19232  11.853  32.066   5.302
59796W        W19233   7.212   5.718  14.339
59797W        W19234   7.852  44.351   4.220
59798W        W19235  18.167  32.004  14.922
59799W        W19236  31.150  20.605  10.613
59800W        W19237  22.539  12.650   4.250
59801W        W19238  43.284  22.728  11.483
59802W        W19239  42.401  28.514   0.770
59803W        W19240  21.106  34.464  14.850
59804W        W19241  16.661   6.768   0.794
59805W        W19242  26.961   6.384   1.747
59806W        W19243   7.712  19.238  14.009
59807W        W19244   1.967   9.794  13.405
59808W        W19245  10.876  34.960   3.780
59809W        W19246  37.531  39.511   0.785
59810W        W19247  35.499  36.929   1.772
59811W        W19248  14.163  19.157   0.426
59812W        W19249   1.865  37.953  14.460
59813W        W19250  32.981   3.847  11.501
59814W        W19251  16.694  26.641  12.864
59815W        W19252  23.041  43.001  10.580
59816W        W19253  36.961  22.235   1.289
59817W        W19254  17.749  22.063   4.633
59818W        W19255   7.365  30.462   3.382
59819W        W19256  19.176  41.018  11.415
59820W        W19257   2.739  35.057   2.314
59821W        W19258   2.948  15.285  13.452
59822W        W19259  26.972  19.729   0.264
59823W        W19260  32.064  44.425   2.287
59824W        W19261  11.177  37.031   2.810
59825W        W19262  14.274   2.913   2.898
59826W        W19263   6.831  29.544   2.297
59827W        W19264   9.366  29.670  14.397
59828W        W19265  10.267   8.770  11.039
59829W        W19266  16.086  22.577   1.793
59830W        W19267  32.568  35.957   0.400
59831W        W19268   3.434   2.813   1.815
59832W        W19269   9.183  36.583  14.794
59833W        W19270  30.101  22.059   9.985
59834W        W19271   3.729  18.121   2.181
59835W        W19272   7.215  30.412   2.688
59836W        W19273  44.419  32.905   1.358
59837W        W19274  22.513   9.194   1.383
59838W        W19275  18.767  30.143   0.378
59839W        W19276  29.638   1.868  13.471
59840W        W19277  25.090  14.811  12.056
59841W        W19278  39.011  10.683  13.426
59842W        W19279  15.718  27.113  14.393
59843W        W19280   6.219   4.292   3.818
59844W        W19281   0.414  22.125  11.051
59845W        W19282  41.856  38.473  11.043
59846W        W19283  35.533  36.071  13.797
59847W        W19284  20.261  29.550   2.396
59848W        W19285  44.950  31.912   5.271
59849W        W19286   7.179  21.066   3.372
59850W        W19287  30.447  41.419  14.433
59851W        W19288   7.259  37.508   3.148
59852W        W19289  40.852  36.919   2.186
59853W        W19290  29.424  39.454   3.729
59854W        W19291  40.337  12.787  12.353
59855W        W19292   9.822   1.465   2.825
59856W        W19293  35.359   5.704   1.752
59857W        W19294  41.034  39.384  12.354
59858W        W19295   2.303   8.273  13.988
59859W        W19296   6.894   5.338  11.455
59860W        W19297  24.479  24.181   0.897
59861W        W19298  23.141  25.985  14.421
59862W        W19299  14.631  21.702  13.838
59863W        W19300   2.846  29.628   4.150
59864W        W19301   4.905  16.610   1.803
59865W        W19302  11.346  17.104  10.973
59866W        W19303  12.796  23.002  14.778
59867W        W19304  28.638  24.192  13.837
59868W        W19305  28.642  32.985  12.038
59869W        W19306  13.211  22.245  12.936
59870W        W19307   3.249  34.457  12.080
59871W        W19308  25.521   2.760   0.243
59872W        W19309  28.561  24.682  12.548
59873W        W19310  14.630   2.420   1.927
59874W        W19311   7.217  12.734   4.661
59875W        W19312  20.031  36.879   1.344
59876W        W19313   5.360  31.420   0.762
59877W        W19314   7.359  22.215   2.237
59878W        W19315  39.824  23.116   0.349
59879W        W19316  39.354  39.962   2.736
59880W        W19317  26.076   4.805  11.856
59881W        W19318  30.430  11.655   3.205
59882W        W19319  29.957  28.048   4.323
59883W        W19320  20.700  17.234  14.402
59884W        W19321  40.532  30.414  10.406
59885W        W19322   0.975  39.455   3.810
59886W        W19323  30.944  22.023  12.539
59887W        W19324  43.833  21.706  11.081
59888W        W19325  19.669  21.546   9.515
59889W        W19326  15.810   0.290  12.875
59890W        W19327   5.315   8.879  14.502
59891W        W19328   7.886  44.840  10.440
59892W        W19329  23.598  34.544  13.460
59893W        W19330  16.674  43.365  11.425
59894W        W19331  17.597  28.158  13.430
59895W        W19332  41.352   1.259  11.529
59896W        W19333  26.487  12.729  14.486
59897W        W19334  17.205  43.275  11.897
59898W        W19335  17.115  42.493  10.039
59899W        W19336   9.812  37.006  14.320
59900W        W19337  25.555  28.637  12.023
59901W        W19338  32.995  17.202  13.005
59902W        W19339  41.013   1.952   2.410
59903W        W19340  13.718  15.099  13.938
59904W        W19341  38.897  32.621  12.079
59905W        W19342  21.161  16.122   9.605
59906W        W19343  35.417  22.213  14.420
59907W        W19344  37.059  18.105   1.785
59908W        W19345  14.820  20.622   2.226
59909W        W19346  33.422   1.351   3.328
59910W        W19347  35.903  41.394   1.343
59911W        W19348   7.272  37.460   1.230
59912W        W19349  19.639  25.503  12.535
59913W        W19350   9.288  20.055  13.966
59914W        W19351  11.166  33.587  11.987
59915W        W19352  14.155  39.526  10.084
59916W        W19353   7.787  30.056  11.113
59917W        W19354  44.435  40.999   2.867
59918W        W19355   3.725  20.533  14.396
59919W        W19356   2.800  37.418  14.364
59920W        W19357   7.325  43.354   0.936
59921W        W19358  25.621  16.137   2.404
59922W        W19359  37.970  38.565  13.414
59923W        W19360  21.559  38.884   5.171
59924W        W19361  37.543  22.645  14.990
59925W        W19362   1.283  17.800  10.130
59926W        W19363  42.323   6.716  11.978
59927W        W19364  25.607  29.120   4.209
59928W        W19365  37.378  17.563  10.524
59929W        W19366  17.700   6.392   4.735
59930W        W19367  42.954  33.078   2.681
59931W        W19368  39.331  35.969   2.886
59932W        W19369  44.310   0.450  13.928
59933W        W19370  19.126  34.072   2.707
59934W        W19371  29.444  41.536  12.512
59935W        W19372  27.952  40.395   3.298
59936W        W19373   3.830  25.190  11.413
59937W        W19374  12.641   1.821  10.545
59938W        W19375  25.094  19.756   1.313
59939W        W19376  21.695   0.833  12.880
59940W        W19377  36.846  34.029  14.985
59941W        W19378  30.122   5.765   4.748
59942W        W19379  14.615  16.611  10.495
59943W        W19380   4.317  38.068   3.334
59944W        W19381  14.658  29.522  11.517
59945W        W19382  15.093  16.779  11.860
59946W        W19383  11.195  19.670   2.885
59947W        W19384  10.310   1.424   2.374
59948W        W19385   8.821  36.425   4.816
59949W        W19386  39.009  27.111  14.492
59950W        W19387   2.452   7.837   1.441
59951W        W19388   3.282  23.062   4.144
59952W        W19389  40.533  34.083  11.538
59953W        W19390   4.365  15.579  10.112
59954W        W19391  15.594   2.935   1.869
59955W        W19392   9.692  22.150  13.843
59956W        W19393  44.983  34.457  11.470
59957W        W19394  34.608   2.371   0.303
59958W        W19395  31.485  25.128  14.986
59959W        W19396  19.083  29.575   0.921
59960W        W19397  31.617  18.680   1.271
59961W        W19398  33.885   4.281  11.124
59962W        W19399  26.103  38.354  12.455
59963W        W19400  27.631  42.474   1.379
59964W        W19401   9.648  36.027   3.794
59965W        W19402  32.934  19.269   4.298
59966W        W19403   0.743  17.256  13.931
59967W        W19404  30.575  14.106   4.352
59968W        W19405  16.778  13.233  12.549
59969W        W19406  18.784  17.154  13.939
59970W        W19407  21.146   0.806  13.478
59971W        W19408  17.070  17.286   0.262
59972W        W19409  10.850  31.504   0.879
59973W        W19410  15.302   0.314  14.824
59974W        W19411  26.649   2.726   4.675
59975W        W19412   1.866  16.189  11.950
59976W        W19413  12.628  30.423   4.269
59977W        W19414  23.673  29.458  12.386
59978W        W19415  44.756   5.851  10.999
59979W        W19416   2.881  30.440  13.326
59980W        W19417  44.381   2.952   3.314
59981W        W19418  18.124   8.329   2.251
59982W        W19419  32.120  11.355  10.160
59983W        W19420  44.988   8.747  10.959
59984W        W19421   3.299  24.491  12.880
59985W        W19422  24.163   2.255   0.481
59986W        W19423  29.483  18.604   3.782
59987W        W19424  29.016  32.126  13.538
59988W        W19425  27.508  23.084   3.383
59989W        W19426  19.720  21.176  10.453
59990W        W19427  29.159  24.576  11.536
59991W        W19428  41.477  29.579  10.922
59992W        W19429  11.224  25.038  14.303
59993W        W19430   6.837  40.423   1.436
59994W        W19431   0.428   5.225   2.784
59995W        W19432  11.828  14.274  13.853
59996W        W19433  42.911  29.990  12.449
59997W        W19434  27.974  34.421   3.355
59998W        W19435  20.194  40.037  11.442
59999W        W19436  41.899  39.870  11.942
60000W        W19437  39.535  33.412   2.846
60001W        W19438   9.743  44.263  11.576
60002W        W19439  24.669  20.715   0.868
60003W        W19440  32.485  36.521  14.780
60004W        W19441  39.973  16.656  13.501
60005W        W19442   9.644  32.921   3.680
60006W        W19443   0.763  16.741   1.725
60007W        W19444  19.056   9.668   1.932
60008W        W19445   6.233  34.474  11.025
60009W        W19446  13.794  38.974   3.853
60010W        W19447  17.795   5.829  13.857
60011W        W19448  40.847   6.903  10.595
60012W        W19449  38.421  43.785  11.421
60013W        W19450  39.526  24.052  14.984
60014W        W19451   9.736  14.123  10.638
60015W        W19452  16.223  29.560   4.193
60016W        W19453  21.146  28.972  11.430
60017W        W19454   8.205  18.236   3.707
60018W        W19455   2.757  42.427   3.762
60019W        W19456   9.809  16.131   1.238
60020W        W19457  23.735   7.308  10.467
60021W        W19458  22.237  32.474   0.931
60022W        W19459   8.820  23.043  13.840
60023W        W19460  37.539  17.760   1.865
60024W        W19461  40.459  24.585  14.397
60025W        W19462  33.090  18.055  10.578
60026W        W19463  12.629  35.467   1.705
60027W        W19464   6.915  35.928   4.789
60028W        W19465  26.533   6.746  14.946
60029W        W19466   3.819  32.399   1.755
60030W        W19467  27.071   8.716  11.434
60031W        W19468  20.718  13.338  12.452
60032W        W19469  43.984  34.951   2.902
60033W        W19470  36.414  29.936   0.432
60034W        W19471  34.004  12.850   1.862
60035W        W19472   1.940  29.165   2.808
60036W        W19473   0.357  18.636   2.358
60037W        W19474  12.817  28.961   1.369
60038W        W19475   7.345   2.366   3.319
60039W        W19476  25.099  41.852   1.220
60040W        W19477  30.612  37.903  13.950
60041W        W19478  39.473  16.162  10.942
60042W        W19479  35.885   6.800   1.849
60043W        W19480  38.916  24.142   0.790
60044W        W19481  22.159  27.136  11.904
60045W        W19482  13.832  15.579   1.332
60046W        W19483   9.746  14.332  13.008
60047W        W19484  29.608   1.859   1.878
60048W        W19485  15.707  44.489  12.092
60049W        W19486  29.974  33.519  13.936
60050W        W19487  21.227  18.622  13.894
60051W        W19488  14.672  19.269  11.434
60052W        W19489  37.915  39.960  14.477
60053W        W19490  16.278  44.365   2.245
60054W        W19491  28.164  20.550   2.217
60055W        W19492   3.438   0.919   1.411
60056W        W19493  29.599   1.439   2.330
60057W        W19494  22.531  42.781   3.859
60058W        W19495  42.815  40.416  13.377
60059W        W19496  34.976   3.956  10.930
60060W        W19497  17.084  24.027   1.714
60061W        W19498  41.927  28.065   1.266
60062W        W19499  33.084  34.578  14.998
60063W        W19500  23.666  44.895  11.927
60064W        W19501  40.514   1.305   3.318
60065W        W19502  15.257  15.737  13.812
60066W        W19503  16.572  18.057   3.213
60067W        W19504  32.928  20.120   4.777
60068W        W19505  18.698  15.187   5.085
60069W        W19506  13.234  20.618   3.229
60070W        W19507  31.540  25.510   5.632
60071W        W19508  30.938  20.722  12.889
60072W        W19509  40.373  39.017   0.442
60073W        W19510  24.544  16.306  11.949
60074W        W19511   7.854  21.684  13.938
60075W        W19512  17.115  38.034   3.721
60076W        W19513  44.321  33.958  14.832
60077W        W19514  36.513  22.015   1.267
60078W        W19515  11.637   0.432   3.807
60079W        W19516  26.111  19.609  10.910
60080W        W19517  13.761  28.955   0.855
60081W        W19518   3.379  42.877  12.056
60082W        W19519  28.151  23.508   0.752
60083W        W19520   3.323  12.350   2.352
60084W        W19521   2.227  17.708   1.329
60085W        W19522  19.086   1.900  11.559
60086W        W19523  17.185  42.451  11.056
60087W        W19524  26.625   4.211  10.049
60088W        W19525  37.339   8.788   2.825
60089W        W19526   8.385   4.342   0.258
60090W        W19527   1.785  23.684   1.311
60091W        W19528  11.282  11.248  13.343
60092W        W19529  11.324  12.750  12.838
60093W        W19530  22.617  34.989  12.887
60094W        W19531   0.366  30.951  10.610
60095W        W19532   2.720  32.045   3.332
60096W        W19533  26.525   4.887   4.194
60097W        W19534  40.918  17.598   3.785
60098W        W19535  37.438  14.103   2.228
60099W        W19536   4.880   1.405   0.877
60100W        W19537  36.050  37.371   9.943
60101W        W19538  11.289  10.238   3.272
60102W        W19539  17.179  28.001   5.091
60103W        W19540  12.189  43.918  10.414
60104W        W19541  44.342  19.276   2.219
60105W        W19542  33.421  13.653  11.554
60106W        W19543   2.884  40.813  13.423
60107W        W19544   9.710  11.335  14.843
60108W        W19545   9.779   0.916  11.596
60109W        W19546   3.286  26.556   1.930
60110W        W19547  10.325  24.671   2.831
60111W        W19548   7.886   3.295   5.222
60112W        W19549  39.030  15.592   2.363
60113W        W19550  15.250  21.029   5.228
60114W        W19551  42.010  35.522  13.829
60115W        W19552  36.560  24.191   1.311
60116W        W19553  20.088  23.132   0.459
60117W        W19554  39.896  32.398  14.320
60118W        W19555  19.077  21.038   3.665
60119W        W19556   3.429   0.775  11.899
60120W        W19557  20.555  12.343   1.769
60121W        W19558   7.783  39.536  12.997
60122W        W19559  43.409  42.960  14.301
60123W        W19560  44.397  34.433  12.440
60124W        W19561  23.196  39.472  12.467
60125W        W19562  35.565   6.184   2.774
60126W        W19563  16.768  27.489  12.347
60127W        W19564   5.227  42.498   0.373
60128W        W19565  22.110   7.370  10.527
60129W        W19566  11.729  16.602   0.444
60130W        W19567   8.665  15.251  14.438
60131W        W19568  29.586   9.325  13.021
60132W        W19569  31.526   9.848  11.011
60133W        W19570  28.452  41.350   4.307
60134W        W19571  17.216   7.206   1.331
60135W        W19572   2.909  36.455  13.546
60136W        W19573  24.005  11.234  11.590
60137W        W19574  43.967  29.004  13.308
60138W        W19575  42.501  23.205   2.677
60139W        W19576   6.203  23.103   3.718
60140W        W19577   6.738  11.250  14.423
60141W        W19578  20.143   5.825  10.531
60142W        W19579  38.385  42.473  12.974
60143W        W19580  43.008  19.193   4.119
60144W        W19581  41.927  34.448  13.489
60145W        W19582  13.316  44.476  14.760
60146W        W19583  40.356  24.672   0.379
60147W        W19584  44.947  40.954  11.520
60148W        W19585  11.825  15.243  14.285
60149W        W19586  22.737  35.599   0.460
60150W        W19587  43.368  21.514  11.573
60151W        W19588  43.371  18.291  13.396
60152W        W19589  43.985  38.856  14.479
60153W        W19590  20.701   2.376   1.250
60154W        W19591  33.441  16.254  14.403
60155W        W19592  19.103  13.215  10.579
60156W        W19593   5.350   2.364   4.800
60157W        W19594  31.126  21.729  14.351
60158W        W19595   0.464  35.381  11.418
60159W        W19596  40.903  36.371  11.100
60160W        W19597  35.439  10.705   0.455
60161W        W19598  24.199   7.179   2.674
60162W        W19599  26.077  13.135   3.196
60163W        W19600  14.698  44.267  12.869
60164W        W19601  38.424  30.082   1.313
60165W        W19602  39.884  14.274  14.465
60166W        W19603  32.562  18.118  10.968
60167W        W19604  30.588   1.936   3.751
60168W        W19605  40.824  23.148  11.962
60169W        W19606  42.318  10.774   4.295
60170W        W19607   0.429  31.419  13.477
60171W        W19608   7.864  32.615   3.296
60172W        W19609  43.834  26.164  12.945
60173W        W19610   7.893  29.963  13.479
60174W        W19611  31.599  44.819  13.045
60175W        W19612  22.081  33.464  12.386
60176W        W19613  38.437  32.032  10.524
60177W        W19614  35.408  32.568   2.726
60178W        W19615  26.134   2.953  11.581
60179W        W19616   1.248  27.169  10.458
60180W        W19617  13.832  14.159   2.326
60181W        W19618   9.342   4.360  13.031
60182W        W19619   8.720   4.392   1.932
60183W        W19620  34.598   3.352   4.659
60184W        W19621  44.839  11.314  13.358
60185W        W19622  42.466  22.703  12.079
60186W        W19623   1.793  31.932  13.383
60187W        W19624  12.736  33.500  14.778
60188W        W19625  18.220  17.784   0.858
60189W        W19626  43.864   9.881  13.969
60190W        W19627  37.843  19.157   4.216
60191W        W19628  22.203  30.071   0.936
60192W        W19629  17.188   2.290  13.318
60193W        W19630  33.430  33.453  13.966
60194W        W19631  27.070  31.543  14.784
60195W        W19632  39.896  27.987  12.558
60196W        W19633  27.128  20.627  11.004
60197W        W19634   2.258  41.332  14.290
60198W        W19635  18.581  15.097  13.869
60199W        W19636   1.943   5.821  11.063
60200W        W19637  15.301  28.068   2.891
60201W        W19638  23.732  27.025   2.237
60202W        W19639   9.650   2.361   3.297
60203W        W19640  43.950   4.308  12.429
60204W        W19641  29.937  14.159   2.316
60205W        W19642   3.232  21.592  13.357
60206W        W19643   1.394  20.603  13.425
60207W        W19644   6.791  39.887   2.903
60208W        W19645  24.063  16.281  10.430
60209W        W19646  14.261  14.715   0.885
60210W        W19647  13.794  30.654   1.369
60211W        W19648  19.629   3.908   1.294
60212W        W19649  28.070  25.962  10.103
60213W        W19650   4.768  11.367  14.359
60214W        W19651  20.156  16.593   3.365
60215W        W19652  37.928  33.082   3.333
60216W        W19653  11.685  27.978  10.940
60217W        W19654  37.831  36.037  12.967
60218W        W19655  25.171  41.039   3.849
60219W        W19656  15.579  38.875   0.734
60220W        W19657  22.064   6.280  12.564
60221W        W19658   3.279  30.584   1.734
60222W        W19659  26.573  26.693   4.756
60223W        W19660  38.403   1.459   0.815
60224W        W19661  21.744  10.825  11.032
60225W        W19662  41.465  44.853   0.870
60226W        W19663  41.455   2.385  14.866
60227W        W19664  36.065  41.894   4.127
60228W        W19665  15.616  35.868   4.771
60229W        W19666   0.475  26.679  11.547
60230W        W19667  31.910  12.662  13.501
60231W        W19668  22.084   4.899  13.947
60232W        W19669  20.136  11.300  14.761
60233W        W19670  32.502   7.216   0.763
60234W        W19671  42.888   0.779  12.569
60235W        W19672   2.789  29.100   0.395
60236W        W19673   5.783  32.609  12.387
60237W        W19674  22.668  35.376   3.370
60238W        W19675  29.588  11.778  12.842
60239W        W19676  36.094  38.380  14.790
60240W        W19677  25.511  35.875  14.384
60241W        W19678   9.252  10.712  13.423
60242W        W19679  32.127   6.245  13.491
60243W        W19680  18.195  18.724  13.438
60244W        W19681  16.586  34.985   1.288
60245W        W19682  44.867   4.756  13.052
60246W        W19683   2.876   8.868  14.402
60247W        W19684  14.341  21.594  12.377
60248W        W19685   2.374   1.325  10.415
60249W        W19686  16.136  38.493  12.565
60250W        W19687  32.908  33.396  13.898
60251W        W19688   9.740  17.673  11.982
60252W        W19689  33.550  37.525   3.229
60253W        W19690  25.168  19.215   4.327
60254W        W19691  24.524  36.467   4.215
60255W        W19692   1.451  23.506   3.250
60256W        W19693  19.197  33.501   4.238
60257W        W19694   3.862   6.798  10.431
60258W        W19695  15.742  16.582   4.328
60259W        W19696  15.140  25.000   0.821
60260W        W19697  40.946  23.563  12.530
60261W        W19698  41.871   3.440  10.479
60262W        W19699  38.050  17.686   1.723
60263W        W19700  26.656   0.831   3.309
60264W        W19701  16.141  17.147  14.998
60265W        W19702  25.017  14.120   4.130
60266W        W19703  19.215  44.296  11.970
60267W        W19704  42.949   5.362   1.886
60268W        W19705  35.497  41.504  10.968
60269W        W19706  14.322   7.352   2.181
60270W        W19707  34.395  14.713   3.220
60271W        W19708  28.576   3.893  12.355
60272W        W19709  37.346   5.909  10.474
60273W        W19710   8.767  11.359   2.266
60274W        W19711   3.912  17.751  13.964
60275W        W19712  37.004  28.123   1.866
60276W        W19713   0.869  42.826   1.698
60277W        W19714  21.031  43.394  12.475
60278W        W19715  24.648   7.673  13.997
60279W        W19716   3.914   6.281  13.514
60280W        W19717   4.742  16.149  13.988
60281W        W19718  23.109  38.335   2.402
60282W        W19719   4.785  32.521   0.796
60283W        W19720  19.279  31.929   0.900
60284W        W19721  40.391  11.360  11.581
60285W        W19722  15.328  31.085   4.191
60286W        W19723  26.113  36.043  14.457
60287W        W19724   0.945   9.824   1.804
60288W        W19725  19.087  43.889   9.605
60289W        W19726   8.828  39.961   3.689
60290W        W19727  22.587  42.948   4.669
60291W        W19728  34.397   5.414  12.899
60292W        W19729   0.447  41.816  12.546
60293W        W19730  41.032   2.799   1.894
60294W        W19731  30.140  10.339   0.424
60295W        W19732  32.601  25.574   2.825
60296W        W19733  22.538  21.512  13.057
60297W        W19734  43.271  14.670  12.399
60298W        W19735   0.895  42.408   1.400
60299W        W19736  32.474  28.515  10.580
60300W        W19737   5.317  40.889   1.865
60301W        W19738  17.114  34.444   1.876
60302W        W19739   5.341  33.550   2.417
60303W        W19740   3.805  25.015   4.264
60304W        W19741  11.629  17.127   3.632
60305W        W19742  17.078  32.587   1.781
60306W        W19743  41.530  32.977  11.525
60307W        W19744  23.089  42.517  14.825
60308W        W19745   9.343  40.339  10.502
60309W        W19746  17.174  23.216  13.968
60310W        W19747  30.149   1.261   3.316
60311W        W19748  13.644  13.779   0.937
60312W        W19749  12.612  35.543  13.464
60313W        W19750   2.880  35.537  10.946
60314W        W19751  28.186   8.264  14.823
60315W        W19752  14.333   1.921   0.323
60316W        W19753  30.158  20.648  12.823
60317W        W19754   5.308  28.034  10.608
60318W        W19755  41.421  17.724  10.943
60319W        W19756  41.983   1.856  14.476
60320W        W19757  38.486  31.520   2.208
60321W        W19758   6.824  41.395   3.210
60322W        W19759  41.932  39.410   9.991
60323W        W19760   9.238  17.637  13.516
60324W        W19761  36.034  24.019   0.757
60325W        W19762  41.358  18.573  13.449
60326W        W19763  44.319   5.835   1.426
60327W        W19764  12.159  25.608  10.539
60328W        W19765  22.577   6.273  10.890
60329W        W19766  34.009  22.149   4.261
60330W        W19767  29.647  37.015   1.906
60331W        W19768  27.094  28.643  12.554
60332W        W19769  14.701  44.484  10.933
60333W        W19770  38.494  22.090   0.326
60334W        W19771  13.139   2.432  11.407
60335W        W19772  15.760   4.904   3.663
60336W        W19773  31.117   0.264   1.211
60337W        W19774  25.474  14.316   0.925
60338W        W19775  19.258  22.137   4.330
60339W        W19776  23.076   9.885  12.025
60340W        W19777  40.910  12.343  14.386
60341W        W19778   5.394   0.476   2.291
60342W        W19779  29.090  28.138  11.987
60343W        W19780  16.745  35.593  13.794
60344W        W19781  35.359  24.512   3.764
60345W        W19782   6.728  33.071   3.328
60346W        W19783   5.222  30.540   4.302
60347W        W19784  34.984  38.019   4.646
60348W        W19785  38.488   9.649  12.485
60349W        W19786  35.909  18.600  13.513
60350W        W19787  31.490   5.793  13.508
60351W        W19788  40.050  28.656   2.774
60352W        W19789  22.623  42.412  12.019
60353W        W19790  19.755  17.112  12.369
60354W        W19791  16.679  31.126  12.081
60355W        W19792  16.616  33.617  14.820
60356W        W19793   5.282  23.203   4.225
60357W        W19794  25.217  41.444   0.320
60358W        W19795  11.623  26.489   0.423
60359W        W19796   7.217  18.685  13.047
60360W        W19797  12.618  21.673  14.850
60361W        W19798  25.094   8.813   4.159
60362W        W19799   2.387  37.879   2.205
60363W        W19800  12.666  31.918   3.214
60364W        W19801  20.646  29.481  13.374
60365W        W19802   4.866  29.485   4.277
60366W        W19803  12.262   9.366  11.476
60367W        W19804   7.852  11.826  11.022
60368W        W19805   6.727  24.982  12.954
60369W        W19806  31.516  29.510   4.303
60370W        W19807  17.217   6.777   4.683
60371W        W19808  27.620  35.501  12.339
60372W        W19809  28.499  33.000   1.277
60373W        W19810  37.892  41.940  13.879
60374W        W19811  24.046  31.997   0.825
60375W        W19812  23.168  26.637   1.819
60376W        W19813   4.288  41.822   2.180
60377W        W19814  39.527  24.690   4.164
60378W        W19815  12.339  11.762   3.643
60379W        W19816  18.788  13.807  13.455
60380W        W19817  21.147  32.535  14.920
60381W        W19818  14.150  18.564  11.855
60382W        W19819   6.405  32.406   3.828
60383W        W19820  33.910   1.820  13.043
60384W        W19821  43.770   0.763  12.561
60385W        W19822  17.150  24.652  11.082
60386W        W19823  13.127  31.988   4.664
60387W        W19824  27.672  18.183   3.231
60388W        W19825   3.775  21.216   0.347
60389W        W19826   1.894  12.127   1.712
60390W        W19827  23.648  15.722   2.675
60391W        W19828  34.397  41.443   0.772
60392W        W19829  41.459   7.197  11.953
60393W        W19830  20.582  41.792  14.514
60394W        W19831  44.347  40.825  14.452
60395W        W19832  44.857  38.463   2.787
60396W        W19833  38.391  20.171   3.265
60397W        W19834  37.834  34.976   1.356
60398W        W19835  15.259  36.066  14.805
60399W        W19836  24.632  17.183  10.552
60400W        W19837   4.349  18.080   0.880
60401W        W19838  40.956  17.783  13.794
60402W        W19839  15.316  26.521  11.403
60403W        W19840   5.851  17.615   4.187
60404W        W19841  27.153  40.457   3.832
60405W        W19842   7.273  11.635  10.907
60406W        W19843  27.069  23.073  11.959
60407W        W19844   2.266   4.432   3.768
60408W        W19845  11.782  18.126   0.351
60409W        W19846   9.364  15.695   4.159
60410W        W19847   6.828   0.872   3.342
60411W        W19848  22.184  24.042   1.214
60412W        W19849  32.426   7.410  13.016
60413W        W19850   0.752  14.730  10.511
60414W        W19851   3.277   3.404   0.272
60415W        W19852  35.453   4.938  13.359
60416W        W19853   2.255  12.271   2.667
60417W        W19854  33.916  16.221  13.963
60418W        W19855   9.719  23.985  14.296
60419W        W19856  30.132   3.875   4.659
60420W        W19857   1.840  28.052  11.111
60421W        W19858   4.278  44.311  11.405
60422W        W19859   6.382  36.404   0.318
60423W        W19860   3.417  21.085  13.028
60424W        W19861  28.020  28.535  10.957
60425W        W19862   4.378  38.855   2.221
60426W        W19863  35.029   4.927   3.223
60427W        W19864  42.032  21.035  14.832
60428W        W19865  43.901  21.725  13.372
60429W        W19866   5.365  24.661  13.027
60430W        W19867  18.054  32.491   2.843
60431W        W19868  15.619   5.227  11.987
60432W        W19869  13.773  31.017  14.853
60433W        W19870  25.652   8.227  11.104
60434W        W19871   1.407   9.290   2.798
60435W        W19872   2.295  18.263   9.928
60436W        W19873  35.872   7.380  11.065
60437W        W19874  33.425  17.228   1.876
60438W        W19875   6.349   0.353   0.952
60439W        W19876  22.693  13.672  13.545
60440W        W19877   0.756  10.700  11.951
60441W        W19878  39.863   1.883   1.443
60442W        W19879  24.175   5.237  10.933
60443W        W19880  35.576  23.095   0.819
60444W        W19881  17.267  30.123   1.239
60445W        W19882  27.065   7.205   1.759
60446W        W19883  16.809   2.925   2.379
60447W        W19884  23.616  12.283  10.591
60448W        W19885  20.067  26.595  11.038
60449W        W19886  21.059   6.721  11.443
60450W        W19887  28.132   9.237   2.749
60451W        W19888  44.419  41.463   4.708
60452W        W19889  42.872  42.946  10.555
60453W        W19890  34.575  44.964  13.939
60454W        W19891   7.744  28.043  11.586
60455W        W19892  41.968  21.583   2.407
60456W        W19893  10.142   9.825  14.276
60457W        W19894  25.020   3.874  14.796
60458W        W19895  20.698  39.889   4.734
60459W        W19896   7.392  10.338   4.308
60460W        W19897  39.398   8.659  10.981
60461W        W19898  29.643  31.112   4.163
60462W        W19899  11.687  40.921  12.980
60463W        W19900  18.761  17.629   1.283
60464W        W19901  28.510  34.381   3.353
60465W        W19902  12.180  23.227   2.856
60466W        W19903  14.755   6.688   4.321
60467W        W19904  42.377  18.760  13.794
60468W        W19905  39.401   6.772  13.525
60469W        W19906  19.680   9.746  11.887
60470W        W19907  23.073  41.481   2.667
60471W        W19908   6.895   6.918   0.835
60472W        W19909  31.029  20.046   5.201
60473W        W19910  44.975   4.234   1.311
60474W        W19911   7.746  15.819   5.085
60475W        W19912  18.787  23.612  12.531
60476W        W19913  36.435  20.650  12.433
60477W        W19914  13.691   5.360  10.479
60478W        W19915   4.284  24.128  14.930
60479W        W19916  17.303  34.542  14.766
60480W        W19917  41.992  25.568  14.487
60481W        W19918  26.090  13.344   1.913
60482W        W19919  36.914  24.668  12.920
60483W        W19920   7.748  34.403  10.601
60484W        W19921   5.878   6.197  11.396
60485W        W19922   5.239   7.401   3.793
60486W        W19923  16.127   7.754   4.661
60487W        W19924  38.327  26.147  12.523
60488W        W19925  25.148  33.582   0.335
60489W        W19926  20.667  40.435   4.189
60490W        W19927  12.831  37.473   5.242
60491W        W19928  34.377   3.752   2.830
60492W        W19929  14.747  24.147   3.179
60493W        W19930   2.382  11.328   1.375
60494W        W19931   5.376   4.881   2.301
60495W        W19932   2.284  16.737  12.900
60496W        W19933   1.945   4.302   0.470
60497W        W19934   6.375  44.320   3.345
60498W        W19935  19.079   4.793   3.265
60499W        W19936  42.357  42.943   4.304
60500W        W19937  36.875  42.794   9.973
60501W        W19938  21.116   9.878  13.375
60502W        W19939  29.050   1.296  13.828
60503W        W19940   8.771  10.297  11.938
60504W        W19941  43.300  32.524  12.880
60505W        W19942   3.758  44.411   1.854
60506W        W19943  21.676  25.549   4.201
60507W        W19944  14.132   4.802  12.898
60508W        W19945  29.565  25.686  11.000
60509W        W19946  43.298  40.929  11.087
60510W        W19947   3.291  24.123   2.709
60511W        W19948  17.180  32.618  14.920
60512W        W19949  28.039   1.337  13.040
60513W        W19950  37.515  43.426  13.385
60514W        W19951  20.260  35.092   4.686
60515W        W19952  39.438   3.875  12.937
60516W        W19953  40.954   8.848  10.644
60517W        W19954   5.697  28.538   4.627
60518W        W19955   4.430  40.370  10.972
60519W        W19956   1.267  17.288  11.066
60520W        W19957  24.153  25.035  13.470
60521W        W19958  35.538  22.091   1.829
60522W        W19959  22.133  19.178   3.861
60523W        W19960  14.672  34.499   9.998
60524W        W19961  10.328   6.207  13.449
60525W        W19962  42.982  20.069   2.749
60526W        W19963   4.713   0.828   5.184
60527W        W19964  20.611  22.663   3.212
60528W        W19965  33.098  36.014   4.621
60529W        W19966   6.860  41.367   0.824
60530W        W19967  22.555  27.113  12.492
60531W        W19968  30.582  26.579   2.391
60532W        W19969  35.103  30.037  13.517
60533W        W19970  17.693  34.988   3.756
60534W        W19971  37.378  18.123   3.175
60535W        W19972  36.587  26.969  10.644
60536W        W19973  15.268  18.712   0.860
60537W        W19974  38.349  23.069  11.505
60538W        W19975   1.894  44.418  12.372
60539W        W19976  31.968  17.724  12.410
60540W        W19977   7.404  32.544   3.231
60541W        W19978   1.941  43.901   3.250
60542W        W19979  20.643   3.920   0.345
60543W        W19980  15.591  19.779  13.348
60544W        W19981  32.032  25.600  13.808
60545W        W19982   0.366  23.111   2.763
60546W        W19983  14.610  22.584   0.274
60547W        W19984  18.737   3.886  11.881
60548W        W19985  43.989  25.504  12.902
60549W        W19986  31.039  23.649  11.609
60550W        W19987   6.183   8.324   1.809
60551W        W19988  30.564  39.315  10.913
60552W        W19989  42.478  24.591   0.797
60553W        W19990  17.195   3.378  12.544
60554W        W19991   2.234   9.191   4.751
60555W        W19992  23.164  17.679  13.338
60556W        W19993   3.309  35.046   1.902
60557W        W19994  32.586  18.117  14.031
60558W        W19995  34.062  22.073  14.797
60559W        W19996  36.875   7.897   0.919
60560W        W19997  30.138  15.107   4.632
60561W        W19998  24.503  22.622   3.272
60562W        W19999  10.265  37.949   3.632
60563W        W20000  21.600  42.777   4.160
60564W        W20001  41.835  33.589  12.920
60565W        W20002   4.863  10.825   3.367
60566W        W20003  44.956  30.496  13.434
60567W        W20004  34.049  32.635   0.750
60568W        W20005  30.422  16.206   3.643
60569W        W20006  22.708   7.226  10.952
60570W        W20007  25.560   7.875  14.023
60571W        W20008  24.119  43.770  11.124
60572W        W20009  43.891  12.155   2.237
60573W        W20010  26.617  23.225   2.361
60574W        W20011  12.212  31.500  13.024
60575W        W20012  42.933  14.272  14.025
60576W        W20013  33.113  19.110  14.419
60577W        W20014  27.992   0.492   0.292
60578W        W20015  32.517  16.225   4.803
60579W        W20016  22.115  19.242  11.417
60580W        W20017  41.932   8.325  10.913
60581W        W20018   8.754  11.705  10.476
60582W        W20019  32.577   9.701   1.444
60583W        W20020   2.959  34.938   4.687
60584W        W20021  13.159  10.654   3.687
60585W        W20022  39.398  13.223  11.486
60586W        W20023  41.917  10.272   3.277
60587W        W20024  25.979  20.572   0.294
60588W        W20025  35.954  33.419   4.747
60589W        W20026  37.433  26.515  10.544
60590W        W20027  11.748  13.730  14.275
60591W        W20028  35.589  23.661   2.830
60592W        W20029   7.337  18.278   2.712
60593W        W20030  15.682  12.224   0.267
60594W        W20031  18.712   6.218   0.779
60595W        W20032  15.205  23.694  10.432
60596W        W20033  37.375  24.700   3.728
60597W        W20034   2.892  33.491  11.102
60598W        W20035  37.067  26.459   0.470
60599W        W20036  39.401  31.154  13.899
60600W        W20037   9.760  26.998  10.991
60601W        W20038   2.296  34.008  12.057
60602W        W20039  14.117  41.897   2.402
60603W        W20040  21.059   1.297   1.708
60604W        W20041   6.376  42.348   0.399
60605W        W20042  30.659  21.657  12.971
60606W        W20043   9.264  20.572  14.443
60607W        W20044  25.029  30.554   4.316
60608W        W20045  26.677  36.042   0.793
60609W        W20046  25.588  33.536   2.735
60610W        W20047  10.854  24.515   3.332
60611W        W20048  35.076  18.720   4.798
60612W        W20049  28.035  17.617   3.237
60613W        W20050  21.576  42.897  12.363
60614W        W20051  23.103  26.458  12.070
60615W        W20052   4.440  41.027   0.432
60616W        W20053  11.721  36.022  12.972
60617W        W20054  21.103  36.999   0.781
60618W        W20055   0.983  21.045   1.747
60619W        W20056  41.453   0.472  13.981
60620W        W20057  42.436   8.179  13.443
60621W        W20058  43.360  15.262  12.444
60622W        W20059  20.739   5.261  12.922
60623W        W20060  23.112   9.336  11.532
60624W        W20061  17.722   6.732   2.396
60625W        W20062  12.260  27.667  10.525
60626W        W20063  32.414  16.601   0.825
60627W        W20064  36.513  40.445   4.831
60628W        W20065  34.091  32.998  10.973
60629W        W20066  21.137  29.665   5.246
60630W        W20067  36.859  42.790   0.334
60631W        W20068   0.972  19.690  10.116
60632W        W20069   6.743  16.578   1.887
60633W        W20070  11.733  14.126  12.923
60634W        W20071  38.442  15.593   3.782
60635W        W20072  13.236   1.459   3.863
60636W        W20073  19.265  20.030  11.535
60637W        W20074  18.152   9.881  10.928
60638W        W20075  15.669  44.970   1.394
60639W        W20076   3.876   9.330  10.532
60640W        W20077  22.209  18.633  13.333
60641W        W20078   8.724  43.804   3.773
60642W        W20079  42.482  23.042  13.352
60643W        W20080  29.489  36.858   3.819
60644W        W20081   4.736  20.653  11.461
60645W        W20082  34.987   8.379  13.466
60646W        W20083   6.421   2.863  10.643
60647W        W20084  21.246  13.662  11.079
60648W        W20085   6.790  30.628   0.961
60649W        W20086  42.447   0.934  10.419
60650W        W20087  44.495  25.101  11.011
60651W        W20088  44.768  38.996   1.755
60652W        W20089  36.521  34.962   0.943
60653W        W20090  22.688  28.673   2.896
60654W        W20091  32.936  35.427   1.260
60655W        W20092  29.941  30.482   0.797
60656W        W20093  31.438  38.006   0.430
60657W        W20094   7.342  41.397   0.943
60658W        W20095  13.636  36.997  12.057
60659W        W20096  31.574   1.314   3.299
60660W        W20097  22.069  23.172   1.379
60661W        W20098  44.501  29.425  11.405
60662W        W20099  23.115  40.807   0.964
60663W        W20100   9.877   7.738   4.217
60664W        W20101  11.187  26.465  12.523
60665W        W20102  43.807   3.275   3.238
60666W        W20103  41.388  27.002   2.237
60667W        W20104  25.022  41.907  10.024
60668W        W20105  41.415  16.758   0.763
60669W        W20106  21.187  22.672   5.630
60670W        W20107  40.526  37.538   5.213
60671W        W20108  16.750  36.350   0.472
60672W        W20109   5.789  39.417  10.493
60673W        W20110  28.541   1.448  11.421
60674W        W20111  31.068  20.666   5.214
60675W        W20112  36.940   8.371  10.889
60676W        W20113  17.652  37.451  11.524
60677W        W20114  41.897  39.868   4.764
60678W        W20115   5.702  38.873   2.831
60679W        W20116  41.014  17.089  13.499
60680W        W20117  38.915  34.023   5.187
60681W        W20118  18.084  24.020   2.338
60682W        W20119   7.703  17.770   3.642
60683W        W20120  16.677  25.647  12.901
60684W        W20121  19.683  41.791  14.902
60685W        W20122  15.669  30.017   4.232
60686W        W20123  30.925   5.856   2.842
60687W        W20124  21.610  31.987  13.848
60688W        W20125  36.940  42.923  11.901
60689W        W20126   2.849   5.427   1.248
60690W        W20127  17.555  23.175  13.399
60691W        W20128  15.750  37.083   2.393
60692W        W20129   7.337  20.639   2.287
60693W        W20130  26.107  43.794   0.287
60694W        W20131  24.682   4.939  11.956
60695W        W20132  23.026  18.545   2.285
60696W        W20133   5.688  43.817  13.918
60697W        W20134  42.286  31.908  12.368
60698W        W20135  28.635  31.920  14.882
60699W        W20136  18.136  32.887  11.989
60700W        W20137  14.652  15.233   0.919
60701W        W20138  25.173   5.888   4.261
60702W        W20139   7.403   1.818   0.931
60703W        W20140  23.512  35.566   1.349
60704W        W20141  38.040  33.620  12.829
60705W        W20142  32.954  44.993   3.147
60706W        W20143  17.592  32.448   0.766
60707W        W20144  14.153  27.084   0.798
60708W        W20145   9.187  29.027  13.536
60709W        W20146  17.572  29.450   1.931
60710W        W20147  18.558  30.948   1.435
60711W        W20148  15.286  26.025  13.010
60712W        W20149  41.898  12.856  12.934
60713W        W20150  26.519  24.043   9.608
60714W        W20151  19.538   7.702  14.895
60715W        W20152  28.081  32.617   3.662
60716W        W20153  39.931   3.934  14.762
60717W        W20154  34.911   0.918   1.838
60718W        W20155  34.480  18.715   0.388
60719W        W20156  27.014  20.722  10.618
60720W        W20157  37.442  32.630  12.495
60721W        W20158  44.493  38.053   2.862
60722W        W20159  27.659  33.969  10.590
60723W        W20160  30.541  35.091   3.299
60724W        W20161  22.088  33.034  11.108
60725W        W20162   4.368  41.934   0.850
60726W        W20163  38.906   4.782   0.770
60727W        W20164  27.941  39.874  11.571
60728W        W20165  29.567  11.742  13.461
60729W        W20166  22.996  39.996   2.838
60730W        W20167   6.761  43.877   1.315
60731W        W20168  19.647  43.834  11.586
60732W        W20169  22.997  21.533  12.026
60733W        W20170   0.927  18.688   2.332
60734W        W20171  13.296  17.164   4.298
60735W        W20172  42.459   9.207  14.510
60736W        W20173  12.800  41.986  11.998
60737W        W20174  31.015  38.385  12.397
60738W        W20175   0.827   2.730   3.340
60739W        W20176  35.018  29.486  10.628
60740W        W20177   3.925  25.162  12.477
60741W        W20178  39.892  36.043   3.231
60742W        W20179  16.302  27.991   3.340
60743W        W20180  16.191  24.989  12.920
60744W        W20181   7.705  40.313   1.753
60745W        W20182  12.280  39.859  12.440
60746W        W20183  13.149  36.941  13.017
60747W        W20184  23.990  27.652   3.382
60748W        W20185  29.519  10.766  13.387
60749W        W20186  40.340  33.448  12.525
60750W        W20187   7.694   6.745   4.231
60751W        W20188  13.625  27.640  11.422
60752W        W20189  21.530  30.099   4.677
60753W        W20190  38.545  14.670   3.827
60754W        W20191  38.476  18.069  12.576
60755W        W20192  12.764  39.834   2.407
60756W        W20193  33.389  13.687   3.212
60757W        W20194  44.849  34.586  11.115
60758W        W20195   0.889  26.614  13.795
60759W        W20196  25.070  39.451   3.724
60760W        W20197  29.475   2.819  10.508
60761W        W20198  14.705  44.480  14.316
60762W        W20199  26.065   5.697  14.939
60763W        W20200  24.073  33.389  11.476
60764W        W20201  12.652  43.792  12.429
60765W        W20202  41.489  12.815  13.317
60766W        W20203  44.463   7.879  14.990
60767W        W20204  20.056  16.140  12.907
60768W        W20205   2.376  23.064  10.596
60769W        W20206   5.884  38.057   0.944
60770W        W20207   7.850  31.520   0.863
60771W        W20208  32.612  37.466  13.470
60772W        W20209  41.946  29.107   0.876
60773W        W20210   8.693  12.781  13.971
60774W        W20211   6.361   9.674   1.383
60775W        W20212  20.254   4.450  14.772
60776W        W20213  36.849  19.573   0.314
60777W        W20214   6.763  29.554   2.801
60778W        W20215  25.056   0.844  10.484
60779W        W20216  17.211  32.556   3.193
60780W        W20217  37.405  17.190   4.282
60781W        W20218   9.153   8.285  11.046
60782W        W20219  26.165  36.928   0.325
60783W        W20220  21.128  17.730  14.484
60784W        W20221   5.783  18.150   2.756
60785W        W20222  39.386  10.764  12.873
60786W        W20223  29.005  15.798  11.002
60787W        W20224  37.864  10.847  11.376
60788W        W20225  37.967  35.526   4.169
60789W        W20226  19.273   7.368  11.605
60790W        W20227  11.162  34.397   2.349
60791W        W20228  19.617  39.845  13.039
60792W        W20229  25.007   0.318  12.953
60793W        W20230  21.600  19.658  14.867
60794W        W20231  28.997  23.128   4.282
60795W        W20232  23.550  34.940  13.863
60796W        W20233  35.555  34.009   0.288
60797W        W20234  44.799   1.398   0.739
60798W        W20235  27.944  44.991   2.290
60799W        W20236  10.358   4.223   1.861
60800W        W20237  30.445   3.930   4.207
60801W        W20238  32.419  32.497   2.694
60802W        W20239  20.607  42.823   2.368
60803W        W20240  27.076  16.621  13.382
60804W        W20241  41.844   3.852   0.463
60805W        W20242  17.063  28.021  11.460
60806W        W20243  20.610   8.668   4.216
60807W        W20244  13.182  36.355   0.305
60808W        W20245  21.216  41.942   1.699
60809W        W20246  26.957  43.889   3.713
60810W        W20247  31.106  43.410   3.184
60811W        W20248  39.404  31.593  12.840
60812W        W20249  11.673  10.809  12.545
60813W        W20250   0.344  34.997  14.471
60814W        W20251  29.972   3.853  11.572
60815W        W20252   7.241  42.516  13.348
60816W        W20253  29.074  14.751  13.358
60817W        W20254  38.022  33.082   1.241
60818W        W20255   0.431   4.234   0.962
60819W        W20256  23.132   5.784  10.996
60820W        W20257  13.721  34.587   1.376
60821W        W20258  42.978   6.380   4.699
60822W        W20259  31.041  33.382   3.651
60823W        W20260   8.246  31.941  13.839
60824W        W20261  20.139  39.881   9.629
60825W        W20262  36.537  15.653   4.782
60826W        W20263  35.981  24.980  12.910
60827W        W20264  26.004  43.771   1.740
60828W        W20265  37.949  10.839  13.474
60829W        W20266  15.763  38.476  12.863
60830W        W20267  13.276  31.603  11.447
60831W        W20268  15.717  25.964  12.844
60832W        W20269   5.805   3.329   3.309
60833W        W20270  25.509   4.221  11.059
60834W        W20271  22.018  32.467   2.818
60835W        W20272   4.761  31.589  10.892
60836W        W20273  28.021  16.763   1.254
60837W        W20274  18.074  42.336  11.940
60838W        W20275  22.686  15.803   3.839
60839W        W20276  39.411  21.105   1.711
60840W        W20277  26.003  35.475   9.482
60841W        W20278  10.841  34.919   0.324
60842W        W20279   8.216   8.845   1.872
60843W        W20280  15.677  33.092   1.893
60844W        W20281   2.469  12.329   0.447
60845W        W20282  35.083  41.446   4.304
60846W        W20283  10.859  42.522  14.767
60847W        W20284  32.066  37.422   0.788
60848W        W20285  33.006  33.049  11.999
60849W        W20286  42.415   0.324   1.442
60850W        W20287  22.742  11.249  13.049
60851W        W20288  38.038  40.421   3.664
60852W        W20289  13.201   2.264  13.439
60853W        W20290   7.412   1.750  12.969
60854W        W20291   0.387  14.590   2.665
60855W        W20292  18.700  27.148  10.967
60856W        W20293  21.541  39.496   2.303
60857W        W20294   2.884   8.296   0.441
60858W        W20295  24.181  38.935  14.807
60859W        W20296  21.586  24.177   2.334
60860W        W20297  26.160  38.344  14.482
60861W        W20298  12.716  10.363  12.392
60862W        W20299  30.479  13.631  14.426
60863W        W20300  33.393   8.856  13.915
60864W        W20301  32.915  10.675  14.988
60865W        W20302  27.092  10.356   5.096
60866W        W20303  26.579  22.093   3.169
60867W        W20304  25.148  26.662   2.356
60868W        W20305  36.545  33.421   3.645
60869W        W20306   5.358  13.796   4.726
60870W        W20307  18.216   4.432  14.974
60871W        W20308  28.591   9.849   2.720
60872W        W20309  12.696   8.738   2.755
60873W        W20310  22.744   4.374   2.838
60874W        W20311  27.514  33.461  12.855
60875W        W20312  30.613  10.349   2.291
60876W        W20313  35.495  12.336  12.005
60877W        W20314  40.471  15.108  11.484
60878W        W20315   5.866  12.163  11.416
60879W        W20316  14.622  11.693   4.280
60880W        W20317   2.451  15.764   2.863
60881W        W20318  23.544  33.096   3.219
60882W        W20319   5.329  19.742  11.977
60883W        W20320   9.817  14.290   1.299
60884W        W20321  28.123  20.231   2.866
60885W        W20322  31.025   3.283  13.978
60886W        W20323  28.571  30.601  11.385
60887W        W20324  22.677  11.797  12.036
60888W        W20325  40.962  37.549   4.129
60889W        W20326  26.587  19.107   1.724
60890W        W20327  21.748  21.682  12.567
60891W        W20328  34.054  11.814   0.305
60892W        W20329  28.465   1.429   2.249
60893W        W20330  31.952   4.382  12.887
60894W        W20331  17.160  14.258   1.448
60895W        W20332  12.184   0.762  12.341
60896W        W20333  22.614   1.397   0.389
60897W        W20334  24.537  30.072  11.477
60898W        W20335  33.613  12.677  12.429
60899W        W20336  31.407  39.050  13.457
60900W        W20337  34.547  20.074  11.398
60901W        W20338  37.949  30.954   1.311
60902W        W20339  13.695   6.346   4.631
60903W        W20340  10.693  14.730   4.164
60904W        W20341  37.925   1.390  13.335
60905W        W20342  18.629   5.690  10.626
60906W        W20343  18.272  42.363   0.292
60907W        W20344   9.207  35.905   2.815
60908W        W20345   5.278  41.033  13.006
60909W        W20346   3.357  41.848   0.298
60910W        W20347  40.798  20.047  13.526
60911W        W20348  41.534   4.300   3.183
60912W        W20349  43.770  25.169   1.262
60913W        W20350  42.970  44.467   1.272
60914W        W20351  11.860  13.687  11.014
60915W        W20352   6.242  15.695   1.897
60916W        W20353  40.822  36.981   2.766
60917W        W20354   1.323  33.060  11.379
60918W        W20355  38.427  33.393  14.334
60919W        W20356  43.292  41.891  13.032
60920W        W20357   2.462  17.665  13.414
60921W        W20358   1.950  21.686   0.810
60922W        W20359  16.754  38.883  12.396
60923W        W20360  13.286  14.190   0.748
60924W        W20361  28.576  19.736   1.363
60925W        W20362  34.394  14.223   0.324
60926W        W20363  27.159  15.242  11.509
60927W        W20364  25.990  35.898   1.840
60928W        W20365  35.480  20.057   1.797
60929W        W20366  21.046   2.758  10.633
60930W        W20367   6.404   3.342  12.881
60931W        W20368   4.352  12.243   3.185
60932W        W20369  11.165  24.126   3.376
60933W        W20370  42.836  13.147  12.032
60934W        W20371  18.708  33.946   4.762
60935W        W20372  17.205  34.053  12.993
60936W        W20373  37.349  16.663  11.590
60937W        W20374   9.196  35.481   4.649
60938W        W20375  12.783  40.336   3.770
60939W        W20376  11.861  40.832   4.738
60940W        W20377  29.143   5.377   1.232
60941W        W20378  39.869  35.882  12.390
60942W        W20379  44.469  40.364   0.954
60943W        W20380  39.419  29.017   0.352
60944W        W20381  38.525  28.628   3.153
60945W        W20382  21.158  18.712   4.244
60946W        W20383  22.055   1.478  11.000
60947W        W20384  26.159  27.039   3.718
60948W        W20385   1.471  17.689   0.789
60949W        W20386  15.822  11.267   3.334
60950W        W20387   7.693   8.376   1.791
60951W        W20388  21.083  25.670  13.982
60952W        W20389   7.246  24.560  12.995
60953W        W20390  14.311  24.200   4.647
60954W        W20391  21.591  31.647  13.538
60955W        W20392  39.847  36.538   3.303
60956W        W20393  29.553  27.605  10.583
60957W        W20394  28.511  25.607   3.359
60958W        W20395  13.239  27.153   1.434
60959W        W20396  16.795  24.063  12.995
60960W        W20397  32.088  23.017  13.393
60961W        W20398  11.857  12.833  11.987
60962W        W20399  36.564   5.714   2.241
60963W        W20400  42.393  18.602  14.308
60964W        W20401  44.984  23.590   4.121
60965W        W20402  24.156  34.543  14.339
60966W        W20403  23.144  36.362  12.970
60967W        W20404  39.374   2.879   2.416
60968W        W20405  20.687   2.351  12.401
60969W        W20406  27.942   7.412   3.671
60970W        W20407   3.326  18.156  10.005
60971W        W20408   2.308  18.127   1.425
60972W        W20409  27.507   1.903   2.742
60973W        W20410  23.083  15.654   4.350
60974W        W20411  42.351  28.053  12.470
60975W        W20412   7.313  39.020   4.275
60976W        W20413  39.388  31.550   4.117
60977W        W20414   5.293  36.097   2.864
60978W        W20415   5.199   0.429  14.769
60979W        W20416  44.415  43.297   0.316
60980W        W20417  20.126  33.501   4.733
60981W        W20418   8.845  27.523  11.402
60982W        W20419   3.758  12.212  12.501
60983W        W20420   7.291  26.982  12.869
60984W        W20421   9.169  18.586  10.408
60985W        W20422  35.023  17.112  12.040
60986W        W20423  26.175   0.385  11.565
60987W        W20424  30.422   7.669  12.541
60988W        W20425   3.271  20.678  13.980
60989W        W20426  31.135  28.019  13.452
60990W        W20427  42.825  33.968  14.469
60991W        W20428  39.945  32.453  10.983
60992W        W20429  34.034  34.404  12.877
60993W        W20430   8.288  34.483   0.768
60994W        W20431   3.381  10.247  11.440
60995W        W20432  44.271   0.855  11.918
60996W        W20433   5.405  11.628   0.272
60997W        W20434  38.530   1.340   3.295
60998W        W20435  14.100   1.338  10.571
60999W        W20436  41.899  16.271  13.468
61000W        W20437  21.664   4.699  10.519
61001W        W20438   0.823  44.397   1.260
61002W        W20439  40.888  38.336   3.356
61003W        W20440  21.086  11.659   4.295
61004W        W20441   4.801  18.240  10.077
61005W        W20442  21.175  39.989   3.227
61006W        W20443  26.031  24.040   2.728
61007W        W20444  17.758  18.224  11.888
61008W        W20445  44.289  17.564  10.979
61009W        W20446  25.042   0.890   3.759
61010W        W20447  13.181  22.100  11.474
61011W        W20448  20.753  28.495   4.197
61012W        W20449  40.971  29.617  12.443
61013W        W20450  17.604  42.408   5.731
61014W        W20451   1.914  43.288  12.827
61015W        W20452   0.332  13.165  14.857
61016W        W20453  11.289  41.455  13.014
61017W        W20454  30.441  24.628  11.445
61018W        W20455  35.069  28.982  11.085
61019W        W20456  11.334  10.877   0.483
61020W        W20457   6.194  34.063  11.114
61021W        W20458  11.265  38.334  12.385
61022W        W20459  36.974  32.122  10.591
61023W        W20460  41.024   6.222  13.374
61024W        W20461  20.032  18.190  13.009
61025W        W20462  27.554   2.472   4.597
61026W        W20463  10.635   8.257   4.608
61027W        W20464  26.512  14.145  10.036
61028W        W20465  20.701  13.290   0.299
61029W        W20466  24.520   3.935   2.782
61030W        W20467  27.038  33.938  13.329
61031W        W20468  38.558  37.895   0.770
61032W        W20469  14.229  13.152   0.859
61033W        W20470  28.158   3.733   0.822
61034W        W20471  43.802  39.884   2.814
61035W        W20472   4.707  31.462   2.711
61036W        W20473   2.881  44.947  11.600
61037W        W20474   3.305  20.257   3.156
61038W        W20475  24.527  42.359   2.737
61039W        W20476  26.042  37.886   2.861
61040W        W20477   0.981  28.153  12.952
61041W        W20478  23.098  35.517  10.460
61042W        W20479  27.571  17.193  13.955
61043W        W20480  14.262  14.194   1.395
61044W        W20481   4.884  30.988  11.996
61045W        W20482  14.633  43.845   4.632
61046W        W20483  40.342  17.791  11.012
61047W        W20484  29.526  35.457   3.221
61048W        W20485  20.161  12.761   3.814
61049W        W20486  27.023  13.648  11.921
61050W        W20487  28.166  43.966   3.741
61051W        W20488   1.411  37.475  13.316
61052W        W20489   2.942  32.071  14.414
61053W        W20490  31.525  31.116  13.438
61054W        W20491  27.047  12.666   1.439
61055W        W20492   5.843  15.136  14.989
61056W        W20493  31.442  28.500   3.820
61057W        W20494  25.058  18.056   0.737
61058W        W20495   1.335  13.780   3.760
61059W        W20496  36.523  26.205  11.103
61060W        W20497  18.198  19.599  14.006
61061W        W20498  37.544  17.079   3.382
61062W        W20499  15.293  18.725   2.731
61063W        W20500   8.299  15.164   0.939
61064W        W20501  40.951   1.779  10.537
61065W        W20502  40.326  23.012   2.244
61066W        W20503  34.054   2.919  11.972
61067W        W20504  14.183  27.655  12.909
61068W        W20505  22.588  11.166   0.368
61069W        W20506   6.840   2.894   2.765
61070W        W20507  42.340  44.289  14.846
61071W        W20508   1.869  31.130  13.412
61072W        W20509   7.309  10.139  13.399
61073W        W20510  30.476  18.238  12.450
61074W        W20511   2.903  17.186   3.169
61075W        W20512  29.653  19.705  10.123
61076W        W20513   0.252   6.231  12.947
61077W        W20514  23.104  25.001   1.862
61078W        W20515  30.623  25.984   1.246
61079W        W20516  15.206  19.111  11.041
61080W        W20517  30.057   4.868   1.934
61081W        W20518  23.037  20.071   4.695
61082W        W20519  13.221  21.538   1.892
61083W        W20520  26.181   5.878  12.845
61084W        W20521  20.736  28.092  14.964
61085W        W20522  43.876   4.912   1.345
61086W        W20523  12.136  24.602  11.073
61087W        W20524  36.852  11.641   1.922
61088W        W20525  15.100   8.720   3.182
61089W        W20526  14.306   3.858   3.786
61090W        W20527   7.296  13.793   0.443
61091W        W20528   3.283  28.643  12.577
61092W        W20529  20.232  39.965  10.528
61093W        W20530  29.938  12.809  11.122
61094W        W20531  25.215  18.159  11.917
61095W        W20532  10.673   6.784  12.395
61096W        W20533  25.598  37.364   0.460
61097W        W20534  19.240  15.796   2.699
61098W        W20535  33.457  11.804   0.845
61099W        W20536  17.560  43.863  10.451
61100W        W20537  39.377  22.571   3.357
61101W        W20538  34.374  29.506  14.004
61102W        W20539  14.651  26.605   3.655
61103W        W20540   8.854  43.937   0.858
61104W        W20541   5.359  11.315  13.934
61105W        W20542  19.668  14.758   4.814
61106W        W20543  11.852  40.436   5.231
61107W        W20544   5.876   9.711  13.376
61108W        W20545  41.816  22.545  11.378
61109W        W20546  12.335  19.051  10.473
61110W        W20547  11.732  36.521  12.902
61111W        W20548  18.155  18.182   3.173
61112W        W20549  36.433   7.894   0.297
61113W        W20550  13.287  28.117  11.056
61114W        W20551  16.810  29.458   1.906
61115W        W20552  12.685  40.856  12.048
61116W        W20553   2.232  15.791   3.351
61117W        W20554   3.399  43.966   3.830
61118W        W20555  27.188   2.276   4.229
61119W        W20556  31.109  19.596   1.443
61120W        W20557  18.722  26.476  14.947
61121W        W20558  39.395   2.962   3.798
61122W        W20559  31.054  42.311   1.389
61123W        W20560   3.331  25.484   3.833
61124W        W20561  34.395  39.444   4.120
61125W        W20562  14.625  37.451  10.950
61126W        W20563  32.943  36.506  13.001
61127W        W20564  41.815  34.010  14.485
61128W        W20565  27.960  30.142  13.977
61129W        W20566  23.693  41.036   2.851
61130W        W20567  24.591  35.939  12.829
61131W        W20568  40.992   7.802  13.921
61132W        W20569  10.359  35.520  10.548
61133W        W20570  23.685  33.418   9.963
61134W        W20571  12.214  14.631   0.366
61135W        W20572  23.059  32.512   2.833
61136W        W20573  18.169  39.835   2.822
61137W        W20574  29.980   2.236  12.553
61138W        W20575  42.467   1.299  13.542
61139W        W20576  20.114  43.983   2.217
61140W        W20577   9.257  43.305   1.816
61141W        W20578  42.283  32.438   2.679
61142W        W20579  19.765   9.705  12.529
61143W        W20580   8.238  38.485  11.599
61144W        W20581   1.404  38.509   1.277
61145W        W20582  44.437  23.730   0.800
61146W        W20583  36.910  25.981   4.300
61147W        W20584  16.090  38.468   4.792
61148W        W20585   4.228  34.976   4.302
61149W        W20586  19.694  35.383  13.046
61150W        W20587   7.706  21.715   1.859
61151W        W20588   4.741  40.462  10.405
61152W        W20589   9.330   9.176   3.170
61153W        W20590  36.963  21.192  11.478
61154W        W20591  37.074  41.302  14.354
61155W        W20592  23.736   5.754  12.467
61156W        W20593   2.917  20.191  13.938
61157W        W20594   5.378  31.541  12.915
61158W        W20595  29.085  42.957  12.552
61159W        W20596   6.790  36.083  14.780
61160W        W20597  41.014  33.594  11.390
61161W        W20598   2.375  17.780   1.735
61162W        W20599  26.475  31.634  11.111
61163W        W20600   3.871  15.265  10.969
61164W        W20601  11.699  28.462  10.460
61165W        W20602  16.790  40.990   0.785
61166W        W20603   6.287  24.510   4.702
61167W        W20604  18.238  17.286  12.364
61168W        W20605  25.500  34.095  14.918
61169W        W20606   0.866  27.526   4.790
61170W        W20607  10.236   6.223  12.452
61171W        W20608  32.897  26.049  10.954
61172W        W20609  40.022  38.532   4.131
61173W        W20610   8.164  16.197  11.580
61174W        W20611   2.766   4.852  10.999
61175W        W20612  15.100  36.975   4.155
61176W        W20613  24.115  24.073   1.378
61177W        W20614  29.570  18.251  12.493
61178W        W20615  18.110  37.486   0.960
61179W        W20616  19.672  15.225   5.186
61180W        W20617  15.700  32.918  14.289
61181W        W20618   5.825  40.014  12.408
61182W        W20619  27.077  26.581   4.794
61183W        W20620  34.409  39.349   2.880
61184W        W20621  20.661  32.635   2.243
61185W        W20622  35.491  22.654  11.601
61186W        W20623   8.368  38.445   1.731
61187W        W20624  27.525  43.884   2.330
61188W        W20625   7.289   3.397   2.179
61189W        W20626  31.152  14.768   3.346
61190W        W20627  10.711  42.305   2.282
61191W        W20628  22.553  19.645  12.431
61192W        W20629  17.752  34.922  11.907
61193W        W20630  10.207   4.354   1.423
61194W        W20631  41.426   0.979   0.760
61195W        W20632  20.059  20.579   1.396
61196W        W20633  39.058  23.027   4.274
61197W        W20634   9.827  20.091  11.390
61198W        W20635  34.522  33.601  13.943
61199W        W20636  22.055  14.604  10.492
61200W        W20637   0.465  16.765   1.758
61201W        W20638  13.830  18.200   4.301
61202W        W20639   1.798  32.427   2.299
61203W        W20640  23.997  32.902   2.715
61204W        W20641  40.462  28.995   1.431
61205W        W20642  20.689  18.686  12.552
61206W        W20643   4.349   2.360  10.978
61207W        W20644  37.939  10.307   1.383
61208W        W20645  30.557   2.959  14.801
61209W        W20646  29.582   4.772   3.744
61210W        W20647  32.101  24.669   1.782
61211W        W20648  32.127   7.189   4.744
61212W        W20649   8.280  11.773   0.418
61213W        W20650  12.808   7.672  10.479
61214W        W20651  23.166  12.804   0.247
61215W        W20652   3.249  36.053   0.459
61216W        W20653  27.950  18.669  12.450
61217W        W20654   9.291  44.334   1.734
61218W        W20655  35.435   9.391  10.502
61219W        W20656  27.090  21.591   3.255
61220W        W20657  11.363  14.686  12.422
61221W        W20658   7.239  10.850  11.405
61222W        W20659   9.316  31.499   2.842
61223W        W20660  36.552   6.270   5.128
61224W        W20661  11.651   6.693  10.635
61225W        W20662  36.984  22.130  12.577
61226W        W20663  16.783  17.190   4.687
61227W        W20664  30.489  11.294   2.357
61228W        W20665  43.394  17.755   1.698
61229W        W20666   8.227   6.356   2.266
61230W        W20667  31.441  22.027   0.918
61231W        W20668  11.795  40.828  14.031
61232W        W20669  17.785  21.615   2.871
61233W        W20670  22.691  35.100  14.277
61234W        W20671  28.525  41.930   3.686
61235W        W20672  15.818  25.197   0.967
61236W        W20673   4.875  14.684  10.579
61237W        W20674   4.301  42.420  14.854
61238W        W20675  36.071  32.633   0.832
61239W        W20676   6.768   9.754  13.404
61240W        W20677  12.154  12.693  10.928
61241W        W20678  36.972  22.551  10.524
61242W        W20679  33.878  38.391   0.277
61243W        W20680  33.951  38.390   1.713
61244W        W20681  11.679  32.946  14.881
61245W        W20682  34.439  18.062  12.410
61246W        W20683  40.053  13.117   1.428
61247W        W20684  20.595  13.292   1.803
61248W        W20685   1.797  41.538   3.642
61249W        W20686  36.418  11.760   3.711
61250W        W20687  18.683   1.473  10.462
61251W        W20688  17.764   2.894  14.014
61252W        W20689  24.199  35.044  13.430
61253W        W20690  37.870  15.689  10.408
61254W        W20691  16.199  22.646   2.187
61255W        W20692  12.645  20.760  11.508
61256W        W20693  27.448  10.171  14.986
61257W        W20694  30.909   1.476   4.189
61258W        W20695  26.965  19.195  11.602
61259W        W20696  11.177  10.713  12.552
61260W        W20697  36.009  42.457   3.376
61261W        W20698  34.601  14.326   2.816
61262W        W20699  32.636  31.977   1.345
61263W        W20700  13.618   3.267   0.267
61264W        W20701  22.066   5.241   3.380
61265W        W20702  13.295   6.919   4.653
61266W        W20703  39.019  41.859  13.863
61267W        W20704  40.880  18.138   4.346
61268W        W20705  24.686  21.161  11.394
61269W        W20706  14.763   4.220   3.196
61270W        W20707  41.903   7.266  10.947
61271W        W20708  22.704  22.246   3.867
61272W        W20709   4.447  11.670   4.300
61273W        W20710   0.387  35.092   1.409
61274W        W20711  32.927  22.219   2.823
61275W        W20712  23.605  41.378  13.463
61276W        W20713  43.946  43.392  10.561
61277W        W20714   0.322  29.558   1.901
61278W        W20715   9.174  24.612  10.415
61279W        W20716  23.050  38.566  12.567
61280W        W20717   5.760   5.827  13.913
61281W        W20718  28.060  28.948  13.493
61282W        W20719   2.338  43.002  14.769
61283W        W20720  23.578  14.604  11.082
61284W        W20721  16.738  40.440  13.043
61285W        W20722  16.092  17.135   1.314
61286W        W20723  31.450   8.223  11.446
61287W        W20724  32.518   4.435   4.289
61288W        W20725  30.655  32.041  12.548
61289W        W20726  13.229  13.622  11.565
61290W        W20727   1.742   2.315  14.885
61291W        W20728  10.347  26.468   0.388
61292W        W20729  15.157  39.362   3.835
61293W        W20730  29.020  36.592  14.924
61294W        W20731  27.953  38.898   2.229
61295W        W20732   4.914  19.237  12.072
61296W        W20733  23.109  27.662  11.961
61297W        W20734   6.900  25.166  14.849
61298W        W20735  40.460  22.137  10.982
61299W        W20736  36.503  23.634  14.822
61300W        W20737   7.674  25.647  13.531
61301W        W20738  20.114  23.122   3.846
61302W        W20739  40.387  26.500   0.445
61303W        W20740  29.950  10.202  14.981
61304W        W20741  18.197  33.038  13.352
61305W        W20742  24.649   4.708   4.775
61306W        W20743  37.955  22.581   1.415
61307W        W20744  10.368  31.633  14.986
61308W        W20745  40.964  38.369   1.842
61309W        W20746  16.707  12.337  12.524
61310W        W20747  20.189   2.414  13.499
61311W        W20748  21.567  38.979  11.064
61312W        W20749  27.040  21.125   1.221
61313W        W20750  30.437  23.064  12.003
61314W        W20751  17.637   5.769   1.935
61315W        W20752  12.215  34.012  14.826
61316W        W20753  21.697  40.985  13.934
61317W        W20754  19.566  20.243  10.447
61318W        W20755  43.438  34.936   4.210
61319W        W20756  24.103  16.794  13.312
61320W        W20757  33.484   1.278   1.450
61321W        W20758  37.911  21.152  12.072
61322W        W20759  21.095  28.493   0.925
61323W        W20760  23.228   1.953   4.652
61324W        W20761  38.997   5.429   2.822
61325W        W20762   0.756  22.732  11.126
61326W        W20763  40.414  40.853  14.793
61327W        W20764  36.033  10.728  10.923
61328W        W20765  39.416  30.996   4.667
61329W        W20766  25.582  38.390   4.644
61330W        W20767  41.826  24.678  11.994
61331W        W20768  21.543  44.931   4.601
61332W        W20769   0.314  11.264   2.795
61333W        W20770  21.249   5.851   2.705
61334W        W20771  31.963  18.095   0.289
61335W        W20772  40.383  29.658   1.389
61336W        W20773  32.540  11.623   0.763
61337W        W20774   2.342  27.670  13.792
61338W        W20775  36.379  36.442  12.048
61339W        W20776  44.463  23.562  11.920
61340W        W20777  41.021  30.475  13.530
61341W        W20778   1.795  30.031  12.355
61342W        W20779  27.129  44.487  14.383
61343W        W20780  11.855   7.272   1.261
61344W        W20781  17.624  12.848   2.272
61345W        W20782  41.293   0.389  11.548
61346W        W20783  31.543  40.495  11.890
61347W        W20784   1.940  11.721  13.940
61348W        W20785   4.230  44.795   4.215
61349W        W20786  41.007  41.342   0.270
61350W        W20787  21.018   4.777   3.186
61351W        W20788   2.948   9.729   0.865
61352W        W20789  22.165  14.613   0.804
61353W        W20790  26.956  17.632  13.830
61354W        W20791  30.505  37.396   0.909
61355W        W20792  31.946  30.618   3.797
61356W        W20793  32.127  32.547  11.065
61357W        W20794   3.350  22.643   4.760
61358W        W20795  23.232  12.156  11.984
61359W        W20796   4.858  36.858   3.205
61360W        W20797   2.766  25.576   2.802
61361W        W20798   0.444   8.386   3.178
61362W        W20799   9.231  20.186  11.862
61363W        W20800  22.075  11.322  13.020
61364W        W20801   0.802   1.250  11.608
61365W        W20802  38.555  15.732  14.906
61366W        W20803  17.779  41.531   0.764
61367W        W20804  44.481  14.205   3.248
61368W        W20805  23.671  25.169   3.190
61369W        W20806  10.667  40.466  11.964
61370W        W20807  30.547  15.779   0.942
61371W        W20808   8.850  41.436  12.381
61372W        W20809  32.992   8.826   1.906
61373W        W20810  44.362  14.198   2.710
61374W        W20811  31.083  36.491   4.352
61375W        W20812  20.565  14.812  13.473
61376W        W20813  14.739  16.662  13.479
61377W        W20814  26.057  43.811   1.276
61378W        W20815  30.040  39.550  11.080
61379W        W20816   6.892  44.874  13.460
61380W        W20817   3.882  38.538  12.579
61381W        W20818  19.736  35.052  11.567
61382W        W20819   7.278  17.283   2.785
61383W        W20820  34.371  18.631  13.357
61384W        W20821  37.065  24.084  13.542
61385W        W20822   0.778  35.527  11.896
61386W        W20823   6.904   0.888   3.681
61387W        W20824  20.624  22.542   1.766
61388W        W20825   7.708  24.159  12.998
61389W        W20826  40.368  22.563  11.951
61390W        W20827  10.753  14.729   2.265
61391W        W20828  41.357  28.470  11.423
61392W        W20829  22.198  21.125   0.952
61393W        W20830  41.844  25.702   2.785
61394W        W20831   5.277   8.860  10.155
61395W        W20832  41.374  38.973   1.852
61396W        W20833  16.209   5.330  13.817
61397W        W20834   8.343  21.106   2.210
61398W        W20835  41.831  21.559   1.848
61399W        W20836   8.882   5.243  12.897
61400W        W20837  17.667   0.455   1.325
61401W        W20838  30.925  36.557   1.780
61402W        W20839  21.570   7.802   2.681
61403W        W20840  36.538  33.559   4.353
61404W        W20841  33.917  33.410  14.318
61405W        W20842   8.742  34.398   2.817
61406W        W20843  33.536   0.777   2.890
61407W        W20844  34.002  30.947  10.959
61408W        W20845  10.178  14.800  13.986
61409W        W20846  24.114  28.021  12.958
61410W        W20847  20.177  29.034   5.315
61411W        W20848  17.088  22.046   0.920
61412W        W20849  27.481   4.929  14.501
61413W        W20850  34.884   2.742   4.761
61414W        W20851  42.902   6.290  13.441
61415W        W20852  33.958  12.828  10.952
61416W        W20853  17.725  35.516  12.909
61417W        W20854  27.522  38.374  11.398
61418W        W20855  18.153  36.044  10.426
61419W        W20856   5.866  15.174  12.938
61420W        W20857  30.908   2.832  13.448
61421W        W20858  14.806  41.904   1.699
61422W        W20859  22.745  41.893  14.466
61423W        W20860  21.082  23.496   2.302
61424W        W20861  14.172  11.220   4.331
61425W        W20862  20.218   6.718  12.054
61426W        W20863  16.087  15.779   0.873
61427W        W20864   4.799  18.734   4.628
61428W        W20865   8.731  18.077  11.024
61429W        W20866  24.533  41.821  14.922
61430W        W20867  36.533  26.124   1.888
61431W        W20868  21.066  14.659  11.430
61432W        W20869  12.260  38.962   3.701
61433W        W20870  42.505  30.441  14.509
61434W        W20871   7.897  25.024  12.469
61435W        W20872  35.883  28.510  14.378
61436W        W20873   1.280  21.233   3.212
61437W        W20874  43.983  42.922  10.584
61438W        W20875  19.204  22.038  11.488
61439W        W20876   5.859  29.451   4.744
61440W        W20877  13.827   9.322  14.847
61441W        W20878  12.299  28.039   0.445
61442W        W20879  18.056  10.163   3.160
61443W        W20880  18.220   9.826  14.030
61444W        W20881   0.340  36.017   0.304
61445W        W20882  22.177   9.151   3.266
61446W        W20883  39.011  15.588  10.632
61447W        W20884  12.646  33.955  10.589
61448W        W20885  15.327  18.105   1.788
61449W        W20886   9.376  35.942  13.919
61450W        W20887  36.068  20.154   3.348
61451W        W20888  15.686  44.279   3.303
61452W        W20889  18.784   3.826   3.187
61453W        W20890  37.410  42.416   3.349
61454W        W20891  19.605  38.020   1.819
61455W        W20892  41.823   0.344   4.775
61456W        W20893  28.610  11.627   2.833
61457W        W20894   2.772  14.217  12.823
61458W        W20895  24.580   0.313   2.702
61459W        W20896  21.706  13.657  11.606
61460W        W20897  26.501  12.791   5.116
61461W        W20898  19.251  24.047   3.337
61462W        W20899  26.020  24.228  14.779
61463W        W20900  36.859  38.511  13.432
61464W        W20901  27.561   6.694   2.681
61465W        W20902  17.788  42.403   5.151
61466W        W20903  41.489  40.937  13.519
61467W        W20904  42.291  42.847  14.988
61468W        W20905  10.751  42.873   1.289
61469W        W20906   6.383  14.200  13.377
61470W        W20907  15.754  29.031   3.651
61471W        W20908  38.424  41.849  10.556
61472W        W20909  43.297  16.638  13.414
61473W        W20910  17.145  43.777  11.858
61474W        W20911  11.756  39.936   9.920
61475W        W20912  36.057  10.738   2.671
61476W        W20913  23.154  10.834  12.061
61477W        W20914   4.437  44.458  14.417
61478W        W20915  23.053  32.886   3.773
61479W        W20916  17.227  17.731   3.831
61480W        W20917  24.119  19.607   3.714
61481W        W20918  34.465  31.078  11.403
61482W        W20919  18.262  22.710  11.471
61483W        W20920  13.610  38.479   4.794
61484W        W20921  21.527   0.794   1.750
61485W        W20922  20.693  26.687   4.235
61486W        W20923   5.773   8.667   4.615
61487W        W20924   8.784  42.385   2.314
61488W        W20925  14.325  15.168   1.927
61489W        W20926  16.100  37.916   1.928
61490W        W20927  39.352  14.761  11.994
61491W        W20928  10.369   6.803   3.682
61492W        W20929  32.627  38.501  14.778
61493W        W20930  42.862   3.716  10.427
61494W        W20931   3.876  31.916   1.255
61495W        W20932  27.086  19.606  12.892
61496W        W20933  32.887  37.904   4.279
61497W        W20934  22.230   2.378  10.421
61498W        W20935  28.579  27.091   4.679
61499W        W20936  17.781  31.971  13.361
61500W        W20937  39.387   7.686  12.864
61501W        W20938   8.880  41.425  10.549
61502W        W20939  31.091  37.453  11.533
61503W        W20940  24.603   1.821  14.980
61504W        W20941  10.184  30.948  10.552
61505W        W20942  11.803   8.855   4.331
61506W        W20943  40.485  30.453  13.412
61507W        W20944  38.474  32.544   1.331
61508W        W20945  43.299  28.022  12.996
61509W        W20946  28.115  39.052  13.447
61510W        W20947  16.576  35.004  14.333
61511W        W20948  12.695  30.001   1.287
61512W        W20949  14.823  34.941  13.533
61513W        W20950  33.552  27.050  14.795
61514W        W20951  22.584  19.655  14.865
61515W        W20952  25.189  16.133  12.544
61516W        W20953  29.924  26.980  13.314
61517W        W20954   6.298   2.366   4.152
61518W        W20955  22.223  39.367  12.977
61519W        W20956  25.103  30.568   1.720
61520W        W20957  25.128  18.669   3.654
61521W        W20958  19.741   6.368  14.469
61522W        W20959  32.451  29.947  14.982
61523W        W20960  42.450  26.582  12.452
61524W        W20961  15.226  27.447   1.282
61525W        W20962   1.817  12.242   3.334
61526W        W20963  21.160  41.875   4.131
61527W        W20964  36.059  44.363  11.909
61528W        W20965  29.530  32.080   2.818
61529W        W20966  18.070  34.914  11.524
61530W        W20967  40.959   3.766   1.889
61531W        W20968  43.986  26.995  14.334
61532W        W20969  32.606  12.122   3.233
61533W        W20970   8.793  25.028   0.733
61534W        W20971   4.328  19.222   2.360
61535W        W20972  28.653  33.113  11.039
61536W        W20973  21.152  19.244   3.796
61537W        W20974  12.717   2.840   2.352
61538W        W20975  18.612  13.687   2.300
61539W        W20976  26.507  30.543   2.901
61540W        W20977  14.815  29.104  14.828
61541W        W20978  43.847   3.312  13.884
61542W        W20979   0.338   7.826   0.340
61543W        W20980  33.950   5.224  12.908
61544W        W20981   1.406   7.408   4.832
61545W        W20982   9.327  21.179  11.071
61546W        W20983  12.162  38.932   2.667
61547W        W20984  37.905  30.023   3.298
61548W        W20985   9.153   8.771   3.210
61549W        W20986  21.522  31.581   4.239
61550W        W20987  25.533  19.624   4.790
61551W        W20988  38.832  28.676   2.841
61552W        W20989   8.201  12.153  11.481
61553W        W20990  15.179  44.349  10.892
61554W        W20991  38.415  20.089  14.970
61555W        W20992  41.038  37.010   4.166
61556W        W20993   6.356  10.694  14.448
61557W        W20994  19.113  33.946   0.458
61558W        W20995  27.620  11.778   3.299
61559W        W20996  19.739  27.674   4.784
61560W        W20997   8.673  18.710   2.696
61561W        W20998  16.310   3.354  11.107
61562W        W20999  36.989  15.288   3.375
61563W        W21000   8.870  15.716   2.233
61564W        W21001  11.348  30.564   2.326
61565W        W21002  14.615  36.352  13.328
61566W        W21003   3.378  22.231   3.699
61567W        W21004  33.482   1.806   1.360
61568W        W21005  20.578  32.397  11.117
61569W        W21006  15.155  20.551   1.815
61570W        W21007  25.549   5.813   4.653
61571W        W21008   8.775  44.484   1.917
61572W        W21009  27.007   8.786   4.294
61573W        W21010   6.271  28.967  12.569
61574W        W21011  12.192  37.340  11.898
61575W        W21012  11.224  19.194  14.989
61576W        W21013   0.272  17.793  13.886
61577W        W21014  36.900  19.077  12.393
61578W        W21015  33.434   3.414   3.327
61579W        W21016   3.765  40.849   4.310
61580W        W21017  23.538  11.194   5.286
61581W        W21018  40.543  19.134  12.860
61582W        W21019   3.456   8.789  12.502
61583W        W21020  38.382  21.745   0.815
61584W        W21021  11.766   4.380  13.469
61585W        W21022  31.147   8.258   4.241
61586W        W21023  21.672  44.009   0.910
61587W        W21024  43.296  25.080  13.869
61588W        W21025  32.415   9.189   2.301
61589W        W21026  44.916  11.199   3.166
61590W        W21027  43.348   9.762  13.968
61591W        W21028  37.557  31.931   4.669
61592W        W21029  20.592  41.039   1.889
61593W        W21030  33.548  34.575   2.256
61594W        W21031  40.969  33.421   4.658
61595W        W21032  30.065  24.510  10.477
61596W        W21033  24.036  16.206  14.842
61597W        W21034  18.178  18.677  14.369
61598W        W21035  32.104   3.933   3.799
61599W        W21036  19.615  10.650   2.665
61600W        W21037  16.771   2.316   2.316
61601W        W21038  20.053  25.481   2.903
61602W        W21039  29.054   8.351   3.754
61603W        W21040   8.899  36.976   3.284
61604W        W21041  12.810  29.047  14.925
61605W        W21042  22.052  29.502  13.815
61606W        W21043  30.081   1.790  10.405
61607W        W21044  27.974  42.782   1.238
61608W        W21045  30.142   0.492   0.805
61609W        W21046  20.147  21.251  10.476
61610W        W21047  33.091  26.562   3.652
61611W        W21048  36.946  27.190  12.482
61612W        W21049  22.095  31.053   2.817
61613W        W21050  33.557  24.569  14.787
61614W        W21051  15.698  19.717   1.451
61615W        W21052  42.779  35.049  10.908
61616W        W21053  35.977  28.599   2.353
61617W        W21054   0.767  27.144  12.014
61618W        W21055  35.402  39.546   0.357
61619W        W21056   3.223   0.938   2.714
61620W        W21057  39.840  42.298  13.436
61621W        W21058  12.185  12.748   2.812
61622W        W21059   0.838   6.765  11.595
61623W        W21060  12.633  22.729   4.141
61624W        W21061  14.721  20.684  12.446
61625W        W21062  33.397  10.670  10.627
61626W        W21063   8.162   5.378   0.404
61627W        W21064  22.526  42.345  14.356
61628W        W21065   7.325  28.144  14.810
61629W        W21066  31.568  25.012   4.794
61630W        W21067  23.549  42.972   1.368
61631W        W21068  43.921  33.596   2.897
61632W        W21069  25.617   0.797   4.778
61633W        W21070  39.524   8.872   4.725
61634W        W21071  19.739  24.086   3.313
61635W        W21072  36.895  24.628  11.524
61636W        W21073  24.688  19.653   0.439
61637W        W21074  32.412  44.310  10.551
61638W        W21075   5.928  37.061   3.220
61639W        W21076  39.424  39.935   0.767
61640W        W21077  39.955  27.612   2.263
61641W        W21078  24.118  33.468   3.770
61642W        W21079  38.883   7.696  12.849
61643W        W21080  23.611  31.420  13.440
61644W        W21081  42.813  19.598  14.471
61645W        W21082   0.298  37.534   3.155
61646W        W21083  22.746   6.890   0.376
61647W        W21084  22.566  30.999  10.905
61648W        W21085  18.763  14.205   1.332
61649W        W21086  42.813  31.919   1.414
61650W        W21087  32.068  10.837   3.847
61651W        W21088  20.737  32.938  13.043
61652W        W21089  16.796  44.491   3.361
61653W        W21090  18.653  41.917  13.352
61654W        W21091  28.619  28.457  10.513
61655W        W21092  23.221  32.575  13.041
61656W        W21093  24.214  10.147  10.581
61657W        W21094  23.050  31.636   4.746
61658W        W21095  35.049  12.247  12.936
61659W        W21096  34.449  40.478   0.808
61660W        W21097  36.864  17.661   1.923
61661W        W21098  42.936  25.509   4.838
61662W        W21099  33.501  34.928  12.505
61663W        W21100  34.913   4.936   4.175
61664W        W21101  29.045  44.799  14.973
61665W        W21102  42.823  35.503   1.245
61666W        W21103  31.056  18.175   2.689
61667W        W21104   1.897   0.296  11.959
61668W        W21105   3.783  15.234  11.922
61669W        W21106  26.535  27.077   0.747
61670W        W21107  14.107  20.727   2.343
61671W        W21108  44.447   3.749  14.846
61672W        W21109  26.490  41.326  14.806
61673W        W21110  17.646  43.324  11.553
61674W        W21111  39.413  32.992   0.912
61675W        W21112  38.860  14.830  10.964
61676W        W21113   9.657   9.645  10.582
61677W        W21114   9.853  32.526   3.713
61678W        W21115  17.150  17.072   1.223
61679W        W21116   0.778  23.706  10.929
61680W        W21117  31.602  20.569   4.827
61681W        W21118  17.291  35.432   4.345
61682W        W21119   9.391  19.775   1.392
61683W        W21120   8.878  12.693  14.440
61684W        W21121  13.671  26.537   0.864
61685W        W21122  44.445   1.479  12.841
61686W        W21123  35.546  30.517  14.791
61687W        W21124  37.934  17.192  12.067
61688W        W21125  29.649  35.495   4.331
61689W        W21126  37.366  34.867  10.589
61690W        W21127   6.235   3.217  14.319
61691W        W21128   2.736  31.548   2.687
61692W        W21129  10.288  39.822   2.402
61693W        W21130  28.525  37.851  12.024
61694W        W21131  27.455  21.181  13.440
61695W        W21132   6.402  34.425  13.824
61696W        W21133  25.204   9.338   4.264
61697W        W21134   9.288  32.891  12.890
61698W        W21135  42.019  26.616   0.300
61699W        W21136  24.563   9.314  14.962
61700W        W21137   6.259  15.592   3.205
61701W        W21138  11.666  16.201   1.842
61702W        W21139  29.659  39.512  11.093
61703W        W21140   5.871  19.656   1.404
61704W        W21141  15.630  43.874  14.397
61705W        W21142  32.610  40.007   2.252
61706W        W21143  38.528   3.794  10.419
61707W        W21144  41.006  26.123   4.627
61708W        W21145  14.202  21.737   2.416
61709W        W21146  25.500  40.986   3.665
61710W        W21147  31.579  16.182  11.536
61711W        W21148  25.631  30.626   3.871
61712W        W21149  26.064  34.115   0.870
61713W        W21150  32.924  23.667   1.272
61714W        W21151  33.089   8.773  14.927
61715W        W21152  14.100  10.269   4.724
61716W        W21153  20.631  38.932   1.920
61717W        W21154  22.611   1.964  13.490
61718W        W21155   7.325  29.521  13.809
61719W        W21156  24.721  24.121   4.144
61720W        W21157  43.317  30.995   4.716
61721W        W21158  29.655   4.275   2.897
61722W        W21159  10.840  35.577  11.870
61723W        W21160  30.598  39.385  11.975
61724W        W21161  15.760   2.806   2.824
61725W        W21162  24.666  27.542  10.574
61726W        W21163  38.072  36.857   4.739
61727W        W21164   6.902  13.258  12.096
61728W        W21165   2.950  26.175  12.972
61729W        W21166  27.066  43.002   5.244
61730W        W21167  12.150   1.949  13.801
61731W        W21168  22.210  29.115  10.956
61732W        W21169  42.830  30.121  11.493
61733W        W21170  30.544  16.195   2.827
61734W        W21171  24.543   2.293  11.872
61735W        W21172  15.210  43.337  12.358
61736W        W21173  23.138   8.296   3.268
61737W        W21174   9.382   4.799  13.802
61738W        W21175  43.365  23.529   2.259
61739W        W21176  16.128   4.927  12.087
61740W        W21177   9.663  32.912  13.401
61741W        W21178  31.901  25.131  12.955
61742W        W21179  13.160  32.585   0.434
61743W        W21180  27.565  34.110  14.435
61744W        W21181  18.748   6.693   4.659
61745W        W21182  10.777  24.075   3.754
61746W        W21183  40.925  19.579   3.806
61747W        W21184  33.963  29.490   3.244
61748W        W21185  28.543   8.290  12.079
61749W        W21186   2.465  11.255  13.912
61750W        W21187  32.556  32.561   3.363
61751W        W21188  29.061  17.788   4.156
61752W        W21189  30.079  29.578  14.908
61753W        W21190  34.868  35.928   3.840
61754W        W21191  10.327   7.766  14.962
61755W        W21192   7.398  20.173  14.508
61756W        W21193  30.035  16.298   4.658
61757W        W21194  41.511  37.419  10.599
61758W        W21195  35.992  42.290  11.111
61759W        W21196  19.264  15.236  13.436
61760W        W21197  10.645   3.816  14.817
61761W        W21198  42.434   6.680   2.303
61762W        W21199   8.369  28.070  13.451
61763W        W21200  26.095  22.640   1.776
61764W        W21201  36.091  35.948  10.533
61765W        W21202  28.611  36.441  14.832
61766W        W21203  31.570  12.736  13.542
61767W        W21204  41.037  41.472   3.721
61768W        W21205  36.485   3.428  14.461
61769W        W21206  23.996  17.567  12.837
61770W        W21207   8.854  19.061  14.826
61771W        W21208  14.233  30.451   1.312
61772W        W21209  32.443  43.458  14.847
61773W        W21210  44.499   4.417  11.973
61774W        W21211  29.521  39.382  13.487
61775W        W21212  25.053  42.988  13.913
61776W        W21213  17.091  18.068  14.854
61777W        W21214  31.145  15.225  10.409
61778W        W21215  28.093  14.263   3.211
61779W        W21216  40.928  31.140   4.191
61780W        W21217   4.816  16.141   2.273
61781W        W21218  31.484  35.407   2.882
61782W        W21219  34.537   5.772  13.369
61783W        W21220  13.331  15.133   2.413
61784W        W21221   1.368  31.123   2.381
61785W        W21222  18.677  35.972   9.931
61786W        W21223  10.361  35.960  10.616
61787W        W21224  39.468  16.154  12.489
61788W        W21225  44.902  28.940   1.250
61789W        W21226  19.270  37.387   3.856
61790W        W21227  23.522  10.246   1.876
61791W        W21228   0.962  27.139   0.463
61792W        W21229  11.312  23.505   3.789
61793W        W21230  38.872   7.728  14.836
61794W        W21231   7.339   0.886   1.413
61795W        W21232  19.667   8.301   2.357
61796W        W21233  17.599  42.426  14.487
61797W        W21234  14.222   3.230   3.808
61798W        W21235  19.749  42.809  12.079
61799W        W21236  27.610  31.607   2.239
61800W        W21237  13.633  37.059  13.484
61801W        W21238  16.764  34.008   0.872
61802W        W21239  37.485  36.427   0.791
61803W        W21240  21.051  33.947  10.430
61804W        W21241  35.409  17.129  14.951
61805W        W21242  41.845  17.738  13.038
61806W        W21243  27.044  13.271  14.772
61807W        W21244   2.320   9.838  12.478
61808W        W21245  44.926  35.548   0.474
61809W        W21246  25.577  19.116  12.487
61810W        W21247  25.015  41.945   2.345
61811W        W21248  44.394  43.471   4.723
61812W        W21249  33.899  34.406   1.711
61813W        W21250  26.149   3.881   0.883
61814W        W21251  22.024  35.603  13.987
61815W        W21252   0.880  16.716  12.441
61816W        W21253  44.386  13.125   1.880
61817W        W21254  10.195  29.499  12.845
61818W        W21255   1.365  11.295  14.790
61819W        W21256  17.708   3.356   2.725
61820W        W21257   3.767  34.418   2.406
61821W        W21258  38.984   0.470  13.494
61822W        W21259  16.689  44.906  14.337
61823W        W21260  32.428  36.879  10.478
61824W        W21261  42.964  33.981  10.898
61825W        W21262  22.623  40.047   9.624
61826W        W21263  17.629   1.976  10.609
61827W        W21264  38.363  24.121   2.415
61828W        W21265   0.491  38.046  14.476
61829W        W21266   4.265  34.453   3.156
61830W        W21267  34.456  15.788  12.401
61831W        W21268  30.955  14.685   1.262
61832W        W21269  36.387  13.844  11.520
61833W        W21270  10.677  31.101  14.980
61834W        W21271   0.425   2.820   4.599
61835W        W21272  25.025   4.372   1.361
61836W        W21273  41.797  33.877   2.344
61837W        W21274  38.419   7.304   3.697
61838W        W21275  26.584  43.511  10.570
61839W        W21276  26.674  41.998   1.314
61840W        W21277  23.547  24.074   4.214
61841W        W21278  29.461  38.427  11.504
61842W        W21279  24.580  17.569   0.904
61843W        W21280   0.315   3.277  14.425
61844W        W21281  27.586  37.501   2.794
61845W        W21282  41.381  15.154   1.839
61846W        W21283  22.718  11.808   3.838
61847W        W21284  39.965   2.869  11.038
61848W        W21285  32.411  21.230   0.741
61849W        W21286  31.430   0.948  11.097
61850W        W21287  24.995  28.147   2.418
61851W        W21288   6.877  40.400  14.281
61852W        W21289  10.341   5.710   2.330
61853W        W21290  23.717  24.623   1.228
61854W        W21291   2.738  26.073  13.451
61855W        W21292  33.482  35.898  13.498
61856W        W21293  40.881  35.359  10.146
61857W        W21294   3.252  16.216  14.416
61858W        W21295   9.302   6.326   4.637
61859W        W21296  26.072   6.276   2.801
61860W        W21297  42.421   6.423   4.626
61861W        W21298   2.926  38.977  10.011
61862W        W21299  35.035  32.630  13.009
61863W        W21300  24.593  44.265  13.043
61864W        W21301  20.675  38.950   4.126
61865W        W21302   7.380   4.435  12.487
61866W        W21303  12.673  30.017  12.001
61867W        W21304  16.761  30.632   1.223
61868W        W21305  30.449  14.171  14.345
61869W        W21306  35.019  32.891   0.886
61870W        W21307  44.398   7.288   5.307
61871W        W21308  11.639  10.791  13.000
61872W        W21309   1.839  15.100   3.265
61873W        W21310  33.452  15.147  14.819
61874W        W21311  18.113   4.935  10.513
61875W        W21312  18.096   3.367  14.459
61876W        W21313  38.405  33.502   1.827
61877W        W21314  13.185  33.383  13.879
61878W        W21315   6.243  28.086   5.306
61879W        W21316  12.719  43.769  13.479
61880W        W21317   2.946   6.339  11.510
61881W        W21318  24.604  15.209   0.344
61882W        W21319  35.103   0.866   5.107
61883W        W21320  20.675  22.663  12.466
61884W        W21321   9.158  13.625   4.778
61885W        W21322  34.598  16.233  13.479
61886W        W21323   8.383  12.638  11.577
61887W        W21324  24.503  15.610  14.387
61888W        W21325  27.484  30.111  10.521
61889W        W21326  35.056  12.713  12.514
61890W        W21327  18.263  30.454  11.374
61891W        W21328  42.788  38.052  13.477
61892W        W21329  14.136  22.184  13.411
61893W        W21330  16.781   8.823   3.680
61894W        W21331  28.586  30.086   2.308
61895W        W21332  38.420   3.231  12.897
61896W        W21333  17.085  13.685   4.829
61897W        W21334  31.648  32.592  13.472
61898W        W21335  28.604  40.011  13.503
61899W        W21336  22.169  12.618  12.999
61900W        W21337  12.739   5.287   1.445
61901W        W21338  22.050  44.932  14.378
61902W        W21339  44.362  31.913   3.304
61903W        W21340  21.663  36.360  14.372
61904W        W21341  13.666  32.964   4.607
61905W        W21342  40.464   4.889  14.767
61906W        W21343  41.004  13.667   3.224
61907W        W21344  10.376  10.280  10.446
61908W        W21345  23.160  26.180  12.025
61909W        W21346   4.777  33.416   0.449
61910W        W21347  14.205  16.103  12.557
61911W        W21348   9.332  11.181   3.778
61912W        W21349   7.822  33.070   0.277
61913W        W21350  40.997  27.446   4.671
61914W        W21351  21.213   7.296  10.891
61915W        W21352  36.449  42.355  11.039
61916W        W21353  32.957   5.722  14.829
61917W        W21354  25.030  16.591  11.430
61918W        W21355  42.981  41.803   3.284
61919W        W21356  43.336   8.191   4.270
61920W        W21357  27.141  19.166  14.502
61921W        W21358  40.410  11.198   0.341
61922W        W21359  34.526  29.663   3.185
61923W        W21360   1.799   9.387   4.188
61924W        W21361  26.190  27.587  10.461
61925W        W21362   6.317   4.301  12.490
61926W        W21363  18.230  28.005   0.939
61927W        W21364  30.464  24.179  11.502
61928W        W21365  13.155  12.614  10.536
61929W        W21366  29.143  22.546   5.262
61930W        W21367   4.354  19.242   0.757
61931W        W21368  25.135  32.418  12.356
61932W        W21369  16.690  36.399  11.518
61933W        W21370  40.407  19.162  13.522
61934W        W21371  14.634  10.823  13.400
61935W        W21372  36.432  36.084   2.249
61936W        W21373   0.272  40.372  14.998
61937W        W21374  26.563  16.726  12.064
61938W        W21375  11.186  32.994   0.818
61939W        W21376  18.259  34.963  14.810
61940W        W21377   2.860  25.190  11.981
61941W        W21378  35.406   3.865   2.330
61942W        W21379  14.830  19.731  11.080
61943W        W21380  40.504  42.385   4.326
61944W        W21381  43.784   0.747   2.205
61945W        W21382   8.766  22.703   2.723
61946W        W21383   6.828  11.186   4.709
61947W        W21384  35.077  27.630   1.826
61948W        W21385  29.078  31.147   0.420
61949W        W21386  21.031   2.378   3.150
61950W        W21387  36.393  30.414  14.349
61951W        W21388  39.356  41.493   3.377
61952W        W21389  44.963  44.851  14.509
61953W        W21390   0.769  39.821   9.970
61954W        W21391  23.112  21.582   3.221
61955W        W21392  13.290   2.962   2.387
61956W        W21393  29.491  33.500   4.684
61957W        W21394  30.417   4.864  12.095
61958W        W21395  33.117   6.400  14.780
61959W        W21396   6.792  19.285  13.810
61960W        W21397  35.916  36.055  12.354
61961W        W21398  27.976   1.391   3.728
61962W        W21399  38.033  25.661  13.449
61963W        W21400  23.658   8.216  14.470
61964W        W21401  12.709  14.604   3.712
61965W        W21402   7.389  18.575   2.265
61966W        W21403  25.558  31.475  14.941
61967W        W21404  12.809  44.798  13.959
61968W        W21405  27.677  40.385   4.602
61969W        W21406   8.306  40.339  12.413
61970W        W21407  26.548  18.549  12.352
61971W        W21408  27.133  14.218  12.035
61972W        W21409   1.934  36.436  11.012
61973W        W21410  41.356  24.493  13.913
61974W        W21411  41.924   4.731  12.969
61975W        W21412  31.461  35.875   0.339
61976W        W21413  22.627  36.553  11.904
61977W        W21414  30.619  32.979   3.753
61978W        W21415   5.786  17.273   3.726
61979W        W21416  16.239  30.614   3.819
61980W        W21417  34.952  32.956   0.390
61981W        W21418   4.391  32.933  12.883
61982W        W21419   8.372  14.749  13.958
61983W        W21420  42.381  18.595   4.750
61984W        W21421  28.553   1.920  11.973
61985W        W21422  10.875  13.748  11.863
61986W        W21423  18.126  44.981  12.843
61987W        W21424   4.917   1.773  11.928
61988W        W21425  38.062  36.441   2.744
61989W        W21426  22.185  20.752   5.806
61990W        W21427  29.977  18.681   3.780
61991W        W21428  25.081   7.334  10.966
61992W        W21429   2.269  14.193   1.745
61993W        W21430  33.450  28.050  13.972
61994W        W21431   5.274  27.037  14.807
61995W        W21432   6.420  37.526   1.881
61996W        W21433   7.217  23.583   5.094
61997W        W21434   1.437  29.099   3.646
61998W        W21435   4.926  22.178  12.563
61999W        W21436  44.280  15.170   3.794
62000W        W21437  18.054  31.484  13.939
62001W        W21438  42.812  43.506  13.992
62002W        W21439  31.448   7.835   1.925
62003W        W21440  20.589  22.534   2.408
62004W        W21441  20.649   0.485   0.884
62005W        W21442  21.062  12.650   1.407
62006W        W21443  38.920  18.640   0.946
62007W        W21444   9.702  18.293  10.426
62008W        W21445  27.994   3.404   1.266
62009W        W21446   2.455   7.229  11.507
62010W        W21447  38.964  42.808  13.894
62011W        W21448   1.335  13.637   2.214
62012W        W21449  20.726  12.793   4.647
62013W        W21450  34.479   8.734   0.912
62014W        W21451   3.336  35.430   1.842
62015W        W21452  33.414   1.816   1.841
62016W        W21453  23.149   6.398  14.457
62017W        W21454  18.151  13.225  12.376
62018W        W21455  27.079  26.208  10.981
62019W        W21456   5.343  27.568  11.486
62020W        W21457  13.105  26.998   1.845
62021W        W21458   2.930   3.904   3.347
62022W        W21459  27.165  28.451  10.573
62023W        W21460  26.144  38.832  13.331
62024W        W21461  11.245  25.070  10.622
62025W        W21462  18.211  13.193   4.220
62026W        W21463  44.833   8.364  10.591
62027W        W21464  38.924   6.883   1.820
62028W        W21465  10.638  38.895   0.789
62029W        W21466  33.086   5.354   4.303
62030W        W21467  19.246  11.187  14.303
62031W        W21468  11.715   6.339   4.615
62032W        W21469  21.577  17.604   4.265
62033W        W21470   8.191  29.119  12.472
62034W        W21471  26.534  24.720   9.929
62035W        W21472  17.605  36.552  13.035
62036W        W21473  12.149  29.436  11.864
62037W        W21474  16.628   3.835  11.411
62038W        W21475  23.046  38.552   4.762
62039W        W21476   3.901   9.881   3.318
62040W        W21477   3.254  14.692  13.842
62041W        W21478  36.901  16.640   2.230
62042W        W21479  26.482  21.082   5.185
62043W        W21480  11.671  34.887  10.579
62044W        W21481  29.631   7.785   1.744
62045W        W21482   8.864   7.391   4.690
62046W        W21483  37.059  36.570  11.067
62047W        W21484  25.683  40.498   4.206
62048W        W21485   5.772   1.390   0.747
62049W        W21486  34.871   9.343   2.400
62050W        W21487   9.237  17.207  11.525
62051W        W21488  12.167   5.901  11.062
62052W        W21489  22.634  28.535  11.422
62053W        W21490  22.184  15.220   3.378
62054W        W21491  39.928  32.920  13.839
62055W        W21492  38.488  41.471  12.911
62056W        W21493  29.086   8.886  10.920
62057W        W21494  20.052  40.051   0.344
62058W        W21495   2.300  10.191   4.792
62059W        W21496   1.315  34.023  14.832
62060W        W21497  13.756  44.847   0.913
62061W        W21498  18.581  27.553   4.189
62062W        W21499  29.439  38.421   3.755
62063W        W21500  39.876  29.951   4.601
62064W        W21501  43.854  13.115  11.543
62065W        W21502   4.305  34.484  10.563
62066W        W21503  35.547  33.085  11.988
62067W        W21504  20.089   0.904  14.979
62068W        W21505  42.878  37.897  13.840
62069W        W21506  10.845   2.765   3.741
62070W        W21507  33.498  13.316   3.772
62071W        W21508  44.384  17.075   0.439
62072W        W21509  22.073  10.196  11.012
62073W        W21510  36.934   9.229   3.293
62074W        W21511  42.406   3.863   2.737
62075W        W21512  21.092  23.654   3.210
62076W        W21513  24.138  30.603  11.532
62077W        W21514  29.064  23.682   2.266
62078W        W21515  15.321  27.655   2.215
62079W        W21516  22.210  40.912  11.525
62080W        W21517  38.847   7.387  14.361
62081W        W21518  17.788   0.266   0.480
62082W        W21519  24.562  35.958   0.327
62083W        W21520  35.060  35.982   2.397
62084W        W21521  12.172  11.335  11.992
62085W        W21522  35.574   0.300  10.407
62086W        W21523  40.525   0.375  11.113
62087W        W21524   9.232  35.518  12.888
62088W        W21525  44.896   0.427   1.817
62089W        W21526  22.081   8.270  11.054
62090W        W21527   5.198  23.149  12.390
62091W        W21528   6.817  22.120  11.392
62092W        W21529   1.907  32.031  10.926
62093W        W21530  41.928   9.250  14.902
62094W        W21531  33.101  42.856  13.834
62095W        W21532  28.963  37.363  14.941
62096W        W21533  25.530   6.417  14.902
62097W        W21534   3.356   6.803   1.756
62098W        W21535  28.496  37.966   2.192
62099W        W21536  19.753   8.290  12.851
62100W        W21537  19.181  44.859   4.159
62101W        W21538  34.054   5.322   2.727
62102W        W21539  17.231   0.746  12.980
62103W        W21540   8.743   4.228   4.651
62104W        W21541  12.137  32.016   3.258
62105W        W21542   2.259  22.019  10.631
62106W        W21543   2.759  17.163   0.316
62107W        W21544  29.928  17.572  11.039
62108W        W21545  44.757   8.380  11.999
62109W        W21546   9.877   6.234   4.762
62110W        W21547  23.138  39.007   1.285
62111W        W21548  20.156  36.081  14.338
62112W        W21549  26.502  34.497  10.637
62113W        W21550  13.343  39.861   2.838
62114W        W21551  26.117  40.339   2.781
62115W        W21552  28.642  18.722   0.254
62116W        W21553  23.035  42.997   0.756
62117W        W21554  31.929  42.451   2.329
62118W        W21555  43.841  10.833   3.786
62119W        W21556  14.137  17.272  13.445
62120W        W21557  19.544   2.759   2.692
62121W        W21558  11.641  19.668  14.289
62122W        W21559  42.897  11.623  14.883
62123W        W21560   3.871  24.700   2.774
62124W        W21561  26.642   7.251   1.711
62125W        W21562   6.884  17.138   1.808
62126W        W21563  43.400  27.511  13.805
62127W        W21564  31.039   7.364   4.626
62128W        W21565  16.149   1.362  11.981
62129W        W21566  42.374  28.972  11.908
62130W        W21567   7.884   4.776   0.935
62131W        W21568  16.633  15.118  10.497
62132W        W21569  40.906  19.654  12.865
62133W        W21570   1.732  27.610   0.409
62134W        W21571  22.655   7.331   1.742
62135W        W21572  21.249  31.497   3.663
62136W        W21573  40.517  33.994  14.835
62137W        W21574  22.023  37.478   4.711
62138W        W21575  21.111  25.023  13.902
62139W        W21576   1.374   2.268   4.138
62140W        W21577  22.629  13.732  10.899
62141W        W21578  16.273   1.795   3.231
62142W        W21579   4.314  43.495   4.169
62143W        W21580  29.620   8.287  10.527
62144W        W21581   1.795   6.676   2.222
62145W        W21582   5.869  32.090  13.325
62146W        W21583  22.196  39.056  10.025
62147W        W21584  11.225   4.342   1.260
62148W        W21585   6.812   3.782   0.801
62149W        W21586  22.709  16.160   4.340
62150W        W21587  34.886  25.093   0.391
62151W        W21588  39.382  32.059  10.924
62152W        W21589   1.919  25.579  12.464
62153W        W21590  41.458  28.579   1.791
62154W        W21591   7.744  10.732   0.369
62155W        W21592  11.746  14.796  13.014
62156W        W21593  23.205  12.193   0.850
62157W        W21594   6.354  18.635   1.404
62158W        W21595  14.320  23.716   1.423
62159W        W21596  30.531  19.111   3.818
62160W        W21597  41.353  16.130   4.280
62161W        W21598  12.730   6.745  10.609
62162W        W21599  34.398  22.007   4.172
62163W        W21600  21.237  27.610   1.294
62164W        W21601  34.400  29.139   1.343
62165W        W21602   5.783  31.927   5.269
62166W        W21603  36.372  11.845   4.781
62167W        W21604  41.304  33.453  10.542
62168W        W21605  16.165   0.909   0.759
62169W        W21606  29.668  30.966   0.907
62170W        W21607   2.732  29.169   1.280
62171W        W21608  10.167   6.395   1.892
62172W        W21609  14.318  25.648  13.063
62173W        W21610  27.487  42.390  11.507
62174W        W21611  27.655   5.851  14.367
62175W        W21612  26.562  14.755  13.436
62176W        W21613  37.866  30.029  13.048
62177W        W21614  30.485  13.241   1.747
62178W        W21615   7.188  29.629  12.979
62179W        W21616  20.536  11.266  11.553
62180W        W21617  12.312   7.743  12.377
62181W        W21618  35.550  28.956  10.522
62182W        W21619  23.576   6.796   1.700
62183W        W21620  27.051   1.471   2.862
62184W        W21621  36.858  41.431   4.667
62185W        W21622  17.186  30.580  11.947
62186W        W21623   8.327   0.754  11.568
62187W        W21624   1.449  25.059  12.571
62188W        W21625  17.298  24.546  13.520
62189W        W21626  16.600   1.771  14.955
62190W        W21627  38.330   4.318  12.884
62191W        W21628   3.937  34.985   3.863
62192W        W21629   0.309  42.806   0.375
62193W        W21630  17.576  37.085   4.123
62194W        W21631  34.461  32.469   4.221
62195W        W21632   7.376  21.241   2.387
62196W        W21633  40.947  37.563   1.258
62197W        W21634  17.659  22.611   4.785
62198W        W21635   0.827   0.267  11.535
62199W        W21636  31.601   9.379  14.500
62200W        W21637   8.391  35.460   2.389
62201W        W21638  25.493  41.398   2.268
62202W        W21639  37.435  30.022   1.347
62203W        W21640  38.984   7.315  11.086
62204W        W21641   3.335  20.758  14.460
62205W        W21642  25.096  23.105   3.268
62206W        W21643   3.318  37.582  14.419
62207W        W21644   9.196  30.086   2.837
62208W        W21645  32.129  21.119  12.075
62209W        W21646  39.520  20.236  12.437
62210W        W21647  14.624   3.943  13.808
62211W        W21648  43.887   1.911   2.719
62212W        W21649   2.898  21.711  11.505
62213W        W21650  10.141   5.740  10.472
62214W        W21651  21.178   5.290  12.488
62215W        W21652  10.284  19.262   2.779
62216W        W21653  14.249  41.967   1.889
62217W        W21654  42.425  27.642   2.890
62218W        W21655   9.275  25.582   4.302
62219W        W21656  36.937   8.738  10.513
62220W        W21657  41.974  21.177  12.989
62221W        W21658  30.917   3.782  11.578
62222W        W21659  34.455   6.849  14.439
62223W        W21660  12.786  30.048  14.822
62224W        W21661  34.373  31.939   3.794
62225W        W21662  12.657  33.476  10.482
62226W        W21663  16.593  42.820   0.397
62227W        W21664  28.564   3.726  13.845
62228W        W21665  15.803  28.047   4.309
62229W        W21666  12.736  32.418  14.515
62230W        W21667  38.984  38.006  13.883
62231W        W21668  20.614  28.062  11.595
62232W        W21669   4.887  22.028   4.229
62233W        W21670  43.433  12.248   1.883
62234W        W21671  24.003   2.962  10.991
62235W        W21672  22.586  14.182  14.795
62236W        W21673  14.647  20.762   4.132
62237W        W21674   7.792  42.437  10.557
62238W        W21675  43.987  14.627   0.300
62239W        W21676  10.333  13.687  10.565
62240W        W21677  21.651  35.562   0.876
62241W        W21678  33.521  37.930  12.454
62242W        W21679  32.013  25.005   0.368
62243W        W21680  11.702  17.202   0.897
62244W        W21681  40.332  28.137  11.071
62245W        W21682   8.682  41.403  14.833
62246W        W21683  24.573  41.453  12.372
62247W        W21684   3.371  19.591  11.090
62248W        W21685  12.177  29.461  11.523
62249W        W21686  28.964  39.516   2.892
62250W        W21687  15.697  42.877   3.306
62251W        W21688  41.905  31.601  10.987
62252W        W21689  43.481  35.031   2.368
62253W        W21690   4.705  11.713  11.447
62254W        W21691   8.811  11.697   3.726
62255W        W21692  31.536  16.112  10.910
62256W        W21693  18.788  38.414  11.069
62257W        W21694  42.298  11.702  10.946
62258W        W21695   0.435   0.385  11.043
62259W        W21696  20.752  43.514   1.753
62260W        W21697   1.800  11.368   0.743
62261W        W21698  20.096  28.933   3.813
62262W        W21699   5.744   7.410   4.784
62263W        W21700  28.149   0.255  14.966
62264W        W21701  40.911  24.996   3.246
62265W        W21702  41.528  39.964   2.252
62266W        W21703  20.602  11.698  11.411
62267W        W21704  33.392  22.685   0.867
62268W        W21705  36.991  17.773  12.843
62269W        W21706  16.617   2.466   3.328
62270W        W21707  10.243  40.857   3.635
62271W        W21708  33.912  17.271   2.184
62272W        W21709  15.646  18.774  13.999
62273W        W21710  37.866  20.116  13.315
62274W        W21711  32.962  34.413  10.948
62275W        W21712  34.486  12.329  12.535
62276W        W21713  16.676   8.398  11.087
62277W        W21714  34.438  38.010  11.443
62278W        W21715  33.609  14.697   1.720
62279W        W21716  13.166  26.484  14.960
62280W        W21717   5.260   7.386   2.792
62281W        W21718  21.678  42.509  12.985
62282W        W21719  18.190   2.293   3.761
62283W        W21720   2.289  10.698   4.723
62284W        W21721  14.264   9.202   2.359
62285W        W21722   7.791  21.188  10.942
62286W        W21723  16.204  37.562  13.426
62287W        W21724   0.826  13.283   0.916
62288W        W21725   7.234  31.539  14.396
62289W        W21726   6.270  34.454   2.255
62290W        W21727  13.278  25.595   4.154
62291W        W21728  26.998  20.554  13.493
62292W        W21729  24.680   0.357   4.193
62293W        W21730   6.906  23.240  14.492
62294W        W21731   6.860  23.111   3.232
62295W        W21732  33.525  39.538  12.981
62296W        W21733  43.340  40.820  12.512
62297W        W21734  32.954  44.303  10.116
62298W        W21735  28.467  30.026  14.975
62299W        W21736  36.083  38.928  10.929
62300W        W21737  15.739  35.401   0.770
62301W        W21738  19.154  18.163   1.749
62302W        W21739  32.888  37.047  13.812
62303W        W21740   0.484  36.076  14.460
62304W        W21741  17.563  10.334  13.815
62305W        W21742   5.397  27.458  12.348
62306W        W21743  24.064  41.844  13.975
62307W        W21744  43.887  12.296  13.466
62308W        W21745   5.916  34.120   0.813
62309W        W21746  28.153  19.256  11.887
62310W        W21747  17.188  28.592   2.872
62311W        W21748  29.026  16.602  11.930
62312W        W21749  33.921  22.592  14.025
62313W        W21750  15.223  22.017  13.364
62314W        W21751  10.203   5.826  10.931
62315W        W21752   7.799  23.724  12.978
62316W        W21753  35.017  10.878  12.386
62317W        W21754   6.756   5.226  11.925
62318W        W21755   4.859  35.952   3.767
62319W        W21756   6.362  35.101  14.857
62320W        W21757  10.242  31.500  12.452
62321W        W21758  39.469  41.894  14.999
62322W        W21759  20.143   8.814   0.478
62323W        W21760  24.653  13.811  11.382
62324W        W21761  23.097  20.253   1.333
62325W        W21762  25.563  18.786   4.250
62326W        W21763  11.631  13.246   4.684
62327W        W21764  14.293   9.300   1.788
62328W        W21765   7.400  23.641  12.069
62329W        W21766  33.623  27.964  10.500
62330W        W21767  38.498   9.841   2.781
62331W        W21768  33.910  31.525  11.092
62332W        W21769  15.320  23.045   2.705
62333W        W21770  24.667  38.040  13.343
62334W        W21771  17.785  14.200   0.360
62335W        W21772  21.140  38.990  13.320
62336W        W21773  26.983  44.456   1.348
62337W        W21774  39.878  39.002   9.993
62338W        W21775   4.726  32.084   0.796
62339W        W21776  35.948  29.615  11.118
62340W        W21777  28.062   8.864   4.783
62341W        W21778  25.471  42.303  13.398
62342W        W21779  18.147  12.690   0.408
62343W        W21780  16.786  34.097  13.542
62344W        W21781  19.056  33.414   4.720
62345W        W21782  36.059  25.192   4.296
62346W        W21783  31.971   3.912   4.700
62347W        W21784  35.084   6.725   1.935
62348W        W21785  39.340  44.895   3.720
62349W        W21786  28.636  27.530   3.160
62350W        W21787  23.710  36.592  13.801
62351W        W21788  14.322  28.660  12.473
62352W        W21789  41.038  30.969  12.046
62353W        W21790  42.939   7.336  12.930
62354W        W21791  34.949  39.888  12.083
62355W        W21792  24.190  35.446  14.451
62356W        W21793  17.063  25.502   0.838
62357W        W21794  37.465   5.201   1.738
62358W        W21795   2.796  33.915  10.450
62359W        W21796   7.205  36.443   4.617
62360W        W21797  29.576  13.204   0.760
62361W        W21798   9.315  17.136  10.571
62362W        W21799  35.975  43.404  14.392
62363W        W21800   4.863  19.740  13.980
62364W        W21801  26.171  18.152  12.881
62365W        W21802  44.890  28.110  11.376
62366W        W21803  18.276  25.591   1.924
62367W        W21804  31.639  37.435   3.726
62368W        W21805  40.042   1.860  12.358
62369W        W21806  24.533  35.524  12.832
62370W        W21807   1.250  33.999  10.912
62371W        W21808  26.063  19.599  13.319
62372W        W21809  10.251  22.111  12.850
62373W        W21810  35.436  15.323   1.376
62374W        W21811  33.533  17.731   0.328
62375W        W21812  11.758  34.110  14.495
62376W        W21813   9.888   4.359  13.929
62377W        W21814  41.023   8.182   2.890
62378W        W21815  36.021   3.875   1.222
62379W        W21816  16.639  44.427  12.364
62380W        W21817  32.918   3.381  13.431
62381W        W21818   9.859  36.584  10.431
62382W        W21819  18.051  14.619  10.155
62383W        W21820   8.830  34.571  13.933
62384W        W21821  18.642   1.896   3.784
62385W        W21822   6.846  22.707   3.709
62386W        W21823  34.402  37.575   0.902
62387W        W21824  18.679  29.068  14.391
62388W        W21825  17.605  15.658   3.317
62389W        W21826   5.788  42.463  13.319
62390W        W21827  37.037  11.189  11.939
62391W        W21828  16.252  42.511  13.411
62392W        W21829  13.342   5.234  10.594
62393W        W21830  38.052  31.544   3.234
62394W        W21831  31.992  12.355   4.314
62395W        W21832  13.184  18.636  10.975
62396W        W21833  41.509   9.220  14.003
62397W        W21834  23.050  13.327   0.966
62398W        W21835   4.343   8.187  11.927
62399W        W21836  20.750  11.726   0.274
62400W        W21837   5.332  39.861   1.303
62401W        W21838   7.290  36.425  14.278
62402W        W21839   5.816  29.062   0.902
62403W        W21840  12.147  27.462   4.283
62404W        W21841  35.924  20.210  12.963
62405W        W21842  13.136  42.934   1.312
62406W        W21843   7.665  17.250   1.924
62407W        W21844  42.491  16.136   3.277
62408W        W21845  36.958  24.225  12.425
62409W        W21846  13.766   4.449   3.308
62410W        W21847  30.527  35.085  11.094
62411W        W21848  27.528   3.416  14.442
62412W        W21849  24.143  28.994  11.090
62413W        W21850  31.508  25.984   0.850
62414W        W21851  23.987  24.096   4.826
62415W        W21852   2.236  23.104   2.339
62416W        W21853  36.463   4.281   4.210
62417W        W21854  15.166  11.236   4.296
62418W        W21855   6.714  41.535  14.836
62419W        W21856   5.791  25.030  11.602
62420W        W21857  16.185  36.051  11.860
62421W        W21858  34.881  34.099   4.737
62422W        W21859  20.204  29.075  14.923
62423W        W21860  17.231  44.988   2.338
62424W        W21861  34.050  11.364  12.421
62425W        W21862  31.119   1.465   3.814
62426W        W21863  44.011  25.202   3.327
62427W        W21864  25.500  31.153   4.354
62428W        W21865  10.190  23.148  10.445
62429W        W21866  43.502  17.197  14.933
62430W        W21867   8.398   8.182   4.187
62431W        W21868  11.625   4.929  10.081
62432W        W21869   9.859  32.419   4.793
62433W        W21870  20.708   0.916   3.187
62434W        W21871  22.157  24.590   1.859
62435W        W21872   9.688  13.651  10.538
62436W        W21873  11.166   4.342   3.278
62437W        W21874  31.498   6.203  12.561
62438W        W21875  28.041  36.433  10.505
62439W        W21876  33.083  33.443  14.881
62440W        W21877  24.039  16.744  11.407
62441W        W21878   9.663  11.166  12.439
62442W        W21879  39.354  44.881  14.773
62443W        W21880   2.886  35.962   1.697
62444W        W21881  27.685  20.028  11.069
62445W        W21882  27.650  44.942  10.415
62446W        W21883  17.128  26.158  11.423
62447W        W21884  33.901   5.319   0.322
62448W        W21885  36.379  13.305  10.545
62449W        W21886  16.092  44.986   2.348
62450W        W21887   6.188  29.485  12.520
62451W        W21888  24.521  21.704   9.594
62452W        W21889  37.561   1.403  12.009
62453W        W21890  43.311  33.421  11.453
62454W        W21891   2.946   9.694  12.444
62455W        W21892  19.673  32.407  13.498
62456W        W21893  19.057  41.485   0.826
62457W        W21894   5.332  40.346  11.870
62458W        W21895  42.838   4.306   3.221
62459W        W21896  37.433  10.849   1.920
62460W        W21897  15.812  43.889   3.635
62461W        W21898  40.859   9.734   1.851
62462W        W21899   9.313  28.988   3.803
62463W        W21900  20.638  42.907  11.391
62464W        W21901  13.798  22.999   2.251
62465W        W21902  19.659  30.475   4.171
62466W        W21903  22.533  11.698  13.367
62467W        W21904  23.010   8.825   0.264
62468W        W21905  34.401   2.288   2.369
62469W        W21906   7.853   6.730  14.907
62470W        W21907  34.873   5.851  14.957
62471W        W21908  31.600  34.050  11.561
62472W        W21909  32.977  14.331   3.815
62473W        W21910   9.775  16.679  12.900
62474W        W21911  11.674   8.814   0.442
62475W        W21912  20.223  24.570  14.870
62476W        W21913  33.068   1.749   0.258
62477W        W21914  34.424  17.287   3.664
62478W        W21915   0.767  36.370  12.517
62479W        W21916  34.084   1.931   4.754
62480W        W21917  25.592  20.143  10.061
62481W        W21918  14.257  12.350   2.871
62482W        W21919  40.357   7.771   0.285
62483W        W21920   7.879  23.026  12.902
62484W        W21921   7.878  32.589  14.925
62485W        W21922  44.876  22.247   2.362
62486W        W21923  15.705  44.482   4.653
62487W        W21924  35.887  31.925   3.690
62488W        W21925  30.150   6.373  14.773
62489W        W21926  42.017  42.966  12.494
62490W        W21927  40.432  41.450   1.791
62491W        W21928  41.944  30.639  13.995
62492W        W21929   2.773   9.742  14.906
62493W        W21930   6.188  13.300   3.818
62494W        W21931  16.083   8.754   4.609
62495W        W21932  40.962  40.511  13.472
62496W        W21933  22.726  44.418   0.736
62497W        W21934  15.111  13.614   2.187
62498W        W21935  44.910  38.453   3.710
62499W        W21936  16.742  25.154   1.913
62500W        W21937  38.385  10.189  11.462
62501W        W21938   7.286  19.534   1.239
62502W        W21939  14.707  40.959  12.355
62503W        W21940  39.439  20.605   1.385
62504W        W21941  40.490  11.726   0.913
62505W        W21942  33.894   1.793  11.992
62506W        W21943  25.692  34.115  13.883
62507W        W21944  35.928  10.311  14.918
62508W        W21945  32.027   0.324   0.377
62509W        W21946   2.326  32.928  13.950
62510W        W21947  35.475  23.595  13.802
62511W        W21948   8.693  12.197   0.296
62512W        W21949  38.063  30.947   1.724
62513W        W21950  25.584  31.152  13.356
62514W        W21951   2.774  38.544   3.834
62515W        W21952  22.630  35.971  13.503
62516W        W21953  23.511  20.163  14.384
62517W        W21954   1.396  21.200   1.932
62518W        W21955   9.267   0.841  14.401
62519W        W21956  36.509  34.965  13.848
62520W        W21957   1.876  25.472  10.065
62521W        W21958  35.019  13.637  14.828
62522W        W21959   1.767  24.207   1.884
62523W        W21960  16.113  36.860  13.814
62524W        W21961   9.869   8.677   4.213
62525W        W21962  11.683  10.736   4.781
62526W        W21963  12.667  11.364  12.930
62527W        W21964   4.319   1.878   3.336
62528W        W21965  40.430  22.517   4.121
62529W        W21966   0.874  39.334   9.606
62530W        W21967  14.263  12.691  12.024
62531W        W21968  18.109  23.573   3.194
62532W        W21969  10.636  26.113   0.290
62533W        W21970  19.088  37.446   4.729
62534W        W21971  15.583  36.373   3.783
62535W        W21972  44.953  33.536   9.563
62536W        W21973   2.867  19.269   2.353
62537W        W21974   9.798  26.552   2.293
62538W        W21975  30.620  25.545   1.867
62539W        W21976  36.016  21.670   2.664
62540W        W21977  28.457  40.532  13.521
62541W        W21978  25.041   8.711   3.645
62542W        W21979  17.232  21.225   5.186
62543W        W21980   2.799  23.537  12.072
62544W        W21981  27.577  26.095   2.802
62545W        W21982  19.712   8.172   1.893
62546W        W21983  19.535  25.033   1.796
62547W        W21984  42.875  27.598  12.839
62548W        W21985  40.398  23.734   2.770
62549W        W21986  43.300  17.186   3.213
62550W        W21987   8.669  36.987  13.957
62551W        W21988  10.651   2.423   3.644
62552W        W21989   1.904  16.702  13.418
62553W        W21990  36.578  37.054   4.198
62554W        W21991  20.542  28.048   0.472
62555W        W21992  42.932   5.236   2.889
62556W        W21993   4.850  30.920   2.714
62557W        W21994  13.603  28.955  14.777
62558W        W21995  19.046  30.587   4.676
62559W        W21996  34.432  26.153  10.639
62560W        W21997  36.563  38.434   2.902
62561W        W21998   6.848  12.746   1.732
62562W        W21999  38.398  19.196   2.880
62563W        W22000  31.130  26.108  12.465
62564W        W22001  40.839  17.723   4.794
62565W        W22002   3.954   0.394  11.873
62566W        W22003   1.310  31.979   4.739
62567W        W22004  28.129  17.282  11.934
62568W        W22005  10.645  31.074  13.003
62569W        W22006  41.447  30.152   3.249
62570W        W22007   8.710   8.329  10.606
62571W        W22008   2.472  36.428   4.777
62572W        W22009  41.933   0.280  14.505
62573W        W22010  22.070  34.866   1.285
62574W        W22011  27.960   1.928  11.870
62575W        W22012  15.249  22.572   1.445
62576W        W22013  25.998   8.237  12.569
62577W        W22014  24.101  14.168  11.965
62578W        W22015  14.144  26.532   0.898
62579W        W22016  37.890  40.529  10.409
62580W        W22017  16.075   5.888   0.482
62581W        W22018  11.712  30.552   4.751
62582W        W22019   6.267  30.446  10.432
62583W        W22020  24.979  16.727   1.813
62584W        W22021  44.768  16.086   3.778
62585W        W22022  27.080  11.771   3.283
62586W        W22023  43.929  10.171   0.292
62587W        W22024   6.725   8.404  11.460
62588W        W22025   2.289  25.122  10.584
62589W        W22026  34.526  31.509   1.749
62590W        W22027  18.271  12.275  13.331
62591W        W22028  29.449  10.841  10.046
62592W        W22029  11.657  27.955   2.193
62593W        W22030  38.932  26.961  11.532
62594W        W22031  13.284  30.927  13.345
62595W        W22032  24.021  17.117  13.900
62596W        W22033  16.625  36.034  13.493
62597W        W22034  25.667   8.328   0.861
62598W        W22035  11.679  25.499   0.431
62599W        W22036  38.946   4.303  14.927
62600W        W22037  43.460  19.657   2.763
62601W        W22038  14.308  38.890   3.323
62602W        W22039  32.551  29.642  14.864
62603W        W22040   7.240  40.038  14.836
62604W        W22041  33.394  27.636   0.407
62605W        W22042  13.269  13.759   2.737
62606W        W22043   8.805  23.012   3.260
62607W        W22044   3.321  35.508  14.875
62608W        W22045  35.593  38.917   3.666
62609W        W22046  29.436  28.001  11.430
62610W        W22047  25.022   9.207   3.278
62611W        W22048  12.776  37.891   1.306
62612W        W22049  13.766  35.433  11.969
62613W        W22050  39.962  33.916  14.887
62614W        W22051   3.825   7.832  13.064
62615W        W22052  28.582  36.940  12.004
62616W        W22053  22.506  30.963  12.447
62617W        W22054  33.939   1.776   0.926
62618W        W22055  14.785  10.850   1.424
62619W        W22056  14.182  35.884  14.962
62620W        W22057  34.437  42.317   0.862
62621W        W22058   4.774   3.273  11.016
62622W        W22059   3.749   9.318   0.809
62623W        W22060  37.436  26.474  14.376
62624W        W22061  17.268  19.137  11.018
62625W        W22062  25.168  36.502   0.481
62626W        W22063  19.157  43.814   1.781
62627W        W22064  26.619   6.764   0.876
62628W        W22065  10.227  24.695   4.707
62629W        W22066  15.169  20.665   0.803
62630W        W22067  22.144  21.662   2.808
62631W        W22068   2.338   6.815   3.787
62632W        W22069  42.817  20.741  14.455
62633W        W22070  40.525  20.125  12.447
62634W        W22071   5.308  36.072  12.424
62635W        W22072  16.780  32.415  12.034
62636W        W22073   1.388  19.589   0.439
62637W        W22074  11.756  14.679   3.145
62638W        W22075  16.617  26.676  12.004
62639W        W22076  22.545  38.999  11.430
62640W        W22077   5.241  39.447   3.172
62641W        W22078  18.076  17.585   2.371
62642W        W22079  13.331  21.660   0.455
62643W        W22080  28.139  30.639  13.545
62644W        W22081  33.113  36.592  11.400
62645W        W22082  33.517  19.585   0.382
62646W        W22083  11.782  33.050   1.837
62647W        W22084  31.920  41.461  11.064
62648W        W22085  23.675  32.011   3.363
62649W        W22086  13.631  33.964  13.861
62650W        W22087  32.448  29.110  12.961
62651W        W22088  29.990  19.652  14.932
62652W        W22089   5.899  21.616  12.066
62653W        W22090  34.877   1.289   0.885
62654W        W22091  34.064   2.828  14.296
62655W        W22092  21.103  39.920   3.767
62656W        W22093  25.084  41.301   0.909
62657W        W22094  17.783  37.577   0.777
62658W        W22095   4.785  26.635  14.297
62659W        W22096  21.717  21.043  14.437
62660W        W22097  39.985  37.045  10.986
62661W        W22098  37.342  34.564   2.882
62662W        W22099  40.002   6.326  12.383
62663W        W22100   8.206  30.939   1.778
62664W        W22101  30.445   4.770  14.420
62665W        W22102   5.923  31.917  12.434
62666W        W22103   3.727  20.741   1.415
62667W        W22104  20.602  24.649  14.388
62668W        W22105  17.250  37.908   0.253
62669W        W22106  34.996  35.089   3.386
62670W        W22107  39.469  43.919  11.503
62671W        W22108  15.253  32.893  10.595
62672W        W22109  42.033  19.581   1.708
62673W        W22110  18.266  36.396  12.553
62674W        W22111  16.735  22.701   2.739
62675W        W22112   3.874  13.600  14.916
62676W        W22113  23.124  44.268  12.920
62677W        W22114  44.804  33.386   2.351
62678W        W22115  39.972  33.599   0.728
62679W        W22116   1.412  44.998  12.998
62680W        W22117  29.930  38.557   5.718
62681W        W22118  27.590  36.074   5.321
62682W        W22119  20.232  14.798   0.757
62683W        W22120  41.427  43.969  13.375
62684W        W22121  31.983  29.058   0.940
62685W        W22122  24.165  25.109  14.758
62686W        W22123  34.561  11.682   1.907
62687W        W22124   3.953  37.073   1.432
62688W        W22125  15.086  29.516   3.743
62689W        W22126  19.739   5.401  11.416
62690W        W22127  12.851  21.210   1.258
62691W        W22128  24.642   4.243  11.036
62692W        W22129  16.197  43.389  12.861
62693W        W22130   6.734   3.893  13.349
62694W        W22131  21.124  34.002  12.849
62695W        W22132   6.185  12.796   2.853
62696W        W22133   5.878  20.737  11.373
62697W        W22134  32.905   2.724   0.384
62698W        W22135  15.327  39.818   0.442
62699W        W22136   1.935   3.350  13.507
62700W        W22137  27.155  33.036   2.880
62701W        W22138  30.148  32.566   2.282
62702W        W22139   9.334   0.858  12.980
62703W        W22140  28.139   9.315  13.047
62704W        W22141  27.680  20.090   0.890
62705W        W22142  15.735  13.157   2.198
62706W        W22143  17.760  11.293   1.307
62707W        W22144  44.963  21.029   3.187
62708W        W22145  39.448  28.093  14.450
62709W        W22146  31.520  24.522   5.179
62710W        W22147  25.026  13.615   0.344
62711W        W22148  29.438  29.987  13.891
62712W        W22149  28.066  42.976   3.716
62713W        W22150   8.760  31.476  14.503
62714W        W22151  30.647  19.638  13.317
62715W        W22152  28.621  40.816   3.223
62716W        W22153  39.827  10.362  14.278
62717W        W22154  12.129   9.368   2.767
62718W        W22155   0.938  15.134   1.415
62719W        W22156   4.355   0.341  11.458
62720W        W22157  14.751  32.633  14.807
62721W        W22158  23.151  14.732   2.348
62722W        W22159  16.662  11.371   0.398
62723W        W22160  32.000  37.852   2.298
62724W        W22161  36.980  33.619  14.877
62725W        W22162  41.903   9.353   2.244
62726W        W22163  31.112  23.112   0.243
62727W        W22164   5.212  41.831  10.489
62728W        W22165  12.835  43.426  11.878
62729W        W22166  35.539   4.924  14.418
62730W        W22167   1.970  25.688   1.296
62731W        W22168  11.354  28.646   4.154
62732W        W22169  10.253  25.682   3.704
62733W        W22170   2.461  22.711  13.432
62734W        W22171  31.570   0.942   2.413
62735W        W22172   2.317  40.907  12.092
62736W        W22173   3.314  29.985  14.366
62737W        W22174  44.818  26.511   1.792
62738W        W22175  30.559  29.021  10.522
62739W        W22176  12.185  14.722   2.314
62740W        W22177  42.281  21.101   0.728
62741W        W22178   2.835  16.658   9.962
62742W        W22179  44.862  16.251  11.046
62743W        W22180  23.693   5.295  11.421
62744W        W22181   5.738  32.091   4.677
62745W        W22182  10.142  11.303  10.000
62746W        W22183  41.437  34.507   2.698
62747W        W22184  14.625  26.493   0.881
62748W        W22185   2.239   5.715  10.073
62749W        W22186  15.729   4.875   3.368
62750W        W22187   9.710  27.114   0.360
62751W        W22188  21.693  15.673   4.133
62752W        W22189  35.068  41.526   3.659
62753W        W22190  27.975   1.772  13.024
62754W        W22191  30.007  14.228   4.630
62755W        W22192  13.632  14.148   2.884
62756W        W22193  24.561   4.418   1.388
62757W        W22194  40.409   5.861   4.174
62758W        W22195  40.998  18.261   3.315
62759W        W22196  22.147  13.774  12.086
62760W        W22197   6.236   9.376   4.804
62761W        W22198  25.627  15.625  14.964
62762W        W22199  34.984  38.819  14.903
62763W        W22200  10.825   1.836  10.443
62764W        W22201  44.330  24.156   0.938
62765W        W22202   2.926  32.503   2.672
62766W        W22203  32.962  39.995   1.890
62767W        W22204  11.725  19.554  13.338
62768W        W22205  43.439  18.696   4.316
62769W        W22206  37.849  22.171   1.842
62770W        W22207  31.524  44.450   0.734
62771W        W22208  29.933  39.920   0.925
62772W        W22209  10.761  27.537  11.015
62773W        W22210  24.622  17.180   1.277
62774W        W22211  28.539  18.254  13.504
62775W        W22212  33.929   4.879   2.806
62776W        W22213  23.135  38.872  14.496
62777W        W22214  20.679  11.781  11.893
62778W        W22215  29.108  38.024   1.806
62779W        W22216   9.251  23.078   2.325
62780W        W22217   2.775  27.633  13.421
62781W        W22218  38.835  27.574  14.873
62782W        W22219  33.610  27.477  10.595
62783W        W22220   5.342   8.827  13.990
62784W        W22221  18.249   0.388   2.337
62785W        W22222  27.658  39.336   0.920
62786W        W22223  12.660  33.052  13.801
62787W        W22224   3.332   6.897   3.703
62788W        W22225  21.138   0.933  13.822
62789W        W22226  14.603  39.402  10.495
62790W        W22227  39.410  29.948  14.411
62791W        W22228  15.784  15.105   0.473
62792W        W22229  22.166  11.816   4.156
62793W        W22230   4.838   0.978  14.293
62794W        W22231  28.554  23.207  11.408
62795W        W22232  35.523  27.176   1.370
62796W        W22233  23.538  17.138   1.350
62797W        W22234  28.120   1.279   3.236
62798W        W22235  34.915  31.576   3.773
62799W        W22236  22.662  20.095  13.532
62800W        W22237   3.359  15.618  11.921
62801W        W22238  31.100  10.300   2.390
62802W        W22239  13.323  15.723  12.532
62803W        W22240   1.813  14.632   1.876
62804W        W22241  15.172   6.213   2.722
62805W        W22242  14.832  41.330  11.016
62806W        W22243  39.426  30.504  13.463
62807W        W22244   4.930  18.690  13.429
62808W        W22245  15.695  20.273  10.492
62809W        W22246  26.480  43.991  13.521
62810W        W22247  25.646   9.727   2.250
62811W        W22248   0.324  43.408   0.846
62812W        W22249  34.493  25.032  12.956
62813W        W22250   8.745  21.152   3.650
62814W        W22251  27.497  29.001  13.887
62815W        W22252   3.723  44.491   2.252
62816W        W22253  37.463  43.992   2.827
62817W        W22254   0.352  27.492   2.842
62818W        W22255  33.888  19.228  14.841
62819W        W22256   3.328  40.517  13.797
62820W        W22257  44.988  40.456   2.303
62821W        W22258  30.936   8.769   1.345
62822W        W22259  29.036  32.486  13.806
62823W        W22260  31.118  37.575   3.252
62824W        W22261  23.216  38.363   5.090
62825W        W22262  15.194  10.149  11.950
62826W        W22263  25.214  35.906  12.883
62827W        W22264  35.408  33.086   2.724
62828W        W22265  26.187  31.070   2.888
62829W        W22266  16.225  10.358   1.236
62830W        W22267  10.177   8.842   2.272
62831W        W22268  41.939  15.662   4.612
62832W        W22269  11.774  18.156  12.431
62833W        W22270  27.105  38.478   2.687
62834W        W22271  37.357   7.220  13.807
62835W        W22272  22.701  23.590   1.397
62836W        W22273  24.663  28.606   1.271
62837W        W22274   7.759  30.931  14.368
62838W        W22275  31.520  31.996  14.380
62839W        W22276  34.970  10.277  12.976
62840W        W22277  25.615  10.185  12.080
62841W        W22278  16.675   3.743  14.788
62842W        W22279  11.661  35.432  13.370
62843W        W22280  42.364   6.718  11.506
62844W        W22281  28.112  39.958  12.017
62845W        W22282  28.618   1.802   4.737
62846W        W22283  28.067  29.544   9.982
62847W        W22284  12.728  30.052   2.834
62848W        W22285  44.955  34.557   1.384
62849W        W22286   5.343  26.997   1.369
62850W        W22287   3.381   0.836  11.515
62851W        W22288  27.969  10.784   2.897
62852W        W22289  30.064   8.795   0.816
62853W        W22290  15.743  39.368  14.402
62854W        W22291  17.696  39.354   2.401
62855W        W22292  31.504  21.168  11.058
62856W        W22293  32.059  32.980   1.733
62857W        W22294  19.195  21.613   4.319
62858W        W22295   6.211  32.551   4.796
62859W        W22296  16.094  19.629  14.876
62860W        W22297  22.519   4.347   0.928
62861W        W22298   2.244  44.483   4.806
62862W        W22299  31.623  26.133  14.508
62863W        W22300   1.316  34.877  12.832
62864W        W22301  20.152  35.997   4.791
62865W        W22302  43.922  25.525  14.451
62866W        W22303   8.821  41.819   0.340
62867W        W22304  17.123  38.993   4.133
62868W        W22305   7.739   2.869   3.849
62869W        W22306   5.289   9.844  11.528
62870W        W22307  23.065  15.309   4.775
62871W        W22308  10.867   9.794   4.295
62872W        W22309  18.658  28.010  12.542
62873W        W22310  44.890  28.479   4.610
62874W        W22311  19.168  16.812   2.879
62875W        W22312  39.397  21.044  13.505
62876W        W22313  42.010  36.510   4.598
62877W        W22314  11.802  41.341   1.812
62878W        W22315  29.091  39.000  13.003
62879W        W22316  12.133  18.695   2.264
62880W        W22317   1.267   6.402  12.573
62881W        W22318  22.532  31.459  11.026
62882W        W22319  31.954  39.337   1.816
62883W        W22320  26.631  40.950  11.450
62884W        W22321   4.305  21.635  11.128
62885W        W22322  16.649  34.598  12.065
62886W        W22323  32.537   8.341   1.225
62887W        W22324   0.429  43.843  12.825
62888W        W22325   7.687   6.705  12.550
62889W        W22326  24.569  25.058   1.694
62890W        W22327  13.284  36.537   1.871
62891W        W22328   2.286   3.243   0.950
62892W        W22329  32.123   6.849   4.190
62893W        W22330   5.905  13.233   2.319
62894W        W22331  33.494  15.600  14.385
62895W        W22332  26.201  33.919  12.544
62896W        W22333   8.805  39.015  12.360
62897W        W22334   2.905   9.758   3.356
62898W        W22335  43.811  38.051  11.609
62899W        W22336   1.793  21.573  14.954
62900W        W22337  14.597  24.105  14.481
62901W        W22338  23.643  15.198   1.830
62902W        W22339  28.055  21.619  13.525
62903W        W22340  38.905  35.487  12.025
62904W        W22341  42.430  32.953   4.825
62905W        W22342  22.231  29.039   4.598
62906W        W22343  28.074  29.617   0.287
62907W        W22344  13.209   8.705  13.416
62908W        W22345  15.174   0.277  13.992
62909W        W22346  26.138  41.389  12.457
62910W        W22347   1.770   6.253  12.839
62911W        W22348  27.604  33.488   0.933
62912W        W22349   5.318  17.793   3.709
62913W        W22350  32.141  11.845  14.029
62914W        W22351  40.849  40.452  10.642
62915W        W22352  36.550  26.632   5.162
62916W        W22353   7.786  21.705   3.707
62917W        W22354   5.749  12.154   1.874
62918W        W22355  34.390  11.170   4.709
62919W        W22356  14.205  32.572  13.390
62920W        W22357  24.670  42.984   3.338
62921W        W22358  17.654   4.312   4.792
62922W        W22359  32.906  34.538  13.313
62923W        W22360  37.986   1.258  11.407
62924W        W22361  10.217  34.609   3.844
62925W        W22362  28.680  27.647  12.949
62926W        W22363  30.073  24.507   4.759
62927W        W22364   1.467  26.003  13.323
62928W        W22365  39.466  26.045  12.365
62929W        W22366  15.256  44.307  11.988
62930W        W22367  37.001  44.354   2.756
62931W        W22368  14.282   6.366   3.653
62932W        W22369   1.309  18.127   0.286
62933W        W22370   6.367  43.301  12.364
62934W        W22371  15.187   7.789   0.945
62935W        W22372   8.743  27.581  13.421
62936W        W22373   4.320  29.524   4.218
62937W        W22374  27.989  15.629   5.136
62938W        W22375  33.049   7.194  13.001
62939W        W22376  29.496   6.240   5.197
62940W        W22377   9.680  24.534  14.496
62941W        W22378  42.949  18.076  14.031
62942W        W22379  44.898  19.126   4.259
62943W        W22380  17.713   8.804   1.359
62944W        W22381  14.181  17.135  11.584
62945W        W22382   8.813   8.274  11.017
62946W        W22383  10.357  24.223   0.893
62947W        W22384  42.376  37.563   3.160
62948W        W22385  24.512  41.855  11.011
62949W        W22386  15.119  24.540   4.323
62950W        W22387  32.061  44.843  10.910
62951W        W22388  14.594  23.082  10.455
62952W        W22389   4.725  32.136  12.831
62953W        W22390  43.821  12.644  14.362
62954W        W22391  16.685  36.853   4.786
62955W        W22392  33.622  33.018   3.305
62956W        W22393  33.047   3.724   0.816
62957W        W22394  25.022  32.059   4.640
62958W        W22395  37.917  32.995  14.894
62959W        W22396  14.120  17.692   3.350
62960W        W22397  30.955  43.345  10.904
62961W        W22398  42.007   3.320  11.114
62962W        W22399  30.165  20.204   0.466
62963W        W22400  15.799  34.085   0.889
62964W        W22401  40.824   7.416  11.527
62965W        W22402  27.964   9.204   2.288
62966W        W22403   2.311  21.152   2.245
62967W        W22404  11.703  15.673   1.901
62968W        W22405  44.854  34.882  11.946
62969W        W22406  43.497  13.317   0.321
62970W        W22407  23.643   8.856  12.932
62971W        W22408   9.876  28.514   1.822
62972W        W22409  42.831  29.140   4.210
62973W        W22410  23.677  29.065  11.044
62974W        W22411  28.013   2.456   0.431
62975W        W22412   6.713  35.456  14.841
62976W        W22413  14.800  19.273  12.385
62977W        W22414  12.164  20.062   3.196
62978W        W22415  37.985  12.814   3.182
62979W        W22416   2.889  16.685  13.973
62980W        W22417  33.567  12.764  10.449
62981W        W22418  32.515  41.414  14.403
62982W        W22419  33.541  23.016   3.634
62983W        W22420  10.841  16.805   4.649
62984W        W22421  35.457  22.045  10.434
62985W        W22422  19.631  19.658   4.829
62986W        W22423  41.814  42.514  14.407
62987W        W22424  16.085  38.861  13.892
62988W        W22425  21.207  17.273  14.995
62989W        W22426  10.220  13.233   4.808
62990W        W22427  39.049  19.675  10.438
62991W        W22428  22.195   3.841   2.738
62992W        W22429  40.361  31.576  11.537
62993W        W22430  11.637  42.879   3.661
62994W        W22431  22.699  43.943   4.601
62995W        W22432  21.083  19.682   0.956
62996W        W22433  16.237  27.517  13.329
62997W        W22434  41.028  41.944  11.528
62998W        W22435  28.181  26.604   3.716
62999W        W22436  37.450  38.858  11.551
63000W        W22437  37.895   0.430  13.802
63001W        W22438  24.174  40.407   1.451
63002W        W22439  25.160  40.030   3.168
63003W        W22440  23.087  17.205   3.652
63004W        W22441  35.047  24.044   1.324
63005W        W22442  15.727  41.431   2.823
63006W        W22443   9.755  38.502  14.865
63007W        W22444  32.422  28.056  13.794
63008W        W22445  31.905   9.220   0.458
63009W        W22446   6.740  24.159   2.713
63010W        W22447  14.323  39.849  13.427
63011W        W22448  30.097  14.783  14.465
63012W        W22449  21.688  28.481  14.318
63013W        W22450  26.065  15.280   2.877
63014W        W22451  28.111   5.897   1.357
63015W        W22452   9.282  28.533  13.035
63016W        W22453   7.300   7.290  12.369
63017W        W22454   3.841  15.145   4.224
63018W        W22455  19.276  14.669   5.161
63019W        W22456  43.016   4.359   0.792
63020W        W22457   2.858   2.302  12.473
63021W        W22458  36.397  11.838  13.932
63022W        W22459   3.790  21.170  13.481
63023W        W22460   4.210  18.596   3.376
63024W        W22461  22.625   6.861   2.355
63025W        W22462  23.558  40.311  14.424
63026W        W22463   6.819  43.820   2.895
63027W        W22464  40.977   1.308   2.699
63028W        W22465   8.326  31.601   0.296
63029W        W22466  40.474   1.898  11.538
63030W        W22467  38.005  31.917   1.394
63031W        W22468  17.668  14.816  14.810
63032W        W22469  13.627   4.772  14.816
63033W        W22470  37.996   6.338  14.392
63034W        W22471  40.319  22.089   4.707
63035W        W22472   1.970  13.818   4.808
63036W        W22473  23.194  26.208   3.865
63037W        W22474  16.318  40.480  12.397
63038W        W22475  40.051  27.585   3.276
63039W        W22476   3.456  39.478  14.016
63040W        W22477  30.039  16.264   4.117
63041W        W22478  28.626   7.236   1.381
63042W        W22479   2.470  31.621   0.406
63043W        W22480  10.796  34.075  10.962
63044W        W22481   3.459  16.705  12.014
63045W        W22482  36.429   7.201  14.495
63046W        W22483  38.337  10.283   0.753
63047W        W22484  12.334   2.358  14.010
63048W        W22485  31.483  27.621  12.515
63049W        W22486  37.517  27.458  14.840
63050W        W22487   8.200  17.118  11.557
63051W        W22488   5.260   7.851   2.373
63052W        W22489  16.693  21.684  13.997
63053W        W22490   0.361   5.397   4.628
63054W        W22491   8.350   3.417   4.211
63055W        W22492  35.411   0.801  12.534
63056W        W22493  38.838  35.506  14.938
63057W        W22494   5.781  20.589   0.885
63058W        W22495  27.481   2.416   4.135
63059W        W22496  36.083  43.874   3.192
63060W        W22497   1.810   6.763  13.796
63061W        W22498  26.135   9.650   2.895
63062W        W22499  40.469  34.460   0.784
63063W        W22500  10.782   0.949   1.234
63064W        W22501  12.152  17.187  11.037
63065W        W22502  41.314  28.171   0.727
63066W        W22503   9.315  21.035   1.912
63067W        W22504   8.733  10.232  14.855
63068W        W22505  44.408  21.140   5.124
63069W        W22506   5.323  28.631   0.428
63070W        W22507  38.872  16.275  14.285
63071W        W22508  23.021  16.785  12.422
63072W        W22509  41.011  25.582   4.267
63073W        W22510  29.934  35.549  13.421
63074W        W22511   3.850  39.389  11.478
63075W        W22512  39.513   1.871  11.001
63076W        W22513  36.533  19.741   4.636
63077W        W22514  11.157  41.469  14.826
63078W        W22515  16.145  21.146   4.225
63079W        W22516  25.994  35.478  14.344
63080W        W22517   7.814  31.629  12.548
63081W        W22518   8.859  33.053  13.402
63082W        W22519   0.762  43.339  12.573
63083W        W22520  39.436  19.557  14.396
63084W        W22521  27.167  35.978   4.705
63085W        W22522  17.563  24.224  12.377
63086W        W22523  19.639   3.413  13.922
63087W        W22524  18.257  39.860  12.946
63088W        W22525   8.189  41.881  13.431
63089W        W22526  29.079  20.723   0.754
63090W        W22527  32.480  26.109  12.394
63091W        W22528   8.217  39.850   3.183
63092W        W22529  31.426  35.109  14.026
63093W        W22530   1.414  22.696  13.910
63094W        W22531  10.688   9.349  13.487
63095W        W22532   4.319   6.230   1.796
63096W        W22533  38.413   2.784   0.415
63097W        W22534  41.386  42.783  14.399
63098W        W22535  31.020  29.989   2.851
63099W        W22536  26.677   7.857   3.262
63100W        W22537  12.357  44.964  13.321
63101W        W22538  22.530  25.657   2.680
63102W        W22539  22.201  23.501   0.459
63103W        W22540  18.190  36.391  11.443
63104W        W22541  20.734  37.867   0.751
63105W        W22542   2.419  19.277   1.786
63106W        W22543  23.109   2.457  10.411
63107W        W22544  23.218   1.439   2.387
63108W        W22545  25.642   8.771  11.574
63109W        W22546   6.402  41.332   5.220
63110W        W22547  39.021  14.276  13.865
63111W        W22548  44.348  19.697  14.907
63112W        W22549  17.787  36.082   2.267
63113W        W22550  26.194   3.799   4.162
63114W        W22551  37.923   0.425   2.302
63115W        W22552  34.540  39.479  12.349
63116W        W22553  14.180  11.627   1.279
63117W        W22554  21.581  33.594  11.058
63118W        W22555  18.548  34.556  12.387
63119W        W22556  12.235  24.133   2.343
63120W        W22557  30.572  29.434   2.218
63121W        W22558  17.220   1.826  10.445
63122W        W22559   3.721  14.215  12.024
63123W        W22560  27.980   0.472   1.224
63124W        W22561  16.704  23.596  12.487
63125W        W22562   1.436  32.128  10.439
63126W        W22563  23.010  39.826   1.442
63127W        W22564  38.398  10.266  10.637
63128W        W22565  11.329  31.081   4.134
63129W        W22566  38.893   3.262   5.248
63130W        W22567  23.629  15.642  14.919
63131W        W22568  13.794   9.847   0.418
63132W        W22569  13.224  34.092  14.918
63133W        W22570  41.028  16.138  10.924
63134W        W22571  12.622  43.999   2.268
63135W        W22572  25.099  12.176   0.269
63136W        W22573  42.944  37.845   3.360
63137W        W22574  11.689  26.458   4.251
63138W        W22575  33.589  37.425  12.413
63139W        W22576  38.873  23.085   4.785
63140W        W22577  20.117  18.164   4.158
63141W        W22578  10.772  31.143   0.445
63142W        W22579  27.637  15.750   1.792
63143W        W22580   7.272  13.219   2.876
63144W        W22581   3.299  19.622  11.452
63145W        W22582  28.573  21.064  12.385
63146W        W22583  19.269  11.830   3.848
63147W        W22584  29.577   3.807  14.822
63148W        W22585  16.110   8.288  12.426
63149W        W22586   4.301  40.478   2.664
63150W        W22587  28.037  33.528  14.860
63151W        W22588  37.442  18.222   4.174
63152W        W22589  28.457  17.641   3.659
63153W        W22590  16.131  16.745   0.477
63154W        W22591  31.930   9.252   3.301
63155W        W22592  12.743  10.348  11.535
63156W        W22593  18.072  23.188  12.542
63157W        W22594  29.079  43.807  12.860
63158W        W22595  32.499  16.749   3.353
63159W        W22596   3.833   0.488   2.355
63160W        W22597  32.452  16.098   3.316
63161W        W22598  35.928  36.453  13.362
63162W        W22599   3.853  38.542   1.822
63163W        W22600  34.541  41.797  10.071
63164W        W22601   3.445  13.330  13.331
63165W        W22602  41.359  36.965  12.481
63166W        W22603  19.069  35.976   0.303
63167W        W22604  23.584  24.013   2.898
63168W        W22605  37.544  20.547  11.525
63169W        W22606   9.294   3.798  11.102
63170W        W22607  33.926  28.174   2.842
63171W        W22608   7.827  11.790  13.335
63172W        W22609  35.965  14.712  11.945
63173W        W22610  21.690  34.469  12.383
63174W        W22611  42.506  32.009   3.337
63175W        W22612   2.357  14.249  11.965
63176W        W22613  40.960  25.059   2.750
63177W        W22614  28.495  42.350  14.799
63178W        W22615  26.082  21.659  14.321
63179W        W22616  26.590  44.410  13.443
63180W        W22617  11.277   6.407   2.682
63181W        W22618  20.166  26.524   1.419
63182W        W22619  28.051   3.947   1.809
63183W        W22620  25.018  19.089  10.462
63184W        W22621  35.983  11.191  12.994
63185W        W22622  42.340   3.396   1.705
63186W        W22623  43.817  38.386  10.958
63187W        W22624  17.697  41.376  14.760
63188W        W22625   6.257  25.074  13.391
63189W        W22626  36.361  13.213  12.054
63190W        W22627  36.903  14.774   2.817
63191W        W22628  12.169  21.588  11.934
63192W        W22629   2.786  37.397  11.420
63193W        W22630  20.704   4.292  10.608
63194W        W22631  19.227  14.329  14.965
63195W        W22632  19.542  32.021   1.839
63196W        W22633   6.279  28.103  14.957
63197W        W22634  40.489  31.916  13.803
63198W        W22635  36.916   2.956   3.160
63199W        W22636  21.543  33.024  13.459
63200W        W22637  42.886  21.519   3.694
63201W        W22638  36.584  36.491  14.874
63202W        W22639   6.782   9.861  11.126
63203W        W22640  29.157  20.608  14.834
63204W        W22641   7.818  23.553   4.609
63205W        W22642  22.582   8.387  11.928
63206W        W22643   7.406  16.705  13.840
63207W        W22644  25.013  33.917  12.024
63208W        W22645   3.221  17.780   3.678
63209W        W22646  32.116  28.598   0.786
63210W        W22647  41.903  36.376   0.390
63211W        W22648   9.167  28.080  13.802
63212W        W22649   1.248  39.333   2.338
63213W        W22650   2.817  34.024  13.808
63214W        W22651  33.919  11.735   3.233
63215W        W22652  24.074   2.962  14.962
63216W        W22653  34.567  29.453  13.024
63217W        W22654   9.285   2.843   2.788
63218W        W22655   7.330  34.068  12.823
63219W        W22656  40.050  12.257   3.725
63220W        W22657  35.894  26.602  11.407
63221W        W22658  30.981   2.277   1.308
63222W        W22659  14.785   3.384  11.383
63223W        W22660  25.114  21.703  13.545
63224W        W22661  13.751  21.755  14.478
63225W        W22662  18.708  20.137   3.322
63226W        W22663   8.855  12.750   3.729
63227W        W22664   8.878  43.429  12.873
63228W        W22665  41.328  22.225  13.054
63229W        W22666  15.638  20.038   1.339
63230W        W22667  35.044  11.329   4.602
63231W        W22668  31.973   7.859  12.999
63232W        W22669  35.476  25.989   0.845
63233W        W22670  42.341   7.676  14.879
63234W        W22671   0.851  15.091  13.938
63235W        W22672  21.572   9.362  13.031
63236W        W22673  21.663   5.880  13.320
63237W        W22674  13.606  36.545  12.528
63238W        W22675   6.234  29.490  13.914
63239W        W22676  31.412  36.910   5.085
63240W        W22677  34.900  43.881   1.389
63241W        W22678   0.860  32.901   1.911
63242W        W22679  23.523  20.676  11.067
63243W        W22680   1.867  20.087   2.755
63244W        W22681   9.748  30.582  12.897
63245W        W22682   8.350  10.361  14.839
63246W        W22683   4.219  27.675  14.346
63247W        W22684  10.826  21.054  14.906
63248W        W22685  42.831  39.914  10.621
63249W        W22686  11.204  29.149  14.893
63250W        W22687  43.823  31.430   4.131
63251W        W22688   7.668  11.142  11.579
63252W        W22689   9.235   5.736  11.574
63253W        W22690  33.030   3.385  12.521
63254W        W22691  44.818  26.525   4.279
63255W        W22692  28.128  14.802   1.878
63256W        W22693   7.842  31.087   2.757
63257W        W22694  17.207  11.655  14.959
63258W        W22695  24.678  36.355  12.019
63259W        W22696  25.659  33.590   4.719
63260W        W22697   3.231   6.702   2.369
63261W        W22698  17.278  22.670  13.483
63262W        W22699  42.490   9.746  10.484
63263W        W22700   2.247  41.822  13.901
63264W        W22701  23.175  12.126  13.817
63265W        W22702  35.585  20.609  12.418
63266W        W22703  36.362   1.321  13.375
63267W        W22704  36.962  24.517  13.868
63268W        W22705  33.015  41.368  11.101
63269W        W22706  44.880  12.684  11.118
63270W        W22707  11.808  40.917  11.375
63271W        W22708  33.128  24.715   0.352
63272W        W22709  35.476  18.172   3.336
63273W        W22710  12.813  34.884   0.479
63274W        W22711  35.514   6.894   0.290
63275W        W22712  14.096  37.341  14.031
63276W        W22713   5.772  27.600   1.233
63277W        W22714   3.806  31.485  14.805
63278W        W22715   5.439  13.766  11.941
63279W        W22716  12.343  29.937   2.186
63280W        W22717  18.661  19.148   5.769
63281W        W22718   3.296  15.714   5.631
63282W        W22719   1.928  10.698   3.840
63283W        W22720  40.962  37.039  10.542
63284W        W22721  32.909  42.398  13.471
63285W        W22722  25.583  14.225  12.528
63286W        W22723  17.602   8.295  12.882
63287W        W22724  30.020  28.070  10.008
63288W        W22725  17.064  35.441   0.272
63289W        W22726  16.572   8.279   2.808
63290W        W22727  27.042  42.946   4.286
63291W        W22728  30.067  22.166  12.580
63292W        W22729  40.868   8.240  11.485
63293W        W22730  19.642  12.722  13.479
63294W        W22731  11.757  14.685  12.509
63295W        W22732  11.767   3.434   4.148
63296W        W22733  42.340  37.387  11.539
63297W        W22734  19.174  27.534   1.288
63298W        W22735  26.132   6.894   1.230
63299W        W22736   4.806  16.220  11.567
63300W        W22737  13.117  27.139  14.990
63301W        W22738  24.538  41.802   0.359
63302W        W22739  18.052  29.460   2.379
63303W        W22740  16.256  43.986  11.930
63304W        W22741  12.785  20.029  11.592
63305W        W22742  25.210  35.557  13.874
63306W        W22743  24.580  19.118  14.029
63307W        W22744  30.071   4.874  10.889
63308W        W22745  42.928  39.025  12.052
63309W        W22746  24.974  36.922   2.181
63310W        W22747  20.629  38.395  12.849
63311W        W22748  21.633  38.016   0.344
63312W        W22749   4.807  33.932   4.352
63313W        W22750  17.632  17.725   4.174
63314W        W22751  36.059  44.419   4.149
63315W        W22752  30.439  27.194   4.299
63316W        W22753  26.493  16.154  10.990
63317W        W22754  44.443  12.818  10.025
63318W        W22755  31.016  19.596   4.810
63319W        W22756  28.949  39.939  14.868
63320W        W22757  12.617  20.116  10.490
63321W        W22758  24.083  30.432  12.950
63322W        W22759  20.218  21.663  10.974
63323W        W22760  13.297  43.010  12.506
63324W        W22761   0.959  12.233  14.769
63325W        W22762   7.817  26.529   1.818
63326W        W22763  13.241   5.364  11.942
63327W        W22764  44.311   8.898   2.184
63328W        W22765  17.697   6.411  10.576
63329W        W22766  41.412  34.554  13.410
63330W        W22767  15.648  17.258   3.349
63331W        W22768   6.677  39.513  14.410
63332W        W22769   7.208   2.404   1.932
63333W        W22770   7.214  12.661   0.773
63334W        W22771  38.017  14.219   0.409
63335W        W22772  31.432  39.450  13.440
63336W        W22773  20.187  30.978   3.195
63337W        W22774  17.131   9.860   0.955
63338W        W22775  23.726   8.754  11.470
63339W        W22776   2.816  18.053   0.952
63340W        W22777   9.211  34.560   2.749
63341W        W22778  18.776  37.066  10.942
63342W        W22779  14.261  40.054   2.850
63343W        W22780  44.325  28.114  11.962
63344W        W22781  41.978  40.458  12.004
63345W        W22782  35.039  44.406  11.062
63346W        W22783  38.932  40.044   3.357
63347W        W22784  42.447  29.031   3.724
63348W        W22785  36.960  28.963   3.700
63349W        W22786  35.485  25.055  14.881
63350W        W22787  31.145  38.483   2.280
63351W        W22788  29.493   7.215  11.970
63352W        W22789  32.391  19.050   2.723
63353W        W22790  42.989  42.885   2.749
63354W        W22791  18.633  33.893  14.878
63355W        W22792  39.347   5.758  13.826
63356W        W22793  41.027  19.740   1.384
63357W        W22794  22.010   6.690  12.567
63358W        W22795   7.812  10.148  13.871
63359W        W22796   3.786  18.734   4.743
63360W        W22797   1.770  21.671  13.321
63361W        W22798  37.565   4.297  11.446
63362W        W22799  38.851  25.141  10.941
63363W        W22800  23.164   6.892  13.804
63364W        W22801  21.552  10.756   2.868
63365W        W22802   9.341  14.835   2.243
63366W        W22803  11.253  12.823   2.822
63367W        W22804  33.968  20.098  11.607
63368W        W22805  34.516  24.632   2.810
63369W        W22806  29.591  43.905   4.301
63370W        W22807   7.831  15.777  12.825
63371W        W22808  43.283  18.144   3.678
63372W        W22809   5.710  24.072   1.752
63373W        W22810  27.023  43.795   3.223
63374W        W22811   0.449  28.528   3.722
63375W        W22812  44.773  21.517   2.824
63376W        W22813  25.611  27.151  10.993
63377W        W22814  41.892  30.106   2.361
63378W        W22815  15.738  10.187   4.684
63379W        W22816  15.220  11.691   0.319
63380W        W22817  13.605  25.574   4.139
63381W        W22818  36.552  10.760   0.913
63382W        W22819  16.684  31.443   4.305
63383W        W22820  28.172  17.137   5.202
63384W        W22821   1.331   1.802  11.051
63385W        W22822   7.823  40.009  12.983
63386W        W22823  44.888  37.482   0.844
63387W        W22824   5.255   8.209  13.460
63388W        W22825  28.537  26.080   0.380
63389W        W22826  17.555  23.194  12.872
63390W        W22827  35.384  25.196   3.306
63391W        W22828  14.639  12.359  10.500
63392W        W22829  25.643   2.331   1.748
63393W        W22830  30.938  11.700   0.920
63394W        W22831   7.252   6.291  10.424
63395W        W22832   0.779  30.551   4.643
63396W        W22833  26.142  41.989   3.199
63397W        W22834  16.309  41.915  14.496
63398W        W22835  36.943  37.874  14.864
63399W        W22836   8.774  24.522  10.898
63400W        W22837  18.116  12.297  10.888
63401W        W22838  17.762   6.730   1.901
63402W        W22839  27.012  18.740   4.744
63403W        W22840  30.561  44.458  13.330
63404W        W22841  18.277  37.393   2.409
63405W        W22842  40.304  34.601   4.297
63406W        W22843   9.647   9.188   2.895
63407W        W22844  18.657  34.959  11.092
63408W        W22845  29.085  16.677  13.891
63409W        W22846  36.386   8.761   2.847
63410W        W22847  41.009  35.913   9.634
63411W        W22848  29.057  40.838  10.572
63412W        W22849  40.983  10.353  14.767
63413W        W22850   9.860  10.164  10.554
63414W        W22851  31.521   7.176   4.692
63415W        W22852  17.121  36.067   2.828
63416W        W22853  31.983  30.995   2.778
63417W        W22854   4.270  16.121  12.422
63418W        W22855   2.431  22.007  10.003
63419W        W22856  29.622  20.114  11.592
63420W        W22857  38.001   9.354  11.864
63421W        W22858  35.035  12.290  10.503
63422W        W22859  42.935   4.255  12.364
63423W        W22860   4.706  21.572  12.570
63424W        W22861  30.615   6.885   2.211
63425W        W22862   1.419  42.854  14.337
63426W        W22863  11.651   0.412   2.364
63427W        W22864  42.388  19.650  10.982
63428W        W22865  24.487  26.021  11.056
63429W        W22866  17.215  13.313  12.049
63430W        W22867  11.169  34.537   3.844
63431W        W22868  30.620  13.287  10.915
63432W        W22869  24.113  15.785  10.608
63433W        W22870  10.864   7.671  14.022
63434W        W22871  37.859   5.703   3.344
63435W        W22872  26.187   2.431  13.314
63436W        W22873  34.589   3.430  12.827
63437W        W22874  26.028  43.827  13.057
63438W        W22875  15.600  38.053  12.458
63439W        W22876   2.280  43.936  12.867
63440W        W22877  42.937  14.147  10.977
63441W        W22878  17.178  25.077   3.673
63442W        W22879   0.807  34.425   0.256
63443W        W22880  11.803   7.314  10.063
63444W        W22881  38.873  30.461  11.487
63445W        W22882  25.609   2.394   4.115
63446W        W22883  13.288   9.210  14.377
63447W        W22884   0.418  22.542   0.763
63448W        W22885  23.612  18.548   4.640
63449W        W22886  39.539  39.960  12.343
63450W        W22887  44.315  26.147  10.460
63451W        W22888  34.878   8.210   2.831
63452W        W22889  27.604   0.273  11.008
63453W        W22890  21.588  29.925   4.308
63454W        W22891  27.176   5.345  13.354
63455W        W22892  14.810   4.755   2.697
63456W        W22893  10.378  19.665   4.716
63457W        W22894  37.849  22.007  12.826
63458W        W22895  39.404  30.938  10.595
63459W        W22896  44.905  34.103  12.513
63460W        W22897  29.553  22.012  13.035
63461W        W22898  21.717  41.985   4.746
63462W        W22899  26.085  36.855   2.384
63463W        W22900  20.705  33.502  14.415
63464W        W22901  34.877  44.381  11.534
63465W        W22902  42.523   2.837  14.282
63466W        W22903  34.865  13.658   3.701
63467W        W22904  11.731  25.041   1.295
63468W        W22905  20.269  18.257  14.814
63469W        W22906  44.869  29.175   0.809
63470W        W22907   1.388  39.356   4.306
63471W        W22908  17.249  20.629   9.937
63472W        W22909  28.576  43.837   4.350
63473W        W22910  26.000  43.822   4.755
63474W        W22911  12.844  18.151  13.433
63475W        W22912   0.305  25.980  13.880
63476W        W22913   7.667  23.035  11.019
63477W        W22914  37.448   6.282   4.266
63478W        W22915  28.154   9.370   0.483
63479W        W22916  38.481  40.019  12.342
63480W        W22917   4.775  34.495   4.705
63481W        W22918  11.727   7.392   1.844
63482W        W22919  39.490   5.862   4.781
63483W        W22920  37.385  43.276  11.083
63484W        W22921  20.051  16.697  12.559
63485W        W22922  31.898  38.837  14.332
63486W        W22923  42.399  35.947   4.632
63487W        W22924  10.768   2.796   2.335
63488W        W22925  40.017  42.409   2.773
63489W        W22926  21.131   1.347  14.377
63490W        W22927  25.992  31.903   4.607
63491W        W22928  33.465  43.321   2.321
63492W        W22929   0.884  26.087  14.404
63493W        W22930  36.874  26.115  13.403
63494W        W22931   2.409  23.652  13.462
63495W        W22932  28.563  23.687  13.953
63496W        W22933  22.169  14.643  12.043
63497W        W22934  32.049  26.458  12.004
63498W        W22935  20.046  14.607   3.197
63499W        W22936  28.668  41.972   2.854
63500W        W22937  36.880  20.060   2.875
63501W        W22938  36.881   5.428  10.453
63502W        W22939   2.238  26.511  13.967
63503W        W22940  23.602  29.463  14.884
63504W        W22941   6.231  20.070   1.769
63505W        W22942  38.905  14.677   0.366
63506W        W22943   6.709  13.721  10.460
63507W        W22944  33.546  29.955   4.764
63508W        W22945  18.271  41.464  12.967
63509W        W22946  40.008  40.472   2.293
63510W        W22947  20.096  15.182  11.462
63511W        W22948   9.718  26.204  13.797
63512W        W22949  17.564   3.316  13.055
63513W        W22950  22.734  15.181  13.434
63514W        W22951  39.366  31.524  11.058
63515W        W22952  36.486  36.349   4.147
63516W        W22953  22.194  10.232   3.370
63517W        W22954  43.906  21.624   1.793
63518W        W22955  28.157  24.588  13.308
63519W        W22956  29.047  22.075   2.678
63520W        W22957  18.197  15.278  11.098
63521W        W22958  12.258  13.115  13.419
63522W        W22959  27.020  28.594   1.373
63523W        W22960  32.507  33.076   4.253
63524W        W22961   7.773  25.518   4.261
63525W        W22962  42.811   1.453   2.259
63526W        W22963  13.189   8.794  10.161
63527W        W22964  33.510  35.034  10.606
63528W        W22965  39.044  24.059   2.186
63529W        W22966  34.428  10.769   2.688
63530W        W22967  42.942  33.399   4.655
63531W        W22968   0.777  15.084   3.871
63532W        W22969  18.072  27.590   1.879
63533W        W22970  30.135   1.312  11.093
63534W        W22971   0.898  37.063  13.975
63535W        W22972   2.785  25.614   0.338
63536W        W22973  30.063  19.627   4.679
63537W        W22974  39.351  12.856   3.327
63538W        W22975  37.927  13.280  14.512
63539W        W22976  27.130   2.318   3.848
63540W        W22977  29.549  41.803   2.395
63541W        W22978  15.126  17.653  11.542
63542W        W22979  31.596  21.129   2.378
63543W        W22980  31.055  16.651   0.281
63544W        W22981  27.071  29.636  10.076
63545W        W22982  24.177  16.309   1.414
63546W        W22983  27.539   0.289  13.876
63547W        W22984   1.910  38.950  12.965
63548W        W22985   9.228  22.554  10.583
63549W        W22986  28.454   2.275  10.951
63550W        W22987  13.648  27.013   2.257
63551W        W22988  35.861   3.841  13.045
63552W        W22989   6.703   6.863  12.829
63553W        W22990   3.845  15.163   0.252
63554W        W22991  16.184   6.869   4.287
63555W        W22992  39.441  19.213   0.403
63556W        W22993  17.141  42.297   2.823
63557W        W22994   0.264  27.116  10.412
63558W        W22995  27.691  21.246   3.359
63559W        W22996  33.435  31.950   0.327
63560W        W22997  24.080  26.956  11.882
63561W        W22998  11.183  13.739  14.488
63562W        W22999  19.126  11.336   3.311
63563W        W23000   0.357  39.006   9.937
63564W        W23001  21.074   4.912  11.875
63565W        W23002   1.794  25.483   2.735
63566W        W23003   7.879  28.011  12.852
63567W        W23004  41.535  12.356  13.906
63568W        W23005  21.514   2.461  11.554
63569W        W23006  41.520   0.845  12.076
63570W        W23007  20.182  31.456   2.232
63571W        W23008   9.192  32.945   3.827
63572W        W23009  17.732  26.459  11.398
63573W        W23010  14.202  43.946  11.888
63574W        W23011  28.595  30.551  11.058
63575W        W23012  20.619  31.905   2.331
63576W        W23013  23.222   2.796  13.035
63577W        W23014  42.891   8.727   4.698
63578W        W23015  35.575   0.375   4.229
63579W        W23016  11.730  15.790  12.868
63580W        W23017  15.594  12.682   5.162
63581W        W23018  44.357  19.265  10.602
63582W        W23019  10.339   6.389   4.715
63583W        W23020  37.365  23.646   0.292
63584W        W23021  23.122  16.617   0.960
63585W        W23022  39.324  23.635   4.821
63586W        W23023  33.902  18.685   2.226
63587W        W23024  10.794  26.463   3.176
63588W        W23025  41.460  42.305  10.892
63589W        W23026   6.195  30.579  12.370
63590W        W23027  39.435  25.072  13.826
63591W        W23028  14.155  32.487   4.798
63592W        W23029  42.987   7.793  12.376
63593W        W23030  19.107  14.256   5.082
63594W        W23031  17.716   4.320   0.439
63595W        W23032  33.536   7.207  11.487
63596W        W23033  13.650  16.630   3.223
63597W        W23034   0.872  40.814   2.377
63598W        W23035  25.592  13.256   4.806
63599W        W23036   4.240  38.443  11.396
63600W        W23037   8.762  12.823  12.557
63601W        W23038   4.295   6.374  13.930
63602W        W23039  15.302  29.993  11.936
63603W        W23040  18.094   2.895  14.870
63604W        W23041  40.869  15.716   1.876
63605W        W23042  28.145   4.910  11.864
63606W        W23043  40.489  13.159   1.712
63607W        W23044  10.717  38.456  12.514
63608W        W23045  24.099  37.571   0.793
63609W        W23046  15.596  15.633  14.763
63610W        W23047  42.884  30.059   1.320
63611W        W23048  42.850  22.625  13.855
63612W        W23049  31.527  38.841  12.361
63613W        W23050  13.337  40.375  10.028
63614W        W23051  23.987  40.942  14.782
63615W        W23052   8.781  11.809   0.801
63616W        W23053   3.245  41.005   1.860
63617W        W23054  24.220  33.618   4.271
63618W        W23055   9.790  31.627   2.736
63619W        W23056   5.793  11.638   2.898
63620W        W23057  12.727  23.065   2.209
63621W        W23058  12.673  19.546  12.924
63622W        W23059  37.388  32.923   3.381
63623W        W23060  39.959   0.344   4.342
63624W        W23061  11.748   1.790   3.849
63625W        W23062  30.617  14.225   0.882
63626W        W23063   4.729  33.952  12.937
63627W        W23064  43.487  39.830  10.567
63628W        W23065  29.647   8.358   4.168
63629W        W23066   4.436  16.582  11.388
63630W        W23067   4.313  14.241  10.592
63631W        W23068  28.504  40.995  13.858
63632W        W23069  20.182   6.361   3.333
63633W        W23070   1.369  14.700  12.340
63634W        W23071  10.350  13.677   1.402
63635W        W23072  43.787   7.855  12.864
63636W        W23073  28.040  30.605  10.409
63637W        W23074  24.133  40.519   4.193
63638W        W23075  39.935  34.956   0.363
63639W        W23076  37.512   6.306  11.880
63640W        W23077  19.253  25.191  13.969
63641W        W23078  20.725   5.249  10.970
63642W        W23079   5.345  32.125   0.411
63643W        W23080  16.142  19.177   2.806
63644W        W23081  31.959  25.061  12.527
63645W        W23082  17.151   5.930   3.208
63646W        W23083  30.150  11.173  11.396
63647W        W23084  26.504  41.807  11.101
63648W        W23085  41.456  10.679   0.796
63649W        W23086  13.689   1.893   3.780
63650W        W23087  35.105  38.903   1.318
63651W        W23088  20.112  32.032  11.604
63652W        W23089  43.779  36.066  14.970
63653W        W23090  44.985   1.932   2.840
63654W        W23091  44.475  12.774   5.231
63655W        W23092   1.940   8.221  13.383
63656W        W23093  40.492  37.924  10.532
63657W        W23094  25.167  33.072  10.405
63658W        W23095  37.510  43.798   2.224
63659W        W23096  28.592  35.955   1.215
63660W        W23097   5.892  10.799   0.380
63661W        W23098  12.645  29.092   4.215
63662W        W23099  13.192   9.797  12.897
63663W        W23100  33.930  26.547  13.864
63664W        W23101  28.005   3.740  12.498
63665W        W23102  29.641  14.320  14.019
63666W        W23103  34.526  23.496  13.942
63667W        W23104  40.497  17.664   4.623
63668W        W23105  24.142   5.884  13.347
63669W        W23106  32.049  31.056   1.880
63670W        W23107   8.215  32.902  13.038
63671W        W23108  22.603   6.330   1.754
63672W        W23109   0.477  30.512  14.451
63673W        W23110  37.539   2.249   4.719
63674W        W23111  41.942  28.629   2.898
63675W        W23112  23.017  38.962  13.414
63676W        W23113  20.078  23.672  11.455
63677W        W23114   5.872  37.892   2.253
63678W        W23115   3.440  44.982   1.333
63679W        W23116   6.802  25.712  14.339
63680W        W23117  17.639  31.610   2.810
63681W        W23118  14.727  18.133  11.861
63682W        W23119  23.227  35.860   5.255
63683W        W23120  42.320  32.093   3.703
63684W        W23121  27.173  10.285   0.440
63685W        W23122  44.401   0.864  10.584
63686W        W23123  13.812  41.376  10.971
63687W        W23124  35.063  19.763  12.472
63688W        W23125  33.122   1.772  14.813
63689W        W23126  44.870  20.630  10.904
63690W        W23127  18.134  43.816   4.660
63691W        W23128   0.463  30.981  13.926
63692W        W23129  30.648  11.364   1.384
63693W        W23130  41.320  25.092   1.381
63694W        W23131  21.530  24.196   1.730
63695W        W23132   0.265  38.497   1.275
63696W        W23133  30.147  38.885   5.310
63697W        W23134   7.351   5.715   4.602
63698W        W23135  16.571   6.342  12.515
63699W        W23136  20.735  23.657  11.422
63700W        W23137  23.191  28.034   1.373
63701W        W23138  36.396  38.961   4.121
63702W        W23139  42.786  35.979  14.466
63703W        W23140  12.662  18.726   2.859
63704W        W23141  22.049  21.183  14.852
63705W        W23142  16.569  12.284  14.351
63706W        W23143  43.412  10.334  14.982
63707W        W23144  26.027   7.673   1.225
63708W        W23145   0.337  29.547   2.285
63709W        W23146  35.459  35.108  12.079
63710W        W23147  42.922  16.708  12.540
63711W        W23148  16.155   8.846   2.341
63712W        W23149  27.642  14.792   3.803
63713W        W23150  18.187  27.572  14.497
63714W        W23151  10.848  27.627  14.773
63715W        W23152  12.296  10.836   2.786
63716W        W23153  29.445   5.301   0.901
63717W        W23154  20.044  31.070  11.099
63718W        W23155  36.371  41.315  10.582
63719W        W23156  17.179   4.222   3.730
63720W        W23157   6.187  12.809   4.654
63721W        W23158  35.931  10.835  12.849
63722W        W23159  43.277  12.173   3.184
63723W        W23160  43.972  25.082  14.840
63724W        W23161  23.730  13.332   0.918
63725W        W23162  13.192  12.772  12.994
63726W        W23163   3.821  18.680  14.375
63727W        W23164   5.738  40.012   1.303
63728W        W23165   2.266  28.568  10.575
63729W        W23166  33.985  16.703   0.782
63730W        W23167  30.634  31.047   0.852
63731W        W23168  24.184  19.181   3.196
63732W        W23169  28.938  36.367  12.919
63733W        W23170  11.767   4.338   1.307
63734W        W23171  20.245   0.257   0.408
63735W        W23172  11.253  39.347   0.373
63736W        W23173  19.621   3.233  14.902
63737W        W23174  29.589  43.379  10.501
63738W        W23175   5.231  41.014   2.675
63739W        W23176  26.061   2.865   2.689
63740W        W23177  32.532  37.025   0.315
63741W        W23178  10.380  21.129  12.059
63742W        W23179  11.159   7.408   3.164
63743W        W23180   3.264  11.828  11.126
63744W        W23181  12.179  19.759   2.822
63745W        W23182  28.554  12.679  13.476
63746W        W23183   6.720  38.847  11.042
63747W        W23184  40.044  24.568  11.446
63748W        W23185  16.706   8.308  13.055
63749W        W23186  21.723   0.307  11.989
63750W        W23187  36.083  16.178  13.999
63751W        W23188  26.095  37.366  14.857
63752W        W23189  11.257  24.612  12.377
63753W        W23190  39.051   0.752  11.121
63754W        W23191  35.953   8.204  13.319
63755W        W23192  25.514  25.705  13.485
63756W        W23193  21.721  22.051  11.991
63757W        W23194  31.619  43.992  14.929
63758W        W23195  38.967  42.440   1.837
63759W        W23196  10.721   5.281  11.512
63760W        W23197  19.541  40.475   2.323
63761W        W23198   0.431  34.040   4.654
63762W        W23199   6.417  20.595  14.290
63763W        W23200  25.695  25.031   5.145
63764W        W23201  43.380  24.620   0.333
63765W        W23202   6.197   5.249   4.332
63766W        W23203  25.519   0.979  10.120
63767W        W23204  34.886  30.104   1.268
63768W        W23205  43.427   5.719  12.064
63769W        W23206  16.196   2.408   2.187
63770W        W23207  30.469  40.968  12.372
63771W        W23208  26.565   4.775   0.415
63772W        W23209  32.000   1.254  13.484
63773W        W23210  13.820   3.944  11.972
63774W        W23211  14.198  27.053  12.473
63775W        W23212  23.642  38.867   0.797
63776W        W23213  12.317  19.663   3.777
63777W        W23214  27.464   6.385   2.398
63778W        W23215  14.613   5.231   0.907
63779W        W23216  33.506  22.088  11.993
63780W        W23217  27.028  44.756   1.771
63781W        W23218   0.290  24.639   1.929
63782W        W23219  23.098  30.981   2.262
63783W        W23220  14.669  19.729  13.429
63784W        W23221   1.918  36.995   5.121
63785W        W23222  43.379  42.981  14.897
63786W        W23223  30.659  22.066   2.219
63787W        W23224   8.181  18.074  13.817
63788W        W23225   1.255  12.338   4.209
63789W        W23226  26.980  10.266   1.274
63790W        W23227  25.003  43.498  12.975
63791W        W23228  33.624  10.282   0.892
63792W        W23229   2.819  15.147  12.497
63793W        W23230  22.606  14.774  10.893
63794W        W23231  43.325  40.396   4.725
63795W        W23232  24.000  21.671  13.317
63796W        W23233  29.027  42.777  10.942
63797W        W23234  14.597  25.667  13.431
63798W        W23235  38.396  27.633   3.633
63799W        W23236  27.127  42.507  12.040
63800W        W23237  22.109   3.239   3.706
63801W        W23238   8.764  22.584  11.375
63802W        W23239  13.197   4.860   0.302
63803W        W23240   5.389  44.466  10.007
63804W        W23241  40.468   1.769  10.037
63805W        W23242  20.645   5.839  13.337
63806W        W23243  29.626  14.253  10.139
63807W        W23244  31.943  29.573   1.442
63808W        W23245  27.128  37.916   5.727
63809W        W23246  10.203  35.421   3.709
63810W        W23247  44.902  13.349   1.751
63811W        W23248  28.118   2.388   2.399
63812W        W23249  12.283  23.198  14.836
63813W        W23250  23.597  26.164   4.255
63814W        W23251  36.588  23.558  13.982
63815W        W23252  18.722  17.079  13.353
63816W        W23253  17.788  20.067  11.507
63817W        W23254  24.667  41.533  12.083
63818W        W23255  24.060  26.513  10.100
63819W        W23256   7.733  12.202   3.659
63820W        W23257  29.968  35.381  14.460
63821W        W23258  29.972   0.382  10.487
63822W        W23259  19.285  37.572   1.777
63823W        W23260  19.248  31.029  12.402
63824W        W23261  10.362  30.042   1.702
63825W        W23262   7.333  43.338   2.882
63826W        W23263  36.958  37.086  14.797
63827W        W23264  20.702  21.104   0.750
63828W        W23265  11.784  11.649  13.994
63829W        W23266   9.686  40.921   2.372
63830W        W23267  16.174  38.863  10.152
63831W        W23268  25.555  24.499  10.641
63832W        W23269  33.984   2.823   3.696
63833W        W23270  38.554  25.089  13.379
63834W        W23271  24.646   4.874  11.558
63835W        W23272  33.936  44.406  13.862
63836W        W23273  28.991  35.929  12.411
63837W        W23274   6.219  10.253   1.715
63838W        W23275  34.070   5.391   1.228
63839W        W23276   3.888   0.385  10.416
63840W        W23277  41.439  39.036  13.444
63841W        W23278  28.967  20.271   2.359
63842W        W23279  31.144  10.669  12.415
63843W        W23280  40.798  33.483  11.974
63844W        W23281  29.636   0.423  11.006
63845W        W23282  24.008  23.239  14.499
63846W        W23283  11.844  33.445  13.025
63847W        W23284  25.211  37.418  10.639
63848W        W23285   5.429  10.278  11.979
63849W        W23286  24.705  22.146  12.480
63850W        W23287  24.713  22.216   0.842
63851W        W23288  23.984   4.366   0.384
63852W        W23289  42.936  26.499  12.443
63853W        W23290  44.325  32.451  14.900
63854W        W23291  39.888  33.964  11.479
63855W        W23292  26.658  17.183  12.353
63856W        W23293  43.506  15.104  13.543
63857W        W23294  21.603   5.210   4.631
63858W        W23295   2.734  14.732  13.510
63859W        W23296  33.402   0.824  12.847
63860W        W23297  11.856  38.841  12.889
63861W        W23298  43.276  29.058   1.379
63862W        W23299  21.141   7.883   4.242
63863W        W23300  35.563  24.143  13.822
63864W        W23301  34.950  39.451  14.871
63865W        W23302  13.601  41.978   3.660
63866W        W23303   7.745  12.117   4.205
63867W        W23304  33.578  39.933   1.306
63868W        W23305  13.187   8.187   4.791
63869W        W23306  27.689  36.040   3.203
63870W        W23307  31.523  10.680   3.313
63871W        W23308  42.905   3.872  14.406
63872W        W23309  37.987  35.507   3.342
63873W        W23310  39.929  38.978  13.383
63874W        W23311  32.479  28.039  10.916
63875W        W23312  34.455  18.238   3.364
63876W        W23313  32.008  10.677   1.920
63877W        W23314  37.341  19.536   3.353
63878W        W23315   7.905   5.337   2.287
63879W        W23316  40.988  19.206   3.729
63880W        W23317  29.527  33.032  11.002
63881W        W23318   3.393  28.119   3.723
63882W        W23319   2.941  33.890  11.043
63883W        W23320  37.344   6.418   4.713
63884W        W23321   1.931  30.564   4.227
63885W        W23322  39.524  27.014   0.378
63886W        W23323   1.742   3.229  12.074
63887W        W23324  30.130  41.921  13.805
63888W        W23325  25.536  38.965   4.690
63889W        W23326  19.617   9.276  11.015
63890W        W23327  33.114  22.609   4.636
63891W        W23328  16.596   0.442  14.356
63892W        W23329  19.055  36.475   3.268
63893W        W23330  17.261  30.020   2.740
63894W        W23331   9.344  34.391   3.851
63895W        W23332  11.185  44.982   2.664
63896W        W23333  27.518  12.832  12.043
63897W        W23334  39.494   6.205  13.344
63898W        W23335  44.436  30.596   0.785
63899W        W23336   8.892   0.332   2.832
63900W        W23337  13.106   4.377  12.567
63901W        W23338  39.018  36.994  13.486
63902W        W23339  38.514  37.084   1.298
63903W        W23340  11.266  37.456   5.142
63904W        W23341   5.358  27.100   3.290
63905W        W23342  36.843   8.260   0.297
63906W        W23343  24.576  30.466   2.318
63907W        W23344  33.086  28.477   3.247
63908W        W23345   5.718  22.070   3.752
63909W        W23346  24.144  26.192   0.471
63910W        W23347  40.412  25.486  11.441
63911W        W23348  41.358   7.706  13.406
63912W        W23349  24.060  35.478   0.403
63913W        W23350  31.471   4.269   1.703
63914W        W23351  13.637  26.557   4.681
63915W        W23352  33.953  29.516  13.945
63916W        W23353  24.642   8.821   4.614
63917W        W23354  39.529  29.028  12.502
63918W        W23355  16.585  12.119   1.706
63919W        W23356   5.280  22.639   2.680
63920W        W23357  44.393  41.481  14.358
63921W        W23358   8.209  26.992   0.826
63922W        W23359   1.283  10.849  10.905
63923W        W23360  40.872   9.794  14.491
63924W        W23361  21.734  33.946  13.965
63925W        W23362  41.332  30.479   1.774
63926W        W23363  37.870  38.821   3.216
63927W        W23364  39.988  39.937  13.391
63928W        W23365  34.413   4.864   3.795
63929W        W23366  31.110  30.965   0.457
63930W        W23367  19.125   8.283  11.602
63931W        W23368  34.073  26.519  12.088
63932W        W23369  26.958  11.353   0.886
63933W        W23370  19.146  10.809  10.452
63934W        W23371  16.287  40.040   1.285
63935W        W23372  43.484  37.447  14.508
63936W        W23373  40.970  43.270  11.556
63937W        W23374   4.314   0.464  13.954
63938W        W23375  22.660  24.162   3.212
63939W        W23376  14.826  42.888   2.751
63940W        W23377  42.965  20.718  13.859
63941W        W23378  43.947   6.283  11.468
63942W        W23379  36.587  27.667   2.855
63943W        W23380  35.977  29.122   2.262
63944W        W23381   6.859  22.722  11.541
63945W        W23382  35.541  32.404  13.544
63946W        W23383  26.515   9.862   1.389
63947W        W23384   5.355  31.535  11.512
63948W        W23385  43.953  16.175   0.936
63949W        W23386  43.400  38.421   2.713
63950W        W23387  35.444  43.772  12.893
63951W        W23388  44.440  19.215  14.863
63952W        W23389   2.264  39.973   2.403
63953W        W23390  38.006  36.089   3.235
63954W        W23391  44.383  12.775   1.851
63955W        W23392  11.820   5.883  11.952
63956W        W23393   1.297  34.391   1.231
63957W        W23394  14.740   8.270   2.770
63958W        W23395   1.756   6.409  11.963
63959W        W23396  44.945  15.113   0.422
63960W        W23397  37.442   7.277  12.096
63961W        W23398  42.517   2.390   3.844
63962W        W23399  14.094  27.657   1.920
63963W        W23400  37.863  40.849   0.351
63964W        W23401  42.930   7.367   4.773
63965W        W23402   9.366  36.544   4.268
63966W        W23403  43.355  29.544   3.269
63967W        W23404  42.016  31.445   3.724
63968W        W23405  37.380  15.793  12.471
63969W        W23406   7.688  31.563   2.236
63970W        W23407  41.876  42.471   3.273
63971W        W23408  19.203   7.187   2.701
63972W        W23409  27.501  36.927  10.639
63973W        W23410   2.805   3.816  10.927
63974W        W23411  34.504  25.181   3.687
63975W        W23412  42.493   2.244  12.974
63976W        W23413  19.042  31.458   3.772
63977W        W23414   5.346  27.081  12.082
63978W        W23415  21.217   1.948  10.467
63979W        W23416   0.291   3.257   2.810
63980W        W23417  33.054  25.004   0.763
63981W        W23418  25.967  29.582  13.431
63982W        W23419  22.013  25.010  14.999
63983W        W23420  16.077   4.881  11.076
63984W        W23421  35.878  39.982   1.317
63985W        W23422  29.653  41.867  11.573
63986W        W23423  24.579  37.344   9.529
63987W        W23424  13.671   1.242  13.795
63988W        W23425  18.778  42.459  13.969
63989W        W23426  11.734  28.040   1.782
63990W        W23427  44.377  44.362  10.890
63991W        W23428  22.229  44.277   3.638
63992W        W23429  23.560  25.570  11.091
63993W        W23430   3.803  40.483  11.526
63994W        W23431  38.913  25.612   1.906
63995W        W23432  34.921   2.911  11.951
63996W        W23433   9.257  15.601   9.966
63997W        W23434  13.710  41.397  11.498
63998W        W23435  40.843  20.154   3.766
63999W        W23436   1.361  27.689   0.730
64000W        W23437  18.102   8.762   4.804
64001W        W23438   1.933  23.194   3.708
64002W        W23439  19.559  24.137  10.888
64003W        W23440  32.975   2.941  11.407
64004W        W23441   8.404  39.829   0.752
64005W        W23442  33.974  36.546   2.740
64006W        W23443  44.476  19.542  11.530
64007W        W23444  39.815  11.839   1.264
64008W        W23445  27.638  42.363  12.453
64009W        W23446  24.188  31.930  12.579
64010W        W23447  12.175   5.867   4.819
64011W        W23448  21.190  34.527   2.264
64012W        W23449  18.171  23.594   2.252
64013W        W23450  32.057  44.386  10.968
64014W        W23451  29.505  38.498  13.919
64015W        W23452  36.041  33.061  10.629
64016W        W23453  41.500  36.051   5.296
64017W        W23454  25.603  38.934  13.011
64018W        W23455  12.769   7.867  11.001
64019W        W23456  26.201  36.583  11.513
64020W        W23457  41.975  33.532  14.771
64021W        W23458  15.305  38.363   2.881
64022W        W23459  13.279  31.028   4.160
64023W        W23460  23.529   0.986  12.996
64024W        W23461   2.248  31.021  11.413
64025W        W23462  39.324  18.651  11.078
64026W        W23463  39.349  14.646   2.775
64027W        W23464  19.655  37.996  11.423
64028W        W23465  37.468  30.143   0.929
64029W        W23466   8.888  19.162  11.977
64030W        W23467  22.067  11.807   5.300
64031W        W23468  22.733  21.118   9.564
64032W        W23469  11.276  35.103  13.483
64033W        W23470  39.809  34.568   1.345
64034W        W23471  25.218  16.149  11.118
64035W        W23472  44.321  29.499   1.313
64036W        W23473  20.663   6.307  13.442
64037W        W23474  27.546  25.042  12.386
64038W        W23475  12.255  31.624   4.156
64039W        W23476  41.928  22.119  13.475
64040W        W23477  25.652  26.542   0.326
64041W        W23478  23.538  39.029  12.074
64042W        W23479  35.008  27.969   3.715
64043W        W23480  28.500  10.693   2.266
64044W        W23481  32.052  41.011   0.480
64045W        W23482   8.858   4.783   1.766
64046W        W23483   1.844  37.569  12.450
64047W        W23484  15.327   2.791  14.441
64048W        W23485  33.897  10.274   1.853
64049W        W23486  26.062  20.147  14.875
64050W        W23487  23.730  27.151  12.419
64051W        W23488  30.414  11.165   3.650
64052W        W23489  21.698  16.078  14.491
64053W        W23490  20.623  30.920   0.368
64054W        W23491  17.789   2.376  13.996
64055W        W23492   2.888   2.459   4.216
64056W        W23493  10.641   5.295  12.991
64057W        W23494   2.458  44.799   0.462
64058W        W23495  28.987   6.731  11.543
64059W        W23496  11.767  42.826  12.886
64060W        W23497   8.808  35.502   0.473
64061W        W23498  21.639  39.948   0.765
64062W        W23499  14.722  42.957   4.304
64063W        W23500  19.754  30.536  13.367
64064W        W23501  24.516   5.908   1.909
64065W        W23502  29.525  35.874   4.792
64066W        W23503  44.818  27.629   4.761
64067W        W23504   0.982  22.190   0.393
64068W        W23505  42.999   2.410   2.749
64069W        W23506   9.393  18.224   0.915
64070W        W23507   7.239   4.824  12.998
64071W        W23508  19.662  37.835   3.826
64072W        W23509  37.460   7.195  10.960
64073W        W23510  32.460  20.629   1.751
64074W        W23511  37.574  38.562  11.375
64075W        W23512   5.823   6.324  12.991
64076W        W23513  23.613  36.360  11.025
64077W        W23514  23.196  21.564  14.020
64078W        W23515  35.560  26.977  14.399
64079W        W23516  41.502  29.508  10.582
64080W        W23517  43.319  25.197  14.276
64081W        W23518  44.313  20.609   2.313
64082W        W23519  18.765  13.655  10.913
64083W        W23520  11.139  25.047   1.235
64084W        W23521   3.333  35.982  14.475
64085W        W23522   4.915  11.299   4.784
64086W        W23523  42.820  25.168   1.267
64087W        W23524  23.987  43.338  14.452
64088W        W23525  18.672  19.182  12.523
64089W        W23526  41.489  30.506   2.735
64090W        W23527  20.618  33.498   3.749
64091W        W23528  27.496  17.179   0.950
64092W        W23529  12.794  34.977  13.853
64093W        W23530  27.471  43.013  13.465
64094W        W23531  28.512  16.615   1.842
64095W        W23532   7.705  21.027   1.812
64096W        W23533  19.170  20.257  11.921
64097W        W23534  11.856   3.300  13.328
64098W        W23535   9.297  29.109  12.458
64099W        W23536  25.037  28.104  11.613
64100W        W23537   4.704  37.945   1.234
64101W        W23538  37.031  36.015   1.216
64102W        W23539  32.991  20.711   4.725
64103W        W23540  23.025  26.630  10.016
64104W        W23541  16.813  34.081   3.278
64105W        W23542  35.503  36.011  11.928
64106W        W23543  38.893   4.914  14.446
64107W        W23544  17.303  35.060  12.988
64108W        W23545  24.013  22.077   1.358
64109W        W23546  44.827  18.557   0.763
64110W        W23547   5.210  42.998  11.106
64111W        W23548  37.483  28.548   1.887
64112W        W23549   7.879   0.424  13.977
64113W        W23550  13.828  28.090  10.978
64114W        W23551  28.629  41.856  14.310
64115W        W23552  11.715  13.674   2.890
64116W        W23553  44.772  32.967   4.751
64117W        W23554  32.001  32.435   5.167
64118W        W23555  39.046   2.314  12.424
64119W        W23556  10.289  44.887   0.780
64120W        W23557  38.490  23.134  12.092
64121W        W23558   4.716  27.465  10.544
64122W        W23559  20.092  43.854  14.334
64123W        W23560  12.136  20.156   2.666
64124W        W23561  37.348  32.893   4.247
64125W        W23562  15.247  37.390  11.592
64126W        W23563  40.400   4.935   1.368
64127W        W23564  26.191  44.893   4.213
64128W        W23565  38.890   2.325  11.565
64129W        W23566  37.832  43.013  13.524
64130W        W23567  42.493  20.160  14.887
64131W        W23568  15.755  36.386  14.411
64132W        W23569   1.796  24.555  11.498
64133W        W23570  27.621  28.053  14.971
64134W        W23571   4.929  33.934  11.870
64135W        W23572  39.041  17.615   4.139
64136W        W23573  25.565  43.991  14.337
64137W        W23574  24.003  27.051   1.329
64138W        W23575  19.125  40.884   0.397
64139W        W23576  29.061  24.209   5.117
64140W        W23577  33.895  10.298   2.249
64141W        W23578  24.107   4.326   2.195
64142W        W23579   7.860  34.442  11.519
64143W        W23580  41.298   0.813   4.116
64144W        W23581  25.507   8.245  11.422
64145W        W23582  41.440  38.571  10.902
64146W        W23583  22.226  21.670  12.505
64147W        W23584  18.249  43.328   1.411
64148W        W23585  40.348  27.969   2.759
64149W        W23586  44.846  16.292   1.346
64150W        W23587  10.790  34.040  11.499
64151W        W23588  36.842  39.885   9.955
64152W        W23589  42.300  31.143   3.245
64153W        W23590  38.914  16.290   0.436
64154W        W23591  14.203  20.161  10.605
64155W        W23592   4.941   9.273   4.690
64156W        W23593   1.897  18.758  12.960
64157W        W23594  42.960  16.674  11.025
64158W        W23595  16.086  11.859  10.580
64159W        W23596  20.570  21.084   0.277
64160W        W23597  13.623  31.483  11.478
64161W        W23598   1.309  22.050   0.730
64162W        W23599   6.365   0.771   4.167
64163W        W23600  36.001  18.125  13.483
64164W        W23601  28.955  37.046  11.868
64165W        W23602  27.605  37.519   4.205
64166W        W23603   7.802  44.899   4.672
64167W        W23604  39.559   2.935   1.720
64168W        W23605   5.272   2.819   3.865
64169W        W23606  36.581  15.224  13.798
64170W        W23607  38.464  15.322  11.594
64171W        W23608  19.751  43.950   1.738
64172W        W23609   9.745  14.664   2.830
64173W        W23610  34.540  20.194   4.242
64174W        W23611  25.143  20.585  12.473
64175W        W23612  32.101   2.906  12.006
64176W        W23613  40.522  13.758   3.153
64177W        W23614   5.375   5.338   2.697
64178W        W23615  15.132   3.924   1.857
64179W        W23616   1.824  30.606  12.959
64180W        W23617  20.538   3.941  11.078
64181W        W23618  43.361  40.394  10.919
64182W        W23619   9.243  21.246   1.321
64183W        W23620   9.328  28.520   1.861
64184W        W23621  27.157  41.958   4.674
64185W        W23622  11.753  33.946   3.192
64186W        W23623  32.431   2.255   3.773
64187W        W23624  19.623  18.228   5.585
64188W        W23625  11.221   3.439  13.886
64189W        W23626  33.570  42.523   1.351
64190W        W23627  14.131   5.784  12.519
64191W        W23628   7.783  37.425   1.394
64192W        W23629  10.378  40.343  13.930
64193W        W23630  36.566  14.131   3.757
64194W        W23631  33.987  42.786   1.239
64195W        W23632  25.618  14.316  12.052
64196W        W23633  42.283   4.857  10.427
64197W        W23634  19.174  26.141  13.983
64198W        W23635  44.002  18.724  13.991
64199W        W23636  43.308  30.929   3.360
64200W        W23637   4.443  12.740  13.528
64201W        W23638   6.297  18.058   1.439
64202W        W23639  24.606  15.618  11.892
64203W        W23640  25.973  40.369   1.310
64204W        W23641   4.206   7.911  14.848
64205W        W23642  32.424  40.457  12.865
64206W        W23643  39.883  17.788  11.889
64207W        W23644  10.648  35.556   1.829
64208W        W23645  17.139  36.917   3.177
64209W        W23646  15.324   2.764  14.016
64210W        W23647  29.087  31.056   4.198
64211W        W23648  20.226  16.109  13.428
64212W        W23649  21.666  29.549   4.638
64213W        W23650   5.207  43.345  11.082
64214W        W23651  25.972  20.600   3.322
64215W        W23652  14.628  18.292   2.353
64216W        W23653  13.711  11.319  12.378
64217W        W23654   7.701  38.400   3.791
64218W        W23655   1.812  11.695  14.441
64219W        W23656   9.248  32.494  12.442
64220W        W23657  37.382   4.208  11.017
64221W        W23658  35.519  33.552  12.363
64222W        W23659  36.494   0.827   2.866
64223W        W23660  27.544  12.246   0.862
64224W        W23661  19.678   2.833  12.998
64225W        W23662  38.343  18.282  14.761
64226W        W23663  16.317   0.272  11.601
64227W        W23664  22.198   6.796  14.906
64228W        W23665  28.656  28.550  13.943
64229W        W23666  30.983  22.183  11.598
64230W        W23667  14.684  35.495   4.598
64231W        W23668  40.364   8.699  11.929
64232W        W23669  19.620  34.601   1.369
64233W        W23670  38.449  26.580   2.735
64234W        W23671  26.618  26.557  11.501
64235W        W23672  23.009   2.298  12.359
64236W        W23673   2.384   7.199  12.054
64237W        W23674  15.199   3.399   1.909
64238W        W23675  11.760  34.615   1.729
64239W        W23676   2.454  25.098   4.173
64240W        W23677  10.154  20.550   2.720
64241W        W23678  38.540   6.409  10.982
64242W        W23679  14.650  35.886  13.512
64243W        W23680  36.890  28.643   3.234
64244W        W23681  43.332  29.589  11.001
64245W        W23682  34.534  22.190   1.866
64246W        W23683   9.876  36.051  12.526
64247W        W23684   8.669  25.577   9.672
64248W        W23685  25.643  29.518   2.802
64249W        W23686  22.722  36.896   2.724
64250W        W23687  37.887   7.369  12.500
64251W        W23688  29.650  20.147   1.438
64252W        W23689   4.276  12.656  12.418
64253W        W23690  37.402  19.269  13.857
64254W        W23691  14.174  34.572  11.416
64255W        W23692  22.695  41.960   1.881
64256W        W23693   0.871   5.249  14.297
64257W        W23694  33.079  13.843   2.339
64258W        W23695  15.284  32.931  13.883
64259W        W23696   7.321  36.445   1.897
64260W        W23697  32.079  26.139   1.301
64261W        W23698  14.117  37.341  11.871
64262W        W23699   0.483   9.161  12.859
64263W        W23700  34.463  42.963  12.933
64264W        W23701  41.386  10.769   0.271
64265W        W23702  42.476  41.824   0.472
64266W        W23703  22.662  22.510   0.855
64267W        W23704  30.629  34.920  13.456
64268W        W23705  16.077   9.854   1.255
64269W        W23706  13.116  44.888   2.680
64270W        W23707  35.001  11.666   1.380
64271W        W23708  20.547  22.173  12.070
64272W        W23709  14.253  39.420   3.846
64273W        W23710   1.937  14.239  12.379
64274W        W23711   5.313  43.315   3.242
64275W        W23712   6.677  19.726  11.447
64276W        W23713  36.943  42.798   0.899
64277W        W23714  41.518  43.374  14.508
64278W        W23715  23.179  17.592   3.651
64279W        W23716  39.908   1.445  13.540
64280W        W23717  11.788   2.469   1.334
64281W        W23718   1.483   6.295  12.057
64282W        W23719  11.720  20.653  12.408
64283W        W23720  17.750  17.714  10.615
64284W        W23721  21.608  12.767   3.245
64285W        W23722  28.514  28.004  14.318
64286W        W23723  38.433  25.579   0.899
64287W        W23724  44.981  17.572   0.380
64288W        W23725  34.438  33.415   4.799
64289W        W23726  25.129  17.799  14.428
64290W        W23727  23.527  11.771  14.960
64291W        W23728  39.029  19.085  13.943
64292W        W23729  12.649  13.777  13.853
64293W        W23730  40.995  17.135   1.302
64294W        W23731  24.174   3.314   4.211
64295W        W23732   2.441  13.313  13.855
64296W        W23733  44.445   1.473   0.826
64297W        W23734  27.612  24.036   0.453
64298W        W23735  29.450  39.912   1.703
64299W        W23736  33.980   9.238  11.952
64300W        W23737  21.547   6.761  13.341
64301W        W23738   5.927  18.145  10.419
64302W        W23739  33.961  20.176   0.787
64303W        W23740   4.924  22.507  10.019
64304W        W23741   6.814  37.373  13.024
64305W        W23742  23.561  22.658  14.016
64306W        W23743  16.137   8.338   3.732
64307W        W23744   5.408   6.398   0.785
64308W        W23745   1.888  20.059  13.532
64309W        W23746  29.172   8.826  10.521
64310W        W23747  42.318  32.425   2.265
64311W        W23748  23.701  24.698  12.423
64312W        W23749  33.499  30.034  11.506
64313W        W23750  25.080  30.568  10.411
64314W        W23751  26.604   4.260   3.371
64315W        W23752  41.838  12.278  14.323
64316W        W23753  34.601  36.056  13.982
64317W        W23754  41.439  42.851   3.789
64318W        W23755  39.334  10.684  12.473
64319W        W23756  19.583  33.482   1.368
64320W        W23757  29.600  11.157   4.154
64321W        W23758  19.081  22.538   2.825
64322W        W23759  19.589  15.131   4.315
64323W        W23760  41.809  14.174  14.352
64324W        W23761  21.540  23.591   1.707
64325W        W23762  13.631  11.212  14.894
64326W        W23763  37.498   6.422   3.738
64327W        W23764  27.549  26.165   3.187
64328W        W23765  14.267  30.061  13.448
64329W        W23766   0.417  42.877   2.265
64330W        W23767   7.674  32.935  10.487
64331W        W23768   8.327  13.791  12.066
64332W        W23769  22.173  31.602  10.422
64333W        W23770  14.117  34.503   4.194
64334W        W23771   5.907  25.600  13.041
64335W        W23772  41.796  18.101  14.964
64336W        W23773  30.120   3.950   1.768
64337W        W23774  33.020  21.652   4.289
64338W        W23775  43.347   9.297  14.280
64339W        W23776   2.847  22.572   4.194
64340W        W23777  26.957  41.410   2.278
64341W        W23778  42.933  38.448   3.814
64342W        W23779  40.988  35.898  14.460
64343W        W23780  17.256  32.601   1.320
64344W        W23781   5.354  32.135   3.241
64345W        W23782  39.827   6.207  11.493
64346W        W23783  16.719  38.971   0.325
64347W        W23784  18.557  16.593   0.299
64348W        W23785   9.384  32.429   4.339
64349W        W23786   4.916  17.063   2.727
64350W        W23787  31.570   8.310   0.875
64351W        W23788   5.827  23.605   3.726
64352W        W23789  13.229  34.882  10.141
64353W        W23790  24.564  39.940   0.344
64354W        W23791  20.701  22.104  14.008
64355W        W23792  33.525   2.824   0.859
64356W        W23793  39.857  21.242   0.411
64357W        W23794  35.436   7.685   4.730
64358W        W23795  14.673   1.292  14.971
64359W        W23796   3.779  25.595   0.824
64360W        W23797  18.147  37.526  13.846
64361W        W23798   5.351  26.988  11.013
64362W        W23799  18.270  33.100   2.344
64363W        W23800  23.193  29.584   2.332
64364W        W23801   6.384  39.993  13.336
64365W        W23802  21.616  19.186  12.870
64366W        W23803  15.084  13.842  10.906
64367W        W23804  29.096   4.396  11.891
64368W        W23805  26.119  17.184   2.876
64369W        W23806  35.584  29.549   4.685
64370W        W23807  25.966   4.365  12.894
64371W        W23808  36.428   7.366   2.803
64372W        W23809   6.397  30.547   0.290
64373W        W23810  28.062   2.947  13.450
64374W        W23811   8.192  20.710  11.892
64375W        W23812   4.922  39.433   2.210
64376W        W23813  18.087  18.230   0.867
64377W        W23814  42.984  10.845   1.822
64378W        W23815   1.245  36.025  11.975
64379W        W23816  29.147  33.577  14.892
64380W        W23817  43.375  13.252   0.778
64381W        W23818  17.556   7.804  10.490
64382W        W23819  27.454  23.145  10.147
64383W        W23820  40.045  43.773   4.316
64384W        W23821  39.893  42.440   2.208
64385W        W23822  20.101   4.362  13.893
64386W        W23823  23.044  35.372  14.438
64387W        W23824  25.686  24.102   3.708
64388W        W23825  22.608   1.331  14.436
64389W        W23826  36.496  10.318   0.727
64390W        W23827  35.002  33.510   3.331
64391W        W23828  31.118  28.049   0.422
64392W        W23829  16.772  31.953   1.256
64393W        W23830   7.729  11.659  14.928
64394W        W23831  29.964  13.279  12.097
64395W        W23832  12.614  35.008  11.895
64396W        W23833  33.094  23.143   5.108
64397W        W23834  19.757   8.837  14.932
64398W        W23835  23.604   7.184  14.976
64399W        W23836  18.775   0.471  11.413
64400W        W23837  21.209  21.532   0.436
64401W        W23838  37.952   2.340  12.467
64402W        W23839   4.359  39.953  12.950
64403W        W23840  16.132  14.731   3.156
64404W        W23841  36.006  12.360  11.503
64405W        W23842  10.829  26.528   1.754
64406W        W23843   1.830  28.672   0.943
64407W        W23844   9.244  13.308   0.464
64408W        W23845  26.074  34.934  13.486
64409W        W23846  10.818  34.528  10.441
64410W        W23847  35.452  18.128  14.938
64411W        W23848  22.022  29.460  13.423
64412W        W23849  23.984  21.033   2.236
64413W        W23850   6.805  25.682   9.597
64414W        W23851  44.968  18.151  11.013
64415W        W23852   9.849  11.804   4.618
64416W        W23853   8.202  14.190  13.823
64417W        W23854  17.771  10.837  13.997
64418W        W23855  19.201  34.435   1.926
64419W        W23856  15.263  14.164   0.336
64420W        W23857  12.119  14.261   3.195
64421W        W23858  21.601  37.861   0.759
64422W        W23859  27.559   4.227   0.729
64423W        W23860  35.379   8.397   0.261
64424W        W23861   1.420  22.693   4.253
64425W        W23862  30.584  21.209   0.478
64426W        W23863  33.389  31.552   0.295
64427W        W23864   8.674  25.985   0.924
64428W        W23865  13.813  27.171   0.423
64429W        W23866  24.229  37.506   1.768
64430W        W23867  15.785  22.541  12.859
64431W        W23868  17.074  11.863   0.402
64432W        W23869  14.265   2.915   2.358
64433W        W23870  42.368  25.705  12.487
64434W        W23871  36.373  22.214  13.793
64435W        W23872  28.009  37.357   0.465
64436W        W23873  18.254  41.027  10.009
64437W        W23874  34.995  43.462  11.057
64438W        W23875  39.915  21.551   0.473
64439W        W23876  32.611  13.341  13.374
64440W        W23877  12.307  24.044  12.368
64441W        W23878  31.592   6.209   0.918
64442W        W23879  42.503  22.092  14.985
64443W        W23880  26.545  20.155  11.959
64444W        W23881  39.359  28.502  14.926
64445W        W23882  39.445  41.353   2.739
64446W        W23883  15.126  36.093   1.370
64447W        W23884  12.335  10.848   3.212
64448W        W23885  33.949  37.955  13.536
64449W        W23886  13.816  36.892  13.792
64450W        W23887   3.770  16.782   4.678
64451W        W23888  23.712  43.785   3.284
64452W        W23889  32.097  30.580  13.987
64453W        W23890   5.821  18.206  11.899
64454W        W23891  11.633  24.612  11.527
64455W        W23892  29.072  24.116  11.592
64456W        W23893  19.752  36.842  12.385
64457W        W23894  16.580  33.018   2.416
64458W        W23895  34.399  28.932  12.456
64459W        W23896  43.292  41.431   0.354
64460W        W23897  22.131  19.541  14.023
64461W        W23898  23.233   1.259  12.562
64462W        W23899  28.635  27.157  13.968
64463W        W23900  39.900  41.990   4.699
64464W        W23901  40.438  32.425   1.892
64465W        W23902  13.779  24.022   1.314
64466W        W23903  39.025  39.485  12.402
64467W        W23904  36.521   4.779   3.764
64468W        W23905  10.149  24.117   0.430
64469W        W23906  39.353  30.465  12.865
64470W        W23907  31.140  43.956   3.197
64471W        W23908  39.451   9.759  13.805
64472W        W23909  11.336  13.682  11.383
64473W        W23910  31.007   5.929  12.856
64474W        W23911  43.785  22.514   4.757
64475W        W23912  13.790  30.104   0.309
64476W        W23913  40.008  42.797  11.476
64477W        W23914  42.291  39.478   3.267
64478W        W23915  33.076   1.332   4.685
64479W        W23916  12.235  40.864  14.397
64480W        W23917  15.114  41.304   4.159
64481W        W23918  32.080  19.119   4.300
64482W        W23919  25.713  31.596  12.853
64483W        W23920  31.494  34.083   0.827
64484W        W23921  44.829  41.527  11.391
64485W        W23922  29.050  38.531  13.411
64486W        W23923  30.641  31.405  12.548
64487W        W23924   3.926  43.789  13.531
64488W        W23925  17.714  29.444   2.195
64489W        W23926   1.766   4.253   4.683
64490W        W23927  35.862   7.400   1.912
64491W        W23928   8.850  15.167   0.856
64492W        W23929  12.730  23.590  12.000
64493W        W23930  36.951  15.145   2.406
64494W        W23931  10.780  41.804   1.732
64495W        W23932  16.157  28.107  12.936
64496W        W23933  16.610  34.430  11.519
64497W        W23934  23.100   6.372   1.839
64498W        W23935  23.224  24.630  13.887
64499W        W23936   4.841  37.973  11.510
64500W        W23937   2.248  13.172   3.265
64501W        W23938  21.209  27.989  12.889
64502W        W23939  19.110  23.094  14.954
64503W        W23940  20.593  19.671  13.422
64504W        W23941  15.254  37.558   3.251
64505W        W23942  36.425  38.044  14.914
64506W        W23943  32.588  22.534   2.224
64507W        W23944   5.433  19.767   1.721
64508W        W23945  28.960  12.234  12.038
64509W        W23946  10.161   0.456  13.540
64510W        W23947  38.021   3.316   0.365
64511W        W23948  31.482  44.483  12.379
64512W        W23949   2.388  24.209   2.239
64513W        W23950  30.645   0.282   4.157
64514W        W23951  34.083  27.507   4.216
64515W        W23952  44.963  23.593  14.466
64516W        W23953  11.846  38.448   3.686
64517W        W23954  42.863   8.197  11.490
64518W        W23955  38.873  26.456   4.210
64519W        W23956  41.390  22.519  11.070
64520W        W23957   9.749   3.924   2.742
64521W        W23958   0.408  24.110   3.306
64522W        W23959  40.526  31.971   3.345
64523W        W23960  38.849  44.412   2.195
64524W        W23961   7.174   2.887   4.712
64525W        W23962   4.304  44.468  14.917
64526W        W23963  38.558  34.436   2.777
64527W        W23964   1.389  33.444   2.327
64528W        W23965  32.529   3.903  14.788
64529W        W23966  44.841  29.472   1.865
64530W        W23967   8.859  39.345  11.407
64531W        W23968   9.242  40.464  10.004
64532W        W23969  17.567  28.014  14.839
64533W        W23970  28.639  39.383   1.307
64534W        W23971  21.082  36.439  11.095
64535W        W23972  33.905   0.271   3.206
64536W        W23973   3.457  36.970   0.871
64537W        W23974   2.767  12.130  14.431
64538W        W23975  30.557  31.511  11.475
64539W        W23976  24.173   6.423   4.804
64540W        W23977  38.498  23.044  14.488
64541W        W23978   8.661  24.017   2.732
64542W        W23979  19.163  23.697   9.921
64543W        W23980  40.525  16.683   2.253
64544W        W23981  24.090  11.688  11.386
64545W        W23982  40.973   4.416   2.390
64546W        W23983   4.254  21.107   2.685
64547W        W23984  25.966  17.274   0.381
64548W        W23985  32.033  13.338   2.212
64549W        W23986  22.030  41.841  14.920
64550W        W23987  31.919  13.765   3.192
64551W        W23988  13.191   9.308  13.358
64552W        W23989  35.383  20.667   1.404
64553W        W23990   0.873  25.120   4.307
64554W        W23991  28.035   1.787   1.273
64555W        W23992  22.704  43.331   2.747
64556W        W23993  23.673  17.128  11.417
64557W        W23994  33.941   8.785  10.952
64558W        W23995  16.618  17.259   1.410
64559W        W23996  43.818  38.473   2.877
64560W        W23997  26.475  26.031  13.508
64561W        W23998  43.319  32.603   2.897
64562W        W23999  29.935  39.901  12.019
64563W        W24000   1.342  13.247   0.452
64564W        W24001  24.194  19.541  13.424
64565W        W24002  31.554  41.976   9.648
64566W        W24003  34.071  22.562  12.910
64567W        W24004  44.900  18.640  11.513
64568W        W24005  35.106  38.361  10.048
64569W        W24006  17.764  29.968   3.863
64570W        W24007  31.146  41.849   1.273
64571W        W24008  13.206  11.307  13.850
64572W        W24009   6.903  20.149   1.899
64573W        W24010  28.486  14.824   3.166
64574W        W24011  32.064  36.924   1.234
64575W        W24012  42.303  29.949   3.690
64576W        W24013  41.364  29.948  10.418
64577W        W24014  26.188   4.713   3.792
64578W        W24015  35.954  23.052  13.362
64579W        W24016  34.076   2.921  10.508
64580W        W24017  18.294  25.522   0.958
64581W        W24018  33.489   2.782  10.928
64582W        W24019  43.773  39.410   0.883
64583W        W24020  28.535  36.048  12.963
64584W        W24021  40.949  23.045   3.315
64585W        W24022  21.185  18.604   2.791
64586W        W24023   5.293  25.500  11.536
64587W        W24024   1.860  27.070   2.401
64588W        W24025  21.643  14.116   2.871
64589W        W24026  28.150   3.891   2.353
64590W        W24027  32.126  28.470  12.559
64591W        W24028  25.102   0.413   2.289
64592W        W24029  39.453  32.138   2.761
64593W        W24030  15.816  12.682   3.262
64594W        W24031  44.836  29.076   0.348
64595W        W24032  38.397   4.367   0.362
64596W        W24033   3.372   4.779  14.791
64597W        W24034  12.788  44.828   3.778
64598W        W24035  11.682  43.915   0.947
64599W        W24036  14.735  44.923   1.297
64600W        W24037  41.923  29.102   4.697
64601W        W24038  11.786  40.805   1.451
64602W        W24039   9.806   6.875   0.857
64603W        W24040  31.960  38.491   1.885
64604W        W24041  28.034  18.740   1.867
64605W        W24042  28.940  10.668   2.294
64606W        W24043   0.886  34.059   3.219
64607W        W24044  42.292   6.730  11.073
64608W        W24045  21.215  38.333   1.237
64609W        W24046  40.900  27.021   1.906
64610W        W24047  32.483  33.617  11.451
64611W        W24048  35.896   0.942  12.898
64612W        W24049   4.888   5.836   3.716
64613W        W24050  12.237  10.154  12.439
64614W        W24051  28.599  27.527  13.491
64615W        W24052  36.457   9.157   2.368
64616W        W24053  10.828  21.166   0.796
64617W        W24054  18.146  23.691   1.710
64618W        W24055  41.300  33.099  12.926
64619W        W24056   7.266  34.942  11.375
64620W        W24057  14.222  33.070   2.785
64621W        W24058  35.366  31.615   4.298
64622W        W24059   7.847  42.812   5.242
64623W        W24060  43.014  13.151   2.714
64624W        W24061   0.795  41.405   2.880
64625W        W24062   5.851   6.291   0.756
64626W        W24063  14.658  37.353   4.668
64627W        W24064  21.706  31.628   0.959
64628W        W24065  17.670  39.551  12.023
64629W        W24066  11.841  24.996   2.680
64630W        W24067  24.507  15.142  11.857
64631W        W24068  20.166  38.983  14.999
64632W        W24069  25.089  43.969   4.129
64633W        W24070   0.463  29.030  11.482
64634W        W24071  36.924  26.671   4.314
64635W        W24072   9.861  23.228   0.827
64636W        W24073  14.682  15.215  14.451
64637W        W24074  25.540  23.993  14.888
64638W        W24075  36.900  22.609  11.927
64639W        W24076  34.546  28.138  11.050
64640W        W24077  12.848  13.723  14.505
64641W        W24078  30.144  14.184   1.857
64642W        W24079  20.085  33.592  10.088
64643W        W24080   2.831  21.074  10.450
64644W        W24081  37.916   9.734  12.552
64645W        W24082  22.117  33.884  14.889
64646W        W24083  27.136  19.773  14.967
64647W        W24084   0.454   6.808   0.261
64648W        W24085  19.618  35.894  14.955
64649W        W24086  11.794  36.398  10.040
64650W        W24087  36.551  35.544  13.832
64651W        W24088  41.932  35.892  11.608
64652W        W24089  12.147  36.427   3.690
64653W        W24090  20.028  16.141  12.072
64654W        W24091  11.310   8.164  10.526
64655W        W24092  12.139  41.792  14.866
64656W        W24093  29.529  25.636   3.631
64657W        W24094  35.416  34.973  11.435
64658W        W24095  29.455   6.855   4.342
64659W        W24096   3.256  25.181  12.038
64660W        W24097  28.957  39.862  10.054
64661W        W24098  21.103   8.293  12.026
64662W        W24099  25.098  28.184   3.700
64663W        W24100  38.517   1.417  11.002
64664W        W24101  12.737  36.976  14.021
64665W        W24102   8.658  30.502   0.285
64666W        W24103  28.469  44.383  10.469
64667W        W24104  37.472  10.634   3.364
64668W        W24105   8.285  17.228   2.870
64669W        W24106   6.197   4.421   1.721
64670W        W24107   8.813  28.642  13.387
64671W        W24108   2.227  28.584  13.923
64672W        W24109  43.965  38.344   1.777
64673W        W24110  26.980  28.492   3.158
64674W        W24111   3.852  11.310  11.556
64675W        W24112  39.374  26.586  10.939
64676W        W24113  36.390   3.930   2.841
64677W        W24114   8.315   9.786   3.856
64678W        W24115  11.282  38.447   3.306
64679W        W24116  19.696  12.345  12.531
64680W        W24117  27.109  40.414  12.382
64681W        W24118   8.291  41.510   4.770
64682W        W24119  13.707  15.189  14.867
64683W        W24120  30.639  13.730  12.465
64684W        W24121  36.501   1.870   0.748
64685W        W24122  20.559  31.096   1.867
64686W        W24123   8.839   3.409  12.012
64687W        W24124  32.096   9.320   4.753
64688W        W24125  27.671   6.320   2.750
64689W        W24126  24.633   5.725  13.981
64690W        W24127  32.031   1.837  12.071
64691W        W24128  41.374  10.684   1.350
64692W        W24129  30.983  37.575  13.005
64693W        W24130  42.292  28.045  10.449
64694W        W24131  29.476  30.460   9.988
64695W        W24132  19.061   2.827   3.221
64696W        W24133   4.886  15.695   2.900
64697W        W24134  11.672  23.203  14.495
64698W        W24135  29.062  24.652   0.452
64699W        W24136   1.404  23.158   2.389
64700W        W24137  26.083  24.508   3.708
64701W        W24138   6.220   9.361   3.281
64702W        W24139   9.220  21.262   3.739
64703W        W24140  28.493  14.307   3.303
64704W        W24141   9.158  30.111   3.766
64705W        W24142   3.769   7.715  10.534
64706W        W24143  39.500   2.435   2.678
64707W        W24144   5.288   4.224  14.421
64708W        W24145  31.413  11.243   3.252
64709W        W24146  32.456  34.984   3.169
64710W        W24147  43.914   5.212  10.926
64711W        W24148  10.180  28.182  13.339
64712W        W24149  16.801  25.655   3.182
64713W        W24150  34.398  30.465   4.300
64714W        W24151   5.741  35.943   4.191
64715W        W24152  40.543  17.089  14.823
64716W        W24153  10.222  38.482  13.945
64717W        W24154  19.064   1.439  13.936
64718W        W24155   7.693  37.463  14.456
64719W        W24156  20.144  40.453   3.175
64720W        W24157   7.370  24.553  11.932
64721W        W24158  17.802  42.337  10.564
64722W        W24159  30.974  39.329   1.247
64723W        W24160  19.041  21.672  13.880
64724W        W24161   9.708  12.318   0.294
64725W        W24162  27.126  19.120   3.283
64726W        W24163  32.986   3.397  11.047
64727W        W24164  42.447  13.153  10.432
64728W        W24165  44.471  15.235  12.395
64729W        W24166  19.777  19.161   1.362
64730W        W24167  41.862  38.423   2.280
64731W        W24168  22.051   8.779  14.437
64732W        W24169  36.877   3.403  14.852
64733W        W24170  12.284  26.010  12.895
64734W        W24171  43.411  29.615   1.367
64735W        W24172  13.307  42.945  14.913
64736W        W24173  35.981   9.650  13.314
64737W        W24174  30.968  11.263   1.274
64738W        W24175  12.127  26.125  11.472
64739W        W24176  20.066  40.844   2.898
64740W        W24177  21.200  38.335   2.831
64741W        W24178   4.772  20.716  14.337
64742W        W24179  25.116  20.070  12.962
64743W        W24180  42.855   3.369  12.898
64744W        W24181   8.258  44.916  12.937
64745W        W24182  22.582  31.936   0.839
64746W        W24183  27.150  13.281  11.888
64747W        W24184  44.378  15.796   3.712
64748W        W24185   1.456  40.001  11.589
64749W        W24186  20.579  23.492  14.282
64750W        W24187  13.793  11.274   3.800
64751W        W24188  28.449  26.656   4.315
64752W        W24189  32.888  26.611  14.505
64753W        W24190  33.056  12.317  10.638
64754W        W24191   4.889  39.045  12.873
64755W        W24192  29.979  12.256  11.596
64756W        W24193  18.636   6.710  12.360
64757W        W24194   0.248  39.457   4.705
64758W        W24195  33.599  14.785  13.957
64759W        W24196  16.611  32.494   3.316
64760W        W24197  35.567  11.704   2.723
64761W        W24198  43.345  12.307  11.876
64762W        W24199  24.489  31.441  10.908
64763W        W24200  27.141  31.640  11.035
64764W        W24201  15.641   5.261   2.207
64765W        W24202  39.887  25.107  10.984
64766W        W24203  39.009  14.131   4.246
64767W        W24204  41.377   3.446   4.673
64768W        W24205  13.685  20.678   4.728
64769W        W24206  26.972  43.785  13.889
64770W        W24207  26.110   1.335   0.834
64771W        W24208   1.955  22.740   2.226
64772W        W24209  42.389   7.764   2.181
64773W        W24210   4.916  37.043  10.558
64774W        W24211  13.207  35.084  12.029
64775W        W24212   8.396  34.998   2.767
64776W        W24213  37.534   2.919  12.505
64777W        W24214  26.151  10.732   3.352
64778W        W24215   1.874  12.178   1.245
64779W        W24216   4.413  12.645   4.135
64780W        W24217  39.332  20.042  14.031
64781W        W24218  24.157  27.945   0.244
64782W        W24219  34.471  37.337   2.275
64783W        W24220  24.667  24.087   2.858
64784W        W24221  42.344  41.995  14.413
64785W        W24222   7.783   6.424   0.897
64786W        W24223  20.588  20.558   4.774
64787W        W24224   0.961  40.846   4.818
64788W        W24225  30.944  10.378  10.453
64789W        W24226  23.144  19.752   2.782
64790W        W24227  11.211   8.894   0.822
64791W        W24228   3.395  38.334   1.917
64792W        W24229   9.662  30.005  12.354
64793W        W24230   8.879  31.410  13.819
64794W        W24231  23.103  43.958   4.308
64795W        W24232  37.057   1.425  10.591
64796W        W24233  10.169  28.969  11.986
64797W        W24234  39.324  24.173  13.808
64798W        W24235  15.622  14.809   2.206
64799W        W24236   1.295  14.141   0.373
64800W        W24237  31.406  29.588  13.049
64801W        W24238   4.780  24.022  10.460
64802W        W24239  29.548  35.362  13.414
64803W        W24240   1.327  12.641  14.923
64804W        W24241  14.152  16.778  14.370
64805W        W24242  38.975  16.160  13.490
64806W        W24243  39.387   1.895  12.923
64807W        W24244  16.085  28.929   2.372
64808W        W24245  22.135  41.867  10.073
64809W        W24246  39.019  16.698   1.919
64810W        W24247  11.706  41.334   2.806
64811W        W24248  43.876   0.254   4.680
64812W        W24249  10.706  34.909  12.890
64813W        W24250  18.777  44.436  12.826
64814W        W24251  39.001  11.859  13.001
64815W        W24252  37.838  27.038   4.778
64816W        W24253  26.086  35.555   4.224
64817W        W24254  34.912  32.068  13.417
64818W        W24255  18.700  31.535  14.333
64819W        W24256  18.181  23.993  12.834
64820W        W24257  28.975  17.572   4.716
64821W        W24258  40.416  36.541   3.246
64822W        W24259  38.985  31.455   3.661
64823W        W24260  31.956  15.665  11.391
64824W        W24261  10.877  34.064   0.384
64825W        W24262  33.995  32.925   4.320
64826W        W24263  39.435  20.527   0.892
64827W        W24264  32.891  19.133  11.963
64828W        W24265   0.803  42.867  10.092
64829W        W24266   0.788   0.490   1.228
64830W        W24267  12.832  37.842  10.425
64831W        W24268  22.159  35.551   2.833
64832W        W24269  13.749  38.013   3.665
64833W        W24270  15.267   8.259   4.169
64834W        W24271   8.834  14.611   3.767
64835W        W24272   5.412  43.292  14.505
64836W        W24273  41.494   5.911   1.238
64837W        W24274   9.351  13.670   2.205
64838W        W24275  22.082  17.770   1.897
64839W        W24276  41.305  31.947  10.033
64840W        W24277  31.118  38.855   1.342
64841W        W24278  23.119   6.282   0.453
64842W        W24279   3.426  11.171   0.870
64843W        W24280  13.647  34.563   2.782
64844W        W24281   7.757  17.267   0.302
64845W        W24282  29.095  34.888  13.799
64846W        W24283   4.207  15.115  10.609
64847W        W24284  28.076  22.611  12.917
64848W        W24285   3.819  17.105  10.948
64849W        W24286  43.464  23.558  10.440
64850W        W24287  31.939  13.129   5.234
64851W        W24288   8.214  14.096   0.250
64852W        W24289   2.745  39.886  11.073
64853W        W24290  31.596  39.370  14.922
64854W        W24291  36.843  30.615   3.186
64855W        W24292  14.788   2.374   0.908
64856W        W24293  30.005  22.061   1.866
64857W        W24294  26.608  15.115  14.308
64858W        W24295  34.572  31.089  10.893
64859W        W24296  10.340  28.177   3.708
64860W        W24297   9.308  17.262  10.136
64861W        W24298  31.933  26.000   2.244
64862W        W24299  42.960  29.562  11.082
64863W        W24300   5.321  41.428  12.564
64864W        W24301  33.613   2.932   0.251
64865W        W24302  18.590  28.569   0.917
64866W        W24303  26.472  19.101  14.843
64867W        W24304  29.105  24.559  12.038
64868W        W24305   6.296  20.190  12.533
64869W        W24306  14.216   2.850  13.902
64870W        W24307  32.917  19.587   1.219
64871W        W24308  26.124  20.151  13.430
64872W        W24309   6.819  38.879   0.962
64873W        W24310  32.889  42.921   0.798
64874W        W24311  30.490  36.519  11.533
64875W        W24312  31.936  28.136   0.820
64876W        W24313  31.074  41.497  10.939
64877W        W24314   2.287  33.031   4.317
64878W        W24315   2.901  44.260  12.374
64879W        W24316  10.735  39.327  12.022
64880W        W24317  21.743  17.768  12.351
64881W        W24318  14.740  42.862   1.418
64882W        W24319  35.037  29.583  14.777
64883W        W24320  41.491  16.640   2.270
64884W        W24321  44.320  19.137  12.495
64885W        W24322  40.898   1.740  12.082
64886W        W24323  11.738  23.113   4.693
64887W        W24324   8.876  39.475  13.982
64888W        W24325  38.442   0.938   3.702
64889W        W24326   9.829  25.999   4.142
64890W        W24327  26.182  32.056  14.345
64891W        W24328  11.807  11.806  12.878
64892W        W24329  40.327  42.807   1.351
64893W        W24330  14.237  10.266   3.261
64894W        W24331   5.206  28.598   0.906
64895W        W24332  27.040   7.280  12.013
64896W        W24333  41.346  22.080   2.367
64897W        W24334  36.092  21.683   3.298
64898W        W24335  38.516  11.707  13.991
64899W        W24336  13.202   1.809  10.942
64900W        W24337   1.349  15.292   2.324
64901W        W24338   3.381  41.861  12.064
64902W        W24339  12.310   4.369   1.781
64903W        W24340  18.185  23.061   0.364
64904W        W24341  36.546  12.855  13.404
64905W        W24342  28.676  29.567   4.321
64906W        W24343  12.346  39.051  14.964
64907W        W24344   1.316   6.886   1.818
64908W        W24345  34.014   5.917  11.597
64909W        W24346  37.911   0.914   4.754
64910W        W24347  10.358   2.246   1.874
64911W        W24348  12.636   1.945   0.448
64912W        W24349  41.465  18.634  12.572
64913W        W24350  44.354  15.807  13.848
64914W        W24351  29.595  23.700   2.686
64915W        W24352   1.413  12.794   3.383
64916W        W24353  23.212   2.859  11.508
64917W        W24354  12.788   0.417  11.477
64918W        W24355   7.911  41.018   4.817
64919W        W24356  32.975   5.297   1.349
64920W        W24357  32.604  17.172  12.516
64921W        W24358  43.821  31.063  10.425
64922W        W24359  24.531  18.151   1.785
64923W        W24360  33.569   5.335  11.565
64924W        W24361  36.841   6.329  14.478
64925W        W24362  17.697  38.978   1.418
64926W        W24363   6.378   3.281   4.806
64927W        W24364  28.090   2.754  14.488
64928W        W24365  11.218   1.859   0.370
64929W        W24366  40.050  22.564   3.723
64930W        W24367  41.878  13.108  14.432
64931W        W24368  36.449   1.791   2.893
64932W        W24369  12.357  19.548   2.266
64933W        W24370  43.983  13.107   2.306
64934W        W24371  30.154  30.429  11.011
64935W        W24372  24.553  21.542  13.954
64936W        W24373   6.712  36.565   2.412
64937W        W24374  12.785  36.920  10.532
64938W        W24375  29.491  33.427  13.869
64939W        W24376  31.976  15.307   4.600
64940W        W24377  35.404  28.108  14.955
64941W        W24378  40.506  19.227  12.060
64942W        W24379  23.060  13.288  13.793
64943W        W24380  20.161  25.634  12.986
64944W        W24381  28.600  20.646  11.951
64945W        W24382  11.191  20.687   4.725
64946W        W24383  34.510  37.355  10.945
64947W        W24384  21.647  11.794   4.643
64948W        W24385  20.585  22.037  12.859
64949W        W24386   1.802  18.168   3.175
64950W        W24387  24.681  34.377   3.203
64951W        W24388  15.694  19.161  10.140
64952W        W24389  16.301   3.404   4.215
64953W        W24390  37.942  42.360  13.841
64954W        W24391  25.712  21.627   5.199
64955W        W24392  16.161  42.410   1.849
64956W        W24393   8.355  41.292   2.861
64957W        W24394  42.785  42.397   1.352
64958W        W24395  38.972  31.016   3.169
64959W        W24396  34.546   4.252  14.418
64960W        W24397  30.557  44.335  10.453
64961W        W24398  30.911  27.146  12.054
64962W        W24399  17.786   4.778  11.083
64963W        W24400  11.716  20.748   2.300
64964W        W24401  15.609  28.663   1.430
64965W        W24402  12.696  34.026   4.837
64966W        W24403  29.612  24.020   0.323
64967W        W24404  33.447   3.845  14.968
64968W        W24405  21.624  26.951  14.996
64969W        W24406  32.449  15.129  11.422
64970W        W24407  23.553  19.278   2.728
64971W        W24408  38.884   1.414  13.398
64972W        W24409  42.447   7.818  12.040
64973W        W24410  44.358  35.518   0.442
64974W        W24411  36.493  32.394  13.939
64975W        W24412  39.857  31.010  10.421
64976W        W24413   6.805  11.171  12.933
64977W        W24414   6.745   4.850   4.290
64978W        W24415  35.532  24.229   4.785
64979W        W24416  12.196  11.800   4.723
64980W        W24417  11.714   7.363   2.289
64981W        W24418  40.363  35.513   4.797
64982W        W24419   7.819  21.555  12.437
64983W        W24420  43.348  40.898   1.842
64984W        W24421  44.385   5.711   4.614
64985W        W24422  29.619  37.873   1.697
64986W        W24423  23.101  14.157   3.326
64987W        W24424   6.846  35.052  11.473
64988W        W24425  43.362   0.472   0.845
64989W        W24426  41.022   4.702  14.858
64990W        W24427  31.897  17.802   0.425
64991W        W24428  27.106  18.169  10.964
64992W        W24429  18.116   9.862  13.488
64993W        W24430  17.178  41.349   3.638
64994W        W24431  33.966  43.865  11.126
64995W        W24432  36.559  32.968  13.992
64996W        W24433   2.797   3.930  12.980
64997W        W24434   2.341  34.057  11.406
64998W        W24435  11.852  25.532   1.894
64999W        W24436  24.165   1.425   1.430
65000W        W24437  41.302   3.932   3.787
65001W        W24438  31.119   5.698   2.257
65002W        W24439  36.525  27.626   2.414
65003W        W24440  34.431   9.719   2.750
65004W        W24441  12.180  28.048   1.799
65005W        W24442   5.261  39.924   4.647
65006W        W24443  16.680  16.808  12.516
65007W        W24444   3.307   4.852  13.517
65008W        W24445   5.708  41.426  11.374
65009W        W24446  38.026  16.772  14.298
65010W        W24447  21.241  15.674  11.377
65011W        W24448   7.334   4.379   0.445
65012W        W24449  30.144  34.987  14.919
65013W        W24450  29.936  26.197  14.971
65014W        W24451   6.920   2.273  13.814
65015W        W24452  18.057  30.916   2.740
65016W        W24453   8.773  18.766   4.812
65017W        W24454  22.622  43.320  12.451
65018W        W24455  30.591   2.751   3.630
65019W        W24456  24.033  42.352   0.343
65020W        W24457  35.092   7.406   5.196
65021W        W24458  24.640   5.853  13.015
65022W        W24459  20.042   0.471   2.419
65023W        W24460  14.297  11.749   1.852
65024W        W24461  14.135  44.970   2.220
65025W        W24462  12.290  41.413  12.569
65026W        W24463  33.103   7.316  13.859
65027W        W24464  31.543   6.199  10.905
65028W        W24465  41.527  12.656   2.817
65029W        W24466  19.596  32.929   3.863
65030W        W24467  21.654   2.808   2.736
65031W        W24468  19.662  29.603   1.919
65032W        W24469  23.496  12.683   1.788
65033W        W24470  42.313   1.464   1.914
65034W        W24471   2.870   1.424  14.303
65035W        W24472  40.482  41.331  13.517
65036W        W24473  34.549   2.451  12.445
65037W        W24474  25.057   4.878   3.355
65038W        W24475  10.325   2.797  14.906
65039W        W24476  41.952   3.446  13.818
65040W        W24477   0.873   0.887  12.919
65041W        W24478  31.573  41.865  14.902
65042W        W24479  36.858  40.313  13.809
65043W        W24480  14.165  17.699  14.496
65044W        W24481   1.294  14.094  11.475
65045W        W24482  17.612  14.129   2.806
65046W        W24483  26.039  17.072  11.002
65047W        W24484  42.427  27.664  14.828
65048W        W24485  33.984   4.291   1.848
65049W        W24486  27.521  16.572  12.918
65050W        W24487  35.452  25.622   4.817
65051W        W24488   1.241  20.161   2.728
65052W        W24489  12.350  44.404  14.434
65053W        W24490  30.596  16.261  10.620
65054W        W24491  41.387  25.602  14.839
65055W        W24492  41.999  33.956   1.301
65056W        W24493  43.966  18.189  11.882
65057W        W24494  32.119  38.408   3.800
65058W        W24495  43.987  18.077  13.317
65059W        W24496   7.725  30.543   3.723
65060W        W24497  33.943  22.607   3.197
65061W        W24498  38.557  39.470   3.244
65062W        W24499  41.309  33.906   4.266
65063W        W24500  18.712   8.837  12.876
65064W        W24501  34.910  34.065  11.542
65065W        W24502   1.798  44.482  13.456
65066W        W24503  24.571  17.610  13.333
65067W        W24504  34.990  35.430  13.389
65068W        W24505  29.134   9.701  13.870
65069W        W24506   1.444  38.557   0.846
65070W        W24507  39.411  44.755  12.837
65071W        W24508  34.500  24.130  10.506
65072W        W24509  17.234  28.552   3.775
65073W        W24510  37.388  17.789  14.894
65074W        W24511   4.894  26.675   1.215
65075W        W24512  21.151  29.090   3.831
65076W        W24513  32.125   4.848   0.754
65077W        W24514  25.530  19.256  11.883
65078W        W24515  28.644  24.712  11.493
65079W        W24516  28.473  18.070  10.941
65080W        W24517  18.778  40.807  14.497
65081W        W24518  29.928  35.048   3.186
65082W        W24519  29.970  29.621   2.411
65083W        W24520  35.545  43.308  13.479
65084W        W24521  35.540  13.772  10.574
65085W        W24522   4.268  36.526   4.650
65086W        W24523  19.178   3.891  11.962
65087W        W24524  12.174   6.811   2.704
65088W        W24525  14.115  32.523   3.301
65089W        W24526  25.123  27.965  10.454
65090W        W24527  43.295  24.024   0.844
65091W        W24528  39.966  19.554  12.025
65092W        W24529  17.124   3.846   4.175
65093W        W24530  11.638  42.011  12.365
65094W        W24531  33.625  20.098  12.086
65095W        W24532   4.777   6.859  11.887
65096W        W24533  40.356   5.823  14.511
65097W        W24534  43.855  34.377   4.661
65098W        W24535   9.326  38.499  14.294
65099W        W24536  23.230   2.452   1.295
65100W        W24537  24.564  44.446   4.785
65101W        W24538  22.155  43.895  10.985
65102W        W24539  28.043  27.513  14.387
65103W        W24540   8.871  31.095  14.355
65104W        W24541  27.077  32.482   3.799
65105W        W24542   5.301  11.785   3.152
65106W        W24543  42.999  41.499   4.116
65107W        W24544   6.265  38.027   3.342
65108W        W24545  16.768  14.130   3.381
65109W        W24546  40.043  31.616  14.884
65110W        W24547  41.411  13.679   0.749
65111W        W24548   5.705  33.904   4.282
65112W        W24549  24.552  29.654  12.842
65113W        W24550   6.678  17.303   3.701
65114W        W24551  28.965  39.467   4.135
65115W        W24552  38.492  14.229  11.401
65116W        W24553   2.813   5.409  11.887
65117W        W24554  38.478   5.844   2.763
65118W        W24555  44.353  25.635   1.300
65119W        W24556  21.254  28.016  11.069
65120W        W24557   7.803  10.355   3.709
65121W        W24558  39.046  39.013  11.419
65122W        W24559  11.190  33.393   0.335
65123W        W24560   1.365   2.903   0.920
65124W        W24561   8.167  15.271   3.821
65125W        W24562  23.731   1.805  14.355
65126W        W24563  41.943  20.226   0.407
65127W        W24564  34.064  36.452   0.458
65128W        W24565  39.935  30.109   2.401
65129W        W24566  16.666  23.182   0.952
65130W        W24567  38.336  19.173  10.505
65131W        W24568  26.011  29.005   2.395
65132W        W24569  33.484  31.544  11.475
65133W        W24570  10.671   1.462   4.824
65134W        W24571  38.332  15.240   0.816
65135W        W24572  11.149   6.749   3.651
65136W        W24573   8.901  42.437  10.971
65137W        W24574  21.203  30.435  11.592
65138W        W24575  27.505  24.598   5.709
65139W        W24576  24.560  11.775  13.795
65140W        W24577   2.892  34.399   0.814
65141W        W24578  19.617  43.864   3.802
65142W        W24579  41.806   5.911   1.797
65143W        W24580  16.125  16.763  10.521
65144W        W24581  17.116  44.754  12.932
65145W        W24582   9.156  42.910  10.441
65146W        W24583   9.305   7.701   1.930
65147W        W24584  37.467  30.413  12.369
65148W        W24585  18.193  19.246   1.263
65149W        W24586   5.390  12.208   4.813
65150W        W24587  13.759  39.489  10.494
65151W        W24588  25.533   4.701  12.362
65152W        W24589   6.884  15.749   4.342
65153W        W24590  22.009  32.991  10.533
65154W        W24591  19.150   7.224  12.409
65155W        W24592  38.838  31.039   1.714
65156W        W24593  35.886   0.785  11.057
65157W        W24594  20.606  13.674   2.758
65158W        W24595  31.974  13.845  11.984
65159W        W24596   4.359  10.858   4.138
65160W        W24597   2.812  35.420  11.885
65161W        W24598  38.520  25.997   2.342
65162W        W24599  41.920  37.074   0.880
65163W        W24600  18.287  32.573  12.342
65164W        W24601   4.371  26.173  14.871
65165W        W24602  25.706  40.919   0.849
65166W        W24603  29.627  14.218  14.510
65167W        W24604  27.966  21.560  11.930
65168W        W24605  20.655  41.360  14.921
65169W        W24606  33.441   5.902  10.959
65170W        W24607  19.640  23.623   4.670
65171W        W24608  16.618  41.936   2.419
65172W        W24609   0.443  25.036  11.069
65173W        W24610  22.532  18.099  12.891
65174W        W24611  42.900  34.021   1.929
65175W        W24612  16.706   2.844  10.410
65176W        W24613  17.712   5.753  11.935
65177W        W24614   8.258  31.038  13.872
65178W        W24615   3.787  22.573   3.807
65179W        W24616  43.793   0.744   0.245
65180W        W24617   9.828  13.602   4.173
65181W        W24618  18.705  37.525  14.345
65182W        W24619  39.864  36.063  13.812
65183W        W24620  31.105  28.501  14.312
65184W        W24621  14.118  17.590  10.588
65185W        W24622  36.553  16.629   0.374
65186W        W24623  25.052  28.967   3.307
65187W        W24624   6.217  32.507  12.942
65188W        W24625  15.797  22.026   4.728
65189W        W24626  31.634  30.433  12.564
65190W        W24627  22.518  27.626  10.117
65191W        W24628   3.350  40.451  11.564
65192W        W24629   3.338  41.526   2.323
65193W        W24630   1.843  40.902  12.071
65194W        W24631  38.354  16.737   4.151
65195W        W24632  14.695  39.900   1.267
65196W        W24633   8.364  13.328   1.807
65197W        W24634  28.117  26.158  12.021
65198W        W24635  11.177  39.437  11.473
65199W        W24636  26.019  32.525   0.424
65200W        W24637   7.671  12.841  13.000
65201W        W24638  18.215  31.535  11.411
65202W        W24639  39.018  42.294  14.424
65203W        W24640  17.298   3.343  14.461
65204W        W24641  11.307  29.027   1.224
65205W        W24642  34.597  42.385  12.911
65206W        W24643  18.196  11.323  13.414
65207W        W24644  25.541   9.201   1.858
65208W        W24645  35.581  14.158  12.479
65209W        W24646  40.027  31.409  11.049
65210W        W24647  29.474  43.932  14.356
65211W        W24648  20.743  17.203  11.592
65212W        W24649   4.819  36.893   2.730
65213W        W24650  15.115   3.240  12.088
65214W        W24651  28.614  15.217  10.955
65215W        W24652  34.008  42.886  14.834
65216W        W24653  33.515  32.543   0.849
65217W        W24654  15.823  16.750   2.679
65218W        W24655   0.464  22.589   3.784
65219W        W24656  11.844   5.850   1.697
65220W        W24657  21.621  24.600  14.434
65221W        W24658  22.070  39.382  11.474
65222W        W24659   0.351  40.982   1.326
65223W        W24660   3.750   2.827  11.993
65224W        W24661  39.909  42.831  10.509
65225W        W24662  34.934  30.040   2.811
65226W        W24663  38.451  22.597  13.315
65227W        W24664  16.245  20.718  12.530
65228W        W24665   7.267  36.545  13.462
65229W        W24666  12.610  15.253   4.772
65230W        W24667   5.882  27.674  12.879
65231W        W24668  40.336   1.758   2.398
65232W        W24669  20.591   6.252   3.754
65233W        W24670   3.729  17.266   1.902
65234W        W24671  42.868   1.951  12.092
65235W        W24672  22.079  30.453  14.400
65236W        W24673  41.816  26.170  12.435
65237W        W24674  18.607  42.370  14.298
65238W        W24675   2.851  11.274   4.154
65239W        W24676   9.827  19.763  10.441
65240W        W24677  39.535  38.004   2.232
65241W        W24678   9.660  31.425   0.841
65242W        W24679  28.153   5.333  14.276
65243W        W24680  41.384  35.410   4.689
65244W        W24681  14.614   6.392  14.409
65245W        W24682   0.754   9.767   0.881
65246W        W24683  33.957  16.228   2.192
65247W        W24684  14.785  22.523  14.926
65248W        W24685   5.398   4.342  12.497
65249W        W24686  22.216  28.589  12.910
65250W        W24687   4.289  24.675  12.965
65251W        W24688  30.527  30.131   3.386
65252W        W24689  41.361   0.375  10.424
65253W        W24690  43.810  11.731  12.065
65254W        W24691  20.550  30.928  12.401
65255W        W24692  37.001  17.738   2.684
65256W        W24693  34.011   2.446  12.086
65257W        W24694  17.639  23.571   4.165
65258W        W24695  33.398  42.442   2.234
65259W        W24696   9.221   1.759  11.105
65260W        W24697  25.014  14.232   0.451
65261W        W24698  26.489  19.703  14.843
65262W        W24699  37.013  33.548   0.478
65263W        W24700   6.873   5.305  14.488
65264W        W24701  26.205  28.595  10.961
65265W        W24702   9.181  30.040  11.937
65266W        W24703  28.956  30.143   2.674
65267W        W24704  10.749  15.291   4.628
65268W        W24705   0.494  45.000  12.898
65269W        W24706  44.902  22.745  12.843
65270W        W24707   6.315  13.647   2.714
65271W        W24708   1.439   1.805   1.303
65272W        W24709  13.201  25.178   3.210
65273W        W24710  35.872  43.369   4.805
65274W        W24711   4.854   1.918   4.276
65275W        W24712  16.144  36.568  12.930
65276W        W24713  10.327  40.879  11.083
65277W        W24714  39.940  39.459  11.063
65278W        W24715  42.796   5.877   0.799
65279W        W24716  20.667   7.377  14.760
65280W        W24717  11.189  27.031   2.847
65281W        W24718   3.950  31.533  10.462
65282W        W24719  32.900   6.705  10.448
65283W        W24720  38.327  44.364  12.878
65284W        W24721   4.337  38.944   3.846
65285W        W24722  34.592   9.383  11.535
65286W        W24723  37.358  28.495   0.342
65287W        W24724  22.202  10.263   5.227
65288W        W24725  30.122  29.157   1.430
65289W        W24726   3.745  42.367   2.359
65290W        W24727  41.467  17.769   3.297
65291W        W24728  38.819  15.098   0.261
65292W        W24729   1.862  17.732   3.289
65293W        W24730  26.064  23.490   1.310
65294W        W24731  30.481  33.568   2.827
65295W        W24732   8.885  35.002   1.401
65296W        W24733   0.403   9.769   4.321
65297W        W24734  24.067  37.497  11.479
65298W        W24735   7.204   9.778   4.318
65299W        W24736   4.931  29.009   0.850
65300W        W24737  44.313  39.836   3.289
65301W        W24738   4.835  36.066  11.037
65302W        W24739  11.291  14.325  13.888
65303W        W24740  32.422   9.296  14.815
65304W        W24741  40.355  43.390   1.334
65305W        W24742   2.438  44.320  10.146
65306W        W24743   2.302  44.974   2.407
65307W        W24744   6.805  12.309  12.032
65308W        W24745  32.617   5.253  12.861
65309W        W24746  25.059  12.334  13.362
65310W        W24747  31.438  18.575   2.319
65311W        W24748   8.677  21.725   3.705
65312W        W24749   3.910  43.907  14.320
65313W        W24750  32.077   6.409   0.481
65314W        W24751  43.834  10.673  12.985
65315W        W24752   2.294  26.578  12.474
65316W        W24753   5.803  14.305   3.792
65317W        W24754   1.477  12.244   4.812
65318W        W24755  24.604  11.714  11.609
65319W        W24756   5.210  32.960  14.286
65320W        W24757  31.575  41.332   2.703
65321W        W24758  23.669  12.819   0.726
65322W        W24759  33.558  31.565   2.234
65323W        W24760  11.742  12.317   4.674
65324W        W24761  37.019  37.882  14.427
65325W        W24762   2.860  40.798   4.307
65326W        W24763  27.536   4.726   4.177
65327W        W24764  23.230  29.551  13.380
65328W        W24765   6.841  14.610  10.460
65329W        W24766  23.160  34.906  10.478
65330W        W24767  11.813   8.746   2.243
65331W        W24768   8.179   2.862   4.820
65332W        W24769  13.108   9.666   2.722
65333W        W24770  12.281  10.269  11.503
65334W        W24771  13.169   4.888   3.333
65335W        W24772   2.273  15.251  11.046
65336W        W24773  10.241  28.532  10.619
65337W        W24774  38.405  39.491   2.411
65338W        W24775   5.902  34.517  13.314
65339W        W24776  43.867   7.712  11.427
65340W        W24777   3.445  23.161   3.324
65341W        W24778   4.727   9.749  12.090
65342W        W24779  13.115  16.715   2.356
65343W        W24780  13.156  44.403   1.874
65344W        W24781  20.131   8.211  13.439
65345W        W24782  23.164  34.429   2.708
65346W        W24783  17.607   0.303   4.790
65347W        W24784  23.159  15.161  12.882
65348W        W24785  40.998  19.676  10.954
65349W        W24786   9.668  42.438   3.744
65350W        W24787  11.645   9.796   3.374
65351W        W24788   4.849  42.878  12.843
65352W        W24789   6.414  39.474  12.049
65353W        W24790  25.589  18.181   0.873
65354W        W24791  33.496  39.875   1.703
65355W        W24792  12.256  37.557   1.772
65356W        W24793  11.657  41.834  14.378
65357W        W24794   6.215   5.694  12.577
65358W        W24795  27.113  32.948   0.338
65359W        W24796   1.289   9.154   2.217
65360W        W24797   1.787  40.034   3.171
65361W        W24798  22.576  35.432  12.365
65362W        W24799  11.642  33.612   4.607
65363W        W24800  40.486   8.806   1.386
65364W        W24801   7.880  18.111   1.840
65365W        W24802  26.639  21.224   0.458
65366W        W24803  34.051  26.102   0.385
65367W        W24804  43.841  15.624  13.466
65368W        W24805   7.372  38.520  11.592
65369W        W24806  41.387  38.041  10.958
65370W        W24807  12.217   4.286   3.828
65371W        W24808  12.843  25.601   2.255
65372W        W24809  16.205  41.829   3.258
65373W        W24810  33.902  27.663  11.602
65374W        W24811  41.983  16.253   3.214
65375W        W24812  37.374   2.724  13.547
65376W        W24813  35.385  44.298   1.267
65377W        W24814  35.068   9.276   3.156
65378W        W24815  17.241  11.629  11.512
65379W        W24816   7.912  28.932   2.892
65380W        W24817  15.709  20.661  14.980
65381W        W24818   0.322  31.929   0.738
65382W        W24819  23.035  20.029   4.126
65383W        W24820  36.576   1.273   4.807
65384W        W24821  35.404  31.541   3.189
65385W        W24822  29.485   0.807   4.697
65386W        W24823  41.866   9.370   1.784
65387W        W24824  33.959  34.085  13.934
65388W        W24825  41.531   3.290  13.794
65389W        W24826  21.095  28.160   3.672
65390W        W24827   2.789  26.976  10.956
65391W        W24828  20.684  22.021  10.118
65392W        W24829  43.511   0.465   4.714
65393W        W24830  30.502   4.431  11.441
65394W        W24831  38.328   7.873   0.445
65395W        W24832  27.185   3.728   3.250
65396W        W24833   2.936  10.262  11.865
65397W        W24834  26.619  33.531  11.374
65398W        W24835  19.608  21.034   1.728
65399W        W24836   7.739  14.304  10.494
65400W        W24837  30.485  15.747   1.363
65401W        W24838  26.510  19.617   0.728
65402W        W24839  28.136  17.264  12.447
65403W        W24840  44.964  35.541  11.953
65404W        W24841  26.660  38.414   0.924
65405W        W24842  30.617  20.599  13.372
65406W        W24843  12.324  34.511   0.291
65407W        W24844  31.508   6.912  13.981
65408W        W24845  44.486  36.044  14.510
65409W        W24846   3.359  21.241  12.485
65410W        W24847  21.636  20.059  11.060
65411W        W24848  20.578   0.907   2.696
65412W        W24849   4.408  18.726  12.033
65413W        W24850  42.335  29.167   2.695
65414W        W24851  31.642  17.751  13.969
65415W        W24852  12.749  39.494   3.252
65416W        W24853  10.868   4.787  11.551
65417W        W24854   6.329  18.666   3.234
65418W        W24855  25.129   8.820  11.121
65419W        W24856  44.385  22.107  12.372
65420W        W24857  44.446  28.527  13.037
65421W        W24858   2.321  18.581   1.717
65422W        W24859  22.526  22.104  12.929
65423W        W24860  33.968   2.304  12.406
65424W        W24861  36.974   8.808  14.498
65425W        W24862  43.453  38.361  13.870
65426W        W24863  23.722  14.750   4.795
65427W        W24864  22.590  16.245  10.901
65428W        W24865  26.619  13.333   2.807
65429W        W24866  43.959  35.004  13.940
65430W        W24867  10.221  22.640  14.893
65431W        W24868  12.353  44.275   1.854
65432W        W24869  35.970   4.882  11.469
65433W        W24870   0.875  11.837  13.391
65434W        W24871  26.594  25.962   1.934
65435W        W24872  27.152  40.489  13.348
65436W        W24873  33.395   3.427  11.393
65437W        W24874  40.465  36.016   1.244
65438W        W24875  15.724   0.424  12.527
65439W        W24876  11.711  17.570   4.610
65440W        W24877  18.219   3.267  14.029
65441W        W24878  14.219   0.752  10.475
65442W        W24879   0.902  17.777   1.856
65443W        W24880  15.798  14.201   2.675
65444W        W24881  24.661  27.034   4.645
65445W        W24882  23.196  26.060  12.524
65446W        W24883  42.820  31.638  11.875
65447W        W24884  26.114   1.271  14.476
65448W        W24885  36.939  35.580  10.472
65449W        W24886  19.608  30.446   3.750
65450W        W24887  16.579  14.097  11.033
65451W        W24888   8.233  22.606   0.345
65452W        W24889  37.833  19.713   0.831
65453W        W24890  31.037  13.251   1.924
65454W        W24891  18.678  14.138   1.735
65455W        W24892   5.314  27.942   9.990
65456W        W24893  42.781   3.430   2.191
65457W        W24894  23.537  19.667  14.426
65458W        W24895  22.693  36.428   1.709
65459W        W24896   3.904  44.827   4.287
65460W        W24897  16.148   6.735  10.933
65461W        W24898  35.104  33.011  11.025
65462W        W24899   7.866  28.439  13.545
65463W        W24900  22.547  15.140   1.885
65464W        W24901   9.859  39.484   1.856
65465W        W24902  14.181   0.336  10.544
65466W        W24903   3.336  11.685   3.341
65467W        W24904   6.269  23.223   9.972
65468W        W24905  13.214  43.840   4.814
65469W        W24906  28.663  37.085  11.109
65470W        W24907  39.017  20.707   0.375
65471W        W24908  42.439  25.218   2.286
65472W        W24909  13.270  22.604   4.807
65473W        W24910  29.139   4.437  14.387
65474W        W24911  20.224  25.981  13.454
65475W        W24912  43.398   2.930   4.213
65476W        W24913  41.987   7.832  13.829
65477W        W24914  16.600  34.610   4.250
65478W        W24915   9.753  24.696   3.797
65479W        W24916  15.227   0.362  13.327
65480W        W24917  43.282  29.978   1.875
65481W        W24918  20.100  23.718   2.684
65482W        W24919  44.957   2.323  11.948
65483W        W24920  10.686  43.788   0.789
65484W        W24921  21.532   2.910   0.837
65485W        W24922  19.565  42.526  13.515
65486W        W24923  19.069  22.234   1.315
65487W        W24924  18.081  17.084   2.404
65488W        W24925  38.989  26.504   0.746
65489W        W24926   4.705  30.495   4.770
65490W        W24927  31.060  32.988  14.000
65491W        W24928  23.127   9.805  13.008
65492W        W24929  26.489  31.995  10.412
65493W        W24930  38.394   8.842   2.760
65494W        W24931  20.767  17.666   5.109
65495W        W24932   6.808  41.018   1.351
65496W        W24933  24.114   4.831  10.598
65497W        W24934   8.838   7.269   0.402
65498W        W24935  44.810  42.380   2.669
65499W        W24936   5.824  30.159   0.874
65500W        W24937  40.491  41.366   2.277
65501W        W24938  39.968  30.500   1.283
65502W        W24939  21.250   9.216   1.703
65503W        W24940   1.297   1.847   2.259
65504W        W24941   2.261  35.588  14.476
65505W        W24942  27.483  44.307   3.696
65506W        W24943  10.334  10.382   3.210
65507W        W24944  26.657  14.591   0.369
65508W        W24945  11.775  31.523   2.367
65509W        W24946   5.790  10.639   3.351
65510W        W24947  27.972  43.433   4.279
65511W        W24948  43.984  24.502  13.382
65512W        W24949  35.050  15.132  12.974
65513W        W24950  25.040  16.148  14.398
65514W        W24951  38.360  23.161   2.794
65515W        W24952  13.127  24.480   3.244
65516W        W24953  12.627  22.615  13.986
65517W        W24954  16.232  29.492  13.939
65518W        W24955   0.441  35.477  13.938
65519W        W24956  29.536  37.554  12.571
65520W        W24957  32.586   3.367   4.349
65521W        W24958  39.825  10.688   4.296
65522W        W24959   4.821   5.384  12.907
65523W        W24960  26.985  36.370   0.882
65524W        W24961  27.557  29.173   4.661
65525W        W24962  27.983  11.349   3.748
65526W        W24963  23.994  14.138   3.824
65527W        W24964   8.840  43.767   1.279
65528W        W24965  16.103  19.623   2.258
65529W        W24966  12.637  14.270   4.220
65530W        W24967  13.343   5.791   2.671
65531W        W24968   9.344  24.489   4.243
65532W        W24969   5.379  44.266   0.906
65533W        W24970  29.017   0.257   1.904
65534W        W24971  43.014   5.746   3.178
65535W        W24972  25.003   5.926   1.703
65536W        W24973  44.364   4.334  14.476
65537W        W24974  22.734  34.504   1.863
65538W        W24975  32.513   4.763   2.734
65539W        W24976  37.482   3.220   3.824
65540W        W24977  19.064  11.313   0.373
65541W        W24978  19.164  44.784   1.320
65542W        W24979  42.031  19.733  13.907
65543W        W24980   5.285  14.603   0.475
65544W        W24981  31.646  32.029   4.343
65545W        W24982  12.158  27.471   4.716
65546W        W24983  20.041   7.349   0.399
65547W        W24984  43.364  35.905   1.724
65548W        W24985  16.588  20.082   0.802
65549W        W24986  12.141   0.261   1.715
65550W        W24987  26.465   6.214  12.848
65551W        W24988  24.214   9.780  11.536
65552W        W24989  28.118  15.191  13.023
65553W        W24990  22.131   6.861  13.005
65554W        W24991   3.330   4.771  12.867
65555W        W24992  14.144   6.803   2.418
65556W        W24993   7.800  38.399   0.946
65557W        W24994   1.436  21.515  10.410
65558W        W24995  18.781  11.256  10.940
65559W        W24996  41.942   1.268  13.992
65560W        W24997   6.364   7.193  11.610
65561W        W24998  27.504  19.045   2.317
65562W        W24999  35.980  10.371   4.624
65563W        W25000  19.132   8.768   1.726
65564W        W25001   0.265  23.548  12.405
65565W        W25002   1.271  36.016  10.012
65566W        W25003  15.293   5.336  12.428
65567W        W25004   5.928  34.480  13.005
65568W        W25005   2.242  36.483   2.211
65569W        W25006   2.445  31.427  13.983
65570W        W25007  34.456  24.561   2.376
65571W        W25008  44.995   8.765  10.447
65572W        W25009  27.526  20.540  11.869
65573W        W25010  30.078  31.134   3.656
65574W        W25011  23.025  29.144  12.441
65575W        W25012  33.984  42.973   3.225
65576W        W25013  14.151  27.063   3.791
65577W        W25014  14.254  33.519   4.743
65578W        W25015  13.732  14.122   1.712
65579W        W25016  15.285  35.552  12.092
65580W        W25017  23.623  14.259   5.176
65581W        W25018  44.922  35.024   0.274
65582W        W25019   1.391  20.542  11.091
65583W        W25020   5.287  28.048   4.705
65584W        W25021  27.155  31.050   1.357
65585W        W25022   0.822  36.946  11.386
65586W        W25023  24.048  28.102   5.295
65587W        W25024  39.488  20.714   4.812
65588W        W25025  44.856  42.488   1.393
65589W        W25026  43.462  38.981   1.904
65590W        W25027  35.974  38.450   0.282
65591W        W25028  43.791   6.743  14.011
65592W        W25029  15.595  38.033  13.473
65593W        W25030  38.979  36.495   3.177
65594W        W25031   9.349  40.955  10.523
65595W        W25032   8.774  39.477  12.493
65596W        W25033   2.380  38.064   0.383
65597W        W25034  25.498  11.774   2.247
65598W        W25035  33.593  13.122  10.900
65599W        W25036  24.079  38.073   2.316
65600W        W25037  39.359  19.546  13.334
65601W        W25038  23.005   4.265   2.217
65602W        W25039  34.906  19.168  14.900
65603W        W25040   0.419  37.536  14.023
65604W        W25041  41.492   9.713  10.495
65605W        W25042  12.652  19.277   1.881
65606W        W25043  18.051  12.677   2.251
65607W        W25044  31.978  16.123  14.474
65608W        W25045  30.439  40.932   1.934
65609W        W25046  43.924  21.603   2.686
65610W        W25047  38.956  18.653  14.299
65611W        W25048   5.247   3.434   2.378
65612W        W25049   4.705  10.361   1.379
65613W        W25050  17.229  15.728  11.086
65614W        W25051  25.532  36.576   0.288
65615W        W25052  34.564   6.757   1.441
65616W        W25053  13.649   4.438   4.172
65617W        W25054   6.729  29.022   3.702
65618W        W25055  37.350  42.500  13.056
65619W        W25056   5.831  42.922   3.636
65620W        W25057   0.360  22.562   1.790
65621W        W25058  23.006   4.780   2.330
65622W        W25059  17.196  29.616  14.405
65623W        W25060  30.416   8.232   1.390
65624W        W25061  24.633  35.399  14.493
65625W        W25062   7.390  32.473  12.457
65626W        W25063  41.485  10.265   2.357
65627W        W25064  40.466   1.336   1.394
65628W        W25065  40.335   1.359  13.534
65629W        W25066  15.661   5.900  12.394
65630W        W25067  25.580  40.342  12.001
65631W        W25068  27.170  24.153  11.028
65632W        W25069  28.515  39.826   0.755
65633W        W25070  27.463   0.405  14.959
65634W        W25071   7.814   4.376   4.260
65635W        W25072  13.165   2.405   1.819
65636W        W25073  20.162  37.418  11.119
65637W        W25074  42.854  26.100  14.313
65638W        W25075   6.809  34.479  12.825
65639W        W25076  15.197  34.391   1.886
65640W        W25077   6.789   0.900   1.210
65641W        W25078   2.959  21.639   3.748
65642W        W25079   8.297  30.560  14.998
65643W        W25080  35.889  43.457   0.243
65644W        W25081  36.081  19.238   3.828
65645W        W25082   5.904  19.621  10.895
65646W        W25083  23.592  23.015  12.423
65647W        W25084  12.221   5.907  14.473
65648W        W25085  34.953  33.483   3.847
65649W        W25086  30.412  36.096  11.010
65650W        W25087  15.736  32.126  12.071
65651W        W25088  19.769  11.769  13.995
65652W        W25089   9.692  17.161  13.506
65653W        W25090  21.194   1.751  14.830
65654W        W25091   4.764  14.671   2.397
65655W        W25092  38.951  13.777  12.028
65656W        W25093  40.413   4.936  14.408
65657W        W25094  34.447  27.474  12.407
65658W        W25095   0.954   1.408  14.865
65659W        W25096  19.195   1.816   4.831
65660W        W25097  34.939   9.758  13.056
65661W        W25098   1.432  42.457  12.858
65662W        W25099   1.308  18.679  10.927
65663W        W25100  39.916  13.267  11.403
65664W        W25101  18.546  14.589   5.612
65665W        W25102   4.858  10.265   5.114
65666W        W25103  27.640  35.386  14.759
65667W        W25104   6.215  38.467   3.641
65668W        W25105   8.709  30.036  10.642
65669W        W25106   6.740  37.555  13.985
65670W        W25107  27.642  23.700   1.389
65671W        W25108  26.055  33.578   2.306
65672W        W25109  36.446  30.087   4.612
65673W        W25110  11.710   3.885  14.482
65674W        W25111  32.533  34.037   0.876
65675W        W25112  25.473  17.719  11.113
65676W        W25113  38.493  28.588   3.789
65677W        W25114  29.570  29.582  11.380
65678W        W25115  11.644  37.083   1.263
65679W        W25116  14.662   7.186  10.062
65680W        W25117  44.817  38.049  14.001
65681W        W25118   0.778  28.531   2.763
65682W        W25119  24.077  13.790   1.443
65683W        W25120   5.293  24.518   0.479
65684W        W25121   3.344  44.877   2.821
65685W        W25122  28.602  28.939   0.321
65686W        W25123  20.053  43.384  11.967
65687W        W25124  31.452   5.913   4.706
65688W        W25125  10.642  11.862   0.471
65689W        W25126   7.219   7.803   1.796
65690W        W25127  31.618  26.466   3.634
65691W        W25128   1.365  15.148  14.796
65692W        W25129  22.534  11.698  14.957
65693W        W25130  29.607   1.919   4.644
65694W        W25131  10.870   5.898   4.180
65695W        W25132  22.695   3.308  12.868
65696W        W25133  38.475  27.629  14.775
65697W        W25134  21.233  17.614   2.848
65698W        W25135  32.531  14.647   4.781
65699W        W25136  30.471  31.520  11.862
65700W        W25137  41.933  34.449  11.528
65701W        W25138  31.471  31.972  12.044
65702W        W25139  14.720  27.501  10.506
65703W        W25140   6.680  29.057  11.117
65704W        W25141  12.771   4.217  13.517
65705W        W25142   6.305  10.295   2.320
65706W        W25143   0.484  37.948   1.738
65707W        W25144   2.926  41.525  14.889
65708W        W25145  25.971  29.934  14.438
65709W        W25146   4.304  44.268  13.885
65710W        W25147  16.734  20.054   3.791
65711W        W25148  44.953  34.408   0.470
65712W        W25149  43.000   7.411   0.440
65713W        W25150   3.711  23.217   0.454
65714W        W25151  40.303  31.046   3.195
65715W        W25152  23.187  10.687  12.977
65716W        W25153  19.207  36.008  13.510
65717W        W25154  43.392  33.938   5.779
65718W        W25155   7.264  18.210  11.562
65719W        W25156  40.464  19.099   0.966
65720W        W25157   3.331  41.897   3.744
65721W        W25158  40.009  27.560   1.777
65722W        W25159  29.511  37.562   4.813
65723W        W25160  17.114  44.877   0.898
65724W        W25161  18.224  29.970   3.154
65725W        W25162  10.690  14.206  11.476
65726W        W25163  26.459  39.902  14.405
65727W        W25164  24.533   4.229   1.834
65728W        W25165  12.717   2.937  14.865
65729W        W25166   9.315  36.007   4.287
65730W        W25167  21.666  37.378  13.500
65731W        W25168   0.476  11.247   4.790
65732W        W25169  39.016  25.165  14.774
65733W        W25170   0.269   1.319   0.286
65734W        W25171  21.161   8.709  13.467
65735W        W25172  16.154  33.025   4.612
65736W        W25173   9.369  30.928  13.955
65737W        W25174  28.493  14.119   2.833
65738W        W25175  39.482   5.373   1.759
65739W        W25176   1.842  38.336  14.941
65740W        W25177  23.569  19.253   9.589
65741W        W25178  27.083  38.017   1.362
65742W        W25179  16.119  26.103  11.496
65743W        W25180  43.845   2.274   3.253
65744W        W25181  15.715  21.718   3.271
65745W        W25182  28.975  30.132  14.833
65746W        W25183  16.630  10.766  14.772
65747W        W25184  33.880  37.543   3.303
65748W        W25185  23.500  15.649  10.463
65749W        W25186   2.847  40.490  14.023
65750W        W25187  31.080  25.065  14.951
65751W        W25188  29.620  40.369  12.476
65752W        W25189   9.232   0.258  11.430
65753W        W25190  30.958  30.481  13.520
65754W        W25191  15.317  34.417  10.624
65755W        W25192  39.974   1.319   4.198
65756W        W25193  35.552  40.377   5.220
65757W        W25194  25.659  24.041  11.553
65758W        W25195  30.490  26.979  14.339
65759W        W25196  37.382  29.022  11.414
65760W        W25197  37.413  21.087  14.892
65761W        W25198  33.504   0.787   3.748
65762W        W25199  34.482  12.689   4.837
65763W        W25200  13.306  14.210  11.058
65764W        W25201  17.104  23.710  11.431
65765W        W25202  42.966  33.026  14.899
65766W        W25203   8.289  25.606  13.906
65767W        W25204  30.991   2.878   1.211
65768W        W25205  27.976  23.108  10.949
65769W        W25206  26.642   2.336  11.545
65770W        W25207  29.021  18.737  14.503
65771W        W25208  11.337   0.932  12.916
65772W        W25209  19.043  12.165   0.749
65773W        W25210  32.448  13.743   4.149
65774W        W25211  20.708  30.412  10.518
65775W        W25212  24.635   0.803   4.225
65776W        W25213   9.244  10.227  12.979
65777W        W25214  36.949  34.486  14.803
65778W        W25215   6.296  28.101  13.005
65779W        W25216  13.350  34.572   1.360
65780W        W25217   1.736  20.615   2.852
65781W        W25218  18.264  16.210   0.906
65782W        W25219   1.896  39.548  13.505
65783W        W25220  31.075  33.528   4.137
65784W        W25221  20.532  27.519  14.477
65785W        W25222  37.425  36.866  12.917
65786W        W25223  36.968   0.366   0.912
65787W        W25224   4.743  37.485   2.273
65788W        W25225  13.202  16.203   4.778
65789W        W25226  37.880  40.396   4.693
65790W        W25227  31.410   9.754  12.407
65791W        W25228  10.342  37.879   1.222
65792W        W25229   6.744   7.343  11.013
65793W        W25230   9.313  33.579  11.126
65794W        W25231  41.862  44.472   4.165
65795W        W25232  24.657  28.009   2.298
65796W        W25233  15.281  16.082  13.945
65797W        W25234  43.812   6.804  12.561
65798W        W25235  17.170  40.971   0.246
65799W        W25236  20.611  19.041  13.463
65800W        W25237  19.092  38.425  11.882
65801W        W25238  37.972  11.809   2.234
65802W        W25239  36.079  35.110   0.262
65803W        W25240  22.187   4.835  11.033
65804W        W25241  32.619  35.024   0.320
65805W        W25242  35.527  26.615   2.672
65806W        W25243   1.301  16.109   4.662
65807W        W25244  42.857  38.038   0.461
65808W        W25245   1.304  22.649  10.614
65809W        W25246  32.498  13.730  14.281
65810W        W25247   4.941  17.230   4.664
65811W        W25248   6.706  30.033   4.256
65812W        W25249   6.287  13.194   0.403
65813W        W25250   9.840  35.392  11.493
65814W        W25251  25.120  12.736  12.437
65815W        W25252  23.188  31.547  10.489
65816W        W25253  29.508  22.158   5.278
65817W        W25254  26.466  13.113  12.898
65818W        W25255  44.321  37.038   3.706
65819W        W25256  14.802   0.344   3.198
65820W        W25257  32.530   4.836  11.979
65821W        W25258  33.546   5.909  13.964
65822W        W25259  38.547   3.247   1.224
65823W        W25260  33.016  32.462   3.324
65824W        W25261  27.082  24.535   2.870
65825W        W25262  34.875  12.782   1.230
65826W        W25263   0.817  25.117  12.472
65827W        W25264  12.790  35.591   2.191
65828W        W25265   4.447   7.896   0.407
65829W        W25266  31.937   5.246   2.756
65830W        W25267   1.978  30.045   4.248
65831W        W25268   6.851  13.146  14.830
65832W        W25269   9.163   4.816   4.654
65833W        W25270   7.402   8.741  14.783
65834W        W25271  41.845  32.087   2.349
65835W        W25272  40.892   9.844   1.369
65836W        W25273   5.797  25.707  10.983
65837W        W25274  26.609  30.069  14.418
65838W        W25275  35.055  37.956  12.075
65839W        W25276  14.620  44.330  11.481
65840W        W25277   3.412  26.034  11.480
65841W        W25278  44.995  43.463   4.732
65842W        W25279   4.803   8.807  12.999
65843W        W25280   4.419  15.098  13.400
65844W        W25281  36.555  37.889   4.131
65845W        W25282  25.122  30.599  14.819
65846W        W25283  17.248  10.378   3.806
65847W        W25284  38.931   1.371  14.439
65848W        W25285  40.523  22.084   3.213
65849W        W25286  17.089  36.027  11.522
65850W        W25287  36.357  21.092   0.429
65851W        W25288  35.955  28.163   5.262
65852W        W25289  34.488  36.580  13.463
65853W        W25290   5.374  44.392  10.467
65854W        W25291  24.479  33.405  11.079
65855W        W25292   6.841  15.150   4.183
65856W        W25293  17.594  34.498  11.953
65857W        W25294   7.798  17.756  11.552
65858W        W25295  12.352  40.472  13.411
65859W        W25296  44.504  10.799   2.330
65860W        W25297  15.277   2.348   1.227
65861W        W25298  21.235  31.113  13.464
65862W        W25299  43.845   6.758   3.794
65863W        W25300  32.473  15.303  11.066
65864W        W25301   8.388  37.020   3.249
65865W        W25302   4.247  17.561   3.352
65866W        W25303  12.177   3.897  10.610
65867W        W25304  28.612  26.179  13.385
65868W        W25305  22.524   4.755  12.551
65869W        W25306  41.427   9.312   3.678
65870W        W25307  35.381  16.708   2.267
65871W        W25308   1.344   5.932   4.671
65872W        W25309  13.130  13.656  12.083
65873W        W25310   0.404  43.275  11.538
65874W        W25311   3.835  41.041   0.733
65875W        W25312   8.171  21.597  12.950
65876W        W25313  29.641  19.711   0.362
65877W        W25314  32.986  37.530   0.313
65878W        W25315   9.651  27.525   3.172
65879W        W25316  36.973  13.176  12.470
65880W        W25317  32.120  30.464  11.051
65881W        W25318  35.361  21.237   4.156
65882W        W25319  12.787  33.107  11.585
65883W        W25320   5.839  29.149   3.372
65884W        W25321  35.930   5.256  13.426
65885W        W25322   2.840  12.132   5.755
65886W        W25323   4.227  31.500  10.615
65887W        W25324  28.445  33.614   1.770
65888W        W25325   1.734   9.173  14.934
65889W        W25326  11.204   1.932   0.780
65890W        W25327  38.552  17.658  13.892
65891W        W25328  30.960   8.281  11.609
65892W        W25329  37.027  25.603   1.912
65893W        W25330   0.291  19.582   0.745
65894W        W25331   9.820   3.224  12.363
65895W        W25332  31.095  20.642   3.307
65896W        W25333  31.530  29.426   3.343
65897W        W25334  30.042   8.813   1.770
65898W        W25335  18.081  30.932  12.907
65899W        W25336  36.544  24.609  12.944
65900W        W25337  11.173  26.986  11.436
65901W        W25338  21.752  18.603   2.677
65902W        W25339  36.868   1.945  12.439
65903W        W25340  44.901  35.541   0.869
65904W        W25341  33.882  10.838  11.578
65905W        W25342  17.272   4.432  11.034
65906W        W25343   5.381  23.667   3.661
65907W        W25344  28.493  24.218   0.899
65908W        W25345   8.265  13.118  14.759
65909W        W25346   6.737  19.209   0.755
65910W        W25347  16.688  41.516  11.397
65911W        W25348  17.260  30.413   0.267
65912W        W25349  43.504  41.927  10.544
65913W        W25350  10.670  15.123  12.514
65914W        W25351  13.770  42.980   0.773
65915W        W25352  26.974  34.529   4.738
65916W        W25353  19.656  21.643  12.379
65917W        W25354   3.382   6.771  12.058
65918W        W25355  35.002  35.868  11.976
65919W        W25356  41.859  42.404  13.871
65920W        W25357  15.675   9.784   4.212
65921W        W25358  22.137  25.012  11.558
65922W        W25359  34.556  36.500   2.237
65923W        W25360  14.238  17.659   3.721
65924W        W25361   6.198  44.005   2.870
65925W        W25362  30.141  11.724   3.334
65926W        W25363  33.461   6.386  10.569
65927W        W25364  42.992  43.438  12.049
65928W        W25365   9.861  23.691   1.710
65929W        W25366  15.817  13.274   0.444
65930W        W25367   8.693  35.011  13.048
65931W        W25368  33.998   0.261  11.038
65932W        W25369  13.197  15.784  10.521
65933W        W25370   5.805   2.454   0.846
65934W        W25371  40.824  30.109  12.005
65935W        W25372  43.791   5.725   2.794
65936W        W25373  35.370   0.760  14.859
65937W        W25374  41.009  40.963   2.683
65938W        W25375   8.198  39.858  13.040
65939W        W25376  21.241  22.138   3.842
65940W        W25377  27.520  15.755  10.405
65941W        W25378   7.815   8.358  13.392
65942W        W25379  23.709   9.644   1.919
65943W        W25380  38.032   2.906   2.314
65944W        W25381  13.205  24.598   0.773
65945W        W25382   0.412   7.852   1.330
65946W        W25383  25.623  29.597   1.823
65947W        W25384  11.707  39.915   3.148
65948W        W25385  12.300  41.913  12.866
65949W        W25386  16.083  22.230  10.544
65950W        W25387  34.466  26.090   4.301
65951W        W25388  19.582  32.629   0.349
65952W        W25389   2.275  10.232  11.918
65953W        W25390  18.728  29.613  12.957
65954W        W25391   7.756   0.408  11.100
65955W        W25392  12.287  38.975  13.352
65956W        W25393  14.138   3.367   0.844
65957W        W25394  44.470  15.738  14.442
65958W        W25395  41.989   2.895   0.284
65959W        W25396   9.739   7.266   2.310
65960W        W25397  15.259  15.717  10.531
65961W        W25398  23.095  11.316   5.613
65962W        W25399   9.342  43.516   0.890
65963W        W25400  15.648   3.766   1.238
65964W        W25401   8.263  39.974  14.902
65965W        W25402  20.209  14.230   0.340
65966W        W25403  17.284  26.063  13.825
65967W        W25404  39.422  33.483   2.334
65968W        W25405  13.745   3.316   3.300
65969W        W25406   4.893   4.412  11.373
65970W        W25407  43.984   7.197  13.836
65971W        W25408  39.385  36.975  10.479
65972W        W25409  11.293  10.178  13.387
65973W        W25410   2.230  13.220   0.857
65974W        W25411  38.380   5.310  12.365
65975W        W25412  25.638  18.140   1.441
65976W        W25413  16.184  13.826  10.417
65977W        W25414  20.182  13.220   3.675
65978W        W25415   7.320   8.818   1.910
65979W        W25416  20.759  33.994  14.291
65980W        W25417  26.152   2.885  10.935
65981W        W25418  22.062  34.962  11.124
65982W        W25419  15.284  38.862   3.676
65983W        W25420  22.043  19.748  13.507
65984W        W25421  38.450  15.741  13.529
65985W        W25422  17.241  23.509   3.771
65986W        W25423   3.776  29.143  14.950
65987W        W25424  43.830  36.529   0.749
65988W        W25425  43.980   8.889  10.645
65989W        W25426  21.020  24.590  14.009
65990W        W25427  13.274  32.962  14.513
65991W        W25428  35.950   6.812   2.681
65992W        W25429   9.825  28.125   2.335
65993W        W25430  33.498  28.468  11.607
65994W        W25431   6.854  13.646   3.857
65995W        W25432  11.210  25.549   2.246
65996W        W25433  39.459   6.726  12.452
65997W        W25434  18.725  35.504  13.353
65998W        W25435  34.488  25.045  10.432
65999W        W25436  22.015  28.150   0.277
66000W        W25437  44.916  37.471   1.713
66001W        W25438  32.137  40.338   3.374
66002W        W25439  28.953  18.096   3.302
66003W        W25440   5.237  21.590  14.025
66004W        W25441   0.968  31.922  10.452
66005W        W25442  41.382  42.449   1.853
66006W        W25443   0.743  37.485  11.413
66007W        W25444  32.559  14.274   0.916
66008W        W25445  13.351  18.735   1.231
66009W        W25446  14.771  10.778  12.021
66010W        W25447  34.557  41.380  12.993
66011W        W25448  18.766  33.942  12.375
66012W        W25449  26.495  29.597  11.523
66013W        W25450  36.488  38.008  11.879
66014W        W25451  26.177  22.711   0.825
66015W        W25452  35.547   2.465   3.288
66016W        W25453   5.816  32.633  11.894
66017W        W25454  32.597  34.005  11.051
66018W        W25455   6.744   7.789   3.170
66019W        W25456   0.409  41.849  14.293
66020W        W25457  42.339  42.407  11.478
66021W        W25458  10.226  31.421   0.818
66022W        W25459  36.078  17.721   4.153
66023W        W25460  21.086   3.386  13.486
66024W        W25461  44.779  20.227   3.638
66025W        W25462  40.410   2.764  11.005
66026W        W25463  17.616  31.534   1.923
66027W        W25464  36.957   3.410   1.741
66028W        W25465  27.571  40.861  14.310
66029W        W25466   5.282  31.028   2.399
66030W        W25467   0.982  23.626  12.499
66031W        W25468   9.797  12.629   3.251
66032W        W25469  32.607   7.753   1.875
66033W        W25470  33.018  38.324  11.874
66034W        W25471  18.666  37.451  13.517
66035W        W25472   6.244  32.939  12.525
66036W        W25473   4.215  41.357   2.350
66037W        W25474  24.542  39.873   1.260
66038W        W25475   6.864   0.334   2.814
66039W        W25476  44.444  25.676  12.926
66040W        W25477  43.856  36.920   1.232
66041W        W25478  36.935  19.266  14.761
66042W        W25479  43.509  11.693  10.958
66043W        W25480   6.835  11.791   2.693
66044W        W25481  26.585   0.930   0.752
66045W        W25482   4.805  13.801  12.568
66046W        W25483  22.160  11.804   3.366
66047W        W25484  32.960  34.474  12.345
66048W        W25485  14.248  33.973   2.819
66049W        W25486  40.899  22.013  12.081
66050W        W25487   0.339  30.446   0.460
66051W        W25488   7.213  40.451   4.316
66052W        W25489  29.015   8.359  11.546
66053W        W25490  28.037  15.583  10.642
66054W        W25491   9.765  25.552   2.692
66055W        W25492  10.335  18.607   2.738
66056W        W25493  35.892  30.431  11.910
66057W        W25494  33.447  27.955  12.038
66058W        W25495  19.182  34.441   2.322
66059W        W25496  19.600  43.306  12.081
66060W        W25497  36.567   8.724   4.273
66061W        W25498   7.274  12.358  11.048
66062W        W25499  14.237  40.486   4.761
66063W        W25500   0.388  18.215  13.015
66064W        W25501  38.917   8.708   1.923
66065W        W25502   2.334  37.479   4.681
66066W        W25503  39.544  27.011  12.563
66067W        W25504  27.627  33.396   4.660
66068W        W25505  39.526  10.853   2.277
66069W        W25506   2.775   9.162   4.327
66070W        W25507  31.134  24.481  13.839
66071W        W25508  40.854   1.764   4.148
66072W        W25509   6.309  43.809   3.348
66073W        W25510  18.564  32.936   4.722
66074W        W25511  10.307  17.115   3.248
66075W        W25512  22.181  35.495  14.466
66076W        W25513  41.984  21.218   1.890
66077W        W25514  35.481  27.656   4.697
66078W        W25515  42.967   6.391   1.351
66079W        W25516   9.878  15.776   1.300
66080W        W25517   5.799  12.674   3.792
66081W        W25518   9.258   4.882  11.596
66082W        W25519  36.913  14.099  13.800
66083W        W25520  22.112  10.244   0.752
66084W        W25521  34.080  21.604  13.821
66085W        W25522  24.108  33.986   3.340
66086W        W25523   5.225  29.987   2.695
66087W        W25524  10.183  25.979  10.518
66088W        W25525  15.130   0.379  14.310
66089W        W25526  37.524  18.600   4.690
66090W        W25527  28.965  18.284   0.391
66091W        W25528  14.249  13.352   0.467
66092W        W25529  44.500  25.064   4.251
66093W        W25530  14.770  41.480   0.458
66094W        W25531   3.845  10.229  14.799
66095W        W25532  28.110   9.881   0.339
66096W        W25533  25.135  13.221  13.474
66097W        W25534  30.619  13.635   4.621
66098W        W25535  30.471  18.243   4.159
66099W        W25536  39.462  13.145  14.474
66100W        W25537  38.827   0.878  12.891
66101W        W25538  44.459  37.064  10.086
66102W        W25539  35.981  40.810  12.389
66103W        W25540  35.073  26.205  14.387
66104W        W25541   0.886  35.914   1.707
66105W        W25542  13.620   7.270  14.458
66106W        W25543  19.700  22.167  11.033
66107W        W25544  32.921  22.571   3.181
66108W        W25545  13.811  28.440   3.804
66109W        W25546   9.168  33.568   0.967
66110W        W25547  39.438   5.811  11.465
66111W        W25548  34.934  11.674  10.013
66112W        W25549   7.902   3.819   4.668
66113W        W25550  28.041   2.947  14.780
66114W        W25551   6.888   5.343   2.222
66115W        W25552  23.233  17.083   2.793
66116W        W25553  34.447   1.883  11.121
66117W        W25554  20.697   2.354   4.774
66118W        W25555   2.782   5.283   3.693
66119W        W25556  16.569  20.037  10.561
66120W        W25557  11.279  20.641   0.803
66121W        W25558  42.299  41.797  10.615
66122W        W25559  12.176  37.406  13.024
66123W        W25560  30.610  35.518   1.706
66124W        W25561   1.924  32.601   0.896
66125W        W25562   8.317  42.288   3.253
66126W        W25563  21.605  34.420   2.409
66127W        W25564  16.220  16.075  13.009
66128W        W25565  31.113  42.824   1.701
66129W        W25566  31.120   3.759   3.767
66130W        W25567  14.147   9.782   3.851
66131W        W25568   8.392  42.851   4.137
66132W        W25569  31.578  16.566   0.466
66133W        W25570  19.272  24.144   4.734
66134W        W25571   1.923  24.498  13.881
66135W        W25572  15.765  43.394   2.893
66136W        W25573   3.421  28.495   1.815
66137W        W25574   5.402  27.645   0.783
66138W        W25575  31.957  30.639  10.083
66139W        W25576  37.356  30.658  13.818
66140W        W25577  16.659  42.459  11.063
66141W        W25578  14.767  19.209   1.437
66142W        W25579  22.693  11.650  12.520
66143W        W25580   2.322  43.987  12.063
66144W        W25581  44.956   7.282   3.787
66145W        W25582  35.490  16.234  14.957
66146W        W25583  20.619  19.582   5.212
66147W        W25584  16.754  28.660   3.759
66148W        W25585  44.859  18.717   4.721
66149W        W25586   9.160  27.555   5.248
66150W        W25587  42.003  37.506  11.904
66151W        W25588  30.462   7.267  11.913
66152W        W25589  20.220  44.891   4.247
66153W        W25590   7.415   5.386   0.855
66154W        W25591  31.077  21.130   3.870
66155W        W25592  27.043  21.083   3.156
66156W        W25593  18.207   0.891   0.801
66157W        W25594  17.679  27.946  11.424
66158W        W25595  35.988  28.149   3.375
66159W        W25596  21.108  15.259   1.698
66160W        W25597  43.865   7.209  14.877
66161W        W25598   4.225  13.169  14.308
66162W        W25599  29.108  39.373  14.970
66163W        W25600  40.971  32.075  13.381
66164W        W25601  16.758  38.517   5.704
66165W        W25602  38.513  14.211  14.442
66166W        W25603  31.632  43.333  11.470
66167W        W25604   8.278  32.930   1.375
66168W        W25605   8.246   6.907   1.434
66169W        W25606  39.943  31.413   4.344
66170W        W25607  18.173   5.917   3.774
66171W        W25608   1.307  28.039   1.339
66172W        W25609  39.903   1.904  12.896
66173W        W25610  42.360   4.859   0.415
66174W        W25611  26.046  29.428  10.438
66175W        W25612  30.044  26.156  12.893
66176W        W25613   2.387  34.952   0.790
66177W        W25614  13.739  11.767  13.024
66178W        W25615  41.845  33.541  11.552
66179W        W25616  25.571  36.974   4.151
66180W        W25617  43.976  33.560  10.551
66181W        W25618  19.772  22.570   5.230
66182W        W25619  33.565  19.754   3.752
66183W        W25620  34.493  34.002  12.998
66184W        W25621  26.149   4.718   4.771
66185W        W25622   9.689  21.746   3.374
66186W        W25623   9.803   7.305   3.827
66187W        W25624  37.928  23.679   1.851
66188W        W25625  44.800  24.203  13.022
66189W        W25626  37.069  42.504  14.315
66190W        W25627  33.499  28.004   2.814
66191W        W25628  23.046  34.902   1.266
66192W        W25629   8.871   3.360   3.651
66193W        W25630  40.957  42.872  14.452
66194W        W25631  32.407  41.999  11.946
66195W        W25632  40.417  27.146  12.000
66196W        W25633  23.712  18.293  11.107
66197W        W25634  19.144   7.379  10.514
66198W        W25635  33.981  23.213  14.384
66199W        W25636  25.657  29.930   1.930
66200W        W25637  28.438  32.422   0.360
66201W        W25638  39.840  37.482  12.364
66202W        W25639  44.436   3.884   4.276
66203W        W25640   8.266  15.776  11.005
66204W        W25641   0.768  24.005  11.599
66205W        W25642   6.369  35.079  13.829
66206W        W25643   2.784  16.611   3.263
66207W        W25644  28.496  29.934   1.721
66208W        W25645  12.164  11.756  10.625
66209W        W25646  30.472  37.897   0.402
66210W        W25647  21.645  41.814  13.461
66211W        W25648  13.774  24.011   4.322
66212W        W25649  13.747  43.362   0.246
66213W        W25650  41.874  25.118   4.833
66214W        W25651   8.328  44.343   2.812
66215W        W25652  17.241  25.644  13.002
66216W        W25653  17.278  37.024   0.948
66217W        W25654  28.629  10.254   1.435
66218W        W25655  34.109   3.375   0.912
66219W        W25656  17.729  25.476   0.436
66220W        W25657  23.063   1.778  11.540
66221W        W25658   8.803  12.672   0.904
66222W        W25659  34.455  23.211  14.911
66223W        W25660  43.343   4.352  11.562
66224W        W25661  33.063  25.517  12.550
66225W        W25662  43.850   4.233  11.944
66226W        W25663  13.345  28.144   0.830
66227W        W25664  32.533  43.860   3.207
66228W        W25665  33.581   5.696   1.408
66229W        W25666  37.990   8.165   0.354
66230W        W25667  23.090  38.905  13.889
66231W        W25668  12.127  37.996  10.597
66232W        W25669  23.076   5.919   3.348
66233W        W25670  20.714  17.795  12.055
66234W        W25671  29.104  44.912   3.650
66235W        W25672   4.883  35.405   0.853
66236W        W25673  43.788   2.890  11.401
66237W        W25674  33.434  28.613  13.469
66238W        W25675  34.571   2.261   0.829
66239W        W25676  21.199  12.285  13.969
66240W        W25677  25.055  30.005   4.770
66241W        W25678  28.187   3.266   3.694
66242W        W25679   6.190  15.176  10.519
66243W        W25680  13.248  34.909  10.553
66244W        W25681   1.831  14.668   1.232
66245W        W25682  14.257  44.469   2.226
66246W        W25683  21.586  28.443   2.710
66247W        W25684  31.975  43.362   1.822
66248W        W25685  19.184  24.657   1.872
66249W        W25686  28.120  37.444  12.420
66250W        W25687  39.452  35.436   3.349
66251W        W25688  21.545  38.903   4.810
66252W        W25689  34.394  34.972  10.552
66253W        W25690  25.057  13.750  11.388
66254W        W25691  43.459   5.296   1.431
66255W        W25692  38.463  21.057  14.937
66256W        W25693  13.302  30.976   1.876
66257W        W25694  28.624  35.516  11.548
66258W        W25695  15.659   1.339  10.956
66259W        W25696  27.691  38.406   3.733
66260W        W25697  32.052  43.951  11.584
66261W        W25698  39.468   7.691   4.124
66262W        W25699  42.297  44.282   1.357
66263W        W25700   3.837  34.541   1.807
66264W        W25701  18.210  41.941   4.198
66265W        W25702  24.182  21.104  12.034
66266W        W25703  23.651  23.504  12.844
66267W        W25704  19.132  36.368  13.809
66268W        W25705   4.327  34.549  14.767
66269W        W25706   4.315   9.322  14.928
66270W        W25707   2.257  25.630  13.825
66271W        W25708  22.045   6.270   0.353
66272W        W25709  22.525  15.210   4.239
66273W        W25710  11.795   2.951   2.665
66274W        W25711   8.661   2.396  13.932
66275W        W25712  33.956  31.127   1.356
66276W        W25713   8.769  44.484  14.987
66277W        W25714   6.757  16.204   2.773
66278W        W25715  22.043   8.791   3.379
66279W        W25716  14.821   1.755  12.489
66280W        W25717  33.409  18.155   4.151
66281W        W25718  33.978  23.018   3.209
66282W        W25719   5.206  10.765   1.760
66283W        W25720   1.318  38.858   1.237
66284W        W25721  38.992  40.923  11.931
66285W        W25722  14.780  32.392  13.860
66286W        W25723  44.262  20.633   5.122
66287W        W25724   2.314  10.753   2.304
66288W        W25725   1.236  27.109   0.810
66289W        W25726  20.655   3.823  10.598
66290W        W25727  37.004   8.166   4.158
66291W        W25728  36.515  24.588  14.001
66292W        W25729   1.796  40.905   1.352
66293W        W25730  18.138  30.133   1.914
66294W        W25731  33.043   4.849   2.231
66295W        W25732   3.352  15.129  12.837
66296W        W25733   4.347  22.573  13.383
66297W        W25734   7.416  39.058  14.911
66298W        W25735   5.893  30.631  11.546
66299W        W25736  30.591   4.809   2.900
66300W        W25737  21.675   9.652  13.510
66301W        W25738   2.404  12.280  13.507
66302W        W25739  40.908   5.312   2.197
66303W        W25740  41.021  14.161   3.770
66304W        W25741  38.350   2.286   4.272
66305W        W25742  28.675   0.765  11.375
66306W        W25743  17.632  28.074  10.098
66307W        W25744  29.099  44.951  14.351
66308W        W25745  16.273  19.687  11.966
66309W        W25746  17.704  30.033  14.795
66310W        W25747  38.845  14.179   3.831
66311W        W25748   2.296  21.731  10.477
66312W        W25749   6.390  41.502   0.452
66313W        W25750  27.687  11.776  14.513
66314W        W25751  25.483  15.590  12.072
66315W        W25752  34.436  15.749   1.211
66316W        W25753  40.377  37.457  12.042
66317W        W25754  42.801  38.076   0.968
66318W        W25755  44.323  39.456   2.895
66319W        W25756  24.686  33.955   1.847
66320W        W25757  32.069  31.931  11.456
66321W        W25758  20.725  37.048  14.849
66322W        W25759  31.919  36.434   1.809
66323W        W25760  33.106  12.166  12.950
66324W        W25761   2.459  32.103   5.102
66325W        W25762  22.048  38.436  10.150
66326W        W25763  42.853  40.957   3.815
66327W        W25764  22.708  42.796  14.308
66328W        W25765   5.312  31.994   2.206
66329W        W25766  10.187  38.396   2.740
66330W        W25767  32.592  43.890   4.340
66331W        W25768  36.068  14.160   2.748
66332W        W25769  27.997  30.950  10.458
66333W        W25770  23.708  30.417  10.486
66334W        W25771  25.049   4.896  12.077
66335W        W25772  38.381  10.336  12.012
66336W        W25773  38.504   7.667  11.587
66337W        W25774  31.522   0.374   4.148
66338W        W25775  35.598  14.809   2.892
66339W        W25776   9.364  10.378   9.966
66340W        W25777  22.630  42.823   4.226
66341W        W25778  17.704  28.468  14.957
66342W        W25779  32.581  41.853  13.956
66343W        W25780  43.826  12.652  12.015
66344W        W25781  15.579  35.515   1.379
66345W        W25782  33.085   5.908  10.962
66346W        W25783  27.661   7.701  12.500
66347W        W25784  40.006  27.985  12.832
66348W        W25785  19.686   4.806   3.835
66349W        W25786  26.202   5.228  11.459
66350W        W25787  32.890  44.337  13.460
66351W        W25788  12.330  32.567  11.408
66352W        W25789  14.754  14.624   3.248
66353W        W25790  30.035  16.165  12.045
66354W        W25791  41.311  42.878  13.019
66355W        W25792  42.356  10.655   4.737
66356W        W25793  21.202  28.949   1.717
66357W        W25794  24.150  18.188   0.736
66358W        W25795  38.340  39.406   3.785
66359W        W25796  39.988   6.677   3.339
66360W        W25797   7.403  18.669  12.343
66361W        W25798  11.704  19.649  12.850
66362W        W25799  21.515  28.454  11.567
66363W        W25800  14.726   5.911   2.247
66364W        W25801  42.867  30.536  10.586
66365W        W25802   8.869  31.048   5.281
66366W        W25803  40.371  31.119  11.939
66367W        W25804  43.498  33.481   1.400
66368W        W25805   1.338  20.646  12.498
66369W        W25806  36.921   7.213  10.423
66370W        W25807  26.153   4.765   2.411
66371W        W25808  19.563   5.692   2.820
66372W        W25809  28.444  24.574  13.936
66373W        W25810  26.538  30.576  11.981
66374W        W25811  23.085  26.047  10.642
66375W        W25812   8.241  36.931   4.347
66376W        W25813  14.127   9.342   3.733
66377W        W25814   2.227   1.281  11.452
66378W        W25815   9.861  15.206  12.914
66379W        W25816  22.724  31.403   2.800
66380W        W25817  13.164   6.217  11.909
66381W        W25818   3.448  12.294   2.789
66382W        W25819  36.036  15.615  13.907
66383W        W25820  36.565  18.213   4.299
66384W        W25821  23.076   7.801   3.832
66385W        W25822  40.825  26.114  13.519
66386W        W25823  23.605  40.386   3.631
66387W        W25824  18.680  19.209   5.255
66388W        W25825   5.690  40.016  11.455
66389W        W25826  29.168  23.100  13.044
66390W        W25827  33.601  43.848   3.177
66391W        W25828   9.787  36.524   3.291
66392W        W25829  10.215  21.122  14.812
66393W        W25830  36.057   9.719  10.461
66394W        W25831   4.875   8.710   2.381
66395W        W25832  15.297  40.932   1.438
66396W        W25833   9.352  12.287   4.724
66397W        W25834  21.713  15.595  10.960
66398W        W25835  39.417  28.172   2.897
66399W        W25836   4.327  24.717  10.422
66400W        W25837   1.789  16.786   3.213
66401W        W25838  32.593  12.764  13.968
66402W        W25839  12.806  15.810  10.992
66403W        W25840  21.581  22.098   2.732
66404W        W25841   9.236  34.491  13.487
66405W        W25842  15.087   8.837  14.353
66406W        W25843  15.581  15.601   1.267
66407W        W25844  17.287  31.606  12.551
66408W        W25845  30.943  43.771  11.599
66409W        W25846  32.896  39.324   1.228
66410W        W25847  25.056   8.840  12.028
66411W        W25848  40.488  36.434  14.791
66412W        W25849  25.714  18.719   4.653
66413W        W25850  38.483  21.603  10.918
66414W        W25851  10.867   9.792  11.453
66415W        W25852  35.108  40.441   5.152
66416W        W25853   7.820   6.208  12.481
66417W        W25854  17.183  18.603   0.289
66418W        W25855  37.486  20.729  12.027
66419W        W25856  29.489  38.353  10.588
66420W        W25857  12.175  10.873  11.517
66421W        W25858  35.425   8.771   1.423
66422W        W25859  12.169   5.710  13.380
66423W        W25860   0.771  16.785  13.423
66424W        W25861  36.959  15.654  13.498
66425W        W25862  13.663  42.876   9.535
66426W        W25863  21.078   7.674   1.426
66427W        W25864  39.339  30.449  14.025
66428W        W25865   4.245  33.624  12.461
66429W        W25866   8.709  25.567  11.907
66430W        W25867  39.890  42.485   4.323
66431W        W25868  21.101  11.343   0.265
66432W        W25869  11.659  43.946  12.050
66433W        W25870  31.630  10.745   3.736
66434W        W25871  22.243   8.314  13.532
66435W        W25872  34.053  17.713  12.423
66436W        W25873  20.155  17.757  14.331
66437W        W25874  17.147  11.155   0.470
66438W        W25875  42.838  31.141  10.500
66439W        W25876  15.097   5.932  13.479
66440W        W25877  36.459  15.301   0.843
66441W        W25878  41.489  12.824  12.899
66442W        W25879  28.662  13.705   0.458
66443W        W25880  39.553  43.436  13.963
66444W        W25881  32.496  25.118  14.888
66445W        W25882  13.788   6.281  10.433
66446W        W25883  41.043   5.317  10.429
66447W        W25884  13.695   1.430   1.704
66448W        W25885  13.711   7.347   4.808
66449W        W25886  22.214   1.269   3.223
66450W        W25887  41.368  20.620   2.736
66451W        W25888  17.748   0.954   9.995
66452W        W25889  41.789   7.247  14.496
66453W        W25890   0.855  27.162   1.369
66454W        W25891  27.685   2.423  10.476
66455W        W25892   7.203  22.715   4.794
66456W        W25893  31.982   7.731  13.963
66457W        W25894  33.621   4.827  14.780
66458W        W25895  27.011  14.825   1.230
66459W        W25896  36.063   4.403  13.377
66460W        W25897  18.151   3.735   4.343
66461W        W25898  43.326  26.955   3.848
66462W        W25899  21.739  10.695  14.390
66463W        W25900  42.775  26.582   0.900
66464W        W25901  18.153  34.084   2.861
66465W        W25902  33.124  19.066  14.028
66466W        W25903  18.663  43.883   1.694
66467W        W25904   6.306  24.581   4.333
66468W        W25905  22.668   3.785  14.774
66469W        W25906  33.471  26.693  14.459
66470W        W25907   9.708   3.711  11.905
66471W        W25908  24.049   2.751  14.331
66472W        W25909  18.597  42.316   3.333
66473W        W25910  31.630   4.783   0.902
66474W        W25911  37.371  10.771  14.487
66475W        W25912  39.981   4.836   1.756
66476W        W25913  35.067  28.624   0.383
66477W        W25914   7.245  19.618  10.571
66478W        W25915  35.022   4.332   4.154
66479W        W25916  26.583  31.000  14.851
66480W        W25917  30.120  40.334   3.278
66481W        W25918  39.415  42.021   0.372
66482W        W25919  32.005  40.868   1.765
66483W        W25920  36.040  15.824   0.748
66484W        W25921  37.349  29.480  13.523
66485W        W25922  11.763  26.457   0.864
66486W        W25923  16.167   4.233   0.274
66487W        W25924  25.118  28.611   4.289
66488W        W25925  22.686  44.430  14.976
66489W        W25926  35.380  14.268   1.386
66490W        W25927  19.605  14.226   3.177
66491W        W25928  15.225  22.174  10.992
66492W        W25929   1.903  38.933  12.494
66493W        W25930   0.923  31.465   2.327
66494W        W25931  14.168  30.035  12.465
66495W        W25932  27.609  42.474  10.600
66496W        W25933  24.140  28.576   0.377
66497W        W25934  40.851  26.696   3.218
66498W        W25935  41.352  27.461  14.812
66499W        W25936  13.277  38.476  13.942
66500W        W25937   4.435   6.916  11.881
66501W        W25938  28.987   1.821  14.504
66502W        W25939  12.315  42.419  13.341
66503W        W25940  30.429  41.462  12.409
66504W        W25941  43.385   8.311   2.197
66505W        W25942  30.566   9.177  14.433
66506W        W25943  38.879   3.420   4.131
66507W        W25944   1.768  35.507  14.338
66508W        W25945   1.735  17.608   2.679
66509W        W25946  11.153   2.229  11.008
66510W        W25947  20.742  13.128   0.797
66511W        W25948  33.041  15.194  12.345
66512W        W25949  23.600   6.217   3.819
66513W        W25950  31.632   5.217  12.362
66514W        W25951   4.913  43.861   1.699
66515W        W25952  10.184  30.587  12.022
66516W        W25953  41.433  21.064  13.482
66517W        W25954  23.066  44.826   0.255
66518W        W25955  33.606  21.528  13.541
66519W        W25956  22.134  42.314  12.539
66520W        W25957  42.343   3.449   3.323
66521W        W25958  35.539  32.500   2.285
66522W        W25959   5.232  28.958  13.882
66523W        W25960  36.357  40.530  10.473
66524W        W25961  23.062  35.602   1.785
66525W        W25962   4.416  29.582   0.930
66526W        W25963  22.734  12.325   3.760
66527W        W25964  23.008  12.350  14.998
66528W        W25965  42.373  19.752   0.789
66529W        W25966  18.108   8.742   3.818
66530W        W25967   8.696  15.257  13.536
66531W        W25968  35.974  31.080   0.844
66532W        W25969  20.673   8.833   3.865
66533W        W25970  12.701  44.477  10.918
66534W        W25971   3.307   4.871  10.592
66535W        W25972   6.680  43.837   0.782
66536W        W25973   2.853   1.930   2.345
66537W        W25974  31.053  40.036   2.720
66538W        W25975  21.203  37.912   0.245
66539W        W25976  39.407   4.845   1.339
66540W        W25977   2.262  39.328   4.281
66541W        W25978  19.221   3.824   4.349
66542W        W25979  28.996  26.106  12.488
66543W        W25980   6.781  11.227   1.440
66544W        W25981  16.573  35.512   3.692
66545W        W25982  26.579  31.531   4.623
66546W        W25983  31.495  17.712  12.875
66547W        W25984  16.137  25.496  12.896
66548W        W25985  14.701   8.721   1.301
66549W        W25986  30.959   2.962   2.856
66550W        W25987  39.542  29.574   2.705
66551W        W25988   9.260  14.650   4.299
66552W        W25989  32.137   7.212  13.894
66553W        W25990  17.283  14.695  13.815
66554W        W25991  33.527  31.117  13.984
66555W        W25992  14.769  25.978   0.456
66556W        W25993  26.105   3.338  14.390
66557W        W25994  40.806  19.713  12.427
66558W        W25995  19.614  11.307   1.803
66559W        W25996  12.722  27.454  11.102
66560W        W25997  44.347   6.369  11.425
66561W        W25998  35.101  42.911   4.623
66562W        W25999  16.658  32.891   4.231
66563W        W26000  13.754  30.035  14.932
66564W        W26001  43.809  24.522  11.480
66565W        W26002   8.276   1.952  11.871
66566W        W26003  17.126  37.010   2.884
66567W        W26004  39.481  37.380   9.944
66568W        W26005  12.840  15.582   0.800
66569W        W26006  11.699  22.574  10.098
66570W        W26007   1.423  28.075   3.178
66571W        W26008   6.183  29.146   3.167
66572W        W26009   7.756  27.176   3.185
66573W        W26010  16.568  18.611  11.404
66574W        W26011  12.269  42.340  10.443
66575W        W26012  42.023  44.462  10.020
66576W        W26013  22.737  27.089   3.862
66577W        W26014   7.717   1.904  10.500
66578W        W26015   9.750  30.128  12.929
66579W        W26016  31.955  26.691   2.263
66580W        W26017  19.204  21.229   4.629
66581W        W26018  19.618  35.595   3.352
66582W        W26019  39.928  13.210   0.953
66583W        W26020  44.331  30.070  14.909
66584W        W26021  29.658  19.262   0.280
66585W        W26022   0.894  30.967  10.557
66586W        W26023   1.354  42.955  10.515
66587W        W26024   1.356   5.314  14.315
66588W        W26025  25.611  12.805   4.167
66589W        W26026   2.404  33.952   4.696
66590W        W26027  27.499  38.526  11.934
66591W        W26028  42.809  25.146   4.318
66592W        W26029  40.336  22.206   3.730
66593W        W26030  25.544  34.873  14.866
66594W        W26031  35.974  42.449  13.805
66595W        W26032  34.429  14.701  12.877
66596W        W26033  30.928   9.738   1.775
66597W        W26034   3.865   1.779  10.453
66598W        W26035  21.042   4.791  14.390
66599W        W26036  34.924   8.373   2.240
66600W        W26037  18.768  16.604   1.701
66601W        W26038  14.267   4.315   2.741
66602W        W26039   2.380  43.480   2.304
66603W        W26040  23.163  33.443   4.726
66604W        W26041   3.365   7.828   1.212
66605W        W26042  28.091  41.525  12.878
66606W        W26043  18.196  17.077  14.317
66607W        W26044  27.648  35.869  13.946
66608W        W26045  10.731  43.498  13.510
66609W        W26046  16.161  20.219  12.089
66610W        W26047  22.242  21.170   1.752
66611W        W26048  44.472  37.453   4.247
66612W        W26049  35.955  43.018   0.287
66613W        W26050  16.763  34.403   4.622
66614W        W26051  43.877  15.731   3.752
66615W        W26052  41.477   6.404   2.291
66616W        W26053   8.325  33.033  13.833
66617W        W26054  15.760  41.794  11.038
66618W        W26055   9.791   4.367  11.528
66619W        W26056  41.395   8.282   2.215
66620W        W26057  42.451   1.896   2.205
66621W        W26058  11.627  23.576  12.985
66622W        W26059  29.451  24.198  13.313
66623W        W26060  29.524  26.554   1.888
66624W        W26061  27.146  14.833  13.338
66625W        W26062  35.390  37.429   2.245
66626W        W26063  35.442  12.759  12.985
66627W        W26064   9.848  11.357   0.907
66628W        W26065  41.954   5.906  13.922
66629W        W26066   8.684  37.005   4.170
66630W        W26067  28.552  42.943   2.301
66631W        W26068   3.757  28.979  14.349
66632W        W26069  13.322  10.782   2.210
66633W        W26070  18.170  29.085  12.893
66634W        W26071  29.136  25.481   1.245
66635W        W26072  31.630  17.597  10.998
66636W        W26073  26.164   7.327  10.540
66637W        W26074  39.538  11.667   4.747
66638W        W26075  38.822  13.299   2.376
66639W        W26076  36.905  41.434   3.177
66640W        W26077  12.843  27.185  13.358
66641W        W26078  22.153  20.633   3.725
66642W        W26079  20.660  40.420  13.839
66643W        W26080  20.643   4.396   0.438
66644W        W26081   5.382  14.731  10.942
66645W        W26082  27.978  36.043   1.800
66646W        W26083  15.261   4.888  10.417
66647W        W26084   9.199  34.586   0.464
66648W        W26085  17.067  24.013  11.553
66649W        W26086  17.152  12.207  10.500
66650W        W26087  37.968  20.682  11.935
66651W        W26088  23.704  32.100   1.446
66652W        W26089  22.558  41.316  14.930
66653W        W26090   1.461   8.661  14.834
66654W        W26091  30.157   9.879   4.690
66655W        W26092  31.946  32.568   0.762
66656W        W26093  14.096  35.462   3.737
66657W        W26094   8.299  39.333   0.326
66658W        W26095  14.137  21.185  13.937
66659W        W26096  18.173   2.726  11.947
66660W        W26097  44.487  19.771   2.278
66661W        W26098  22.690  43.509  13.876
66662W        W26099   7.823  42.924  12.347
66663W        W26100   4.945  14.729  13.034
66664W        W26101  27.981  27.607   4.133
66665W        W26102  20.760  25.558   1.359
66666W        W26103  18.788  44.270   1.919
66667W        W26104   5.285  35.400   2.792
66668W        W26105  20.528  12.778   4.306
66669W        W26106  25.685  14.828  11.056
66670W        W26107   3.897  29.578   0.907
66671W        W26108  11.808  42.931   4.727
66672W        W26109  36.559  18.746  14.469
66673W        W26110  11.141  41.459   0.323
66674W        W26111  20.135  18.175  13.898
66675W        W26112  15.156   3.849  10.938
66676W        W26113  29.483  30.571   5.158
66677W        W26114  17.703  43.903  13.871
66678W        W26115  29.432  39.879  11.970
66679W        W26116   8.673  27.485   2.673
66680W        W26117  34.582  21.739   2.240
66681W        W26118   5.759  32.064   1.438
66682W        W26119   1.483  37.893  13.387
66683W        W26120  25.992  23.575   9.441
66684W        W26121   7.175  35.100   3.733
66685W        W26122  22.730  30.616  13.354
66686W        W26123  33.535   2.927   3.659
66687W        W26124  16.246  21.615   2.719
66688W        W26125   4.882   5.885   1.248
66689W        W26126  35.395  35.004  13.887
66690W        W26127  10.273  43.478  10.482
66691W        W26128  28.067  22.505  11.091
66692W        W26129   3.244   3.893  10.554
66693W        W26130  24.026   9.780  14.904
66694W        W26131  25.050  33.059  13.873
66695W        W26132  15.307  11.222   3.672
66696W        W26133  25.122  15.143  11.910
66697W        W26134  20.583  31.631  11.929
66698W        W26135   6.792  35.000   3.340
66699W        W26136  29.060  35.000   4.346
66700W        W26137  15.791  15.100  12.900
66701W        W26138  11.659  23.195  13.816
66702W        W26139  38.461  19.232  14.404
66703W        W26140  20.736  27.636   3.211
66704W        W26141   0.835  44.488  10.424
66705W        W26142  33.424   3.863  12.503
66706W        W26143  14.616  40.926   5.286
66707W        W26144  25.639  16.212  14.504
66708W        W26145  12.234  40.460   4.152
66709W        W26146  44.477   7.383  13.865
66710W        W26147   8.781  28.643   2.664
66711W        W26148   8.824  42.858   4.616
66712W        W26149  24.594  29.976   4.182
66713W        W26150   0.327  34.502   3.864
66714W        W26151   6.727  12.810   4.682
66715W        W26152  27.682  21.623  13.042
66716W        W26153  26.095  16.812   2.888
66717W        W26154  16.214  29.538  11.383
66718W        W26155  34.866  12.695   2.383
66719W        W26156  43.363  42.381   1.436
66720W        W26157  10.305   5.881   1.388
66721W        W26158  19.673  33.450  14.421
66722W        W26159  21.168  19.051   0.886
66723W        W26160  18.122   1.403   3.798
66724W        W26161  11.225  26.471  11.515
66725W        W26162  39.480  13.110   0.287
66726W        W26163  11.321  31.431  11.578
66727W        W26164  15.813  27.965   2.191
66728W        W26165   6.346  22.515  11.049
66729W        W26166  10.176  28.068   2.406
66730W        W26167   9.371  25.157  13.964
66731W        W26168  42.452  15.763  11.918
66732W        W26169  41.925  23.055   3.849
66733W        W26170  24.710   5.689  11.514
66734W        W26171   5.806  21.580  10.607
66735W        W26172  18.603   5.234  14.887
66736W        W26173  20.049  25.121   5.124
66737W        W26174  28.142  11.251  12.359
66738W        W26175  10.756  36.918  13.311
66739W        W26176  20.099  13.197   4.133
66740W        W26177  26.145  42.299   1.813
66741W        W26178  22.059  25.999   1.218
66742W        W26179  14.767  18.210  13.354
66743W        W26180  13.711  32.014   4.195
66744W        W26181   1.284  38.327  14.385
66745W        W26182   7.256  25.677  12.386
66746W        W26183  40.994   1.910  12.840
66747W        W26184   1.857   5.930   1.356
66748W        W26185  17.597  41.788  14.793
66749W        W26186   4.381  38.919  10.579
66750W        W26187  14.178  25.143   4.758
66751W        W26188  30.558  41.426   0.764
66752W        W26189  36.572  42.298   2.323
66753W        W26190  12.636  42.796  13.467
66754W        W26191  28.057  22.033  13.938
66755W        W26192  12.718  20.767   2.235
66756W        W26193  22.596   1.373  12.880
66757W        W26194  24.692   4.414  13.937
66758W        W26195   9.308   5.702  14.478
66759W        W26196  18.647   7.900  11.935
66760W        W26197  17.597  34.059  13.432
66761W        W26198  44.410   0.486  12.942
66762W        W26199  21.537  11.258  14.362
66763W        W26200  42.853  10.207  12.085
66764W        W26201  27.063  29.435  12.886
66765W        W26202  41.817  33.539  14.007
66766W        W26203   8.901  21.530  14.999
66767W        W26204  35.860  41.465   1.806
66768W        W26205  32.025  18.627  13.456
66769W        W26206  11.774  26.991   0.951
66770W        W26207  28.029  35.034  10.089
66771W        W26208  27.515  17.664   2.212
66772W        W26209  29.931  27.613   0.430
66773W        W26210  44.916  14.130  12.554
66774W        W26211  17.114  32.980  12.477
66775W        W26212  18.084  37.890   4.302
66776W        W26213   2.906  36.047  12.998
66777W        W26214   0.792  33.488   5.206
66778W        W26215  16.736  16.811   0.257
66779W        W26216  27.997   9.670  12.474
66780W        W26217  35.943  14.229   4.307
66781W        W26218  13.614   8.734  12.365
66782W        W26219  29.517  42.021  12.436
66783W        W26220  17.094   2.338  11.121
66784W        W26221  26.059  41.417   5.194
66785W        W26222  43.937   4.286   1.235
66786W        W26223   4.925  18.227  12.008
66787W        W26224  23.531   9.173  12.390
66788W        W26225  19.285  37.498  14.003
66789W        W26226   1.371  15.123  11.539
66790W        W26227  42.934  31.552   0.292
66791W        W26228   2.230  12.240   5.801
66792W        W26229  29.149  41.834  14.776
66793W        W26230  42.975   5.932  12.497
66794W        W26231   0.847  21.691   4.136
66795W        W26232  37.043   4.775   4.824
66796W        W26233  28.592  17.272  12.564
66797W        W26234  41.364  17.627  13.929
66798W        W26235  26.045  10.382   3.772
66799W        W26236  20.085  33.463  11.503
66800W        W26237  43.999  38.990   0.305
66801W        W26238  34.447  13.769   4.771
66802W        W26239  29.124  40.336  11.596
66803W        W26240  12.182  17.156  13.404
66804W        W26241  32.999   9.687   3.773
66805W        W26242   7.679  13.261  11.025
66806W        W26243  40.514  26.628  10.915
66807W        W26244  21.590  27.046   3.229
66808W        W26245  27.670  34.865  12.071
66809W        W26246   4.332  31.980   0.892
66810W        W26247  20.072  41.906   1.899
66811W        W26248  23.638  25.045   2.785
66812W        W26249  35.109   0.257   0.901
66813W        W26250   9.870  31.061  12.057
66814W        W26251  11.271  37.358  10.921
66815W        W26252  29.557  10.746   1.810
66816W        W26253   6.698   8.166   1.394
66817W        W26254  42.033  37.363   0.335
66818W        W26255  32.403  22.077   3.224
66819W        W26256  37.533  36.452  14.464
66820W        W26257  29.076  13.122   0.763
66821W        W26258  32.434  13.298   3.146
66822W        W26259  41.490  27.080  10.900
66823W        W26260  26.008  13.824   0.729
66824W        W26261   2.845  38.037   3.782
66825W        W26262   3.876  23.018   4.597
66826W        W26263   7.338   6.385   3.309
66827W        W26264  38.466  37.384   1.745
66828W        W26265  32.065   4.283  14.386
66829W        W26266  22.621  28.556   0.456
66830W        W26267  34.093  39.004   3.810
66831W        W26268  13.190  15.692   1.403
66832W        W26269  43.922  27.164   1.738
66833W        W26270  15.326  25.489  12.998
66834W        W26271   8.376   7.803   0.480
66835W        W26272  19.615  22.622  13.389
66836W        W26273   6.205  37.543   2.207
66837W        W26274  20.533  30.161   4.162
66838W        W26275  20.710  39.916   0.851
66839W        W26276  32.062  27.480  13.836
66840W        W26277   0.985  26.090  12.907
66841W        W26278  17.620   3.892   2.318
66842W        W26279  34.952   5.289  13.548
66843W        W26280   3.910   8.228  12.874
66844W        W26281  14.218   5.719   0.777
66845W        W26282  30.067  27.964  13.038
66846W        W26283   1.365  30.028   4.725
66847W        W26284  42.323  14.626   3.217
66848W        W26285  38.450  16.157   2.782
66849W        W26286  26.119   8.231   1.905
66850W        W26287  22.709  33.123   2.779
66851W        W26288  36.063  35.501  11.062
66852W        W26289  44.988  36.401  12.083
66853W        W26290  21.667   7.675  12.457
66854W        W26291   0.748   0.760   0.315
66855W        W26292  42.808  24.160   3.838
66856W        W26293  29.967  19.168  10.895
66857W        W26294  17.729  19.127  11.911
66858W        W26295  26.602  21.538  10.962
66859W        W26296   0.297  11.283  11.880
66860W        W26297  38.365   9.297   2.350
66861W        W26298  21.139  15.586   0.933
66862W        W26299  36.505  28.661  10.449
66863W        W26300  34.504  10.809  13.819
66864W        W26301  24.028  23.227  13.041
66865W        W26302  39.437  32.412   0.736
66866W        W26303  21.678  19.615  11.476
66867W        W26304  37.361  22.210   3.359
66868W        W26305  19.758   8.205  11.967
66869W        W26306  10.339  35.103   4.780
66870W        W26307   4.291  29.463   2.787
66871W        W26308   2.389  23.111   0.863
66872W        W26309  30.495  14.302  12.493
66873W        W26310  34.380  16.766   0.394
66874W        W26311  22.650   4.852   0.857
66875W        W26312   1.327  14.129  12.361
66876W        W26313  13.679   4.929  12.899
66877W        W26314  32.560  16.582  12.358
66878W        W26315  36.360  10.296   5.191
66879W        W26316  15.299  29.145  12.557
66880W        W26317   3.949  29.469  14.449
66881W        W26318  36.555   1.862  14.483
66882W        W26319  22.525  24.133   2.810
66883W        W26320  12.656  12.352  14.915
66884W        W26321  12.624   0.915   1.885
66885W        W26322  28.478  35.380   1.431
66886W        W26323   6.832  19.125   1.390
66887W        W26324  34.934  26.036   1.837
66888W        W26325  23.057  31.543  11.996
66889W        W26326  23.618   5.421   3.779
66890W        W26327  44.291  25.519   1.880
66891W        W26328  10.665  32.525   4.649
66892W        W26329   8.813  37.430   3.859
66893W        W26330  19.565   5.408   4.155
66894W        W26331  17.146  38.829   5.321
66895W        W26332  33.909   8.692  12.380
66896W        W26333   9.886  44.418  12.539
66897W        W26334  11.670  15.726   2.717
66898W        W26335  27.079  17.705  11.953
66899W        W26336  14.667  39.478   0.906
66900W        W26337   9.731  25.532   2.410
66901W        W26338   2.277  22.597   0.331
66902W        W26339  34.916   8.846   2.391
66903W        W26340  29.984   5.430  11.089
66904W        W26341  27.545  27.502   1.226
66905W        W26342  39.858  19.078  11.519
66906W        W26343  19.678   4.945  10.586
66907W        W26344  19.599  30.498   9.980
66908W        W26345  12.856   2.899   1.349
66909W        W26346   9.331  40.798  14.903
66910W        W26347  21.632  39.420  11.556
66911W        W26348  20.568  32.502  12.383
66912W        W26349  15.822  36.416   3.178
66913W        W26350  27.491  29.663   4.247
66914W        W26351  43.774  24.578  14.503
66915W        W26352  43.947  11.633   4.201
66916W        W26353  22.149  11.634   3.755
66917W        W26354  11.233  31.051  11.049
66918W        W26355  21.049  25.650   2.270
66919W        W26356  37.577  43.817  13.017
66920W        W26357  36.923  11.621  12.066
66921W        W26358   7.372  35.911  10.924
66922W        W26359   8.394   9.377   4.767
66923W        W26360   5.817  26.504   4.349
66924W        W26361  13.349   9.733   3.228
66925W        W26362  18.768  29.933   4.806
66926W        W26363   5.800   4.747   3.741
66927W        W26364  38.958  43.002  11.411
66928W        W26365  21.241  44.445   0.348
66929W        W26366  43.439  28.669  13.953
66930W        W26367  16.693  30.082  11.900
66931W        W26368   8.212   5.826   1.796
66932W        W26369  21.608   0.769   4.115
66933W        W26370  34.594  13.709   2.707
66934W        W26371  21.574  15.294   4.295
66935W        W26372  15.263   9.881  12.066
66936W        W26373  35.495  38.421   2.851
66937W        W26374   2.874  29.969   3.826
66938W        W26375  11.210  17.065  13.495
66939W        W26376  31.003  20.528   4.663
66940W        W26377  28.632  22.036   1.828
66941W        W26378  21.052  28.042  12.043
66942W        W26379   2.341  25.138   2.778
66943W        W26380   7.234  20.576  12.964
66944W        W26381  25.509  26.023  11.583
66945W        W26382  25.975   6.679  11.582
66946W        W26383  40.812  36.091  10.953
66947W        W26384   4.866   2.285   4.837
66948W        W26385  19.554  10.384   2.181
66949W        W26386  28.933  27.476  13.488
66950W        W26387  30.447  32.068   3.788
66951W        W26388  36.038  44.463  11.397
66952W        W26389  13.295   3.762   2.779
66953W        W26390  14.723  20.581   0.866
66954W        W26391  13.808  30.098  10.630
66955W        W26392  40.863  12.315  11.948
66956W        W26393  21.709  21.624  11.899
66957W        W26394  11.795  30.966   4.673
66958W        W26395  11.268  23.714  14.288
66959W        W26396  31.992   0.870  10.940
66960W        W26397  35.360   0.321   1.341
66961W        W26398  11.812   9.152   3.152
66962W        W26399  16.287   6.334  14.283
66963W        W26400   0.784  15.762  13.307
66964W        W26401  29.138   2.844   2.236
66965W        W26402  39.420  42.827   3.304
66966W        W26403   8.192  31.109   3.756
66967W        W26404  22.555   2.287   0.929
66968W        W26405  16.774   9.706   3.801
66969W        W26406  32.516  17.230   0.379
66970W        W26407  38.383  21.545  12.397
66971W        W26408  13.781   1.844   0.334
66972W        W26409  30.569  42.317   4.264
66973W        W26410  39.351  38.528   0.774
66974W        W26411  25.471  11.164  12.877
66975W        W26412   4.382   5.301  10.632
66976W        W26413  41.909   4.346  13.469
66977W        W26414  38.858   0.265   0.945
66978W        W26415  33.092  27.104  12.872
66979W        W26416  44.413  42.445   2.873
66980W        W26417  28.045   4.444   4.223
66981W        W26418  14.328  39.440   0.390
66982W        W26419  25.036  43.298  12.438
66983W        W26420  25.174  20.028  14.870
66984W        W26421  35.400  26.021   2.245
66985W        W26422   7.774  16.261   1.291
66986W        W26423  30.989  39.419   9.958
66987W        W26424  26.203  22.040   0.350
66988W        W26425   9.724   9.313   0.806
66989W        W26426  12.650  19.212  13.441
66990W        W26427  25.051  24.221  13.389
66991W        W26428  13.146  19.238   4.182
66992W        W26429  19.713  39.896   9.921
66993W        W26430   6.914  35.602   0.476
66994W        W26431  38.360  35.940  11.974
66995W        W26432   0.361  10.242  11.511
66996W        W26433  29.664  36.416  12.550
66997W        W26434  32.910  27.543  13.348
66998W        W26435  23.505  28.083   1.246
66999W        W26436   8.762  20.696   2.255
67000W        W26437  18.289  42.997  12.382
67001W        W26438  17.115  38.865  13.820
67002W        W26439  19.166   3.447  13.428
67003W        W26440   3.374  25.630   0.243
67004W        W26441   4.357  11.718   2.369
67005W        W26442  25.685  13.278   0.316
67006W        W26443  12.362  39.869  13.940
67007W        W26444  19.073   0.400  12.944
67008W        W26445  22.577  30.585   1.302
67009W        W26446   8.201  26.994   5.614
67010W        W26447   8.230   6.187   1.747
67011W        W26448  14.285  28.139  10.559
67012W        W26449  44.428  28.638  12.348
67013W        W26450  36.585  29.563  12.890
67014W        W26451  41.391  15.749  14.353
67015W        W26452  19.093  16.199   1.880
67016W        W26453  19.174  30.030  12.823
67017W        W26454  16.663   7.675  13.509
67018W        W26455   8.358  39.458   3.303
67019W        W26456  23.652   1.413  11.568
67020W        W26457   7.783  30.101   4.296
67021W        W26458  43.854  27.574  12.506
67022W        W26459  29.446  16.104   3.860
67023W        W26460  29.623   2.315  10.532
67024W        W26461   2.341  38.070  14.817
67025W        W26462   8.783  19.699  12.019
67026W        W26463  22.008  22.542  13.003
67027W        W26464  38.834  10.704   3.719
67028W        W26465  36.955  37.028  12.516
67029W        W26466  44.331  21.654  11.099
67030W        W26467  12.743  30.553   0.898
67031W        W26468  41.953   8.762   0.751
67032W        W26469  26.552  38.958   3.364
67033W        W26470  21.042  35.102  14.998
67034W        W26471  32.923   9.354   1.318
67035W        W26472  38.458  24.691   2.775
67036W        W26473  34.390  19.061  12.558
67037W        W26474   5.277  13.727  10.991
67038W        W26475  35.422  18.788   0.858
67039W        W26476   3.952  12.712  12.018
67040W        W26477  12.312  27.022   2.337
67041W        W26478  29.636  21.041  12.887
67042W        W26479  42.388  43.329   0.754
67043W        W26480  25.649   5.304  13.414
67044W        W26481  26.025   3.831   1.423
67045W        W26482   6.323  12.749   3.373
67046W        W26483  33.478   3.276  10.591
67047W        W26484   6.187  31.409  10.419
67048W        W26485  35.889  15.656  10.417
67049W        W26486  35.095  35.444  12.059
67050W        W26487  19.764  13.109  14.317
67051W        W26488  36.851  16.251   2.410
67052W        W26489  32.931  43.402  14.774
67053W        W26490  20.576   0.874  13.821
67054W        W26491  20.071  34.578  14.369
67055W        W26492  42.991  35.363  14.803
67056W        W26493  20.755   8.224   4.118
67057W        W26494  30.127  39.348  12.456
67058W        W26495  24.510  29.609  10.425
67059W        W26496  44.922   5.704   4.745
67060W        W26497  19.121  44.870  12.083
67061W        W26498  16.266  35.455  13.528
67062W        W26499  20.218  20.576   2.348
67063W        W26500  19.749  18.683   5.305
67064W        W26501  22.590  33.082   4.684
67065W        W26502  10.837  41.428  13.812
67066W        W26503  30.012   0.341   0.263
67067W        W26504  32.055  21.137  12.414
67068W        W26505  38.854  28.149  14.768
67069W        W26506   3.231  12.689  12.511
67070W        W26507  12.701  40.416  13.822
67071W        W26508  12.262  16.193   4.216
67072W        W26509  42.032  17.198  12.489
67073W        W26510   9.363   5.332   4.294
67074W        W26511  41.311  41.324   2.715
67075W        W26512  13.630  22.517  11.953
67076W        W26513  35.422  32.918   2.341
67077W        W26514   2.464  40.431   1.427
67078W        W26515  40.530   0.452  12.842
67079W        W26516  10.258  29.168  14.475
67080W        W26517  34.108   8.199   2.856
67081W        W26518  23.733  44.365   4.275
67082W        W26519  15.634  23.595  10.513
67083W        W26520   7.788  15.655  11.009
67084W        W26521  17.801  17.760   2.676
67085W        W26522  43.934  22.702  10.582
67086W        W26523  20.124  20.679  13.474
67087W        W26524   6.282  23.003  14.992
67088W        W26525  32.480  17.227   9.983
67089W        W26526  27.027   6.422  11.940
67090W        W26527  25.514   2.776   1.352
67091W        W26528  18.056   5.801   2.206
67092W        W26529  31.465   0.932   0.932
67093W        W26530  10.237   4.210  12.362
67094W        W26531  13.111  24.591  11.019
67095W        W26532  10.157  37.350   5.168
67096W        W26533   1.762  17.137  14.007
67097W        W26534   4.787  18.611   3.770
67098W        W26535  37.380   6.209  14.298
67099W        W26536   7.778   9.352   3.808
67100W        W26537   1.860  40.391   1.255
67101W        W26538   1.952  37.927   4.788
67102W        W26539  25.159  19.726  14.975
67103W        W26540   2.856  43.980  13.357
67104W        W26541  16.202   7.766   4.333
67105W        W26542  36.977  32.525  14.426
67106W        W26543  37.951  13.113  12.467
67107W        W26544  11.675  17.223   4.206
67108W        W26545   1.240  14.286   3.184
67109W        W26546  11.648  15.673  11.532
67110W        W26547  31.108  24.518   0.956
67111W        W26548  24.506  31.544   2.355
67112W        W26549  43.416  24.681  10.480
67113W        W26550  42.342  27.082  14.847
67114W        W26551  41.911   0.415  10.459
67115W        W26552  17.664  26.072   4.623
67116W        W26553  26.055   8.376  12.962
67117W        W26554  26.143  25.047   1.295
67118W        W26555  40.400  18.069   1.230
67119W        W26556   0.977  29.920  10.920
67120W        W26557  15.627  35.913  10.002
67121W        W26558  34.120   1.912  12.430
67122W        W26559  17.111  20.228   2.232
67123W        W26560  28.966  26.076   1.381
67124W        W26561  30.121  44.782  12.889
67125W        W26562  22.509  23.042  13.812
67126W        W26563   0.823  13.687   1.731
67127W        W26564  42.781  18.098  13.353
67128W        W26565  17.749   4.219  14.380
67129W        W26566  41.808   1.841  11.578
67130W        W26567  14.626  39.038  10.612
67131W        W26568  12.657  42.858   1.843
67132W        W26569   3.461  18.241   2.741
67133W        W26570   1.342  10.243   1.852
67134W        W26571  17.304  16.163   2.330
67135W        W26572  32.936  16.711  12.050
67136W        W26573  26.977   0.894  10.561
67137W        W26574  31.111  17.255  12.358
67138W        W26575   1.308  30.105  12.457
67139W        W26576  19.273   1.767  11.936
67140W        W26577  24.664   4.769  14.275
67141W        W26578   3.728  27.597  11.442
67142W        W26579  18.681  44.890   2.864
67143W        W26580  28.666  37.391   3.288
67144W        W26581  41.888   6.330   4.792
67145W        W26582  10.382  10.283   0.747
67146W        W26583  11.137  44.364  13.451
67147W        W26584  44.762  33.107  11.067
67148W        W26585   1.354  42.281   2.734
67149W        W26586  11.161  42.837  14.777
67150W        W26587  16.295  18.110  14.960
67151W        W26588  25.051  20.088   0.269
67152W        W26589  29.559  10.838  11.879
67153W        W26590   5.392  38.473   0.340
67154W        W26591  29.937  28.565  11.889
67155W        W26592   0.845  20.623   3.227
67156W        W26593  33.954   3.746   3.689
67157W        W26594  15.204  30.615  11.517
67158W        W26595   4.806  22.185  14.430
67159W        W26596  30.161  14.782  12.485
67160W        W26597  41.472  31.153   5.109
67161W        W26598   0.489  24.683  13.518
67162W        W26599  10.359  16.747  10.101
67163W        W26600  15.767  19.563  10.488
67164W        W26601   0.275  43.795  11.451
67165W        W26602  28.931  30.933  10.408
67166W        W26603  14.210  14.737  11.588
67167W        W26604  39.829  15.691  14.960
67168W        W26605   7.409  32.899   1.763
67169W        W26606  25.021  20.058   3.363
67170W        W26607  12.149  12.721   0.900
67171W        W26608  23.048  15.173   4.231
67172W        W26609   4.243  37.992   2.834
67173W        W26610  24.160  40.546  12.936
67174W        W26611  31.134   0.957   3.286
67175W        W26612  28.678  19.202   1.385
67176W        W26613  36.381  27.472  12.947
67177W        W26614   8.191  10.735  13.837
67178W        W26615  28.015  39.906   3.233
67179W        W26616  35.959   5.297  10.506
67180W        W26617  41.981  15.777  14.783
67181W        W26618   2.842  34.036   3.250
67182W        W26619   7.689  38.833  11.082
67183W        W26620  30.591  16.230   1.277
67184W        W26621  13.295  27.181   4.692
67185W        W26622   8.858  41.915   0.855
67186W        W26623  20.127  27.533  11.476
67187W        W26624   3.329  34.923  11.468
67188W        W26625  17.626  40.434   3.302
67189W        W26626  22.087  22.012   2.270
67190W        W26627   9.385  42.407  14.000
67191W        W26628  31.501  22.522  13.345
67192W        W26629  31.504  43.883  10.609
67193W        W26630  26.157  11.667   4.802
67194W        W26631  38.948  29.545   4.203
67195W        W26632  18.629  25.090   4.246
67196W        W26633  32.134  35.092   3.714
67197W        W26634  27.677  23.069   5.580
67198W        W26635  21.075  20.091   3.174
67199W        W26636  20.573   9.373  11.378
67200W        W26637  37.075   6.309   3.190
67201W        W26638  12.620  32.056  12.929
67202W        W26639  17.700   6.911  12.064
67203W        W26640  40.303  11.705  10.452
67204W        W26641  19.135   8.275  11.102
67205W        W26642  10.752  28.467  10.981
67206W        W26643  41.882  18.713  13.458
67207W        W26644  30.441  19.638  10.140
67208W        W26645  20.122  36.577   4.272
67209W        W26646  35.003  21.667   1.441
67210W        W26647  22.030   0.789  14.361
67211W        W26648  23.129  32.059  14.841
67212W        W26649   3.272  17.165   3.297
67213W        W26650  25.655  44.457  10.588
67214W        W26651  22.620  29.514  11.924
67215W        W26652  41.003   1.465  13.015
67216W        W26653  34.464  13.612   4.191
67217W        W26654  35.958  44.337   0.295
67218W        W26655  28.935  17.738   1.446
67219W        W26656  41.478  43.420  10.511
67220W        W26657  23.728  37.973  13.024
67221W        W26658  36.076   4.819  11.029
67222W        W26659  44.360   4.726  10.473
67223W        W26660  44.885  40.494   4.636
67224W        W26661  33.499  22.541   1.355
67225W        W26662  25.642  22.626   3.703
67226W        W26663  42.521  29.057  13.355
67227W        W26664  25.631   9.661   4.170
67228W        W26665  23.224   0.928  11.563
67229W        W26666  25.553  29.667  13.437
67230W        W26667  32.438  25.512  10.973
67231W        W26668  13.313   2.797  13.942
67232W        W26669  37.415   6.800  13.913
67233W        W26670  15.585  25.047  11.890
67234W        W26671  38.361  42.306   2.762
67235W        W26672  19.731  25.183   4.243
67236W        W26673   0.293  30.450   5.111
67237W        W26674  28.123  38.507   0.826
67238W        W26675   5.271  17.625  11.604
67239W        W26676  31.623  17.113   1.256
67240W        W26677   6.733  35.903  11.956
67241W        W26678  34.049  18.712  10.973
67242W        W26679   6.718  33.998   2.673
67243W        W26680  25.970  30.060  12.457
67244W        W26681  31.092   3.802   4.661
67245W        W26682   8.860  29.151   4.837
67246W        W26683  35.089  10.182   3.777
67247W        W26684  21.550  10.371   4.642
67248W        W26685  32.916   8.360   2.711
67249W        W26686  19.589   9.685   3.347
67250W        W26687  30.517  38.021  14.353
67251W        W26688  37.360  40.521   4.672
67252W        W26689   6.853  23.610   0.348
67253W        W26690  20.646  33.058   1.403
67254W        W26691  19.540  35.993  11.053
67255W        W26692   7.712  20.200  14.974
67256W        W26693  28.455  41.374   3.171
67257W        W26694   2.760  13.606  14.760
67258W        W26695  32.481  41.501   1.742
67259W        W26696   3.300  42.993   4.742
67260W        W26697   2.312  35.462   1.418
67261W        W26698  23.998  30.053   1.294
67262W        W26699  12.732  32.558   2.403
67263W        W26700   3.255  30.003   2.701
67264W        W26701  41.791  37.553  13.525
67265W        W26702   8.406  37.848  10.912
67266W        W26703  34.400  10.288  13.919
67267W        W26704  40.327  42.874  12.855
67268W        W26705   2.912  41.454   4.652
67269W        W26706  10.193  26.155  12.470
67270W        W26707  30.529  22.509   1.383
67271W        W26708  17.233  40.941   3.690
67272W        W26709  38.472   5.886  11.868
67273W        W26710   8.319  42.783   0.791
67274W        W26711  13.688  34.526  11.480
67275W        W26712  23.548  13.120   4.734
67276W        W26713  32.135  43.773  11.868
67277W        W26714   6.277  16.087   2.273
67278W        W26715  39.813  27.633  14.975
67279W        W26716  17.239  24.204   1.228
67280W        W26717  15.639   9.229   3.672
67281W        W26718  18.248  12.826   3.320
67282W        W26719  16.797  23.509   4.147
67283W        W26720  22.068  27.007   2.181
67284W        W26721   3.388  31.007  11.988
67285W        W26722  36.044  20.062   0.868
67286W        W26723  29.946   8.749  10.406
67287W        W26724  36.557  25.584  12.964
67288W        W26725  42.942  41.430  12.407
67289W        W26726  40.369  44.493   1.720
67290W        W26727   8.806  11.214   3.843
67291W        W26728  15.172   6.782  13.905
67292W        W26729  34.568  28.537   1.706
67293W        W26730  27.162  12.318  12.003
67294W        W26731  10.643   8.898  14.997
67295W        W26732   8.172  27.995  12.881
67296W        W26733   2.849   8.306   3.813
67297W        W26734  44.976   2.255   0.315
67298W        W26735  33.516  22.692  10.944
67299W        W26736  33.013  34.971   1.428
67300W        W26737  19.149  29.482  14.278
67301W        W26738  11.201  40.891   3.711
67302W        W26739  11.695  18.124  14.942
67303W        W26740  31.519  38.555  14.971
67304W        W26741   1.303  20.761   0.951
67305W        W26742  12.142   9.243   4.316
67306W        W26743  19.211  11.154   3.709
67307W        W26744   6.304  37.841   1.839
67308W        W26745  32.552  33.108   1.433
67309W        W26746  10.320  21.664  11.108
67310W        W26747  10.236  35.376  11.538
67311W        W26748  25.039  12.800   2.283
67312W        W26749  19.634  36.520   4.226
67313W        W26750  35.872  13.725   2.206
67314W        W26751  13.132  25.688  14.511
67315W        W26752  26.536  30.011   2.237
67316W        W26753  36.563  17.228   2.374
67317W        W26754  13.209  24.713  11.926
67318W        W26755   3.792  42.381  10.515
67319W        W26756  38.991  16.740   3.274
67320W        W26757  36.419  21.752   1.331
67321W        W26758  15.240   3.748   4.213
67322W        W26759   7.761  19.607   0.366
67323W        W26760  18.642  24.132  14.326
67324W        W26761   8.850  41.454   2.706
67325W        W26762  37.053  25.618   4.704
67326W        W26763  33.033  37.510   2.764
67327W        W26764  38.484   8.720   3.844
67328W        W26765  30.427  14.290   3.277
67329W        W26766  28.565  33.023   3.323
67330W        W26767  15.237  44.769  11.942
67331W        W26768  21.548  42.020   2.382
67332W        W26769  13.772  21.700   2.416
67333W        W26770  10.286  27.024   1.418
67334W        W26771  32.516   7.245  13.406
67335W        W26772   9.734  33.981  13.444
67336W        W26773  19.766   8.310   4.291
67337W        W26774  23.002  24.542  10.078
67338W        W26775  12.230  43.002  14.510
67339W        W26776  19.136   7.831  12.399
67340W        W26777  24.094  44.960   4.333
67341W        W26778  28.144  34.514  14.890
67342W        W26779  20.087  11.343  10.587
67343W        W26780  14.296  15.171   2.785
67344W        W26781  27.025  29.427  14.935
67345W        W26782  29.518  42.823  10.000
67346W        W26783  25.641  20.172  10.410
67347W        W26784  32.500  40.357   2.890
67348W        W26785  33.385  13.346  14.837
67349W        W26786  31.484  38.041  14.021
67350W        W26787   1.917  17.105  12.920
67351W        W26788  11.741  43.880  11.556
67352W        W26789  34.036   2.916   0.351
67353W        W26790  24.633   9.359   9.550
67354W        W26791   0.904  11.137  11.608
67355W        W26792  43.427  29.946   1.307
67356W        W26793  43.826  27.508   1.814
67357W        W26794  31.092  36.982  13.935
67358W        W26795   4.415  42.970   3.634
67359W        W26796  43.956  29.043   4.240
67360W        W26797  41.384   4.362   4.315
67361W        W26798  13.258  21.660  12.902
67362W        W26799   1.825  26.096  10.065
67363W        W26800  31.628  29.047  14.888
67364W        W26801   8.220  25.548  10.139
67365W        W26802  41.006  37.888   3.833
67366W        W26803  43.011  23.153   0.346
67367W        W26804  10.224  40.418   1.761
67368W        W26805  40.054   4.704   2.196
67369W        W26806  20.219  36.020  12.525
67370W        W26807   4.294   0.858   3.810
67371W        W26808  33.132  26.102   5.219
67372W        W26809   3.436   2.776  12.830
67373W        W26810   9.759   4.293  12.488
67374W        W26811  21.121  21.137  11.053
67375W        W26812  32.996  36.042  11.054
67376W        W26813  37.475  26.570   1.412
67377W        W26814  43.942   9.811  11.424
67378W        W26815  11.224  26.143   1.221
67379W        W26816  38.471  37.965  13.903
67380W        W26817  43.819   8.671  13.344
67381W        W26818  10.868  26.639   4.691
67382W        W26819  10.300  40.955  12.342
67383W        W26820   0.912  17.722   3.694
67384W        W26821  42.330  19.587  13.384
67385W        W26822  14.788  14.134   2.332
67386W        W26823   1.439  13.251  12.959
67387W        W26824  37.079   6.738  14.887
67388W        W26825  27.965  42.341  11.557
67389W        W26826  10.819  28.488  11.517
67390W        W26827  27.686  39.401   2.714
67391W        W26828  34.882  16.186  13.967
67392W        W26829  15.806  11.200   1.857
67393W        W26830  14.635   9.722   4.800
67394W        W26831  17.740  11.369   2.789
67395W        W26832  16.590  38.494  13.897
67396W        W26833  38.367   5.808   1.839
67397W        W26834  30.092  23.729   0.729
67398W        W26835  30.477  32.103  11.430
67399W        W26836  13.746   6.364  13.453
67400W        W26837  13.630  25.964   4.216
67401W        W26838   7.302  40.909  13.014
67402W        W26839  19.153  16.808   1.908
67403W        W26840  27.184  16.636   3.169
67404W        W26841  29.436  15.158  11.979
67405W        W26842  43.302   3.914  12.856
67406W        W26843   3.890  10.154  13.053
67407W        W26844  23.220  30.518  12.998
67408W        W26845  14.618  38.985   2.683
67409W        W26846   6.904  30.975  11.875
67410W        W26847  29.515  35.012  11.943
67411W        W26848  44.370  21.574  14.457
67412W        W26849  41.359   6.814  13.511
67413W        W26850  10.640  13.629   3.291
67414W        W26851  41.951  40.913   3.319
67415W        W26852  13.641  16.262   1.845
67416W        W26853   9.392  18.289  10.438
67417W        W26854  35.078  23.036   4.792
67418W        W26855  22.178  18.215   0.344
67419W        W26856  19.608  12.225  13.943
67420W        W26857  32.611  17.581   2.380
67421W        W26858  44.354  31.003  12.439
67422W        W26859  36.916  15.232  11.861
67423W        W26860  44.272  43.966   2.889
67424W        W26861  37.525  13.746   4.284
67425W        W26862  40.843  12.787  14.913
67426W        W26863  41.353   2.823  14.764
67427W        W26864  21.592  18.278   3.160
67428W        W26865  12.684  38.015  11.903
67429W        W26866  10.292  18.259   3.756
67430W        W26867   0.924   2.327   1.220
67431W        W26868   0.393  40.500   3.743
67432W        W26869  26.517  44.816   2.345
67433W        W26870  23.513  35.549  10.908
67434W        W26871   1.929  13.219   2.391
67435W        W26872  39.023  41.383   0.903
67436W        W26873  14.289   0.365   2.301
67437W        W26874  40.853  12.761   2.686
67438W        W26875  10.268  39.844   0.910
67439W        W26876   0.339  43.334   2.300
67440W        W26877  10.237  21.115  10.060
67441W        W26878  37.368   0.973   4.275
67442W        W26879   6.204   8.720  10.074
67443W        W26880   0.380  44.804  13.996
67444W        W26881  35.486  35.497  12.850
67445W        W26882  10.687  15.694   2.731
67446W        W26883  20.127  30.930   0.297
67447W        W26884  44.416  10.198   0.391
67448W        W26885  29.973  36.375  12.509
67449W        W26886  30.423  37.852  10.937
67450W        W26887  15.231  19.663  11.949
67451W        W26888  41.957  20.110   1.777
67452W        W26889  41.529   5.857   3.665
67453W        W26890  35.570  24.121  12.939
67454W        W26891   5.799  15.182  10.576
67455W        W26892  17.755  42.521  10.954
67456W        W26893  38.995  32.466   2.855
67457W        W26894  32.019  43.446  10.943
67458W        W26895  44.782  28.447   0.735
67459W        W26896   4.782   1.347   1.716
67460W        W26897  22.637  41.939  10.952
67461W        W26898  15.166   5.274   2.182
67462W        W26899  21.128  16.762  14.377
67463W        W26900   3.775  23.218  14.968
67464W        W26901   3.943  28.985  12.908
67465W        W26902   0.416  14.204  14.895
67466W        W26903   1.780  16.250   3.351
67467W        W26904  17.203  41.333   4.764
67468W        W26905   7.696  18.560  10.621
67469W        W26906   3.289  43.854  10.895
67470W        W26907  11.157  37.399   3.178
67471W        W26908  11.734   5.397   1.709
67472W        W26909  29.061  13.240  10.644
67473W        W26910  11.334   9.305  14.492
67474W        W26911   4.759  11.700   4.805
67475W        W26912  34.005  24.169  14.362
67476W        W26913   0.260   3.316   4.285
67477W        W26914   1.419  14.327  10.569
67478W        W26915  16.575  36.549  10.584
67479W        W26916  19.132  44.464  12.395
67480W        W26917  37.523  41.873   4.196
67481W        W26918   6.386  16.132  12.573
67482W        W26919  38.858  32.967   4.819
67483W        W26920  24.978   1.778   4.277
67484W        W26921  18.113  43.345  13.315
67485W        W26922  32.606  37.372   1.288
67486W        W26923  44.260   7.358  11.859
67487W        W26924  43.906  13.619   0.943
67488W        W26925  42.353  29.026  10.458
67489W        W26926   6.863  17.158  12.830
67490W        W26927  23.067  33.086  10.474
67491W        W26928   1.462  40.317  14.014
67492W        W26929   3.733  15.766  11.080
67493W        W26930  35.419  38.350  11.599
67494W        W26931  31.575  24.183  12.861
67495W        W26932  20.603  38.072   2.314
67496W        W26933  12.117   0.253   4.780
67497W        W26934   5.925  34.022  13.509
67498W        W26935   5.428  41.009  14.937
67499W        W26936  29.093  28.631   0.758
67500W        W26937  15.672   6.264  10.096
67501W        W26938   6.730  34.927   0.475
67502W        W26939   8.891  43.008   2.770
67503W        W26940  28.515   2.833   0.283
67504W        W26941  34.522  28.045  12.866
67505W        W26942  15.183  18.201  11.405
67506W        W26943  31.992  20.241  14.380
67507W        W26944   0.253  18.085  13.961
67508W        W26945  24.129  25.158   5.322
67509W        W26946  40.816  13.793   4.622
67510W        W26947  33.483  18.646   0.441
67511W        W26948  11.680   6.343   0.272
67512W        W26949  42.514   2.906  11.383
67513W        W26950   9.152   9.342   1.898
67514W        W26951  34.532  11.746   4.712
67515W        W26952  32.029  30.449   4.750
67516W        W26953  13.605   3.877  14.930
67517W        W26954  15.751  12.708   2.688
67518W        W26955   6.274  22.072   0.949
67519W        W26956  28.521  11.308  10.492
67520W        W26957  23.706  42.490   2.796
67521W        W26958   7.689   5.257   0.247
67522W        W26959  27.564  42.482   4.602
67523W        W26960  42.324   2.394  13.866
67524W        W26961  33.981  28.956   1.830
67525W        W26962  40.957  20.037  11.869
67526W        W26963  39.851  28.987  14.957
67527W        W26964  27.459  26.202   4.136
67528W        W26965   3.769  16.104  12.345
67529W        W26966   3.744   2.305   1.287
67530W        W26967  38.841   7.310   4.323
67531W        W26968  44.412  12.644   4.127
67532W        W26969  10.691  33.424  14.844
67533W        W26970   7.808  33.481  10.473
67534W        W26971  30.423  35.442   4.167
67535W        W26972  34.549  34.961   2.876
67536W        W26973  41.904  40.387  14.803
67537W        W26974  42.788  42.922   4.629
67538W        W26975  24.503  23.099  13.434
67539W        W26976  25.058  15.296  13.410
67540W        W26977   2.372  21.697  13.808
67541W        W26978   4.299  22.115   2.338
67542W        W26979  23.664  44.441   2.371
67543W        W26980  21.099  34.584   2.730
67544W        W26981  10.362  29.628   4.645
67545W        W26982  18.722  27.128   0.801
67546W        W26983  10.676   1.327   0.281
67547W        W26984  20.609  34.612  12.945
67548W        W26985   1.841  27.484  13.538
67549W        W26986  42.842  14.661  14.867
67550W        W26987   3.220   6.796  14.968
67551W        W26988  15.087  36.975   0.900
67552W        W26989   1.776  12.740  13.938
67553W        W26990  39.344  24.129   3.725
67554W        W26991  43.834  30.079  13.867
67555W        W26992  40.431  18.128   3.748
67556W        W26993  30.651  14.626  14.368
67557W        W26994  19.604  43.005   2.782
67558W        W26995   2.312  34.100  14.786
67559W        W26996   3.722  18.562   1.753
67560W        W26997  14.219  13.779  11.479
67561W        W26998  12.825  39.014   2.792
67562W        W26999  13.674   7.831  13.339
67563W        W27000  40.356   4.873   9.927
67564W        W27001   5.373  23.117  13.802
67565W        W27002  30.082  17.753  12.008
67566W        W27003   0.331   7.670   4.725
67567W        W27004  31.917  19.590   0.451
67568W        W27005  17.653  17.107   0.425
67569W        W27006  42.871  25.692   0.447
67570W        W27007   5.771  23.222   1.835
67571W        W27008  38.040  11.232  14.913
67572W        W27009  21.679  15.701  13.909
67573W        W27010  13.836  43.912   4.607
67574W        W27011   2.775  26.679  12.569
67575W        W27012  43.950  36.917   2.884
67576W        W27013   5.413   8.866   0.782
67577W        W27014  24.100   6.741  14.413
67578W        W27015  40.311  38.328  12.000
67579W        W27016  22.649  17.263   2.882
67580W        W27017  36.978   5.796   1.281
67581W        W27018  25.584  20.618  13.356
67582W        W27019  14.287  17.269  10.918
67583W        W27020  11.223  22.022   1.883
67584W        W27021  11.277  12.225  13.922
67585W        W27022   5.756  21.693   3.181
67586W        W27023  23.536  41.491   1.212
67587W        W27024  16.231  21.059   2.259
67588W        W27025  28.618  33.113   2.898
67589W        W27026  11.199  27.525  11.408
67590W        W27027  36.584  35.074   2.849
67591W        W27028  22.057  21.564   0.404
67592W        W27029   3.764  28.438  13.915
67593W        W27030  15.646  12.817  13.876
67594W        W27031  28.606   6.367   3.709
67595W        W27032  38.487   3.847  13.046
67596W        W27033  16.692  15.751  13.995
67597W        W27034  18.752   7.316   9.976
67598W        W27035   2.814   8.212   1.295
67599W        W27036  41.456  40.028   4.624
67600W        W27037  35.059  17.264  14.821
67601W        W27038   4.228   5.811   0.880
67602W        W27039  32.961  42.888   5.128
67603W        W27040  43.001  32.124   4.607
67604W        W27041  27.962   9.358  13.996
67605W        W27042   5.226   3.452  13.409
67606W        W27043   1.299   8.803  12.570
67607W        W27044  16.211   8.389   1.370
67608W        W27045  30.584  31.017   2.682
67609W        W27046  29.997  26.690  14.926
67610W        W27047  37.060  39.986   3.300
67611W        W27048  10.256   3.888  11.594
67612W        W27049  37.508  19.047   3.747
67613W        W27050  37.370   0.474   2.857
67614W        W27051  16.601  16.272   4.312
67615W        W27052  43.372  31.436  12.911
67616W        W27053  31.934   3.885  11.081
67617W        W27054  20.182  19.774   4.144
67618W        W27055  22.238  42.889  12.002
67619W        W27056  34.059  24.662   3.673
67620W        W27057  33.511  11.863   2.770
67621W        W27058   7.899  30.548  13.453
67622W        W27059  40.852   3.246   1.710
67623W        W27060   1.239   4.863   4.822
67624W        W27061  32.455   7.357  14.442
67625W        W27062  31.948  36.045  13.363
67626W        W27063  30.953  24.608  13.535
67627W        W27064  34.470   8.204  11.125
67628W        W27065   3.758  13.765   1.762
67629W        W27066   9.693  44.473  14.874
67630W        W27067   3.855  25.133  13.392
67631W        W27068  13.254  39.996   5.312
67632W        W27069  38.347  24.995   3.771
67633W        W27070  19.272  17.268  12.018
67634W        W27071  28.185  43.979  10.445
67635W        W27072  26.194  40.528   5.185
67636W        W27073  27.656  34.046  13.415
67637W        W27074  28.558   0.277  13.954
67638W        W27075   6.736  27.193   3.375
67639W        W27076  10.359  25.008   2.839
67640W        W27077  33.415  26.506  13.507
67641W        W27078   8.722  33.914   4.157
67642W        W27079   4.848  44.500  11.902
67643W        W27080  17.209  44.375   0.793
67644W        W27081  25.113   1.833  14.861
67645W        W27082  41.411  35.525   3.255
67646W        W27083  26.956  33.519  11.532
67647W        W27084   6.886  28.681   4.731
67648W        W27085   3.222  17.648  12.477
67649W        W27086  13.604  20.031  12.012
67650W        W27087  40.521  18.115  13.055
67651W        W27088  19.256  32.968   0.917
67652W        W27089  43.007   6.347  14.486
67653W        W27090   8.306  28.600  11.466
67654W        W27091   4.838  38.988  14.347
67655W        W27092  33.003  22.046  11.494
67656W        W27093  32.471  15.255  11.985
67657W        W27094  10.678  34.480   3.367
67658W        W27095  26.970  23.714   1.807
67659W        W27096  41.949  33.582   1.393
67660W        W27097  36.441  17.225  12.404
67661W        W27098  21.066  41.362   4.327
67662W        W27099   9.736  16.080   4.322
67663W        W27100   7.728  25.116  11.071
67664W        W27101  39.887  23.242  12.878
67665W        W27102  13.826  30.024   0.761
67666W        W27103  10.358   9.650  13.809
67667W        W27104  26.071  20.159  11.019
67668W        W27105  22.104   6.309   3.860
67669W        W27106  26.043   6.784   3.848
67670W        W27107  20.648   7.848   2.817
67671W        W27108   1.291  21.649   1.397
67672W        W27109  39.847  13.612   2.401
67673W        W27110  29.663   9.383   3.748
67674W        W27111  29.552  15.235  13.942
67675W        W27112  10.197  12.271   4.777
67676W        W27113  16.245  23.639  10.600
67677W        W27114   7.812  23.539   1.378
67678W        W27115  32.977  19.716  11.859
67679W        W27116  31.590   2.936   3.312
67680W        W27117   7.770  29.036  13.025
67681W        W27118  40.953  28.006  13.813
67682W        W27119  23.676  23.558  12.383
67683W        W27120  10.859  14.616   4.648
67684W        W27121  37.991   7.775   4.703
67685W        W27122  23.732  26.986   2.809
67686W        W27123   5.383  13.772   1.416
67687W        W27124  33.431  25.579  12.484
67688W        W27125  36.544   1.829   5.280
67689W        W27126  16.613  43.412  12.898
67690W        W27127  36.002   6.279  13.500
67691W        W27128   3.763   6.246  14.371
67692W        W27129  33.526   5.764   3.720
67693W        W27130   4.222  24.199   0.333
67694W        W27131  25.051  20.209  14.331
67695W        W27132   9.789  29.044  12.021
67696W        W27133  30.652  21.666   0.877
67697W        W27134  27.041  38.001   2.255
67698W        W27135   7.865  44.421  10.555
67699W        W27136   1.454  33.916   4.644
67700W        W27137  28.067   2.854  11.040
67701W        W27138  24.175  29.548   5.175
67702W        W27139  40.395  17.236   1.697
67703W        W27140   0.762  34.434  13.919
67704W        W27141  40.929  28.516   2.402
67705W        W27142  30.981  16.249   1.719
67706W        W27143  23.544  30.424  12.460
67707W        W27144  24.691   5.864   4.803
67708W        W27145  43.820  22.601   1.319
67709W        W27146   1.385  44.318   1.251
67710W        W27147   1.800  41.385   2.332
67711W        W27148   3.788  27.580   4.210
67712W        W27149  25.549  17.132   3.317
67713W        W27150  44.829  43.371  12.082
67714W        W27151  19.540  33.070  11.049
67715W        W27152  21.741  14.654  12.386
67716W        W27153   7.741  31.095  13.413
67717W        W27154   4.325  32.612   3.859
67718W        W27155  37.831  27.448  12.966
67719W        W27156  36.419  44.824   0.942
67720W        W27157   5.863  44.264  10.922
67721W        W27158  15.668  15.137  14.920
67722W        W27159  18.287  21.572  12.465
67723W        W27160   7.900  33.982  11.444
67724W        W27161  33.409  34.448  10.060
67725W        W27162  14.252  21.639   3.821
67726W        W27163  22.551  18.295  10.907
67727W        W27164  19.128  14.796   5.763
67728W        W27165  17.269  14.791   1.881
67729W        W27166  39.396  16.145   1.737
67730W        W27167  18.574  10.166  12.435
67731W        W27168  22.746   8.220  13.015
67732W        W27169  28.067  26.513   1.249
67733W        W27170  19.064  28.024  10.561
67734W        W27171   3.861  44.332  10.542
67735W        W27172  22.530  26.470  13.518
67736W        W27173  17.067  20.694   4.764
67737W        W27174  38.535  13.795   3.792
67738W        W27175   0.405  20.270  13.821
67739W        W27176  30.953  33.000  10.478
67740W        W27177  17.790  23.672  11.429
67741W        W27178  41.814  27.002  12.506
67742W        W27179  11.657  22.706   3.698
67743W        W27180  25.086  22.058   2.722
67744W        W27181  38.510  36.433  12.045
67745W        W27182   2.744  22.554  14.996
67746W        W27183  19.236  18.276   4.762
67747W        W27184  15.675  17.282   0.308
67748W        W27185  38.523  14.142   2.357
67749W        W27186  42.334  37.080   5.747
67750W        W27187  34.928   5.407  10.473
67751W        W27188  39.921  17.143   1.794
67752W        W27189  40.310  23.533  11.376
67753W        W27190  41.299   6.801  12.070
67754W        W27191  25.095  42.802  14.358
67755W        W27192  19.069  36.536   4.145
67756W        W27193  10.852  43.390   3.199
67757W        W27194  40.355  17.170   3.200
67758W        W27195  27.598  14.604   0.469
67759W        W27196   9.227   1.963  10.614
67760W        W27197  21.638  20.073   2.190
67761W        W27198  17.681  29.116   4.118
67762W        W27199   4.341  31.523   3.759
67763W        W27200  15.180  34.593  12.077
67764W        W27201  22.050  36.847  12.982
67765W        W27202  12.694   7.737  13.376
67766W        W27203  38.464  33.025   1.277
67767W        W27204  23.192  23.505   5.607
67768W        W27205  31.065  17.617  13.972
67769W        W27206  38.406  36.543  12.411
67770W        W27207  10.672  17.148   0.329
67771W        W27208  31.492  41.914  14.000
67772W        W27209  17.747  16.206  12.555
67773W        W27210  35.938  43.277  12.500
67774W        W27211  35.964   7.674   1.869
67775W        W27212  38.938   8.234  12.363
67776W        W27213   7.808   0.948  12.855
67777W        W27214  43.807  31.455  14.984
67778W        W27215   1.867  36.401  14.480
67779W        W27216  27.503  36.527  12.864
67780W        W27217  29.165  43.488   4.297
67781W        W27218  21.548   3.749  13.507
67782W        W27219   4.220   9.391   3.230
67783W        W27220   3.387  16.099  14.014
67784W        W27221  33.499  37.930  14.915
67785W        W27222  13.843   2.808  10.565
67786W        W27223  11.771  41.979   1.269
67787W        W27224  14.126  28.517   1.284
67788W        W27225  19.743  21.664   1.426
67789W        W27226   4.376  26.698   3.219
67790W        W27227  29.639  26.609  11.004
67791W        W27228   2.910  35.519   5.717
67792W        W27229   3.847  35.889  13.368
67793W        W27230  25.644  30.161   3.674
67794W        W27231  26.539  29.441   2.342
67795W        W27232  17.738   0.474  14.389
67796W        W27233  20.128  18.595  10.153
67797W        W27234  42.305  28.987   4.161
67798W        W27235  32.493   2.901  13.333
67799W        W27236  43.876   8.680  11.568
67800W        W27237  11.722  35.075   2.180
67801W        W27238   6.816  15.797   1.909
67802W        W27239  18.740  37.503   4.737
67803W        W27240  10.639  10.195   2.323
67804W        W27241  33.940  25.693  12.985
67805W        W27242  22.707   8.306  11.036
67806W        W27243  17.221  32.014  13.504
67807W        W27244  18.209  33.929  14.914
67808W        W27245  12.191  27.664   0.383
67809W        W27246   6.240   6.357   0.834
67810W        W27247  41.021  28.001  14.963
67811W        W27248  12.686  22.196  11.933
67812W        W27249  28.079  16.267   0.967
67813W        W27250  35.094  19.597  10.464
67814W        W27251  43.516   7.369  12.509
67815W        W27252  14.596  43.856   5.306
67816W        W27253  40.520  43.816   4.122
67817W        W27254  35.521  22.251  13.332
67818W        W27255  10.357   0.487  12.406
67819W        W27256  31.605  13.140  14.500
67820W        W27257   2.769  19.767   3.841
67821W        W27258   1.757  35.873   4.708
67822W        W27259  31.972  15.802  14.863
67823W        W27260  37.488  14.706   1.282
67824W        W27261  37.071  42.902   2.229
67825W        W27262   2.966  21.724  14.473
67826W        W27263  44.925  38.448   4.217
67827W        W27264  26.150  34.009  10.539
67828W        W27265  28.978   9.377  13.543
67829W        W27266   2.430  13.615   2.795
67830W        W27267   1.434  24.718  14.448
67831W        W27268   9.369  11.643  10.459
67832W        W27269  20.636   9.235  12.939
67833W        W27270  16.773  41.008   2.823
67834W        W27271  32.465  18.091  10.581
67835W        W27272   9.284   5.891  10.500
67836W        W27273   1.303  22.586  12.906
67837W        W27274  31.911  15.628  13.870
67838W        W27275   7.741  20.546  14.825
67839W        W27276   3.296   5.845   3.320
67840W        W27277  15.263   0.804  12.071
67841W        W27278  28.458  14.617  11.871
67842W        W27279  39.890   2.248   0.864
67843W        W27280  10.370   7.707   3.169
67844W        W27281  16.682  26.207   2.774
67845W        W27282   4.246  12.331   2.848
67846W        W27283  18.233   0.960   1.811
67847W        W27284  14.595  25.570   3.839
67848W        W27285   5.393  27.513   1.914
67849W        W27286  21.189  10.206  12.480
67850W        W27287  11.249  17.124   1.281
67851W        W27288  21.128  36.496   4.671
67852W        W27289  31.941  17.285  14.794
67853W        W27290  21.640  36.351  13.862
67854W        W27291   5.891  42.024   2.769
67855W        W27292  35.507  35.056   0.448
67856W        W27293  35.531  10.374  11.471
67857W        W27294   0.304  38.522  14.003
67858W        W27295  14.214  22.545  11.502
67859W        W27296  37.854  25.173  13.484
67860W        W27297   7.375  21.592   1.318
67861W        W27298  42.376  17.258   1.722
67862W        W27299   4.401  31.419   4.205
67863W        W27300  14.721   9.751   3.180
67864W        W27301  40.829  32.059  12.978
67865W        W27302  44.489   0.259   3.193
67866W        W27303  13.107  41.904   3.295
67867W        W27304   0.320   1.403  14.884
67868W        W27305  39.388  38.366   0.446
67869W        W27306  32.926  24.656  12.914
67870W        W27307   0.428  39.962  13.340
67871W        W27308   5.729   7.682   0.403
67872W        W27309  14.777  32.489   0.430
67873W        W27310  33.087   1.845   4.729
67874W        W27311   8.861  35.403   1.427
67875W        W27312  37.955  32.395   1.403
67876W        W27313   0.804  23.220   2.828
67877W        W27314  30.029  43.770   2.665
67878W        W27315  21.234  31.131   2.677
67879W        W27316  15.195   6.900   2.773
67880W        W27317  19.068  11.152  12.544
67881W        W27318   5.688  35.078  13.484
67882W        W27319  32.060  20.225  11.892
67883W        W27320  40.452  30.653   1.375
67884W        W27321  10.370   3.930   1.317
67885W        W27322   2.290  20.701  14.841
67886W        W27323  26.573  35.565   2.793
67887W        W27324  31.026  27.600  13.347
67888W        W27325  41.032  38.071  14.814
67889W        W27326  22.553  12.183  13.886
67890W        W27327  30.034  11.864  13.026
67891W        W27328  16.615  33.106   4.601
67892W        W27329  42.996  24.113  13.895
67893W        W27330  37.006  41.998  12.947
67894W        W27331  41.467   3.294   3.197
67895W        W27332  22.131   2.448   2.188
67896W        W27333  30.007   6.880  14.984
67897W        W27334  18.647  40.828   0.882
67898W        W27335  40.398   6.188   4.622
67899W        W27336  32.988  27.981   2.274
67900W        W27337   7.221  19.609   4.795
67901W        W27338  37.445  24.991  14.293
67902W        W27339  21.635  18.638  11.607
67903W        W27340  35.433  20.088   0.424
67904W        W27341  16.795  43.817  12.849
67905W        W27342   7.835  38.936  13.973
67906W        W27343  30.000   9.367   3.775
67907W        W27344  40.428  34.038   3.318
67908W        W27345  42.995  19.540   1.702
67909W        W27346   2.798  30.570  11.404
67910W        W27347  37.551  16.710   0.736
67911W        W27348   3.948  42.999  10.472
67912W        W27349  10.671  33.416   3.668
67913W        W27350  14.265   0.910  13.502
67914W        W27351  27.512  25.078   0.809
67915W        W27352  13.294  41.334  13.881
67916W        W27353   1.846  19.775  14.865
67917W        W27354   6.259  30.102   1.920
67918W        W27355   8.791  27.476   3.654
67919W        W27356  14.209   6.761   1.871
67920W        W27357  19.272  34.091   4.211
67921W        W27358   6.875   5.810  14.850
67922W        W27359  19.227  41.900   2.204
67923W        W27360  27.067  38.046   3.714
67924W        W27361   6.726  15.211  11.871
67925W        W27362  14.164  41.292   1.863
67926W        W27363  10.800   2.832  14.429
67927W        W27364   7.878  41.985  11.582
67928W        W27365  21.177   2.789   0.803
67929W        W27366  14.194   1.463   4.301
67930W        W27367   8.659   4.443  11.969
67931W        W27368  27.510  31.532  13.857
67932W        W27369  29.123  20.597  12.855
67933W        W27370  19.111   3.396  12.053
67934W        W27371  31.085  40.956   3.672
67935W        W27372  39.488  24.631   0.403
67936W        W27373  12.135   1.875  14.928
67937W        W27374  27.948   3.259   3.348
67938W        W27375  10.859  43.928   2.372
67939W        W27376   0.458  24.211   4.321
67940W        W27377  35.863  14.301  13.449
67941W        W27378  37.904   7.253  14.972
67942W        W27379  26.982  43.918   2.335
67943W        W27380  19.234  32.546  11.890
67944W        W27381  37.054  27.573   4.756
67945W        W27382  28.616   3.258  13.035
67946W        W27383  25.147  19.665   0.385
67947W        W27384  26.088  20.666  12.876
67948W        W27385  26.585  22.588  10.018
67949W        W27386  44.770  32.013   0.309
67950W        W27387  40.354  12.716   1.214
67951W        W27388  19.717  31.096  14.285
67952W        W27389   8.669  36.044  12.011
67953W        W27390  36.561  29.657  14.311
67954W        W27391  20.124  18.221   0.321
67955W        W27392  43.476  16.318   3.223
67956W        W27393  10.260   4.903   3.700
67957W        W27394  33.932  26.594  13.025
67958W        W27395  14.299  29.529   2.312
67959W        W27396  33.408  19.170   0.323
67960W        W27397  40.479   3.229  10.600
67961W        W27398  18.782  14.264   4.771
67962W        W27399  30.981  39.009  10.464
67963W        W27400  13.789  39.027   2.837
67964W        W27401  32.086  36.057   1.836
67965W        W27402  41.490   6.340  11.858
67966W        W27403  19.675  22.501  11.475
67967W        W27404  36.948  14.671  13.933
67968W        W27405  19.055  33.474  13.395
67969W        W27406  18.272  21.683  11.416
67970W        W27407  17.750  36.515   0.414
67971W        W27408  20.255  20.072   0.322
67972W        W27409  20.760  16.242   1.234
67973W        W27410  12.727  42.392   2.784
67974W        W27411  14.281   7.678   2.742
67975W        W27412   9.731  20.644  14.465
67976W        W27413  32.465  22.528  11.952
67977W        W27414  44.262   6.863  12.554
67978W        W27415  31.576  37.971   3.379
67979W        W27416  20.684  21.093  11.534
67980W        W27417  43.417  14.740  12.903
67981W        W27418  24.701  28.547  10.614
67982W        W27419   6.890  17.083  12.461
67983W        W27420   4.371  39.836  14.332
67984W        W27421  33.387   7.229  14.437
67985W        W27422  35.449  23.650  10.604
67986W        W27423   7.899  33.528   2.730
67987W        W27424  38.366   5.848   4.207
67988W        W27425   8.704  22.188   0.843
67989W        W27426   4.254  27.456   3.154
67990W        W27427  35.398  19.774  10.442
67991W        W27428  26.639  16.684   4.331
67992W        W27429  34.955  17.080  14.302
67993W        W27430  19.249  44.932   2.854
67994W        W27431  14.814   3.906   3.317
67995W        W27432  36.532   2.943  12.836
67996W        W27433  23.543  10.216   3.347
67997W        W27434   4.450  11.772   4.688
67998W        W27435   6.763   5.842   0.465
67999W        W27436   9.786  35.438  12.486
68000W        W27437   3.801  12.739   0.855
68001W        W27438  10.319  11.863  10.546
68002W        W27439   6.391  13.289  10.563
68003W        W27440  27.975  15.698   0.446
68004W        W27441   4.795   0.974   2.716
68005W        W27442  24.229  13.139  14.901
68006W        W27443  34.425  11.788  13.515
68007W        W27444   7.907  40.334   2.361
68008W        W27445   2.785  27.586   5.608
68009W        W27446   0.355  30.054   4.353
68010W        W27447  34.479  30.640  12.501
68011W        W27448  34.026  21.576   1.836
68012W        W27449  13.634  44.941   3.695
68013W        W27450  39.336   3.217   1.916
68014W        W27451  26.699  28.107   0.385
68015W        W27452  24.181  14.780  12.054
68016W        W27453  12.161   1.320  11.056
68017W        W27454   4.746  10.726  11.027
68018W        W27455  36.087  41.877  12.971
68019W        W27456  40.409  38.337   3.240
68020W        W27457  13.342  11.357   0.815
68021W        W27458  35.899  42.284   2.344
68022W        W27459  14.285  40.455  13.544
68023W        W27460   6.768  40.415  11.948
68024W        W27461  23.235  28.485  14.420
68025W        W27462  26.967   3.713  14.481
68026W        W27463   8.800  14.297  14.427
68027W        W27464  36.862  21.565  13.495
68028W        W27465  40.931   8.373  10.561
68029W        W27466  27.030  38.336  12.974
68030W        W27467  44.418  42.847  12.012
68031W        W27468  36.477  41.491  10.903
68032W        W27469  30.621  22.526   2.775
68033W        W27470  18.559   0.830   2.185
68034W        W27471  19.765  42.920   3.754
68035W        W27472  25.090  17.137   2.879
68036W        W27473   9.309  40.953   2.303
68037W        W27474   3.419  34.591   4.714
68038W        W27475  19.573  16.734  12.371
68039W        W27476  24.027  22.250  13.804
68040W        W27477  26.683  36.592   2.836
68041W        W27478  37.401   6.377   1.742
68042W        W27479  22.064   8.872   2.353
68043W        W27480  39.042  15.587   0.359
68044W        W27481  28.103  10.635   1.298
68045W        W27482  38.952  40.834  14.780
68046W        W27483  11.705   9.682   2.255
68047W        W27484  24.093   0.855   1.281
68048W        W27485   3.450   7.172   0.290
68049W        W27486  36.347  20.269  11.866
68050W        W27487   2.930  31.135  13.467
68051W        W27488  18.775  15.621  10.959
68052W        W27489  35.488  22.710  14.279
68053W        W27490  34.896  41.412  12.488
68054W        W27491  32.141  27.578   1.411
68055W        W27492   3.385  25.616   0.920
68056W        W27493  19.217  26.519   2.738
68057W        W27494  18.576  23.137  11.858
68058W        W27495  34.449  12.698  13.920
68059W        W27496  27.190  36.485  12.082
68060W        W27497  25.617  32.494  14.016
68061W        W27498   2.419   1.822   1.344
68062W        W27499  32.551   5.351   3.375
68063W        W27500  15.738  19.729   3.231
68064W        W27501  29.008  21.532  14.892
68065W        W27502  33.943  42.965   1.773
68066W        W27503   8.900  16.166   0.348
68067W        W27504  24.721   9.766  13.459
68068W        W27505  22.045  28.450   0.256
68069W        W27506  35.590  41.323   3.347
68070W        W27507  34.512   4.211   3.794
68071W        W27508  44.263  20.111  10.523
68072W        W27509  17.126  25.962  10.473
68073W        W27510   4.945  35.966   2.685
68074W        W27511  23.663  18.667   1.740
68075W        W27512  18.689  26.631  13.890
68076W        W27513   6.193  40.458  12.576
68077W        W27514  19.186  29.134  13.423
68078W        W27515  14.808  18.257   2.716
68079W        W27516   1.918  39.476   1.335
68080W        W27517  37.553  34.033   3.153
68081W        W27518  12.248  34.869   1.832
68082W        W27519  10.236  37.951  12.486
68083W        W27520  24.627  40.875  13.974
68084W        W27521   5.862  32.992  14.313
68085W        W27522  17.797  44.294  14.348
68086W        W27523  42.780  34.476   1.252
68087W        W27524   6.297  21.201  14.813
68088W        W27525   8.396  12.758   0.783
68089W        W27526  12.198  33.535  14.328
68090W        W27527  44.895  18.578  13.941
68091W        W27528  11.863  21.642  11.501
68092W        W27529  17.638  18.183   2.848
68093W        W27530   0.962  42.981  11.923
68094W        W27531   0.475  36.873  14.366
68095W        W27532  19.152  12.302   3.861
68096W        W27533  39.848   6.875   1.916
68097W        W27534  31.421   4.265  13.064
68098W        W27535  39.007  36.501   2.903
68099W        W27536  31.916  28.110  14.409
68100W        W27537  29.424  35.071  14.867
68101W        W27538  16.585  33.057   1.712
68102W        W27539  20.151   3.364  11.505
68103W        W27540   2.339  10.798  10.141
68104W        W27541  14.189  41.480   3.239
68105W        W27542  31.981  31.538  12.970
68106W        W27543  36.391  10.142   2.347
68107W        W27544   1.922  16.187  11.108
68108W        W27545  19.229   6.280   0.379
68109W        W27546  29.462  35.855  13.547
68110W        W27547   4.357  42.400   1.447
68111W        W27548  43.802  43.006   1.764
68112W        W27549   1.881  25.535  10.524
68113W        W27550  30.149  27.954   1.758
68114W        W27551  29.002  40.446  12.571
68115W        W27552  37.413  25.165   4.173
68116W        W27553   7.181  12.728  13.934
68117W        W27554  42.872  29.604  13.004
68118W        W27555  27.073  19.646   1.415
68119W        W27556   2.404   5.904  13.373
68120W        W27557  22.096  37.938   1.906
68121W        W27558  25.680  22.214  12.557
68122W        W27559  25.119  25.990   0.274
68123W        W27560  16.072  37.446   4.211
68124W        W27561   3.422   6.917  13.420
68125W        W27562  30.047  22.639   0.323
68126W        W27563  39.879  43.419  11.112
68127W        W27564  12.174  22.727  11.959
68128W        W27565  16.594  28.584   1.874
68129W        W27566  44.872  39.313   1.348
68130W        W27567   1.739  21.666   2.205
68131W        W27568  21.201  36.550  10.426
68132W        W27569   4.835   4.895   4.273
68133W        W27570   9.685  16.616   4.785
68134W        W27571  29.168   2.312   4.339
68135W        W27572  13.343  41.014   3.222
68136W        W27573  17.673  35.433  12.364
68137W        W27574   0.872  27.478   3.773
68138W        W27575  18.732  16.152  13.917
68139W        W27576   8.723  14.112  14.792
68140W        W27577   1.926  27.955   2.250
68141W        W27578  18.292  11.851   3.301
68142W        W27579  16.206  26.075   2.845
68143W        W27580  12.723   6.746  13.793
68144W        W27581  40.413  27.170   3.261
68145W        W27582  28.503  12.257   0.840
68146W        W27583  37.840  41.824  11.922
68147W        W27584  44.411  27.105   3.268
68148W        W27585  28.496  15.682  12.369
68149W        W27586  19.281   6.710   3.222
68150W        W27587  32.521  36.390  13.387
68151W        W27588  23.514  23.615  13.962
68152W        W27589  33.422  37.339  13.901
68153W        W27590  18.606  42.971  11.516
68154W        W27591  19.564  44.309  13.863
68155W        W27592  18.548  19.087   4.283
68156W        W27593   2.284   8.899  10.891
68157W        W27594  27.160  40.913  12.536
68158W        W27595  33.440  18.225  13.022
68159W        W27596   2.281  33.104   1.863
68160W        W27597  24.579   3.218  11.589
68161W        W27598  27.942   7.375  11.864
68162W        W27599  11.645  28.574   4.663
68163W        W27600  12.811  13.669  11.610
68164W        W27601  37.561  10.763  10.600
68165W        W27602  20.225  24.542   2.850
68166W        W27603  43.906  41.449   1.412
68167W        W27604  25.046  26.608  14.413
68168W        W27605  36.083  33.564   1.905
68169W        W27606  27.096  24.577   1.307
68170W        W27607  42.864  30.580   3.791
68171W        W27608  43.483  43.887  13.546
68172W        W27609  36.516  24.116   0.906
68173W        W27610  32.493  15.601   2.764
68174W        W27611   2.851  34.454  14.459
68175W        W27612  17.177  37.363   9.971
68176W        W27613  44.358  34.411  10.111
68177W        W27614  18.738   6.379   4.680
68178W        W27615  40.813  23.606  10.477
68179W        W27616   0.474   8.833   5.168
68180W        W27617  32.525  41.449  14.896
68181W        W27618   3.272  28.999   3.261
68182W        W27619   5.784  17.693  13.868
68183W        W27620  17.677  13.781  11.501
68184W        W27621  21.571  18.100  14.414
68185W        W27622  11.772  44.859  14.318
68186W        W27623  44.897  39.923  12.983
68187W        W27624  22.540  34.885   5.167
68188W        W27625   0.774   9.759   4.810
68189W        W27626  39.363   0.416   1.752
68190W        W27627  35.539  29.079   4.282
68191W        W27628  11.293   4.243   4.172
68192W        W27629  10.181  32.137   3.284
68193W        W27630  32.917  19.557  12.499
68194W        W27631  21.245   8.389   0.320
68195W        W27632   0.894   3.770  12.835
68196W        W27633  21.596  25.096  13.940
68197W        W27634  32.482  16.292  12.095
68198W        W27635  12.166  43.319   1.803
68199W        W27636  39.934   4.799   3.776
68200W        W27637  38.486  35.085   0.859
68201W        W27638   2.256  28.625  11.033
68202W        W27639   2.238   4.797   3.772
68203W        W27640  18.644  31.561   0.446
68204W        W27641  35.054   8.836   0.336
68205W        W27642  10.228  26.650   0.944
68206W        W27643  38.879  15.596   2.710
68207W        W27644  34.377  19.534  13.954
68208W        W27645  20.586  34.998   1.395
68209W        W27646  15.819  32.117   5.279
68210W        W27647  22.076  13.738  10.506
68211W        W27648   9.750  12.780   2.304
68212W        W27649  26.616   5.891  14.457
68213W        W27650  37.434  13.225   3.338
68214W        W27651  22.517   7.766  13.872
68215W        W27652  18.112  10.750   1.910
68216W        W27653   1.356   2.286  11.471
68217W        W27654   7.864   9.704   1.908
68218W        W27655  39.034  22.094   4.638
68219W        W27656  24.644  14.694  13.813
68220W        W27657  19.558  22.119  13.472
68221W        W27658  16.296   1.769   2.710
68222W        W27659  10.779  13.175  14.845
68223W        W27660  11.191   3.908   0.260
68224W        W27661  38.450  42.919  12.910
68225W        W27662  38.889  26.058   4.138
68226W        W27663  26.071  38.524  13.883
68227W        W27664  24.687  35.947  10.412
68228W        W27665  28.519  42.023  11.532
68229W        W27666   5.297  25.963  13.436
68230W        W27667  16.101   2.320  13.338
68231W        W27668  23.118   6.709   0.829
68232W        W27669   9.366  42.891   1.882
68233W        W27670   0.466  24.501  12.010
68234W        W27671  44.443  40.928   9.537
68235W        W27672  15.793  41.884   3.328
68236W        W27673  10.759  39.901  13.058
68237W        W27674   3.908  15.153  13.985
68238W        W27675  28.945  20.766  11.890
68239W        W27676   8.317  29.512   2.787
68240W        W27677  26.102  28.134   2.379
68241W        W27678  12.785  43.370  13.062
68242W        W27679  35.508  33.010  10.553
68243W        W27680   9.351  24.577  13.993
68244W        W27681   2.374   6.809   0.305
68245W        W27682  21.620   2.350   2.836
68246W        W27683   8.315   1.738   1.372
68247W        W27684  37.067  41.514  12.034
68248W        W27685  40.033  32.017  10.558
68249W        W27686  38.447  11.296   2.872
68250W        W27687  33.406  43.988  14.810
68251W        W27688   2.312  34.982   1.435
68252W        W27689   9.182  17.218   0.360
68253W        W27690  38.570  38.364   2.734
68254W        W27691  44.314  27.493   1.403
68255W        W27692  29.165   5.317   4.203
68256W        W27693  44.295  22.522   3.806
68257W        W27694   1.924  18.231   4.743
68258W        W27695  29.936  15.797   4.769
68259W        W27696  18.150  30.417  10.517
68260W        W27697  26.164   3.361   2.328
68261W        W27698  35.493  14.334  14.994
68262W        W27699   4.756  38.429   1.830
68263W        W27700   1.290  32.613   3.853
68264W        W27701  13.725  26.060  10.633
68265W        W27702  12.347   2.883   2.770
68266W        W27703  42.902  16.314  14.883
68267W        W27704  38.390  44.461  11.932
68268W        W27705  12.320  40.327   1.234
68269W        W27706  22.614  42.390   2.403
68270W        W27707  11.300  33.976  12.340
68271W        W27708   4.854  26.083   0.362
68272W        W27709  42.437  15.194   2.776
68273W        W27710  14.146  40.015  10.407
68274W        W27711  29.114  18.554  10.959
68275W        W27712  43.973  32.046   2.412
68276W        W27713  25.590  16.716  12.531
68277W        W27714  21.713   8.392   4.267
68278W        W27715  22.089  44.909  12.851
68279W        W27716  18.754   0.902  13.398
68280W        W27717  34.463   3.914   0.317
68281W        W27718   1.350   4.721   1.882
68282W        W27719   0.769  11.265  13.428
68283W        W27720  32.041   8.833  10.140
68284W        W27721  34.913  36.474  10.428
68285W        W27722  28.528  44.423   2.756
68286W        W27723  29.499  38.945   2.351
68287W        W27724  43.800  40.340   4.132
68288W        W27725  12.853  10.319  12.977
68289W        W27726  32.002  35.977  11.881
68290W        W27727  11.805  21.229  12.855
68291W        W27728   5.392   4.825   0.866
68292W        W27729  10.861  38.529   2.362
68293W        W27730  37.960  27.134  13.980
68294W        W27731   9.760  17.279  11.034
68295W        W27732  10.785  20.546   4.759
68296W        W27733  20.224   4.860  11.489
68297W        W27734  36.534  42.914   4.642
68298W        W27735  11.177  32.912   3.239
68299W        W27736  25.058   4.880  10.563
68300W        W27737   5.850  31.586  11.546
68301W        W27738   1.385  28.185   0.372
68302W        W27739   2.772   5.745  11.125
68303W        W27740   1.834   5.802   2.794
68304W        W27741  39.862  11.344   1.371
68305W        W27742  34.457   6.756  11.513
68306W        W27743  23.592  37.935  13.441
68307W        W27744  41.525   7.908   4.692
68308W        W27745  34.452  32.113  13.977
68309W        W27746  32.415   2.828   4.197
68310W        W27747  36.445  44.357  10.531
68311W        W27748  16.304  32.044  12.958
68312W        W27749  24.131  14.141   1.747
68313W        W27750  30.516  23.101  13.896
68314W        W27751  35.101  23.016   3.871
68315W        W27752  26.470  30.962   2.873
68316W        W27753   2.932   2.888  13.340
68317W        W27754  11.356  11.858  10.965
68318W        W27755  24.647  29.112   2.212
68319W        W27756   7.190  20.105   0.794
68320W        W27757  23.676   9.347   1.278
68321W        W27758  37.486  15.312  13.874
68322W        W27759   0.322   1.434  13.318
68323W        W27760  13.270  22.564   1.770
68324W        W27761  19.217  18.598   2.736
68325W        W27762   6.734   7.353  11.914
68326W        W27763  33.997  22.525   3.856
68327W        W27764  15.189  43.826  13.003
68328W        W27765  23.673  40.505   0.751
68329W        W27766   5.260  21.133   2.382
68330W        W27767  25.676  39.906   3.249
68331W        W27768  35.396  15.252  14.768
68332W        W27769  29.988  44.267  13.878
68333W        W27770   3.770  28.504   2.885
68334W        W27771  23.074  17.618  11.548
68335W        W27772  41.378  10.776   1.731
68336W        W27773   2.869  38.418  13.440
68337W        W27774  44.480  38.548   3.712
68338W        W27775  34.062  31.648  14.459
68339W        W27776   5.766  14.786   1.372
68340W        W27777  17.239  32.518   0.890
68341W        W27778  42.020  31.983  13.962
68342W        W27779  42.907  44.789   2.406
68343W        W27780  37.931  24.069  10.558
68344W        W27781   9.222  29.429   2.203
68345W        W27782   0.809  23.571   0.407
68346W        W27783  13.278  16.575  10.623
68347W        W27784   3.298  27.063  11.551
68348W        W27785   6.255  44.471  13.062
68349W        W27786  29.650  38.912  14.994
68350W        W27787   7.340   8.232  14.406
68351W        W27788  19.765  20.123  11.968
68352W        W27789  44.893  31.445  10.412
68353W        W27790  41.396  20.629   4.181
68354W        W27791   6.818  35.465   0.932
68355W        W27792  20.655  24.039   1.914
68356W        W27793  44.325  34.419   2.691
68357W        W27794  22.050  39.363   2.732
68358W        W27795  23.144   7.708  14.834
68359W        W27796  12.655   2.778   4.158
68360W        W27797  18.557  26.595  13.010
68361W        W27798  20.140  20.125   3.314
68362W        W27799  38.492  25.182   2.416
68363W        W27800  27.111  17.571   0.416
68364W        W27801  36.922  20.072  14.836
68365W        W27802  23.670  23.715   4.672
68366W        W27803  32.129  35.893   0.291
68367W        W27804  17.632  15.786   5.296
68368W        W27805   9.747  43.953   1.388
68369W        W27806  19.729  15.753  12.498
68370W        W27807  21.256  39.015   4.836
68371W        W27808  40.539  34.968  13.831
68372W        W27809  11.766  37.514  14.876
68373W        W27810  25.994  20.535   1.386
68374W        W27811  43.013  27.451   0.740
68375W        W27812  16.658  30.908  13.031
68376W        W27813   2.948  28.023  14.374
68377W        W27814  40.396  35.463  12.085
68378W        W27815  11.179  27.189   4.801
68379W        W27816  18.153  33.033   0.946
68380W        W27817  36.520  10.270   3.653
68381W        W27818  25.107  25.997  11.007
68382W        W27819  32.470  18.613  14.431
68383W        W27820  28.107   6.759   1.429
68384W        W27821  42.407  11.179  14.333
68385W        W27822  29.510   5.251  13.947
68386W        W27823   1.924  34.376   4.282
68387W        W27824  39.815  12.805   2.419
68388W        W27825  32.987  41.328   3.653
68389W        W27826  41.469  35.109   2.214
68390W        W27827  12.648   0.845  11.401
68391W        W27828  35.555  37.870   3.349
68392W        W27829   9.821  44.787   0.478
68393W        W27830  33.989  25.014   1.855
68394W        W27831  42.001   2.860   3.645
68395W        W27832  31.566  28.511   0.858
68396W        W27833  43.327  42.494  12.082
68397W        W27834  32.121  35.950  10.044
68398W        W27835  40.911   7.172  13.328
68399W        W27836  45.000   5.920  12.885
68400W        W27837  15.303  15.605  14.940
68401W        W27838  37.046   6.770  10.607
68402W        W27839  23.510  26.033  12.955
68403W        W27840  15.323   8.349  10.441
68404W        W27841  31.122  16.146  14.920
68405W        W27842  34.467   3.435   0.431
68406W        W27843   1.256  20.665  14.485
68407W        W27844  33.037   6.858   2.227
68408W        W27845  27.175   2.379   3.343
68409W        W27846  44.899  31.458  11.542
68410W        W27847  32.479  29.428  13.374
68411W        W27848  19.630  21.711   2.722
68412W        W27849  19.174  39.833  13.502
68413W        W27850  19.732  23.154   1.311
68414W        W27851   2.720  38.966  13.311
68415W        W27852   2.736  11.296   1.927
68416W        W27853   5.873   0.961   2.671
68417W        W27854   1.877  22.250   0.852
68418W        W27855   9.195   0.828   1.448
68419W        W27856   7.233  31.103  14.400
68420W        W27857   6.408  14.740   1.704
68421W        W27858  34.053  14.696  11.457
68422W        W27859  34.521   8.193   3.351
68423W        W27860   8.330  33.496   0.877
68424W        W27861  42.524   7.256   1.869
68425W        W27862  38.427  43.464  11.022
68426W        W27863  37.022   3.831  11.566
68427W        W27864  37.908  13.270   4.163
68428W        W27865  33.919  15.656  14.892
68429W        W27866  42.341   4.305   3.309
68430W        W27867  42.934  14.750   3.674
68431W        W27868  12.763  31.897   2.249
68432W        W27869  16.652   0.868  11.052
68433W        W27870  22.220  17.095  13.811
68434W        W27871  15.785  26.623  11.911
68435W        W27872  29.473  35.943   4.270
68436W        W27873  41.317  28.474  13.979
68437W        W27874  19.572  14.314   2.773
68438W        W27875   1.370  20.114   3.709
68439W        W27876  14.321  31.904   1.251
68440W        W27877   0.875  44.435   9.943
68441W        W27878  38.565  35.070  12.991
68442W        W27879  42.015  15.303   0.905
68443W        W27880  18.711  19.263   1.785
68444W        W27881  34.958  34.052   2.835
68445W        W27882  41.901  18.176   3.237
68446W        W27883  34.463  14.769   3.653
68447W        W27884  22.509   4.228  14.834
68448W        W27885  31.588  17.714   2.780
68449W        W27886  14.200  18.096  14.476
68450W        W27887  17.793   1.305  13.491
68451W        W27888  29.934   8.180  10.948
68452W        W27889  23.615  38.051   2.254
68453W        W27890   9.810  35.454   0.298
68454W        W27891   3.311  19.761  13.331
68455W        W27892  21.053  40.358  14.483
68456W        W27893   8.681  38.976  10.478
68457W        W27894   0.293  12.752  14.395
68458W        W27895   8.393  34.570  12.525
68459W        W27896  44.906   8.706   3.251
68460W        W27897  26.060  24.121   4.642
68461W        W27898  14.636  36.009   2.696
68462W        W27899  16.751  24.484   3.708
68463W        W27900  41.004  37.980  10.634
68464W        W27901   6.875  24.618  12.510
68465W        W27902  36.539  18.258  14.014
68466W        W27903  18.710  38.557  12.356
68467W        W27904  15.170   2.251   3.318
68468W        W27905  15.768  31.603   4.711
68469W        W27906  15.579   7.786   3.225
68470W        W27907  28.005  14.712  13.394
68471W        W27908  41.829  36.040   4.807
68472W        W27909  37.412  12.252   0.353
68473W        W27910  13.828  12.729   0.385
68474W        W27911  24.094  29.125   0.254
68475W        W27912  14.094  10.777  14.788
68476W        W27913   3.293   4.881   3.272
68477W        W27914  26.988  18.268   2.207
68478W        W27915   3.810  28.087  13.003
68479W        W27916  23.205  19.073  11.870
68480W        W27917   7.853  12.285  13.322
68481W        W27918  43.984  41.514  13.365
68482W        W27919  30.612  26.164  10.946
68483W        W27920  34.455   2.389   1.854
68484W        W27921  34.431  28.569  12.058
68485W        W27922  38.967   3.763  14.420
68486W        W27923  44.396  15.684  10.034
68487W        W27924  25.157  31.403  10.973
68488W        W27925  16.593  14.684   0.883
68489W        W27926  10.168  14.172  14.997
68490W        W27927  10.794  21.745  12.392
68491W        W27928  17.240  33.075   0.884
68492W        W27929  40.460  17.101   0.893
68493W        W27930  15.180  22.656   2.760
68494W        W27931  35.081  24.055   4.743
68495W        W27932  26.116  31.935  11.023
68496W        W27933  35.881  41.004  13.315
68497W        W27934  20.738   1.913  13.509
68498W        W27935  25.656  37.550   9.530
68499W        W27936   9.274  32.016  13.994
68500W        W27937   5.263  27.564   3.310
68501W        W27938  20.191  33.992  14.362
68502W        W27939   3.431  16.177   2.795
68503W        W27940  34.994  34.592   0.302
68504W        W27941  14.257  32.010  14.845
68505W        W27942  20.595  10.284   4.338
68506W        W27943  38.941  13.212  14.952
68507W        W27944  10.779   7.795   2.901
68508W        W27945   5.879  38.385  11.953
68509W        W27946  10.859  22.723   0.252
68510W        W27947  11.845  33.960   1.868
68511W        W27948  11.162  42.372  14.494
68512W        W27949  35.467  21.065  12.364
68513W        W27950  36.884   9.768   0.448
68514W        W27951  44.287   7.723  13.054
68515W        W27952  37.082  24.103   1.445
68516W        W27953  12.686   8.810  12.016
68517W        W27954  10.194  15.307   2.392
68518W        W27955  27.941  28.144  14.954
68519W        W27956  26.575  26.076   2.711
68520W        W27957  17.115  28.577  13.834
68521W        W27958   4.915  31.540   4.835
68522W        W27959  12.286  18.624  11.918
68523W        W27960  36.520   7.201   0.832
68524W        W27961   6.266  43.783   0.782
68525W        W27962  41.312  25.210  13.846
68526W        W27963  39.995  39.548  11.925
68527W        W27964  21.740  19.086   0.897
68528W        W27965  25.980   8.813   9.964
68529W        W27966  39.488  15.591   0.378
68530W        W27967  18.250  36.408  10.467
68531W        W27968  17.786  34.115  11.001
68532W        W27969  23.494  26.608  10.902
68533W        W27970  12.674   1.332  11.092
68534W        W27971  34.574  11.233   0.792
68535W        W27972  17.256   7.790   1.919
68536W        W27973  44.359  18.067   3.323
68537W        W27974   0.909  43.440   1.269
68538W        W27975  29.033  23.183  14.349
68539W        W27976  22.707  40.844  10.944
68540W        W27977  34.875  31.636   2.756
68541W        W27978  13.808  10.752  14.888
68542W        W27979  21.632  13.242   1.798
68543W        W27980  31.440  16.639   1.718
68544W        W27981   6.780   3.428   1.759
68545W        W27982   1.841   3.745  11.470
68546W        W27983  27.007  23.550   9.935
68547W        W27984   4.277  11.663  14.759
68548W        W27985  11.267  18.757   0.795
68549W        W27986  40.862  44.351   4.632
68550W        W27987  12.205  20.713  12.427
68551W        W27988  10.836  13.842   0.732
68552W        W27989   1.239  40.834   2.389
68553W        W27990   1.774  39.866   4.684
68554W        W27991  35.017   5.280  12.046
68555W        W27992   9.790  10.169  14.499
68556W        W27993  14.147   9.183   4.761
68557W        W27994  40.440  15.709  12.015
68558W        W27995   4.879   5.247  13.889
68559W        W27996  44.822  16.235   0.866
68560W        W27997  16.588  17.561  12.516
68561W        W27998  16.577  23.715  11.000
68562W        W27999  20.117  30.643   4.209
68563W        W28000  21.699   8.369   2.668
68564W        W28001  38.067  13.192  14.789
68565W        W28002  33.434  32.954   1.893
68566W        W28003  42.804  10.184  12.844
68567W        W28004  15.298  11.325   2.703
68568W        W28005   9.328  44.338  10.627
68569W        W28006  37.889  43.357   1.313
68570W        W28007  41.408  40.887   2.286
68571W        W28008  43.307  32.530  13.504
68572W        W28009   6.315   6.271  11.053
68573W        W28010   8.303  19.763   1.359
68574W        W28011  28.155  24.612  11.015
68575W        W28012  25.522  44.439  10.903
68576W        W28013  20.532   2.845  13.905
68577W        W28014  24.192  24.169  14.867
68578W        W28015   7.190  30.112   4.146
68579W        W28016  36.895  15.788  12.398
68580W        W28017  12.676  32.454   0.727
68581W        W28018  35.942  24.605  11.907
68582W        W28019  10.758  25.707  14.019
68583W        W28020  31.933  37.337  13.331
68584W        W28021  15.629   0.403   2.721
68585W        W28022  20.181  31.914  11.009
68586W        W28023  30.501   8.260   0.379
68587W        W28024  20.133   7.173  12.496
68588W        W28025  24.697  13.140  12.563
68589W        W28026  24.619  43.385   1.910
68590W        W28027   0.944   4.265   4.676
68591W        W28028   9.769  18.258   3.781
68592W        W28029  43.431  34.432   1.376
68593W        W28030  28.088  33.401   2.841
68594W        W28031  15.730  29.013   0.858
68595W        W28032   8.699  18.619  10.538
68596W        W28033  38.564  34.596   4.760
68597W        W28034  29.057  36.063  10.417
68598W        W28035  28.531  38.972   1.373
68599W        W28036  24.211   3.772   1.351
68600W        W28037  19.162  13.350   4.628
68601W        W28038  44.340  11.148   0.888
68602W        W28039  19.205  25.552  11.950
68603W        W28040   5.766  24.996   2.666
68604W        W28041  28.530  43.502   2.721
68605W        W28042  10.152  40.525   3.784
68606W        W28043  19.551  11.191   4.720
68607W        W28044  10.268  24.142   3.241
68608W        W28045   0.260  37.882  14.784
68609W        W28046   6.327  21.685   2.797
68610W        W28047  42.843  14.630   2.274
68611W        W28048   0.442   2.923   1.255
68612W        W28049  24.073  27.591   0.286
68613W        W28050  27.032  15.213   5.607
68614W        W28051  14.628   1.334   1.328
68615W        W28052  37.525  34.984  11.117
68616W        W28053  33.411   4.285   4.230
68617W        W28054  18.668  25.674   3.700
68618W        W28055   0.752  41.454  10.931
68619W        W28056  25.214  37.870   1.811
68620W        W28057  17.089  44.834  14.929
68621W        W28058   3.831   7.719   3.699
68622W        W28059   1.353  43.013   4.651
68623W        W28060   9.161  22.532   2.386
68624W        W28061  23.597   3.845  11.113
68625W        W28062  35.050  39.413  13.424
68626W        W28063  16.191  30.065  14.009
68627W        W28064  26.480  40.537  12.351
68628W        W28065  37.058   2.817   4.352
68629W        W28066  38.974   5.356  11.434
68630W        W28067  26.533  26.970   3.189
68631W        W28068  34.892   7.246   1.448
68632W        W28069  27.494   0.783   1.341
68633W        W28070   1.744   3.742  14.328
68634W        W28071   8.710  33.953  11.941
68635W        W28072  41.968  22.017  12.049
68636W        W28073  24.975  13.671  12.508
68637W        W28074  12.194  25.200   0.359
68638W        W28075   7.843   0.337   2.279
68639W        W28076  14.799  35.446   3.812
68640W        W28077  17.615   1.941  13.413
68641W        W28078  14.222  25.027   1.285
68642W        W28079  38.990  11.182   1.760
68643W        W28080   4.906  16.298   0.454
68644W        W28081   9.696  13.196  14.491
68645W        W28082  18.052   9.338  13.059
68646W        W28083  29.071   2.407   3.742
68647W        W28084  24.548  33.581   0.917
68648W        W28085  10.147  29.543  13.351
68649W        W28086  41.538  26.121   3.674
68650W        W28087  28.500  14.647  14.786
68651W        W28088  20.723  38.917  12.983
68652W        W28089  16.734   1.384  14.775
68653W        W28090  37.058  28.024   0.336
68654W        W28091  19.556  39.459  14.478
68655W        W28092  34.062   0.985   3.735
68656W        W28093  36.992  27.134  14.882
68657W        W28094  27.676  20.112  12.477
68658W        W28095  10.267  31.061   2.324
68659W        W28096  15.720  44.295  10.441
68660W        W28097   0.891  38.381  13.857
68661W        W28098  36.364   3.294   1.328
68662W        W28099   9.819  16.275  14.470
68663W        W28100  44.318   6.311  13.527
68664W        W28101   9.250  39.469   0.929
68665W        W28102   9.229  22.588   4.344
68666W        W28103  32.426  14.750  12.563
68667W        W28104  34.034  11.845  12.441
68668W        W28105  15.087  34.594  13.359
68669W        W28106  37.361  37.048  14.963
68670W        W28107   9.354  36.912  11.477
68671W        W28108  38.499  17.780   0.328
68672W        W28109  28.515  38.962  12.004
68673W        W28110  34.582  29.458  11.986
68674W        W28111   3.753  21.723  11.497
68675W        W28112  36.038  38.364   3.691
68676W        W28113   5.219  43.952  11.060
68677W        W28114  24.990  36.371   1.921
68678W        W28115  26.076  30.544  12.925
68679W        W28116  36.517   8.862   3.749
68680W        W28117  23.082  10.727   4.735
68681W        W28118  17.207  25.538   2.208
68682W        W28119  38.935   1.371  11.900
68683W        W28120  15.756  14.167  11.470
68684W        W28121  19.278   2.889   1.397
68685W        W28122  14.739  30.087   4.737
68686W        W28123  15.680  30.524  11.436
68687W        W28124  30.419  23.062  10.159
68688W        W28125  25.508  44.438   3.287
68689W        W28126  33.065  25.002  12.023
68690W        W28127  10.372  17.191  10.613
68691W        W28128  20.091  39.041  11.980
68692W        W28129  21.567  40.855   4.626
68693W        W28130  31.915   3.373   1.760
68694W        W28131   1.358  12.656   3.856
68695W        W28132  28.572  18.266  13.946
68696W        W28133   0.957  11.183  12.963
68697W        W28134  18.657  44.497  13.968
68698W        W28135   5.267   8.788  11.966
68699W        W28136  37.866  31.566  11.465
68700W        W28137   4.307  14.753   1.374
68701W        W28138  14.654   7.715  13.526
68702W        W28139  13.273  43.966  11.099
68703W        W28140  26.203   8.866   0.957
68704W        W28141  38.876  11.222  10.909
68705W        W28142   0.939  42.936  14.864
68706W        W28143   0.397  37.936  12.964
68707W        W28144  40.862  20.158  10.620
68708W        W28145  22.730  23.726   2.838
68709W        W28146  32.960  17.681  10.416
68710W        W28147  13.818  32.511   3.250
68711W        W28148  15.765  29.637  12.465
68712W        W28149  15.267  37.082  14.989
68713W        W28150  19.126  14.688   0.425
68714W        W28151  25.702   8.698  14.938
68715W        W28152  15.677  40.925   3.223
68716W        W28153  37.443  10.216   3.307
68717W        W28154  37.502  39.506   1.377
68718W        W28155   3.427  10.824   4.272
68719W        W28156  25.098   2.324   5.293
68720W        W28157  34.052  22.104   5.250
68721W        W28158   0.838  39.869   5.235
68722W        W28159  20.692  39.333   4.253
68723W        W28160  12.838  36.471   0.813
68724W        W28161  23.139  32.023   0.773
68725W        W28162  16.611  27.532   0.382
68726W        W28163   9.360  21.532   2.372
68727W        W28164  17.678  43.002  11.378
68728W        W28165  19.105  41.474   2.272
68729W        W28166  16.278  17.224  12.885
68730W        W28167   9.669  24.977   3.657
68731W        W28168  38.016  44.376   0.385
68732W        W28169  40.802  24.085   1.290
68733W        W28170  30.948  27.162  10.911
68734W        W28171  14.782  27.461  14.387
68735W        W28172  26.530  24.719   3.282
68736W        W28173  37.401  10.667   4.606
68737W        W28174  44.400  14.116  12.088
68738W        W28175  17.772  41.929   3.722
68739W        W28176  22.143  26.534   2.888
68740W        W28177  26.684   8.696   1.288
68741W        W28178   4.411  24.650   1.390
68742W        W28179  14.168  21.033  11.446
68743W        W28180  13.672  19.541  13.454
68744W        W28181   5.220  26.962   4.347
68745W        W28182  19.218   7.755  14.363
68746W        W28183  24.227  44.790   3.714
68747W        W28184  12.704  12.768  14.395
68748W        W28185  19.720   6.330   2.741
68749W        W28186  30.630  20.057   2.697
68750W        W28187  14.300  14.676  10.939
68751W        W28188  31.982  32.962   2.416
68752W        W28189   9.807  35.083   4.145
68753W        W28190  39.348  40.444   0.356
68754W        W28191   1.372  26.961  12.996
68755W        W28192  32.566  28.574   2.298
68756W        W28193  35.413  30.611  11.966
68757W        W28194  29.001  20.226   3.710
68758W        W28195  16.161  35.521   4.121
68759W        W28196  37.490  40.994   4.124
68760W        W28197  40.382  44.400  10.443
68761W        W28198   3.223  43.457   2.795
68762W        W28199  24.622   7.823  11.571
68763W        W28200   9.823  23.095  13.887
68764W        W28201   9.245  20.242  12.829
68765W        W28202  29.452  33.000  12.829
68766W        W28203  42.920  32.061  13.455
68767W        W28204   5.224  44.482  11.463
68768W        W28205   6.802  36.485   4.703
68769W        W28206  11.259  42.001  13.853
68770W        W28207   4.206  15.197   0.369
68771W        W28208  30.573   9.262  10.578
68772W        W28209  12.817  36.365  13.797
68773W        W28210  18.052   7.328   2.772
68774W        W28211  33.106  19.651   2.197
68775W        W28212  29.053  20.110  11.413
68776W        W28213  23.070  42.300   4.608
68777W        W28214  21.543  28.981   0.265
68778W        W28215  20.572  21.728   5.135
68779W        W28216  23.091  29.974   0.300
68780W        W28217  30.499  35.916  12.341
68781W        W28218  15.311  22.104   1.905
68782W        W28219  40.521  10.858   0.385
68783W        W28220   8.842  16.146   2.785
68784W        W28221  43.877   2.313  12.527
68785W        W28222  27.056  31.089   2.662
68786W        W28223  31.499  29.626  11.086
68787W        W28224  16.569  27.650   1.260
68788W        W28225  34.896  16.639   0.753
68789W        W28226   4.445  12.203   0.288
68790W        W28227  38.891  20.214   3.705
68791W        W28228   0.337  13.609  10.136
68792W        W28229  34.549  23.508  12.867
68793W        W28230   8.845  27.472  11.969
68794W        W28231  29.593  28.576   3.385
68795W        W28232   2.881  23.621   3.773
68796W        W28233  20.139  11.675  14.032
68797W        W28234  28.552  11.756  11.035
68798W        W28235  26.186  36.593  12.508
68799W        W28236  13.236  32.902  10.979
68800W        W28237  11.623  36.027  10.939
68801W        W28238  39.062  29.472   0.867
68802W        W28239  13.643   8.198  13.029
68803W        W28240  31.021  28.054  14.820
68804W        W28241  35.873  21.559  12.455
68805W        W28242  13.816  31.907  12.992
68806W        W28243  12.798   9.225  13.469
68807W        W28244  27.073  17.253  14.491
68808W        W28245  15.638   4.741  14.820
68809W        W28246   1.806  22.566   1.249
68810W        W28247  44.343   0.833   3.302
68811W        W28248  36.926  32.599  12.487
68812W        W28249  32.068  36.392   0.796
68813W        W28250  15.110  31.143  11.422
68814W        W28251  35.895   1.360  12.085
68815W        W28252  27.096  24.125  11.464
68816W        W28253  11.148   7.829  12.371
68817W        W28254  31.971  20.578  12.447
68818W        W28255  38.474  39.017  11.456
68819W        W28256  16.800  41.407  11.046
68820W        W28257  35.855  12.232   2.690
68821W        W28258   3.250  41.888  12.898
68822W        W28259  28.468  31.465   0.790
68823W        W28260  37.997  17.261   4.761
68824W        W28261  16.146   1.880   3.851
68825W        W28262  30.945   2.437  14.436
68826W        W28263  25.136  14.785  11.512
68827W        W28264  17.099  10.166  13.346
68828W        W28265  15.757   8.789   0.337
68829W        W28266  31.436  19.157   1.232
68830W        W28267  35.438  11.692  10.449
68831W        W28268  12.277  30.641   4.251
68832W        W28269  36.856  40.025   0.338
68833W        W28270  44.780  42.438   0.417
68834W        W28271   3.399  22.620  12.006
68835W        W28272  13.107  20.096  13.887
68836W        W28273  32.944  21.055   0.312
68837W        W28274  21.202  16.665  12.985
68838W        W28275   6.900   0.835  14.449
68839W        W28276  38.358   6.819   4.308
68840W        W28277  29.551  41.960   3.254
68841W        W28278  25.478  35.514   4.295
68842W        W28279  43.457  40.006   1.269
68843W        W28280  20.055  21.254   1.724
68844W        W28281   4.708  38.037  10.547
68845W        W28282  33.123   7.174   3.793
68846W        W28283  44.934  11.164   1.818
68847W        W28284   6.186   4.890   2.284
68848W        W28285   6.313  36.992   1.303
68849W        W28286  35.857   9.169   2.246
68850W        W28287  36.007  21.553   3.720
68851W        W28288  12.755  28.953  14.447
68852W        W28289  22.608  27.070  14.490
68853W        W28290  44.288  22.132   2.406
68854W        W28291  21.582  38.999  11.531
68855W        W28292  25.086   2.953   1.866
68856W        W28293   6.383   6.829  14.488
68857W        W28294  36.534  43.968  14.798
68858W        W28295  28.571   9.171  13.827
68859W        W28296   1.242  11.169   0.427
68860W        W28297  34.379  36.381   4.812
68861W        W28298  30.963   6.240   0.932
68862W        W28299  10.632  25.662   4.354
68863W        W28300  14.155  15.731   3.314
68864W        W28301  43.970  10.776   0.813
68865W        W28302   5.831  25.645   0.391
68866W        W28303  13.311  29.952  12.937
68867W        W28304   3.417   5.876  12.062
68868W        W28305   5.377  14.120  11.455
68869W        W28306  30.086  30.950   2.295
68870W        W28307  25.707   0.358  11.544
68871W        W28308  40.414  11.662   1.833
68872W        W28309  44.852   9.758   4.270
68873W        W28310  23.096  20.615   5.265
68874W        W28311  12.679  10.869  14.930
68875W        W28312   5.262  15.187   1.244
68876W        W28313  17.070  42.372   2.372
68877W        W28314  36.959  25.547  13.399
68878W        W28315  25.068   5.867  11.061
68879W        W28316   9.723   7.366   2.702
68880W        W28317  27.940  35.404   3.206
68881W        W28318   2.956  21.115  12.093
68882W        W28319  33.085  30.483  14.315
68883W        W28320   5.754  37.434  14.299
68884W        W28321  30.482  12.348   2.764
68885W        W28322  15.786   0.912  15.000
68886W        W28323  42.928  43.824  14.018
68887W        W28324  40.893  36.360   2.797
68888W        W28325  33.935  14.143   4.628
68889W        W28326   9.661   8.836  10.959
68890W        W28327  20.534  31.588   2.788
68891W        W28328  42.876  24.597  13.965
68892W        W28329  24.126  39.359   1.927
68893W        W28330  16.679  10.705   1.827
68894W        W28331  22.508  25.026  13.376
68895W        W28332  23.091   0.943  14.941
68896W        W28333  40.984  14.335   2.373
68897W        W28334   3.451  42.980   3.770
68898W        W28335  14.319   4.845   9.983
68899W        W28336  40.862   9.162  13.051
68900W        W28337  27.002  37.436  12.530
68901W        W28338  25.139   3.943  11.594
68902W        W28339  40.863  43.011  10.504
68903W        W28340  23.661  12.704  10.551
68904W        W28341  40.322  16.264  13.926
68905W        W28342  12.743  30.131  11.068
68906W        W28343  39.398   1.409  12.043
68907W        W28344  22.556  41.043   0.277
68908W        W28345   9.384  29.948   0.339
68909W        W28346  13.779  16.689  10.919
68910W        W28347  26.006   9.257   0.889
68911W        W28348  33.610   8.665   4.672
68912W        W28349  13.168  32.015   4.328
68913W        W28350  36.863  18.056  14.276
68914W        W28351  28.965  36.953  12.391
68915W        W28352   8.869  13.130  11.050
68916W        W28353   7.289  28.161   1.794
68917W        W28354   1.482   6.233  11.031
68918W        W28355  25.037  14.179   4.610
68919W        W28356   8.380  29.480  14.337
68920W        W28357   5.767  41.397   0.441
68921W        W28358   1.835  18.145  12.376
68922W        W28359  12.283   6.311  14.032
68923W        W28360  29.445  42.000  14.917
68924W        W28361   5.750   4.820  14.935
68925W        W28362  17.769  18.646   3.670
68926W        W28363   9.829  14.702   0.372
68927W        W28364  33.879  11.868  14.347
68928W        W28365  34.516   3.322  10.897
68929W        W28366   2.819  17.160   0.958
68930W        W28367   6.259  18.677  14.854
68931W        W28368   0.912  12.279  12.579
68932W        W28369  12.264  19.072   3.180
68933W        W28370  37.482   1.945  14.445
68934W        W28371   1.443   3.422   2.739
68935W        W28372   6.729  30.593  11.456
68936W        W28373  10.360  19.596  10.469
68937W        W28374   0.878   1.828   3.335
68938W        W28375  27.073  33.438   0.926
68939W        W28376  32.975  26.586  12.429
68940W        W28377  28.150   7.789   4.257
68941W        W28378  38.559  29.468  12.840
68942W        W28379  30.538  29.578   1.719
68943W        W28380   4.350  14.725  11.021
68944W        W28381  27.039  24.002   0.343
68945W        W28382   3.719  25.019  11.900
68946W        W28383  36.886   2.336  12.040
68947W        W28384   2.773  26.115   4.196
68948W        W28385   1.750   5.819   3.339
68949W        W28386  10.377  41.372   4.700
68950W        W28387   8.698  30.636   2.235
68951W        W28388   5.338  28.957  14.476
68952W        W28389  18.635  20.097  14.429
68953W        W28390   5.428  26.560   2.848
68954W        W28391  33.130  34.979  11.596
68955W        W28392  23.214  39.333   0.735
68956W        W28393  16.252  23.123  13.934
68957W        W28394   7.409  24.509   3.230
68958W        W28395  32.474  31.903  11.547
68959W        W28396  26.683  24.158  13.891
68960W        W28397   4.301  25.139  11.585
68961W        W28398  17.672  18.159   2.387
68962W        W28399  32.627   4.728   1.374
68963W        W28400  36.910   5.724   0.951
68964W        W28401  25.700   6.330   1.353
68965W        W28402  43.803  33.038  14.901
68966W        W28403  13.248   6.781  10.449
68967W        W28404   2.873  13.728  10.607
68968W        W28405   8.406  18.213   0.287
68969W        W28406   8.688  19.281   1.343
68970W        W28407  36.363  22.136  12.851
68971W        W28408   6.197  41.310  12.856
68972W        W28409  21.073   0.882   1.408
68973W        W28410  36.058  17.776   0.381
68974W        W28411  34.465   1.890  12.025
68975W        W28412   1.477  24.508   1.855
68976W        W28413   1.462  23.027  10.493
68977W        W28414  27.994  39.836   1.704
68978W        W28415  32.457  15.822  14.412
68979W        W28416  16.610  16.713   3.727
68980W        W28417  16.158   6.686   0.286
68981W        W28418  14.702   0.924   3.664
68982W        W28419  29.936  34.883   1.752
68983W        W28420  44.870  25.580   1.897
68984W        W28421   5.315  20.553   3.664
68985W        W28422   3.739  31.465  13.059
68986W        W28423   7.781  17.184  10.906
68987W        W28424   4.221  41.441   4.679
68988W        W28425  36.948  18.081  14.014
68989W        W28426  36.095   7.892   4.684
68990W        W28427  23.069   6.841   1.799
68991W        W28428  22.502  14.730  13.913
68992W        W28429   1.860  40.996   3.838
68993W        W28430  20.737  44.502   0.948
68994W        W28431  30.627  35.540   3.315
68995W        W28432  30.073  12.632  13.409
68996W        W28433  28.097  42.828   4.231
68997W        W28434   2.772  28.610   3.324
68998W        W28435  23.555  41.940   3.770
68999W        W28436   1.926  40.002  10.987
69000W        W28437  36.863  35.992   3.154
69001W        W28438  18.148  26.620   2.365
69002W        W28439  30.072  36.042   4.331
69003W        W28440  20.646  38.485   4.347
69004W        W28441   6.190  26.144  13.397
69005W        W28442  32.604  28.512  12.443
69006W        W28443  33.438  30.073  10.414
69007W        W28444  19.226  33.513  12.377
69008W        W28445  28.161  43.357  10.560
69009W        W28446  34.993  18.706  13.845
69010W        W28447   3.226  18.769   2.802
69011W        W28448  24.689  38.914   0.448
69012W        W28449  15.720  22.510  11.552
69013W        W28450  27.168  12.665   2.767
69014W        W28451  11.270  16.779   2.883
69015W        W28452  19.179  40.039  14.421
69016W        W28453  40.495   4.819   4.696
69017W        W28454  25.470  26.655   3.744
69018W        W28455  23.239  35.873  14.460
69019W        W28456  19.063  29.659  11.037
69020W        W28457   4.448  43.936  14.312
69021W        W28458  43.424  13.294  14.007
69022W        W28459  34.053  34.896  10.134
69023W        W28460  14.128  13.762  13.535
69024W        W28461  11.169  43.382   2.688
69025W        W28462  17.155  11.814   4.798
69026W        W28463  10.639  22.112  13.058
69027W        W28464  32.597  11.270  10.404
69028W        W28465  19.275   5.258   2.854
69029W        W28466  38.447  30.511   4.740
69030W        W28467  32.900   6.382   0.846
69031W        W28468   9.753  20.068  13.512
69032W        W28469  34.504  32.030  10.131
69033W        W28470  24.183  24.101  14.312
69034W        W28471  39.378   9.303   1.320
69035W        W28472   2.337  43.918  12.543
69036W        W28473   7.754   6.222   2.286
69037W        W28474  24.112  33.541   1.315
69038W        W28475  42.792  44.921  12.833
69039W        W28476   9.154  22.691  11.894
69040W        W28477  15.269   8.837   0.916
69041W        W28478  27.616  10.343   2.396
69042W        W28479  27.143  24.107  13.910
69043W        W28480  33.561  21.154   4.300
69044W        W28481  14.782  24.617  14.438
69045W        W28482   3.297  44.342   1.895
69046W        W28483  24.155  18.627  12.902
69047W        W28484  43.962   6.394   2.709
69048W        W28485  31.524  21.252  11.548
69049W        W28486  16.250  20.133   3.349
69050W        W28487   7.259  36.956   1.399
69051W        W28488  38.048   3.311  11.960
69052W        W28489  34.061  28.079  14.443
69053W        W28490  24.022  42.928   3.344
69054W        W28491   0.967  25.688  12.477
69055W        W28492   4.357   4.938  13.531
69056W        W28493  29.048  41.013  11.570
69057W        W28494  13.599   4.791  10.942
69058W        W28495  13.809   0.781  12.058
69059W        W28496  10.830  25.467   1.910
69060W        W28497  12.840  11.751  13.486
69061W        W28498  31.454  28.542  11.424
69062W        W28499  40.049   6.746  10.570
69063W        W28500  29.973   9.786   4.232
69064W        W28501  22.535  18.643   9.950
69065W        W28502   1.938  35.939  10.473
69066W        W28503  34.030   4.944  12.562
69067W        W28504  13.120  44.455   4.802
69068W        W28505  12.748  10.716   3.745
69069W        W28506  25.172   4.225  12.530
69070W        W28507  19.042  33.422  10.536
69071W        W28508  32.981  29.076  10.936
69072W        W28509  21.125  10.333  13.496
69073W        W28510  22.135  21.063   3.242
69074W        W28511  29.549  38.408   3.331
69075W        W28512  32.617  10.682  11.538
69076W        W28513  10.700  32.533   3.784
69077W        W28514  29.428  40.054  11.484
69078W        W28515  44.825  34.431  14.306
69079W        W28516  16.204  28.621   2.736
69080W        W28517  13.208  39.536   1.343
69081W        W28518  28.655  15.290   2.184
69082W        W28519  23.121  15.234   1.817
69083W        W28520  11.744  34.489   3.813
69084W        W28521  18.620  36.017  13.805
69085W        W28522  39.375  28.518   0.873
69086W        W28523  13.845  21.199  14.336
69087W        W28524  32.083  28.536   1.851
69088W        W28525   6.275  17.299   4.729
69089W        W28526  19.257   4.867  10.537
69090W        W28527  17.745   0.894  10.537
69091W        W28528  21.617  12.703  14.843
69092W        W28529  37.563   7.383  14.511
69093W        W28530  30.528  22.533   3.672
69094W        W28531  32.905   9.225  14.495
69095W        W28532  30.585  44.291  13.894
69096W        W28533   7.688   2.733   4.692
69097W        W28534  29.598  31.094   2.345
69098W        W28535  20.692  35.501  14.866
69099W        W28536  12.690   0.305  13.353
69100W        W28537  43.460   2.768  10.601
69101W        W28538  10.270  34.589  11.037
69102W        W28539  20.070   0.876  12.091
69103W        W28540  22.999  28.122  14.942
69104W        W28541  35.551   6.314   3.260
69105W        W28542  12.619   2.868   0.962
69106W        W28543  20.106   2.427  10.433
69107W        W28544  24.655  33.476  14.317
69108W        W28545  18.744   7.272   1.437
69109W        W28546  24.127  39.462   0.902
69110W        W28547  15.118  28.977   0.339
69111W        W28548  22.667  18.055  11.399
69112W        W28549  21.252  40.322   1.744
69113W        W28550  18.748  15.106   0.382
69114W        W28551  12.211  28.055   0.769
69115W        W28552  21.123  35.988   0.382
69116W        W28553  41.423  31.984   1.263
69117W        W28554  31.558  12.657   2.278
69118W        W28555  14.339  42.424  13.827
69119W        W28556  36.939   2.466   3.380
69120W        W28557  38.062  20.039   0.938
69121W        W28558  20.710  23.646   3.697
69122W        W28559  39.022   2.472   0.754
69123W        W28560  43.276  29.099  13.312
69124W        W28561  42.998   7.202  12.439
69125W        W28562  25.033  22.156  14.980
69126W        W28563  31.104  29.514   0.766
69127W        W28564  19.244  16.220  11.920
69128W        W28565  10.190  43.393   3.670
69129W        W28566  39.417  43.817   1.232
69130W        W28567  30.079  15.212  11.879
69131W        W28568   8.843  33.932   0.875
69132W        W28569  44.917  10.703   0.367
69133W        W28570  26.597  26.648   3.837
69134W        W28571   7.849  25.068   1.900
69135W        W28572  33.122  27.944   4.223
69136W        W28573  16.317  33.468   1.749
69137W        W28574  40.474   3.399   3.661
69138W        W28575   8.215   7.375  14.501
69139W        W28576  30.133  40.383  11.069
69140W        W28577  18.769   6.910   0.455
69141W        W28578  16.719  30.570   0.815
69142W        W28579  11.804   5.743  13.923
69143W        W28580   1.901  34.417  14.459
69144W        W28581  36.070   7.796  11.530
69145W        W28582  35.595  21.253   0.479
69146W        W28583  38.544  41.405   4.819
69147W        W28584  30.543   6.255  12.892
69148W        W28585   7.197   5.256   2.761
69149W        W28586  13.800  34.028  13.342
69150W        W28587   4.822  12.626  14.774
69151W        W28588  10.646  39.390   4.776
69152W        W28589  11.363   8.736  10.539
69153W        W28590  25.994  43.328   2.685
69154W        W28591   5.723  28.112   0.851
69155W        W28592   8.663  38.972  13.462
69156W        W28593   8.254  20.544  10.923
69157W        W28594  19.536  13.721  10.620
69158W        W28595  18.627  27.171   1.440
69159W        W28596  36.954  24.019   4.727
69160W        W28597  14.132   3.439   4.615
69161W        W28598  24.561   4.287   4.142
69162W        W28599  39.958  18.249   2.852
69163W        W28600  16.645   0.284   2.773
69164W        W28601  39.863  29.026  12.987
69165W        W28602  27.642  35.041  11.606
69166W        W28603  18.548   9.310  12.378
69167W        W28604  11.643  40.531   0.828
69168W        W28605  17.095  44.434   2.196
69169W        W28606   3.740  23.505   0.296
69170W        W28607  44.936  23.618  14.792
69171W        W28608  31.536   6.730  12.432
69172W        W28609   4.824   8.196  11.994
69173W        W28610  33.461  34.954   3.852
69174W        W28611   9.816   2.418  10.432
69175W        W28612   1.348  32.958   3.708
69176W        W28613  22.142   0.801  12.382
69177W        W28614  34.532  30.034  10.976
69178W        W28615  33.444   6.860   2.873
69179W        W28616  21.530  37.916  14.997
69180W        W28617  17.106  27.008  14.911
69181W        W28618   3.336  22.676  14.799
69182W        W28619  27.492  28.095   0.960
69183W        W28620  31.909  41.360   4.601
69184W        W28621  28.040  26.126   2.407
69185W        W28622  35.084  15.753   2.314
69186W        W28623  43.326  14.222  13.886
69187W        W28624   3.864   2.724   2.358
69188W        W28625  13.242  11.144  12.409
69189W        W28626  23.032  20.143  14.850
69190W        W28627  35.438  13.779   0.883
69191W        W28628  44.000  22.054  10.468
69192W        W28629  20.602  26.677  13.914
69193W        W28630   7.340   6.849   1.285
69194W        W28631   7.340  44.323  13.361
69195W        W28632  27.039  37.896   5.270
69196W        W28633  16.156  34.554   0.860
69197W        W28634  25.984  14.150   0.735
69198W        W28635  12.249  33.500  14.887
69199W        W28636  18.686   1.482   2.365
69200W        W28637  25.185  36.409   1.334
69201W        W28638   0.927  21.148  10.893
69202W        W28639  29.938  34.075   4.145
69203W        W28640  21.618  22.572  12.486
69204W        W28641  31.101   9.382   2.341
69205W        W28642  38.415  28.557   0.260
69206W        W28643  34.514  40.928  13.435
69207W        W28644  27.448   7.311  10.617
69208W        W28645  42.807  11.142  14.511
69209W        W28646  11.669  11.229  14.405
69210W        W28647  23.555  17.274  14.843
69211W        W28648  42.510   1.959   0.445
69212W        W28649  17.754  33.589   4.181
69213W        W28650  43.862  41.831   1.305
69214W        W28651  22.664  25.078   1.760
69215W        W28652  42.510  12.654  12.943
69216W        W28653  19.173  28.945  11.379
69217W        W28654  40.839  35.999  12.009
69218W        W28655  40.413  17.791  12.918
69219W        W28656  33.543  27.059  12.475
69220W        W28657  29.642  12.762   4.280
69221W        W28658  39.465   8.356   0.285
69222W        W28659  27.484   8.661  10.448
69223W        W28660   9.262  17.589  12.916
69224W        W28661   4.802  18.564   4.293
69225W        W28662  30.080   4.905   4.727
69226W        W28663  15.114  38.527  14.760
69227W        W28664  34.975   1.369   2.257
69228W        W28665  10.864  25.173   4.605
69229W        W28666  11.170  44.317  11.046
69230W        W28667  44.896  32.404  13.486
69231W        W28668  31.623  35.928   2.215
69232W        W28669  34.072  41.907  11.052
69233W        W28670  32.048  23.212  14.905
69234W        W28671  40.856  29.642  11.878
69235W        W28672  43.828  16.112  13.856
69236W        W28673  13.182  14.606   4.257
69237W        W28674  34.434  34.468  14.287
69238W        W28675  23.639  22.601  14.783
69239W        W28676  29.542  40.966   3.824
69240W        W28677  15.666  17.209  12.958
69241W        W28678  33.576   1.237  14.925
69242W        W28679  40.353  15.585   3.154
69243W        W28680  15.747   0.451  10.619
69244W        W28681  21.566  10.801  11.572
69245W        W28682  18.072  22.630  12.058
69246W        W28683  11.782  34.440   4.174
69247W        W28684   9.324  33.582  10.078
69248W        W28685  26.119   4.403   1.796
69249W        W28686  13.114  16.799  12.835
69250W        W28687   4.847  29.152   4.351
69251W        W28688  33.013  43.937   1.823
69252W        W28689  42.989  34.494   1.910
69253W        W28690   8.693  41.873   2.333
69254W        W28691  44.869  39.908  14.415
69255W        W28692   1.853   1.357  14.000
69256W        W28693  15.088  38.071   1.370
69257W        W28694  11.208  18.166   3.701
69258W        W28695  42.378  21.753   3.318
69259W        W28696  10.384  18.773  13.912
69260W        W28697  11.145  37.529  14.819
69261W        W28698   9.643   6.721   1.242
69262W        W28699   7.367  26.582   3.320
69263W        W28700  30.063  33.431   4.707
69264W        W28701   7.703  23.108   2.200
69265W        W28702  33.032   4.831  13.515
69266W        W28703  16.297  37.023  13.355
69267W        W28704  16.763  28.001  11.449
69268W        W28705  13.261   3.436  10.022
69269W        W28706  14.755  42.866  12.492
69270W        W28707   6.783  42.406  10.406
69271W        W28708  10.312   5.254   4.806
69272W        W28709   8.683  33.979   3.860
69273W        W28710  18.281   2.861  13.520
69274W        W28711  16.205  38.019   4.738
69275W        W28712   2.422   6.793  11.463
69276W        W28713  13.326  25.159  13.457
69277W        W28714  38.941  20.714  13.327
69278W        W28715   9.798   4.363   4.814
69279W        W28716  22.590  10.683   4.681
69280W        W28717  19.603  39.513   2.249
69281W        W28718   8.702  29.035  13.429
69282W        W28719  11.758  39.534   0.356
69283W        W28720  32.053   8.225   2.413
69284W        W28721   1.810  40.432  13.443
69285W        W28722   0.792  16.579  10.523
69286W        W28723  21.600  37.939   1.886
69287W        W28724  31.082  32.002  11.524
69288W        W28725  28.662  41.403  12.428
69289W        W28726   2.804   0.979  11.000
69290W        W28727  29.455   6.363  13.309
69291W        W28728   6.907  17.671   4.656
69292W        W28729   2.239  16.252   3.159
69293W        W28730  10.377   5.364   1.440
69294W        W28731  28.465  41.034  11.982
69295W        W28732  34.385  40.836   1.446
69296W        W28733  32.413  35.909  11.413
69297W        W28734  43.774  35.482  12.345
69298W        W28735  22.147  36.417   1.850
69299W        W28736  35.459   1.767   0.473
69300W        W28737   1.386  16.267   5.126
69301W        W28738   6.921  10.801   1.752
69302W        W28739  19.104   0.804   1.935
69303W        W28740  33.096  41.504  14.913
69304W        W28741   3.808   9.690   2.266
69305W        W28742  13.667  31.122  11.006
69306W        W28743   9.241  43.975   3.311
69307W        W28744   4.908  10.667   3.763
69308W        W28745  18.634  19.117  14.968
69309W        W28746   1.861  24.172  13.795
69310W        W28747   2.405   7.904   3.870
69311W        W28748  23.649  35.516   1.729
69312W        W28749  31.580  39.904  14.370
69313W        W28750  26.144  41.302   0.927
69314W        W28751  13.768  24.050  12.504
69315W        W28752  29.048  34.094   0.295
69316W        W28753  24.190  26.026   5.104
69317W        W28754  21.634  11.363   2.713
69318W        W28755  44.943   5.406  13.914
69319W        W28756  30.544   8.324  13.934
69320W        W28757  38.973  21.747   3.263
69321W        W28758  12.194   2.888   4.179
69322W        W28759  10.158   3.427   4.788
69323W        W28760  27.003  24.075  10.472
69324W        W28761   7.911  24.563   3.346
69325W        W28762  38.329  34.944   2.211
69326W        W28763  27.176  36.043   0.773
69327W        W28764  18.558   6.381   1.252
69328W        W28765  10.818  41.537  10.594
69329W        W28766  10.737  18.059  14.886
69330W        W28767  30.458   4.849  12.576
69331W        W28768  20.741  44.409  11.599
69332W        W28769  18.655  32.451   0.351
69333W        W28770  41.802  23.130   0.750
69334W        W28771  11.853  39.916   2.858
69335W        W28772  29.604   5.298   2.387
69336W        W28773  11.359  21.710   4.176
69337W        W28774  38.388  14.683   1.359
69338W        W28775  20.067   5.399  13.416
69339W        W28776  10.808  23.529   1.340
69340W        W28777  11.214   3.811   2.869
69341W        W28778  26.574  12.249   1.296
69342W        W28779  10.299  26.967   0.243
69343W        W28780  32.923  13.651  12.959
69344W        W28781   9.318  28.007   5.092
69345W        W28782  38.504   6.870  14.017
69346W        W28783   8.743  16.078   1.731
69347W        W28784  27.446  32.448   4.120
69348W        W28785  24.106  36.443  14.330
69349W        W28786   2.813  34.598   1.273
69350W        W28787  11.176  32.942   1.746
69351W        W28788  42.365  33.937   1.931
69352W        W28789   3.267  43.355  12.407
69353W        W28790   8.686   6.816   4.783
69354W        W28791  11.850  11.841   0.775
69355W        W28792   1.275  18.291  12.081
69356W        W28793  26.033  30.490  14.765
69357W        W28794  22.032  26.170  10.420
69358W        W28795  28.493   5.919  12.014
69359W        W28796  34.408  27.634  14.875
69360W        W28797  22.511  26.646   3.788
69361W        W28798  34.615  35.099  12.339
69362W        W28799  17.234   9.757  12.870
69363W        W28800  23.499  14.136   4.182
69364W        W28801  43.806  39.860   0.730
69365W        W28802  15.816   7.775  12.005
69366W        W28803  24.703  12.801  14.845
69367W        W28804  37.056   6.805   3.834
69368W        W28805  34.980   7.416   9.929
69369W        W28806  29.982   1.306   0.460
69370W        W28807  38.416  23.127   4.822
69371W        W28808  38.445  34.431   0.768
69372W        W28809  20.132  17.114   1.827
69373W        W28810  36.871  42.869   1.835
69374W        W28811  25.017  17.264  12.040
69375W        W28812  44.495  35.511   2.395
69376W        W28813  36.858  10.698   0.867
69377W        W28814  29.429  36.860   0.764
69378W        W28815  29.993  31.128  11.882
69379W        W28816  16.793  39.398  14.276
69380W        W28817  28.986  16.737   3.171
69381W        W28818   6.851  12.685  11.477
69382W        W28819  19.616  28.509   1.720
69383W        W28820   9.148  10.655  10.983
69384W        W28821   0.449   1.462  11.401
69385W        W28822  39.853  21.592  13.816
69386W        W28823  17.263  28.460   1.807
69387W        W28824  15.171  34.023  12.868
69388W        W28825   8.282   0.349  13.805
69389W        W28826  24.509  23.636  14.455
69390W        W28827  20.192   4.297   1.394
69391W        W28828  11.753  30.124   3.356
69392W        W28829  22.025  32.549   1.752
69393W        W28830  37.561  12.706  10.437
69394W        W28831  16.098   9.263  11.876
69395W        W28832   6.772  39.328   4.598
69396W        W28833  11.855  28.981  11.034
69397W        W28834   5.383  26.017  10.590
69398W        W28835  18.204  39.832   0.868
69399W        W28836  25.151  18.788   3.234
69400W        W28837  28.957  16.724   0.404
69401W        W28838  13.770  38.431  13.998
69402W        W28839  16.587  26.677  10.918
69403W        W28840  27.001  15.718  12.524
69404W        W28841   7.865  20.540   1.253
69405W        W28842  19.648  42.916  14.938
69406W        W28843  16.584  36.937  10.967
69407W        W28844  25.047   8.727   0.953
69408W        W28845   7.291  44.828  11.087
69409W        W28846   9.390   6.207   2.253
69410W        W28847   9.651  39.029   1.336
69411W        W28848  14.102   2.278   2.864
69412W        W28849  14.209   8.845  13.970
69413W        W28850   1.386  22.030  12.093
69414W        W28851  23.022   9.684  12.529
69415W        W28852   4.909  38.407  13.896
69416W        W28853  37.912  20.132   0.384
69417W        W28854  16.682  10.770   0.753
69418W        W28855  37.066  21.609   4.181
69419W        W28856   6.423  32.464   1.355
69420W        W28857  13.216  16.135   3.308
69421W        W28858  34.916  21.138  11.010
69422W        W28859  23.066  12.670  10.938
69423W        W28860  34.988  38.050  12.951
69424W        W28861  44.755  29.512   0.853
69425W        W28862  24.023  34.987   3.232
69426W        W28863  25.963  29.462   4.353
69427W        W28864  20.272  15.777   5.768
69428W        W28865  40.831  33.499   2.677
69429W        W28866   2.877  23.137   2.193
69430W        W28867   7.680  19.730   4.217
69431W        W28868  38.998  22.117  12.939
69432W        W28869  33.079  19.678   4.693
69433W        W28870   9.869   3.350  13.413
69434W        W28871  40.803  18.575   2.212
69435W        W28872  24.700  37.558   4.178
69436W        W28873  26.545  13.695  14.011
69437W        W28874  27.947  35.998  10.458
69438W        W28875   5.289  43.923  13.904
69439W        W28876   2.791  15.084   4.781
69440W        W28877  30.635   6.374   0.915
69441W        W28878  24.212  18.790  14.866
69442W        W28879  34.016  42.476   1.721
69443W        W28880  31.109  25.503  11.464
69444W        W28881  10.662   0.797   2.315
69445W        W28882  23.668  24.714   4.254
69446W        W28883  22.189  29.022   1.320
69447W        W28884  31.937   7.410  14.856
69448W        W28885  38.048   0.904  12.568
69449W        W28886   5.196  43.363   0.402
69450W        W28887  28.435  32.470  13.524
69451W        W28888  11.679  22.716   2.878
69452W        W28889  29.059  38.991  12.081
69453W        W28890   4.850  21.111  13.812
69454W        W28891  25.113   6.837   1.897
69455W        W28892  36.009  13.159  11.006
69456W        W28893  35.542   4.419  12.357
69457W        W28894  26.628  28.454   0.829
69458W        W28895  32.077  21.725  13.390
69459W        W28896   9.765   9.351  12.355
69460W        W28897   2.381  17.159  14.915
69461W        W28898   4.289  20.750   2.417
69462W        W28899  41.968  31.996  12.972
69463W        W28900   1.362   7.687  14.974
69464W        W28901  34.949  43.432  12.558
69465W        W28902  44.357  42.346  11.980
69466W        W28903  39.955  33.551  11.054
69467W        W28904  34.394  22.744   4.160
69468W        W28905  28.148   1.458   2.203
69469W        W28906  11.338  43.277  12.561
69470W        W28907  27.989  18.740   2.675
69471W        W28908   8.286  36.525   0.912
69472W        W28909  28.155  42.028   5.132
69473W        W28910  11.147  43.822  13.961
69474W        W28911  26.045  18.145   2.741
69475W        W28912   9.334  18.759   3.148
69476W        W28913  26.616  27.078   4.258
69477W        W28914   6.760  30.537   9.508
69478W        W28915  10.740   0.462  11.886
69479W        W28916  10.352  32.093  13.793
69480W        W28917   8.302  43.919   4.689
69481W        W28918  43.396  28.182  12.061
69482W        W28919  36.930  16.093   1.228
69483W        W28920   8.677  29.100   1.323
69484W        W28921  24.192  28.610  14.431
69485W        W28922  20.226  22.096   9.549
69486W        W28923  41.882  30.952  10.491
69487W        W28924  42.945   7.765  10.887
69488W        W28925   1.332  32.102  12.923
69489W        W28926  25.686  34.872  14.320
69490W        W28927  11.231  15.298   0.385
69491W        W28928   2.426  16.806   3.697
69492W        W28929  34.996  31.402   2.333
69493W        W28930  38.563  36.860  14.762
69494W        W28931  21.628   3.914  12.981
69495W        W28932  10.368  24.634   3.842
69496W        W28933  20.729  16.086  14.382
69497W        W28934  40.052   9.705  13.012
69498W        W28935  43.435  22.581  12.555
69499W        W28936  22.099  10.773   4.231
69500W        W28937  23.042   2.874  14.296
69501W        W28938  33.876  32.557   3.337
69502W        W28939   7.354  14.115  14.845
69503W        W28940  32.495   0.249   0.471
69504W        W28941  35.064  15.674  14.762
69505W        W28942  27.127  16.652  13.831
69506W        W28943   2.854  11.156  11.980
69507W        W28944  30.981  27.520   1.395
69508W        W28945  37.532  22.604   4.290
69509W        W28946   4.790  33.528   3.249
69510W        W28947  41.503  17.107   0.925
69511W        W28948  31.151  16.799   4.233
69512W        W28949   3.330  22.513   3.645
69513W        W28950  34.877  41.381  14.374
69514W        W28951  24.695  21.252  14.865
69515W        W28952   0.976  19.172  12.523
69516W        W28953  38.044  12.640   1.737
69517W        W28954  33.015  17.086   3.712
69518W        W28955  11.671  25.569  12.003
69519W        W28956  42.952  12.696  10.964
69520W        W28957  40.334  43.465   0.279
69521W        W28958  36.096  19.771  12.851
69522W        W28959  23.152  15.218   0.464
69523W        W28960   7.864  34.922   2.858
69524W        W28961  36.456  37.989  11.040
69525W        W28962  21.728  37.064   1.220
69526W        W28963  34.889  42.783  11.027
69527W        W28964  13.834  31.579   0.810
69528W        W28965  21.581  22.726   1.709
69529W        W28966  31.064  20.046   3.294
69530W        W28967  33.006  41.418   0.255
69531W        W28968   2.949  17.566   3.797
69532W        W28969  41.315   4.362  13.905
69533W        W28970   1.249  24.109  13.054
69534W        W28971  39.504   5.274   3.273
69535W        W28972   3.422  10.269   4.172
69536W        W28973  43.797  19.080  12.827
69537W        W28974  16.739  22.246  14.969
69538W        W28975  20.672  30.444  12.515
69539W        W28976   2.286  15.637   4.669
69540W        W28977  17.152  19.637   5.236
69541W        W28978  15.297  44.350  10.605
69542W        W28979  14.116   6.713   2.862
69543W        W28980  39.876   8.722  14.284
69544W        W28981  20.059  32.124  10.073
69545W        W28982  15.762  12.629  13.318
69546W        W28983  32.120   6.882   0.414
69547W        W28984  40.842  18.608   4.644
69548W        W28985  35.925   7.848   2.855
69549W        W28986   2.456   3.820   3.220
69550W        W28987   4.344  20.244   4.203
69551W        W28988  26.975   1.434   0.749
69552W        W28989   7.785  20.530   0.256
69553W        W28990   8.167  12.653  12.070
69554W        W28991  16.274  14.288  13.933
69555W        W28992  36.842  16.273  11.985
69556W        W28993  11.208  43.432  10.483
69557W        W28994   2.725  25.050  14.923
69558W        W28995   3.784  23.208  13.876
69559W        W28996   4.350  12.714  12.032
69560W        W28997  16.621   0.970  14.373
69561W        W28998  18.246  38.008  14.493
69562W        W28999   7.877   7.232   5.108
69563W        W29000  34.872   3.289  11.421
69564W        W29001  36.457  18.749  10.494
69565W        W29002  38.505   2.230   4.627
69566W        W29003   3.954  37.478   3.842
69567W        W29004  27.001   0.904  13.388
69568W        W29005  33.946  42.379  14.949
69569W        W29006  40.856   5.404   3.347
69570W        W29007   5.384  15.661  11.915
69571W        W29008   3.455  42.332  10.527
69572W        W29009  17.138  10.250   2.405
69573W        W29010   7.413  26.613   0.435
69574W        W29011  31.897  33.007  10.144
69575W        W29012  18.182   5.832  14.895
69576W        W29013  42.984  40.404  11.881
69577W        W29014  30.586  33.977   4.349
69578W        W29015  21.239  30.549  14.921
69579W        W29016   1.282  36.960   0.442
69580W        W29017  21.750  26.986   1.231
69581W        W29018  43.820  14.326  11.081
69582W        W29019   8.761  20.178  10.576
69583W        W29020  39.875  42.454   3.808
69584W        W29021  41.973  11.296  10.522
69585W        W29022  43.980   5.370  13.438
69586W        W29023  20.160   4.341   4.288
69587W        W29024  36.409  18.557   2.219
69588W        W29025  34.542   7.336  13.930
69589W        W29026  36.931   6.226   1.917
69590W        W29027  25.179  30.032  13.531
69591W        W29028   9.166  41.827   0.872
69592W        W29029  34.989  37.388   1.263
69593W        W29030  18.241   9.290  11.409
69594W        W29031  32.924  44.359  12.408
69595W        W29032  31.029  29.485  13.546
69596W        W29033  11.654   5.875   0.449
69597W        W29034  10.827  10.231  12.555
69598W        W29035   4.761  24.479   1.312
69599W        W29036  15.628  24.635   0.952
69600W        W29037  13.298  42.897   5.104
69601W        W29038  18.127  30.125   2.253
69602W        W29039  36.452  18.069   0.382
69603W        W29040  27.140  42.822  12.953
69604W        W29041  30.620  22.688  13.938
69605W        W29042   0.866   5.364  13.843
69606W        W29043  22.624   6.921   3.279
69607W        W29044  25.131  40.046   1.866
69608W        W29045  23.504  27.607  11.906
69609W        W29046   8.894  28.088  14.785
69610W        W29047  15.214  30.138  10.939
69611W        W29048  16.119  43.823   3.234
69612W        W29049   5.365   8.878  14.781
69613W        W29050  17.591  18.223   1.285
69614W        W29051  39.382  13.153  13.845
69615W        W29052  43.788  33.064  11.975
69616W        W29053  42.908   0.248  11.123
69617W        W29054  39.530  22.124  12.940
69618W        W29055   4.316  21.104   3.797
69619W        W29056  21.216  25.999  12.839
69620W        W29057  40.466  32.084  13.005
69621W        W29058  43.961  29.486   3.785
69622W        W29059  29.089  37.461  12.963
69623W        W29060  22.114  33.549  13.539
69624W        W29061  16.204  11.803   4.233
69625W        W29062   6.313  40.832   1.231
69626W        W29063  17.181  22.647  11.521
69627W        W29064  31.546  23.172   3.239
69628W        W29065   5.361  20.658  12.897
69629W        W29066  33.452  25.502  10.911
69630W        W29067  42.498   5.419  10.989
69631W        W29068  44.967  14.123  10.411
69632W        W29069   1.872  39.890   2.358
69633W        W29070  34.517  36.974  14.280
69634W        W29071  21.589  34.009  11.484
69635W        W29072  26.154  35.540   4.808
69636W        W29073   6.857  23.688   0.910
69637W        W29074  26.040  25.684  12.076
69638W        W29075  23.125  34.533  10.926
69639W        W29076  35.924  35.097   4.278
69640W        W29077  29.135   8.865  13.475
69641W        W29078  15.313  22.997  12.491
69642W        W29079  26.998  34.943  14.447
69643W        W29080  37.407  39.981  13.796
69644W        W29081  20.702  23.585  13.829
69645W        W29082  28.675  11.847   3.868
69646W        W29083  20.087  25.203   1.725
69647W        W29084  17.714   1.347   1.854
69648W        W29085  28.044   1.279  13.428
69649W        W29086  43.780   7.275   0.400
69650W        W29087  19.754  28.974  12.082
69651W        W29088   8.739  28.066   0.766
69652W        W29089  39.035  44.920  10.916
69653W        W29090  41.527  39.417   4.820
69654W        W29091  29.606  32.904   1.409
69655W        W29092  10.343  44.844   4.198
69656W        W29093  43.932  15.651   0.824
69657W        W29094  26.575   0.329   0.917
69658W        W29095  27.088  16.767  14.487
69659W        W29096  23.669  39.012   2.419
69660W        W29097   7.781  32.627   0.848
69661W        W29098  40.364  40.314  14.325
69662W        W29099   2.893  11.329   3.799
69663W        W29100  22.730  28.550  14.851
69664W        W29101  29.550  26.683  10.423
69665W        W29102  22.160  38.496   4.117
69666W        W29103  25.140  39.367   1.396
69667W        W29104  17.647  10.840  14.864
69668W        W29105  34.036  32.543  14.006
69669W        W29106  29.517  21.224  10.087
69670W        W29107   3.729  13.765  11.504
69671W        W29108  36.970  11.248   2.702
69672W        W29109  14.657  29.635  13.007
69673W        W29110  24.658  20.135   3.650
69674W        W29111  30.527  24.205   4.338
69675W        W29112   3.934  14.795   4.331
69676W        W29113  20.587  25.119  11.008
69677W        W29114  24.029  14.653  14.836
69678W        W29115  16.776  43.978   1.775
69679W        W29116  25.578  29.155  10.601
69680W        W29117  31.004  40.329  13.046
69681W        W29118  41.972   4.934  13.448
69682W        W29119  20.178  38.370  14.965
69683W        W29120  10.676  32.092  11.509
69684W        W29121  33.950  18.718  13.032
69685W        W29122  23.499  32.901   2.666
69686W        W29123   0.800  29.561  12.495
69687W        W29124  24.547  33.920   0.880
69688W        W29125  41.968   3.395   1.847
69689W        W29126  36.937   3.272   0.286
69690W        W29127  37.857  28.607   0.874
69691W        W29128   3.751  33.523  12.973
69692W        W29129  19.688   0.326   4.189
69693W        W29130   7.185   9.262  11.990
69694W        W29131  39.485  42.972   5.317
69695W        W29132  30.574  35.864  14.455
69696W        W29133  15.216  44.878  10.982
69697W        W29134  33.493  43.281   0.906
69698W        W29135  30.508  21.191   4.171
69699W        W29136  21.704  10.729   4.826
69700W        W29137  31.073  32.894  13.412
69701W        W29138  18.656  19.165  10.472
69702W        W29139  17.247  34.873  13.486
69703W        W29140   6.195  36.545  14.395
69704W        W29141  26.680  12.711   4.725
69705W        W29142  22.115   2.845   1.887
69706W        W29143  10.338  19.128   1.880
69707W        W29144   5.698   8.667   2.889
69708W        W29145  11.770   5.777  14.319
69709W        W29146  18.595  20.563   4.336
69710W        W29147  42.418  43.321  14.496
69711W        W29148  33.467  44.772  11.600
69712W        W29149  13.161  24.553  14.336
69713W        W29150  37.066  24.586   3.669
69714W        W29151   5.214  11.802  12.351
69715W        W29152   3.760  13.219  14.922
69716W        W29153  27.148  16.656   0.767
69717W        W29154  14.594  30.645   2.827
69718W        W29155  13.264  27.087  10.590
69719W        W29156   6.833  24.026  13.023
69720W        W29157  28.441  44.789   3.751
69721W        W29158   5.903  21.113   9.978
69722W        W29159  22.015  16.085   0.316
69723W        W29160  21.033  10.734  10.447
69724W        W29161  32.593   7.708  10.509
69725W        W29162  24.511  17.252   4.228
69726W        W29163  42.420  23.097   3.644
69727W        W29164  28.042  24.031   3.645
69728W        W29165  39.945  38.067  10.520
69729W        W29166  41.967  24.571  14.917
69730W        W29167  43.818   7.817  13.497
69731W        W29168  33.516  12.162  11.507
69732W        W29169   4.374   3.428  14.925
69733W        W29170  40.501   1.263  11.495
69734W        W29171   5.369  25.589  12.840
69735W        W29172   2.340  30.087  12.948
69736W        W29173  21.599  36.470   1.239
69737W        W29174  30.077  42.978  14.971
69738W        W29175  34.965  14.160   3.375
69739W        W29176  29.630  39.949  10.955
69740W        W29177  28.074  18.620   4.157
69741W        W29178  32.464  11.151  14.475
69742W        W29179  16.155  23.160   1.754
69743W        W29180  22.686  12.771   1.442
69744W        W29181   4.421   3.928  13.989
69745W        W29182   7.227  21.560   2.196
69746W        W29183   9.265  27.160  14.393
69747W        W29184  12.720  43.922   3.194
69748W        W29185   2.263   8.865  14.965
69749W        W29186  31.943   0.365  11.118
69750W        W29187  34.580  14.184  11.068
69751W        W29188  20.114  34.053  10.971
69752W        W29189  35.933   4.415  11.108
69753W        W29190  42.430   0.288  14.454
69754W        W29191   7.407  25.682   2.237
69755W        W29192   4.796  21.664   2.340
69756W        W29193  13.223  28.434   3.345
69757W        W29194  30.109   2.328   1.341
69758W        W29195  37.902   9.325   4.127
69759W        W29196  34.496  33.515   4.208
69760W        W29197  40.025  44.837   1.777
69761W        W29198   3.901  43.383  12.345
69762W        W29199  42.853  38.049  11.589
69763W        W29200   3.422  15.165   2.373
69764W        W29201  14.286  41.024  13.049
69765W        W29202  26.034   1.291   1.788
69766W        W29203  37.076  34.885   4.279
69767W        W29204   4.880   3.808   0.315
69768W        W29205  43.815  21.546   4.205
69769W        W29206  11.627  25.018   4.818
69770W        W29207  31.021   4.411   3.860
69771W        W29208  34.569  11.365   4.283
69772W        W29209  43.310  41.428  12.840
69773W        W29210  41.976  34.084   0.883
69774W        W29211  11.276  23.518  11.108
69775W        W29212  29.636   8.683   2.246
69776W        W29213  11.352  43.001   2.217
69777W        W29214   3.316   4.921   2.209
69778W        W29215  19.153  23.072  12.028
69779W        W29216  25.564  16.161  12.406
69780W        W29217  12.183  12.798   4.760
69781W        W29218  43.278  32.115  10.417
69782W        W29219   0.860   2.947   3.815
69783W        W29220  32.447  40.351  14.402
69784W        W29221  11.856  12.655  11.530
69785W        W29222  17.715  16.187  11.892
69786W        W29223  44.975  28.160   1.736
69787W        W29224   3.734  28.935   0.834
69788W        W29225  19.587  33.599  12.939
69789W        W29226  31.102  31.153  14.361
69790W        W29227   9.222  14.219  12.005
69791W        W29228  29.610  20.109   3.724
69792W        W29229  18.733  22.049  12.395
69793W        W29230   6.383  32.453   2.895
69794W        W29231  27.045   2.890  12.046
69795W        W29232  38.422  33.897   1.298
69796W        W29233  20.129  40.806   1.734
69797W        W29234  20.078  21.607   0.333
69798W        W29235  31.148  10.783  11.071
69799W        W29236  24.577  36.538   2.886
69800W        W29237  21.257  28.630  10.437
69801W        W29238  18.740  31.638   1.425
69802W        W29239   7.848  13.625   3.825
69803W        W29240  20.149  39.939  13.813
69804W        W29241   2.910  31.479  13.494
69805W        W29242  31.589  37.904   2.279
69806W        W29243  28.085  15.746   3.785
69807W        W29244   4.729  31.127   0.904
69808W        W29245   9.737  16.717  14.997
69809W        W29246  16.599   7.382   1.749
69810W        W29247  13.721  15.640   3.817
69811W        W29248  31.568  15.272  14.903
69812W        W29249   2.291   0.440  12.932
69813W        W29250  43.316  44.815  13.320
69814W        W29251   2.462  44.782  13.511
69815W        W29252  39.836  16.248   3.210
69816W        W29253  13.341   9.191   0.780
69817W        W29254  34.088  25.045  11.516
69818W        W29255  33.991  29.999   4.349
69819W        W29256  27.668  30.507  10.637
69820W        W29257   1.414  11.767  11.013
69821W        W29258  36.463  40.863  11.005
69822W        W29259  38.431  40.531   3.853
69823W        W29260   4.821  18.285   3.703
69824W        W29261   4.436  37.350   2.708
69825W        W29262  44.783  19.666  10.935
69826W        W29263  10.730  19.673  13.927
69827W        W29264  20.050  24.018  13.342
69828W        W29265  41.482  16.674   2.818
69829W        W29266  27.620  18.201   2.371
69830W        W29267   9.711  26.173   0.469
69831W        W29268  31.412  11.369   2.728
69832W        W29269  23.566  31.005  13.544
69833W        W29270  35.579   3.769  11.945
69834W        W29271  37.449  19.191   3.290
69835W        W29272   3.899   4.837  13.496
69836W        W29273  35.900  42.935  12.571
69837W        W29274  13.633  31.964   3.310
69838W        W29275  24.603  43.504   4.298
69839W        W29276  28.065   6.277   2.257
69840W        W29277   3.308  32.888  14.409
69841W        W29278  21.160   5.207   2.793
69842W        W29279   5.723  21.103   0.456
69843W        W29280   4.371  23.025   5.246
69844W        W29281   8.797  41.389   3.338
69845W        W29282  31.514  15.746   2.181
69846W        W29283  32.628  17.074  11.091
69847W        W29284  11.635   9.295   1.292
69848W        W29285  43.820   6.260   1.746
69849W        W29286  42.310  39.513   0.920
69850W        W29287   8.700  37.576  12.928
69851W        W29288  27.050  12.629   0.848
69852W        W29289   0.486  22.544  14.959
69853W        W29290  17.743  14.819   2.663
69854W        W29291   7.698   6.749  12.876
69855W        W29292  26.976  23.684   9.516
69856W        W29293  31.936  10.354  13.901
69857W        W29294   3.717  40.319  14.908
69858W        W29295   1.315  17.068  12.930
69859W        W29296  12.803   6.757   4.206
69860W        W29297  35.458   2.942  11.595
69861W        W29298  25.114   3.437   1.336
69862W        W29299  40.488  44.419   2.396
69863W        W29300   4.341  16.579   3.228
69864W        W29301  41.392   1.895   4.611
69865W        W29302  21.689  39.535   4.213
69866W        W29303  37.382   7.773   1.768
69867W        W29304   6.260  38.552  11.599
69868W        W29305   0.433  23.143   2.286
69869W        W29306  37.450  39.823  10.602
69870W        W29307  19.248  20.214   2.742
69871W        W29308  44.496  40.827  13.314
69872W        W29309  25.007  40.908   0.959
69873W        W29310  26.503   8.310   0.729
69874W        W29311   5.763   3.859   0.899
69875W        W29312  19.040   5.194   3.268
69876W        W29313   4.850  14.713   3.860
69877W        W29314   0.316   8.874  13.999
69878W        W29315  20.104  35.010   2.348
69879W        W29316  12.187  28.109  12.087
69880W        W29317   0.279  10.331   2.743
69881W        W29318  32.068  31.453   1.805
69882W        W29319  32.958   3.897   4.294
69883W        W29320   9.298  34.496   4.741
69884W        W29321  21.557  29.028  12.022
69885W        W29322  24.124  32.419  14.416
69886W        W29323  27.670  40.341   3.216
69887W        W29324   4.425  20.180   4.642
69888W        W29325  26.523  26.973  11.080
69889W        W29326  33.471  18.579  14.828
69890W        W29327  44.809  15.299  12.463
69891W        W29328  15.102  20.242  11.548
69892W        W29329  31.995   3.341   0.374
69893W        W29330  32.599  43.480  11.107
69894W        W29331   9.207  40.833   1.848
69895W        W29332  10.732  11.210   2.202
69896W        W29333  26.534   6.222  14.995
69897W        W29334  29.643   1.432  13.320
69898W        W29335  11.800  44.916   3.846
69899W        W29336   4.718  39.936   4.293
69900W        W29337  11.648  11.159   2.694
69901W        W29338  42.425  25.968   0.908
69902W        W29339  18.264  35.091   0.800
69903W        W29340  12.158  32.896   3.777
69904W        W29341  15.300   0.950  14.972
69905W        W29342  38.420  30.941   2.187
69906W        W29343  16.770  22.559   1.432
69907W        W29344  40.367  21.115   4.733
69908W        W29345  37.862  42.032  14.939
69909W        W29346  26.662   1.404  12.405
69910W        W29347  35.875  21.118   2.263
69911W        W29348  23.987  38.532  13.354
69912W        W29349  35.915  16.786   3.844
69913W        W29350  23.611  16.270   2.237
69914W        W29351  22.664  13.846   0.799
69915W        W29352  27.691  21.048   1.441
69916W        W29353   3.752   0.850  14.429
69917W        W29354   2.812  39.048   2.303
69918W        W29355  41.936  31.011   0.292
69919W        W29356   9.225  10.714   4.764
69920W        W29357   0.444  15.661  11.442
69921W        W29358  27.520  28.514  13.879
69922W        W29359   6.823   0.404   0.271
69923W        W29360  17.560  20.253   2.234
69924W        W29361  11.773  32.973  13.823
69925W        W29362  23.000   3.340   1.336
69926W        W29363  11.307  38.890   1.332
69927W        W29364  40.867  21.146  10.562
69928W        W29365  43.370  34.583   5.565
69929W        W29366  40.911  26.479   0.261
69930W        W29367  18.579   2.376  12.456
69931W        W29368  18.716  33.401   4.680
69932W        W29369  30.587   7.671  12.986
69933W        W29370  14.609  33.391  11.569
69934W        W29371  35.886  24.571  11.058
69935W        W29372  25.211  42.846   0.335
69936W        W29373   1.481   6.890  14.356
69937W        W29374  24.137  32.931  12.394
69938W        W29375  11.335  28.016   2.669
69939W        W29376  25.641   3.799  11.398
69940W        W29377  23.652  44.322  12.921
69941W        W29378   7.835  39.032   5.092
69942W        W29379  23.096  21.034  14.817
69943W        W29380   3.839   9.681   4.271
69944W        W29381  27.630   8.899   0.255
69945W        W29382   9.801  12.734   4.251
69946W        W29383  13.218  20.618   0.727
69947W        W29384   0.957  20.568  11.510
69948W        W29385  19.533  33.888  12.498
69949W        W29386  20.254  17.649   5.185
69950W        W29387  15.320  39.034  14.433
69951W        W29388   6.187  17.583   0.288
69952W        W29389  43.912   6.854   1.416
69953W        W29390  39.907  29.992   1.815
69954W        W29391  24.595  43.853  12.071
69955W        W29392  44.805   2.324   3.315
69956W        W29393  14.247  39.887   3.861
69957W        W29394  41.436   4.718  12.482
69958W        W29395  43.297  33.473   3.688
69959W        W29396  33.577  10.345   2.217
69960W        W29397  27.670   2.788  12.999
69961W        W29398  30.920  36.058  10.473
69962W        W29399  26.466   5.425   1.378
69963W        W29400  19.111  32.441   4.226
69964W        W29401  39.386  41.987   4.255
69965W        W29402  18.652  34.033  13.455
69966W        W29403  33.444  20.604  14.381
69967W        W29404  24.710  34.964   1.825
69968W        W29405   5.853  21.229   5.276
69969W        W29406  40.821  43.303   1.408
69970W        W29407  17.793  18.263  13.955
69971W        W29408   0.923   0.259   0.863
69972W        W29409  25.082  35.390  12.966
69973W        W29410  40.872   1.955  13.452
69974W        W29411  42.943   7.390  10.440
69975W        W29412  28.181   3.420   2.181
69976W        W29413  10.305  22.657  11.496
69977W        W29414  28.659  24.068  10.037
69978W        W29415  38.896  43.881  12.894
69979W        W29416  19.634  20.173  12.914
69980W        W29417  40.487   5.849   2.320
69981W        W29418  26.686  35.524   3.149
69982W        W29419   1.832  40.006  11.916
69983W        W29420   3.405  12.257   3.745
69984W        W29421  27.997  34.413   1.281
69985W        W29422  36.571  38.421  11.427
69986W        W29423   5.931  14.817  14.801
69987W        W29424  33.997  15.623   0.315
69988W        W29425  20.715   8.773  12.083
69989W        W29426  26.570   4.921   3.219
69990W        W29427   2.310  44.783  13.057
69991W        W29428  22.062  40.532   2.755
69992W        W29429  40.844  20.661   1.353
69993W        W29430   2.301   4.898   1.321
69994W        W29431  11.155  14.629   4.704
69995W        W29432  42.010  32.095  12.084
69996W        W29433  24.160  19.111   1.409
69997W        W29434  31.465   5.314   2.744
69998W        W29435  44.840  16.150   1.853
69999W        W29436   5.203   4.315  10.496
70000W        W29437   4.789  33.021  12.860
70001W        W29438  12.332  37.380   0.273
70002W        W29439   1.383   8.718   1.410
70003W        W29440  39.353  41.418  14.799
70004W        W29441  26.142   8.860   4.628
70005W        W29442  30.962  13.119  11.941
70006W        W29443   3.848  17.626   3.250
70007W        W29444  17.143  26.099  10.930
70008W        W29445  20.718  37.494  11.381
70009W        W29446   9.664  24.223   0.966
70010W        W29447  36.527  33.053  10.595
70011W        W29448  27.558  19.132  11.434
70012W        W29449  28.629   1.430  10.990
70013W        W29450  40.043  13.620  14.472
70014W        W29451  11.756  18.698   2.799
70015W        W29452  20.098  12.661  13.826
70016W        W29453  20.732  30.653   0.826
70017W        W29454  40.431  41.006  13.449
70018W        W29455  31.506   6.252   0.258
70019W        W29456  30.150  21.682   4.134
70020W        W29457  27.496  26.490  13.949
70021W        W29458  16.801  35.378  10.558
70022W        W29459  44.874  19.777   4.733
70023W        W29460  11.669  25.630   4.321
70024W        W29461   1.738  14.815   3.731
70025W        W29462  22.735  12.683   0.313
70026W        W29463  35.998   7.742   5.270
70027W        W29464  44.869   3.752  10.523
70028W        W29465  37.381  42.365   4.819
70029W        W29466  10.182  40.923   1.855
70030W        W29467   6.241  35.094  13.064
70031W        W29468   4.388  11.189   0.920
70032W        W29469  39.320  29.431  13.506
70033W        W29470  27.180   4.837  13.408
70034W        W29471  34.916  39.945  13.401
70035W        W29472  19.228   1.427   3.250
70036W        W29473  12.731  32.987  14.415
70037W        W29474  10.385  14.239   2.769
70038W        W29475  10.680  26.191  13.421
70039W        W29476  13.258  21.691   1.322
70040W        W29477   4.282   8.689  12.369
70041W        W29478  34.101  39.857  12.093
70042W        W29479  38.966  19.670   4.172
70043W        W29480  11.216  15.603  10.919
70044W        W29481  34.600  23.698   2.778
70045W        W29482  42.393  12.804   0.434
70046W        W29483  39.916  34.400   2.379
70047W        W29484   7.732  39.910  11.961
70048W        W29485   4.841  35.362   5.154
70049W        W29486   1.253   9.841   3.790
70050W        W29487  19.565  25.549   3.201
70051W        W29488  18.194  31.976   3.202
70052W        W29489  14.099  18.781  14.006
70053W        W29490  43.779   7.267  11.954
70054W        W29491   6.833  21.174   1.781
70055W        W29492  34.420   8.684   3.868
70056W        W29493  19.585  17.117  14.349
70057W        W29494  11.258   5.817   4.764
70058W        W29495  43.298  37.830   1.735
70059W        W29496  33.979  44.428   4.763
70060W        W29497  33.462   8.267   4.677
70061W        W29498  21.555  43.883   2.821
70062W        W29499  38.925  41.953  14.387
70063W        W29500  29.632  38.371  14.848
70064W        W29501  14.093  39.491   0.929
70065W        W29502   0.456  40.489  13.043
70066W        W29503   8.676  15.209  13.954
70067W        W29504  13.280  43.302  11.071
70068W        W29505  28.456   7.404  14.366
70069W        W29506   4.943  34.992   5.219
70070W        W29507  33.411  14.778   1.369
70071W        W29508  31.487  35.866  12.965
70072W        W29509  39.038  20.163  10.966
70073W        W29510  42.924  39.982  11.398
70074W        W29511  22.178  38.519   5.184
70075W        W29512  13.743  31.598  13.965
70076W        W29513  42.889  37.522  10.434
70077W        W29514  26.669  39.039   1.695
70078W        W29515   2.959  21.740  10.517
70079W        W29516  18.289   4.284  11.107
70080W        W29517  10.285   2.916  13.051
70081W        W29518  25.004  22.557   1.893
70082W        W29519  17.098  17.607  13.509
70083W        W29520   2.770  43.776   2.299
70084W        W29521   5.236  29.036  13.478
70085W        W29522  25.636   4.748  12.873
70086W        W29523  22.705  37.494  11.876
70087W        W29524  10.741  24.031  13.883
70088W        W29525  35.496  36.086  11.083
70089W        W29526  23.006  26.646   0.324
70090W        W29527  12.760  32.925  14.799
70091W        W29528   2.945  37.977   4.680
70092W        W29529  35.081   2.800  12.855
70093W        W29530   0.364  23.131  12.364
70094W        W29531  16.586  30.147   3.170
70095W        W29532  43.509  33.597  13.926
70096W        W29533  36.003  42.961   2.305
70097W        W29534  29.455  10.281   2.876
70098W        W29535  21.093  32.991   2.816
70099W        W29536  25.499   2.398  12.086
70100W        W29537  25.050  20.592   0.269
70101W        W29538  23.121   1.738   1.236
70102W        W29539  44.314  28.170  10.538
70103W        W29540  10.293   1.283  10.513
70104W        W29541  33.123  18.788   3.714
70105W        W29542  20.624  29.096   4.717
70106W        W29543  36.559  30.559  11.004
70107W        W29544  11.299  20.749   0.246
70108W        W29545  13.155  27.981  12.005
70109W        W29546  27.087   5.879   3.630
70110W        W29547  32.944  33.485  10.556
70111W        W29548  24.552  10.639   0.839
70112W        W29549  11.638  27.189  13.043
70113W        W29550  10.384  27.942  13.793
70114W        W29551  29.601  38.827   5.323
70115W        W29552  13.705  26.702   1.762
70116W        W29553  10.372   8.358  14.469
70117W        W29554  42.777   4.703  11.496
70118W        W29555  29.061  41.786   0.823
70119W        W29556  11.661  17.131   0.327
70120W        W29557  42.494  18.190  11.536
70121W        W29558  21.726  41.345   1.304
70122W        W29559  21.649  28.599  12.468
70123W        W29560  37.976  36.508  13.923
70124W        W29561  23.496  43.313   0.250
70125W        W29562  29.646  37.981   2.275
70126W        W29563  26.552  34.970   2.808
70127W        W29564   2.329  20.164   1.893
70128W        W29565  32.106  22.163  14.333
70129W        W29566   1.862  15.089   1.890
70130W        W29567   7.762   0.299   4.336
70131W        W29568  18.053  24.200   1.736
70132W        W29569  22.142  40.929  14.872
70133W        W29570  34.912   1.832  11.594
70134W        W29571   0.455   1.916  12.043
70135W        W29572  19.086  10.641   0.771
70136W        W29573  37.486  29.960   2.207
70137W        W29574   0.967  13.792  13.313
70138W        W29575  33.616  38.013   0.885
70139W        W29576  42.429  36.029  14.305
70140W        W29577   0.452  28.005   0.392
70141W        W29578  31.120   9.680   0.915
70142W        W29579  43.510  38.897  11.529
70143W        W29580  25.686  17.072  13.315
70144W        W29581   9.392   3.876  10.545
70145W        W29582  41.001  26.457  11.514
70146W        W29583  27.154  37.577   2.226
70147W        W29584   7.378  25.634   0.330
70148W        W29585  31.430  10.818   0.845
70149W        W29586  32.919   0.316  10.929
70150W        W29587  43.463  28.140  14.771
70151W        W29588  21.084   7.832   2.791
70152W        W29589   9.370  19.689  14.401
70153W        W29590  25.616  34.109   4.135
70154W        W29591  28.142  20.134   1.833
70155W        W29592   2.924  14.320  12.450
70156W        W29593  12.736   4.433   1.763
70157W        W29594  11.374   6.748   1.305
70158W        W29595  25.089  35.396   1.788
70159W        W29596  14.181  36.846  14.912
70160W        W29597  20.171  29.496   3.380
70161W        W29598  42.796   0.256  14.839
70162W        W29599   5.821  25.174  14.821
70163W        W29600  32.481   0.390   0.841
70164W        W29601  30.592  26.966   0.879
70165W        W29602  11.636  26.003   0.423
70166W        W29603  43.403  20.222  10.511
70167W        W29604   2.432  13.170   1.831
70168W        W29605  41.792  25.527  13.025
70169W        W29606  19.540  22.505  12.403
70170W        W29607  18.685  14.780  12.449
70171W        W29608  18.643  20.197  11.874
70172W        W29609   4.270   0.799   4.158
70173W        W29610  35.515  19.748  13.000
70174W        W29611  19.056  43.790   0.288
70175W        W29612  10.216  36.360   0.806
70176W        W29613  31.606  35.519  11.086
70177W        W29614   2.797  20.151   2.869
70178W        W29615  26.548  18.231  12.033
70179W        W29616   7.209  42.368   1.788
70180W        W29617   8.404  24.630   2.266
70181W        W29618   8.160  21.202  14.934
70182W        W29619   1.264  40.428  11.577
70183W        W29620  14.278  35.404  13.899
70184W        W29621  28.095  25.980  11.490
70185W        W29622  35.875   2.237  12.580
70186W        W29623  34.967  32.465  11.513
70187W        W29624   2.264  15.704   2.336
70188W        W29625  41.358  34.585   1.335
70189W        W29626  37.055   4.842  14.341
70190W        W29627   0.892  32.132   2.869
70191W        W29628  34.569   3.323  10.533
70192W        W29629  27.103  44.882   4.264
70193W        W29630  20.094  42.380   3.221
70194W        W29631   2.837  30.051   3.196
70195W        W29632  14.289  26.532  14.889
70196W        W29633  39.372   4.439  11.099
70197W        W29634  21.254  11.682  13.395
70198W        W29635  21.553  35.873   3.838
70199W        W29636  41.394  21.608  10.519
70200W        W29637  18.547   5.687   2.710
70201W        W29638  11.295   8.308  13.413
70202W        W29639  41.957  37.975  14.770
70203W        W29640  36.930  18.557  12.075
70204W        W29641  31.010  13.156  13.017
70205W        W29642  32.582  31.407  11.013
70206W        W29643  28.058  29.613   2.733
70207W        W29644  27.059  36.870   0.242
70208W        W29645  18.296   9.303   1.832
70209W        W29646   4.721  33.096   1.818
70210W        W29647  27.490  39.034  12.882
70211W        W29648  30.922  22.191   4.785
70212W        W29649  19.281   6.851  11.084
70213W        W29650  32.397   5.273   1.794
70214W        W29651  10.707  21.568   0.819
70215W        W29652   0.397  24.197   4.684
70216W        W29653  15.243  22.204  10.578
70217W        W29654  15.583  19.111  11.024
70218W        W29655  13.328  24.003   2.749
70219W        W29656   4.757  35.581  11.980
70220W        W29657  36.911  17.627   0.834
70221W        W29658  39.412  38.491  13.010
70222W        W29659  11.298   8.700   1.699
70223W        W29660  16.573  35.024  11.922
70224W        W29661  32.034  43.508   5.249
70225W        W29662  44.952  13.172  13.436
70226W        W29663  30.527   3.876  14.307
70227W        W29664   2.867  17.291  12.851
70228W        W29665  13.639  28.115   2.745
70229W        W29666  28.090  13.250   2.228
70230W        W29667  24.083  43.849   3.685
70231W        W29668  15.087  27.580  12.454
70232W        W29669   3.862   6.357   1.240
70233W        W29670  25.195  42.837  10.510
70234W        W29671   8.818  33.404  11.398
70235W        W29672  13.243  12.705   4.127
70236W        W29673  36.932  29.603  10.504
70237W        W29674  16.604  26.647   4.182
70238W        W29675  41.298   8.195   4.180
70239W        W29676  19.153   0.754   1.427
70240W        W29677  12.320  29.151   2.826
70241W        W29678  34.402   6.909  13.380
70242W        W29679  20.082  17.570  14.942
70243W        W29680  34.395  13.779   3.328
70244W        W29681  18.227  35.587  10.466
70245W        W29682  42.482   5.797   0.267
70246W        W29683  43.434  29.171  13.047
70247W        W29684  30.558  22.604   3.312
70248W        W29685  43.800  40.992  13.949
70249W        W29686  17.065  18.715   3.192
70250W        W29687  33.884  30.959   4.189
70251W        W29688  28.543   0.309  14.831
70252W        W29689  30.605  35.988   3.299
70253W        W29690   9.880  23.637  12.916
70254W        W29691  35.503  40.475  14.974
70255W        W29692  22.099  39.842  11.440
70256W        W29693  13.721  29.569   1.294
70257W        W29694  25.471  25.534   0.931
70258W        W29695  35.533  18.098   2.864
70259W        W29696  26.647  32.480  14.018
70260W        W29697  28.176   9.670   2.902
70261W        W29698  26.653  38.924   0.300
70262W        W29699  32.519  28.459  14.921
70263W        W29700  21.048  34.865   3.285
70264W        W29701  18.156  26.592  12.517
70265W        W29702  37.367  23.668  11.107
70266W        W29703  24.627  37.443   1.243
70267W        W29704  34.459  16.205   1.821
70268W        W29705  15.309  25.629  12.526
70269W        W29706   0.901   3.273  12.075
70270W        W29707  34.535  30.092  12.027
70271W        W29708   1.463   5.689   2.406
70272W        W29709  36.867  13.603  13.940
70273W        W29710  14.606   4.397   2.837
70274W        W29711  28.485  24.512  10.934
70275W        W29712  28.570  32.889   3.856
70276W        W29713  28.563  29.003   4.293
70277W        W29714  12.340  19.719   1.309
70278W        W29715  28.972   2.790  12.932
70279W        W29716  37.425  36.849  13.511
70280W        W29717  26.116  36.513  10.620
70281W        W29718  13.814  43.942  12.881
70282W        W29719  17.180  25.646  14.783
70283W        W29720  32.631  41.863  11.571
70284W        W29721  15.661  31.934   2.322
70285W        W29722  29.117  17.076  13.004
70286W        W29723  34.550   4.701  13.442
70287W        W29724  39.015  33.998  14.340
70288W        W29725  13.119  41.002   0.759
70289W        W29726  24.567   3.227  13.860
70290W        W29727  23.099  16.741   0.381
70291W        W29728  25.575  42.960   0.246
70292W        W29729  14.671  37.963   1.831
70293W        W29730  22.592  12.616   4.741
70294W        W29731  32.922  36.432   0.856
70295W        W29732  18.632  34.574   1.222
70296W        W29733  26.531  39.048  11.504
70297W        W29734  36.541   9.211  13.883
70298W        W29735  18.583  36.022   0.934
70299W        W29736  28.623   8.763  11.018
70300W        W29737  39.370   9.887  12.937
70301W        W29738  26.031  13.349   2.357
70302W        W29739  15.184  16.176  14.770
70303W        W29740  14.166   9.731  11.098
70304W        W29741  43.819  11.639  11.594
70305W        W29742   0.778   5.292  10.569
70306W        W29743  28.517  26.669  12.998
70307W        W29744  38.972   7.718  11.939
70308W        W29745   9.370  19.079   2.877
70309W        W29746  27.179   1.812   2.416
70310W        W29747  26.468   6.693   2.279
70311W        W29748  29.055  12.265   9.476
70312W        W29749  20.153   7.889  10.985
70313W        W29750  41.350  43.937   2.378
70314W        W29751  23.228   0.903   3.305
70315W        W29752  12.696   3.431   5.088
70316W        W29753  23.492  33.523  14.956
70317W        W29754  27.549   2.373  12.830
70318W        W29755  32.126  33.608   5.266
70319W        W29756   9.278  40.388  11.866
70320W        W29757  11.758  36.870   4.716
70321W        W29758  19.607  44.265  12.054
70322W        W29759  18.188  16.180   1.794
70323W        W29760  42.304  31.634   4.211
70324W        W29761  43.947   2.792   1.735
70325W        W29762  32.412  27.567   1.232
70326W        W29763   0.336  40.917  10.444
70327W        W29764   8.305  10.853  12.430
70328W        W29765  15.814   1.748  13.943
70329W        W29766  35.891  22.137  11.051
70330W        W29767  28.450   2.873   4.247
70331W        W29768  18.057  31.013   4.151
70332W        W29769  41.397  18.649  10.983
70333W        W29770   2.723  17.165  12.435
70334W        W29771  24.600  19.268   1.367
70335W        W29772   2.791  34.406   0.301
70336W        W29773  28.572  38.004   4.167
70337W        W29774   6.742   6.740  11.455
70338W        W29775  12.822  14.643  12.395
70339W        W29776  18.113  24.708  11.894
70340W        W29777  36.905  17.182  11.975
70341W        W29778   1.781  43.468   2.304
70342W        W29779  36.915  31.955   9.999
70343W        W29780  17.790   1.241   0.749
70344W        W29781   8.388  25.978   4.344
70345W        W29782   6.399  30.537  11.075
70346W        W29783  17.635  19.259   2.889
70347W        W29784  40.533  28.028  12.949
70348W        W29785   7.874  27.000  13.464
70349W        W29786  19.131   2.396   3.841
70350W        W29787  18.555  41.448  10.561
70351W        W29788  12.317   9.783   4.144
70352W        W29789  10.636   7.224  13.938
70353W        W29790  24.105  24.701   2.833
70354W        W29791  41.330   2.885   0.334
70355W        W29792   9.708  11.256  14.437
70356W        W29793  33.587   8.796  13.509
70357W        W29794  15.291  27.064  12.445
70358W        W29795  39.936  31.522   3.737
70359W        W29796  36.067  19.159  13.969
70360W        W29797   8.755   4.940  12.472
70361W        W29798  42.805  40.451  10.903
70362W        W29799  31.070  12.322  14.385
70363W        W29800  26.167   9.883  10.536
70364W        W29801  25.608  18.550   5.262
70365W        W29802   7.874  27.087  11.886
70366W        W29803  27.669  25.551   2.697
70367W        W29804  24.224  31.564   3.861
70368W        W29805  21.674  43.289  12.894
70369W        W29806  26.462  13.165   5.729
70370W        W29807  43.430  33.956   4.815
70371W        W29808  21.046  19.200  13.412
70372W        W29809   4.239  36.974   2.702
70373W        W29810  37.895  20.738   3.720
70374W        W29811  26.152  22.599  10.476
70375W        W29812  13.727   1.816   4.824
70376W        W29813  34.882  24.012  10.046
70377W        W29814  11.254  29.944   2.193
70378W        W29815  22.171  16.233  13.314
70379W        W29816  31.950  41.872  14.013
70380W        W29817   4.321   0.909  13.343
70381W        W29818   4.428  44.912   2.765
70382W        W29819  44.836   2.414   4.695
70383W        W29820  23.087   6.779   4.709
70384W        W29821  10.181  41.373  14.018
70385W        W29822  20.230  29.425  11.868
70386W        W29823  39.449  27.139   3.847
70387W        W29824  27.571   8.401   1.753
70388W        W29825   1.451  32.579   1.866
70389W        W29826  14.808  40.516  12.372
70390W        W29827  42.853  30.163   1.844
70391W        W29828  29.550  20.215  12.479
70392W        W29829  12.775   8.261   2.731
70393W        W29830   1.419  20.067   4.713
70394W        W29831  11.201  16.627   2.266
70395W        W29832  33.051  25.627   0.264
70396W        W29833  41.430  34.443  13.988
70397W        W29834  22.125  26.687  10.468
70398W        W29835   1.472  28.520  14.329
70399W        W29836  29.503  21.225   3.808
70400W        W29837  11.257   8.297   2.815
70401W        W29838  40.027  13.723  12.478
70402W        W29839  25.176  34.120  11.080
70403W        W29840   6.330  42.885   4.309
70404W        W29841  16.211   0.936   4.663
70405W        W29842  42.033  15.614  13.351
70406W        W29843  39.975  28.077  14.932
70407W        W29844  37.361  37.960   0.940
70408W        W29845  21.221   3.757  11.002
70409W        W29846  14.734  31.116  13.312
70410W        W29847  16.635   5.358   3.175
70411W        W29848   8.796  32.954   4.773
70412W        W29849  37.378  32.579  13.839
70413W        W29850  39.508   8.400  11.408
70414W        W29851  36.924   9.849  13.010
70415W        W29852  19.607  12.852  12.952
70416W        W29853   9.784  22.604   0.327
70417W        W29854  39.363  38.993   3.704
70418W        W29855  39.014  26.115  13.050
70419W        W29856  23.086  36.038  11.376
70420W        W29857  31.933  23.564   2.873
70421W        W29858  11.786  20.079   2.698
70422W        W29859   5.385  21.516  12.892
70423W        W29860   6.908  29.013  13.460
70424W        W29861  25.699  36.431  13.848
70425W        W29862  11.270  37.855   0.800
70426W        W29863  16.633   6.312   3.634
70427W        W29864  27.953  18.661   1.427
70428W        W29865  21.206   5.723   4.667
70429W        W29866  32.068  43.333  12.469
70430W        W29867  20.187  21.229   4.667
70431W        W29868  37.347  31.909  11.568
70432W        W29869  13.787  29.629   0.774
70433W        W29870  32.976   4.251   0.354
70434W        W29871  22.194  26.961  13.852
70435W        W29872  39.991  14.211   2.200
70436W        W29873  37.924  28.495   1.229
70437W        W29874   0.938  31.480  13.899
70438W        W29875  28.062   6.798   3.345
70439W        W29876  35.506  19.200   2.891
70440W        W29877  39.877  27.072  11.929
70441W        W29878   8.657  41.506   0.409
70442W        W29879  20.098  35.020   2.823
70443W        W29880  22.033  35.449  14.812
70444W        W29881   0.832  34.599   2.785
70445W        W29882  35.402   7.396  14.327
70446W        W29883  28.497  34.541  10.406
70447W        W29884   4.718   7.245  11.128
70448W        W29885   8.795  40.830  12.888
70449W        W29886  13.686   8.832   1.795
70450W        W29887   6.683   3.227   0.844
70451W        W29888  31.618  41.414   1.771
70452W        W29889   9.765  42.434  13.878
70453W        W29890   0.327   3.330   3.680
70454W        W29891  40.537  30.484   2.686
70455W        W29892  10.163  22.720  13.023
70456W        W29893  38.518  25.170   4.345
70457W        W29894  40.309  16.722   3.346
70458W        W29895  24.717  38.944  13.041
70459W        W29896  27.589  22.215   4.613
70460W        W29897  30.603  19.222  14.950
70461W        W29898  29.016   1.841   1.283
70462W        W29899  21.755   8.345  12.546
70463W        W29900   1.780  24.643   1.368
70464W        W29901  27.061  19.215   3.705
70465W        W29902  12.141  38.956   4.692
70466W        W29903  13.737   3.950  11.115
70467W        W29904  30.959  18.559   0.465
70468W        W29905  24.054  20.185   1.827
70469W        W29906   0.771  15.206  10.975
70470W        W29907  27.549  26.525   1.227
70471W        W29908  30.633  39.459  12.500
70472W        W29909  41.487   0.279  13.504
70473W        W29910  38.013   2.277   3.831
70474W        W29911  15.673   3.257  13.059
70475W        W29912  15.155  17.307   2.705
70476W        W29913   5.821   4.218   2.281
70477W        W29914  16.257   9.851  10.591
70478W        W29915  24.722  26.013  13.986
70479W        W29916   5.705   6.788   2.257
70480W        W29917  36.041  41.856   1.719
70481W        W29918  44.819  18.252   2.288
70482W        W29919  10.304  27.945   0.343
70483W        W29920  20.712  17.171  13.517
70484W        W29921  16.736  40.034   0.356
70485W        W29922  12.685  15.274   2.787
70486W        W29923  14.165   5.756   4.119
70487W        W29924  20.597  38.499   3.870
70488W        W29925  28.029  17.142  10.579
70489W        W29926  17.296  25.694  12.382
70490W        W29927   9.879  21.165  11.907
70491W        W29928  43.335  36.976  13.523
70492W        W29929  36.003  25.558   1.314
70493W        W29930  39.357  26.615   4.268
70494W        W29931   3.395  35.953   4.664
70495W        W29932  37.868  18.230  14.966
70496W        W29933  33.979  37.838  11.028
70497W        W29934   7.362  33.556   1.433
70498W        W29935  32.105  44.393  12.030
70499W        W29936  27.458  29.535  12.475
70500W        W29937  10.844  30.097  14.873
70501W        W29938  17.587  10.853   1.235
70502W        W29939  32.898  39.907   0.837
70503W        W29940  17.176  41.992  11.910
70504W        W29941  32.928   9.253  11.054
70505W        W29942  24.076  31.542   1.268
70506W        W29943  29.508  25.220   1.425
70507W        W29944  25.033  40.004   3.650
70508W        W29945  31.637  10.752  11.899
70509W        W29946  40.948  26.028   3.752
70510W        W29947   7.398  43.967   1.436
70511W        W29948  42.394  22.235   3.265
70512W        W29949   6.825  41.420  12.879
70513W        W29950  18.193   8.716  11.611
70514W        W29951   3.868   1.328  14.805
70515W        W29952  10.774   6.370   4.153
70516W        W29953  41.950  42.319   1.847
70517W        W29954  32.058  20.179   4.752
70518W        W29955  12.177  25.212  11.891
70519W        W29956  18.559  38.070   1.912
70520W        W29957  33.618  18.296   2.828
70521W        W29958   0.787  21.693  12.041
70522W        W29959  30.993   6.248  13.443
70523W        W29960  39.928   4.759   0.757
70524W        W29961  17.084   3.295  10.547
70525W        W29962  16.194  23.047  12.935
70526W        W29963   2.779  33.008   4.601
70527W        W29964  10.849   8.342   0.895
70528W        W29965  38.051  35.428   2.215
70529W        W29966   5.196  35.566   0.387
70530W        W29967  11.154   5.429  14.916
70531W        W29968  20.067  26.074   0.884
70532W        W29969  28.475  43.964  12.993
70533W        W29970  40.389  23.141   3.728
70534W        W29971  24.633   1.814   4.135
70535W        W29972  33.061  12.855  12.513
70536W        W29973   8.655   4.372   3.152
70537W        W29974  43.832  20.685  11.000
70538W        W29975   8.789  27.058  14.445
70539W        W29976  40.340  11.706  12.828
70540W        W29977  42.452  20.597  13.436
70541W        W29978   2.885  36.548   2.302
70542W        W29979   4.297  37.580  13.400
70543W        W29980   9.386  15.761  12.435
70544W        W29981  38.450  22.541  12.879
70545W        W29982  31.134  20.740  11.611
70546W        W29983   5.745  11.324   3.700
70547W        W29984   5.714   5.890  11.888
70548W        W29985  11.677  13.684   1.212
70549W        W29986  40.927   6.887  11.579
70550W        W29987   3.946  22.738   1.876
70551W        W29988  24.157  35.491   1.338
70552W        W29989  22.079  20.107   0.467
70553W        W29990  28.983  35.880   4.636
70554W        W29991   1.387  11.812   9.641
70555W        W29992  11.136   5.799  10.417
70556W        W29993  41.518  13.646   0.397
70557W        W29994  25.017  30.102  12.945
70558W        W29995  44.925  38.427   3.264
70559W        W29996  33.977   4.218   3.647
70560W        W29997  27.005   1.401   1.864
70561W        W29998  31.439   4.772  13.043
70562W        W29999  41.306   8.387  14.310
70563W        W30000   9.166  17.698  10.550
70564W        W30001  32.561  18.633  12.996
70565W        W30002   9.199  18.675  14.908
70566W        W30003  31.593  33.005   2.218
70567W        W30004  30.010  30.487   1.912
70568W        W30005  31.455  39.383  12.477
70569W        W30006  41.320  19.087  13.055
70570W        W30007  41.833  39.559  10.904
70571W        W30008  23.054  18.096   1.341
70572W        W30009   8.803  27.056  11.065
70573W        W30010  25.693   9.691  13.057
70574W        W30011  38.003  44.918   4.137
70575W        W30012   3.846  32.461  13.933
70576W        W30013  37.923  37.335   1.790
70577W        W30014  26.033   6.268  13.400
70578W        W30015  44.340  22.113  14.848
70579W        W30016   7.191  32.119   0.315
70580W        W30017  20.263   7.680   2.669
70581W        W30018  36.431  23.565  11.550
70582W        W30019  39.477  29.504  13.967
70583W        W30020  35.040  43.848   4.762
70584W        W30021  40.371  14.761   2.878
70585W        W30022  18.239  43.513   4.780
70586W        W30023  21.725  25.109  14.903
70587W        W30024  15.658  18.099   3.746
70588W        W30025  42.811   5.779   1.843
70589W        W30026  21.123  44.794   5.081
70590W        W30027  14.693  27.079   0.829
70591W        W30028  16.259  21.057  13.868
70592W        W30029  17.638  20.089  13.515
70593W        W30030  34.973  21.110  12.858
70594W        W30031  16.284  30.002   2.333
70595W        W30032  42.369  13.313   4.665
70596W        W30033   7.290  15.796  11.452
70597W        W30034  14.172  28.976  11.019
70598W        W30035  15.279   1.845   0.279
70599W        W30036  38.328  27.591   2.317
70600W        W30037  43.973  24.038  13.334
70601W        W30038  40.542  14.710  11.529
70602W        W30039   6.404  11.634   1.320
70603W        W30040   8.218  17.731  11.481
70604W        W30041   8.212  11.821   4.258
70605W        W30042  26.483   3.812   2.300
70606W        W30043  11.754  37.574  13.541
70607W        W30044  44.759   5.716   3.740
70608W        W30045   9.381  25.161   3.333
70609W        W30046  10.384  12.123  12.391
70610W        W30047  30.108   8.733   3.653
70611W        W30048   9.304  35.067   0.853
70612W        W30049  19.147   7.868   2.787
70613W        W30050  23.508   6.183   1.389
70614W        W30051   7.316   8.797  11.479
70615W        W30052  31.632  44.895   2.744
70616W        W30053   4.306  42.299  11.948
70617W        W30054  25.656  34.953  12.866
70618W        W30055   2.296  26.668   4.178
70619W        W30056  33.418  11.793   1.350
70620W        W30057  23.005  30.151   1.430
70621W        W30058  21.045  39.030   2.330
70622W        W30059  33.961  27.115  11.075
70623W        W30060  17.281  36.956   3.809
70624W        W30061  12.680   6.856   2.388
70625W        W30062  40.337  12.228   3.336
70626W        W30063  11.319  31.618   1.401
70627W        W30064  31.988  12.765   4.782
70628W        W30065  21.602   5.884  10.912
70629W        W30066  26.954  34.017  12.480
70630W        W30067  40.897   1.813  11.035
70631W        W30068   6.832  27.508  14.445
70632W        W30069   8.381  25.994  12.439
70633W        W30070  33.131  23.585  14.371
70634W        W30071  32.447  23.186  11.486
70635W        W30072  22.508  24.709   3.731
70636W        W30073  41.973  21.083  13.544
70637W        W30074  11.149  16.768  14.370
70638W        W30075   6.857  12.338  10.899
70639W        W30076  14.820  36.008   1.397
70640W        W30077  37.413  13.156  14.298
70641W        W30078   2.926   1.395   0.790
70642W        W30079  30.130  24.993   3.275
70643W        W30080  19.177  25.110   3.737
70644W        W30081  41.997   4.215   0.800
70645W        W30082  41.852  44.385   2.665
70646W        W30083  40.878  16.158   2.392
70647W        W30084   5.819  39.436   2.243
70648W        W30085  41.830  40.904   4.730
70649W        W30086  13.269  38.875  11.020
70650W        W30087  31.971  29.100  13.384
70651W        W30088  29.517  26.670   4.771
70652W        W30089  22.101  39.340   3.701
70653W        W30090   2.288  15.764  13.826
70654W        W30091  33.018  35.097  13.023
70655W        W30092  36.056  37.457  10.576
70656W        W30093   7.374  40.021   1.813
70657W        W30094  28.072  36.438  14.943
70658W        W30095  38.406   7.361   0.452
70659W        W30096  18.095  19.666   4.128
70660W        W30097   5.844   3.330  14.957
70661W        W30098  26.513   0.985   1.910
70662W        W30099  31.054  21.693   3.160
70663W        W30100  25.671  15.635   0.360
70664W        W30101  39.900   7.277  13.035
70665W        W30102   0.300  16.728   2.757
70666W        W30103  25.023  21.203   2.300
70667W        W30104  33.437  38.839   0.464
70668W        W30105   5.414  29.517   2.745
70669W        W30106  22.044  24.677   3.294
70670W        W30107  16.631  25.046  14.471
70671W        W30108  29.608   5.318  13.373
70672W        W30109  12.226   4.269   2.243
70673W        W30110  38.476   4.760   1.297
70674W        W30111  12.235  13.806   2.663
70675W        W30112  38.429  44.286  10.644
70676W        W30113  15.131  37.496  12.874
70677W        W30114  40.304  40.390   4.779
70678W        W30115   1.263  15.319  13.318
70679W        W30116  15.197  18.770   1.245
70680W        W30117  44.824  29.508  12.875
70681W        W30118  33.126  36.545   3.249
70682W        W30119  38.965   1.953  11.390
70683W        W30120  32.075   4.800  12.901
70684W        W30121   9.248   4.862   1.704
70685W        W30122   3.869  30.124  11.100
70686W        W30123  19.542  38.416   4.242
70687W        W30124   9.208  15.803  10.612
70688W        W30125   5.322  25.998   0.960
70689W        W30126  23.215  40.402   4.723
70690W        W30127   6.319   9.287  14.008
70691W        W30128  18.141  14.817   4.278
70692W        W30129  37.476  38.372  12.419
70693W        W30130  43.274   0.770  12.965
70694W        W30131  18.286   6.194   4.317
70695W        W30132  10.864  37.351  13.384
70696W        W30133   5.759  28.435  10.100
70697W        W30134   6.335   7.245  11.015
70698W        W30135  33.941  24.598   2.793
70699W        W30136  44.457  32.028  12.063
70700W        W30137  34.091  38.900  11.576
70701W        W30138  39.878  30.958   3.344
70702W        W30139  44.313  42.887   0.388
70703W        W30140  16.081  22.050  13.855
70704W        W30141  20.547  18.138   2.800
70705W        W30142  25.003  18.607  10.611
70706W        W30143  43.989  30.991  14.351
70707W        W30144  17.178  34.407  13.503
70708W        W30145   4.402  38.479  13.953
70709W        W30146  40.984  25.589  14.776
70710W        W30147  11.780  19.147   1.920
70711W        W30148  24.593  25.083   3.360
70712W        W30149  12.145   6.384   2.287
70713W        W30150   5.822   7.865  13.350
70714W        W30151   5.813  17.684  13.395
70715W        W30152   2.229  31.601   3.250
70716W        W30153  44.465   3.390  13.410
70717W        W30154  30.486  41.023  12.965
70718W        W30155   6.398  30.652   4.189
70719W        W30156  26.536  18.200   1.300
70720W        W30157   2.902  39.392   0.891
70721W        W30158   2.395  30.988  12.577
70722W        W30159  32.914  20.241   0.961
70723W        W30160  28.186  42.485   2.272
70724W        W30161  36.047   1.910   4.122
70725W        W30162  20.129   5.842   4.138
70726W        W30163   2.356  37.009   1.382
70727W        W30164   0.389  32.013  13.996
70728W        W30165  28.016   7.728  10.565
70729W        W30166  16.267  36.928   1.394
70730W        W30167  19.052  30.001   1.876
70731W        W30168  26.660  23.139  13.866
70732W        W30169  12.256  31.425   0.309
70733W        W30170  35.538  21.593   4.711
70734W        W30171  32.126  18.296  14.019
70735W        W30172  23.639   4.333  12.947
70736W        W30173  16.660  13.702   3.263
70737W        W30174  21.193  40.315   9.676
70738W        W30175   9.390   2.819  14.974
70739W        W30176  32.537  14.726  13.387
70740W        W30177   6.187  10.860  10.125
70741W        W30178  19.762  14.693  11.863
70742W        W30179  38.826   6.703  12.919
70743W        W30180   1.951  17.082   0.771
70744W        W30181  43.448   2.798  12.401
70745W        W30182  43.359   0.949  10.425
70746W        W30183   0.829  17.066  11.931
70747W        W30184  20.663   0.871  10.905
70748W        W30185   9.249  19.541   3.245
70749W        W30186  16.314  40.019   3.236
70750W        W30187  38.429   8.380  10.435
70751W        W30188   4.943  31.631  10.406
70752W        W30189  16.219  39.872  11.435
70753W        W30190   8.223  15.704  13.894
70754W        W30191  20.729  40.044   3.665
70755W        W30192  24.066  14.104   2.675
70756W        W30193   8.696  12.821   1.223
70757W        W30194  24.585   0.806  13.831
70758W        W30195  43.937   0.443   2.721
70759W        W30196  24.537  14.723  12.847
70760W        W30197  12.776   2.912   4.778
70761W        W30198  25.663  24.591   4.205
70762W        W30199  41.363  15.612   2.885
70763W        W30200  33.061  23.231   1.264
70764W        W30201  13.243  20.212   1.360
70765W        W30202   5.931  30.506  13.982
70766W        W30203  30.010  13.345   4.292
70767W        W30204  37.476  30.492   2.367
70768W        W30205   9.763   2.851  14.327
70769W        W30206  30.971  14.165  11.550
70770W        W30207   5.892  27.031   3.340
70771W        W30208  37.349   5.704  14.433
70772W        W30209  17.767  42.307   2.242
70773W        W30210   0.857  30.519   2.282
70774W        W30211  28.442  35.908  10.456
70775W        W30212   1.855  29.497  11.093
70776W        W30213   9.694  21.530  14.382
70777W        W30214  28.652  12.227   4.171
70778W        W30215   8.883  31.085  10.418
70779W        W30216  39.341  17.087  14.283
70780W        W30217  16.589  37.008  14.369
70781W        W30218   6.843  32.130   0.292
70782W        W30219  18.705  42.851   0.443
70783W        W30220  26.063   8.333  14.976
70784W        W30221  19.167  27.629  11.952
70785W        W30222  17.233  39.360   2.202
70786W        W30223   4.830  24.036   2.294
70787W        W30224  42.471   8.203   1.352
70788W        W30225  44.975  30.958   2.271
70789W        W30226   8.393  41.478  13.009
70790W        W30227   3.778   8.829   0.470
70791W        W30228  27.638  25.973  11.549
70792W        W30229  18.208   7.802   3.809
70793W        W30230  27.991  28.163   0.965
70794W        W30231  43.452  28.063   4.797
70795W        W30232  41.303  32.927   0.358
70796W        W30233  25.572  17.776   4.248
70797W        W30234  23.734   3.714  11.380
70798W        W30235   3.410  28.093  12.012
70799W        W30236  31.140  17.713  11.012
70800W        W30237  26.987  14.594   5.117
70801W        W30238  19.630  25.179  12.953
70802W        W30239  25.696  35.584  14.300
70803W        W30240   5.889   2.813  12.094
70804W        W30241  35.084  40.431   0.815
70805W        W30242   9.377  22.691  11.392
70806W        W30243  25.697  28.592  13.367
70807W        W30244  41.466  18.295   3.697
70808W        W30245  38.876  11.288   4.153
70809W        W30246  18.768  27.445  10.953
70810W        W30247   4.875  44.460   3.748
70811W        W30248   5.299  26.657   3.670
70812W        W30249   3.300  15.761   0.392
70813W        W30250  43.288  20.157   3.806
70814W        W30251  19.257  23.689  13.451
70815W        W30252  30.568  26.178  13.882
70816W        W30253  12.211  23.577   2.684
70817W        W30254  34.475  23.664   1.704
70818W        W30255  36.581   8.893   4.705
70819W        W30256  14.113  27.023  13.909
70820W        W30257   9.196  31.906   1.408
70821W        W30258  24.083   7.183  10.064
70822W        W30259  29.585  15.719  11.604
70823W        W30260   2.284  41.436   2.207
70824W        W30261  22.574  13.757  10.439
70825W        W30262  29.656  26.491   3.284
70826W        W30263   7.346  42.410   3.846
70827W        W30264   8.210  18.058  14.307
70828W        W30265  14.278  33.042  11.965
70829W        W30266  18.603  23.230  14.023
70830W        W30267  31.003  25.193   5.293
70831W        W30268   4.885   5.867  11.572
70832W        W30269  40.534  25.134  10.407
70833W        W30270  42.010   1.813   4.701
70834W        W30271   4.276  31.093  12.513
70835W        W30272  24.504   0.765   3.341
70836W        W30273  10.297  16.611   2.199
70837W        W30274  44.892  40.964  14.307
70838W        W30275   8.724  22.567  14.847
70839W        W30276  12.775  30.493  13.413
70840W        W30277  22.678  13.779   2.689
70841W        W30278  36.592   9.669  12.074
70842W        W30279  27.973  25.603   3.235
70843W        W30280  30.913  17.246  11.557
70844W        W30281  16.766  15.135   4.215
70845W        W30282  22.016   9.740  14.402
70846W        W30283  38.550  33.066  12.077
70847W        W30284   7.897  11.331   3.692
70848W        W30285  38.833  36.394  11.480
70849W        W30286  44.775   5.236   3.696
70850W        W30287  16.632  42.509   0.309
70851W        W30288  23.691   2.340   2.379
70852W        W30289  39.492  24.543   1.829
70853W        W30290  12.201   4.812   2.893
70854W        W30291  35.038  33.952  11.911
70855W        W30292   4.353  18.121  11.932
70856W        W30293  18.135  14.249   4.831
70857W        W30294   1.914   8.776  13.905
70858W        W30295   9.724  26.679   3.232
70859W        W30296  11.741  35.854  10.510
70860W        W30297  10.340  42.977   0.832
70861W        W30298  35.405  33.926  12.863
70862W        W30299   6.303  20.099  11.034
70863W        W30300  35.498  42.793   5.088
70864W        W30301  13.649   9.179  13.327
70865W        W30302   7.252  23.656   3.834
70866W        W30303  29.566   6.908   2.685
70867W        W30304  20.264   5.924  11.958
70868W        W30305  20.202  30.640  14.947
70869W        W30306  42.896  32.462  14.996
70870W        W30307  13.774  14.717   1.310
70871W        W30308   8.857  34.431  14.984
70872W        W30309  36.437   3.729   1.212
70873W        W30310  13.603  18.082   2.684
70874W        W30311  30.622  14.712   0.460
70875W        W30312  41.394   0.340   3.750
70876W        W30313  18.102   7.399  10.536
70877W        W30314  44.943  34.999   0.938
70878W        W30315   8.829   2.821  12.890
70879W        W30316  20.104   5.335   0.301
70880W        W30317  29.594  10.709  14.346
70881W        W30318  44.885  33.943   4.837
70882W        W30319  14.264  39.356  11.052
70883W        W30320   0.839  30.095   3.267
70884W        W30321  39.528   9.211  14.291
70885W        W30322   8.207  43.388   3.348
70886W        W30323  28.010  24.102   0.367
70887W        W30324  14.320  37.986   1.326
70888W        W30325  23.125  35.449   3.795
70889W        W30326  22.546  31.628  13.308
70890W        W30327   1.378   9.239   3.172
70891W        W30328  38.331   7.327  10.921
70892W        W30329  32.926  11.280  10.436
70893W        W30330   9.393  37.506  11.577
70894W        W30331  31.495   3.342   2.227
70895W        W30332  39.899   3.430  14.988
70896W        W30333   5.918  17.589   3.731
70897W        W30334  39.930  25.640  12.985
70898W        W30335   3.296  27.530   1.216
70899W        W30336  44.444  33.574   1.841
70900W        W30337  14.764  27.582   0.898
70901W        W30338  11.804  27.496  12.946
70902W        W30339  35.549  42.458   3.195
70903W        W30340  21.209   0.796  11.613
70904W        W30341  13.661   8.849   4.649
70905W        W30342  32.907  20.602   1.374
70906W        W30343  43.846   3.769   1.299
70907W        W30344  39.005  34.038   3.816
70908W        W30345  38.032  40.969   1.695
70909W        W30346   6.842  17.646  11.966
70910W        W30347  29.150  25.517  12.849
70911W        W30348  21.051  30.476  10.121
70912W        W30349   6.197  10.784   2.893
70913W        W30350  41.367  30.442  14.008
70914W        W30351  16.663  26.128  13.515
70915W        W30352  29.664  15.714  12.001
70916W        W30353  42.924   8.285   3.638
70917W        W30354  21.218  17.747  10.583
70918W        W30355  36.408   6.730  14.329
70919W        W30356  28.628  16.208   1.752
70920W        W30357   4.937  29.476   4.680
70921W        W30358  33.558  35.110  13.328
70922W        W30359  18.730   3.282  12.538
70923W        W30360  18.093   9.811   0.408
70924W        W30361  17.107  18.074   0.449
70925W        W30362   3.273   8.364  11.562
70926W        W30363   1.787  24.615   2.846
70927W        W30364  33.119  23.520   0.955
70928W        W30365  22.082  19.622   1.879
70929W        W30366  14.721  29.066   4.751
70930W        W30367   2.776  43.499   4.684
70931W        W30368  24.642  26.122   1.343
70932W        W30369  15.216  28.470  10.496
70933W        W30370  26.507  31.586   3.315
70934W        W30371  12.739  21.628   0.446
70935W        W30372  19.070  31.985   4.727
70936W        W30373  12.734   8.868   0.480
70937W        W30374  18.676  19.658  14.952
70938W        W30375  37.927  41.411   3.157
70939W        W30376  31.011  12.633   1.442
70940W        W30377   8.346  22.129  13.817
70941W        W30378   9.796  37.892  13.810
70942W        W30379  39.957  32.564  11.404
70943W        W30380  32.123  20.765  11.936
70944W        W30381  17.763  26.057  14.762
70945W        W30382  36.457   8.857  12.515
70946W        W30383  40.892  31.544  10.499
70947W        W30384  29.661  33.129   3.284
70948W        W30385   4.929  14.709   4.213
70949W        W30386   8.734  26.063   2.213
70950W        W30387  13.670  14.322  14.472
70951W        W30388   4.305  30.922   4.124
70952W        W30389  35.015  26.038   0.447
70953W        W30390  33.987  11.129   3.198
70954W        W30391  40.803  28.087  14.323
70955W        W30392  34.084  44.405  12.451
70956W        W30393  37.464  37.484   1.351
70957W        W30394  11.313   1.373   0.350
70958W        W30395  39.933  34.008  13.392
70959W        W30396   4.252  24.030   2.326
70960W        W30397   9.745   1.304  11.073
70961W        W30398  15.650  12.353  13.816
70962W        W30399  29.094   2.366  13.534
70963W        W30400  21.114   7.363  10.513
70964W        W30401  10.256  35.953  14.501
70965W        W30402  29.973  10.378  10.547
70966W        W30403  16.737  33.921   2.820
70967W        W30404  12.336   3.241   0.754
70968W        W30405  18.245  30.567   4.146
70969W        W30406   5.388  33.406  10.452
70970W        W30407  23.660  15.112   1.405
70971W        W30408  33.504  27.044   0.795
70972W        W30409  14.266  28.665   3.293
70973W        W30410  15.632  23.219  13.948
70974W        W30411  44.338   4.334   0.936
70975W        W30412  43.839  13.149   2.667
70976W        W30413   9.181  11.811   3.845
70977W        W30414  23.162  39.526   2.301
70978W        W30415  29.102   6.679   0.961
70979W        W30416  27.112   5.741  12.550
70980W        W30417  42.328   0.862   2.294
70981W        W30418  22.034   4.781   0.443
70982W        W30419   0.788  28.570  10.492
70983W        W30420   1.394  42.469  11.603
70984W        W30421   2.792  39.838  11.399
70985W        W30422  43.836  35.494  14.768
70986W        W30423  31.552   9.847   4.173
70987W        W30424  16.187   9.199   1.922
70988W        W30425  15.134   8.843   0.301
70989W        W30426  32.039   4.909   4.771
70990W        W30427  13.613  39.966  10.563
70991W        W30428  22.145  23.110  14.988
70992W        W30429   1.790   8.216  14.410
70993W        W30430  24.670  17.063   2.805
70994W        W30431  31.507  29.119  13.849
70995W        W30432  22.504   7.400  13.374
70996W        W30433  26.126  42.463   3.751
70997W        W30434  11.822  26.207   4.638
70998W        W30435  20.633  20.645   0.874
70999W        W30436  19.636   1.454  12.977
71000W        W30437  20.625  29.972  12.896
71001W        W30438  41.320  20.262  11.457
71002W        W30439  19.664  28.555  10.621
71003W        W30440   3.394  19.633   4.264
71004W        W30441  25.088  15.099   2.880
71005W        W30442   9.192   4.311   4.187
71006W        W30443  41.291  31.045   0.449
71007W        W30444   4.218  30.440   4.776
71008W        W30445  37.035  22.653   0.477
71009W        W30446  20.049  32.958   4.647
71010W        W30447  13.799  18.202   0.364
71011W        W30448  27.083  19.630   0.825
71012W        W30449  11.762  37.398  12.437
71013W        W30450   7.353  21.152  10.037
71014W        W30451  13.605  39.396  14.016
71015W        W30452  20.197   5.694   3.160
71016W        W30453  22.165  43.290  11.102
71017W        W30454  31.068   6.776   2.285
71018W        W30455  28.557  35.039  10.621
71019W        W30456  35.591  40.458  12.522
71020W        W30457  35.870  36.496   2.189
71021W        W30458  17.779  43.905   5.187
71022W        W30459   5.211  42.937   4.634
71023W        W30460   4.756  32.594  14.355
71024W        W30461   2.279  14.276   5.101
71025W        W30462   0.844   4.393   2.803
71026W        W30463   4.358  29.530  10.991
71027W        W30464  28.067   2.424  12.034
71028W        W30465  19.261  33.560   0.798
71029W        W30466   1.253  31.042  13.410
71030W        W30467   2.931   6.233   3.183
71031W        W30468  20.045  32.005   2.666
71032W        W30469  42.922  20.204  13.063
71033W        W30470  14.754   3.712  10.405
71034W        W30471  14.248  31.032  12.866
71035W        W30472  27.108  42.000   4.329
71036W        W30473  24.480   6.358   1.234
71037W        W30474  13.144  30.040   3.293
71038W        W30475   9.286  17.270   1.863
71039W        W30476  17.618  24.207   3.365
71040W        W30477  43.369  19.611  10.429
71041W        W30478   0.803  14.808  11.492
71042W        W30479  22.125  44.454  14.945
71043W        W30480  20.068  14.825   4.261
71044W        W30481  31.441  28.078   3.804
71045W        W30482  16.567  17.792   0.964
71046W        W30483  12.740  22.103  10.427
71047W        W30484  16.711  32.632  12.414
71048W        W30485  37.526  23.703   0.786
71049W        W30486   8.267  41.845   4.316
71050W        W30487   7.886   9.756   2.825
71051W        W30488  19.231  38.961  12.408
71052W        W30489  28.134  43.941  12.539
71053W        W30490  10.760  12.193  13.497
71054W        W30491  15.650  30.615   3.372
71055W        W30492  23.717  22.716   0.256
71056W        W30493  25.599   8.656   2.831
71057W        W30494  23.062  30.649   4.187
71058W        W30495   7.829  35.393   2.205
71059W        W30496  20.580  24.673   3.850
71060W        W30497  36.578  10.749  11.602
71061W        W30498   7.823  38.007   2.793
71062W        W30499  24.570  14.830   1.336
71063W        W30500  29.064  22.650   0.910
71064W        W30501  28.455  17.100   4.639
71065W        W30502  35.472  30.981  14.498
71066W        W30503   2.429  44.357   3.157
71067W        W30504  31.918  28.482  10.604
71068W        W30505  23.526  19.545  12.871
71069W        W30506  17.716  27.106   0.329
71070W        W30507  42.994  29.455   2.725
71071W        W30508  23.654  43.970   4.215
71072W        W30509  18.776  17.248  12.400
71073W        W30510  40.444  24.041   2.255
71074W        W30511  20.183  23.584   3.667
71075W        W30512  17.269  39.975  11.961
71076W        W30513  44.816  19.716   1.881
71077W        W30514   0.469  43.888  12.058
71078W        W30515  37.843  23.177  13.863
71079W        W30516  43.842   0.411  13.426
71080W        W30517  19.096   7.774   1.249
71081W        W30518   3.413  42.952   1.855
71082W        W30519  28.539  38.326  14.957
71083W        W30520  12.154  15.808  10.979
71084W        W30521  36.929  43.945   0.425
71085W        W30522   7.805  19.537  11.577
71086W        W30523  38.408  31.933  10.936
71087W        W30524  33.441   5.376  14.781
71088W        W30525  16.214  44.342  12.020
71089W        W30526   6.411   8.241  13.497
71090W        W30527   9.269  30.604   0.917
71091W        W30528   8.338  40.389  14.356
71092W        W30529  37.396   8.705   2.259
71093W        W30530   2.253  11.793   1.228
71094W        W30531  21.617  21.714   1.886
71095W        W30532  40.836  13.246   4.685
71096W        W30533   9.312  29.506   4.666
71097W        W30534  20.749  42.921   4.826
71098W        W30535  40.446  21.108   1.794
71099W        W30536  30.520  38.908   3.212
71100W        W30537   3.873  30.114   3.757
71101W        W30538  41.452  13.689  11.480
71102W        W30539  24.046   8.299   4.138
71103W        W30540  33.965  23.203   0.289
71104W        W30541  42.361   8.803  12.975
71105W        W30542  44.944  18.057   2.737
71106W        W30543  16.720  17.305  14.395
71107W        W30544  24.999  19.553   2.724
71108W        W30545  25.636  32.087  11.036
71109W        W30546  39.040   9.784   1.390
71110W        W30547   0.478  19.616  11.096
71111W        W30548  14.306  15.134  10.413
71112W        W30549   4.322  21.162   4.732
71113W        W30550  25.544  13.638   9.596
71114W        W30551  12.328   3.860   2.707
71115W        W30552  10.807  41.982  10.921
71116W        W30553  22.602  14.188  14.446
71117W        W30554  42.931  16.221  12.392
71118W        W30555  32.046  24.605   0.253
71119W        W30556  40.395  44.762   0.323
71120W        W30557  41.962  25.572  14.814
71121W        W30558  22.683   0.890   0.443
71122W        W30559  17.077  43.979   3.189
71123W        W30560  42.805  19.535   3.162
71124W        W30561  35.459  41.954   2.661
71125W        W30562  20.730  24.156  11.029
71126W        W30563  30.130   3.892  14.946
71127W        W30564  37.087  40.427   1.305
71128W        W30565  28.679  20.678   4.114
71129W        W30566  31.152  18.125   3.832
71130W        W30567   6.248  33.413  14.835
71131W        W30568  25.120  11.686  12.007
71132W        W30569  20.156  35.958   1.909
71133W        W30570  19.685  32.966   2.869
71134W        W30571  41.507  19.764  11.584
71135W        W30572  44.427  42.849  12.452
71136W        W30573   7.718  20.078   2.764
71137W        W30574  10.356  17.567  14.318
71138W        W30575  44.999  23.170  11.860
71139W        W30576  14.720   8.173  12.024
71140W        W30577  23.732  34.461  14.294
71141W        W30578   9.706  39.866   2.751
71142W        W30579  20.534   4.854  13.487
71143W        W30580  18.172  33.563  12.504
71144W        W30581  16.649  36.348  12.026
71145W        W30582  20.079  29.020   1.775
71146W        W30583  37.024  22.630  14.381
71147W        W30584  41.460   5.796  12.020
71148W        W30585  42.483  26.988   4.232
71149W        W30586  35.536  42.356   2.249
71150W        W30587   0.488   4.846  13.927
71151W        W30588  38.500  13.747   0.268
71152W        W30589   9.211  28.588   9.947
71153W        W30590  26.976  43.400  14.861
71154W        W30591  29.545  17.732  11.451
71155W        W30592   3.277  13.328  12.398
71156W        W30593   1.750  25.645   4.648
71157W        W30594   4.931  25.587   1.401
71158W        W30595  34.595  13.626   0.378
71159W        W30596  17.089  16.132   0.291
71160W        W30597  21.173  12.202  12.979
71161W        W30598  38.894  11.319  10.548
71162W        W30599  34.474  21.264  14.305
71163W        W30600  18.141  31.972   4.286
71164W        W30601  37.348  37.575  10.576
71165W        W30602  40.862  17.093   2.337
71166W        W30603  27.606  31.643  12.056
71167W        W30604  17.709  22.651  13.503
71168W        W30605  21.723   0.252   3.269
71169W        W30606  30.511  22.008   1.436
71170W        W30607  26.997  15.718  10.504
71171W        W30608  39.516  40.302  14.413
71172W        W30609  40.485   4.803   1.719
71173W        W30610  21.667  10.817  14.772
71174W        W30611   7.689  12.199  12.089
71175W        W30612  38.557  42.430  11.468
71176W        W30613  41.992  22.577  14.491
71177W        W30614  13.807  43.323   1.399
71178W        W30615   1.922  16.584   2.672
71179W        W30616  18.074  18.072  10.506
71180W        W30617  32.048   6.311   4.624
71181W        W30618   3.887  43.921  11.901
71182W        W30619  42.319  17.148  14.511
71183W        W30620  24.079  14.684  14.344
71184W        W30621  14.801   4.222  14.487
71185W        W30622  35.871   3.884  11.023
71186W        W30623  17.096  23.195  14.511
71187W        W30624   0.873  26.607   3.640
71188W        W30625  10.696  18.755   0.266
71189W        W30626  15.209  15.126   1.869
71190W        W30627  16.749  38.842  13.432
71191W        W30628  15.680  44.982  13.992
71192W        W30629   8.784  18.215   4.144
71193W        W30630  41.354   8.789   1.847
71194W        W30631  33.884  20.163   3.368
71195W        W30632   8.293  20.030  10.601
71196W        W30633  13.735  43.873  13.893
71197W        W30634  32.520  40.408  14.948
71198W        W30635  27.553  12.313  13.986
71199W        W30636  11.735  44.788   2.348
71200W        W30637  34.560   0.278  11.085
71201W        W30638  40.002  16.719  14.881
71202W        W30639   4.748  43.771  12.021
71203W        W30640  33.596  37.036  10.558
71204W        W30641   6.781  26.613   2.259
71205W        W30642  23.521   0.932  13.450
71206W        W30643  26.035  41.893  10.557
71207W        W30644   9.704   0.761   4.237
71208W        W30645  10.345  36.045   0.340
71209W        W30646  17.190   6.838  10.963
71210W        W30647  29.460  29.536  14.988
71211W        W30648  13.130  25.591  12.939
71212W        W30649  40.020  20.656  11.431
71213W        W30650   2.467  28.138  14.357
71214W        W30651  33.410  39.521   0.806
71215W        W30652  19.715  40.322   4.826
71216W        W30653  23.528   9.206  13.898
71217W        W30654  18.546  32.444   0.861
71218W        W30655  21.217  31.916   3.778
71219W        W30656  14.289  39.499   2.817
71220W        W30657  16.675  14.149  14.302
71221W        W30658  17.187  22.714   0.297
71222W        W30659  43.439   4.307   0.899
71223W        W30660   5.737  42.385   0.388
71224W        W30661   4.224  29.549   2.344
71225W        W30662  37.946   3.249  12.864
71226W        W30663  18.751  15.092  14.302
71227W        W30664  42.890  12.699  13.955
71228W        W30665  39.373  22.644   3.680
71229W        W30666  40.504  31.532  13.458
71230W        W30667   8.886  24.216   3.727
71231W        W30668  11.300  44.421   2.755
71232W        W30669  16.676   5.712   1.232
71233W        W30670   6.424  27.507  12.389
71234W        W30671  34.531  26.554  11.085
71235W        W30672  35.575  14.685  11.430
71236W        W30673   0.439  26.042   1.425
71237W        W30674   3.381  34.032   0.940
71238W        W30675  10.197  38.415   3.671
71239W        W30676  18.094  34.588   0.816
71240W        W30677  31.594  27.528   9.922
71241W        W30678   8.325   5.695  13.392
71242W        W30679  30.548  41.499  11.575
71243W        W30680   1.327  19.669  11.967
71244W        W30681  10.344  37.514  14.980
71245W        W30682  15.199  23.616   0.775
71246W        W30683  41.308  16.722  12.091
71247W        W30684  36.551  17.112   1.255
71248W        W30685  16.579  42.425  11.396
71249W        W30686  17.229  35.957  11.948
71250W        W30687  23.005  10.716  13.337
71251W        W30688  13.264  17.780   1.744
71252W        W30689  15.757  28.508   2.178
71253W        W30690  23.542  28.039   1.796
71254W        W30691   0.333   3.391   1.352
71255W        W30692  16.664  26.062  11.076
71256W        W30693  34.547   3.340  11.893
71257W        W30694  36.588   8.302  11.456
71258W        W30695   3.424  41.316  13.901
71259W        W30696  37.398  38.383   9.540
71260W        W30697  24.547  17.290   3.688
71261W        W30698   7.687  17.683  12.484
71262W        W30699  20.595   9.385   2.677
71263W        W30700  14.799  32.508  14.340
71264W        W30701  20.720  21.544  12.077
71265W        W30702   9.704  17.164   2.238
71266W        W30703   0.349  41.016   2.361
71267W        W30704  43.980  39.450   0.324
71268W        W30705  39.938   2.416  14.009
71269W        W30706  27.677   3.406  10.999
71270W        W30707   6.249  38.924  14.955
71271W        W30708  24.687  42.896   0.404
71272W        W30709  21.064   2.872   4.605
71273W        W30710  16.202  36.400  12.016
71274W        W30711   2.834   2.379  13.902
71275W        W30712  23.095   8.367  11.425
71276W        W30713  44.330   2.744  14.867
71277W        W30714  37.076  25.711  14.306
71278W        W30715  21.127   5.302  11.064
71279W        W30716   8.865  16.578   1.373
71280W        W30717  16.208   7.818  14.457
71281W        W30718  18.224   5.711  11.552
71282W        W30719  25.476  34.410   3.629
71283W        W30720  33.041  30.422   0.744
71284W        W30721  25.683  19.198   2.673
71285W        W30722  24.048   3.241   5.109
71286W        W30723  19.096  13.198  13.541
71287W        W30724  12.827  18.773   3.216
71288W        W30725  16.614  39.411  10.469
71289W        W30726   6.405   2.762   4.315
71290W        W30727  27.135  31.568  13.542
71291W        W30728   7.737  19.557   5.267
71292W        W30729  32.018  18.653   4.178
71293W        W30730  12.771  19.040   3.638
71294W        W30731  31.102  29.530   2.408
71295W        W30732   3.384  33.955  14.773
71296W        W30733  30.074  20.723   4.166
71297W        W30734  27.181  17.287   2.744
71298W        W30735  28.116  17.203   3.308
71299W        W30736  16.595  23.228   1.754
71300W        W30737  44.812  24.997   2.377
71301W        W30738  22.025  41.520   2.836
71302W        W30739   5.298  29.157   5.208
71303W        W30740   7.799   5.793   0.927
71304W        W30741  37.019   0.443  12.859
71305W        W30742   4.386  34.995   4.790
71306W        W30743  22.248   0.929  13.363
71307W        W30744   3.782  20.738   4.214
71308W        W30745  36.092   0.748  12.020
71309W        W30746  36.413  21.618   4.597
71310W        W30747  44.825  29.541  13.402
71311W        W30748  36.917  21.197  13.445
71312W        W30749  11.638  37.860  10.019
71313W        W30750  43.819   0.847  11.597
71314W        W30751  41.826  18.608  11.067
71315W        W30752   9.233  25.705  14.873
71316W        W30753  36.962   1.732  10.608
71317W        W30754  18.772  25.602  14.888
71318W        W30755  40.383  21.056  13.465
71319W        W30756  10.334  37.066   3.836
71320W        W30757  38.858  12.220  11.985
71321W        W30758   9.306   9.377   2.299
71322W        W30759   9.789  25.473  10.424
71323W        W30760  18.724  30.478  13.829
71324W        W30761  15.084   9.766  12.463
71325W        W30762  32.098  30.650  14.318
71326W        W30763  35.540  34.609  13.421
71327W        W30764  11.751   2.266  12.533
71328W        W30765  39.368   3.420  11.036
71329W        W30766  22.741  20.235   2.370
71330W        W30767  15.114  39.059   1.907
71331W        W30768  14.208  38.454   0.896
71332W        W30769  30.086  22.547   1.210
71333W        W30770  39.845  31.405  12.344
71334W        W30771  32.536  34.037   2.829
71335W        W30772  19.688   8.289   1.267
71336W        W30773  12.248  19.179   4.798
71337W        W30774  38.458  29.012   3.725
71338W        W30775  10.315  30.080   0.896
71339W        W30776  44.774   7.176   1.800
71340W        W30777  44.965  13.150  13.994
71341W        W30778   6.193  38.433  13.967
71342W        W30779  19.187  28.049  11.121
71343W        W30780  15.285  32.069   1.720
71344W        W30781  35.023   0.419  11.871
71345W        W30782   9.875  34.411  11.876
71346W        W30783  36.847  16.632   2.833
71347W        W30784  20.548  10.703  11.588
71348W        W30785   9.355  27.193   3.756
71349W        W30786  32.906  15.769   3.153
71350W        W30787  40.969  24.222  14.964
71351W        W30788   9.317  23.073  12.995
71352W        W30789  37.516  12.138  13.034
71353W        W30790  35.887   0.412   3.196
71354W        W30791  10.809  35.984  11.877
71355W        W30792  35.520   1.274  12.400
71356W        W30793  17.173   5.836  11.006
71357W        W30794   5.320   1.805   1.747
71358W        W30795  16.768  42.314  14.290
71359W        W30796  18.595  12.746  13.518
71360W        W30797  22.730  20.755   1.294
71361W        W30798  26.648   6.333  13.387
71362W        W30799   1.468  43.990   2.250
71363W        W30800  44.278  30.553   2.683
71364W        W30801   0.442  16.211   1.880
71365W        W30802  13.608   8.323   4.750
71366W        W30803  41.870  42.386  13.517
71367W        W30804  26.568  32.397   0.348
71368W        W30805  13.346  34.119   0.955
71369W        W30806  42.998  17.183   5.179
71370W        W30807   5.803  39.506   0.369
71371W        W30808   2.840  23.198   1.714
71372W        W30809  13.714  43.460   2.405
71373W        W30810  15.729  38.855  13.469
71374W        W30811  42.470  37.391  13.848
71375W        W30812  41.340  29.950   1.900
71376W        W30813  29.022  34.060  14.364
71377W        W30814  26.967  27.553   4.355
71378W        W30815  42.487  29.940   2.820
71379W        W30816  34.549  28.542   2.309
71380W        W30817  39.829   1.275   3.176
71381W        W30818  19.240  30.140  11.480
71382W        W30819  39.936  42.962   4.821
71383W        W30820   4.377  18.780   4.758
71384W        W30821  24.655  15.790  12.869
71385W        W30822  12.268   7.361   1.818
71386W        W30823  29.669  39.517  11.937
71387W        W30824   1.371  39.430   0.947
71388W        W30825  21.120  21.670  10.919
71389W        W30826  33.528  30.464   1.922
71390W        W30827  25.503  22.997   2.717
71391W        W30828  31.080   9.756   0.322
71392W        W30829  10.850   7.289   3.253
71393W        W30830  15.605   5.858  10.444
71394W        W30831   0.407  27.527  12.573
71395W        W30832  28.096  20.198   4.645
71396W        W30833  38.364  14.232   3.334
71397W        W30834  41.797  26.495   1.321
71398W        W30835  11.233   9.185   4.622
71399W        W30836  36.923  24.005   2.900
71400W        W30837  15.223  22.664   2.384
71401W        W30838   6.368  21.560   1.730
71402W        W30839  34.997  28.117  13.365
71403W        W30840  36.578   9.807  11.457
71404W        W30841   9.305  37.473   5.310
71405W        W30842  42.002   7.864   3.382
71406W        W30843   9.335  34.080   1.211
71407W        W30844  18.052  15.582   1.902
71408W        W30845  31.985  19.630  13.813
71409W        W30846  43.951  34.407  13.485
71410W        W30847  36.382   8.883  10.619
71411W        W30848  15.662   8.854   1.712
71412W        W30849  25.641  26.507  11.448
71413W        W30850  17.251  24.117  13.517
71414W        W30851  11.670  17.074  10.425
71415W        W30852  28.960   6.719  11.070
71416W        W30853  11.720  10.709   1.895
71417W        W30854   0.980  13.672  11.925
71418W        W30855  24.675  25.633   1.877
71419W        W30856  11.137  37.892   3.216
71420W        W30857   3.241  10.799  13.353
71421W        W30858  27.984  22.086  12.876
71422W        W30859   1.971   9.730   3.740
71423W        W30860   9.790  30.654  14.503
71424W        W30861  41.437   1.242   0.370
71425W        W30862  10.266  35.392   3.167
71426W        W30863   9.332  11.655  14.820
71427W        W30864  37.512   5.708  13.374
71428W        W30865  12.261  31.567  11.410
71429W        W30866   5.411  44.416  14.906
71430W        W30867  27.042  21.120   0.882
71431W        W30868  24.146  43.277   2.803
71432W        W30869  43.395   2.455  10.914
71433W        W30870  24.478  22.042  11.943
71434W        W30871  32.608   9.816  11.546
71435W        W30872  19.609  39.452   4.720
71436W        W30873  44.294  32.011  10.619
71437W        W30874   2.781   7.860   3.770
71438W        W30875  28.544  20.269  13.800
71439W        W30876  35.379  41.480  14.849
71440W        W30877   2.943   5.207   3.301
71441W        W30878  17.289  35.545   3.702
71442W        W30879   6.365  25.616  11.979
71443W        W30880  44.767  23.221  14.305
71444W        W30881  27.959   6.269   2.741
71445W        W30882   3.345  36.471  10.559
71446W        W30883  24.722  42.327   0.340
71447W        W30884  41.881  35.974   0.830
71448W        W30885  30.116   3.886  12.093
71449W        W30886   9.795  20.092  12.522
71450W        W30887  13.168   3.418  10.979
71451W        W30888   4.216   3.431  10.895
71452W        W30889  37.028  37.880  12.970
71453W        W30890  38.415  20.071   1.439
71454W        W30891   3.935  33.044   0.478
71455W        W30892  38.976  35.433   0.837
71456W        W30893  28.183   4.216  14.957
71457W        W30894   2.912  44.311   3.673
71458W        W30895   8.866   5.338  10.613
71459W        W30896   9.164   8.371  12.886
71460W        W30897  21.716  27.981   4.282
71461W        W30898   0.369  30.560  13.969
71462W        W30899   7.279   2.440  10.432
71463W        W30900  41.882  20.575  13.512
71464W        W30901   0.300   1.416   1.848
71465W        W30902  38.046  39.824   0.373
71466W        W30903  11.846   5.310  12.912
71467W        W30904  23.710  20.091  14.872
71468W        W30905  30.114  37.085  11.929
71469W        W30906   3.331   6.412  10.477
71470W        W30907  17.706  35.513  11.965
71471W        W30908   3.294  21.711   1.244
71472W        W30909  22.211  25.192  12.877
71473W        W30910  31.611  30.146  10.438
71474W        W30911  20.207   1.407  10.555
71475W        W30912  21.551  44.945   2.722
71476W        W30913  19.170  15.225  14.924
71477W        W30914  40.975   8.388  12.836
71478W        W30915  31.138  37.844  12.850
71479W        W30916  37.494  44.399  13.420
71480W        W30917  17.199   6.259   2.188
71481W        W30918   6.807  30.103  13.987
71482W        W30919  31.923  39.389  13.948
71483W        W30920  44.810  22.697   0.735
71484W        W30921  31.062  40.813  12.420
71485W        W30922  38.918  27.015  11.978
71486W        W30923  35.467  39.876  13.026
71487W        W30924  34.007  18.198  13.060
71488W        W30925  17.732  21.132  10.593
71489W        W30926  23.182  14.292  14.827
71490W        W30927  18.200   2.230   2.283
71491W        W30928  27.176   1.357  12.855
71492W        W30929  39.466  33.087   3.194
71493W        W30930   3.300   8.890  12.905
71494W        W30931   1.313   1.303  13.513
71495W        W30932  13.732  29.125   2.688
71496W        W30933  42.861   1.264   2.728
71497W        W30934  37.054  41.831   3.728
71498W        W30935  41.913  38.898  13.389
71499W        W30936  36.360  22.564  12.460
71500W        W30937  21.263  21.519   4.304
71501W        W30938  29.640   2.379   2.785
71502W        W30939   8.405  44.895   1.820
71503W        W30940  28.597  38.988   2.364
71504W        W30941  28.524  25.001   2.765
71505W        W30942   0.821  29.946  13.989
71506W        W30943  13.836  38.009   1.391
71507W        W30944  32.921   7.845  13.440
71508W        W30945   6.699  23.596  11.994
71509W        W30946  18.212  13.214  10.508
71510W        W30947  10.274  37.566   0.829
71511W        W30948  33.042  36.939   0.278
71512W        W30949   6.784   3.317   1.324
71513W        W30950   8.191   0.394  10.474
71514W        W30951  39.356  17.279   3.177
71515W        W30952  29.573   6.823  14.895
71516W        W30953   7.725  29.547   1.699
71517W        W30954  39.536  16.219  14.991
71518W        W30955  11.142   4.808   0.925
71519W        W30956  22.093  25.211  13.929
71520W        W30957  29.606   5.218   3.162
71521W        W30958  30.433  34.033  13.519
71522W        W30959  43.802  19.142   3.329
71523W        W30960  25.538   0.972   1.263
71524W        W30961  33.508  19.661   2.412
71525W        W30962  30.480  17.126   2.255
71526W        W30963  42.782  38.431   4.245
71527W        W30964  27.978  19.575   3.722
71528W        W30965  11.839  40.513  10.064
71529W        W30966   7.408   2.472   4.130
71530W        W30967  38.324  14.819   2.826
71531W        W30968  13.308  35.595   1.820
71532W        W30969  18.064  19.638   0.442
71533W        W30970   2.876  28.123  13.878
71534W        W30971  10.271  27.061  13.060
71535W        W30972  17.662  29.594  12.940
71536W        W30973   4.895  23.647   4.169
71537W        W30974  40.025  25.080   0.878
71538W        W30975  24.175  15.594   0.242
71539W        W30976  34.440  35.897   3.211
71540W        W30977  25.698  43.893   1.368
71541W        W30978  14.786  42.954   1.754
71542W        W30979  37.349  15.247   3.639
71543W        W30980  22.044  13.801  12.992
71544W        W30981   6.212  19.181  14.883
71545W        W30982  27.461   8.289  10.598
71546W        W30983  43.371   8.803  14.917
71547W        W30984  14.302  18.683   5.288
71548W        W30985  27.174  23.027  12.373
71549W        W30986  44.910  18.771  12.093
71550W        W30987  13.351   7.676  13.372
71551W        W30988  24.132  12.125  14.907
71552W        W30989   4.276   1.448  10.548
71553W        W30990  11.624  29.567  13.468
71554W        W30991  37.480  36.879   2.238
71555W        W30992   2.342  34.874  12.532
71556W        W30993  44.887  21.740  12.060
71557W        W30994   4.265   1.328   2.767
71558W        W30995  30.644  17.248  10.480
71559W        W30996  23.671  21.180  12.058
71560W        W30997  26.608  41.898  14.031
71561W        W30998  15.781  13.765   1.414
71562W        W30999  41.860  42.902   1.398
71563W        W31000  23.069  15.809   0.308
71564W        W31001  40.411  27.482  14.419
71565W        W31002  13.672  16.640   1.786
71566W        W31003   0.491  11.145  14.760
71567W        W31004  31.110   6.759   3.359
71568W        W31005   4.763  22.185  11.070
71569W        W31006  42.388   4.442  10.488
71570W        W31007   4.398   0.389   2.207
71571W        W31008  30.631   9.702  14.801
71572W        W31009   9.354  19.198   4.181
71573W        W31010  40.862  37.867   1.264
71574W        W31011  14.808   3.453   0.350
71575W        W31012  30.974  44.483   2.866
71576W        W31013  39.905   0.965   3.831
71577W        W31014  34.535  32.427   1.783
71578W        W31015  14.299   7.899  11.878
71579W        W31016  28.512  34.563   1.835
71580W        W31017  34.497  28.504   3.192
71581W        W31018  14.817  34.400   4.659
71582W        W31019  42.521   9.260  13.031
71583W        W31020  33.976  29.511   1.225
71584W        W31021  41.839   8.317   2.275
71585W        W31022  39.043  21.250   1.222
71586W        W31023   0.827  38.485   3.685
71587W        W31024  14.136  19.549  11.542
71588W        W31025   9.709  34.446   4.809
71589W        W31026  17.745  39.966   2.772
71590W        W31027  40.894   4.444  12.945
71591W        W31028  16.198   3.314   3.706
71592W        W31029  33.501  30.558   2.755
71593W        W31030   1.330  26.970  11.082
71594W        W31031  38.537  37.937   1.211
71595W        W31032  40.913  44.764  13.503
71596W        W31033   9.889  16.155  11.529
71597W        W31034  21.040  37.837  13.336
71598W        W31035  18.708  35.526  12.901
71599W        W31036  26.635  27.557  11.951
71600W        W31037   4.324  40.839  13.388
71601W        W31038   8.763  24.704   4.712
71602W        W31039  37.927  37.428  10.907
71603W        W31040   1.734  44.791  12.436
71604W        W31041  28.966  29.933   1.283
71605W        W31042   8.660   9.192  10.930
71606W        W31043   0.876  42.032  10.966
71607W        W31044   0.931   9.373   2.289
71608W        W31045  41.525  42.319   3.363
71609W        W31046  12.361  15.145   3.846
71610W        W31047  19.232  33.131   2.663
71611W        W31048  12.689  44.866   2.215
71612W        W31049  17.077  17.770  11.574
71613W        W31050  29.567  31.575  13.849
71614W        W31051  10.807  34.449   2.802
71615W        W31052  12.237  30.468  13.038
71616W        W31053  38.460  33.385   0.740
71617W        W31054  23.715  12.734  12.457
71618W        W31055   5.767  28.138  14.925
71619W        W31056  28.583   9.177  10.996
71620W        W31057   3.400  37.970  14.496
71621W        W31058  31.934   5.798   2.717
71622W        W31059  44.491  34.061  12.353
71623W        W31060  23.617  28.659   3.686
71624W        W31061  21.140  31.489   2.260
71625W        W31062  14.683   4.434   3.631
71626W        W31063   6.763  32.505  11.918
71627W        W31064  17.607  23.521   4.634
71628W        W31065   4.911  44.436  11.120
71629W        W31066  34.416  21.056   0.419
71630W        W31067  17.609   7.405  11.880
71631W        W31068  33.113  16.300  13.392
71632W        W31069  39.372  31.612  12.474
71633W        W31070  42.493  31.946  11.092
71634W        W31071  13.241   1.317  11.579
71635W        W31072  18.660  38.897   2.718
71636W        W31073  35.508  17.597  11.999
71637W        W31074  43.856  17.228   0.290
71638W        W31075  40.505  36.895  14.963
71639W        W31076  19.148  33.918  10.534
71640W        W31077  22.166  27.663   3.753
71641W        W31078   0.403  29.657  12.039
71642W        W31079   2.229  32.591  12.342
71643W        W31080  28.934  21.581  12.062
71644W        W31081  26.476  10.301  12.425
71645W        W31082  14.261  14.150   3.744
71646W        W31083  21.071  30.524  12.049
71647W        W31084   7.896  23.505   2.228
71648W        W31085  12.353   7.239  14.299
71649W        W31086  27.008  25.086   4.320
71650W        W31087   2.805  38.861   3.315
71651W        W31088  17.110  28.504  10.519
71652W        W31089  33.035  44.347  13.056
71653W        W31090  24.593  23.179  14.871
71654W        W31091  41.844  39.340   4.754
71655W        W31092  24.190  21.115  12.470
71656W        W31093  36.462  21.112   4.751
71657W        W31094  23.241   4.421  13.930
71658W        W31095  31.439  15.085   1.354
71659W        W31096  41.983  13.802   2.777
71660W        W31097   7.270  41.405  14.323
71661W        W31098  35.869  24.563   2.734
71662W        W31099   8.740  24.011  11.594
71663W        W31100  30.121  22.117  10.644
71664W        W31101  38.326  10.142   2.240
71665W        W31102   6.355   8.172  12.378
71666W        W31103   1.283  41.442   0.297
71667W        W31104  35.389  35.448  11.879
71668W        W31105   1.747  42.861   2.290
71669W        W31106  29.510  32.599  11.012
71670W        W31107  31.997  33.402   2.673
71671W        W31108  15.199   1.394  14.849
71672W        W31109  35.464   1.808   3.803
71673W        W31110  19.239   4.402  11.381
71674W        W31111   5.691  19.559  11.521
71675W        W31112   4.834  42.511   4.186
71676W        W31113  16.807   2.331   4.306
71677W        W31114  10.339  41.984  12.844
71678W        W31115  18.196  30.496   1.214
71679W        W31116  36.970  21.689  11.551
71680W        W31117  38.871  21.679   4.277
71681W        W31118  11.159  24.480  10.541
71682W        W31119  23.159  22.525  12.493
71683W        W31120  42.447  17.190   0.276
71684W        W31121  14.250  33.955   1.889
71685W        W31122  23.137  18.652   4.173
71686W        W31123  15.692  32.506   0.283
71687W        W31124   0.277  43.416   1.834
71688W        W31125  19.068  15.590  13.440
71689W        W31126  34.433  28.022   3.297
71690W        W31127  15.730  12.618   3.810
71691W        W31128  30.613  19.209  13.036
71692W        W31129  11.717  28.130   4.815
71693W        W31130  34.452  29.103  13.365
71694W        W31131  16.663   6.838  13.343
71695W        W31132  18.103  10.167   2.682
71696W        W31133  25.496  12.831   1.284
71697W        W31134  16.739  11.741  11.993
71698W        W31135   7.292   8.212   0.460
71699W        W31136  29.130   9.177   3.823
71700W        W31137   1.453  37.435   2.875
71701W        W31138  22.733  36.381   0.854
71702W        W31139   4.909   6.317  11.018
71703W        W31140  21.095  23.101  13.442
71704W        W31141   6.775  44.818  10.432
71705W        W31142   9.812  43.857  10.515
71706W        W31143  12.721  24.532   2.282
71707W        W31144  35.423  24.034   0.470
71708W        W31145   8.253  20.119  11.470
71709W        W31146  19.159   8.726  13.496
71710W        W31147  19.745  29.578  12.475
71711W        W31148  26.953  38.438  13.331
71712W        W31149   2.925  16.230   3.631
71713W        W31150  18.643  21.753   2.873
71714W        W31151  21.041   2.942  14.834
71715W        W31152   3.885   1.763   0.796
71716W        W31153  33.048  34.393   0.846
71717W        W31154  16.701   1.793   2.204
71718W        W31155  41.319  22.097   3.661
71719W        W31156  21.536  31.578  10.488
71720W        W31157   8.164  41.851   3.849
71721W        W31158  42.422  12.148  11.095
71722W        W31159  25.043   9.819   4.314
71723W        W31160  39.976  44.929  13.439
71724W        W31161  37.856   9.204   4.679
71725W        W31162   4.814  44.879  10.478
71726W        W31163  33.090   4.837   3.171
71727W        W31164  43.802  21.173   0.781
71728W        W31165  25.046   5.295   4.316
71729W        W31166  10.789  12.674   4.169
71730W        W31167  43.339  23.691   4.830
71731W        W31168  35.570   7.910   2.729
71732W        W31169  43.390  38.906   3.858
71733W        W31170  13.218  14.612  11.523
71734W        W31171  40.430  27.077  14.445
71735W        W31172  29.929  26.162   1.793
71736W        W31173   1.451  41.993  14.371
71737W        W31174  10.273  13.627  12.850
71738W        W31175  37.520   2.396   2.367
71739W        W31176   4.238   0.920   1.231
71740W        W31177  10.792  36.931  13.802
71741W        W31178  13.300  31.004  10.557
71742W        W31179   4.287  10.152   3.170
71743W        W31180  40.426   2.845   0.262
71744W        W31181  11.179  26.668  13.926
71745W        W31182  32.046  15.086  13.958
71746W        W31183  27.987   7.252   2.268
71747W        W31184   5.890  17.308  13.031
71748W        W31185  38.842  27.164   0.891
71749W        W31186   0.839   4.714  13.821
71750W        W31187  36.990  26.596   2.412
71751W        W31188  41.311   2.803   1.446
71752W        W31189  19.548   3.449   4.201
71753W        W31190  41.041  10.779  13.364
71754W        W31191  15.220  38.864  10.589
71755W        W31192  35.938  44.963  11.051
71756W        W31193   2.810  12.212  12.440
71757W        W31194  23.222   1.440  14.310
71758W        W31195  29.926   2.363  14.980
71759W        W31196  11.202  37.982  14.016
71760W        W31197  30.967   1.385   4.657
71761W        W31198   8.678  13.833  10.415
71762W        W31199  30.623  13.174  10.581
71763W        W31200  33.901  25.500  11.890
71764W        W31201  10.809  32.143  12.966
71765W        W31202  11.701  13.179  11.605
71766W        W31203  11.674   1.247  12.927
71767W        W31204  12.632  31.419  13.915
71768W        W31205   9.650  28.627  10.552
71769W        W31206  41.958  19.153  14.858
71770W        W31207  29.463  19.536  12.513
71771W        W31208  12.158  25.480   1.330
71772W        W31209  15.214   6.698   4.803
71773W        W31210  19.205  10.201   3.311
71774W        W31211  10.163  23.178   0.910
71775W        W31212   7.685   8.864  13.030
71776W        W31213  29.972  42.994  11.075
71777W        W31214  35.895  10.362   2.226
71778W        W31215  39.829  37.356  10.490
71779W        W31216  39.062  13.129  11.063
71780W        W31217  12.633  23.619   2.194
71781W        W31218  28.110  10.321   2.795
71782W        W31219  10.249   6.280  10.912
71783W        W31220  18.665  13.202   4.304
71784W        W31221  16.772  38.543   0.874
71785W        W31222  21.238  18.683  12.073
71786W        W31223  15.084  11.749  10.410
71787W        W31224  21.095   3.313  10.480
71788W        W31225   7.773   0.822  12.404
71789W        W31226   4.340  19.590   4.713
71790W        W31227  34.568   2.750  14.404
71791W        W31228   9.668  10.167  14.016
71792W        W31229  31.406  11.757  14.935
71793W        W31230  16.788  21.604  11.550
71794W        W31231  11.258   4.909   1.829
71795W        W31232  15.654  26.469   2.286
71796W        W31233   9.382  42.313   0.955
71797W        W31234  37.554   6.900   4.342
71798W        W31235  24.695  10.656  13.847
71799W        W31236  37.954  18.144   1.364
71800W        W31237  28.020  16.278   4.726
71801W        W31238  13.152  21.124   2.351
71802W        W31239  43.514  27.524  14.326
71803W        W31240  10.318  33.909  12.374
71804W        W31241   9.394  43.318  11.993
71805W        W31242  39.822   3.324   4.123
71806W        W31243   1.402  25.713  12.871
71807W        W31244  41.354  21.202   1.320
71808W        W31245   8.199  11.197  12.000
71809W        W31246  15.691  17.668  10.548
71810W        W31247  37.432  38.874  11.093
71811W        W31248  26.113  25.188   2.347
71812W        W31249  28.616  13.786   1.234
71813W        W31250  36.529   3.915  14.416
71814W        W31251   4.908  39.988  10.001
71815W        W31252  36.911  16.616   1.722
71816W        W31253   1.871  22.531   0.328
71817W        W31254  30.490  18.593   1.926
71818W        W31255  29.426  38.016   3.348
71819W        W31256  10.301  17.149  14.908
71820W        W31257  25.205  17.161   1.446
71821W        W31258   2.286   8.804  14.512
71822W        W31259  27.688  41.943  13.490
71823W        W31260   2.917  27.133   1.756
71824W        W31261   0.320  41.454  14.379
71825W        W31262   1.397  17.584   5.637
71826W        W31263  42.862   7.232   1.898
71827W        W31264  19.141   4.884   3.830
71828W        W31265  28.460   6.904   1.449
71829W        W31266   3.887  39.899   3.377
71830W        W31267  26.208  33.065  13.860
71831W        W31268   3.388  24.973   4.644
71832W        W31269  20.638   4.845  11.019
71833W        W31270  39.890  44.351  12.381
71834W        W31271  18.789  15.202  13.312
71835W        W31272  43.822  37.513   3.767
71836W        W31273  32.617  18.575  12.372
71837W        W31274  33.101  28.084  12.465
71838W        W31275  34.577  37.537   4.720
71839W        W31276  17.601  11.669   3.357
71840W        W31277  14.705  37.010   1.844
71841W        W31278  17.083  36.882   2.378
71842W        W31279   0.442  36.975  10.477
71843W        W31280  22.521  20.050  14.032
71844W        W31281  41.352  24.502  10.564
71845W        W31282  26.534  33.975   4.271
71846W        W31283  44.989   3.334   4.210
71847W        W31284  28.459  36.514  12.439
71848W        W31285   3.413   1.420  11.015
71849W        W31286  13.248   7.911   2.734
71850W        W31287  10.874  25.985  11.951
71851W        W31288   6.346   3.313   1.775
71852W        W31289  36.910  14.155  12.573
71853W        W31290   4.778  29.631   0.265
71854W        W31291  33.511  12.253  14.421
71855W        W31292  16.306  37.968   3.636
71856W        W31293  19.125  32.124  13.055
71857W        W31294  27.040  12.620  14.883
71858W        W31295   4.261   9.306   4.742
71859W        W31296  24.032  42.899   0.917
71860W        W31297  11.232   9.782   3.239
71861W        W31298   7.839   8.222  14.410
71862W        W31299  12.265  34.474   1.430
71863W        W31300  24.653   0.871  10.968
71864W        W31301  19.652   4.228  10.980
71865W        W31302  31.548  19.078  10.433
71866W        W31303  29.936  38.333   0.847
71867W        W31304  14.628  35.072  14.967
71868W        W31305  29.158  35.415  10.430
71869W        W31306   9.217  29.564   0.446
71870W        W31307  13.793   8.246  11.926
71871W        W31308  36.455   9.233  14.849
71872W        W31309   7.822  37.947  13.968
71873W        W31310  39.403  27.660   4.627
71874W        W31311  38.011  28.483   0.434
71875W        W31312  29.651  44.956  10.490
71876W        W31313  44.453  31.461  14.366
71877W        W31314  18.674  40.337  14.497
71878W        W31315  20.205  25.696   4.144
71879W        W31316  33.921  13.626  14.899
71880W        W31317  44.958  39.553   4.119
71881W        W31318  14.761  13.710  11.520
71882W        W31319   0.963  30.042  13.475
71883W        W31320  19.689  12.234  14.410
71884W        W31321  41.807   4.372  10.992
71885W        W31322  39.438  22.620   4.188
71886W        W31323  35.380  19.269   2.353
71887W        W31324  44.940  22.666  13.921
71888W        W31325  23.234  38.012  12.842
71889W        W31326  12.298  37.544   4.757
71890W        W31327  36.059  18.151   0.823
71891W        W31328  13.821  26.633   3.194
71892W        W31329   4.361  21.184   1.414
71893W        W31330   4.835   4.755   2.277
71894W        W31331  32.105  13.604  12.865
71895W        W31332   6.828  31.933  11.855
71896W        W31333  23.579  37.004  11.557
71897W        W31334  19.279  37.432  12.868
71898W        W31335  25.504  11.355   1.283
71899W        W31336   0.787  30.641   4.242
71900W        W31337  15.265  43.954  10.547
71901W        W31338   9.698   4.308  11.935
71902W        W31339  10.733  25.207  12.889
71903W        W31340  10.311   0.918  13.933
71904W        W31341  36.034  39.323  14.329
71905W        W31342  28.183  25.630  11.857
71906W        W31343  15.658  14.752  10.559
71907W        W31344   9.199  22.096  13.932
71908W        W31345  10.325  29.431   3.359
71909W        W31346   3.903  11.168   3.756
71910W        W31347   6.202   7.241   9.985
71911W        W31348  13.792  14.767  13.960
71912W        W31349   5.373  24.021  11.412
71913W        W31350  21.611  10.323  12.064
71914W        W31351  29.153  32.612  10.984
71915W        W31352  35.363   8.781   3.806
71916W        W31353  11.775   7.390  11.441
71917W        W31354  27.985  25.966  13.883
71918W        W31355  17.659  24.551  12.434
71919W        W31356  30.914  25.038   4.748
71920W        W31357  27.536  43.996  13.048
71921W        W31358  20.716  19.680   3.147
71922W        W31359   9.750  20.186   0.951
71923W        W31360   1.367  23.597   1.746
71924W        W31361   5.770  34.394   1.722
71925W        W31362  24.144  40.384   1.837
71926W        W31363  40.468  24.687   1.760
71927W        W31364  14.168  22.210   1.750
71928W        W31365  40.369  33.942   4.650
71929W        W31366  30.543  22.070   3.839
71930W        W31367  30.567  28.603   4.657
71931W        W31368  23.611  24.065  14.920
71932W        W31369  32.480  20.567   3.182
71933W        W31370  18.744   1.449   3.674
71934W        W31371  21.241  42.981   2.366
71935W        W31372  40.424  30.053  11.989
71936W        W31373  32.490  10.639  13.323
71937W        W31374  35.984  38.045   2.812
71938W        W31375  21.078  25.126   4.334
71939W        W31376  29.016   1.382   3.639
71940W        W31377  26.523   5.797   0.745
71941W        W31378  31.028  30.642   4.728
71942W        W31379  30.117  18.287  11.397
71943W        W31380  19.571  29.956  13.845
71944W        W31381  16.297  16.251   3.718
71945W        W31382  10.743   1.774  12.489
71946W        W31383   1.441  43.768  13.501
71947W        W31384  35.574  32.902  14.763
71948W        W31385  34.452  17.673  13.968
71949W        W31386  24.082   4.306  12.458
71950W        W31387  11.708   1.972  11.925
71951W        W31388  15.159  31.462   1.793
71952W        W31389  13.637  32.478  11.972
71953W        W31390  39.847  24.596   0.928
71954W        W31391  15.243  19.645   0.759
71955W        W31392  41.932  31.524  14.408
71956W        W31393  30.599   3.817  13.418
71957W        W31394  24.982   4.418   2.763
71958W        W31395  19.266   0.333   4.131
71959W        W31396  39.891  40.876   0.837
71960W        W31397   0.749  10.834  13.905
71961W        W31398  15.158  19.252  14.419
71962W        W31399  24.659  28.114  12.561
71963W        W31400  16.294   4.920   0.870
71964W        W31401  43.986  33.508  14.824
71965W        W31402  22.713  29.429   4.200
71966W        W31403  36.417  31.484  11.535
71967W        W31404  27.002  15.823  14.867
71968W        W31405  12.258  39.550   0.472
71969W        W31406  11.653  13.197   2.805
71970W        W31407  10.213   1.398  14.824
71971W        W31408  37.922  13.618   4.278
71972W        W31409  39.472  14.300   3.725
71973W        W31410  30.536  36.441   1.797
71974W        W31411  13.350   2.382   1.322
71975W        W31412  36.589   2.285  11.447
71976W        W31413  17.098  39.542  13.945
71977W        W31414  13.639  27.498   0.417
71978W        W31415  17.126  29.070  11.954
71979W        W31416  24.991  23.123  14.920
71980W        W31417   5.372  27.575  12.026
71981W        W31418  34.118  44.273  14.319
71982W        W31419  37.368  12.127   4.705
71983W        W31420  21.075  42.320  14.949
71984W        W31421  28.043   9.249  10.561
71985W        W31422  26.682  26.464   0.766
71986W        W31423  38.031  16.651  12.996
71987W        W31424  36.504  11.241   2.299
71988W        W31425  34.955  14.679   3.176
71989W        W31426  39.034  41.473  10.922
71990W        W31427  16.775  10.342   1.882
71991W        W31428  14.256  24.010   4.252
71992W        W31429   6.201  26.631   2.817
71993W        W31430  42.290  19.184  12.075
71994W        W31431  40.873  30.413   1.398
71995W        W31432   3.893  43.857   2.788
71996W        W31433  16.673  36.483  13.511
71997W        W31434  22.043  35.597  12.570
71998W        W31435   9.725  38.858   2.834
71999W        W31436  41.389  12.775  12.088
72000W        W31437  18.287  12.726  11.908
72001W        W31438  19.745  37.367  10.507
72002W        W31439  22.069   6.792  14.315
72003W        W31440  17.080  29.648   0.862
72004W        W31441  20.761  18.722   3.838
72005W        W31442   7.220  10.665  11.022
72006W        W31443  25.108  19.724  10.126
72007W        W31444  14.208   5.856  11.424
72008W        W31445   8.837  17.795  12.979
72009W        W31446  26.614  26.652   1.868
72010W        W31447  21.588   5.747  14.971
72011W        W31448  10.647  20.156  12.050
72012W        W31449   0.954  19.544  11.991
72013W        W31450  32.591  39.443  14.007
72014W        W31451  13.693  35.019  13.454
72015W        W31452   3.758  20.689   3.224
72016W        W31453   1.738  15.150  10.598
72017W        W31454  29.510   7.409   3.338
72018W        W31455  12.674  12.193   0.316
72019W        W31456  44.369  27.129   2.293
72020W        W31457  11.178   2.866  11.870
72021W        W31458  24.103  29.423   2.398
72022W        W31459  19.133  15.111   3.297
72023W        W31460  23.693   5.349  14.939
72024W        W31461  19.145   3.218   3.254
72025W        W31462   1.782   7.197   4.745
72026W        W31463  40.547  32.110   0.915
72027W        W31464  33.531  21.025  14.890
72028W        W31465   8.831  33.890   2.338
72029W        W31466  37.059  25.484   1.318
72030W        W31467  43.376   5.882   4.213
72031W        W31468  38.472  19.771   1.834
72032W        W31469  39.969  39.325  12.404
72033W        W31470  18.772  10.223   2.189
72034W        W31471  18.580   7.293   2.845
72035W        W31472  39.031  12.190  14.942
72036W        W31473  10.848  22.239   1.334
72037W        W31474   3.424  19.186   4.119
72038W        W31475  37.434  42.438  11.989
72039W        W31476  40.827  28.150   3.367
72040W        W31477  36.532  39.027  14.826
72041W        W31478  41.319  40.346   0.902
72042W        W31479  24.094   7.889   3.778
72043W        W31480   9.161   2.736   4.235
72044W        W31481  25.617   1.815  13.002
72045W        W31482  13.217   9.793   0.279
72046W        W31483  41.391  40.536  10.471
72047W        W31484  32.480   7.878  14.482
72048W        W31485  39.044  27.125   3.821
72049W        W31486  34.469  22.676  13.998
72050W        W31487  42.010  11.782  11.492
72051W        W31488  37.987  30.515  10.588
72052W        W31489  33.520   7.769   2.269
72053W        W31490  37.363  16.189  11.533
72054W        W31491  25.977   0.933   3.671
72055W        W31492  11.194  43.306  13.875
72056W        W31493  31.571  27.527   4.726
72057W        W31494  35.060   4.750  11.115
72058W        W31495  20.211   6.361  10.405
72059W        W31496  26.550   7.689  12.918
72060W        W31497  43.435  12.633   4.776
72061W        W31498  20.673   7.751   4.219
72062W        W31499   5.741  21.683  14.872
72063W        W31500  21.732  21.169  11.451
72064W        W31501  44.798  27.474   2.741
72065W        W31502  37.517  29.591   3.211
72066W        W31503  29.931  30.128   2.727
72067W        W31504  25.565  32.552  10.926
72068W        W31505  39.948   7.673   1.887
72069W        W31506   6.191  29.585  10.550
72070W        W31507  24.125  18.228   2.699
72071W        W31508  40.483   6.261  10.450
72072W        W31509  12.800   3.326  14.870
72073W        W31510  28.121  20.702   2.663
72074W        W31511   6.897  18.718  11.127
72075W        W31512   2.305  34.532  11.429
72076W        W31513   1.944   0.762  12.462
72077W        W31514  12.794  29.994  12.950
72078W        W31515  31.515  44.379  14.010
72079W        W31516   5.210  22.586  13.395
72080W        W31517  44.011  24.675   2.778
72081W        W31518  35.920   9.798  14.776
72082W        W31519  21.067  11.839   2.748
72083W        W31520   3.768  30.527   2.371
72084W        W31521  26.489  14.326   4.141
72085W        W31522  24.695  30.643   2.767
72086W        W31523  39.048   5.216   4.632
72087W        W31524  17.259  37.843   3.289
72088W        W31525  20.144  27.037  11.122
72089W        W31526  35.043  14.625   1.813
72090W        W31527  14.292   3.780  11.497
72091W        W31528   3.944   5.687  11.558
72092W        W31529  18.569   6.907   2.720
72093W        W31530  10.658  11.720  12.531
72094W        W31531  43.808   2.754   3.700
72095W        W31532  10.747  20.527  11.042
72096W        W31533  23.075  11.830   3.764
72097W        W31534  35.056  17.733   3.283
72098W        W31535  37.855  20.683  14.920
72099W        W31536   2.842   7.363  14.315
72100W        W31537  14.784  32.998   1.727
72101W        W31538  20.524  39.317   1.769
72102W        W31539  31.943  35.588   3.354
72103W        W31540  35.580   0.942   2.803
72104W        W31541  22.671  26.680  11.919
72105W        W31542  19.613  36.354  13.365
72106W        W31543  22.223   6.827   3.763
72107W        W31544  41.414   6.845   2.697
72108W        W31545   5.319  42.524   2.240
72109W        W31546  30.911   9.310   1.276
72110W        W31547  12.247  19.663  10.485
72111W        W31548  25.583  16.134  10.159
72112W        W31549  10.242  27.985  13.001
72113W        W31550  17.089   2.950   4.624
72114W        W31551  39.984  13.654  13.965
72115W        W31552  16.622  32.492  11.427
72116W        W31553  10.718  33.384   0.419
72117W        W31554  16.688  23.527   2.735
72118W        W31555  11.309   0.841   3.243
72119W        W31556  35.542   3.388  11.562
72120W        W31557   7.189  22.580   2.383
72121W        W31558   9.848  37.579  12.939
72122W        W31559  30.010  34.084  13.346
72123W        W31560  36.355  43.811  12.510
72124W        W31561  32.607  17.787  13.506
72125W        W31562  12.802  22.645   1.338
72126W        W31563  17.094  19.672  11.123
72127W        W31564  25.062   9.845  11.422
72128W        W31565   0.427  23.098  10.511
72129W        W31566  40.799  29.430   1.739
72130W        W31567  18.678  25.038   1.389
72131W        W31568  30.157  18.565  13.905
72132W        W31569  36.062  25.161   3.368
72133W        W31570  38.424  14.815   4.141
72134W        W31571  37.873   9.703   4.603
72135W        W31572   4.742   4.374  12.066
72136W        W31573  26.552  23.652   1.371
72137W        W31574  17.717  36.347  11.457
72138W        W31575  39.353  12.683   4.735
72139W        W31576  16.217  35.501  13.041
72140W        W31577  16.752  27.953  10.500
72141W        W31578  16.188  22.228   0.737
72142W        W31579  38.857  32.119   5.181
72143W        W31580  38.364   2.245  14.911
72144W        W31581  18.137  15.756   2.361
72145W        W31582  10.660  19.555   1.348
72146W        W31583  14.200  24.209  12.832
72147W        W31584  18.209   2.390   4.259
72148W        W31585  21.046  18.255  11.454
72149W        W31586  12.118   1.348   4.281
72150W        W31587  29.988   0.743  13.002
72151W        W31588   7.368  12.815   1.442
72152W        W31589  20.236  28.644   2.762
72153W        W31590  35.559   8.700  13.517
72154W        W31591  29.135  32.067  12.525
72155W        W31592   2.788  41.341  10.946
72156W        W31593   8.323   5.764   2.721
72157W        W31594  38.463   7.735   3.693
72158W        W31595  15.198  37.487   5.218
72159W        W31596  12.647  32.625  12.914
72160W        W31597  18.189   4.283  11.567
72161W        W31598  36.579  25.066   1.881
72162W        W31599  28.446  23.516  12.968
72163W        W31600  38.387  29.070   4.241
72164W        W31601  35.055   8.336   4.260
72165W        W31602  25.979  44.398   3.765
72166W        W31603   0.385  30.023   0.894
72167W        W31604  32.408  33.001  12.844
72168W        W31605  36.862  35.920   1.914
72169W        W31606  28.487  22.128  14.421
72170W        W31607   4.227   7.859   1.828
72171W        W31608  11.328   5.360   0.748
72172W        W31609  43.421  31.569  14.484
72173W        W31610  36.356  21.547  12.884
72174W        W31611   9.783   6.303  12.490
72175W        W31612  11.275   0.785  12.379
72176W        W31613  34.878   4.236  11.421
72177W        W31614   5.852  42.844   0.874
72178W        W31615  24.193  21.622   5.749
72179W        W31616  15.743  11.297   0.774
72180W        W31617   8.193  18.116   1.331
72181W        W31618  10.249  15.700   1.723
72182W        W31619  37.566  27.624  12.029
72183W        W31620   7.905  16.113  13.446
72184W        W31621  24.217  40.444   0.287
72185W        W31622  10.853  18.737  10.629
72186W        W31623  44.882  29.974  14.495
72187W        W31624  42.006  30.610   1.869
72188W        W31625  18.583  18.167  14.288
72189W        W31626  40.871  41.489   0.806
72190W        W31627   1.434   9.880   1.875
72191W        W31628  30.647   4.204  12.091
72192W        W31629  28.129  23.603  14.472
72193W        W31630   5.267   3.753   3.382
72194W        W31631   3.803   4.765  10.607
72195W        W31632  35.454  13.789  14.920
72196W        W31633  23.049  35.480   0.382
72197W        W31634  29.965  14.120   0.915
72198W        W31635  44.007  13.295   3.764
72199W        W31636   5.401   2.752   0.436
72200W        W31637  21.517  29.487   2.390
72201W        W31638  39.363  37.404  13.399
72202W        W31639   4.741  11.224   0.931
72203W        W31640  41.890  41.341   0.430
72204W        W31641  11.278  34.521  14.856
72205W        W31642  38.500  44.501   2.814
72206W        W31643  23.687  42.318   4.798
72207W        W31644  13.846  28.622  13.894
72208W        W31645  34.575   7.721  10.514
72209W        W31646  35.577  35.911   1.905
72210W        W31647  31.022  39.355   4.823
72211W        W31648  22.185  24.186  12.852
72212W        W31649  36.468  21.638  11.510
72213W        W31650  25.021   2.751   1.408
72214W        W31651  29.049  38.413   1.392
72215W        W31652   2.794  16.191  10.895
72216W        W31653  29.926  15.091   0.957
72217W        W31654  20.673  10.293   1.382
72218W        W31655  30.925   2.367  10.409
72219W        W31656  18.644  12.359   1.305
72220W        W31657  30.018  31.128   0.771
72221W        W31658  43.340  11.213   4.257
72222W        W31659   7.267  44.949  11.482
72223W        W31660  10.209  26.613  10.017
72224W        W31661   8.741  22.155  10.951
72225W        W31662  19.073  28.108  12.888
72226W        W31663   0.891  34.477  14.791
72227W        W31664  35.544  35.955   2.235
72228W        W31665  22.517  33.047   2.389
72229W        W31666  31.401  15.706  13.029
72230W        W31667  36.077   1.246   0.409
72231W        W31668  26.472  29.451  11.968
72232W        W31669  41.369   5.288  12.503
72233W        W31670  17.575  27.172   2.750
72234W        W31671   7.896  41.492  13.827
72235W        W31672   5.849  18.592   4.311
72236W        W31673   0.436  26.592   0.291
72237W        W31674  11.742  34.456   3.342
72238W        W31675  25.657  21.156   4.150
72239W        W31676  25.622  13.639  10.077
72240W        W31677  17.606  43.310   0.455
72241W        W31678  11.645   8.671   1.904
72242W        W31679  10.712  33.128  10.566
72243W        W31680  40.976   2.340   2.350
72244W        W31681  17.121  41.479   5.662
72245W        W31682  41.378   6.693  12.572
72246W        W31683  26.463   1.281   3.867
72247W        W31684  15.174  35.012  10.476
72248W        W31685  37.540  38.969   3.384
72249W        W31686  40.815  39.359   1.797
72250W        W31687   3.874  18.095  11.888
72251W        W31688   8.734  30.155   4.630
72252W        W31689   6.231  22.660   9.990
72253W        W31690   6.235  21.110   3.283
72254W        W31691  17.690  18.074  10.990
72255W        W31692   6.337  21.654   3.758
72256W        W31693  42.349  37.416  10.642
72257W        W31694  11.806  15.329  13.439
72258W        W31695   6.260   0.963   0.396
72259W        W31696   7.351  30.149  12.040
72260W        W31697  12.163  44.341   1.384
72261W        W31698  42.410  25.179  12.867
72262W        W31699  43.452  43.293  11.016
72263W        W31700   3.761  12.823  13.049
72264W        W31701   7.871  31.981   3.635
72265W        W31702   2.796  25.507  12.931
72266W        W31703  22.030  29.633   0.479
72267W        W31704  44.893  26.170   1.224
72268W        W31705  17.669  41.967  11.412
72269W        W31706  26.009  28.550  14.779
72270W        W31707   9.814   8.369  14.319
72271W        W31708  40.978  18.111  12.873
72272W        W31709  18.094  37.497  11.435
72273W        W31710  29.080   1.819  13.515
72274W        W31711  14.288  15.149  11.528
72275W        W31712  37.029  14.664  11.099
72276W        W31713  36.352   7.815   3.197
72277W        W31714  36.582  31.033   1.833
72278W        W31715  14.605  44.967   1.870
72279W        W31716  36.576  40.307   3.251
72280W        W31717   6.881  13.663  11.548
72281W        W31718  11.139  20.718  12.516
72282W        W31719   4.417  38.351   2.388
72283W        W31720  20.724   8.721  13.842
72284W        W31721  30.532  35.951   4.684
72285W        W31722  10.268  19.603   2.191
72286W        W31723   8.366  33.039   0.965
72287W        W31724  39.340  17.653   1.240
72288W        W31725  11.189   0.474   1.288
72289W        W31726  16.280   9.656   2.883
72290W        W31727  27.651  10.692   5.172
72291W        W31728  23.109  37.350   0.804
72292W        W31729  11.225   2.380  10.618
72293W        W31730  44.504  18.706   3.280
72294W        W31731  33.106  27.005   1.353
72295W        W31732  35.596  18.250  11.563
72296W        W31733  24.088  28.491  12.549
72297W        W31734  26.621   2.306  12.404
72298W        W31735  32.969  24.143  13.802
72299W        W31736  31.045  19.561   0.848
72300W        W31737   4.208  34.417  12.043
72301W        W31738  10.163  35.358  12.856
72302W        W31739  25.983  16.782  13.395
72303W        W31740  19.131  30.966   4.252
72304W        W31741  38.349  12.698   0.253
72305W        W31742   9.187  19.745   1.893
72306W        W31743  23.696  22.009  13.532
72307W        W31744  20.570  35.909   2.758
72308W        W31745  23.209  22.058  14.444
72309W        W31746  19.117   1.956   0.311
72310W        W31747  10.175   6.207   0.350
72311W        W31748  43.504  27.604   2.806
72312W        W31749  32.633  20.051   3.699
72313W        W31750  41.434  11.762   3.207
72314W        W31751  37.444  16.641   3.371
72315W        W31752  26.507  13.274  12.010
72316W        W31753  35.963  35.594   3.201
72317W        W31754   2.962  33.576  13.402
72318W        W31755  28.435   4.809  13.989
72319W        W31756  28.467  20.040  12.554
72320W        W31757  11.834  32.019   2.820
72321W        W31758   6.923  28.525  11.951
72322W        W31759  13.133  36.452  13.901
72323W        W31760  44.397   8.720   3.217
72324W        W31761   6.359  38.861   4.803
72325W        W31762  39.518  20.234   3.163
72326W        W31763  21.554  38.952   3.698
72327W        W31764  11.716  14.613  13.352
72328W        W31765   7.340  16.083   1.233
72329W        W31766   0.278  10.647  14.501
72330W        W31767  27.559  10.681   4.730
72331W        W31768  27.463   5.434  14.005
72332W        W31769  22.224   8.749   4.622
72333W        W31770  27.142  42.298   3.727
72334W        W31771  26.622  44.344   0.820
72335W        W31772  22.605  42.289  13.032
72336W        W31773  17.742  21.105   3.178
72337W        W31774  18.075  27.110   3.352
72338W        W31775  19.048  26.533   3.705
72339W        W31776   2.866  24.559  12.971
72340W        W31777  29.469  42.777  10.628
72341W        W31778  21.608  33.079  14.996
72342W        W31779  15.635   9.856   4.731
72343W        W31780  22.502  15.787   2.785
72344W        W31781  30.035  27.133  12.393
72345W        W31782  13.679  22.515   1.832
72346W        W31783  27.164  25.032   3.386
72347W        W31784  32.411  14.225  14.932
72348W        W31785  14.276  17.623   0.771
72349W        W31786  43.506  32.919  14.482
72350W        W31787  26.954   0.768   3.782
72351W        W31788   9.174  42.411  14.450
72352W        W31789   8.393  33.568   1.879
72353W        W31790  36.857  16.629  11.079
72354W        W31791  19.699  43.800   2.821
72355W        W31792   7.681  14.702  12.884
72356W        W31793   2.315  42.030  10.642
72357W        W31794  14.717  40.960  11.957
72358W        W31795  13.620  40.893   5.737
72359W        W31796   0.859  30.644  11.376
72360W        W31797   7.802  13.190   4.689
72361W        W31798  31.947  31.514   0.436
72362W        W31799   2.351  42.996   2.261
72363W        W31800  29.061  36.558   3.866
72364W        W31801  43.912   4.358  10.629
72365W        W31802  23.734   1.411  10.551
72366W        W31803  19.161  13.705   3.714
72367W        W31804  44.009  32.392   4.666
72368W        W31805   9.864  30.576  11.566
72369W        W31806  28.004   4.423   0.288
72370W        W31807  13.603  32.999   2.410
72371W        W31808  15.131  12.834   2.392
72372W        W31809  32.125  19.108  10.921
72373W        W31810  23.635  34.475  12.372
72374W        W31811   8.888   9.786   3.276
72375W        W31812  26.133  14.313  12.577
72376W        W31813  12.203  41.378   3.792
72377W        W31814  16.758  41.917   3.869
72378W        W31815  30.515  32.499   2.663
72379W        W31816  17.701  11.835  14.993
72380W        W31817   3.783  34.976   1.761
72381W        W31818  44.932   2.232   0.775
72382W        W31819   4.888  39.390  10.470
72383W        W31820  35.032  24.608  12.859
72384W        W31821  26.154  19.109  13.841
72385W        W31822  25.469  39.484   5.227
72386W        W31823  26.513   1.478   4.127
72387W        W31824  23.122  19.621  11.858
72388W        W31825   6.880  16.659   4.295
72389W        W31826  15.788  36.973  14.360
72390W        W31827  26.606  40.309   0.785
72391W        W31828   2.460  13.281  13.310
72392W        W31829  39.539  27.482  12.504
72393W        W31830   0.942  39.972   3.321
72394W        W31831  24.087  20.075  14.447
72395W        W31832  39.555   9.303   0.423
72396W        W31833  15.610  29.105   2.782
72397W        W31834  25.109  32.463  11.502
72398W        W31835   6.710  26.539  14.440
72399W        W31836  13.282  41.880  11.385
72400W        W31837  40.916  20.247  14.965
72401W        W31838  22.137  26.183  14.837
72402W        W31839   4.359  18.574  12.380
72403W        W31840  34.944  23.618   2.396
72404W        W31841  22.110  19.539  10.415
72405W        W31842  23.078  36.942   3.181
72406W        W31843   2.919  21.624  14.025
72407W        W31844  32.556  33.928  14.908
72408W        W31845  31.572  22.601  14.440
72409W        W31846  13.122   2.882   0.804
72410W        W31847  27.524  35.494   4.269
72411W        W31848   0.753  42.800  12.886
72412W        W31849   4.294  21.741   1.322
72413W        W31850  40.052  33.515  11.545
72414W        W31851  15.607  10.676   4.791
72415W        W31852  32.614  44.325  10.953
72416W        W31853  11.177  12.693   1.355
72417W        W31854   5.850  30.438  14.406
72418W        W31855  39.556   7.323  11.105
72419W        W31856   2.436  15.637  13.352
72420W        W31857  35.400  22.672   0.886
72421W        W31858  43.910  17.080  12.343
72422W        W31859  25.184  39.928   2.711
72423W        W31860   6.272  30.100   4.185
72424W        W31861  42.492  19.226   3.824
72425W        W31862  35.990  19.238   0.849
72426W        W31863  12.165   7.729  13.393
72427W        W31864  12.162  31.946   1.433
72428W        W31865  10.240  34.938   2.665
72429W        W31866  22.052  31.092   3.820
72430W        W31867  39.915  43.956  12.024
72431W        W31868  32.997  36.533  12.543
72432W        W31869   1.867  36.991  11.963
72433W        W31870   0.394  41.421   2.273
72434W        W31871   5.770   8.297   2.368
72435W        W31872   9.737   0.850  10.465
72436W        W31873  20.697   7.348   4.746
72437W        W31874   9.804   9.213   3.269
72438W        W31875  33.396  44.914  10.601
72439W        W31876  23.501  34.440   1.378
72440W        W31877  23.516  35.899  14.389
72441W        W31878  19.611  29.033  10.941
72442W        W31879   9.768  26.672   1.344
72443W        W31880   4.907  29.477  12.077
72444W        W31881  38.967   0.404  11.863
72445W        W31882   4.842   0.271   0.282
72446W        W31883   6.346   0.307  10.628
72447W        W31884   0.904  41.942   3.346
72448W        W31885  34.417  10.757   3.654
72449W        W31886   7.259  10.331   2.722
72450W        W31887  21.222  43.982  12.558
72451W        W31888  34.997  12.789  14.879
72452W        W31889   6.738  20.160  11.079
72453W        W31890  18.203  10.145  14.958
72454W        W31891   8.690  37.997   2.361
72455W        W31892   3.308  25.071   5.159
72456W        W31893   4.285  36.877   1.805
72457W        W31894   1.933   1.869  13.025
72458W        W31895   3.779  36.570  10.476
72459W        W31896  37.878  42.832   1.320
72460W        W31897   6.254  36.370  11.010
72461W        W31898  34.416  23.622   4.228
72462W        W31899  42.778  11.666   2.387
72463W        W31900  13.268  14.593   1.347
72464W        W31901  14.283   0.773   0.254
72465W        W31902  42.002  21.588   3.174
72466W        W31903   6.911  37.930   4.748
72467W        W31904  29.031  30.971  11.579
72468W        W31905  21.513  27.639   1.236
72469W        W31906  43.432  19.205   1.894
72470W        W31907  19.124  13.710  12.483
72471W        W31908  16.674  42.991   0.761
72472W        W31909   7.374  37.396   3.780
72473W        W31910  11.637  25.998   3.757
72474W        W31911  36.961   5.929  12.989
72475W        W31912  17.149   5.242   4.291
72476W        W31913  28.103   5.287   0.829
72477W        W31914  13.278   1.878  11.612
72478W        W31915   3.725  14.181   3.667
72479W        W31916   4.412   4.885   3.647
72480W        W31917  39.553   5.401  14.871
72481W        W31918  26.638  37.494   3.692
72482W        W31919  18.648  17.706   1.910
72483W        W31920   2.893  14.195   0.457
72484W        W31921   1.470   8.340   1.383
72485W        W31922  37.933  41.946   3.782
72486W        W31923  42.484  16.570  11.485
72487W        W31924  12.217   8.346  14.018
72488W        W31925  33.609  32.056   1.358
72489W        W31926   7.370  40.843  13.464
72490W        W31927  30.480  30.609  13.312
72491W        W31928  36.579  31.931  14.875
72492W        W31929  19.580  19.242   0.952
72493W        W31930  24.004   4.397  11.863
72494W        W31931  20.646  26.533   4.757
72495W        W31932   3.391  10.304   4.625
72496W        W31933  35.981  27.027   4.799
72497W        W31934  29.660  21.108   2.397
72498W        W31935  29.039  35.397   3.299
72499W        W31936  27.983   8.839   1.418
72500W        W31937  17.227  30.433  11.556
72501W        W31938   7.813  43.369   1.276
72502W        W31939  23.646  13.753  11.062
72503W        W31940  20.073   2.753  11.401
72504W        W31941  20.687  42.312  13.993
72505W        W31942   0.807  32.899  13.987
72506W        W31943  21.750  44.859  12.534
72507W        W31944  17.800   0.938  13.007
72508W        W31945   9.681  27.978   4.339
72509W        W31946  19.257   2.957  11.501
72510W        W31947  27.140   9.877   1.399
72511W        W31948   3.433  25.214  12.484
72512W        W31949  40.830  43.924  12.560
72513W        W31950  11.671  24.998  11.893
72514W        W31951  39.977  11.243   0.840
72515W        W31952  24.979  19.719  13.462
72516W        W31953   8.401   5.904   0.910
72517W        W31954  17.641   4.829  12.478
72518W        W31955  14.127  37.441   3.190
72519W        W31956  13.711  28.930   0.329
72520W        W31957  28.182  30.488  10.035
72521W        W31958  41.997  40.449  13.921
72522W        W31959  42.456  23.557   2.678
72523W        W31960  19.613   5.427  13.311
72524W        W31961  40.335   9.390   2.714
72525W        W31962  21.749  24.634   4.302
72526W        W31963  33.014  12.732  14.836
72527W        W31964  41.361  14.337  14.309
72528W        W31965  21.102  16.675  13.348
72529W        W31966  11.636  14.741  14.406
72530W        W31967  39.955  13.170  14.389
72531W        W31968  33.453  20.095  12.963
72532W        W31969  24.222  24.630  14.395
72533W        W31970   6.421  31.582   3.374
72534W        W31971  44.276   3.911   4.598
72535W        W31972  13.776  17.230  13.461
72536W        W31973   0.915  23.127  11.582
72537W        W31974  33.038  43.018   2.235
72538W        W31975  36.911   5.720   0.311
72539W        W31976  40.422  27.080   1.277
72540W        W31977  11.271  37.439  13.485
72541W        W31978  28.680  15.753  12.032
72542W        W31979  12.806  30.471  10.639
72543W        W31980   8.331  15.090  10.912
72544W        W31981   8.275   0.831  10.956
72545W        W31982  36.477  24.644  14.905
72546W        W31983  10.779  44.398   4.122
72547W        W31984  12.264   0.451   0.754
72548W        W31985  38.564  22.514  11.518
72549W        W31986  37.064  25.606  12.465
72550W        W31987  11.264  43.792   0.792
72551W        W31988  11.178   1.976   2.180
72552W        W31989   7.232  25.499   5.743
72553W        W31990   4.211  34.597   3.840
72554W        W31991  27.618   3.939  10.513
72555W        W31992   7.873   8.864   3.653
72556W        W31993   5.729  23.074   5.209
72557W        W31994  19.039  10.155   3.842
72558W        W31995  14.336  27.543  10.139
72559W        W31996  32.463  17.148  14.421
72560W        W31997  44.390  34.567  11.536
72561W        W31998  12.834  28.069   1.933
72562W        W31999  23.696  18.256   0.762
72563W        W32000  27.588  31.550  10.529
72564W        W32001  40.932   4.933   0.792
72565W        W32002  20.028  35.553  10.569
72566W        W32003   4.908  25.203  13.833
72567W        W32004  11.788  21.553  14.781
72568W        W32005  23.610   9.346  14.291
72569W        W32006  16.264  19.232   3.724
72570W        W32007  44.936  20.258   0.952
72571W        W32008  30.974  44.348  12.463
72572W        W32009  40.406   9.384  10.627
72573W        W32010  44.337  24.561  11.857
72574W        W32011  16.162  24.014   3.673
72575W        W32012  24.156  12.313   0.792
72576W        W32013  31.481  35.460   3.785
72577W        W32014   7.873  36.068  14.432
72578W        W32015  32.551  10.383  13.454
72579W        W32016  44.967  13.345   2.679
72580W        W32017   2.898  11.182  13.990
72581W        W32018   5.783  36.571  12.006
72582W        W32019  30.605   4.255  11.110
72583W        W32020  16.729  18.114  13.003
72584W        W32021  42.514  22.542  13.431
72585W        W32022  44.001  38.471  14.295
72586W        W32023  11.645   0.489  12.068
72587W        W32024  38.043  42.794   4.763
72588W        W32025  22.245   7.361   0.411
72589W        W32026  23.084  12.157   4.233
72590W        W32027  13.835  28.661   4.131
72591W        W32028  26.157   8.763  14.859
72592W        W32029  27.445  28.486  11.861
72593W        W32030  37.916  37.970   4.674
72594W        W32031  24.058  32.902  14.811
72595W        W32032  43.356   9.887   0.399
72596W        W32033  12.683   2.457  12.835
72597W        W32034  28.487  40.414   2.733
72598W        W32035  26.488  14.241  13.851
72599W        W32036  26.482  33.071  10.009
72600W        W32037  39.927   8.338  12.386
72601W        W32038  33.446  41.879   5.310
72602W        W32039  23.649   8.719  14.444
72603W        W32040   2.369   4.802  13.828
72604W        W32041  21.649   3.865  14.315
72605W        W32042  36.939  25.036  14.309
72606W        W32043  32.028  18.776   0.862
72607W        W32044  38.973  11.328  14.310
72608W        W32045  40.457  18.239   5.316
72609W        W32046  12.856   6.192  12.382
72610W        W32047   6.913  34.488  12.524
72611W        W32048   3.838   2.296  12.465
72612W        W32049   0.262  30.636   3.814
72613W        W32050  44.428  28.499   4.326
72614W        W32051  28.956  44.876  11.888
72615W        W32052  23.008  31.077   0.318
72616W        W32053   6.288  22.517   0.321
72617W        W32054  31.647  44.998   4.717
72618W        W32055  41.938  27.132  13.395
72619W        W32056  24.596  15.205  12.471
72620W        W32057  39.436  12.220  14.325
72621W        W32058  15.722  26.468   9.939
72622W        W32059  21.665  17.276  11.912
72623W        W32060  27.169  44.436   3.836
72624W        W32061  42.915  17.740  14.358
72625W        W32062  17.112   2.236  12.376
72626W        W32063  22.096  21.696  14.919
72627W        W32064  40.812   8.822  12.416
72628W        W32065  13.240  29.518   4.602
72629W        W32066  14.273  13.724  11.061
72630W        W32067  27.498  33.573   3.754
72631W        W32068  40.974  28.945   4.643
72632W        W32069  32.004  20.709   3.823
72633W        W32070  43.938   2.273  12.911
72634W        W32071   9.668  32.913  12.073
72635W        W32072  19.068   6.258  10.962
72636W        W32073  41.024  43.827  12.868
72637W        W32074  29.936  25.151   3.664
72638W        W32075   1.265  40.009   0.932
72639W        W32076   7.200  27.184   4.290
72640W        W32077   3.874  29.516   5.159
72641W        W32078   9.383  39.492  11.497
72642W        W32079  27.044  43.832  14.290
72643W        W32080  19.284  27.529   0.795
72644W        W32081   6.691  23.144   3.645
72645W        W32082   1.767   0.770   4.126
72646W        W32083  17.607   9.725   4.781
72647W        W32084  33.400  40.398   4.606
72648W        W32085  29.167  40.010   1.413
72649W        W32086  14.125   6.191   4.638
72650W        W32087  31.899  11.814   0.270
72651W        W32088  34.478  16.780  10.479
72652W        W32089  25.627  21.561  13.969
72653W        W32090  29.918  39.917   3.283
72654W        W32091  19.670  26.011   4.302
72655W        W32092   9.799  40.410   4.667
72656W        W32093  32.980  42.350   4.118
72657W        W32094   8.830  31.423   0.762
72658W        W32095  42.937   3.280   0.367
72659W        W32096   8.361   3.866   0.882
72660W        W32097  42.455  13.341  11.445
72661W        W32098  26.692  27.962  10.978
72662W        W32099   6.866  19.712  11.910
72663W        W32100   6.875  27.518  13.475
72664W        W32101  18.246  42.962  13.407
72665W        W32102  32.981   5.868   2.818
72666W        W32103  12.729  44.340  13.987
72667W        W32104  20.066  38.037  14.990
72668W        W32105  14.672  27.607  12.544
72669W        W32106  42.794  37.055   3.818
72670W        W32107   5.201   8.368   2.294
72671W        W32108  28.126  42.282   0.887
72672W        W32109  43.954  10.303   2.358
72673W        W32110   1.409  14.275  10.027
72674W        W32111  22.173  26.524   1.339
72675W        W32112   6.787   2.372   2.228
72676W        W32113  11.300  37.574  11.590
72677W        W32114  28.164  17.115  13.446
72678W        W32115  28.074  12.311  13.932
72679W        W32116  25.080   9.726   5.247
72680W        W32117   0.979  10.815  10.583
72681W        W32118   6.869  10.735  11.921
72682W        W32119  19.107  25.163  10.580
72683W        W32120  24.158  37.570  12.459
72684W        W32121  10.191   2.727  12.033
72685W        W32122  14.698   6.861   0.847
72686W        W32123   6.348   6.406   0.337
72687W        W32124  11.162  15.592   4.244
72688W        W32125  28.675  29.157   1.703
72689W        W32126  28.502  40.038   5.210
72690W        W32127   2.255  32.938   3.260
72691W        W32128  44.968  10.260   1.848
72692W        W32129   8.708  22.102  12.412
72693W        W32130  26.982   8.822   1.264
72694W        W32131  39.893   5.854  14.840
72695W        W32132   6.828  12.652  14.853
72696W        W32133   1.299  29.066  11.396
72697W        W32134  17.062  28.992  10.149
72698W        W32135   3.778  39.853  11.534
72699W        W32136  42.413  27.024  12.023
72700W        W32137   4.710  16.282  14.836
72701W        W32138  27.192  18.743  13.533
72702W        W32139  38.931  44.796  12.364
72703W        W32140   0.355  13.608  13.396
72704W        W32141   4.880  28.094  13.020
72705W        W32142  31.017   5.701  10.422
72706W        W32143  28.080   2.302  12.565
72707W        W32144  24.173  16.176  11.928
72708W        W32145  14.731  12.829   2.689
72709W        W32146  22.718  25.007  12.479
72710W        W32147  37.981  21.722  11.010
72711W        W32148  26.626  41.418  12.030
72712W        W32149  30.575  44.409  14.417
72713W        W32150  29.054  31.415   2.358
72714W        W32151  44.945  23.672   2.796
72715W        W32152   4.419   9.252  11.509
72716W        W32153  34.109  41.025  12.407
72717W        W32154   7.190  23.048  14.276
72718W        W32155   2.728   8.249  14.404
72719W        W32156  12.297  20.560   3.794
72720W        W32157  29.981  33.580   3.727
72721W        W32158   8.384  16.673  10.910
72722W        W32159  34.389  13.148  10.596
72723W        W32160  38.967  43.877   9.973
72724W        W32161  11.821  37.880   2.759
72725W        W32162   6.409   0.911  12.833
72726W        W32163   8.381  18.623   2.249
72727W        W32164  42.897  19.616   0.289
72728W        W32165   6.282  13.630   2.386
72729W        W32166  17.086  37.879  10.552
72730W        W32167  39.024  10.789  14.489
72731W        W32168  16.283  17.693   0.931
72732W        W32169  17.200  34.532   0.401
72733W        W32170  18.546  18.546   2.228
72734W        W32171  26.682  13.305   0.295
72735W        W32172  35.397  43.455  12.939
72736W        W32173  34.389  22.735  12.551
72737W        W32174  13.313  12.281   1.916
72738W        W32175   8.306  11.842  11.496
72739W        W32176  24.616   7.888   1.920
72740W        W32177   9.874   3.865   3.266
72741W        W32178  24.993  37.375   2.866
72742W        W32179  40.955   5.281   0.743
72743W        W32180  21.097  12.668  10.078
72744W        W32181  24.510  15.083   3.854
72745W        W32182   4.449   1.906   1.917
72746W        W32183  12.321  32.107  14.966
72747W        W32184  25.583   7.847   3.165
72748W        W32185   8.872  28.938   3.150
72749W        W32186  32.998  10.854   2.845
72750W        W32187  23.145  20.136   0.895
72751W        W32188   7.832  27.575   2.374
72752W        W32189  13.663  19.156   0.446
72753W        W32190  17.099  39.535   2.834
72754W        W32191  25.963   1.868  12.441
72755W        W32192  14.632  31.590   4.749
72756W        W32193  38.509  15.219   3.199
72757W        W32194  27.112  22.160   0.729
72758W        W32195   3.365  26.549   3.631
72759W        W32196  43.971  17.089  12.924
72760W        W32197  16.629  25.116   4.312
72761W        W32198   1.765  12.315  13.987
72762W        W32199  14.668  32.100   1.798
72763W        W32200  37.885  12.176   1.272
72764W        W32201  14.240   1.758   4.283
72765W        W32202  32.497   2.949  10.637
72766W        W32203  44.913  37.563  14.849
72767W        W32204  43.983  44.992  10.550
72768W        W32205  27.558  20.028   1.894
72769W        W32206  35.884  41.927   3.816
72770W        W32207  41.488  10.359   1.841
72771W        W32208  30.160  13.207  12.886
72772W        W32209  12.181   5.693  11.934
72773W        W32210  28.664  36.373   3.753
72774W        W32211  24.039  30.593  12.088
72775W        W32212  38.334  23.500  11.533
72776W        W32213  29.062   6.421   4.724
72777W        W32214   7.749   0.941   2.325
72778W        W32215   6.816  22.179  14.898
72779W        W32216  24.564  27.975   0.341
72780W        W32217  30.909  37.087  11.603
72781W        W32218  40.393  32.406  13.313
72782W        W32219  39.905  43.873   0.856
72783W        W32220  27.189  26.677   0.479
72784W        W32221  25.054   9.676   3.784
72785W        W32222   5.897  25.497  12.521
72786W        W32223  13.783   5.223  12.953
72787W        W32224   2.928   7.780   2.217
72788W        W32225  41.005  32.022   4.284
72789W        W32226  39.898  40.017  10.623
72790W        W32227  13.340  43.332   2.199
72791W        W32228  17.711   6.232  14.955
72792W        W32229  28.993  12.684   0.878
72793W        W32230  15.645  40.834   0.279
72794W        W32231  39.460   2.911  13.942
72795W        W32232  42.474  40.326  10.038
72796W        W32233   6.919  32.620  13.895
72797W        W32234   2.953  21.614   3.268
72798W        W32235  31.517  42.470   2.347
72799W        W32236  39.976  10.274   2.768
72800W        W32237  20.235  40.423   4.744
72801W        W32238  38.420   1.468  10.563
72802W        W32239  16.292  32.619  12.947
72803W        W32240  37.905   3.748  10.412
72804W        W32241  26.635   3.427   5.269
72805W        W32242  22.711   3.880  13.503
72806W        W32243  27.615  28.932  10.490
72807W        W32244  41.476  37.051  13.954
72808W        W32245  39.009  20.057   3.159
72809W        W32246  14.692  11.310  13.952
72810W        W32247  23.215  20.224   5.254
72811W        W32248  25.688  19.713   5.244
72812W        W32249  34.389   9.703   2.372
72813W        W32250  20.192  14.293  10.046
72814W        W32251   8.767  16.569  14.433
72815W        W32252  31.409  25.628  12.446
72816W        W32253  39.942  10.194   4.121
72817W        W32254  30.474  21.546   3.744
72818W        W32255  42.498  28.584   1.833
72819W        W32256   2.928  34.071  13.472
72820W        W32257   3.296  11.303   2.361
72821W        W32258  19.558  15.109   4.808
72822W        W32259  10.222  20.038   4.657
72823W        W32260  33.468  34.375   3.237
72824W        W32261  43.346  38.367   0.935
72825W        W32262  41.329   8.888  12.828
72826W        W32263   6.920  39.859   1.424
72827W        W32264   7.857   8.244   0.481
72828W        W32265  20.684  29.132  13.527
72829W        W32266  35.465  18.719   2.695
72830W        W32267  19.575  33.610   5.296
72831W        W32268   9.832  42.986  10.639
72832W        W32269   5.263  30.062  14.500
72833W        W32270  18.724  36.592  14.488
72834W        W32271  28.053  39.503  12.460
72835W        W32272   8.803  39.008   0.802
72836W        W32273   0.312   1.838   1.874
72837W        W32274   0.887  22.152   4.252
72838W        W32275  36.501   9.246   1.852
72839W        W32276   6.226  29.634  11.063
72840W        W32277  18.160  31.012  11.921
72841W        W32278  37.470   3.820  14.874
72842W        W32279  14.150  32.045  11.010
72843W        W32280  16.183  15.123  14.459
72844W        W32281   9.715  19.061  14.026
72845W        W32282   3.828  11.652   3.379
72846W        W32283  12.156  13.635  11.983
72847W        W32284  16.777  43.337   2.239
72848W        W32285  42.308  41.361  13.998
72849W        W32286  32.963  38.413  14.771
72850W        W32287   3.400   4.763   3.772
72851W        W32288  20.710  19.056   0.371
72852W        W32289  40.455   0.423  11.385
72853W        W32290   5.408  17.620  14.463
72854W        W32291  38.358  10.858   0.809
72855W        W32292  19.775   1.241   1.696
72856W        W32293   8.763  26.074  10.935
72857W        W32294  14.598  17.758   2.743
72858W        W32295  25.134  13.113   4.186
72859W        W32296  41.885   9.690  12.040
72860W        W32297  38.064   0.986  10.568
72861W        W32298   1.809   8.803  12.547
72862W        W32299  28.994  19.747   0.938
72863W        W32300  22.081  22.740   1.372
72864W        W32301  35.386  42.796   4.832
72865W        W32302  31.957  31.519  10.512
72866W        W32303   4.434  13.136   4.199
72867W        W32304  44.952  35.854  14.442
72868W        W32305  41.478   2.344   4.286
72869W        W32306   7.171  12.829   0.462
72870W        W32307  18.623  21.083  14.843
72871W        W32308  29.951  33.380  10.440
72872W        W32309   3.721   1.361  11.547
72873W        W32310  12.354   6.765   3.686
72874W        W32311   6.896  31.055   3.845
72875W        W32312   4.373   6.721  11.564
72876W        W32313  23.143  34.040   1.832
72877W        W32314  40.399  28.504   1.868
72878W        W32315  27.492  44.789   0.929
72879W        W32316   4.908  36.957   1.744
72880W        W32317  28.572  23.995   2.848
72881W        W32318   8.385  21.164  10.521
72882W        W32319  43.439  23.208  12.899
72883W        W32320  37.060   3.908  12.453
72884W        W32321  19.764   7.837   4.250
72885W        W32322  22.187   6.396  13.868
72886W        W32323  44.775  20.579   4.125
72887W        W32324  14.302  38.535  11.577
72888W        W32325  12.216  32.470   3.191
72889W        W32326  21.164  44.406  10.442
72890W        W32327  33.092  32.070   4.718
72891W        W32328  11.861  39.416   1.398
72892W        W32329  15.220  10.327   0.787
72893W        W32330  34.387  40.034  12.925
72894W        W32331   9.826  41.875   4.738
72895W        W32332  42.474  14.096  14.448
72896W        W32333  25.055   5.230   2.786
72897W        W32334  27.169   4.239  10.526
72898W        W32335  31.119  21.541   1.359
72899W        W32336  41.320   0.890   0.388
72900W        W32337  39.413   2.891   4.299
72901W        W32338  25.188   2.398  13.056
72902W        W32339   4.764  16.106   1.314
72903W        W32340  28.531   8.678  12.566
72904W        W32341  43.000   9.313   0.931
72905W        W32342   4.356  11.269  14.373
72906W        W32343  34.543  37.919  12.862
72907W        W32344  20.532  31.477   3.739
72908W        W32345  32.965  15.813  13.450
72909W        W32346  39.517  30.044   0.427
72910W        W32347  20.238   3.879  12.568
72911W        W32348  33.025  25.015  12.478
72912W        W32349  44.816  37.547   3.311
72913W        W32350  17.610  36.083  13.336
72914W        W32351  28.485  26.543   0.243
72915W        W32352  12.676  42.312   4.219
72916W        W32353   4.834  40.892   1.810
72917W        W32354  19.152  18.281  14.800
72918W        W32355  20.253  16.667  11.887
72919W        W32356  32.122   0.747   4.654
72920W        W32357   4.429  13.720   1.930
72921W        W32358  10.784  13.830  14.846
72922W        W32359  26.568  35.570   1.292
72923W        W32360  30.162  25.582  13.985
72924W        W32361  21.657  37.402  14.857
72925W        W32362  28.139  37.843  12.059
72926W        W32363  22.128  23.194  14.507
72927W        W32364   2.325  27.079  11.590
72928W        W32365  10.302  38.449   0.762
72929W        W32366  19.550  44.464  13.373
72930W        W32367  32.534  43.389   0.481
72931W        W32368   2.308  15.813   0.440
72932W        W32369  36.861  34.950  10.405
72933W        W32370  28.506  12.849  12.993
72934W        W32371  38.054  29.512  12.982
72935W        W32372  18.157  25.030   1.856
72936W        W32373  14.246  37.914  12.874
72937W        W32374  33.963   5.783   0.729
72938W        W32375   7.837  20.620  13.794
72939W        W32376  10.707   8.847   1.382
72940W        W32377  44.374  20.660   3.362
72941W        W32378   8.900   3.286  12.350
72942W        W32379  26.992  15.099   1.841
72943W        W32380  24.037  44.009   0.265
72944W        W32381  27.516  25.088   0.328
72945W        W32382   4.888  37.999  14.491
72946W        W32383   8.784  14.717  13.064
72947W        W32384  15.183  20.548  10.997
72948W        W32385  31.506  43.426   3.722
72949W        W32386   6.789   3.804  12.951
72950W        W32387   1.945  39.949   3.771
72951W        W32388  16.703  23.101  12.901
72952W        W32389  15.225  23.173   3.386
72953W        W32390   5.214   8.315   4.838
72954W        W32391  28.117  24.672  13.994
72955W        W32392  36.571  31.015   4.831
72956W        W32393  13.635  11.647   2.356
72957W        W32394  12.680  22.065   1.869
72958W        W32395  21.567   0.452  12.903
72959W        W32396  16.571  12.243   1.333
72960W        W32397  41.923  22.182  11.568
72961W        W32398  21.725   5.852   1.708
72962W        W32399  36.527  19.146  10.461
72963W        W32400   0.390  10.181   4.697
72964W        W32401  25.692  27.181   0.950
72965W        W32402  44.877  28.599  10.645
72966W        W32403  22.127  23.089   2.198
72967W        W32404  11.648  18.784   3.266
72968W        W32405  14.657  29.662   1.248
72969W        W32406   9.250   0.443  11.107
72970W        W32407  24.164  10.213   2.247
72971W        W32408  33.890  25.123   0.862
72972W        W32409   1.351  27.487  11.006
72973W        W32410  27.545  33.444   1.720
72974W        W32411  29.471   8.214   2.186
72975W        W32412  20.143  30.619   2.244
72976W        W32413  22.183  38.423  14.760
72977W        W32414  30.157  14.806  13.013
72978W        W32415  15.305   8.277  12.083
72979W        W32416  32.940  23.168  12.457
72980W        W32417  39.975  44.442  13.895
72981W        W32418  13.132  41.303  10.493
72982W        W32419  18.579  34.934  10.462
72983W        W32420  39.327  38.496  10.998
72984W        W32421  26.565  29.097  10.514
72985W        W32422  31.153  25.544   2.889
72986W        W32423  36.008  28.127  13.892
72987W        W32424  16.086  44.350  13.327
72988W        W32425   7.386  18.260   3.297
72989W        W32426   1.332  19.608   2.682
72990W        W32427   7.350  22.522   4.269
72991W        W32428  42.913   5.896   4.304
72992W        W32429  15.253  26.556   4.340
72993W        W32430   2.352  16.297  10.572
72994W        W32431  36.097  11.234  11.010
72995W        W32432  19.602  32.531  11.539
72996W        W32433   0.436  25.676   0.785
72997W        W32434  39.435  39.032  10.404
72998W        W32435  10.214   7.313  11.093
72999W        W32436  32.104  13.135  10.427
73000W        W32437  14.605  12.790  11.991
73001W        W32438  26.008  17.571   2.702
73002W        W32439   2.361   2.847   4.700
73003W        W32440  40.821  23.609   3.684
73004W        W32441  18.623  23.997  10.627
73005W        W32442  18.136  14.832  14.768
73006W        W32443  39.556   4.907  14.804
73007W        W32444  33.420   4.752   5.133
73008W        W32445  30.922  22.610  11.423
73009W        W32446   3.738  19.590   0.289
73010W        W32447  13.163  10.876  14.897
73011W        W32448  16.133  14.781   1.418
73012W        W32449  40.902  23.010  12.886
73013W        W32450  38.867  28.969   4.168
73014W        W32451  12.178  41.450   2.662
73015W        W32452   6.281   7.383  13.887
73016W        W32453  21.112  16.788   3.260
73017W        W32454  18.165  14.277   3.747
73018W        W32455  30.158  37.074   1.864
73019W        W32456   0.365  25.573   0.365
73020W        W32457  12.755  42.506   0.384
73021W        W32458  12.691  36.929  11.426
73022W        W32459   3.824   2.264  13.845
73023W        W32460  44.416  27.467  10.933
73024W        W32461  25.494  26.010   0.450
73025W        W32462  34.928  32.419  13.892
73026W        W32463   5.289  43.310   2.358
73027W        W32464  29.517  41.456  12.907
73028W        W32465  31.134  23.626  13.403
73029W        W32466  21.700  36.479  12.089
73030W        W32467   6.820  17.683  11.488
73031W        W32468   5.811   9.234  11.574
73032W        W32469   0.267   4.402   2.880
73033W        W32470  10.339  11.691   3.828
73034W        W32471  40.910   0.458   0.764
73035W        W32472  25.172  44.362  11.097
73036W        W32473  22.062  39.414  10.498
73037W        W32474  14.155  36.062  10.107
73038W        W32475  25.478  26.081   2.335
73039W        W32476  31.581  27.454   0.467
73040W        W32477  13.619  10.321  13.852
73041W        W32478  22.188  34.088   1.747
73042W        W32479  21.735  40.995  12.883
73043W        W32480  12.821  34.092   2.230
73044W        W32481  22.564   6.254  12.574
73045W        W32482  29.440   2.403   1.781
73046W        W32483   3.413   0.824   5.273
73047W        W32484  26.111  14.756  13.927
73048W        W32485  27.662  18.780  14.917
73049W        W32486   1.735  28.554   2.388
73050W        W32487  41.818  40.938   4.144
73051W        W32488   3.385  19.556  14.018
73052W        W32489   2.872  39.557  12.863
73053W        W32490   8.844  15.667   3.768
73054W        W32491   8.212   5.723   4.598
73055W        W32492  30.155  20.525   1.292
73056W        W32493   0.433  29.519   1.300
73057W        W32494  31.551  10.807  14.898
73058W        W32495  11.361  44.266   3.660
73059W        W32496  16.750  11.715  10.504
73060W        W32497   2.305  21.123   0.789
73061W        W32498  41.038  15.658   3.836
73062W        W32499  38.848  35.974   3.373
73063W        W32500  38.046   4.912  12.479
73064W        W32501   8.891  25.176  14.398
73065W        W32502  25.607  15.225  12.485
73066W        W32503  43.822  40.989   4.720
73067W        W32504  40.524  28.012  14.775
73068W        W32505   0.888  19.274  11.013
73069W        W32506  12.833  43.304  13.892
73070W        W32507  16.724  26.491   2.848
73071W        W32508   0.894  12.825   1.705
73072W        W32509  43.959  28.611  11.525
73073W        W32510  28.082  37.014  14.463
73074W        W32511  44.805   6.765   4.308
73075W        W32512  38.458  39.526  14.762
73076W        W32513  25.141  12.689  10.527
73077W        W32514  15.625  25.106   9.994
73078W        W32515  41.984  41.438  10.502
73079W        W32516  38.476  17.282   0.461
73080W        W32517  35.107  42.484   3.301
73081W        W32518  31.080   8.856  14.888
73082W        W32519   5.354  29.143   1.744
73083W        W32520   7.371  34.527  12.568
73084W        W32521  21.155  34.507  12.854
73085W        W32522  11.252  24.702  12.909
73086W        W32523  23.545   4.830   3.716
73087W        W32524  42.965  25.158   3.784
73088W        W32525   7.279   9.664   2.861
73089W        W32526  34.391  43.375   4.682
73090W        W32527  28.624   5.916  12.435
73091W        W32528  26.591  27.190  11.978
73092W        W32529  33.610  10.253  11.610
73093W        W32530  20.071  41.466   3.377
73094W        W32531  42.324   5.310   3.262
73095W        W32532  17.566   3.270   1.925
73096W        W32533  33.057  30.013  11.392
73097W        W32534  12.221   5.392  12.920
73098W        W32535  10.174  40.362   1.432
73099W        W32536  31.451  19.776   4.265
73100W        W32537  10.168  37.552   0.338
73101W        W32538  33.553   4.223   3.355
73102W        W32539  38.951   6.248  14.481
73103W        W32540  24.485  14.239   4.277
73104W        W32541  44.454  40.424  13.842
73105W        W32542  21.710  43.481  12.092
73106W        W32543  25.964   0.813   3.324
73107W        W32544  44.501  14.291   4.739
73108W        W32545  14.642  14.725   0.260
73109W        W32546  25.612  30.657   5.255
73110W        W32547  34.076  43.324   0.373
73111W        W32548  11.212  40.452  11.385
73112W        W32549   0.870  19.131  14.799
73113W        W32550   0.802   7.324  11.937
73114W        W32551  42.497  30.581   1.437
73115W        W32552  19.154  28.479  12.842
73116W        W32553  38.386  33.391  14.880
73117W        W32554  12.803  44.882  14.847
73118W        W32555  33.600  41.004  13.452
73119W        W32556  14.639  35.972   0.400
73120W        W32557   8.242  43.912  11.122
73121W        W32558  21.646  11.846  12.964
73122W        W32559  42.308  38.570   4.720
73123W        W32560  11.322  27.614   3.363
73124W        W32561  24.224  37.938  12.528
73125W        W32562  16.608  13.244  11.965
73126W        W32563  31.403  26.144  14.979
73127W        W32564  29.992  39.902   1.889
73128W        W32565  27.046   6.388   2.684
73129W        W32566  44.264  32.123   0.284
73130W        W32567  12.647  29.919   3.686
73131W        W32568   0.433  37.929   4.666
73132W        W32569   3.760  44.764   1.925
73133W        W32570  13.279  41.493   5.195
73134W        W32571  20.737  38.012  12.064
73135W        W32572  38.387  18.756   1.768
73136W        W32573  33.418  23.993   2.839
73137W        W32574  18.760  28.657   4.300
73138W        W32575   8.236  27.532  13.326
73139W        W32576  29.098  15.249   0.361
73140W        W32577  27.488  44.977   1.753
73141W        W32578  16.270  38.887  11.033
73142W        W32579  43.809  43.792   4.114
73143W        W32580  40.483  18.597  12.360
73144W        W32581  15.583  27.623   1.358
73145W        W32582  12.181  31.496   2.838
73146W        W32583   2.919  37.873   1.273
73147W        W32584  26.049  30.432   4.623
73148W        W32585  36.509  44.904   0.363
73149W        W32586  41.382  13.816  10.574
73150W        W32587   7.365  11.322   3.351
73151W        W32588  22.601  15.116  14.497
73152W        W32589   9.220  35.402  11.574
73153W        W32590  18.692  10.821   0.395
73154W        W32591  21.235  19.546  10.957
73155W        W32592  40.469  18.626   3.840
73156W        W32593  31.425  16.738  14.281
73157W        W32594   3.279  18.559  13.468
73158W        W32595   8.752   4.260  14.286
73159W        W32596  14.184   4.295  11.031
73160W        W32597  22.104  25.546   0.436
73161W        W32598  12.188  36.883   4.298
73162W        W32599   4.352  38.344   0.747
73163W        W32600  22.742  10.290  11.930
73164W        W32601  19.072  21.688   2.893
73165W        W32602  40.857  21.701  13.837
73166W        W32603   9.729  27.184   1.272
73167W        W32604  19.125  43.383  13.018
73168W        W32605   0.453  12.757   2.761
73169W        W32606   4.923  15.763   0.292
73170W        W32607   4.259  15.778  11.031
73171W        W32608  21.134  16.137  11.062
73172W        W32609   2.871  13.702   5.590
73173W        W32610  36.940  12.642   0.456
73174W        W32611  32.105  38.444  11.413
73175W        W32612  37.394  37.504  12.939
73176W        W32613   2.317  22.161  12.470
73177W        W32614  41.357  42.477  13.389
73178W        W32615  44.762  27.538  14.845
73179W        W32616  28.977   8.784   0.906
73180W        W32617   8.852   9.760   2.769
73181W        W32618  31.605  14.771   1.743
73182W        W32619  20.057  21.596  10.584
73183W        W32620  27.087  33.493  11.958
73184W        W32621  15.096  10.142  12.971
73185W        W32622  18.062  11.751   2.705
73186W        W32623   0.377  15.731  11.930
73187W        W32624  35.383  35.949  12.505
73188W        W32625  20.141  35.051   1.269
73189W        W32626  20.557  30.029   4.680
73190W        W32627  18.625  43.957  14.460
73191W        W32628   8.770  20.184   0.250
73192W        W32629  34.501  40.914   2.834
73193W        W32630  33.131  27.997  11.969
73194W        W32631   9.156  30.418   0.405
73195W        W32632  12.624  19.760  13.324
73196W        W32633  33.594  35.568  11.857
73197W        W32634   3.360   4.711  11.460
73198W        W32635   8.848  22.229   2.184
73199W        W32636   9.804   8.796   1.862
73200W        W32637   4.731  31.475   2.224
73201W        W32638   7.385  42.930  11.528
73202W        W32639  16.250  44.881   3.247
73203W        W32640  24.187  34.430   2.294
73204W        W32641  35.483   2.924  12.494
73205W        W32642   2.918  31.028  11.549
73206W        W32643  32.943  25.071  10.513
73207W        W32644  12.258   8.737   0.245
73208W        W32645   7.754  33.420   1.245
73209W        W32646   7.357  10.370   1.844
73210W        W32647  44.312  35.483  13.989
73211W        W32648   0.930  18.609  14.939
73212W        W32649  44.894  26.514   3.713
73213W        W32650  31.975   0.888   0.739
73214W        W32651   8.761  42.008  12.463
73215W        W32652   7.675   2.401  12.888
73216W        W32653   7.759   7.748   2.290
73217W        W32654   8.698  22.632   1.883
73218W        W32655  41.474  35.449   4.215
73219W        W32656  22.202   6.868  11.570
73220W        W32657  16.305  18.247   3.379
73221W        W32658   9.381  30.977   3.202
73222W        W32659  14.140  24.596  12.915
73223W        W32660  16.302  29.931  11.949
73224W        W32661   9.251   7.381   1.806
73225W        W32662  39.459  20.565  11.120
73226W        W32663  43.376  26.095  12.900
73227W        W32664  29.155  23.583  14.372
73228W        W32665   2.276  34.968  12.942
73229W        W32666  13.627  32.617   1.216
73230W        W32667  13.121  13.339   1.756
73231W        W32668  40.388  29.549  14.505
73232W        W32669   4.322  41.501   0.861
73233W        W32670  22.240  36.520   3.330
73234W        W32671  36.495  39.811  11.106
73235W        W32672  31.007   0.366   1.789
73236W        W32673  44.291  39.027   0.411
73237W        W32674   1.396  19.544  12.501
73238W        W32675  11.177  27.566  12.397
73239W        W32676  21.686  42.352  13.933
73240W        W32677  35.079   7.750   1.338
73241W        W32678  44.818  36.955   9.984
73242W        W32679  39.340  31.927   5.196
73243W        W32680  40.477   8.184   2.404
73244W        W32681   0.278  10.860  11.516
73245W        W32682  31.436  40.865  11.572
73246W        W32683  14.217   1.825  12.508
73247W        W32684  19.571   8.281  10.975
73248W        W32685   8.245  16.242   1.410
73249W        W32686  27.622  14.098  11.082
73250W        W32687  15.755  40.373   0.957
73251W        W32688  27.041  29.026   4.767
73252W        W32689  20.755  33.904  13.435
73253W        W32690  38.471  44.963  13.894
73254W        W32691  30.619  39.474   0.450
73255W        W32692  12.677  15.191   1.381
73256W        W32693   5.755  11.624   1.341
73257W        W32694  25.050  32.498   0.388
73258W        W32695  41.535  20.100  12.083
73259W        W32696  34.961  13.601   4.669
73260W        W32697  35.980  16.657   0.432
73261W        W32698  28.952  41.364   3.190
73262W        W32699  42.997  21.126   1.865
73263W        W32700   8.219  20.273   0.843
73264W        W32701  11.231  34.499  11.966
73265W        W32702   5.752  40.386   0.830
73266W        W32703   6.886   6.271   1.257
73267W        W32704  44.956  37.033   2.793
73268W        W32705  42.453  43.928   0.308
73269W        W32706  14.292   0.370   3.166
73270W        W32707  26.476   4.424   2.719
73271W        W32708  14.806  15.145   3.196
73272W        W32709  26.650  22.636  10.510
73273W        W32710  34.976  33.626  13.927
73274W        W32711  13.765  30.513  13.459
73275W        W32712  23.568  40.539  10.578
73276W        W32713   0.290  35.539  11.995
73277W        W32714  38.981  42.313  10.533
73278W        W32715  28.162  29.102  12.380
73279W        W32716  34.096  38.406  14.911
73280W        W32717  10.771  16.585  12.392
73281W        W32718  24.214  34.102  14.421
73282W        W32719  42.388  33.032  10.422
73283W        W32720  21.630  14.200   0.731
73284W        W32721  11.134  30.079  12.941
73285W        W32722  41.928  12.339   2.388
73286W        W32723  32.908  44.327  13.796
73287W        W32724  38.976  30.571   3.316
73288W        W32725  27.947  26.985   4.178
73289W        W32726  38.544   8.370   0.322
73290W        W32727   2.233  11.754  10.023
73291W        W32728  24.692  25.618   3.804
73292W        W32729  32.004  10.192   0.480
73293W        W32730  40.960  36.561   0.820
73294W        W32731  19.596  31.529  13.976
73295W        W32732  12.705  35.417  11.612
73296W        W32733  39.494  42.436  14.311
73297W        W32734   5.897  22.613  13.941
73298W        W32735  24.114  37.049   3.292
73299W        W32736  25.655   3.719  10.529
73300W        W32737  40.951  35.545   4.351
73301W        W32738   7.213  17.108  11.561
73302W        W32739   4.882  25.618   2.362
73303W        W32740  34.511  17.281  12.430
73304W        W32741  15.802   0.766   2.390
73305W        W32742  19.721  24.169   0.905
73306W        W32743  33.539  31.968  13.046
73307W        W32744   8.734  20.745   3.273
73308W        W32745   8.768  14.628  11.036
73309W        W32746  34.478   0.900   1.418
73310W        W32747  36.551   2.774   2.821
73311W        W32748   7.293  41.952  10.431
73312W        W32749  28.989  14.734  14.315
73313W        W32750  19.173   6.291   3.288
73314W        W32751  22.046  40.522   1.745
73315W        W32752  35.487  32.904   4.114
73316W        W32753  38.054   1.360  14.784
73317W        W32754   8.839  11.137  12.945
73318W        W32755  42.983  26.058   3.841
73319W        W32756  30.022  16.569  13.447
73320W        W32757  26.153  13.742  12.399
73321W        W32758   9.175  16.757  11.967
73322W        W32759  19.047  33.489   1.362
73323W        W32760  31.455  18.120   1.856
73324W        W32761   8.666  13.711   1.309
73325W        W32762   0.746  37.500   4.677
73326W        W32763  26.135  28.143  11.940
73327W        W32764   1.922   8.367  12.919
73328W        W32765  35.374  45.000  12.047
73329W        W32766  25.194  42.506   4.164
73330W        W32767   4.889  37.951   2.879
73331W        W32768  27.690   0.781  14.942
73332W        W32769  37.922   4.739  10.987
73333W        W32770  40.516  40.362  13.994
73334W        W32771  16.656  33.930  11.038
73335W        W32772   7.409   5.847   0.333
73336W        W32773   4.784  15.235  11.964
73337W        W32774  37.536  36.055  14.362
73338W        W32775  39.341  39.388   0.247
73339W        W32776  22.678  43.938  10.608
73340W        W32777   7.721  21.558  11.477
73341W        W32778  13.760  41.801  14.928
73342W        W32779  34.599  30.540  11.505
73343W        W32780  13.277  36.548   3.245
73344W        W32781  43.359   5.698  11.375
73345W        W32782  36.092  16.304  10.540
73346W        W32783  12.116   2.396   0.747
73347W        W32784  22.096  34.525   0.765
73348W        W32785   1.282  43.427  10.997
73349W        W32786   4.215  18.739  11.530
73350W        W32787  20.535   5.367   0.394
73351W        W32788  34.004  10.878  13.047
73352W        W32789  38.071  31.514  13.947
73353W        W32790  24.217  41.295   1.935
73354W        W32791  39.558   3.839  11.608
73355W        W32792  28.059  16.104   0.447
73356W        W32793  19.224  25.685  14.790
73357W        W32794  17.182  11.130   3.173
73358W        W32795  40.478   1.786   5.193
73359W        W32796  38.870  25.493  12.553
73360W        W32797  29.095  36.463  12.434
73361W        W32798  18.247  30.549  14.422
73362W        W32799  34.993  16.730   3.711
73363W        W32800   2.361  22.131  11.025
73364W        W32801   0.986  19.263   2.257
73365W        W32802  18.651  34.878   5.303
73366W        W32803   0.290  19.041   4.703
73367W        W32804  30.575   6.883   4.232
73368W        W32805   0.772   7.763   3.717
73369W        W32806  35.854  42.861  13.309
73370W        W32807  40.507  17.123   2.246
73371W        W32808   6.279  20.641  13.339
73372W        W32809  13.773  34.920   2.695
73373W        W32810  37.943  11.803  14.988
73374W        W32811  28.031  23.088   5.794
73375W        W32812  25.506  21.730   1.890
73376W        W32813  39.915   5.829  12.846
73377W        W32814  13.161  27.496  13.033
73378W        W32815   4.759   6.298   1.346
73379W        W32816  17.705  33.481  13.817
73380W        W32817   4.739   4.438   2.417
73381W        W32818  19.261  14.185  14.446
73382W        W32819   6.269  22.553  13.935
73383W        W32820  39.908  20.737  11.051
73384W        W32821   6.694  22.634  14.007
73385W        W32822  22.528   4.828  11.083
73386W        W32823  33.483   0.792  12.403
73387W        W32824  20.766   9.870   0.431
73388W        W32825  29.485  29.440   4.332
73389W        W32826  44.359  29.939  10.461
73390W        W32827  44.436  39.050  12.364
73391W        W32828  14.664   7.240   3.245
73392W        W32829  27.670  28.614   3.340
73393W        W32830   6.699   1.274   4.255
73394W        W32831  24.173  31.481  10.629
73395W        W32832   8.287  41.004  14.466
73396W        W32833  41.354  36.977  11.952
73397W        W32834  34.463  29.979   2.861
73398W        W32835  15.760  44.483   2.243
73399W        W32836  21.609  11.830  13.976
73400W        W32837  21.672   3.730   4.290
73401W        W32838  16.748  14.596   3.845
73402W        W32839  32.943  18.628  11.111
73403W        W32840   4.878  42.840  10.056
73404W        W32841  19.184  27.672   2.405
73405W        W32842  39.502  33.470   4.327
73406W        W32843  32.128  34.507  11.472
73407W        W32844  23.203  38.071  13.417
73408W        W32845  42.890  42.849  12.572
73409W        W32846  38.918  11.693  14.810
73410W        W32847  13.231  24.981   2.199
73411W        W32848  41.328   4.428  11.971
73412W        W32849  16.786  22.100   2.382
73413W        W32850   3.919  24.670   1.284
73414W        W32851  26.155  34.428  13.532
73415W        W32852  43.963  14.230  13.533
73416W        W32853  11.780  11.140   1.371
73417W        W32854   4.701  34.532   1.288
73418W        W32855   8.389  18.630   4.809
73419W        W32856  19.123   9.848   1.231
73420W        W32857  30.540  30.523   2.749
73421W        W32858  20.767   9.722   4.782
73422W        W32859  35.889  21.623  11.912
73423W        W32860   7.842  15.652  11.529
73424W        W32861  40.465  29.123   1.762
73425W        W32862  24.204  24.599   3.381
73426W        W32863  18.237  12.190  12.049
73427W        W32864  28.063  36.077  13.010
73428W        W32865   7.854  11.692   2.194
73429W        W32866  39.454  23.676   2.300
73430W        W32867  32.919  31.093  14.366
73431W        W32868  16.666  39.829   2.417
73432W        W32869  17.157  18.133  11.502
73433W        W32870  17.801  22.113   4.171
73434W        W32871  20.523   7.789  10.487
73435W        W32872  41.807  18.080  12.459
73436W        W32873   3.218   2.883  11.998
73437W        W32874  11.730  18.748  11.980
73438W        W32875  29.119  37.952  10.020
73439W        W32876   7.680  12.119   1.763
73440W        W32877  30.537  23.080   2.812
73441W        W32878  36.388  18.163   4.700
73442W        W32879  40.050  19.694   1.239
73443W        W32880   7.279  30.046   3.679
73444W        W32881  13.273   3.886   1.898
73445W        W32882  23.732   3.233   1.782
73446W        W32883   6.394  15.591  12.452
73447W        W32884   2.779  12.808  12.828
73448W        W32885  38.401  18.619   1.428
73449W        W32886  12.640  23.987   0.411
73450W        W32887  32.009  34.371   0.779
73451W        W32888  11.828   0.355  10.917
73452W        W32889   5.765  34.994   2.834
73453W        W32890   2.833   1.482   1.861
73454W        W32891  15.812  13.112  11.581
73455W        W32892  34.480  22.028   1.220
73456W        W32893  42.876   4.738   5.218
73457W        W32894  43.911  20.211   3.333
73458W        W32895  26.486  12.748   2.667
73459W        W32896  32.637  13.121   1.796
73460W        W32897  10.138  36.038   4.197
73461W        W32898  10.247  36.549  10.450
73462W        W32899  19.198  34.019  10.970
73463W        W32900   2.442   6.219  14.477
73464W        W32901  30.042   4.448   1.374
73465W        W32902   8.331  11.803  10.989
73466W        W32903  38.863   9.258   1.437
73467W        W32904  35.400  23.705   3.200
73468W        W32905  41.407  38.549   0.436
73469W        W32906  10.823   2.735   3.273
73470W        W32907  38.978  30.501  11.878
73471W        W32908  33.468  17.638  11.577
73472W        W32909  33.996  29.651  12.497
73473W        W32910   6.316  41.856  11.566
73474W        W32911  32.622   6.425   2.757
73475W        W32912  31.940  44.825  14.846
73476W        W32913  22.513  14.803   4.679
73477W        W32914  14.308  22.696  11.957
73478W        W32915   3.326   1.871   3.288
73479W        W32916   9.292   6.355   4.116
73480W        W32917  43.351   6.916  14.795
73481W        W32918  41.508   9.747  14.843
73482W        W32919   4.434   3.459  12.877
73483W        W32920  28.671   5.295  11.576
73484W        W32921  16.737   8.396  11.940
73485W        W32922  12.210   9.369   1.896
73486W        W32923  10.818  35.852   2.411
73487W        W32924   2.906  14.149  14.866
73488W        W32925  20.073  21.659   3.327
73489W        W32926  31.481  17.155  13.064
73490W        W32927  44.474  43.353  10.581
73491W        W32928  27.663   3.434   3.240
73492W        W32929  17.182  29.501  10.432
73493W        W32930  14.674  34.941   2.193
73494W        W32931   5.306   5.245  14.346
73495W        W32932   6.865  38.823   2.312
73496W        W32933  25.059  17.683   1.768
73497W        W32934  44.963   6.770  11.048
73498W        W32935  44.853  41.935   1.244
73499W        W32936  29.618  34.614   3.146
73500W        W32937  29.152   7.754  14.290
73501W        W32938   6.684   7.907   1.707
73502W        W32939  15.599   5.792   3.371
73503W        W32940   7.357  30.598   4.650
73504W        W32941  15.155  34.897   2.366
73505W        W32942  24.039  20.523  12.560
73506W        W32943  21.637   7.303   2.182
73507W        W32944   2.912  26.653  14.311
73508W        W32945  21.584  33.477  14.974
73509W        W32946  20.660  41.882  14.967
73510W        W32947   2.964  24.149   4.675
73511W        W32948  22.624  33.427   2.792
73512W        W32949  21.609  38.922  13.360
73513W        W32950  44.887   5.267   2.257
73514W        W32951  31.424  18.062  11.046
73515W        W32952  37.073  29.139   2.285
73516W        W32953  42.856  38.955   3.817
73517W        W32954  33.889  17.735   2.858
73518W        W32955  43.920  13.275  12.859
73519W        W32956  39.943   8.232   4.327
73520W        W32957   5.240   2.448   3.816
73521W        W32958   5.220  10.788   3.247
73522W        W32959  17.612  14.665   2.185
73523W        W32960  37.925  26.520   4.160
73524W        W32961  20.116  36.503   3.202
73525W        W32962  30.164  12.819  11.946
73526W        W32963   0.317  14.755  11.934
73527W        W32964  28.626  11.146   3.693
73528W        W32965  28.676   6.821   3.362
73529W        W32966  35.085  29.643  13.444
73530W        W32967   1.282   3.952   2.202
73531W        W32968  34.923  20.654  11.055
73532W        W32969  27.165  24.218  14.413
73533W        W32970  20.585  37.006   4.340
73534W        W32971  29.556  31.573  12.829
73535W        W32972  29.005  35.925  13.529
73536W        W32973  29.578  14.652   3.303
73537W        W32974  18.191  43.511   3.240
73538W        W32975  20.093   4.750   2.216
73539W        W32976  28.065  17.724  14.802
73540W        W32977  42.501  22.209  10.629
73541W        W32978  32.572  26.983   0.368
73542W        W32979   8.352   9.857  11.867
73543W        W32980  31.019  11.863  13.316
73544W        W32981  34.057  36.073  13.931
73545W        W32982  18.746  34.496   2.357
73546W        W32983   4.425  16.115   3.301
73547W        W32984  41.518   3.458   0.359
73548W        W32985   6.209  28.645  10.473
73549W        W32986   1.388  17.725   4.721
73550W        W32987  28.624  21.512   4.326
73551W        W32988  14.805   4.403  11.113
73552W        W32989  22.506   7.343  12.538
73553W        W32990  25.509  22.209  14.412
73554W        W32991  43.381   2.392   4.140
73555W        W32992   8.222   9.364  10.515
73556W        W32993  37.912   7.389  11.880
73557W        W32994  17.219  18.718   2.272
73558W        W32995  16.117  29.460  13.375
73559W        W32996   8.393  13.764   4.758
73560W        W32997  20.181  37.878  13.793
73561W        W32998  27.500  43.500   3.205
73562W        W32999  13.697  30.465   3.162
73563W        W33000  19.091  25.573  10.604
73564W        W33001   1.271  12.183  12.427
73565W        W33002  19.122   3.358   2.894
73566W        W33003  21.645  41.992  10.931
73567W        W33004  38.457  25.660   1.449
73568W        W33005  35.518  34.607  14.330
73569W        W33006   8.376   2.926   2.701
73570W        W33007  19.156  42.947  12.406
73571W        W33008  40.812   4.419   3.211
73572W        W33009  31.478  37.462   4.685
73573W        W33010  10.830  15.106  12.898
73574W        W33011   8.738  26.536   2.242
73575W        W33012  33.584  25.608   3.297
73576W        W33013  18.129   1.825  13.975
73577W        W33014  32.124  44.011   1.893
73578W        W33015  39.963  15.633   0.896
73579W        W33016  22.172  37.515  11.487
73580W        W33017  10.777  20.179   0.878
73581W        W33018  41.896  17.278  10.631
73582W        W33019  38.326  18.748   0.252
73583W        W33020  22.170  32.520  12.557
73584W        W33021   9.354  16.213  11.466
73585W        W33022  37.388   0.881   1.697
73586W        W33023  37.065   5.840   4.340
73587W        W33024  37.493   7.177  14.999
73588W        W33025  12.701  41.489  14.894
73589W        W33026   3.358  11.792   9.947
73590W        W33027   9.378   4.412   0.369
73591W        W33028  15.109  34.881  14.452
73592W        W33029  28.667  39.431  12.001
73593W        W33030   4.756   5.695  14.827
73594W        W33031  11.282  40.838  14.907
73595W        W33032  43.297  23.052   0.876
73596W        W33033  32.932   1.320  12.072
73597W        W33034   9.188  41.365  14.771
73598W        W33035  34.581  17.605  14.830
73599W        W33036  33.543  43.768  12.836
73600W        W33037  41.355  21.756   1.441
73601W        W33038  24.177  44.399   2.741
73602W        W33039  24.584  15.310   0.750
73603W        W33040  15.135  41.401  13.456
73604W        W33041  27.943  19.151   3.870
73605W        W33042  25.518  27.190   2.728
73606W        W33043  12.217  42.927   0.326
73607W        W33044  31.518  24.685   1.249
73608W        W33045  29.929  16.093  13.378
73609W        W33046   2.960  41.903   4.156
73610W        W33047  33.586  13.214  11.397
73611W        W33048  26.593  33.391   3.225
73612W        W33049  15.203  41.012   3.321
73613W        W33050  41.454  16.804   4.707
73614W        W33051   4.930  21.687   3.714
73615W        W33052  10.760  37.021  10.422
73616W        W33053  23.735   5.700   4.760
73617W        W33054  36.874   6.734  14.499
73618W        W33055  43.925  17.294   3.715
73619W        W33056   8.700  25.604   4.747
73620W        W33057  31.066  38.348  14.981
73621W        W33058  13.769  27.458   3.645
73622W        W33059  38.441   8.806  12.987
73623W        W33060  20.578  23.002   4.716
73624W        W33061   0.965  10.687  11.466
73625W        W33062  40.305  22.565  12.852
73626W        W33063  31.427  43.509  11.932
73627W        W33064  36.529  37.477   1.394
73628W        W33065   3.888  15.194   2.329
73629W        W33066  11.163   0.945   3.812
73630W        W33067  37.017  20.768   0.944
73631W        W33068   2.269  26.108  14.446
73632W        W33069   5.301  30.655   1.282
73633W        W33070  33.913   7.345   0.430
73634W        W33071  37.431   8.168  14.776
73635W        W33072  24.562  14.149   2.883
73636W        W33073   7.229  23.624   2.882
73637W        W33074  12.204   2.373  14.418
73638W        W33075  10.705  37.950  11.958
73639W        W33076  42.461  23.491   0.303
73640W        W33077  26.014  25.123   4.599
73641W        W33078  42.285  22.744   4.340
73642W        W33079   5.735  32.572   0.898
73643W        W33080   2.273   9.775   3.192
73644W        W33081   1.784   8.699   0.385
73645W        W33082  31.508  16.760  13.012
73646W        W33083  33.387  38.971  14.889
73647W        W33084  41.401  25.158  14.340
73648W        W33085   2.950  44.831  14.912
73649W        W33086  25.653  20.608   1.735
73650W        W33087  10.824   8.244  13.870
73651W        W33088  42.424  38.441  10.532
73652W        W33089   6.196   3.284   5.242
73653W        W33090  38.494  21.758   3.645
73654W        W33091  36.563  12.280   2.224
73655W        W33092  38.389  22.019   2.695
73656W        W33093   6.409  43.997  10.909
73657W        W33094  30.145  34.549   3.744
73658W        W33095  20.153   9.828  11.068
73659W        W33096  14.242  22.613   2.222
73660W        W33097  41.296  21.174   1.932
73661W        W33098   8.178  37.054  12.050
73662W        W33099   8.285  10.842  11.432
73663W        W33100   5.261  44.385   1.813
73664W        W33101  29.548  36.359  10.502
73665W        W33102  27.968  17.629  13.452
73666W        W33103  20.036  14.741   2.406
73667W        W33104  44.908  19.663   3.720
73668W        W33105  23.086  32.442  10.944
73669W        W33106  26.076  33.107  11.953
73670W        W33107  29.098  30.473   3.211
73671W        W33108  24.480  28.140   0.806
73672W        W33109  28.955  10.223   1.880
73673W        W33110   9.212  24.007  11.101
73674W        W33111   4.360  20.141   0.852
73675W        W33112  37.448   9.675   4.831
73676W        W33113  34.864  33.003   1.700
73677W        W33114  21.122  17.080  12.348
73678W        W33115  29.429  30.111  13.337
73679W        W33116  18.183   3.268   3.711
73680W        W33117  43.389   8.355  11.605
73681W        W33118  16.678  11.371   1.884
73682W        W33119  44.385  18.617   2.360
73683W        W33120  37.896  24.036  13.504
73684W        W33121  23.660  27.135  12.895
73685W        W33122  34.474   6.206  14.298
73686W        W33123   0.884  28.178   0.901
73687W        W33124  24.142  15.279  13.983
73688W        W33125  36.041  10.382   0.852
73689W        W33126  23.509  41.893   2.811
73690W        W33127  16.107   0.464  10.574
73691W        W33128  26.470  26.590  14.297
73692W        W33129  26.578  16.582   4.676
73693W        W33130  37.077  29.439   2.741
73694W        W33131  25.076  17.135   0.807
73695W        W33132  40.519  42.875   0.304
73696W        W33133  31.461   8.880   1.784
73697W        W33134  35.444   1.317   3.323
73698W        W33135  27.578  22.008  12.469
73699W        W33136   8.705  20.093   1.440
73700W        W33137  22.108   4.874  14.313
73701W        W33138  13.735  44.364  12.902
73702W        W33139  28.027  39.388  11.110
73703W        W33140  20.211   1.429   2.290
73704W        W33141   6.259  43.838   1.712
73705W        W33142  35.865  44.919  10.568
73706W        W33143   1.735   4.434  13.400
73707W        W33144  12.625  35.427   1.308
73708W        W33145   0.765   2.825   1.389
73709W        W33146  30.493  29.171   2.409
73710W        W33147  10.232  39.933   0.443
73711W        W33148  17.088  33.982  14.384
73712W        W33149  35.429  12.273  13.453
73713W        W33150  23.191  26.977  13.906
73714W        W33151  38.989  19.277   9.975
73715W        W33152  31.954   7.281   0.460
73716W        W33153  36.376  15.581  10.515
73717W        W33154   2.788  41.480  12.523
73718W        W33155  41.991   4.364  14.414
73719W        W33156  36.023  15.176   2.282
73720W        W33157  44.828  23.514   1.403
73721W        W33158  36.491  16.086   1.275
73722W        W33159  35.885  12.358   4.189
73723W        W33160  23.027  21.637   0.423
73724W        W33161  13.266   3.267   1.736
73725W        W33162  36.080  25.681   3.726
73726W        W33163  34.954  24.078  11.478
73727W        W33164  42.382  38.890  12.097
73728W        W33165  41.380  36.940  14.781
73729W        W33166  33.936  40.845   2.824
73730W        W33167  40.810  37.337  12.039
73731W        W33168  27.577  42.803  14.347
73732W        W33169  27.646  13.688  13.805
73733W        W33170  31.992   8.791   2.203
73734W        W33171  32.058  18.095   1.434
73735W        W33172  30.061  18.647   1.219
73736W        W33173  38.073  43.270  12.077
73737W        W33174  22.704  10.361  11.536
73738W        W33175  44.454  12.846  11.446
73739W        W33176  44.372  30.548  13.981
73740W        W33177  40.377  18.084  11.527
73741W        W33178  17.168   0.963   2.666
73742W        W33179  22.536  23.077   1.235
73743W        W33180  21.177  13.133  12.396
73744W        W33181  22.112   2.901   4.717
73745W        W33182  40.953   3.952  12.364
73746W        W33183  34.119  15.691  13.952
73747W        W33184  30.433  19.169   1.920
73748W        W33185  39.884  15.712  11.895
73749W        W33186  14.169  36.962  10.928
73750W        W33187  41.475  12.285  11.077
73751W        W33188  19.281   2.466   0.955
73752W        W33189   1.905  26.688  13.868
73753W        W33190   6.875  39.967   0.765
73754W        W33191  39.382  18.099   3.157
73755W        W33192  40.471  10.162  12.433
73756W        W33193  16.683  28.101   0.861
73757W        W33194  43.450  17.080  11.977
73758W        W33195  41.854  11.342  13.803
73759W        W33196  24.211   8.833   4.797
73760W        W33197  19.557  25.991  13.336
73761W        W33198  33.447  42.939   2.676
73762W        W33199  31.584  32.405  11.076
73763W        W33200  27.986  15.817  13.903
73764W        W33201   1.891  24.124  10.499
73765W        W33202  17.735  31.615  10.614
73766W        W33203  16.118  42.452   0.430
73767W        W33204  24.663   5.326  12.525
73768W        W33205  39.450  25.587   4.293
73769W        W33206  16.172  43.367   9.959
73770W        W33207  36.845  31.046  13.545
73771W        W33208   1.747  35.981   3.190
73772W        W33209  15.129  43.924   5.312
73773W        W33210   3.321   5.241  13.852
73774W        W33211   7.800  35.039   2.223
73775W        W33212   6.300  11.740  10.520
73776W        W33213   1.404  42.934   5.151
73777W        W33214   3.270   3.312   1.827
73778W        W33215   5.846  44.915   4.747
73779W        W33216  20.665  36.512   0.950
73780W        W33217  26.093  21.713   9.439
73781W        W33218  41.874  16.690  10.452
73782W        W33219  20.528   0.904  14.278
73783W        W33220   9.377  15.239  13.457
73784W        W33221  31.145  40.476   3.301
73785W        W33222  15.325  43.317  10.947
73786W        W33223  36.462  41.963  14.020
73787W        W33224   1.318  18.061  13.852
73788W        W33225  25.096  25.180  14.318
73789W        W33226  13.161  19.639  12.470
73790W        W33227  29.471  12.682  14.799
73791W        W33228  41.968  42.947  14.994
73792W        W33229  28.650  33.887  13.899
73793W        W33230  28.075   6.257   5.322
73794W        W33231  22.183   0.279  13.949
73795W        W33232  19.705  44.912   3.738
73796W        W33233   3.729  21.664   3.702
73797W        W33234  26.572  21.170   4.157
73798W        W33235  23.571  14.695   3.647
73799W        W33236  32.474   5.735  11.494
73800W        W33237   0.933  24.551   3.223
73801W        W33238  26.998  39.322  13.867
73802W        W33239  21.184  15.231  13.306
73803W        W33240  11.180   2.750  12.467
73804W        W33241  44.308  18.278  11.504
73805W        W33242   3.358   6.207   1.868
73806W        W33243  42.395  12.676  10.967
73807W        W33244  18.110  10.145  11.993
73808W        W33245   6.362   0.370   0.384
73809W        W33246   9.394  25.501   3.242
73810W        W33247  20.069  43.916   1.253
73811W        W33248  17.694   4.418   4.283
73812W        W33249   3.353  16.079   2.365
73813W        W33250   4.787  14.724   5.117
73814W        W33251   3.371   7.739   2.196
73815W        W33252  17.780  44.331  10.971
73816W        W33253   0.437   0.825  12.944
73817W        W33254  17.235  22.025  11.109
73818W        W33255   8.361  38.905  12.063
73819W        W33256  13.839  16.602  13.360
73820W        W33257  19.626  33.505  12.027
73821W        W33258  24.722   5.232   2.822
73822W        W33259  10.320  26.009  11.118
73823W        W33260  42.015  44.275   4.691
73824W        W33261  38.405   9.228   1.776
73825W        W33262   6.748   5.386   0.331
73826W        W33263   7.868  16.282  14.906
73827W        W33264   0.398   2.937  13.393
73828W        W33265  38.533  22.169  13.054
73829W        W33266  43.324  10.797   4.728
73830W        W33267   4.366  31.919   4.673
73831W        W33268  44.307  41.980   0.292
73832W        W33269  43.797  27.534   2.223
73833W        W33270   6.875   2.747  14.410
73834W        W33271  14.134   0.828  14.956
73835W        W33272   2.784  15.256  14.451
73836W        W33273  27.980  31.543  12.006
73837W        W33274   7.190  38.047   3.161
73838W        W33275   9.152  41.315   3.853
73839W        W33276  29.006  10.729   4.225
73840W        W33277  12.750  16.268   4.306
73841W        W33278  29.138   6.884  14.447
73842W        W33279  19.597   3.219   4.826
73843W        W33280  40.021  20.236   4.610
73844W        W33281  17.617  26.955  11.924
73845W        W33282  11.138  42.898   0.765
73846W        W33283  18.146  28.089   1.380
73847W        W33284  19.700   3.924  11.102
73848W        W33285   5.301  36.414  14.433
73849W        W33286  42.345  37.906   3.860
73850W        W33287  16.577  41.420  12.454
73851W        W33288   1.934  20.680  11.083
73852W        W33289  30.507  28.620   4.300
73853W        W33290  35.489   0.975   0.371
73854W        W33291  43.318  19.693   1.913
73855W        W33292  19.693  10.369   4.355
73856W        W33293  43.498  38.358   0.376
73857W        W33294  19.719  40.395  14.427
73858W        W33295  25.179  14.331  14.791
73859W        W33296   1.916  17.774   4.693
73860W        W33297  30.501  24.504   2.347
73861W        W33298  33.093  16.202   2.785
73862W        W33299  29.033  43.450   1.788
73863W        W33300  14.804   5.882  13.833
73864W        W33301  39.430  31.943  13.476
73865W        W33302  27.111  42.461  11.600
73866W        W33303   0.391  24.118   2.263
73867W        W33304   2.844  44.369   0.848
73868W        W33305  37.498  33.068  14.969
73869W        W33306  29.070  40.967   2.895
73870W        W33307  39.445  33.033   4.824
73871W        W33308  10.756  35.927   2.705
73872W        W33309  42.869  38.463  12.553
73873W        W33310   2.771  36.049  14.981
73874W        W33311   2.834  24.598   0.797
73875W        W33312  41.351   9.742  13.849
73876W        W33313  17.221  14.339  13.491
73877W        W33314  35.055  25.209  12.926
73878W        W33315   2.287  34.918  13.929
73879W        W33316  34.060  39.841   9.978
73880W        W33317  35.514   6.321   4.210
73881W        W33318  39.315  25.481   0.740
73882W        W33319  27.494  22.699   0.395
73883W        W33320  13.260  13.769   1.762
73884W        W33321  39.955   6.687  14.291
73885W        W33322   9.255  10.324  12.066
73886W        W33323  34.008  15.611  11.530
73887W        W33324  31.041  36.395   2.903
73888W        W33325   2.227  30.658   0.468
73889W        W33326   5.324  40.366  10.543
73890W        W33327  12.263  36.018   3.296
73891W        W33328  31.591  15.671   3.786
73892W        W33329   6.207  31.543  10.988
73893W        W33330  36.847  12.140   3.328
73894W        W33331  25.471   2.834  12.424
73895W        W33332   7.223  17.207   0.322
73896W        W33333   0.897  38.010   0.466
73897W        W33334  42.791  14.194   3.339
73898W        W33335   5.713   4.341  11.545
73899W        W33336   3.451  32.104  10.471
73900W        W33337   1.265  35.587  12.995
73901W        W33338  31.078  27.644   2.761
73902W        W33339  17.726  18.685   0.824
73903W        W33340  18.141  39.834  12.469
73904W        W33341  39.511  14.657  12.551
73905W        W33342  35.381   5.278   3.164
73906W        W33343  20.652  37.860  12.466
73907W        W33344  21.625  25.170   0.383
73908W        W33345  23.153   7.335   4.608
73909W        W33346  42.848  39.921   0.764
73910W        W33347   9.279  33.885   2.668
73911W        W33348  31.452  11.830  12.894
73912W        W33349  23.512  43.777   4.722
73913W        W33350  41.900   3.343   2.679
73914W        W33351   7.892  22.588  13.375
73915W        W33352  29.036   4.869  11.553
73916W        W33353  12.707  12.714   1.359
73917W        W33354  10.247  42.967   4.345
73918W        W33355  28.578  30.132  12.512
73919W        W33356  30.036   5.723  14.339
73920W        W33357  12.837   3.354   2.210
73921W        W33358   2.816   5.359  14.006
73922W        W33359  22.647  35.537  14.471
73923W        W33360  44.357  19.052   4.198
73924W        W33361  30.962  12.141   1.888
73925W        W33362  10.285  29.596   0.878
73926W        W33363   7.253  32.590  11.567
73927W        W33364  32.975  18.109   1.844
73928W        W33365  33.068  16.792  14.879
73929W        W33366   9.171  24.600   3.826
73930W        W33367  22.162   7.897   1.258
73931W        W33368  35.869  33.385  11.880
73932W        W33369  17.192  26.170  14.487
73933W        W33370  22.521  31.074   1.829
73934W        W33371   1.755  25.022   2.698
73935W        W33372   4.852  14.148   5.626
73936W        W33373  21.673  11.755  14.771
73937W        W33374   1.288  13.325  11.956
73938W        W33375  17.105   1.968   4.123
73939W        W33376  25.058  15.715   1.843
73940W        W33377  36.044  13.777   3.686
73941W        W33378   8.772  23.570  11.499
73942W        W33379  26.608  14.814  11.029
73943W        W33380  38.471  10.287   1.419
73944W        W33381  12.196  41.013   0.750
73945W        W33382  40.959  24.103   0.794
73946W        W33383  42.969   1.836  14.801
73947W        W33384  14.688  36.930  14.010
73948W        W33385  20.093  42.312   1.919
73949W        W33386  24.646  15.690   1.409
73950W        W33387  32.580  20.075  13.935
73951W        W33388  40.049  30.576  12.426
73952W        W33389  17.174  32.409   4.248
73953W        W33390   1.420  37.003  12.862
73954W        W33391  16.217  43.398   3.354
73955W        W33392  12.841   9.856  12.946
73956W        W33393  13.761  35.500  10.415
73957W        W33394   8.890  14.293  12.969
73958W        W33395   2.254  34.028   3.734
73959W        W33396  37.887   7.865   1.338
73960W        W33397  19.277  34.401  10.966
73961W        W33398  42.469   8.738   2.878
73962W        W33399  16.289   0.907   2.350
73963W        W33400  15.705   6.245   5.252
73964W        W33401  14.113  43.422   0.245
73965W        W33402  13.172  34.118   1.299
73966W        W33403  27.042  26.990   2.812
73967W        W33404  43.506  16.583   0.320
73968W        W33405  23.727   3.339  11.438
73969W        W33406  37.913  22.654   2.683
73970W        W33407  19.057   6.690   1.822
73971W        W33408  31.541  15.703   3.374
73972W        W33409   6.369  32.508   0.831
73973W        W33410  18.095  15.799   9.537
73974W        W33411   6.751   8.803   2.673
73975W        W33412  13.193  31.533   3.835
73976W        W33413  20.604  26.085  13.055
73977W        W33414  27.572  27.014   3.738
73978W        W33415  42.358  15.589   4.677
73979W        W33416  33.390   0.916   3.355
73980W        W33417  15.635  14.202  14.494
73981W        W33418   8.848   9.656  14.763
73982W        W33419  28.930  25.703   2.665
73983W        W33420  42.488  11.799   1.306
73984W        W33421  27.154  17.798   1.826
73985W        W33422  18.086  12.856   2.803
73986W        W33423  42.819  32.018   4.204
73987W        W33424  38.942  21.678  11.547
73988W        W33425   5.901  44.779   3.158
73989W        W33426   0.892   7.750  14.927
73990W        W33427  29.948   6.730  11.905
73991W        W33428   1.471  44.327  13.418
73992W        W33429  29.487  18.223   0.338
73993W        W33430   8.214   2.262  11.996
73994W        W33431  42.439  42.343   1.702
73995W        W33432  21.519  43.474  13.888
73996W        W33433  22.211   3.225  12.921
73997W        W33434  31.558  11.669  12.024
73998W        W33435  43.451  36.371   2.418
73999W        W33436  30.572  16.257  14.501
74000W        W33437  12.293  43.922  11.514
74001W        W33438   4.858  41.989  10.095
74002W        W33439  44.001   8.844   3.298
74003W        W33440  32.559   2.326   4.815
74004W        W33441   9.382   6.425   0.934
74005W        W33442  36.923  12.352   2.847
74006W        W33443  17.755  37.351   1.886
74007W        W33444  44.919  41.497   1.703
74008W        W33445  40.412  27.013   2.312
74009W        W33446  28.164  41.039  14.802
74010W        W33447  39.003  13.783   5.128
74011W        W33448  36.466  35.932   3.818
74012W        W33449   0.270  17.647  14.441
74013W        W33450  30.474  43.464   3.779
74014W        W33451   4.306  30.082  13.801
74015W        W33452  18.129  20.208  11.123
74016W        W33453  38.998  39.440  13.056
74017W        W33454  16.716  42.933   1.241
74018W        W33455   8.864  26.142  12.540
74019W        W33456  21.697  23.712  13.875
74020W        W33457   1.285   0.465  10.936
74021W        W33458  35.501  16.635   3.190
74022W        W33459  19.573   8.243   2.815
74023W        W33460  31.461   0.340  12.074
74024W        W33461  20.036  44.963  11.865
74025W        W33462   5.336  35.865   4.736
74026W        W33463   3.942  12.245   1.847
74027W        W33464   4.824  20.545  13.796
74028W        W33465   9.157  37.941  13.326
74029W        W33466  15.823   6.304  10.478
74030W        W33467  32.053  26.465   5.209
74031W        W33468  22.544  43.302   4.137
74032W        W33469  35.867   0.335   4.771
74033W        W33470  20.145   7.726   3.684
74034W        W33471   7.703   8.807  11.412
74035W        W33472  26.665  25.076   9.982
74036W        W33473   9.846  37.521   3.757
74037W        W33474  12.851  18.251   2.886
74038W        W33475  38.483   6.702  10.547
74039W        W33476  31.091  39.420   9.611
74040W        W33477  20.123  34.439   9.998
74041W        W33478  24.569  19.743   2.281
74042W        W33479  11.288  26.582   0.740
74043W        W33480   6.249  35.444   3.163
74044W        W33481  21.629  33.876   4.243
74045W        W33482  30.656  17.694  14.986
74046W        W33483  33.450   2.832   1.726
74047W        W33484  19.126  36.085   2.668
74048W        W33485  34.547  20.264  10.607
74049W        W33486   3.395  10.337  14.395
74050W        W33487  11.177  21.617  14.380
74051W        W33488  18.628  25.619   1.912
74052W        W33489  25.585  31.572  13.798
74053W        W33490  12.239  32.536  10.483
74054W        W33491  17.220  13.774   4.298
74055W        W33492  21.127  28.664   3.773
74056W        W33493   8.898   6.909   1.433
74057W        W33494  38.567  43.895   2.242
74058W        W33495  35.508   1.946  12.934
74059W        W33496  26.533  43.510   2.361
74060W        W33497  20.192  17.571   0.482
74061W        W33498  29.461  33.565   2.770
74062W        W33499  24.591  39.918   4.714
74063W        W33500  36.407   5.248   4.698
74064W        W33501  15.685  16.605   4.743
74065W        W33502  36.591   2.945  13.327
74066W        W33503  26.047  25.476  13.508
74067W        W33504   4.814  43.812  12.561
74068W        W33505   7.303  35.093   2.287
74069W        W33506  42.822  19.774   5.280
74070W        W33507   7.363   2.359   2.710
74071W        W33508  17.141  19.544  14.390
74072W        W33509  38.380  29.644   1.797
74073W        W33510  41.882  13.182   1.825
74074W        W33511  30.976  37.004  10.559
74075W        W33512  28.937  34.411  12.365
74076W        W33513   0.805  43.843   4.746
74077W        W33514   5.787  21.028  14.452
74078W        W33515  15.819   2.430  13.359
74079W        W33516  11.352  14.743  13.498
74080W        W33517   1.780  38.944   1.814
74081W        W33518  35.430  22.536   3.745
74082W        W33519  13.140  44.909   3.340
74083W        W33520  27.109  37.868   1.814
74084W        W33521  39.439  33.050   4.118
74085W        W33522   0.881  36.989  12.069
74086W        W33523  40.997  25.507  10.423
74087W        W33524  12.280  20.731   2.202
74088W        W33525  27.535  28.579   0.273
74089W        W33526  22.039  21.614   1.387
74090W        W33527   6.235  32.424  12.345
74091W        W33528  29.035  28.509  14.949
74092W        W33529  25.161  24.703   1.799
74093W        W33530  25.013  40.304  14.347
74094W        W33531  32.890  18.575   4.333
74095W        W33532  30.085   1.793   2.348
74096W        W33533  33.919  31.124   3.265
74097W        W33534  29.594   8.334   2.740
74098W        W33535  22.586  38.345   5.250
74099W        W33536   8.211  19.778   4.749
74100W        W33537   9.232  25.980  11.928
74101W        W33538  38.060   8.266  12.957
74102W        W33539  44.948  29.628   4.202
74103W        W33540  37.017   7.194  11.602
74104W        W33541  26.972  14.699  10.980
74105W        W33542  37.541  16.154  14.284
74106W        W33543  39.422  28.675  13.390
74107W        W33544  26.460  25.079   1.878
74108W        W33545  11.650  17.676   4.209
74109W        W33546  27.014  37.059   2.287
74110W        W33547  16.693   0.472  11.437
74111W        W33548  32.952   4.206  14.795
74112W        W33549  33.492  15.321   4.836
74113W        W33550  29.452  18.235   4.354
74114W        W33551  21.753  29.090   1.335
74115W        W33552   6.415   4.828   1.900
74116W        W33553  39.433  20.566  14.987
74117W        W33554  25.582  15.200  10.421
74118W        W33555   0.443   5.344  12.486
74119W        W33556  42.808  20.585   4.610
74120W        W33557  11.216  44.354   1.732
74121W        W33558  41.974   9.167  10.631
74122W        W33559  31.424   7.819   2.677
74123W        W33560  37.497  13.230  10.927
74124W        W33561  34.904   4.728   3.768
74125W        W33562  32.125  27.679  12.474
74126W        W33563  18.216  38.862   4.245
74127W        W33564   2.395  34.021  14.424
74128W        W33565   9.888   6.891  12.580
74129W        W33566  24.184   0.824  12.891
74130W        W33567  38.954  40.364  10.906
74131W        W33568  31.021   8.673   3.162
74132W        W33569  26.533  14.648  12.399
74133W        W33570  26.099  24.201   4.179
74134W        W33571  38.844  29.487   0.470
74135W        W33572  31.479  44.269  12.848
74136W        W33573  11.322  28.016  14.464
74137W        W33574  20.124  30.571  14.349
74138W        W33575  41.895   2.409   2.876
74139W        W33576  15.275  30.060   0.890
74140W        W33577   1.853  41.857  14.447
74141W        W33578  28.668   1.380   4.198
74142W        W33579  18.550  41.339   0.861
74143W        W33580   7.262  11.176   4.794
74144W        W33581  13.812  39.493  11.499
74145W        W33582   7.782  26.594   5.782
74146W        W33583  32.432  11.653   0.443
74147W        W33584  39.512   1.872   5.298
74148W        W33585  37.032  30.933   2.387
74149W        W33586  22.736  31.612  14.428
74150W        W33587  20.730  21.039  12.855
74151W        W33588  25.627   5.319  14.765
74152W        W33589  31.977  15.699   0.369
74153W        W33590  33.384  17.705  10.470
74154W        W33591  20.591   2.965   1.926
74155W        W33592   7.230   0.393   0.851
74156W        W33593  37.016  44.266   1.350
74157W        W33594  12.123  29.958   1.216
74158W        W33595   6.383  23.636  11.581
74159W        W33596  27.152  44.807  12.892
74160W        W33597   4.898  41.798  11.544
74161W        W33598  34.017  18.061  11.476
74162W        W33599  41.890   8.829   0.388
74163W        W33600  37.401  37.494   4.809
74164W        W33601   9.300  16.267  12.383
74165W        W33602  21.084   6.744  13.906
74166W        W33603   5.845  42.449   0.922
74167W        W33604  14.187  16.601  13.320
74168W        W33605  23.047   0.939   9.997
74169W        W33606  17.227  38.532  11.934
74170W        W33607   0.747  41.833   1.266
74171W        W33608  44.489  30.161   3.686
74172W        W33609   4.340  24.012   2.747
74173W        W33610  23.726   1.276  12.833
74174W        W33611  12.785   5.714   3.290
74175W        W33612  36.926  23.154  13.810
74176W        W33613  39.852   0.937   4.128
74177W        W33614   8.849  36.969  11.103
74178W        W33615   1.310   9.369  12.417
74179W        W33616  15.216  36.068   1.705
74180W        W33617  10.178  38.873   4.126
74181W        W33618  27.466  36.980   0.846
74182W        W33619  29.148  24.622  12.344
74183W        W33620  15.644  27.023   4.244
74184W        W33621  35.032  22.211  10.575
74185W        W33622  21.523  25.501   5.664
74186W        W33623  25.667  39.337   3.785
74187W        W33624  34.047  10.849   0.302
74188W        W33625  19.750  37.556  12.937
74189W        W33626  19.690   0.746   0.922
74190W        W33627  41.530  28.442   0.432
74191W        W33628   2.730  38.906  14.773
74192W        W33629  11.745  24.118  12.017
74193W        W33630  34.573  26.200   2.404
74194W        W33631  17.129  15.099   1.240
74195W        W33632  23.494   6.887   1.220
74196W        W33633  13.301  37.486  11.495
74197W        W33634  23.519  20.163  13.925
74198W        W33635   0.937  18.545   3.320
74199W        W33636  39.385  15.178   1.860
74200W        W33637  44.786  42.348  13.898
74201W        W33638  13.747  34.020   0.898
74202W        W33639   7.360  28.548  12.457
74203W        W33640  43.375  18.636   2.709
74204W        W33641  20.744   1.347  10.593
74205W        W33642  38.933  41.912   3.370
74206W        W33643  34.583  41.441   5.256
74207W        W33644  36.356   8.722  11.412
74208W        W33645  32.429  26.669   1.330
74209W        W33646  25.203  26.180  13.487
74210W        W33647   8.680  23.501  10.443
74211W        W33648   1.867  33.564  11.008
74212W        W33649  34.955   0.888   1.405
74213W        W33650  19.548  33.442   0.962
74214W        W33651   5.696  34.371  14.885
74215W        W33652  44.011  19.135  12.548
74216W        W33653   1.877   4.932  11.072
74217W        W33654  29.589  29.148  14.974
74218W        W33655  22.231  30.608   2.380
74219W        W33656  33.030  44.929  10.953
74220W        W33657   1.461  31.439  10.904
74221W        W33658   7.841  35.590  13.899
74222W        W33659  15.291   5.902  13.817
74223W        W33660  10.756  12.661  10.415
74224W        W33661  29.466  27.674   2.414
74225W        W33662  26.159  15.579   0.384
74226W        W33663  38.456  33.126  12.857
74227W        W33664  10.852  19.757  14.473
74228W        W33665  35.088  40.458   2.783
74229W        W33666  36.086   5.423   3.661
74230W        W33667  34.476  43.409   2.200
74231W        W33668  32.493   5.422   4.832
74232W        W33669  32.005  15.631  10.515
74233W        W33670   4.706  35.481   4.265
74234W        W33671  33.575  29.501  10.638
74235W        W33672  21.645  34.431  14.939
74236W        W33673  26.566  36.493  13.909
74237W        W33674  21.635  14.591   4.819
74238W        W33675  12.647  43.388   0.265
74239W        W33676  34.444   7.197   0.467
74240W        W33677  13.331  35.884  10.934
74241W        W33678  24.133  21.724   3.169
74242W        W33679  29.056   3.890   2.672
74243W        W33680  23.722   6.850  13.438
74244W        W33681  41.426  20.220   2.715
74245W        W33682  15.299   7.729  14.866
74246W        W33683   3.360  30.442   1.262
74247W        W33684  39.334  37.489  10.519
74248W        W33685  34.387  37.501   2.759
74249W        W33686  19.584  29.941   2.734
74250W        W33687  39.486  22.593   0.862
74251W        W33688   0.891  38.034  13.311
74252W        W33689  36.900  19.673  10.608
74253W        W33690   3.337  24.555  13.517
74254W        W33691  24.005  19.228  11.070
74255W        W33692  12.754  15.595  10.572
74256W        W33693  15.787  27.998   0.245
74257W        W33694   1.392  28.941   0.331
74258W        W33695  26.031  14.216  10.015
74259W        W33696  39.395  41.428  12.891
74260W        W33697  25.591   4.758  10.552
74261W        W33698  10.182  14.772   3.354
74262W        W33699  44.865  19.081   1.862
74263W        W33700  10.292  43.462   1.317
74264W        W33701  10.718  44.435   3.189
74265W        W33702  14.669  16.591  12.917
74266W        W33703  17.706  44.311   1.346
74267W        W33704  26.545  40.953   1.855
74268W        W33705  15.320  38.831   0.328
74269W        W33706   5.733  43.764   4.824
74270W        W33707  18.572  10.859  12.896
74271W        W33708  44.883  35.880  13.544
74272W        W33709  10.328   0.440   0.933
74273W        W33710   0.832  35.418  13.968
74274W        W33711  42.469   6.381  13.380
74275W        W33712  40.457   9.876   2.342
74276W        W33713   6.390   3.788  12.489
74277W        W33714  39.516  33.576   1.696
74278W        W33715  31.979  10.686   0.283
74279W        W33716   3.248   3.799   2.715
74280W        W33717  15.766  14.791   1.810
74281W        W33718  42.926  29.030  11.980
74282W        W33719  23.134   8.824  14.378
74283W        W33720  40.906  17.221  12.867
74284W        W33721  42.926  22.138   0.961
74285W        W33722   4.398   5.780   2.366
74286W        W33723  37.957   1.442  14.321
74287W        W33724  21.054  36.493   1.807
74288W        W33725  22.681  41.468  13.046
74289W        W33726   7.186  44.432  12.827
74290W        W33727  40.029   2.394  14.300
74291W        W33728   4.303  10.233  11.008
74292W        W33729  15.670  40.435  13.359
74293W        W33730  26.513  38.043  11.893
74294W        W33731  23.636  27.534   3.866
74295W        W33732  29.957   3.407  13.435
74296W        W33733  15.782  20.524   0.455
74297W        W33734  15.279  27.519  13.544
74298W        W33735   0.873  17.304   0.908
74299W        W33736  11.292  26.178   0.360
74300W        W33737  26.103  32.444  14.884
74301W        W33738  15.806  33.504  13.922
74302W        W33739   6.904  38.892  14.854
74303W        W33740  21.531  11.210   0.433
74304W        W33741   7.251  38.570   3.704
74305W        W33742   3.299  28.993   2.816
74306W        W33743  24.067  27.103   1.847
74307W        W33744   4.287   2.862   1.749
74308W        W33745  24.641  34.596   2.368
74309W        W33746  27.630  19.043   1.442
74310W        W33747  28.506  18.284  10.587
74311W        W33748   2.441  39.985  14.971
74312W        W33749  25.021   5.430  10.933
74313W        W33750   3.277  22.610  10.622
74314W        W33751   8.364  15.247  11.593
74315W        W33752  24.532   4.702   3.733
74316W        W33753   9.265  19.221   2.397
74317W        W33754  22.142  41.831   2.303
74318W        W33755   2.306   3.268   4.629
74319W        W33756  16.615  15.776   4.707
74320W        W33757   5.428  27.989   3.284
74321W        W33758  42.335  28.573   3.846
74322W        W33759   5.858  22.597   4.834
74323W        W33760  37.998  15.094  12.964
74324W        W33761  15.237  39.854  12.972
74325W        W33762  32.029  30.545   1.445
74326W        W33763   2.418  23.517   4.220
74327W        W33764  21.674  31.129  10.917
74328W        W33765  40.408  35.088  10.959
74329W        W33766  16.583  16.179  13.400
74330W        W33767   0.474  24.173  12.454
74331W        W33768  39.876  29.424  13.494
74332W        W33769  25.041  22.076   1.842
74333W        W33770   5.317  28.151  12.842
74334W        W33771  20.072  38.542  12.824
74335W        W33772  19.625  19.678  11.524
74336W        W33773  15.179  13.739   3.278
74337W        W33774  43.361   0.418  13.821
74338W        W33775  38.878  41.497  14.773
74339W        W33776  35.502  22.231   0.312
74340W        W33777  24.095  13.819   0.905
74341W        W33778  25.028  17.751   3.319
74342W        W33779   2.871  11.822  11.488
74343W        W33780  29.539   3.921   2.214
74344W        W33781  13.213  10.815   1.720
74345W        W33782  27.181  14.120   2.266
74346W        W33783  10.175  22.103   3.183
74347W        W33784  41.914  30.550  11.384
74348W        W33785  36.438  33.969  12.517
74349W        W33786  32.142  31.042   0.763
74350W        W33787  40.323  44.416   4.243
74351W        W33788  36.855   4.924  14.860
74352W        W33789  25.997  13.273   2.733
74353W        W33790   7.733   2.453   3.731
74354W        W33791  42.926  34.097  10.454
74355W        W33792  32.603  35.919  14.327
74356W        W33793  31.986   4.709   1.413
74357W        W33794  11.717   3.726  10.980
74358W        W33795   7.796  44.909   4.302
74359W        W33796  18.572   6.922  14.023
74360W        W33797   7.313   5.431  14.287
74361W        W33798  38.881  36.583   0.739
74362W        W33799   9.804  44.263  13.023
74363W        W33800  32.110   1.274  12.463
74364W        W33801  41.043  35.922  14.851
74365W        W33802  39.928   2.309   0.449
74366W        W33803   2.469  41.385   0.762
74367W        W33804  11.344  10.656   0.967
74368W        W33805  30.468  29.518  12.903
74369W        W33806  32.977  24.663  12.464
74370W        W33807  33.968  37.897   2.393
74371W        W33808  30.145  36.939  11.562
74372W        W33809  36.845  34.369   1.863
74373W        W33810  23.652   7.742   0.742
74374W        W33811  38.010  20.626  10.981
74375W        W33812  30.495  21.085   3.751
74376W        W33813  41.014  10.203   3.364
74377W        W33814   5.911  29.583  14.393
74378W        W33815  18.711   5.240   2.352
74379W        W33816  41.922  36.033   2.291
74380W        W33817  24.985  33.523  11.861
74381W        W33818   8.775  33.057  14.000
74382W        W33819  39.007  12.612  10.565
74383W        W33820  34.918  34.593   3.296
74384W        W33821  33.397   0.295   9.993
74385W        W33822  42.287  22.596   0.960
74386W        W33823  21.727   1.376  12.480
74387W        W33824  18.559  25.087  14.415
74388W        W33825  10.384  18.235   4.217
74389W        W33826   4.921   9.725   2.700
74390W        W33827   2.796  16.261  14.367
74391W        W33828  42.914  12.735  12.039
74392W        W33829  21.513   4.792  13.361
74393W        W33830  40.506  19.570  10.585
74394W        W33831  34.921  20.224   3.351
74395W        W33832   2.898  29.488  10.563
74396W        W33833   9.171  23.139   2.760
74397W        W33834  21.239   0.252   1.424
74398W        W33835  14.256  33.474  14.967
74399W        W33836  11.155  37.843   0.384
74400W        W33837  23.535  27.645  13.484
74401W        W33838   0.284  20.532   4.187
74402W        W33839  12.737  32.419  11.496
74403W        W33840  31.923  44.943  12.957
74404W        W33841  24.547  28.490   2.787
74405W        W33842   6.848   0.486   2.187
74406W        W33843  13.146  40.005   9.561
74407W        W33844  35.049  41.322   1.422
74408W        W33845  30.155  11.229  14.293
74409W        W33846  39.553  37.055   1.753
74410W        W33847   7.819  17.184  12.900
74411W        W33848   5.262  36.508   1.299
74412W        W33849  29.576  21.683  12.896
74413W        W33850  21.247  15.247   1.308
74414W        W33851  13.151  24.227  10.574
74415W        W33852  21.660   2.262   1.338
74416W        W33853  44.442   5.743  14.799
74417W        W33854  36.351  43.291  14.986
74418W        W33855  39.852   4.286  12.891
74419W        W33856  27.633  36.960  11.536
74420W        W33857  41.928  22.235  10.909
74421W        W33858  24.723  17.184  14.912
74422W        W33859   3.378  14.739   3.714
74423W        W33860  12.658  31.141  13.366
74424W        W33861  32.510  15.196   3.713
74425W        W33862  10.159  31.918  10.973
74426W        W33863  30.094   4.770  14.926
74427W        W33864  39.948  24.181   3.845
74428W        W33865  22.212  26.561   2.202
74429W        W33866  14.601  10.227   0.446
74430W        W33867   1.271  12.243  13.898
74431W        W33868  44.911   5.702   3.199
74432W        W33869  24.641  32.587   3.654
74433W        W33870  33.522  30.089   2.697
74434W        W33871  36.384  36.879  10.061
74435W        W33872  27.090  36.962  13.340
74436W        W33873  17.202  42.906   4.768
74437W        W33874  19.572   5.288   3.208
74438W        W33875   5.732  27.476   3.207
74439W        W33876   9.848  23.697   0.377
74440W        W33877  39.475  33.605   0.798
74441W        W33878  17.710  27.087   1.741
74442W        W33879  28.957  19.216   1.755
74443W        W33880  23.655  21.604  12.918
74444W        W33881  14.183  13.805   1.378
74445W        W33882  14.165  25.629  14.291
74446W        W33883  42.324  33.552   2.712
74447W        W33884   1.801  39.941  13.064
74448W        W33885  43.479   8.205  14.770
74449W        W33886  34.107  21.512   2.856
74450W        W33887  41.501  41.349  12.455
74451W        W33888  22.724   0.254  12.871
74452W        W33889  19.043  14.240  10.890
74453W        W33890  13.124  40.508  11.581
74454W        W33891  38.533  43.850   1.920
74455W        W33892  14.141  22.054   0.810
74456W        W33893  15.598  38.838   2.314
74457W        W33894   2.957  40.431   2.215
74458W        W33895  10.151  20.265   5.322
74459W        W33896  25.662  12.194  12.912
74460W        W33897  31.647  37.981  14.848
74461W        W33898  28.023  15.814  12.016
74462W        W33899  42.470  25.191  11.438
74463W        W33900   7.186   2.378  12.986
74464W        W33901  31.135  18.716   1.400
74465W        W33902  24.493  35.590   3.234
74466W        W33903  44.783  32.940   0.273
74467W        W33904  39.491   0.288   3.217
74468W        W33905  13.262  19.690   5.163
74469W        W33906   6.293  35.048   0.753
74470W        W33907  40.531   5.239  13.543
74471W        W33908  22.089  19.639   0.287
74472W        W33909   8.195  17.124  13.369
74473W        W33910  39.821  17.582  10.481
74474W        W33911   8.221  13.275   0.393
74475W        W33912  42.289  18.583  13.411
74476W        W33913   2.420  35.445  12.563
74477W        W33914  26.093  44.754   2.688
74478W        W33915  43.454   8.768   4.775
74479W        W33916  31.971   7.731  13.365
74480W        W33917   1.314  23.990  10.898
74481W        W33918  21.103   4.937   5.125
74482W        W33919   6.902  11.854   0.271
74483W        W33920  36.479  37.025  14.965
74484W        W33921  28.616  12.237  10.574
74485W        W33922   0.271  44.342  11.488
74486W        W33923   1.804   8.710   2.412
74487W        W33924  14.338  24.671  13.871
74488W        W33925  24.006  27.185  13.028
74489W        W33926  26.199  37.879   0.331
74490W        W33927  18.758  15.713  13.943
74491W        W33928  19.672   8.760   4.685
74492W        W33929  23.159  31.076  11.454
74493W        W33930  36.495   7.769   1.213
74494W        W33931  29.997  41.024   1.729
74495W        W33932   5.883   5.922  13.342
74496W        W33933  19.062  18.660   1.296
74497W        W33934  44.326  29.451  12.862
74498W        W33935   5.696  24.126   0.300
74499W        W33936  36.565  44.871   3.809
74500W        W33937  35.571  24.191   2.267
74501W        W33938  42.886   4.902   3.349
74502W        W33939  22.698   7.280   2.740
74503W        W33940  34.894  40.021   0.876
74504W        W33941  44.291  12.116   3.160
74505W        W33942   8.367  41.906   1.303
74506W        W33943  14.275   8.832   3.709
74507W        W33944  25.069   0.426  10.513
74508W        W33945  13.211  33.925  10.889
74509W        W33946  18.551  10.272   1.881
74510W        W33947   5.776  27.054  10.057
74511W        W33948   9.274   0.752   0.809
74512W        W33949  44.394   7.681  10.615
74513W        W33950   2.293  24.121  11.605
74514W        W33951   5.859  34.546   1.282
74515W        W33952   7.839  35.586  14.433
74516W        W33953  21.698  28.073  13.526
74517W        W33954   6.794  44.413  13.055
74518W        W33955  39.946  24.066  10.447
74519W        W33956  22.077  11.368  11.453
74520W        W33957  17.628  23.198   0.353
74521W        W33958  33.914   2.462   4.332
74522W        W33959   6.303  21.232  11.454
74523W        W33960  30.580   0.258   3.307
74524W        W33961  26.611  43.864   0.286
74525W        W33962  29.503  40.415   0.353
74526W        W33963  19.683  44.967   4.220
74527W        W33964  16.302  27.660  11.952
74528W        W33965   0.396  29.019   0.825
74529W        W33966   0.259  33.575  14.867
74530W        W33967  31.475  44.462   2.263
74531W        W33968  27.094   6.407   4.772
74532W        W33969  35.071   2.392  10.974
74533W        W33970   3.818  34.435   1.446
74534W        W33971  27.105  15.329  13.878
74535W        W33972  28.180  13.820  10.101
74536W        W33973  40.317   9.239  13.398
74537W        W33974  25.075  12.623  10.973
74538W        W33975  20.525   4.422   2.784
74539W        W33976  12.748  22.625   2.310
74540W        W33977  35.874  10.300  11.073
74541W        W33978  10.254  30.977   3.271
74542W        W33979  17.287   1.901   4.768
74543W        W33980  23.698   2.261   4.769
74544W        W33981   5.808  38.955  14.370
74545W        W33982  42.518  26.122   1.879
74546W        W33983  24.527  37.470  14.491
74547W        W33984  41.305  25.145  13.349
74548W        W33985   4.388  29.942   2.724
74549W        W33986  14.737  31.048  13.058
74550W        W33987  18.699  40.896   4.735
74551W        W33988   9.327  23.676  13.320
74552W        W33989  44.950  18.621   1.250
74553W        W33990  19.214  23.539   1.310
74554W        W33991  42.336  42.499   1.374
74555W        W33992  23.610  13.232   0.407
74556W        W33993   5.831   1.771  11.562
74557W        W33994   6.726  44.370   2.252
74558W        W33995  18.061  35.025  14.498
74559W        W33996   1.286  10.366  12.384
74560W        W33997  29.640  15.164   1.767
74561W        W33998  23.108  25.579  13.483
74562W        W33999  44.427  30.097  12.064
74563W        W34000  20.089  40.958  10.913
74564W        W34001  10.706  14.130  10.501
74565W        W34002   1.258   9.172  14.477
74566W        W34003  24.984  32.078  11.478
74567W        W34004  34.016  23.507  14.976
74568W        W34005  15.109  22.246  12.368
74569W        W34006  37.418  41.424   0.763
74570W        W34007  28.098  25.176  13.827
74571W        W34008  21.576  20.621   2.817
74572W        W34009   1.808   0.964   2.369
74573W        W34010  39.010  44.348  13.972
74574W        W34011  25.675  20.727   2.685
74575W        W34012  27.448  35.505   0.794
74576W        W34013  36.993  36.471  12.823
74577W        W34014  43.852   0.888  13.395
74578W        W34015  21.126  33.406   2.846
74579W        W34016  43.423  36.073   0.853
74580W        W34017  31.152   1.438  13.409
74581W        W34018  10.293  13.648  11.435
74582W        W34019  12.775  28.173  14.299
74583W        W34020  41.509  37.409  14.460
74584W        W34021  20.241  38.499  10.933
74585W        W34022  20.669  30.560   3.250
74586W        W34023  29.970   1.857  11.986
74587W        W34024   2.406  25.696  11.926
74588W        W34025  13.697  16.200   1.234
74589W        W34026   9.174  21.746  12.513
74590W        W34027   6.308  22.121  11.869
74591W        W34028  34.500   3.223   4.205
74592W        W34029   7.406  40.319  12.063
74593W        W34030  44.308  38.354  10.097
74594W        W34031  36.464  11.156  12.347
74595W        W34032  10.235  41.365   4.317
74596W        W34033   7.253  27.459   2.341
74597W        W34034   0.785   4.308   1.433
74598W        W34035   5.705  13.156   1.745
74599W        W34036  38.462   7.911  14.886
74600W        W34037  22.241  32.587   3.810
74601W        W34038  27.678   0.810   0.771
74602W        W34039  15.636  25.092   0.261
74603W        W34040  40.991  30.112  14.872
74604W        W34041  31.123  20.202  11.075
74605W        W34042  44.378   3.951  10.912
74606W        W34043  39.974  10.825   0.390
74607W        W34044   9.712  26.024   2.314
74608W        W34045   8.298   4.232  14.940
74609W        W34046  34.952   1.814   4.299
74610W        W34047   4.923  11.706   5.090
74611W        W34048  43.510  17.650  14.278
74612W        W34049   0.403   0.824  10.523
74613W        W34050  18.685  39.048   4.338
74614W        W34051  10.638  19.561   3.331
74615W        W34052  15.743   5.268   1.339
74616W        W34053  22.192  25.023   3.725
74617W        W34054  12.855  10.354   3.655
74618W        W34055  33.622  16.315  12.976
74619W        W34056  32.483  10.368   0.783
74620W        W34057  34.084  35.976   1.225
74621W        W34058  13.785   8.223   0.333
74622W        W34059  27.038   8.897   2.787
74623W        W34060  28.131  16.732   3.648
74624W        W34061  41.940  14.717  11.606
74625W        W34062  31.568   8.793  14.028
74626W        W34063  39.989  38.532   3.859
74627W        W34064  30.489  14.742  11.399
74628W        W34065  13.774  10.867  12.408
74629W        W34066  18.774  21.024   4.742
74630W        W34067  33.106   7.282   1.299
74631W        W34068   6.259  42.865  14.856
74632W        W34069  28.144   4.227  12.090
74633W        W34070  37.458  28.181   5.204
74634W        W34071  34.029  25.118   2.199
74635W        W34072  13.782   4.256  11.434
74636W        W34073  41.320  30.035  11.033
74637W        W34074  11.664  13.777  14.923
74638W        W34075  13.148  29.106  13.332
74639W        W34076   0.381  37.872   0.762
74640W        W34077  40.368  40.541  10.076
74641W        W34078  17.071  13.212   2.748
74642W        W34079  15.190  43.008   4.205
74643W        W34080  15.261  16.280   9.486
74644W        W34081  44.303  25.659  10.620
74645W        W34082   8.160  15.251  12.861
74646W        W34083  27.636  16.666  14.373
74647W        W34084   3.400  21.185   1.419
74648W        W34085   3.762  22.247  11.104
74649W        W34086  23.150  11.343   3.835
74650W        W34087  19.285  38.512   4.818
74651W        W34088  33.563  28.599   1.826
74652W        W34089  27.454  20.050  12.980
74653W        W34090  20.097  13.607  12.837
74654W        W34091   8.354  26.552  13.902
74655W        W34092  39.892   9.345   2.891
74656W        W34093  12.250  37.882   1.304
74657W        W34094   5.426  34.985   4.309
74658W        W34095   1.747  29.148   2.219
74659W        W34096   1.844   1.946   1.764
74660W        W34097  41.481  12.778   1.410
74661W        W34098  17.643  26.044  12.572
74662W        W34099  21.053  38.962   0.919
74663W        W34100   8.382  37.907   3.302
74664W        W34101  15.615  23.602  13.806
74665W        W34102  31.027  43.452   1.805
74666W        W34103   6.194   0.814   5.211
74667W        W34104  14.221  36.958  12.513
74668W        W34105  39.049  25.082   1.818
74669W        W34106   2.405  21.600  14.908
74670W        W34107  21.745  22.198   0.831
74671W        W34108  43.280  37.411   9.928
74672W        W34109   6.683  33.484   0.332
74673W        W34110   9.868  16.612   4.352
74674W        W34111  29.045   2.400  14.492
74675W        W34112  14.131  34.543   2.413
74676W        W34113  23.730  13.128  10.566
74677W        W34114  19.751  10.330  13.872
74678W        W34115   4.363  21.740   0.860
74679W        W34116  28.583  10.853   3.838
74680W        W34117  19.111  12.678   0.766
74681W        W34118  37.499  27.111   1.822
74682W        W34119  40.510  14.223   4.336
74683W        W34120  26.001  18.206   3.814
74684W        W34121   4.364  29.093   1.349
74685W        W34122  17.275  17.221  13.971
74686W        W34123  16.622  27.988   0.322
74687W        W34124  36.967  41.313   1.793
74688W        W34125  10.762  27.066   4.814
74689W        W34126  37.078  40.864  11.029
74690W        W34127  28.602  19.591  14.411
74691W        W34128  28.566   2.764  14.470
74692W        W34129   4.698   8.713  14.007
74693W        W34130  38.977  11.155  13.492
74694W        W34131  31.615  44.415   2.876
74695W        W34132  13.623  33.545   2.372
74696W        W34133  33.044  25.177   4.697
74697W        W34134  38.377  14.277   3.672
74698W        W34135  37.051  30.646   0.340
74699W        W34136  38.842  39.483   3.180
74700W        W34137  18.088  29.645  11.554
74701W        W34138  29.479  10.310   5.228
74702W        W34139  12.771  10.324  12.008
74703W        W34140  20.252  33.620  14.433
74704W        W34141  31.497  14.224  14.502
74705W        W34142   8.658  44.828  14.901
74706W        W34143  37.403  33.075   1.889
74707W        W34144   0.300  44.769   2.844
74708W        W34145  23.134  10.700  10.931
74709W        W34146   3.412  34.017  13.464
74710W        W34147  30.150  12.226  12.911
74711W        W34148  28.133   0.287   1.828
74712W        W34149  20.202  19.570   9.946
74713W        W34150  24.648   2.793  12.561
74714W        W34151  27.995  28.157   4.221
74715W        W34152  11.700   7.778   4.298
74716W        W34153  41.441   1.944  12.961
74717W        W34154  24.513  15.195   2.410
74718W        W34155  38.944  26.470  13.937
74719W        W34156  15.778   5.766  14.453
74720W        W34157   4.826  28.620  12.428
74721W        W34158  31.490  13.249   2.794
74722W        W34159  35.492  42.907  12.010
74723W        W34160  28.660  18.703  13.395
74724W        W34161   1.929  27.164  14.857
74725W        W34162   1.279  32.031  13.320
74726W        W34163  36.021  14.339   4.794
74727W        W34164  32.063  29.566  11.542
74728W        W34165   8.848  14.101   3.204
74729W        W34166  26.051  19.185  11.419
74730W        W34167  27.446  14.337   4.200
74731W        W34168  19.109  33.946   3.794
74732W        W34169   4.866  21.593   0.429
74733W        W34170   6.879  23.685   2.232
74734W        W34171  13.719  22.053   1.235
74735W        W34172  18.714  12.327  11.608
74736W        W34173   1.735  18.571  12.413
74737W        W34174  40.446  34.533  10.483
74738W        W34175  37.077  35.061  12.044
74739W        W34176   5.330  39.366   3.861
74740W        W34177  21.696  17.636  11.870
74741W        W34178  14.727   2.915   3.257
74742W        W34179  33.048  39.328  13.846
74743W        W34180  22.085  14.303   3.155
74744W        W34181  20.110  10.369  10.911
74745W        W34182   7.853  13.635  14.485
74746W        W34183  10.384  36.946  13.006
74747W        W34184  42.790  25.500   4.154
74748W        W34185  20.036   5.278   4.611
74749W        W34186  12.125  27.108   0.392
74750W        W34187  26.990  39.433   1.868
74751W        W34188   9.196  35.966   1.763
74752W        W34189  17.557  14.804  11.884
74753W        W34190   6.750  28.639  13.979
74754W        W34191  18.245  37.877   1.909
74755W        W34192   3.455  38.944  12.074
74756W        W34193  42.509   1.383   3.179
74757W        W34194  17.802   6.764  10.913
74758W        W34195  22.608   5.261  11.571
74759W        W34196   9.188  31.497   3.755
74760W        W34197  35.599  43.512   4.696
74761W        W34198  25.031  32.419   2.199
74762W        W34199  32.932  30.077  14.790
74763W        W34200  26.613  33.985  10.973
74764W        W34201  10.873  22.215  12.374
74765W        W34202  30.457  34.492  11.454
74766W        W34203  17.175  27.065   3.764
74767W        W34204  12.308   2.460  12.857
74768W        W34205   9.645  43.301   0.846
74769W        W34206  30.056   2.463  10.539
74770W        W34207   5.254  18.733  14.922
74771W        W34208  21.751  11.261   4.165
74772W        W34209  44.409  19.595   0.458
74773W        W34210  24.088   8.373   4.768
74774W        W34211  18.579  28.035  14.857
74775W        W34212  39.474   1.273   2.825
74776W        W34213   7.900  37.892   1.786
74777W        W34214  34.054  16.180  14.990
74778W        W34215  12.791  44.847   4.234
74779W        W34216  38.453  12.720   4.314
74780W        W34217   0.315  17.182  12.838
74781W        W34218  11.333   1.294  10.425
74782W        W34219  25.607   1.294  14.487
74783W        W34220  12.764  11.252  13.373
74784W        W34221   9.154  15.707   3.696
74785W        W34222   8.374  40.798  14.916
74786W        W34223  34.038  20.611   3.386
74787W        W34224  38.916  21.094  10.441
74788W        W34225  34.112  20.667   3.851
74789W        W34226   9.238   5.829  10.981
74790W        W34227  44.884   7.371   1.417
74791W        W34228  33.992  35.931  11.950
74792W        W34229  41.807  10.285  10.604
74793W        W34230  16.606  36.879   0.355
74794W        W34231  25.481  27.503   4.671
74795W        W34232   7.760  20.265  11.590
74796W        W34233  43.471   8.220  10.924
74797W        W34234  36.053  12.821  11.079
74798W        W34235  35.075  24.079   0.778
74799W        W34236  37.388  24.664   2.216
74800W        W34237  25.202   9.298   4.698
74801W        W34238  18.590  38.388   3.274
74802W        W34239  14.729  12.796   1.782
74803W        W34240  14.755  28.649  11.871
74804W        W34241  19.537  17.657  11.598
74805W        W34242  25.024  40.919  10.021
74806W        W34243   7.348   2.857   1.780
74807W        W34244  37.459   6.843   2.276
74808W        W34245  38.465  40.895   1.406
74809W        W34246  38.901  33.004   1.241
74810W        W34247   9.221  28.004  10.156
74811W        W34248  37.395  43.986  11.082
74812W        W34249  20.571   9.833   3.761
74813W        W34250  37.566   2.783  11.977
74814W        W34251  40.871  11.307   3.720
74815W        W34252  34.606   7.703   1.304
74816W        W34253  13.124  44.887  13.807
74817W        W34254  21.206  32.007   3.148
74818W        W34255  28.669  34.026   1.337
74819W        W34256  17.702   9.731  12.342
74820W        W34257  24.587  42.787  14.479
74821W        W34258   1.834  12.143   5.129
74822W        W34259  15.786  18.087   5.277
74823W        W34260  27.564   4.820  13.358
74824W        W34261  12.719   5.414   1.902
74825W        W34262   1.246  42.030   2.891
74826W        W34263  30.015   2.953  13.338
74827W        W34264   2.278  29.102  13.045
74828W        W34265  36.007   0.373  10.976
74829W        W34266  13.817   8.216  11.442
74830W        W34267  32.081  39.556  13.050
74831W        W34268  32.523  29.610  10.929
74832W        W34269  25.534  18.569  14.938
74833W        W34270  43.448  35.991   1.290
74834W        W34271   4.213  14.159  14.380
74835W        W34272  10.170  13.760   0.430
74836W        W34273  16.216  39.046  10.550
74837W        W34274  44.888  25.218  13.364
74838W        W34275  33.545  18.178   4.621
74839W        W34276   8.367  32.535   2.718
74840W        W34277  43.420  13.722  10.493
74841W        W34278  32.010  38.543   9.607
74842W        W34279  16.743  25.571  14.358
74843W        W34280  17.576  10.774  10.900
74844W        W34281  23.027  37.380  10.603
74845W        W34282  43.995  33.884   2.379
74846W        W34283  11.681  38.059  13.512
74847W        W34284  14.149  25.638   2.258
74848W        W34285  34.469  12.779  14.431
74849W        W34286  30.943  38.048   3.751
74850W        W34287   4.912   0.804   4.246
74851W        W34288  19.066   1.835   2.236
74852W        W34289   9.841   4.210   3.296
74853W        W34290   9.716  27.563  11.050
74854W        W34291  33.592  40.920   2.363
74855W        W34292  42.029  43.484  10.551
74856W        W34293  17.631  14.117  11.410
74857W        W34294  39.537  39.349  11.437
74858W        W34295  26.698  36.376  11.083
74859W        W34296   4.757  43.469   0.810
74860W        W34297   7.701  14.298   1.808
74861W        W34298  27.591  28.183   2.357
74862W        W34299   0.881   7.307   9.948
74863W        W34300  39.508   2.255  14.472
74864W        W34301  23.997  30.494   2.328
74865W        W34302  26.967   7.778  12.942
74866W        W34303  28.504  24.706   2.266
74867W        W34304  41.013   0.360  13.542
74868W        W34305   9.854  26.530  13.449
74869W        W34306  28.647  10.672   3.208
74870W        W34307  35.397  12.715  13.850
74871W        W34308  42.322   5.737   3.225
74872W        W34309   7.204  15.138   4.605
74873W        W34310  35.428  20.526   4.348
74874W        W34311  29.431   0.397  10.612
74875W        W34312  37.391   3.808   0.315
74876W        W34313  30.619  36.845  13.869
74877W        W34314  19.742  16.287  13.343
74878W        W34315  17.698  44.853   5.690
74879W        W34316  30.451  27.987  11.532
74880W        W34317  36.497   6.414   1.850
74881W        W34318  37.909   1.926  11.504
74882W        W34319  16.152  43.846   3.725
74883W        W34320  35.389  35.020   3.204
74884W        W34321  25.577  13.773   4.606
74885W        W34322  25.467   5.715   3.754
74886W        W34323  23.530  16.793  12.355
74887W        W34324   8.220  13.605   0.449
74888W        W34325  41.912  26.545   2.336
74889W        W34326  32.059  11.337   1.783
74890W        W34327  37.972  33.544  11.412
74891W        W34328  44.356   8.339   2.807
74892W        W34329  10.292   4.237  11.027
74893W        W34330   2.855   1.370  12.833
74894W        W34331  16.224  26.208   2.279
74895W        W34332  23.989  11.844   1.751
74896W        W34333  36.062  40.373  10.445
74897W        W34334  13.834  30.989  11.452
74898W        W34335   3.276  44.932   2.214
74899W        W34336  35.575  27.196   3.831
74900W        W34337  40.318   2.926  10.453
74901W        W34338  16.666  16.694  10.131
74902W        W34339  25.968  43.883  14.975
74903W        W34340  42.313  44.324  12.390
74904W        W34341  17.694   0.362   2.793
74905W        W34342  22.007  25.168  13.501
74906W        W34343  33.961  39.353  12.018
74907W        W34344  37.901   5.869   0.771
74908W        W34345   2.920  32.048  13.045
74909W        W34346  19.162  29.491  12.002
74910W        W34347   4.406  12.279  14.463
74911W        W34348  23.498  18.258   3.848
74912W        W34349  10.150  36.472   2.786
74913W        W34350  35.543  36.403   2.760
74914W        W34351  44.941  41.459  10.972
74915W        W34352  19.617  24.019   5.683
74916W        W34353   9.756  17.252   1.223
74917W        W34354  14.754  25.584   2.763
74918W        W34355   1.301  30.583   4.721
74919W        W34356  28.555  17.271  14.841
74920W        W34357  37.504  39.945  13.327
74921W        W34358  40.413  21.570   1.334
74922W        W34359  42.480  17.099  13.953
74923W        W34360  20.234  14.177  14.863
74924W        W34361  18.077  13.326   0.461
74925W        W34362  12.662  43.357  14.822
74926W        W34363  20.034  14.272  10.555
74927W        W34364  37.853   1.386  12.891
74928W        W34365  15.797   0.351   4.234
74929W        W34366  15.657   2.378   0.812
74930W        W34367  31.468  21.056   1.402
74931W        W34368   0.877  40.387  11.078
74932W        W34369  18.585  38.891   0.311
74933W        W34370   9.283  37.435  13.464
74934W        W34371  41.449  22.248   0.877
74935W        W34372  15.105  16.601  10.507
74936W        W34373  32.589  42.438   1.392
74937W        W34374  28.559  14.695  11.451
74938W        W34375   0.319  44.438  12.481
74939W        W34376  39.512  25.972   1.810
74940W        W34377  18.751  26.033  12.427
74941W        W34378  33.393  44.315   0.463
74942W        W34379  30.915   8.741   0.273
74943W        W34380  12.675  21.205   2.346
74944W        W34381  18.750  18.230   2.362
74945W        W34382  17.614  39.486   1.880
74946W        W34383   1.407  30.422  13.418
74947W        W34384   1.359  39.880   3.785
74948W        W34385   7.336  27.990  12.998
74949W        W34386  27.687  13.658  12.439
74950W        W34387  24.062  25.484  11.513
74951W        W34388  24.171  26.088   4.309
74952W        W34389  16.593  12.811   1.408
74953W        W34390  34.047   0.365  12.410
74954W        W34391  27.196  25.964  12.862
74955W        W34392  41.527  39.938   0.879
74956W        W34393   0.926  23.120   4.760
74957W        W34394  27.645  24.594   9.486
74958W        W34395  11.636  24.151  12.991
74959W        W34396  44.842  22.602   2.863
74960W        W34397  10.305  27.151   3.704
74961W        W34398   5.230  30.976   3.717
74962W        W34399  33.519  39.979   2.384
74963W        W34400   2.786  29.118  12.831
74964W        W34401  28.560  39.062  13.936
74965W        W34402  35.022  42.780   5.218
74966W        W34403  17.133   8.886   4.764
74967W        W34404  38.480  30.043   2.371
74968W        W34405  31.448  39.059   1.860
74969W        W34406   9.667   0.790   0.936
74970W        W34407  27.665  25.153   4.206
74971W        W34408  14.753  36.436   0.846
74972W        W34409   6.814   5.355   4.293
74973W        W34410   2.867  23.576  13.407
74974W        W34411  34.919  14.111  11.971
74975W        W34412  43.425  34.504  11.426
74976W        W34413  15.090  32.026  12.037
74977W        W34414  35.478   7.215   0.406
74978W        W34415  32.893  38.026   3.835
74979W        W34416  25.673  29.961  14.893
74980W        W34417   5.415  38.925  12.423
74981W        W34418  22.693   5.399   3.744
74982W        W34419  39.885  27.524  12.876
74983W        W34420  27.073  41.856  14.865
74984W        W34421  18.073  33.022  14.932
74985W        W34422   1.466  41.825   4.290
74986W        W34423  36.385  22.234   3.639
74987W        W34424  41.489  31.954  11.427
74988W        W34425  30.632  19.553  12.481
74989W        W34426  27.575  31.142  14.775
74990W        W34427   1.781  23.021   0.726
74991W        W34428  19.637   9.687  11.512
74992W        W34429  41.934   7.355  11.536
74993W        W34430  35.562   3.371  10.968
74994W        W34431  43.881  28.538  12.914
74995W        W34432  15.212  37.362  14.375
74996W        W34433  33.555  35.975  10.143
74997W        W34434  19.673  14.592  13.356
74998W        W34435  41.985   8.656   1.383
74999W        W34436  34.590  26.132  11.960
75000W        W34437  29.986  12.749  14.353
75001W        W34438   4.773  39.965   4.735
75002W        W34439  14.120  35.501  11.005
75003W        W34440  32.508  31.971   0.476
75004W        W34441  27.552  17.159  13.359
75005W        W34442  10.339  32.526  12.456
75006W        W34443  33.520  19.069  13.030
75007W        W34444  25.602  29.478  11.436
75008W        W34445   5.898  18.083  13.471
75009W        W34446  44.312  37.435   5.147
75010W        W34447  19.255   8.858   2.331
75011W        W34448   2.761  36.045  10.501
75012W        W34449  17.726  40.421  13.825
75013W        W34450  43.791   2.904   2.210
75014W        W34451  18.132   7.714  13.309
75015W        W34452  37.504   3.810  12.342
75016W        W34453   8.184  22.586   1.285
75017W        W34454  33.612  15.239  12.574
75018W        W34455  10.294  32.936   1.895
75019W        W34456  24.046   7.205  12.545
75020W        W34457  33.085  20.091  11.050
75021W        W34458  40.939   2.350  11.869
75022W        W34459  28.112  25.609   0.294
75023W        W34460  32.990  20.196  12.397
75024W        W34461   0.479  31.030   3.746
75025W        W34462  10.360   6.329   0.938
75026W        W34463  43.382  35.098  10.152
75027W        W34464  32.959  21.093   1.750
75028W        W34465  11.164  17.167   4.226
75029W        W34466   2.863  35.968  12.424
75030W        W34467   5.372  31.066  12.468
75031W        W34468   2.300  34.578  14.964
75032W        W34469  38.451  37.517  13.041
75033W        W34470  23.625  11.152  12.956
75034W        W34471  37.530  15.726   4.308
75035W        W34472  13.659  27.541  10.499
75036W        W34473  32.529   1.917  12.434
75037W        W34474  44.320   9.356   1.711
75038W        W34475   5.716  12.694   4.186
75039W        W34476  43.449  37.872   0.791
75040W        W34477  10.291  41.488  13.358
75041W        W34478  28.535  25.523  13.365
75042W        W34479  31.113  19.185   0.924
75043W        W34480  27.557  10.674  12.881
75044W        W34481  33.126  37.883   4.651
75045W        W34482  12.127  31.113  11.578
75046W        W34483  43.995  42.828   0.819
75047W        W34484  17.767  23.714  12.405
75048W        W34485  20.199  28.989   2.770
75049W        W34486  17.644   2.389  13.474
75050W        W34487   2.312   1.352   1.729
75051W        W34488  37.445  12.168  12.508
75052W        W34489   1.296  35.052   0.904
75053W        W34490  38.325   4.751   4.137
75054W        W34491  35.463  23.106  14.009
75055W        W34492   8.682  34.910   1.935
75056W        W34493  10.852  28.101   1.702
75057W        W34494   1.879   6.287   4.133
75058W        W34495   1.409  41.017   2.830
75059W        W34496  10.363  37.411  11.577
75060W        W34497  44.355  25.542  11.041
75061W        W34498  11.844  24.149  13.519
75062W        W34499  26.129   3.439  11.506
75063W        W34500  31.602  40.361  14.758
75064W        W34501  26.994  22.540  12.959
75065W        W34502   6.684  34.002   4.656
75066W        W34503  42.806  24.021  12.492
75067W        W34504  39.862  22.147   2.729
75068W        W34505  20.273  12.739   2.785
75069W        W34506  23.004  15.172   0.826
75070W        W34507   9.354  42.001   1.778
75071W        W34508  23.999  36.886   2.388
75072W        W34509  11.132  12.155  11.518
75073W        W34510  10.698  31.470   2.290
75074W        W34511  34.947  14.833  13.429
75075W        W34512  43.950  25.059  11.046
75076W        W34513  22.599  37.470   0.430
75077W        W34514  40.523  25.021  12.915
75078W        W34515  21.255  11.811   4.639
75079W        W34516  24.668  38.429  11.960
75080W        W34517  22.246  30.011   4.667
75081W        W34518   9.364  39.370   2.744
75082W        W34519  28.637   4.841   1.770
75083W        W34520  39.856  19.749  14.469
75084W        W34521  34.881  12.236   0.451
75085W        W34522  13.258  30.490  11.073
75086W        W34523  25.520  16.302  13.814
75087W        W34524  32.909  38.887  14.871
75088W        W34525   6.210  10.802   0.265
75089W        W34526   8.187   1.312  13.851
75090W        W34527  43.830  39.469   1.787
75091W        W34528  11.640  26.587  14.345
75092W        W34529  14.739  10.270  12.048
75093W        W34530  31.571  44.306  14.491
75094W        W34531  12.714  26.477  12.392
75095W        W34532  17.658  16.307   1.933
75096W        W34533  43.308  44.899   3.291
75097W        W34534  16.626  27.618  12.896
75098W        W34535  36.871   6.733  11.869
75099W        W34536  36.904  29.625  11.462
75100W        W34537  40.033  35.096  11.373
75101W        W34538  37.403   4.418   1.930
75102W        W34539  20.135  38.844  10.416
75103W        W34540  15.756  25.019   2.266
75104W        W34541   5.290  25.962   0.265
75105W        W34542  26.648  20.679   0.862
75106W        W34543   7.249  34.467  14.837
75107W        W34544  18.256  14.105   9.438
75108W        W34545  12.848  29.943   0.427
75109W        W34546  24.188  15.759  11.005
75110W        W34547   3.715   9.815   3.639
75111W        W34548  23.668  16.810   2.890
75112W        W34549  36.556  12.118   2.697
75113W        W34550   1.320  34.390   2.662
75114W        W34551  39.010  41.370  12.079
75115W        W34552   4.868  34.430   4.250
75116W        W34553  15.618  23.725   2.273
75117W        W34554   2.467  26.050  11.506
75118W        W34555   9.339  16.143   2.329
75119W        W34556  14.215  10.362  13.523
75120W        W34557  33.977  42.374   2.836
75121W        W34558   9.321  40.002  11.872
75122W        W34559  10.703  20.201   2.753
75123W        W34560   3.738   4.813  13.846
75124W        W34561  28.472  27.113  14.495
75125W        W34562  20.571  13.727  14.393
75126W        W34563  22.072  37.387  12.992
75127W        W34564  30.038  40.860   5.677
75128W        W34565   7.358  28.594   3.712
75129W        W34566  18.569  31.493   4.333
75130W        W34567   1.937  25.021   0.947
75131W        W34568  28.582  32.977   4.151
75132W        W34569  39.520  19.129  12.508
75133W        W34570  39.520  37.535   0.281
75134W        W34571  41.925  26.168  14.846
75135W        W34572   7.833  24.592   1.832
75136W        W34573  36.916   4.704   1.284
75137W        W34574  36.099  20.045   1.245
75138W        W34575  21.674  17.637   1.880
75139W        W34576  43.765  29.966   2.871
75140W        W34577  28.158  16.123  13.410
75141W        W34578  20.175  37.946   4.318
75142W        W34579  23.692  10.869  14.847
75143W        W34580  34.074  13.207   3.849
75144W        W34581   6.851  34.876  11.069
75145W        W34582  37.893  26.952   0.768
75146W        W34583  18.200   6.697  11.958
75147W        W34584  18.766  33.400  11.078
75148W        W34585   6.775  11.703   3.278
75149W        W34586  28.125   6.902  14.916
75150W        W34587   9.350  29.118   5.206
75151W        W34588  30.054  36.400   3.150
75152W        W34589  34.043   2.362  11.053
75153W        W34590  37.882  32.074  14.891
75154W        W34591  22.644  33.381   1.861
75155W        W34592  42.866  22.013   1.396
75156W        W34593  22.113  42.461  10.588
75157W        W34594  27.692   4.900  14.927
75158W        W34595  30.141  13.619  11.550
75159W        W34596   7.408  29.968   0.421
75160W        W34597  34.531  20.098   4.744
75161W        W34598   0.828  15.118   4.220
75162W        W34599  11.703   4.732  11.428
75163W        W34600   4.877  16.159   4.817
75164W        W34601  15.269   6.334  14.974
75165W        W34602  17.208  42.286  10.425
75166W        W34603  12.824   8.800  10.612
75167W        W34604  15.246  44.820   0.462
75168W        W34605   9.326  33.975   1.792
75169W        W34606  44.369  43.493  14.793
75170W        W34607  18.069  35.397  12.043
75171W        W34608   0.282  36.003  12.523
75172W        W34609  14.319   4.885  12.556
75173W        W34610  33.978  44.481  12.032
75174W        W34611  12.798  34.941   2.355
75175W        W34612  14.720  36.377  12.910
75176W        W34613  23.622  17.303  10.455
75177W        W34614   6.778  36.487   0.750
75178W        W34615  13.759  22.015   0.763
75179W        W34616  39.958   0.287   0.282
75180W        W34617  39.882  15.813   4.285
75181W        W34618  22.712   1.433   1.851
75182W        W34619  10.879   6.223  14.504
75183W        W34620  39.958   1.844  12.036
75184W        W34621  30.051  10.353  10.096
75185W        W34622  34.522  22.655  11.963
75186W        W34623  13.796  23.041  12.850
75187W        W34624  31.648  21.176  12.360
75188W        W34625  10.353  33.910  13.539
75189W        W34626  14.268   2.385  12.061
75190W        W34627  17.133  38.515   0.244
75191W        W34628   6.250  33.883   2.335
75192W        W34629   9.763  22.020   1.811
75193W        W34630  37.524  38.961   2.177
75194W        W34631  43.307  38.560  13.545
75195W        W34632  23.563  39.493   0.275
75196W        W34633  19.103  23.136   3.173
75197W        W34634   6.423  42.515   4.597
75198W        W34635   2.727  11.705   4.165
75199W        W34636  14.794   6.187  10.547
75200W        W34637  42.498  12.615  14.985
75201W        W34638  40.332  19.626  12.898
75202W        W34639  17.102   9.151  10.486
75203W        W34640  14.161  43.017  13.058
75204W        W34641  28.006  25.545  11.492
75205W        W34642   4.708   6.833  10.510
75206W        W34643   8.392  18.768   1.715
75207W        W34644  13.630  17.583   1.369
75208W        W34645  11.288  25.078  13.506
75209W        W34646  21.206   6.368   3.383
75210W        W34647   2.276  17.756   2.236
75211W        W34648  24.062  34.103   4.300
75212W        W34649  33.626  31.533   4.754
75213W        W34650  25.143   8.854  13.535
75214W        W34651   0.916   3.453   0.405
75215W        W34652  39.490  20.039  14.979
75216W        W34653  21.533  39.920   2.829
75217W        W34654  33.986   3.906   4.636
75218W        W34655  27.156  37.577   5.167
75219W        W34656  26.508   7.183   4.197
75220W        W34657  37.473  11.836  14.928
75221W        W34658  41.365   0.281   2.223
75222W        W34659   2.852  36.462   4.795
75223W        W34660   0.420  31.905   2.291
75224W        W34661  38.905  20.563   3.316
75225W        W34662  25.474  12.322   1.831
75226W        W34663  30.001  39.931  12.845
75227W        W34664  31.953   2.886  13.332
75228W        W34665  17.656  20.619  13.411
75229W        W34666  36.092   7.892   3.857
75230W        W34667   5.712   0.812  11.916
75231W        W34668  43.326   9.212  11.509
75232W        W34669  34.424  36.462   0.287
75233W        W34670  25.219  20.630  13.452
75234W        W34671  28.008  29.095   4.785
75235W        W34672  15.187  14.666  11.536
75236W        W34673  39.426  10.253  14.378
75237W        W34674  33.033  21.086   3.160
75238W        W34675  36.479  27.577   0.267
75239W        W34676   5.845  16.314   0.472
75240W        W34677   1.307  33.395   1.700
75241W        W34678  20.564  29.075   0.374
75242W        W34679  32.133   6.869  13.411
75243W        W34680  37.920  27.561  11.451
75244W        W34681   9.360  44.308   0.354
75245W        W34682  44.937  26.572  11.090
75246W        W34683  24.690  43.392  14.484
75247W        W34684   0.384   0.469  12.558
75248W        W34685  13.200  36.469  11.430
75249W        W34686  34.087  31.456   4.327
75250W        W34687  42.314   6.289  12.340
75251W        W34688  40.839  27.562  14.415
75252W        W34689  13.329   3.399   0.458
75253W        W34690  25.984   7.313  13.407
75254W        W34691  26.071   5.798   2.286
75255W        W34692  13.197  42.014  14.853
75256W        W34693  23.530  13.349  12.524
75257W        W34694  23.222  32.536  14.927
75258W        W34695  39.862  20.689  12.516
75259W        W34696  13.740  19.556  11.944
75260W        W34697  34.057  20.577  14.350
75261W        W34698  44.850  26.166   0.411
75262W        W34699  42.004   4.839   4.746
75263W        W34700  33.919  26.511   4.753
75264W        W34701   9.652  29.434   1.378
75265W        W34702  23.503  26.614  13.926
75266W        W34703  36.487  12.806  10.613
75267W        W34704  24.223  23.646   2.670
75268W        W34705  36.853  21.585   1.328
75269W        W34706  39.486  19.727  11.085
75270W        W34707   6.816  20.138   1.424
75271W        W34708   4.261  11.129   0.453
75272W        W34709  10.832  21.724  12.988
75273W        W34710  40.893  26.629  14.400
75274W        W34711  42.405  27.606   3.631
75275W        W34712  36.518  20.273   3.372
75276W        W34713  13.158  39.876   4.621
75277W        W34714  19.625  32.510   4.239
75278W        W34715   7.815   2.273  14.510
75279W        W34716  39.547  34.902  11.455
75280W        W34717  25.684  28.596  11.540
75281W        W34718  32.115  29.662   3.165
75282W        W34719  13.829   2.243  10.956
75283W        W34720  16.777  24.568  14.404
75284W        W34721  42.790  25.009   2.684
75285W        W34722  14.205  34.379   1.761
75286W        W34723  17.771  10.165  10.148
75287W        W34724  30.550  26.123  11.565
75288W        W34725  43.938  20.612  11.875
75289W        W34726  10.366  30.104   3.344
75290W        W34727  29.532   6.285  10.975
75291W        W34728  17.762  39.407   2.891
75292W        W34729   7.791  13.660   1.694
75293W        W34730  29.606  42.418   0.345
75294W        W34731   2.896  34.913   3.218
75295W        W34732   6.760  19.646  11.002
75296W        W34733  34.023   8.360  11.877
75297W        W34734   2.960  11.623   0.448
75298W        W34735  41.426  41.044  14.781
75299W        W34736  16.688  30.579   1.804
75300W        W34737   4.718  18.783   0.757
75301W        W34738  19.597  40.375   3.656
75302W        W34739  15.231  21.540   1.227
75303W        W34740  26.175  18.653   4.811
75304W        W34741  12.135  35.486   4.641
75305W        W34742  29.445   4.310   3.663
75306W        W34743  19.065  44.829   1.916
75307W        W34744  19.126  15.648  14.954
75308W        W34745  29.140  28.633   1.235
75309W        W34746  19.116   1.318   0.430
75310W        W34747  32.931   4.430   3.772
75311W        W34748  16.138  39.560  14.846
75312W        W34749  21.059   8.878   3.811
75313W        W34750  19.198  36.590  12.944
75314W        W34751   2.396  14.692  14.874
75315W        W34752  38.994  25.980  11.386
75316W        W34753  44.346  24.112  13.383
75317W        W34754  23.238  13.621  12.824
75318W        W34755  43.513  20.552  10.995
75319W        W34756   9.696  15.253   1.418
75320W        W34757  26.642  31.908   0.322
75321W        W34758  37.907   4.385   4.615
75322W        W34759  16.287  26.588   0.442
75323W        W34760  44.351   6.801   2.666
75324W        W34761  41.404  36.362   3.235
75325W        W34762  20.070  41.307  13.438
75326W        W34763  14.710  35.589  10.603
75327W        W34764  44.427   6.884   3.720
75328W        W34765  39.054  35.956  13.015
75329W        W34766  23.061  33.054  12.456
75330W        W34767   3.817   7.780   4.729
75331W        W34768   0.449   9.841  14.022
75332W        W34769   8.317  22.075  12.911
75333W        W34770  41.923  39.321  14.377
75334W        W34771  30.446  13.307  14.955
75335W        W34772   4.309   3.919   0.879
75336W        W34773  44.942  40.441  11.431
75337W        W34774  28.506  20.088   4.744
75338W        W34775  29.661  28.541   1.418
75339W        W34776   7.805  15.306   3.380
75340W        W34777  15.171  31.568  14.865
75341W        W34778  31.945  22.211   4.732
75342W        W34779  12.736  24.171  14.002
75343W        W34780  24.169  30.076   2.207
75344W        W34781  38.467  27.964   4.796
75345W        W34782  13.801  30.470  13.040
75346W        W34783  29.437  25.663   2.419
75347W        W34784  21.581   9.349   3.326
75348W        W34785  27.149  44.312   2.299
75349W        W34786  35.599  40.852   0.833
75350W        W34787  28.576  29.086   3.831
75351W        W34788  13.310   0.297  14.805
75352W        W34789  15.768  28.982  12.998
75353W        W34790   4.722  14.810   0.955
75354W        W34791   8.754   0.924   2.889
75355W        W34792  22.026  28.457   1.415
75356W        W34793  36.096  25.107   4.789
75357W        W34794  27.605  27.187   3.191
75358W        W34795  27.081   4.445  12.960
75359W        W34796  28.061   1.910  14.905
75360W        W34797  31.139  41.905  11.377
75361W        W34798   1.301   4.819  10.616
75362W        W34799  15.789  34.878  12.902
75363W        W34800  26.160  32.978  11.102
75364W        W34801  38.412  25.502   4.223
75365W        W34802   2.902  10.835   1.235
75366W        W34803   1.454   4.216   3.192
75367W        W34804   1.406  29.635   3.215
75368W        W34805   7.809  13.831   3.335
75369W        W34806  37.534  10.353  14.858
75370W        W34807  23.000  43.481   0.847
75371W        W34808  10.675  24.501   3.824
75372W        W34809   1.326   5.439  11.500
75373W        W34810  33.393   5.744   4.218
75374W        W34811  21.078  40.517  11.605
75375W        W34812  30.611   4.286  10.484
75376W        W34813  37.515  32.139   2.180
75377W        W34814  31.987  13.746  14.019
75378W        W34815  10.296   8.760  10.602
75379W        W34816  13.203  11.344  11.091
75380W        W34817  23.142  20.554   1.265
75381W        W34818  16.739  44.796   1.236
75382W        W34819  28.540  28.441  13.360
75383W        W34820  28.514   6.414   0.762
75384W        W34821   4.906  29.938   2.226
75385W        W34822  34.109  40.048  11.012
75386W        W34823  37.421  40.330   2.743
75387W        W34824  13.169   5.893   0.892
75388W        W34825  39.029  26.956   2.287
75389W        W34826  40.472   8.321   3.268
75390W        W34827  37.423  33.060   2.725
75391W        W34828   3.879  41.935  14.378
75392W        W34829  36.984   6.368  13.548
75393W        W34830  23.987   0.969  14.873
75394W        W34831  20.036  29.951   2.188
75395W        W34832  19.272   0.746  10.467
75396W        W34833  38.068  21.532   1.927
75397W        W34834  26.465   4.394   0.402
75398W        W34835  28.443  15.785  11.476
75399W        W34836   7.199  23.217   3.737
75400W        W34837   3.881  42.366  13.037
75401W        W34838   3.219  39.369  14.798
75402W        W34839  23.703  40.433   3.250
75403W        W34840   6.708  32.928   0.815
75404W        W34841  35.908   8.876   2.400
75405W        W34842  30.491  16.214  11.050
75406W        W34843  40.975  14.819   4.671
75407W        W34844  38.851  30.432   1.782
75408W        W34845  28.461  19.639  13.490
75409W        W34846  30.502   4.793  11.567
75410W        W34847  32.972  34.482   0.380
75411W        W34848  19.103   4.311  14.842
75412W        W34849   6.694  11.758  13.384
75413W        W34850  19.592  18.549  12.889
75414W        W34851  42.453  34.435   2.683
75415W        W34852  30.094  36.084  12.919
75416W        W34853  35.017   2.750  11.036
75417W        W34854  16.193  24.031   4.791
75418W        W34855  20.166  24.515  14.317
75419W        W34856  35.970  41.886  14.275
75420W        W34857  40.452  16.740   4.311
75421W        W34858  15.086   7.745  11.422
75422W        W34859  32.550  22.619  14.358
75423W        W34860  42.321  20.703   1.875
75424W        W34861  44.906  30.415  13.056
75425W        W34862  36.044  11.786  14.904
75426W        W34863  38.561  32.090   0.415
75427W        W34864   5.377   7.724  12.339
75428W        W34865  34.890   2.791   3.665
75429W        W34866  30.414  34.426   1.284
75430W        W34867  14.139  18.682  14.381
75431W        W34868   5.746   4.344   4.783
75432W        W34869  41.907  27.964   5.178
75433W        W34870  24.651   9.849   2.330
75434W        W34871  27.943  16.788   2.746
75435W        W34872  15.708  29.487  12.033
75436W        W34873  37.049  19.085   4.336
75437W        W34874   3.779   1.381   3.287
75438W        W34875  16.672   0.383   3.306
75439W        W34876  26.700  16.794   0.750
75440W        W34877   8.758  43.821  13.051
75441W        W34878  23.714   1.257   1.390
75442W        W34879   5.435  22.170   4.346
75443W        W34880  33.951  32.025  13.029
75444W        W34881  42.804  12.842   2.897
75445W        W34882  23.023   4.314  13.338
75446W        W34883  25.487   7.339   0.816
75447W        W34884   3.716  11.195  10.417
75448W        W34885  10.813  38.409  11.962
75449W        W34886  10.854  30.426   2.790
75450W        W34887  30.139  41.489   1.414
75451W        W34888  16.777   7.726   2.190
75452W        W34889   3.730   0.877   3.150
75453W        W34890   4.708  14.213   4.675
75454W        W34891  37.972   1.253   0.831
75455W        W34892   0.320  35.937  14.974
75456W        W34893  22.502  16.107   0.917
75457W        W34894  35.041  28.997   4.326
75458W        W34895   5.279  40.839   4.711
75459W        W34896   9.284  17.722   0.306
75460W        W34897  10.845  15.725   1.891
75461W        W34898   1.439  26.954   2.765
75462W        W34899  15.177  27.657  11.398
75463W        W34900  29.996  33.096  10.933
75464W        W34901  22.080  40.867   1.820
75465W        W34902  15.216  10.274  10.558
75466W        W34903  16.760  30.541  12.458
75467W        W34904  32.447  36.966  11.487
75468W        W34905  14.679  30.540   3.804
75469W        W34906  11.221  39.925   1.233
75470W        W34907  14.812  24.547   3.234
75471W        W34908  24.126   3.894  13.897
75472W        W34909  42.008   7.336  11.895
75473W        W34910  35.479   3.949  11.124
75474W        W34911  17.291   6.193   4.708
75475W        W34912  12.758  27.976  12.354
75476W        W34913   0.965  17.654   0.406
75477W        W34914  25.148  15.761   3.680
75478W        W34915  11.812   6.835   4.336
75479W        W34916  16.721  21.107   1.804
75480W        W34917  38.370  19.577  13.823
75481W        W34918  40.910  14.318  14.282
75482W        W34919  43.925  40.831  13.538
75483W        W34920  40.492  37.039   2.742
75484W        W34921   0.309  16.579  13.013
75485W        W34922  41.872   1.840   0.948
75486W        W34923  43.454   7.296  12.068
75487W        W34924   9.326  38.017   2.293
75488W        W34925  13.611   7.746  13.862
75489W        W34926  34.961  11.652  12.390
75490W        W34927   4.798   5.865  12.440
75491W        W34928  16.763  16.121   0.799
75492W        W34929  23.724  28.665  12.933
75493W        W34930  18.748  27.483  13.932
75494W        W34931  20.072   0.769   3.852
75495W        W34932  18.241  29.655   3.721
75496W        W34933  25.067  28.520  11.120
75497W        W34934  34.929  36.454   0.311
75498W        W34935   9.773  23.509  13.880
75499W        W34936  13.808   5.932  10.485
75500W        W34937  24.159  14.275  12.438
75501W        W34938  11.714   1.909   1.893
75502W        W34939   4.340  12.258  12.004
75503W        W34940   9.296  34.510  14.399
75504W        W34941  29.536  35.988  13.923
75505W        W34942   8.787   7.781   2.862
75506W        W34943   0.929  39.445  12.862
75507W        W34944  10.228  10.143  12.556
75508W        W34945   2.264  33.494  13.342
75509W        W34946   2.778   3.297  13.044
75510W        W34947   9.328   2.343  12.478
75511W        W34948  33.487  17.272   4.758
75512W        W34949  31.136  11.154  14.390
75513W        W34950  19.165  41.988  13.004
75514W        W34951  31.490  28.638  14.819
75515W        W34952   9.213  40.418  14.346
75516W        W34953  15.218  15.248   3.740
75517W        W34954  17.258  26.458  13.930
75518W        W34955  32.997  15.281   0.928
75519W        W34956  30.540   4.395   3.669
75520W        W34957  13.291  39.514  11.529
75521W        W34958  19.079  21.701   9.598
75522W        W34959   5.298  20.235  14.812
75523W        W34960  26.595  26.953  12.949
75524W        W34961  25.052  16.709  10.940
75525W        W34962  28.113  41.370   4.232
75526W        W34963  30.597   5.300   3.706
75527W        W34964  34.389  40.498  13.312
75528W        W34965  15.244  33.009  14.817
75529W        W34966  30.036  44.455   3.651
75530W        W34967   4.223  17.601   4.142
75531W        W34968  13.259  44.417  13.334
75532W        W34969   9.675   0.261   3.726
75533W        W34970   4.240  23.202  10.136
75534W        W34971  16.109  44.430  10.098
75535W        W34972  29.991  25.495   0.259
75536W        W34973   9.395  37.463   2.363
75537W        W34974  22.679  33.419  10.907
75538W        W34975  15.172   1.954   0.897
75539W        W34976  18.745  18.778   0.938
75540W        W34977   1.258  20.186  14.375
75541W        W34978   4.725  23.719  11.065
75542W        W34979   0.248   4.412  14.805
75543W        W34980  36.435  12.751   0.242
75544W        W34981  16.709  11.185  14.881
75545W        W34982  13.286  31.972  12.410
75546W        W34983  14.765   0.812   5.185
75547W        W34984  37.569  21.252  12.398
75548W        W34985  43.776  28.633  14.009
75549W        W34986  21.084   1.761   4.325
75550W        W34987  28.496   4.217   0.300
75551W        W34988   4.851  16.761  14.837
75552W        W34989  14.325   5.196   2.868
75553W        W34990  33.406  35.483   4.349
75554W        W34991  17.591  13.604   4.197
75555W        W34992  43.831   4.875   3.228
75556W        W34993   9.266   5.841   0.304
75557W        W34994  40.314  27.462   4.169
75558W        W34995  28.556  27.591  11.477
75559W        W34996  18.277   0.766  12.522
75560W        W34997  27.985  44.423  11.545
75561W        W34998  29.660  30.922  14.777
75562W        W34999  24.715  40.883  12.489
75563W        W35000  33.525  20.764  12.981
75564W        W35001  13.344  30.135  13.847
75565W        W35002   4.722  12.355   2.388
75566W        W35003  30.985   3.930  13.512
75567W        W35004  29.520   3.768   2.848
75568W        W35005  23.651  34.071  13.334
75569W        W35006  27.604  31.557  11.606
75570W        W35007  27.480   4.263  13.967
75571W        W35008  28.533  39.392   5.734
75572W        W35009  34.048  26.604  11.379
75573W        W35010   7.907  40.520  13.397
75574W        W35011  24.040   8.819   0.858
75575W        W35012  21.529   2.759   1.720
75576W        W35013  39.554  34.072   1.886
75577W        W35014  27.645  15.771   0.875
75578W        W35015  26.507  12.187  11.099
75579W        W35016  33.394  19.118   4.242
75580W        W35017  10.375  33.030   3.342
75581W        W35018  42.442  35.496  14.279
75582W        W35019  22.217  26.093  11.449
75583W        W35020  25.029  33.466  10.970
75584W        W35021   4.779  39.018  10.071
75585W        W35022   9.702  18.589  13.795
75586W        W35023  17.637  20.148   0.825
75587W        W35024   6.228  25.160  14.510
75588W        W35025  44.470  17.797   0.836
75589W        W35026  25.705   2.898  13.344
75590W        W35027  39.889  28.550   3.842
75591W        W35028  12.219  28.158  13.426
75592W        W35029  40.826  17.674  14.808
75593W        W35030  42.010  16.700  14.402
75594W        W35031  32.960   0.931  14.471
75595W        W35032  18.692  33.421  13.392
75596W        W35033  31.906  23.068   2.898
75597W        W35034   2.452   0.790   1.892
75598W        W35035  17.168  23.023   2.246
75599W        W35036  19.722  15.259  14.978
75600W        W35037  36.853  24.206   0.278
75601W        W35038  35.047   6.281  13.841
75602W        W35039  20.266   5.831   0.951
75603W        W35040   6.876  14.151  14.332
75604W        W35041  25.991  42.364  14.305
75605W        W35042  13.649  35.481   4.202
75606W        W35043  11.699  12.352   2.215
75607W        W35044  23.026  10.675   2.208
75608W        W35045  40.500   2.930   2.349
75609W        W35046   9.685   0.264   0.840
75610W        W35047  17.768  40.463  11.440
75611W        W35048  37.512  31.437  13.401
75612W        W35049  41.291  20.168  14.473
75613W        W35050  44.392  34.864  13.434
75614W        W35051  27.662  24.212  10.484
75615W        W35052  40.047  38.560  12.499
75616W        W35053  30.420   3.306  11.452
75617W        W35054  30.494  25.202   5.747
75618W        W35055  37.345  39.490  14.954
75619W        W35056  12.154  22.576   1.797
75620W        W35057  36.475  11.323   1.806
75621W        W35058  14.805  13.294   0.919
75622W        W35059   4.397  13.788  11.982
75623W        W35060  33.398  40.850   0.904
75624W        W35061  36.892  24.559   2.720
75625W        W35062  12.729   1.851   1.340
75626W        W35063  35.395   3.942  13.487
75627W        W35064  26.487   2.443   2.256
75628W        W35065  39.020  25.168  11.490
75629W        W35066  41.405  26.205   0.464
75630W        W35067  21.197  43.347   0.837
75631W        W35068  23.205  28.139  10.528
75632W        W35069   2.936  37.959   9.958
75633W        W35070   3.825  30.956  13.871
75634W        W35071  27.146  27.685  14.942
75635W        W35072  32.636   4.227   3.191
75636W        W35073  36.894  29.130  14.283
75637W        W35074   2.292  18.779   0.760
75638W        W35075  39.375  39.439   3.325
75639W        W35076   5.352   9.300  12.855
75640W        W35077   4.925  37.440  13.458
75641W        W35078  20.151   1.274   2.802
75642W        W35079  25.502  15.158  14.482
75643W        W35080   3.817   9.678  11.010
75644W        W35081  12.259  40.035   0.342
75645W        W35082  22.150  13.106   3.722
75646W        W35083  16.580   0.955   1.257
75647W        W35084   8.390   2.362   4.155
75648W        W35085  38.419  35.042   3.658
75649W        W35086  33.428  36.578   3.637
75650W        W35087  39.863  13.156   4.670
75651W        W35088  18.697  37.358   5.104
75652W        W35089  17.182  12.820  14.431
75653W        W35090   8.354   4.930   1.373
75654W        W35091   3.725  30.455  10.606
75655W        W35092  27.061  42.449   1.809
75656W        W35093  40.967  26.542   2.326
75657W        W35094  21.127  10.257  13.948
75658W        W35095   3.940  38.943   2.350
75659W        W35096  32.108  40.418   4.284
75660W        W35097  14.306  15.096   2.211
75661W        W35098   8.702  25.640  13.866
75662W        W35099  30.996  23.689   0.811
75663W        W35100  40.954  18.728  11.039
75664W        W35101  38.032   7.311   4.338
75665W        W35102  15.195  10.176   1.361
75666W        W35103  41.925  26.693  14.508
75667W        W35104  32.479  30.414   2.815
75668W        W35105  34.572  41.791   2.249
75669W        W35106  30.989   8.765   3.808
75670W        W35107   8.707   0.293  11.523
75671W        W35108  17.207  44.423   5.261
75672W        W35109   0.962  14.149   4.641
75673W        W35110  22.714   5.737   0.857
75674W        W35111   3.858   2.885  13.328
75675W        W35112  23.542  39.019   1.451
75676W        W35113  38.482   7.362  13.056
75677W        W35114  10.734  39.841  13.477
75678W        W35115  17.728  28.956  11.576
75679W        W35116   2.390  40.891  10.954
75680W        W35117  23.611  39.439  13.029
75681W        W35118  34.456   5.836   0.788
75682W        W35119  44.794  11.294  14.344
75683W        W35120   3.810  11.718  13.942
75684W        W35121  21.048  11.342  11.997
75685W        W35122   4.810  27.173   1.833
75686W        W35123  42.487  22.225  11.526
75687W        W35124  23.099  37.026   4.663
75688W        W35125  24.085  44.471   0.903
75689W        W35126  39.469  15.597  12.937
75690W        W35127  15.156   4.215  12.401
75691W        W35128  20.270  14.748   2.876
75692W        W35129  33.478  19.754  10.614
75693W        W35130  22.504  17.301  13.900
75694W        W35131  15.237  23.559  11.907
75695W        W35132  28.585   5.425   3.264
75696W        W35133  18.102   6.283   3.328
75697W        W35134  10.141   9.228  13.794
75698W        W35135  44.284   3.406   3.364
75699W        W35136  16.171  32.512   3.649
75700W        W35137  42.305  32.547   3.818
75701W        W35138  19.057  40.872  14.428
75702W        W35139  18.172   4.836   4.639
75703W        W35140   6.182  21.540   0.273
75704W        W35141   5.848  39.560  12.434
75705W        W35142  11.263  23.517  13.358
75706W        W35143   2.340  37.389   3.657
75707W        W35144  35.055  10.365   1.243
75708W        W35145  36.588  43.404  13.415
75709W        W35146  24.654   2.456   1.698
75710W        W35147   2.948  10.738  11.882
75711W        W35148  38.333   0.824  11.592
75712W        W35149  22.676  31.554   0.438
75713W        W35150  36.462  32.139   4.232
75714W        W35151   6.757  44.853   1.902
75715W        W35152  11.803   9.307  13.007
75716W        W35153   1.333  29.466   4.681
75717W        W35154  11.141  18.177  12.489
75718W        W35155  39.810   0.759   1.287
75719W        W35156  38.466   3.362  11.098
75720W        W35157   4.224   4.722  10.588
75721W        W35158  35.559   3.871  12.379
75722W        W35159  22.602  24.008   0.746
75723W        W35160   5.899  24.531  14.022
75724W        W35161  26.591  25.220  11.970
75725W        W35162  29.104  39.870   3.192
75726W        W35163  41.994   1.872  13.987
75727W        W35164  16.604   3.223   3.236
75728W        W35165  17.134  22.217  14.408
75729W        W35166   3.350  44.338   3.282
75730W        W35167  34.894  14.332   2.408
75731W        W35168  36.565  26.133   0.413
75732W        W35169  38.895  14.793  13.001
75733W        W35170   9.661  36.939   1.214
75734W        W35171  44.824   7.777  14.351
75735W        W35172  11.192   9.158   1.881
75736W        W35173  18.742  34.914   0.396
75737W        W35174  22.144  38.887  13.454
75738W        W35175   0.978  41.423   2.299
75739W        W35176  21.069  13.210  11.047
75740W        W35177  27.521  34.387   4.743
75741W        W35178  44.862  16.142  11.429
75742W        W35179  41.943  37.428   5.148
75743W        W35180  22.568  39.007  13.912
75744W        W35181  40.890  33.461   0.384
75745W        W35182  36.374  25.068  10.892
75746W        W35183   5.747  21.037   1.704
75747W        W35184  23.522  38.863  13.428
75748W        W35185  42.494  40.326   5.221
75749W        W35186  26.043  36.396   3.794
75750W        W35187  14.271  38.026   3.292
75751W        W35188   8.210  29.041  14.893
75752W        W35189  13.314  41.516   2.278
75753W        W35190  40.998  37.059   1.427
75754W        W35191   0.929  16.633  14.950
75755W        W35192  44.001   9.786   4.772
75756W        W35193  31.484  42.307  14.425
75757W        W35194  41.979   6.688   2.287
75758W        W35195  11.660  18.568   9.931
75759W        W35196  18.085  39.867  14.438
75760W        W35197  34.943  27.988  11.870
75761W        W35198  35.462  24.532   1.236
75762W        W35199  42.454   7.753  10.989
75763W        W35200  32.031   6.411   2.311
75764W        W35201  12.731   5.320  10.958
75765W        W35202  32.992  40.952   4.181
75766W        W35203   5.289  30.418   9.624
75767W        W35204  26.202  34.026  11.426
75768W        W35205  25.217  40.448  11.553
75769W        W35206  29.620   9.846  11.563
75770W        W35207  17.661  10.151  10.605
75771W        W35208  28.021  18.781  10.956
75772W        W35209  15.685  20.125   9.944
75773W        W35210  14.191  13.693   4.339
75774W        W35211  31.122  24.606  12.396
75775W        W35212  43.856   0.257  14.387
75776W        W35213  29.095  22.152  14.848
75777W        W35214  14.201  37.009   0.823
75778W        W35215  31.134  22.696   2.185
75779W        W35216  17.265   0.456   4.193
75780W        W35217   1.763  12.852   0.924
75781W        W35218  35.942  43.330   1.330
75782W        W35219   0.368  34.118  10.499
75783W        W35220   4.869   4.850   4.691
75784W        W35221  44.415   6.763   4.228
75785W        W35222  44.887  26.147  12.073
75786W        W35223   9.390  13.837  11.552
75787W        W35224   5.339   7.763   4.744
75788W        W35225  21.113   6.687   3.648
75789W        W35226  20.246  14.235   1.727
75790W        W35227  23.732  15.261  14.516
75791W        W35228   5.917  25.125   4.270
75792W        W35229  19.690  20.598   3.232
75793W        W35230   1.428  16.761   1.413
75794W        W35231  15.785   4.313  12.839
75795W        W35232   9.228  23.196  13.533
75796W        W35233  34.051  13.633  11.965
75797W        W35234  34.057  14.265  14.356
75798W        W35235  43.849   6.735   2.870
75799W        W35236  14.326  17.252  12.522
75800W        W35237  23.129  11.330  11.023
75801W        W35238  17.257  31.898  14.342
75802W        W35239  16.675  14.288   0.956
75803W        W35240  15.177   6.900  12.367
75804W        W35241  23.014   1.365  11.871
75805W        W35242  14.112   2.240  14.322
75806W        W35243  30.482  30.602   0.391
75807W        W35244  44.274  35.436  14.516
75808W        W35245  10.179  25.972   3.667
75809W        W35246   6.824  44.391   1.767
75810W        W35247  28.678  29.947  12.909
75811W        W35248   5.689   2.453  13.907
75812W        W35249  10.722   2.945   1.398
75813W        W35250   5.425   8.264  14.885
75814W        W35251  38.345  37.390   3.743
75815W        W35252  10.163  38.507  12.004
75816W        W35253  11.224   5.793  13.357
75817W        W35254   4.709  34.543   1.812
75818W        W35255   0.985  38.863   3.810
75819W        W35256  11.792   3.832  12.455
75820W        W35257  29.081  26.631  14.811
75821W        W35258  20.715  14.110   3.812
75822W        W35259  15.119   0.816   3.849
75823W        W35260  28.486   7.276  13.063
75824W        W35261  23.070  21.611  14.964
75825W        W35262  21.205  30.590  13.543
75826W        W35263  38.858  26.541  11.113
75827W        W35264  29.017  42.791  13.832
75828W        W35265  43.929  40.023   4.833
75829W        W35266  29.581  29.594  14.338
75830W        W35267  19.744  17.622   4.121
75831W        W35268  34.439  15.728  14.010
75832W        W35269  12.278  19.730  10.958
75833W        W35270  43.483   7.685  13.481
75834W        W35271  29.659   8.742   1.329
75835W        W35272   2.324  29.435  14.012
75836W        W35273  38.459  23.666   2.178
75837W        W35274  17.176   0.751   0.885
75838W        W35275  29.539   5.817  12.032
75839W        W35276  12.342  27.106   4.115
75840W        W35277  10.785  26.993  14.884
75841W        W35278   5.851   3.329  10.484
75842W        W35279  14.323  17.716   2.247
75843W        W35280  12.187   5.724  14.881
75844W        W35281  18.755  43.479   1.773
75845W        W35282  36.584  18.616  13.044
75846W        W35283  37.405  29.611  12.487
75847W        W35284  42.289  27.986   4.150
75848W        W35285   6.890  28.127   4.267
75849W        W35286  15.084  26.034  12.397
75850W        W35287  30.529  32.924   0.948
75851W        W35288   7.185  44.820  12.369
75852W        W35289  44.334  10.787  11.985
75853W        W35290  33.951  20.035   0.409
75854W        W35291  35.459   2.794   0.839
75855W        W35292  38.887  33.561  14.488
75856W        W35293   5.361   2.915  11.529
75857W        W35294  43.772   4.919   2.739
75858W        W35295  14.622  23.101   0.383
75859W        W35296   5.833  28.583  10.625
75860W        W35297   1.280  13.791  11.438
75861W        W35298   3.423  32.906  11.037
75862W        W35299  10.154  44.781   4.672
75863W        W35300  21.087  36.567   3.249
75864W        W35301  20.621  39.339  10.472
75865W        W35302  15.242  15.266   2.203
75866W        W35303   0.869   8.756  10.115
75867W        W35304  25.548  10.292  10.591
75868W        W35305  41.305   1.868  11.927
75869W        W35306  11.301  15.137   2.829
75870W        W35307   6.902  24.693  14.791
75871W        W35308  35.415  39.031   2.328
75872W        W35309   3.461  17.735  10.513
75873W        W35310  34.078  39.009  12.453
75874W        W35311  16.258  11.814  14.925
75875W        W35312   0.842  41.465   0.445
75876W        W35313  24.526  23.582   4.234
75877W        W35314  14.656  38.543   0.434
75878W        W35315  44.480  31.937  12.882
75879W        W35316   5.815  11.129   0.830
75880W        W35317  16.579   0.429  12.911
75881W        W35318  10.328   5.752  13.404
75882W        W35319  27.065  20.044   0.773
75883W        W35320  26.613  15.590   4.698
75884W        W35321  39.860   3.850   1.845
75885W        W35322  19.196  20.202  10.968
75886W        W35323  25.216  11.741  12.524
75887W        W35324  27.974  23.516   2.307
75888W        W35325   8.303  19.778  13.821
75889W        W35326  31.643  10.269   0.937
75890W        W35327  25.211   2.759   2.875
75891W        W35328  16.615  43.882  14.792
75892W        W35329  14.747  25.623   1.214
75893W        W35330   5.721   0.968   0.936
75894W        W35331  14.688  39.485   4.352
75895W        W35332  19.187  31.029   0.407
75896W        W35333  17.590  37.338  12.914
75897W        W35334   3.241  38.987   3.175
75898W        W35335  21.616  22.556   2.219
75899W        W35336  32.085   2.282   1.745
75900W        W35337  25.698  17.574  14.812
75901W        W35338  34.910  41.858   4.834
75902W        W35339  21.527  33.595   1.445
75903W        W35340   9.798  21.701   1.786
75904W        W35341  10.180   4.327  11.861
75905W        W35342  33.395  22.127   3.760
75906W        W35343  23.142   3.923  10.499
75907W        W35344  20.128  20.060  14.298
75908W        W35345   3.382  27.550   4.603
75909W        W35346  29.552  17.614   1.838
75910W        W35347  39.934  31.916  14.018
75911W        W35348  16.203  29.096  12.390
75912W        W35349  39.383  30.970   1.851
75913W        W35350  14.716   9.329  12.516
75914W        W35351  42.805   7.775   1.791
75915W        W35352  32.041  18.136   0.833
75916W        W35353  42.351  27.464   1.781
75917W        W35354  44.916   6.210  11.062
75918W        W35355  23.557  13.673  11.506
75919W        W35356  32.949  32.128  10.596
75920W        W35357   0.250  19.149   0.748
75921W        W35358   2.457  36.993  11.047
75922W        W35359   9.849   1.878   3.364
75923W        W35360  27.482   2.739  10.895
75924W        W35361  34.452   8.375  10.521
75925W        W35362   4.265  30.073   1.295
75926W        W35363   5.840  30.501  14.978
75927W        W35364  25.502  19.674   1.248
75928W        W35365  11.830  37.946   0.436
75929W        W35366  31.519  32.499  12.044
75930W        W35367  41.389  34.576  12.401
75931W        W35368  25.594   2.447   1.345
75932W        W35369  21.613   8.289  11.975
75933W        W35370  42.030   1.936   1.737
75934W        W35371   6.185  14.117  10.906
75935W        W35372  12.683  14.144  13.322
75936W        W35373  31.993  35.479   1.344
75937W        W35374  37.966   8.680   2.278
75938W        W35375  16.631  37.362  13.388
75939W        W35376  30.650   3.419   2.719
75940W        W35377  11.668  18.171   3.265
75941W        W35378  37.469  26.613   3.277
75942W        W35379  12.665  23.649  12.419
75943W        W35380  38.006  18.172  13.337
75944W        W35381   2.857  39.887   1.822
75945W        W35382   3.256   2.288   4.187
75946W        W35383  29.053  43.436  14.863
75947W        W35384  41.836  42.782   5.313
75948W        W35385  37.455   8.217   0.307
75949W        W35386  37.565  40.973  11.566
75950W        W35387   6.788  25.645  11.945
75951W        W35388  12.334   3.870   4.341
75952W        W35389  23.239  19.167  12.418
75953W        W35390   2.388  15.584  11.079
75954W        W35391   5.430  14.645  11.997
75955W        W35392   0.371  30.074  11.427
75956W        W35393   6.412  26.590  12.417
75957W        W35394  33.986  13.251   2.317
75958W        W35395  35.892   6.764   0.396
75959W        W35396  21.082  10.697  11.412
75960W        W35397  16.663   8.824   0.941
75961W        W35398  31.140  29.510   4.699
75962W        W35399  35.000  34.556  10.580
75963W        W35400  21.069  25.993  14.905
75964W        W35401  39.321  15.758   3.676
75965W        W35402   3.450  34.390  10.480
75966W        W35403   4.747  13.742  11.942
75967W        W35404  35.961  27.053  10.475
75968W        W35405  31.639  17.609   3.629
75969W        W35406  39.357  14.786  13.868
75970W        W35407  14.148   8.201  10.495
75971W        W35408  10.177  22.103  13.796
75972W        W35409   4.406  14.613  11.876
75973W        W35410   0.943  13.213   3.352
75974W        W35411   8.784  22.566   0.923
75975W        W35412  11.785  38.062   3.244
75976W        W35413  23.723  26.972  14.285
75977W        W35414  10.735   7.300  10.573
75978W        W35415   6.280  31.558   3.821
75979W        W35416  38.567  20.194  13.975
75980W        W35417  38.430   7.715   1.774
75981W        W35418  39.342   8.338  12.992
75982W        W35419  43.870  42.312  12.906
75983W        W35420  43.824  42.378   0.365
75984W        W35421  23.051  28.641   0.899
75985W        W35422  29.596  23.659  12.562
75986W        W35423  35.515  35.577  10.553
75987W        W35424  33.532  38.042   3.837
75988W        W35425  29.124  35.412   0.387
75989W        W35426   3.407  28.092  14.463
75990W        W35427  29.527   9.206  11.568
75991W        W35428  17.587  24.498   2.757
75992W        W35429  44.950  39.998   2.220
75993W        W35430  24.617  20.730  14.385
75994W        W35431   6.202  26.134  12.409
75995W        W35432  32.097   5.832   2.321
75996W        W35433  25.574   2.958   2.234
75997W        W35434  30.932  18.729  12.844
75998W        W35435  12.634  27.461   1.816
75999W        W35436   9.690  19.199  14.917
76000W        W35437  13.187  37.562  13.892
76001W        W35438  33.984   4.933   1.717
76002W        W35439   3.240  19.091  14.361
76003W        W35440  34.419  27.510   1.741
76004W        W35441  35.493  21.206  13.878
76005W        W35442  34.047  31.922  12.387
76006W        W35443   2.462  19.677  11.560
76007W        W35444  34.935  17.690  13.989
76008W        W35445  32.114  44.334   4.784
76009W        W35446  18.685  14.165  12.049
76010W        W35447  30.066   9.824   0.449
76011W        W35448  40.038   3.813  14.299
76012W        W35449  16.745  39.353   2.836
76013W        W35450   9.826  30.573  10.596
76014W        W35451  29.090   4.904  11.075
76015W        W35452  14.159  11.136  14.502
76016W        W35453  36.348  41.849  12.029
76017W        W35454  42.871  11.672   4.160
76018W        W35455  26.995  22.053   1.800
76019W        W35456  25.219  37.389  11.534
76020W        W35457  31.627   9.229  14.834
76021W        W35458  15.604  12.624   1.360
76022W        W35459  14.823  41.346   2.876
76023W        W35460  18.214  19.080  14.409
76024W        W35461  19.218  11.163  11.476
76025W        W35462  41.030   5.695  14.453
76026W        W35463  10.858  42.949  14.960
76027W        W35464   2.940  19.172  13.325
76028W        W35465  34.585   2.885  14.913
76029W        W35466  28.643  30.941   0.452
76030W        W35467   3.925  15.654   1.730
76031W        W35468  34.583   1.891   2.682
76032W        W35469  15.588  36.393   0.809
76033W        W35470  32.904  42.939  14.314
76034W        W35471   9.759   1.808  11.390
76035W        W35472  24.985  12.271   2.835
76036W        W35473  23.709  16.276  14.763
76037W        W35474  44.895  38.022   5.230
76038W        W35475   7.242  34.945   1.883
76039W        W35476   7.336  19.095  12.052
76040W        W35477  32.984  40.831  12.944
76041W        W35478   9.197  12.162   4.261
76042W        W35479  33.101   8.226   3.214
76043W        W35480   5.900  27.486   0.243
76044W        W35481  28.986  37.533  11.421
76045W        W35482  21.581  41.324   3.193
76046W        W35483   3.918  26.571  12.888
76047W        W35484   9.196  13.240  13.004
76048W        W35485   8.251  36.007   1.385
76049W        W35486  32.060  12.690   0.958
76050W        W35487  12.646  30.927  10.979
76051W        W35488  20.075  12.612  10.940
76052W        W35489  43.485  33.031   1.343
76053W        W35490  18.160  22.517   2.703
76054W        W35491  44.877  31.508  14.964
76055W        W35492   9.687  20.685  11.945
76056W        W35493  12.186  19.133  12.934
76057W        W35494  40.913  38.831  11.444
76058W        W35495  34.078  36.526   3.374
76059W        W35496   1.390  16.123   1.383
76060W        W35497  18.107  34.012  12.473
76061W        W35498  15.686  22.159  14.360
76062W        W35499   5.412  21.654   3.241
76063W        W35500  40.451   2.299   1.784
76064W        W35501  44.971  40.960   1.765
76065W        W35502  30.614  31.610   2.760
76066W        W35503   9.848  28.633  13.547
76067W        W35504  23.210  11.364   5.113
76068W        W35505   2.845   4.342  14.825
76069W        W35506  32.462  39.430  12.054
76070W        W35507  14.206  27.464   0.431
76071W        W35508  38.951  35.013   0.933
76072W        W35509  31.509  36.500   4.202
76073W        W35510  35.050   4.940  12.348
76074W        W35511  37.868   3.367   1.423
76075W        W35512  32.581  21.167  14.905
76076W        W35513  18.563   4.431  13.491
76077W        W35514   8.766  18.271  14.801
76078W        W35515  38.825  21.743   3.748
76079W        W35516  40.887  19.255   1.364
76080W        W35517   2.786  23.731  13.829
76081W        W35518  21.112  32.885  10.549
76082W        W35519  27.078  17.600  14.896
76083W        W35520  43.858  41.346   0.360
76084W        W35521  40.040  15.156   4.200
76085W        W35522   3.403  38.009   4.656
76086W        W35523  41.346   2.287   0.387
76087W        W35524  16.576  12.217  13.045
76088W        W35525  35.478  17.253  14.475
76089W        W35526  14.615  18.238   0.438
76090W        W35527   3.806   2.289  12.998
76091W        W35528  14.599  30.084  10.623
76092W        W35529   6.706  15.579   2.744
76093W        W35530  32.636  38.524   1.278
76094W        W35531  28.055  37.510   0.837
76095W        W35532  22.127  12.691  13.908
76096W        W35533  36.038  28.981   3.205
76097W        W35534  40.364  13.141   3.631
76098W        W35535  38.988   4.374   4.775
76099W        W35536  20.529  15.668  12.069
76100W        W35537  14.264  29.446  11.403
76101W        W35538  11.170  15.620  12.885
76102W        W35539  27.998   9.743   1.889
76103W        W35540  24.186  38.890   1.413
76104W        W35541  16.601   1.906   4.650
76105W        W35542  37.382  34.911  12.886
76106W        W35543  40.916   7.882  10.476
76107W        W35544  27.550   2.827   2.222
76108W        W35545  42.464  16.669  14.957
76109W        W35546   4.709  16.211  10.640
76110W        W35547   4.232  33.885  11.525
76111W        W35548  27.616  32.560   2.348
76112W        W35549  11.198  13.607   1.324
76113W        W35550   2.383  34.523   3.644
76114W        W35551  37.968  22.575   2.324
76115W        W35552   2.919   7.297   2.341
76116W        W35553  40.975  44.825  11.467
76117W        W35554  26.188  43.458   4.298
76118W        W35555  38.989  28.978  12.908
76119W        W35556  28.666  23.571  14.287
76120W        W35557  16.664  28.116  12.551
76121W        W35558  18.617  43.468  10.555
76122W        W35559   9.389   9.200  11.569
76123W        W35560   5.845   5.318  12.018
76124W        W35561  32.971  30.106  12.871
76125W        W35562  23.564  35.946  12.400
76126W        W35563  19.097   6.861  10.546
76127W        W35564  33.016  27.147  11.437
76128W        W35565   0.789  26.107   0.296
76129W        W35566  19.714  18.572  14.827
76130W        W35567  38.503   6.701   4.765
76131W        W35568  24.143  16.202  13.058
76132W        W35569   0.916  27.107   0.828
76133W        W35570   6.380  35.594  14.362
76134W        W35571  33.410  43.326   4.306
76135W        W35572   6.718  15.696  14.324
76136W        W35573  16.274  10.789   1.241
76137W        W35574   7.406  37.087  14.823
76138W        W35575  27.089  10.796   0.253
76139W        W35576   9.783  13.689  13.037
76140W        W35577  24.478  39.327  12.883
76141W        W35578  25.505  13.708  14.838
76142W        W35579   5.421  33.517  11.881
76143W        W35580  18.120  18.089  11.896
76144W        W35581   9.670  29.164  13.430
76145W        W35582  10.812  42.004  13.984
76146W        W35583  18.775  40.966  13.373
76147W        W35584   5.801  18.598  11.051
76148W        W35585   2.841  26.575   3.744
76149W        W35586  33.470  44.805   3.186
76150W        W35587  41.479  23.651   0.290
76151W        W35588  44.334   6.254   1.267
76152W        W35589  27.655   9.389   3.385
76153W        W35590  40.352  13.219  10.961
76154W        W35591  21.079  21.128   4.211
76155W        W35592  19.123   7.325   0.825
76156W        W35593  29.473  13.616   2.313
76157W        W35594  22.581  20.079  11.600
76158W        W35595   8.272  35.468  11.081
76159W        W35596  28.438   5.789   2.897
76160W        W35597  20.766  11.729   4.721
76161W        W35598  36.441  14.213  11.389
76162W        W35599  34.424  38.415   1.768
76163W        W35600  22.069   7.861  14.807
76164W        W35601  39.549   3.402  12.060
76165W        W35602  44.259  33.130   3.835
76166W        W35603  16.578  16.169   4.609
76167W        W35604  25.996  24.080  12.399
76168W        W35605  27.109  16.174   4.289
76169W        W35606  26.151  16.249   3.770
76170W        W35607  39.054  37.831   0.424
76171W        W35608  25.625  39.470  13.512
76172W        W35609  38.988  29.589  14.823
76173W        W35610  35.070  36.420   3.151
76174W        W35611  44.832  27.983  12.939
76175W        W35612   1.848  12.745   3.362
76176W        W35613  43.454  12.684   3.176
76177W        W35614  31.492   6.296  14.455
76178W        W35615  26.685  22.615   2.203
76179W        W35616   1.758  29.157  11.405
76180W        W35617  12.847  20.100  13.395
76181W        W35618  34.516  11.288  13.975
76182W        W35619  34.954  37.477   1.824
76183W        W35620  39.910  23.731  12.967
76184W        W35621  38.002  37.518  11.903
76185W        W35622  10.662   1.959   4.130
76186W        W35623   2.318  12.265  11.931
76187W        W35624  39.353  43.469   1.357
76188W        W35625   8.333   6.254   4.676
76189W        W35626  32.516  19.222   2.245
76190W        W35627   8.722   7.882  11.111
76191W        W35628  36.540  13.220   1.357
76192W        W35629   1.296  10.369   3.362
76193W        W35630  14.700   2.857  10.498
76194W        W35631  21.117   5.295  14.853
76195W        W35632  19.710  32.623   0.735
76196W        W35633   4.393  33.391   2.215
76197W        W35634  29.510  23.210   1.344
76198W        W35635   7.203   7.204   0.769
76199W        W35636  21.758  17.758  13.941
76200W        W35637   1.784   4.729   2.401
76201W        W35638   1.267  41.982   4.789
76202W        W35639  11.685  34.108   3.857
76203W        W35640  16.752  28.608  14.427
76204W        W35641  28.670  44.263   2.285
76205W        W35642  23.496   9.651  14.488
76206W        W35643  22.669   0.895   4.116
76207W        W35644   9.699  40.456   4.170
76208W        W35645  33.555  10.291   3.328
76209W        W35646  39.909  37.398  13.977
76210W        W35647  41.448  26.086  12.900
76211W        W35648  38.965  34.524  14.374
76212W        W35649  30.160  44.833   4.120
76213W        W35650  16.770   9.674   0.245
76214W        W35651  42.330  26.666   3.665
76215W        W35652  31.594  18.590   1.820
76216W        W35653  20.087   9.179   4.677
76217W        W35654  27.066   9.278  12.024
76218W        W35655  34.481  11.629  12.990
76219W        W35656  23.559  20.613   4.146
76220W        W35657  21.120  24.219  12.504
76221W        W35658  43.468  41.927   0.304
76222W        W35659  22.563  14.674   0.743
76223W        W35660  28.013  20.203  10.968
76224W        W35661   7.220  34.995   0.323
76225W        W35662   5.705   8.856  14.366
76226W        W35663  10.688   9.386  14.812
76227W        W35664  10.653  23.638   2.257
76228W        W35665  21.720  24.622  11.378
76229W        W35666   9.160  15.778   1.339
76230W        W35667   9.663  27.056   2.710
76231W        W35668  43.466  31.045   2.395
76232W        W35669   6.857   3.287   3.203
76233W        W35670  25.091  13.300   2.218
76234W        W35671  20.574  44.945  14.970
76235W        W35672  10.639  27.606   4.251
76236W        W35673  12.219  15.636  10.551
76237W        W35674  10.249  25.022  14.875
76238W        W35675   7.807  34.995   0.870
76239W        W35676   7.745  28.528  14.961
76240W        W35677   5.382  32.919   2.772
76241W        W35678  24.025  28.594   2.414
76242W        W35679  20.035  32.633   0.900
76243W        W35680  15.589  18.213   4.295
76244W        W35681  37.521   5.430   3.746
76245W        W35682  28.052  38.031  12.981
76246W        W35683  35.445  32.133  11.913
76247W        W35684  14.293  33.557  11.517
76248W        W35685  25.496  40.875   2.788
76249W        W35686  14.793  14.272   0.733
76250W        W35687  12.796  30.641   1.757
76251W        W35688  36.048  25.633   2.748
76252W        W35689  12.642  36.529  11.472
76253W        W35690  27.187  16.616   0.472
76254W        W35691  23.092  10.317  13.516
76255W        W35692  28.584   7.784  11.083
76256W        W35693  13.122  19.707   2.879
76257W        W35694  42.425   6.198  14.813
76258W        W35695   8.838   2.305   0.727
76259W        W35696  25.972  29.595   0.298
76260W        W35697  26.511  37.951  13.317
76261W        W35698   6.332  43.390  14.805
76262W        W35699   0.881  31.564   0.892
76263W        W35700  21.725   1.833  14.388
76264W        W35701  24.671  13.283  14.020
76265W        W35702  43.778  34.949   1.310
76266W        W35703  36.942  20.117  13.420
76267W        W35704  14.614  34.899   2.677
76268W        W35705  36.581   2.393  14.816
76269W        W35706  27.561  40.809   0.824
76270W        W35707  23.997  30.139   4.657
76271W        W35708  39.508  10.874  12.016
76272W        W35709  15.267  42.326  13.351
76273W        W35710  35.957  16.178   2.398
76274W        W35711  43.457   1.270   4.333
76275W        W35712  40.941  39.383  11.929
76276W        W35713  12.647  24.147  14.977
76277W        W35714   1.869  27.955   1.917
76278W        W35715   8.706  44.397   4.696
76279W        W35716  41.932   7.389   1.439
76280W        W35717   7.725  10.761  13.320
76281W        W35718  15.121  43.510  12.908
76282W        W35719  42.292  22.163   4.797
76283W        W35720  31.003  37.011   4.723
76284W        W35721  36.405  40.441   3.865
76285W        W35722   7.881  30.143  11.856
76286W        W35723  15.717  21.634   2.363
76287W        W35724  13.618  16.228   2.228
76288W        W35725  40.348  44.466  10.076
76289W        W35726  41.426   3.387  10.946
76290W        W35727  36.423  13.129  14.392
76291W        W35728  42.339   2.885   0.420
76292W        W35729  41.471   6.893   3.649
76293W        W35730  13.757   2.434  10.589
76294W        W35731  13.804  20.563   4.228
76295W        W35732  28.457   3.734   0.311
76296W        W35733  34.607  34.068  14.430
76297W        W35734   8.326  10.158  12.921
76298W        W35735   6.703  18.179   4.151
76299W        W35736   1.922  19.083   2.851
76300W        W35737  42.777  13.831   3.385
76301W        W35738  39.860  44.799   0.367
76302W        W35739   3.312  19.746  11.926
76303W        W35740   5.397  26.701  14.466
76304W        W35741  20.139  24.616   3.798
76305W        W35742  41.990  26.180  13.444
76306W        W35743   1.325  37.543  11.456
76307W        W35744  17.607  32.529  13.535
76308W        W35745  14.661  38.020  14.788
76309W        W35746  43.843  10.843  14.805
76310W        W35747  39.426   6.848  13.049
76311W        W35748  10.189  12.777   0.850
76312W        W35749   8.665  25.178   3.359
76313W        W35750   6.325  15.321  13.493
76314W        W35751  15.696  36.999   1.723
76315W        W35752  18.709  40.358   0.757
76316W        W35753  24.141  18.763   3.868
76317W        W35754   4.850   0.445  10.964
76318W        W35755   8.257  44.865   2.706
76319W        W35756  36.859  33.623   4.202
76320W        W35757   9.683  30.057  11.415
76321W        W35758  35.935  31.530   4.766
76322W        W35759   0.293  14.665  10.622
76323W        W35760  13.779  12.691   4.315
76324W        W35761   2.454  16.258   3.657
76325W        W35762  38.376  14.739  12.857
76326W        W35763  31.987  38.515  12.078
76327W        W35764  34.112  23.101  13.914
76328W        W35765   1.927   7.272   1.335
76329W        W35766  10.212  33.942   4.203
76330W        W35767  11.711  41.360  10.980
76331W        W35768  17.068  26.169   3.742
76332W        W35769  10.710  37.082  11.971
76333W        W35770  25.182  24.107  13.017
76334W        W35771  21.065   5.423  13.874
76335W        W35772   2.769  15.166   0.926
76336W        W35773  20.126  30.069  10.927
76337W        W35774  35.600  37.394   4.284
76338W        W35775  37.997  20.051  11.400
76339W        W35776  35.502  32.061   9.973
76340W        W35777  33.080  18.754  11.447
76341W        W35778   3.296  41.405  11.608
76342W        W35779   5.704  34.102  14.899
76343W        W35780  31.926  21.156   2.839
76344W        W35781  44.329  30.496  10.449
76345W        W35782  41.848  11.259  14.940
76346W        W35783  36.987  13.779  14.939
76347W        W35784   3.305  11.285  12.340
76348W        W35785  27.609  38.962   2.827
76349W        W35786   0.270  13.712  13.819
76350W        W35787  22.525  39.513  11.534
76351W        W35788   9.387   5.803   2.754
76352W        W35789  10.347   1.265   0.361
76353W        W35790  20.190  18.564   2.397
76354W        W35791  42.521   5.303  14.958
76355W        W35792   7.697  37.518  13.911
76356W        W35793  41.476  14.807   4.721
76357W        W35794  35.044  18.576  10.890
76358W        W35795  24.027  33.599   4.763
76359W        W35796   5.293   4.826  14.968
76360W        W35797  37.843  41.886   3.147
76361W        W35798  24.115   1.347   2.759
76362W        W35799  22.513  37.467  10.926
76363W        W35800   1.365  23.638   1.413
76364W        W35801  21.721  25.587   2.776
76365W        W35802  17.301   7.338   4.622
76366W        W35803   8.842  31.955  11.584
76367W        W35804   8.721   5.727  12.410
76368W        W35805   3.233  32.563   5.281
76369W        W35806  26.532  36.061   4.639
76370W        W35807  33.435  35.564   2.304
76371W        W35808  39.424  14.278  14.490
76372W        W35809  34.907  30.620  12.574
76373W        W35810  37.849  13.651   4.609
76374W        W35811  10.784  14.773  14.762
76375W        W35812   9.224   3.416   1.717
76376W        W35813  32.483  37.028   0.842
76377W        W35814  20.179  31.522   1.230
76378W        W35815  36.872  12.230   3.752
76379W        W35816  21.575  20.261  14.372
76380W        W35817  27.478  24.551   1.880
76381W        W35818  34.560  14.181   1.719
76382W        W35819  31.054  19.145  12.497
76383W        W35820  19.163  44.346   3.743
76384W        W35821  35.033  16.763  10.960
76385W        W35822  23.086  43.864   2.276
76386W        W35823  30.115  10.666   1.254
76387W        W35824  30.141  36.974   2.195
76388W        W35825  37.856  36.915   0.383
76389W        W35826  33.485  18.775  12.998
76390W        W35827  42.839  41.975   2.825
76391W        W35828  33.959  39.518   3.201
76392W        W35829  27.127   7.870   2.329
76393W        W35830  34.965   6.318   3.238
76394W        W35831  24.133  13.646  12.934
76395W        W35832  10.657   7.393   0.892
76396W        W35833  18.767   0.825  11.475
76397W        W35834   0.916   2.887   4.628
76398W        W35835  43.448  44.337   1.306
76399W        W35836  14.686  30.451  10.905
76400W        W35837  23.558  40.811   9.547
76401W        W35838  43.837  22.053   0.389
76402W        W35839  18.145   1.269   0.429
76403W        W35840  23.670  18.672   0.427
76404W        W35841  20.179   4.832   3.836
76405W        W35842  26.649   4.264   3.673
76406W        W35843  42.817  29.080   2.331
76407W        W35844  36.445  30.543   0.250
76408W        W35845  12.349  18.162   4.768
76409W        W35846  13.351  29.429  11.907
76410W        W35847  22.202  36.071  10.971
76411W        W35848  44.866  38.377  14.399
76412W        W35849  23.057  12.676   3.709
76413W        W35850  13.695   5.367   0.898
76414W        W35851  21.140  25.567  12.574
76415W        W35852  43.309   3.922  13.923
76416W        W35853  23.203  23.134  13.310
76417W        W35854  27.144  28.005  14.299
76418W        W35855  16.590  21.233  14.864
76419W        W35856  23.232  41.032  11.991
76420W        W35857  29.591   4.886   3.315
76421W        W35858  16.724   5.891   3.323
76422W        W35859  35.560  41.434   0.955
76423W        W35860  40.415  39.001   1.780
76424W        W35861  37.939   7.842  14.353
76425W        W35862  36.892  29.026   1.356
76426W        W35863  42.505  43.341   3.785
76427W        W35864  29.529  44.475  13.545
76428W        W35865   3.954   0.834   4.301
76429W        W35866  14.642   0.398  13.849
76430W        W35867  34.549   3.956  10.531
76431W        W35868  26.508  39.970   4.639
76432W        W35869   5.307  33.464  13.792
76433W        W35870  13.660  21.565   0.306
76434W        W35871  10.855  11.623   0.823
76435W        W35872  19.609  36.867  10.617
76436W        W35873  21.565  31.004  12.393
76437W        W35874  34.570  17.568  10.914
76438W        W35875   4.705  28.571   4.337
76439W        W35876  13.333  31.974  12.824
76440W        W35877  10.765  23.140   2.230
76441W        W35878  43.883  11.369   0.454
76442W        W35879   9.375  11.705  14.295
76443W        W35880   8.380  30.628   3.323
76444W        W35881   3.760  38.067   4.291
76445W        W35882  39.408  25.523   4.723
76446W        W35883   9.156  33.070   3.169
76447W        W35884   9.750   0.345  10.438
76448W        W35885  29.514  22.148   1.392
76449W        W35886   1.820   7.235  13.831
76450W        W35887  14.652  23.009   3.837
76451W        W35888  26.685  30.504   4.711
76452W        W35889  42.030  19.731   4.255
76453W        W35890  16.699   6.278  11.075
76454W        W35891   0.405  39.883   0.256
76455W        W35892  15.807  13.769   2.761
76456W        W35893  26.992  24.702  14.404
76457W        W35894   0.325  11.299   3.204
76458W        W35895  44.319  16.754  11.050
76459W        W35896   3.285   3.236   2.403
76460W        W35897  15.621  11.280  13.362
76461W        W35898  39.449  36.547  13.869
76462W        W35899  20.708  16.654   1.748
76463W        W35900   0.940   5.372  12.539
76464W        W35901  24.616  15.748  14.886
76465W        W35902  43.323   5.738   1.696
76466W        W35903  34.117  18.092  14.287
76467W        W35904   1.295  28.494  14.018
76468W        W35905  26.987   6.751  12.969
76469W        W35906  20.764  32.465  11.522
76470W        W35907  21.527  22.042   1.364
76471W        W35908  29.660   0.328  13.329
76472W        W35909   9.736  32.400  12.938
76473W        W35910   8.298  29.965  13.974
76474W        W35911  38.483  43.017  10.408
76475W        W35912   3.814  14.699   1.824
76476W        W35913  27.990  26.971  13.528
76477W        W35914  38.847  12.837   1.214
76478W        W35915   9.324  18.104   4.760
76479W        W35916  29.530  26.555  12.884
76480W        W35917  19.678  36.848   1.920
76481W        W35918  44.375  40.966  11.949
76482W        W35919   9.185   7.341  14.473
76483W        W35920  13.179   7.397  12.436
76484W        W35921  44.000  23.009  13.501
76485W        W35922   5.808   1.481   4.710
76486W        W35923  19.134  15.191  14.367
76487W        W35924  39.535   7.336  13.433
76488W        W35925  12.292  33.050   0.321
76489W        W35926  41.909  29.555   1.301
76490W        W35927  22.217  40.041   0.299
76491W        W35928  19.103   8.753  14.437
76492W        W35929  20.546  27.969   2.895
76493W        W35930  22.601  36.381   2.809
76494W        W35931   3.783  44.970   4.661
76495W        W35932  33.934  25.583  10.004
76496W        W35933  42.516   7.186   4.672
76497W        W35934  10.723  24.593  11.455
76498W        W35935  24.084  15.814   1.265
76499W        W35936  14.270  24.609   2.857
76500W        W35937  13.644   7.345   0.245
76501W        W35938  43.906  24.639   0.961
76502W        W35939  27.124  30.512  11.467
76503W        W35940  37.071  42.443  13.392
76504W        W35941  31.091   3.939  13.947
76505W        W35942   2.344  30.980   3.632
76506W        W35943  15.124   1.465   3.219
76507W        W35944   3.766  37.014   2.230
76508W        W35945  10.668  30.420   4.210
76509W        W35946  31.994  40.477  12.914
76510W        W35947  36.005   4.377   2.288
76511W        W35948  10.292   2.822  11.059
76512W        W35949  43.868  20.249   3.808
76513W        W35950  36.043  44.395  12.894
76514W        W35951  29.149  19.150  14.921
76515W        W35952   3.745  13.842   3.285
76516W        W35953   2.458  32.126   3.174
76517W        W35954  40.343  37.854   2.413
76518W        W35955  31.645  44.330  14.958
76519W        W35956  18.207  28.086   4.293
76520W        W35957  41.863  19.777   5.269
76521W        W35958  20.653   9.795   1.292
76522W        W35959  10.666  24.520  14.494
76523W        W35960  31.113  12.669  14.377
76524W        W35961  29.552  12.635   2.244
76525W        W35962  18.096   8.824  10.898
76526W        W35963  26.177  25.094  13.822
76527W        W35964  40.492  20.707   3.711
76528W        W35965   1.409  14.646  14.772
76529W        W35966   8.678  27.650   2.336
76530W        W35967   3.424  31.517  14.461
76531W        W35968   7.313  34.912  14.444
76532W        W35969  25.482  22.638   2.841
76533W        W35970   9.186  26.178  12.569
76534W        W35971  33.584  16.668  12.904
76535W        W35972  17.287  38.001   2.341
76536W        W35973   9.685  44.975   3.726
76537W        W35974   9.813  26.631  13.865
76538W        W35975  32.483   2.468  13.847
76539W        W35976  32.502  37.012   3.195
76540W        W35977   3.766  19.621  10.423
76541W        W35978  29.015  38.867   2.235
76542W        W35979  29.438  33.993  11.116
76543W        W35980   7.340  24.209   0.788
76544W        W35981  32.598  20.175  14.359
76545W        W35982   5.925  38.522   2.313
76546W        W35983   5.213  19.715   3.270
76547W        W35984  16.275  37.005   3.362
76548W        W35985  24.600  16.264  11.107
76549W        W35986  33.406  12.148   2.770
76550W        W35987   9.150  12.649   2.711
76551W        W35988  30.567  38.366   3.180
76552W        W35989  44.355  36.385   2.404
76553W        W35990  36.938  38.892   0.262
76554W        W35991   0.881  41.478   3.750
76555W        W35992  28.015  26.464  10.422
76556W        W35993  24.545   4.746  10.620
76557W        W35994  31.621  40.863   4.746
76558W        W35995  24.118  25.048  12.507
76559W        W35996  12.637  24.114   3.330
76560W        W35997  17.641  42.948   1.388
76561W        W35998  11.196   7.268   1.243
76562W        W35999  21.204  40.519  12.409
76563W        W36000  39.921   7.836  11.923
76564W        W36001  23.024  21.238   9.624
76565W        W36002   1.385  34.381  12.861
76566W        W36003   8.841  21.686   1.735
76567W        W36004   8.762  44.260   0.277
76568W        W36005   4.710  15.111   4.834
76569W        W36006  22.702  21.043   4.137
76570W        W36007  41.353  30.580  10.946
76571W        W36008  10.653  33.489  12.067
76572W        W36009  25.666  39.945  11.441
76573W        W36010   6.224  28.950   1.257
76574W        W36011  28.932  42.319  12.379
76575W        W36012   6.221  18.254  10.989
76576W        W36013  37.073  23.185   2.800
76577W        W36014  33.022  41.502  13.478
76578W        W36015  15.585   8.700  11.895
76579W        W36016  24.531  14.334  11.917
76580W        W36017  18.686  23.027  10.433
76581W        W36018  13.780  22.577   3.282
76582W        W36019  23.012  16.095   0.244
76583W        W36020  34.393  16.734   2.355
76584W        W36021  41.427  23.143  10.505
76585W        W36022  19.618  35.580  11.883
76586W        W36023  34.965  26.088   3.767
76587W        W36024  44.452   1.828   0.472
76588W        W36025  15.803  36.963   4.116
76589W        W36026  16.611   3.926  12.873
76590W        W36027  26.029  18.096  11.510
76591W        W36028   6.855   0.871   0.841
76592W        W36029  29.609   3.437  10.580
76593W        W36030  39.993  38.051  12.401
76594W        W36031  40.852  27.504   2.331
76595W        W36032  19.541  20.667   2.735
76596W        W36033  40.901   2.416   4.744
76597W        W36034   4.867  14.738  11.462
76598W        W36035   1.255  26.626   3.303
76599W        W36036   8.308  37.528  13.935
76600W        W36037  10.341   3.440  13.804
76601W        W36038  12.805  37.059   3.645
76602W        W36039  11.783   8.164   4.839
76603W        W36040  35.892  35.415  11.482
76604W        W36041   4.251  43.000  13.497
76605W        W36042   8.725  11.251  11.523
76606W        W36043   5.210  40.326  14.343
76607W        W36044  43.329  34.514   4.138
76608W        W36045  31.990  17.300  11.514
76609W        W36046  37.401  27.680   2.260
76610W        W36047  10.832  16.740  14.833
76611W        W36048  20.267  30.929  13.952
76612W        W36049  16.103  32.895  10.542
76613W        W36050  22.187  33.625   3.812
76614W        W36051  30.158  19.550   0.777
76615W        W36052   8.305  22.527   2.275
76616W        W36053   5.806  36.874  12.484
76617W        W36054  37.859  37.071  10.549
76618W        W36055  39.000  23.051  12.408
76619W        W36056  20.239  10.374   2.815
76620W        W36057  14.753  12.198  13.927
76621W        W36058  16.217  11.695  13.462
76622W        W36059  29.956  13.144  10.411
76623W        W36060  16.299  28.115  10.952
76624W        W36061   6.910  14.264   2.700
76625W        W36062  42.940   2.255  11.477
76626W        W36063  25.666   1.822   4.173
76627W        W36064  27.613  22.709  12.381
76628W        W36065  29.662  30.034   1.346
76629W        W36066  26.176  36.508   2.822
76630W        W36067  10.308  21.201  12.486
76631W        W36068   6.833  42.344  11.994
76632W        W36069  35.422  40.535   4.214
76633W        W36070   6.189  44.459   3.662
76634W        W36071  16.575  41.786  11.876
76635W        W36072   3.308  20.137   4.274
76636W        W36073   5.862  18.648   0.399
76637W        W36074  13.309  39.898  12.892
76638W        W36075   6.197   7.316   1.255
76639W        W36076  41.309  38.465  12.938
76640W        W36077  16.745   9.305  11.395
76641W        W36078   9.250   7.874  11.987
76642W        W36079  16.683   1.306  13.412
76643W        W36080  34.095   2.823   4.668
76644W        W36081  31.075   1.335   2.292
76645W        W36082  26.075  30.478   4.167
76646W        W36083  12.267  21.651  10.935
76647W        W36084   6.898  13.298  11.605
76648W        W36085   3.230  11.766  14.933
76649W        W36086  23.113  42.937  14.773
76650W        W36087   0.824  36.517   2.191
76651W        W36088  38.447   8.842   0.436
76652W        W36089  44.771   9.344   4.743
76653W        W36090   1.445  20.264   4.309
76654W        W36091  36.524  16.270  12.888
76655W        W36092  21.131  41.001  14.295
76656W        W36093   9.867   3.762   0.916
76657W        W36094  27.690  26.561   2.768
76658W        W36095  39.516  41.790   4.668
76659W        W36096  42.509   7.765   3.316
76660W        W36097  26.092  33.463   1.805
76661W        W36098  35.412  30.633   2.400
76662W        W36099  19.221  31.450  11.109
76663W        W36100  23.656  33.104  14.855
76664W        W36101   1.811  40.398  13.970
76665W        W36102   3.877  16.741   3.840
76666W        W36103   4.281  16.241   2.410
76667W        W36104  31.953  43.940   1.427
76668W        W36105  22.696  35.956   0.821
76669W        W36106  14.101  36.442  14.774
76670W        W36107   9.367  26.655   3.816
76671W        W36108  42.326  27.663   0.302
76672W        W36109  17.684   4.425  12.062
76673W        W36110  29.568   6.861  10.634
76674W        W36111  30.572  21.103  12.852
76675W        W36112  38.500  23.717   2.686
76676W        W36113   8.756  34.056   0.457
76677W        W36114   0.836  29.470  13.338
76678W        W36115  18.128  42.420   5.677
76679W        W36116   1.457   4.433  13.539
76680W        W36117   1.323  29.127   3.145
76681W        W36118  33.018  13.185   0.347
76682W        W36119  35.997  40.935  14.878
76683W        W36120  19.540   4.763   3.265
76684W        W36121  27.551   8.659   4.220
76685W        W36122   1.813  39.551  14.288
76686W        W36123  19.667  18.105  12.854
76687W        W36124  19.172  30.521   2.852
76688W        W36125  19.700  20.148  13.486
76689W        W36126  20.226   5.356  10.531
76690W        W36127  11.297  42.310   3.723
76691W        W36128  16.220  22.511  14.024
76692W        W36129  12.164   4.328   4.311
76693W        W36130   5.364  33.620  12.372
76694W        W36131  43.874  43.432  12.986
76695W        W36132  32.395  44.958   0.376
76696W        W36133  38.528  26.145   0.370
76697W        W36134  30.590   6.378   1.236
76698W        W36135   6.267   0.380   4.257
76699W        W36136   2.812   4.864  10.593
76700W        W36137  37.501  27.520   3.754
76701W        W36138  41.305  36.963  10.974
76702W        W36139  20.705  44.764   4.160
76703W        W36140  40.806  18.556   2.802
76704W        W36141  19.672  43.011  12.453
76705W        W36142  34.071  41.298  10.641
76706W        W36143   0.448  18.604   4.645
76707W        W36144   4.384  30.507  11.086
76708W        W36145   3.294  42.972   0.966
76709W        W36146   8.828  44.927  12.409
76710W        W36147   9.711  30.965   4.193
76711W        W36148   2.874  28.083   4.250
76712W        W36149  43.475  25.591   0.306
76713W        W36150  18.751   1.782   2.394
76714W        W36151  35.570   5.820  14.944
76715W        W36152  37.480  22.690   2.415
76716W        W36153  15.757  31.477   0.426
76717W        W36154  32.046  40.536   1.792
76718W        W36155   7.350  16.210  12.006
76719W        W36156  26.182   2.453   3.832
76720W        W36157  29.125  35.965  11.918
76721W        W36158  31.627  17.601   3.281
76722W        W36159  24.227  28.564   1.324
76723W        W36160  40.459  37.375  14.961
76724W        W36161  31.098  29.562   2.898
76725W        W36162  33.532   3.328   0.948
76726W        W36163  21.695   7.339  11.894
76727W        W36164  44.337   8.760  13.457
76728W        W36165  26.582  29.659  11.017
76729W        W36166  28.984  22.590   1.366
76730W        W36167   8.279  28.128  11.600
76731W        W36168  18.261  14.820   0.264
76732W        W36169   4.362  23.016   4.228
76733W        W36170  26.569  36.946  11.004
76734W        W36171  27.097  19.691  14.463
76735W        W36172  31.963   4.370   3.667
76736W        W36173  28.167  31.966   4.207
76737W        W36174  29.049  15.788   0.390
76738W        W36175  23.653   1.912   1.338
76739W        W36176  16.115  39.847  12.507
76740W        W36177  12.674  20.527  14.419
76741W        W36178  41.460  16.186  11.401
76742W        W36179   2.314   5.256  11.371
76743W        W36180  42.893  23.198   4.697
76744W        W36181  21.259   4.932   2.714
76745W        W36182  35.979  14.210   0.467
76746W        W36183  13.625   5.304   0.405
76747W        W36184  38.948  27.121  10.094
76748W        W36185  26.076  28.952  13.013
76749W        W36186  24.062   4.913  13.437
76750W        W36187  16.280  23.132   4.341
76751W        W36188  23.490  34.606   1.789
76752W        W36189  23.106  22.125   1.244
76753W        W36190  15.748   8.709   4.213
76754W        W36191  19.215   9.206  12.481
76755W        W36192  27.531   7.760  10.988
76756W        W36193  39.011  17.198   0.963
76757W        W36194  39.443  36.985  11.608
76758W        W36195  12.210  16.230  12.507
76759W        W36196  19.064   3.803   3.253
76760W        W36197   3.778  38.507  11.396
76761W        W36198  39.551  19.263  11.087
76762W        W36199  27.971  39.438  14.816
76763W        W36200  33.428  31.555  13.935
76764W        W36201  44.899  34.007   0.378
76765W        W36202  33.452  36.082  12.989
76766W        W36203   1.409   7.333   3.716
76767W        W36204  23.007  40.033   0.477
76768W        W36205  37.454  14.682  11.867
76769W        W36206  38.346  29.006  14.944
76770W        W36207  39.900  31.563   4.798
76771W        W36208  28.081   7.185   0.275
76772W        W36209  27.686  31.067   4.677
76773W        W36210  35.072   4.763  10.157
76774W        W36211  21.185  25.612  10.450
76775W        W36212  27.110  23.556   2.828
76776W        W36213  39.849  39.986  12.383
76777W        W36214   0.969   9.857   0.393
76778W        W36215  22.732  35.878   4.752
76779W        W36216  12.767  41.314  10.583
76780W        W36217  42.451  41.374  11.484
76781W        W36218  28.074  10.674  14.866
76782W        W36219  11.212  33.034   3.650
76783W        W36220  18.236  23.188  14.410
76784W        W36221  26.507   4.768  11.974
76785W        W36222  44.394  25.526  12.371
76786W        W36223   5.218  25.109   4.625
76787W        W36224  27.971   2.423   4.619
76788W        W36225  36.063  20.748  13.030
76789W        W36226   4.855  30.476  13.062
76790W        W36227  26.525  20.058   2.393
76791W        W36228  37.561  15.760  14.900
76792W        W36229  41.328   4.335   0.400
76793W        W36230  39.051  31.544   0.827
76794W        W36231  31.056   4.404  14.918
76795W        W36232  27.087  31.988   1.240
76796W        W36233  17.611  18.712   3.301
76797W        W36234  31.137   2.298   0.961
76798W        W36235  30.639   4.810   4.607
76799W        W36236   0.332   2.444  13.930
76800W        W36237  27.551  23.725  12.861
76801W        W36238  31.148  15.669   1.221
76802W        W36239  33.081  20.193   2.386
76803W        W36240  33.094   6.683  14.879
76804W        W36241  14.192  43.510  12.979
76805W        W36242  27.159  14.671   5.586
76806W        W36243  42.425  19.539  12.927
76807W        W36244  16.247  44.892  14.803
76808W        W36245  20.738  40.512  12.036
76809W        W36246  25.983  40.434   5.656
76810W        W36247   9.325  39.922   0.370
76811W        W36248  24.564  16.807  11.512
76812W        W36249  35.589  41.352   3.799
76813W        W36250  20.182  44.316   3.342
76814W        W36251   1.250   0.437  12.374
76815W        W36252   1.423  11.719  13.959
76816W        W36253   7.417  37.344   0.440
76817W        W36254   1.961  16.769  12.833
76818W        W36255  12.830  27.154  10.627
76819W        W36256  19.188  34.586   0.782
76820W        W36257  26.013  27.134  12.490
76821W        W36258  22.028  42.940  14.447
76822W        W36259  14.172  33.580   2.317
76823W        W36260  23.508  39.893  13.344
76824W        W36261  39.988  41.961  10.622
76825W        W36262  13.229  21.112  14.312
76826W        W36263   2.958  31.026  14.866
76827W        W36264  41.298  36.902   0.894
76828W        W36265  10.374  21.581   2.347
76829W        W36266  37.871  15.218   0.819
76830W        W36267  33.085  17.148  14.508
76831W        W36268  31.512  18.726  10.999
76832W        W36269  26.619   4.227  14.490
76833W        W36270  14.757  15.740  14.966
76834W        W36271  38.446  42.378  10.416
76835W        W36272  41.007  43.339   4.348
76836W        W36273  22.627  30.645   4.777
76837W        W36274   0.905   8.798   1.709
76838W        W36275  19.275  44.863  13.464
76839W        W36276  12.719  40.891   0.884
76840W        W36277   6.310   1.474  13.313
76841W        W36278  34.579  23.564  10.962
76842W        W36279  14.173  36.527   1.329
76843W        W36280  20.695  40.419  14.469
76844W        W36281  41.975  17.269   2.728
76845W        W36282   9.199  40.522  13.480
76846W        W36283  30.435  25.498   0.369
76847W        W36284  10.372   1.303   2.681
76848W        W36285  22.031  39.824  13.448
76849W        W36286  27.999  17.070   2.345
76850W        W36287  35.419  31.918   2.395
76851W        W36288  26.617  10.327  10.071
76852W        W36289  27.567  34.059  11.421
76853W        W36290   8.743   3.731  11.934
76854W        W36291   7.281   9.330   2.376
76855W        W36292  12.611  13.654   1.852
76856W        W36293  15.632  37.903   5.081
76857W        W36294   0.849   3.417  12.545
76858W        W36295  12.208  17.604  12.093
76859W        W36296   1.413  31.611   3.182
76860W        W36297  33.553   7.372   0.429
76861W        W36298  27.449   2.305  10.987
76862W        W36299  44.456  18.127  12.426
76863W        W36300  20.153  41.412   2.779
76864W        W36301  18.549  43.323   2.198
76865W        W36302  35.598  37.928   4.647
76866W        W36303  23.665  32.407   0.455
76867W        W36304  26.651  33.558   0.432
76868W        W36305   8.698  11.329  14.960
76869W        W36306  18.646  38.062  13.418
76870W        W36307  38.889  11.714  10.985
76871W        W36308  32.098  38.458   1.400
76872W        W36309   1.352   3.807   0.776
76873W        W36310   0.773  10.713   2.665
76874W        W36311  16.701   2.768   4.691
76875W        W36312  16.707  40.816  12.005
76876W        W36313  38.422  10.802  11.112
76877W        W36314  26.476  44.396   1.698
76878W        W36315  36.071  18.761   0.288
76879W        W36316   9.388   3.789   0.737
76880W        W36317  27.561  16.758   2.229
76881W        W36318  40.958  15.167   3.734
76882W        W36319  42.310   4.886  13.050
76883W        W36320  40.378  26.171   1.843
76884W        W36321  39.396   5.890   4.137
76885W        W36322   5.374  28.172   0.371
76886W        W36323  19.098   5.919  14.938
76887W        W36324   4.266   2.396   3.677
76888W        W36325  38.489  35.567  12.908
76889W        W36326  41.807  20.547  11.553
76890W        W36327  32.133  32.106   2.358
76891W        W36328   5.765  41.996  10.910
76892W        W36329  17.793  42.795   0.928
76893W        W36330  29.009  13.198  11.125
76894W        W36331  31.493  21.052   3.771
76895W        W36332  43.011   3.751   0.924
76896W        W36333   4.892  18.087  11.475
76897W        W36334  27.478  27.450  13.439
76898W        W36335  16.073  39.033   2.408
76899W        W36336  44.394  34.513  14.320
76900W        W36337   9.791  32.905  13.964
76901W        W36338  17.102   2.421   2.791
76902W        W36339  25.974   7.774  10.968
76903W        W36340  44.864  34.050   5.116
76904W        W36341  43.951  15.590  10.628
76905W        W36342  33.444   6.341   1.776
76906W        W36343  33.962  43.374   3.861
76907W        W36344   9.729  31.483   1.840
76908W        W36345  11.750  32.547   2.401
76909W        W36346  13.328  20.030   4.225
76910W        W36347  35.475  16.089  13.051
76911W        W36348  28.942   0.977   2.824
76912W        W36349   0.862  36.477  13.973
76913W        W36350  43.919   6.679  11.897
76914W        W36351  38.053  36.080   3.802
76915W        W36352  13.337  12.200  14.959
76916W        W36353   5.884  16.734   0.303
76917W        W36354  33.988   8.679   4.734
76918W        W36355  15.291  18.721  14.837
76919W        W36356  25.567  31.560   4.144
76920W        W36357  27.595  27.967  13.542
76921W        W36358  10.155  23.625  13.537
76922W        W36359  15.666  32.397   4.662
76923W        W36360   1.440  25.995   0.789
76924W        W36361  21.039  15.267  11.389
76925W        W36362  34.957  28.666  11.857
76926W        W36363  37.967  33.544  11.955
76927W        W36364  34.469  15.203  10.923
76928W        W36365  42.292  35.853   2.787
76929W        W36366  38.333  33.553  13.909
76930W        W36367  17.280  18.620  14.283
76931W        W36368  27.048  24.685   9.947
76932W        W36369   2.290   1.410  12.472
76933W        W36370  15.190  22.186  11.605
76934W        W36371  11.194  18.766  12.361
76935W        W36372  36.010  43.970   3.690
76936W        W36373  28.067  31.526  11.379
76937W        W36374  22.081  32.616   2.254
76938W        W36375  12.279   7.416  11.107
76939W        W36376   0.840  33.560   4.346
76940W        W36377  23.530  38.942   1.778
76941W        W36378   0.284  35.103  10.994
76942W        W36379  31.973   4.723  12.023
76943W        W36380   4.248  21.075   0.313
76944W        W36381  16.797  38.014  14.002
76945W        W36382  38.904  30.029   3.240
76946W        W36383  26.017  44.385  13.960
76947W        W36384  16.655  23.626   2.300
76948W        W36385  20.641  41.357  12.366
76949W        W36386   1.851  34.021   2.876
76950W        W36387   9.751   8.339  11.450
76951W        W36388   1.451  14.222  14.834
76952W        W36389  12.344  32.471  13.373
76953W        W36390  44.503  31.921  14.321
76954W        W36391  31.072  27.177   4.224
76955W        W36392  20.716   0.967  12.032
76956W        W36393  41.463   5.853  10.451
76957W        W36394  29.159  31.006  14.835
76958W        W36395  25.514  20.558  14.786
76959W        W36396  35.036  18.608   3.330
76960W        W36397  14.727   2.784  11.050
76961W        W36398  31.063  37.035  12.003
76962W        W36399   9.752  32.396  11.047
76963W        W36400  31.897  11.346   2.680
76964W        W36401  28.613   2.960  13.930
76965W        W36402  25.559   0.827   0.922
76966W        W36403  24.031   4.822   4.300
76967W        W36404  44.279  17.675  14.923
76968W        W36405  41.467  34.941  10.964
76969W        W36406  37.580  20.077  13.344
76970W        W36407  42.824  23.565   0.258
76971W        W36408   9.310  44.862  12.576
76972W        W36409  42.787  25.584  13.425
76973W        W36410  25.475   4.889  13.547
76974W        W36411   4.214  28.521  13.460
76975W        W36412  32.436  10.324   3.288
76976W        W36413  19.677  13.339   1.308
76977W        W36414  43.887  38.941  13.997
76978W        W36415  37.543  36.449   5.188
76979W        W36416  23.074  13.736   2.292
76980W        W36417  18.618  27.647   2.300
76981W        W36418  22.044  18.203  11.540
76982W        W36419  29.643   3.874   0.343
76983W        W36420   7.176  24.608  12.456
76984W        W36421  37.005   6.249  12.536
76985W        W36422  25.645  13.131  11.487
76986W        W36423  12.784  11.336  12.507
76987W        W36424   0.805   7.239  13.865
76988W        W36425   7.806  39.436  11.058
76989W        W36426  40.446  23.559  10.597
76990W        W36427   2.295  16.271  13.365
76991W        W36428  31.145   1.340  13.997
76992W        W36429  30.981  34.428  11.024
76993W        W36430  19.061   5.192  13.406
76994W        W36431  41.466  38.524  11.455
76995W        W36432  29.949  32.963   1.901
76996W        W36433   2.325  14.804   3.158
76997W        W36434  23.170  42.281  12.963
76998W        W36435   8.231  32.032  12.523
76999W        W36436  34.557   0.369   4.663
77000W        W36437  28.161   1.250   4.689
77001W        W36438  10.269  30.619   1.918
77002W        W36439  37.914  39.505   4.733
77003W        W36440  36.995   4.727   2.740
77004W        W36441   9.821  11.720   1.386
77005W        W36442   2.900  19.772  14.964
77006W        W36443  16.289  37.877  10.041
77007W        W36444  22.040  30.616   4.665
77008W        W36445  31.924  15.270   0.482
77009W        W36446  15.087   3.264   0.325
77010W        W36447   9.355  22.225   1.747
77011W        W36448  10.663  23.033   3.307
77012W        W36449   2.804  29.977  12.983
77013W        W36450  35.412  21.597   3.636
77014W        W36451  23.082   2.906   0.955
77015W        W36452   8.185   9.643   2.268
77016W        W36453  31.024   1.845   3.817
77017W        W36454  15.752   3.229  11.455
77018W        W36455  44.843  15.800   0.865
77019W        W36456  16.722   8.747  10.921
77020W        W36457  28.032  43.329  13.333
77021W        W36458  37.555  43.835   4.765
77022W        W36459  33.465   0.306   1.716
77023W        W36460   9.646  21.724   2.802
77024W        W36461  16.258  23.675  11.053
77025W        W36462   5.900  19.768   0.881
77026W        W36463  19.725  17.701  14.480
77027W        W36464   8.846  41.893  14.297
77028W        W36465  18.155  31.923   4.695
77029W        W36466  44.266  25.081  12.542
77030W        W36467   6.355  40.866   3.790
77031W        W36468  21.607  17.193   3.364
77032W        W36469  29.560  12.142  12.854
77033W        W36470  22.159  24.196   4.127
77034W        W36471  26.655   2.307  12.023
77035W        W36472  19.131   7.855  14.838
77036W        W36473   4.735  41.860   2.409
77037W        W36474  17.187   6.343   2.862
77038W        W36475  27.042  25.992   3.658
77039W        W36476  15.253  41.367  12.579
77040W        W36477   2.318  18.190   1.772
77041W        W36478  24.525  26.015  14.951
77042W        W36479  38.901  28.477  10.981
77043W        W36480  30.907  15.144   2.267
77044W        W36481  38.500  29.039  12.080
77045W        W36482   0.742  27.181   2.705
77046W        W36483  31.520   8.764   4.759
77047W        W36484  17.773  44.873  13.846
77048W        W36485  33.428  32.939  13.465
77049W        W36486  32.420  25.174  14.018
77050W        W36487   5.282  17.595   2.290
77051W        W36488  40.054   7.218   2.837
77052W        W36489  29.013  35.010   2.403
77053W        W36490  22.186  17.675   3.279
77054W        W36491   0.780  10.836   4.183
77055W        W36492  40.003  28.005   4.696
77056W        W36493  17.665  44.370  13.798
77057W        W36494  15.781  27.491  13.395
77058W        W36495  42.308   3.268  14.482
77059W        W36496  33.492   0.311   3.162
77060W        W36497  15.213  30.006  14.452
77061W        W36498  15.609  34.955  14.985
77062W        W36499  16.292   5.306  10.604
77063W        W36500  35.374  44.381  14.961
77064W        W36501   1.281  19.245  12.445
77065W        W36502  41.844   4.895   2.325
77066W        W36503  39.537  41.431  13.517
77067W        W36504  36.890  31.904  14.388
77068W        W36505  17.103  30.456  14.811
77069W        W36506  42.793  43.855  12.092
77070W        W36507   6.880  12.239   4.283
77071W        W36508  21.207  38.416  13.424
77072W        W36509  42.898  25.086  10.521
77073W        W36510  23.693  40.931  11.068
77074W        W36511   6.883  37.917   3.865
77075W        W36512  37.533  34.413  11.514
77076W        W36513  24.522  32.444  10.559
77077W        W36514  19.232  18.099  13.454
77078W        W36515  13.341  17.730   4.126
77079W        W36516   2.346  35.598   3.156
77080W        W36517  27.087  23.618   3.334
77081W        W36518  10.178   7.185   4.599
77082W        W36519  36.476  12.139  10.623
77083W        W36520  28.142  25.162  14.890
77084W        W36521  31.013  27.970   0.777
77085W        W36522  37.917   7.277   1.319
77086W        W36523   6.830   5.810   4.300
77087W        W36524  19.103  21.258   2.859
77088W        W36525  27.571  33.409  13.497
77089W        W36526  10.878  20.564   2.286
77090W        W36527  29.641  34.111   4.624
77091W        W36528  18.150   7.815  14.430
77092W        W36529  33.929  38.043  14.955
77093W        W36530  30.934  36.579  10.945
77094W        W36531   1.843  38.346  14.464
77095W        W36532  26.592  43.508   5.232
77096W        W36533   7.740  18.783   1.739
77097W        W36534   8.254  24.047  10.994
77098W        W36535  34.520  30.583   1.219
77099W        W36536   9.703  14.766  14.924
77100W        W36537  44.762  36.363   0.906
77101W        W36538  29.478  18.114   3.639
77102W        W36539  24.696  20.665   3.164
77103W        W36540   1.263  22.518  12.551
77104W        W36541  32.541  14.640   4.343
77105W        W36542   4.905   1.344  13.343
77106W        W36543  34.559  17.137  14.883
77107W        W36544   4.351  32.467   1.345
77108W        W36545  11.683  36.431   0.913
77109W        W36546   8.278  32.927   4.143
77110W        W36547  10.697  25.970   4.811
77111W        W36548  37.868   6.838  12.554
77112W        W36549  23.134   9.193   2.211
77113W        W36550  28.172  15.704  10.999
77114W        W36551  28.087  33.984   1.294
77115W        W36552   1.479  43.476   2.695
77116W        W36553  22.237  10.662   0.470
77117W        W36554   3.324   5.843  12.531
77118W        W36555   1.957  31.428   1.429
77119W        W36556  23.695  31.470   3.172
77120W        W36557  16.134  25.610   3.840
77121W        W36558  36.098  16.675   1.395
77122W        W36559  42.327  43.913  13.410
77123W        W36560  39.813   6.798  11.065
77124W        W36561  38.896  31.975   3.707
77125W        W36562   3.302  10.768  14.470
77126W        W36563  19.160  10.147  11.920
77127W        W36564  25.185  10.864   1.714
77128W        W36565  23.100  33.919   3.322
77129W        W36566   0.800   8.810  10.586
77130W        W36567  18.175   2.803   4.234
77131W        W36568  10.288  38.904  12.891
77132W        W36569  32.450   5.834  11.995
77133W        W36570  26.585  43.321  11.409
77134W        W36571  40.934   3.228   5.283
77135W        W36572  44.262  39.908   0.451
77136W        W36573  31.007  14.227   5.112
77137W        W36574  34.538  20.042   3.333
77138W        W36575  41.965  19.155   1.409
77139W        W36576  42.509  15.703   1.918
77140W        W36577   9.349  17.585  12.379
77141W        W36578  40.857   1.869   0.799
77142W        W36579  37.840  19.722  13.322
77143W        W36580  43.901  22.187   1.313
77144W        W36581   0.892  39.993  13.397
77145W        W36582  30.052  16.574   0.927
77146W        W36583  30.413  19.750   1.903
77147W        W36584  34.580  24.670  13.413
77148W        W36585  25.707  33.543  11.601
77149W        W36586  33.395  28.466  13.861
77150W        W36587  32.400   3.924  11.105
77151W        W36588   5.776  27.594  14.935
77152W        W36589   0.483  43.319  10.529
77153W        W36590  33.529  28.989  14.953
77154W        W36591  32.528  38.848   0.352
77155W        W36592  43.932  10.783  14.443
77156W        W36593  32.463  18.556  11.556
77157W        W36594  39.415  13.140  10.997
77158W        W36595  37.020  12.264   4.829
77159W        W36596  23.195  27.168   2.684
77160W        W36597  37.061  18.191  10.975
77161W        W36598   8.254  24.051  13.328
77162W        W36599   3.292  40.928   3.270
77163W        W36600  12.748   2.396  13.417
77164W        W36601  34.535  12.328  14.872
77165W        W36602  19.262  43.869   2.879
77166W        W36603   3.763  39.465   2.248
77167W        W36604   9.668  22.189  14.922
77168W        W36605  17.616  35.576   1.351
77169W        W36606   3.925  30.064   1.793
77170W        W36607   5.252  24.007  14.013
77171W        W36608  26.128  27.958  11.408
77172W        W36609   5.897  33.466   1.232
77173W        W36610   8.248  18.688   2.882
77174W        W36611  28.509  23.014  14.028
77175W        W36612  34.880  10.763   4.286
77176W        W36613  32.969  28.996  12.546
77177W        W36614  24.042   7.274   2.215
77178W        W36615  21.711  12.633  14.298
77179W        W36616  11.264  33.538   1.235
77180W        W36617   7.263   9.337  13.955
77181W        W36618  13.291   8.284  11.592
77182W        W36619   1.381  43.836   3.648
77183W        W36620  13.655  43.815  14.809
77184W        W36621   5.353   5.792   1.445
77185W        W36622   5.314   1.890  10.528
77186W        W36623  15.688  27.008  10.983
77187W        W36624  23.232  14.817   3.372
77188W        W36625  28.008  35.076  14.321
77189W        W36626  43.420   5.427  11.552
77190W        W36627  28.584   4.933  11.879
77191W        W36628   8.760  26.179   4.305
77192W        W36629  26.195  18.055  14.301
77193W        W36630   9.259  16.154   4.166
77194W        W36631  37.508  27.654  11.073
77195W        W36632  14.179  16.659   1.826
77196W        W36633  29.019  31.039   2.181
77197W        W36634  11.284   0.344   2.232
77198W        W36635   7.839  42.026  14.828
77199W        W36636  18.671  13.605   0.790
77200W        W36637   6.769  22.045   2.321
77201W        W36638  42.902  11.785   5.273
77202W        W36639  41.922  22.009   4.774
77203W        W36640  22.625  17.213   0.933
77204W        W36641  35.003  38.523   2.736
77205W        W36642  44.769  14.754  11.386
77206W        W36643  43.351  11.203   1.818
77207W        W36644   7.839  35.595   4.798
77208W        W36645  27.124  42.340   1.279
77209W        W36646  26.592  14.308  14.499
77210W        W36647  15.612  42.448   3.801
77211W        W36648  29.115   2.836   3.858
77212W        W36649   8.281  36.517  12.865
77213W        W36650  44.318  32.894   1.855
77214W        W36651   8.246   6.720   4.216
77215W        W36652  20.191  19.245   4.182
77216W        W36653  27.956  34.430   3.796
77217W        W36654  28.172  35.005  11.425
77218W        W36655   6.728  21.537  10.587
77219W        W36656  17.301  13.632   1.240
77220W        W36657  31.079  21.638  14.792
77221W        W36658  37.557  23.035   0.807
77222W        W36659  34.097  38.357  11.932
77223W        W36660  44.415  17.721   4.812
77224W        W36661  40.321  10.367  14.909
77225W        W36662   5.701  19.678   4.316
77226W        W36663   6.309  37.427  12.522
77227W        W36664  23.523  23.015   1.247
77228W        W36665  28.155  30.574   3.828
77229W        W36666  38.531  40.479  11.997
77230W        W36667  18.749  32.473  14.891
77231W        W36668  31.070  20.050   0.261
77232W        W36669  31.133  27.567  14.885
77233W        W36670  38.519  24.193   4.772
77234W        W36671  32.139  20.247   3.214
77235W        W36672  34.414  21.165   4.276
77236W        W36673  11.708   2.883  11.422
77237W        W36674  43.011   2.471   4.113
77238W        W36675  34.398  20.524   0.483
77239W        W36676  13.846  24.045  10.409
77240W        W36677   2.366  16.177   4.630
77241W        W36678  38.946  19.058   4.746
77242W        W36679  16.257  13.659  14.822
77243W        W36680  17.156  24.552  14.902
77244W        W36681   9.267  35.543  13.547
77245W        W36682  12.220   8.388   2.740
77246W        W36683   0.800  38.381  14.794
77247W        W36684  12.702  29.544  14.289
77248W        W36685  18.245  21.756  10.997
77249W        W36686  29.669  18.771  11.040
77250W        W36687  12.696  13.758   4.126
77251W        W36688  11.784  28.649  12.921
77252W        W36689  36.518  30.631   3.780
77253W        W36690  22.623  39.959   4.776
77254W        W36691  29.173  12.792  10.029
77255W        W36692  12.256   2.750   3.719
77256W        W36693  41.325  26.675  11.965
77257W        W36694  38.002  13.775   2.378
77258W        W36695   1.930  32.012  11.397
77259W        W36696  31.576  25.515   1.380
77260W        W36697   6.836  21.241  13.034
77261W        W36698  40.962   3.858   4.340
77262W        W36699   7.186  13.830   3.726
77263W        W36700  24.081  26.172   0.739
77264W        W36701  14.714   3.821  14.515
77265W        W36702   5.220   1.387   1.896
77266W        W36703  36.445   6.742  14.855
77267W        W36704  32.029  43.884   4.634
77268W        W36705  11.802  36.581   4.128
77269W        W36706   5.309  15.312  14.299
77270W        W36707   5.790  24.523  11.434
77271W        W36708  44.966   0.838  14.920
77272W        W36709  26.620  43.775  14.285
77273W        W36710   3.390  36.521   2.822
77274W        W36711  22.547   4.439   0.430
77275W        W36712  24.605   3.299  12.527
77276W        W36713   5.216  29.605  13.014
77277W        W36714  29.654  17.616   4.148
77278W        W36715  18.558   5.758  12.027
77279W        W36716  37.344  19.718  10.045
77280W        W36717  25.052  40.379   4.321
77281W        W36718  35.071  41.007  11.888
77282W        W36719  37.043  35.590   4.120
77283W        W36720   9.668   2.744   0.801
77284W        W36721   9.761  43.480  13.049
77285W        W36722  35.376  20.678  11.129
77286W        W36723  42.383  24.600  12.053
77287W        W36724  15.631  28.631  13.414
77288W        W36725  22.694   6.809  12.872
77289W        W36726   0.383  40.317  11.571
77290W        W36727  42.470  28.584  11.987
77291W        W36728  17.613  15.670  12.953
77292W        W36729  26.585   0.923   1.301
77293W        W36730  38.442  32.129   1.695
77294W        W36731  10.673  38.907  13.825
77295W        W36732  25.566  33.493   4.284
77296W        W36733   6.309  27.959   1.409
77297W        W36734  42.822   9.727  11.571
77298W        W36735   6.188  34.575   0.271
77299W        W36736  25.509  39.964  13.954
77300W        W36737   9.655  30.024   4.772
77301W        W36738   5.439  26.048   3.643
77302W        W36739   3.936  17.206  13.469
77303W        W36740  41.985  38.045   0.965
77304W        W36741  14.116   4.775   3.300
77305W        W36742  38.953  31.916  12.073
77306W        W36743  26.687   3.234   0.853
77307W        W36744  10.868  27.512   2.847
77308W        W36745  27.994   1.256   1.711
77309W        W36746   2.780  14.165   1.229
77310W        W36747  36.356   5.816  14.317
77311W        W36748   7.681  40.546  14.781
77312W        W36749  35.891  19.114  12.570
77313W        W36750  22.605  22.011  11.445
77314W        W36751  22.728  19.077  12.026
77315W        W36752   0.781  18.241   2.791
77316W        W36753  32.455   8.337   3.822
77317W        W36754  34.027  10.283   3.700
77318W        W36755  38.509   0.262   1.778
77319W        W36756  32.930  16.120   3.310
77320W        W36757   8.353  13.207   4.789
77321W        W36758  43.868  43.768   1.242
77322W        W36759   7.290  28.986   0.961
77323W        W36760  33.531  41.502  13.450
77324W        W36761  44.438   2.909  11.032
77325W        W36762  13.278  16.767   0.798
77326W        W36763   2.435  14.221  13.796
77327W        W36764  25.576   9.645   1.423
77328W        W36765   5.372  20.115  11.395
77329W        W36766  30.580  41.371  13.357
77330W        W36767  28.504   7.702   1.389
77331W        W36768  28.588  24.090   0.350
77332W        W36769  11.275  15.310  12.373
77333W        W36770  13.248  31.569   2.303
77334W        W36771  13.807  19.652   4.226
77335W        W36772  15.129  30.553  14.853
77336W        W36773  20.079  17.257  10.577
77337W        W36774  13.162  15.736   4.306
77338W        W36775  11.136   4.914  10.603
77339W        W36776  30.502  26.634   4.267
77340W        W36777   2.731  41.397  14.411
77341W        W36778  36.378  14.637  11.457
77342W        W36779  27.652  37.842   5.259
77343W        W36780   5.304  32.457  13.542
77344W        W36781  16.744   1.361  12.421
77345W        W36782  13.337  16.156   1.864
77346W        W36783  12.832   0.446   2.834
77347W        W36784  29.463  33.409   0.753
77348W        W36785  24.594  22.185   0.361
77349W        W36786  12.774  16.181   3.733
77350W        W36787  16.285   8.685  12.968
77351W        W36788  24.596  12.334   2.400
77352W        W36789  19.142  12.832   4.289
77353W        W36790  31.507  43.413   2.267
77354W        W36791  17.660   8.263  14.932
77355W        W36792  32.002  34.480   3.193
77356W        W36793  15.604   8.675  10.949
77357W        W36794  41.501  33.447   2.761
77358W        W36795  41.837  19.755  13.004
77359W        W36796  36.346   5.827  13.898
77360W        W36797  13.338   8.693  11.407
77361W        W36798  34.593   6.727   1.812
77362W        W36799   8.764   5.241  12.071
77363W        W36800   1.399  21.076  13.998
77364W        W36801  34.918  12.650   0.789
77365W        W36802  38.476  28.077  12.462
77366W        W36803   5.912  25.623  14.443
77367W        W36804  25.175  18.236  13.947
77368W        W36805  20.711  15.168  10.977
77369W        W36806  12.719  10.218   1.773
77370W        W36807   3.428   9.756   0.814
77371W        W36808  26.688  23.121  11.055
77372W        W36809   6.423  24.680  11.471
77373W        W36810  11.223  41.295   3.283
77374W        W36811   7.772  12.804  13.906
77375W        W36812  39.045  43.389  12.406
77376W        W36813   4.722  42.003  12.070
77377W        W36814  39.023   4.449   1.306
77378W        W36815   4.756  23.668  13.029
77379W        W36816  32.605  20.717   0.355
77380W        W36817  36.539  23.693   2.808
77381W        W36818   3.751  43.843  10.509
77382W        W36819  36.508   4.349  13.465
77383W        W36820  30.945  33.468  13.533
77384W        W36821  22.126  18.259  12.847
77385W        W36822   9.194  10.859  14.766
77386W        W36823  22.545  42.330   3.170
77387W        W36824  13.141  11.801   1.817
77388W        W36825  33.115  30.103  12.387
77389W        W36826  21.639  30.571   1.383
77390W        W36827  12.798  43.333   2.751
77391W        W36828  22.724  38.018   4.810
77392W        W36829  31.520  12.288  10.436
77393W        W36830  34.471  43.373   1.290
77394W        W36831   4.777  18.196  12.418
77395W        W36832  23.157   9.157   0.329
77396W        W36833  14.687  19.062  14.366
77397W        W36834  32.908  36.033   3.700
77398W        W36835  41.438  36.994  11.451
77399W        W36836  13.278   8.348   3.297
77400W        W36837  44.904   3.844   3.781
77401W        W36838  39.326  44.272   3.327
77402W        W36839  25.147  12.315   1.833
77403W        W36840  15.631  22.032   3.816
77404W        W36841   3.714   5.309   2.179
77405W        W36842  36.386  15.792  12.036
77406W        W36843  16.118  17.221  10.486
77407W        W36844  28.078  33.911  12.086
77408W        W36845   5.341  28.171  14.359
77409W        W36846   8.193  20.044   3.287
77410W        W36847  23.014  42.868   3.380
77411W        W36848  27.087  10.815   2.362
77412W        W36849  37.386  12.195   3.329
77413W        W36850  14.637  22.178  14.835
77414W        W36851  31.929   1.412  11.505
77415W        W36852  18.684  29.981  10.495
77416W        W36853  22.720  24.153  12.933
77417W        W36854  31.103  34.909  13.525
77418W        W36855  11.686  34.111   1.359
77419W        W36856  29.989  11.664  11.869
77420W        W36857  33.042  35.919  12.079
77421W        W36858   2.794  38.399  13.064
77422W        W36859   0.969  11.306  10.049
77423W        W36860  30.011  41.828   4.653
77424W        W36861  13.122  37.348  10.106
77425W        W36862  26.069  14.148  11.861
77426W        W36863   6.898  21.549   4.342
77427W        W36864   0.328  31.015   2.228
77428W        W36865  21.192   1.943  14.460
77429W        W36866   3.723   2.325   4.197
77430W        W36867  38.834  10.815  12.380
77431W        W36868  19.763   2.250   0.919
77432W        W36869  31.078  19.047   2.214
77433W        W36870  32.914   9.851  11.389
77434W        W36871  11.149  38.434  14.410
77435W        W36872  39.371   8.842   3.239
77436W        W36873  43.972   7.391  14.471
77437W        W36874  14.631  29.925  13.812
77438W        W36875   7.312  21.698   3.148
77439W        W36876   3.711   8.731  10.409
77440W        W36877  19.092  26.966  14.982
77441W        W36878  27.556   7.238  11.575
77442W        W36879   1.248   5.380   2.256
77443W        W36880   1.754  16.634  14.308
77444W        W36881  25.548  23.158  11.384
77445W        W36882  16.804  41.913  13.812
77446W        W36883   5.227   4.348  11.910
77447W        W36884  16.083  11.339   3.835
77448W        W36885  10.231  39.922  10.444
77449W        W36886  40.499  21.647   1.765
77450W        W36887   5.922  21.693  12.344
77451W        W36888  27.094  11.257  12.962
77452W        W36889   4.282  25.679   1.826
77453W        W36890   3.414  44.272  11.892
77454W        W36891  21.758  25.059   1.783
77455W        W36892  24.680  30.969   1.379
77456W        W36893  16.790  22.522  12.824
77457W        W36894  15.139  25.993  14.820
77458W        W36895  22.021  26.665  11.407
77459W        W36896  11.766  41.304   0.803
77460W        W36897  44.328  36.942   2.733
77461W        W36898  15.250  33.585  14.298
77462W        W36899  27.585  24.515   0.778
77463W        W36900  15.740   6.883  10.968
77464W        W36901   5.208  16.213   1.239
77465W        W36902  36.358  31.500   0.903
77466W        W36903  28.452  44.965  11.402
77467W        W36904  40.338  33.548  10.642
77468W        W36905   6.883  29.124  13.831
77469W        W36906  27.163  21.562   2.692
77470W        W36907   5.894   5.741  12.953
77471W        W36908  33.961  21.635  10.643
77472W        W36909  36.378  38.505  13.511
77473W        W36910  15.129  37.923   3.870
77474W        W36911  31.003  34.065   2.212
77475W        W36912  39.972  28.153   4.122
77476W        W36913  16.176  41.997   0.285
77477W        W36914  14.305   7.712  14.850
77478W        W36915  41.312  39.532  12.492
77479W        W36916  41.024  37.914   9.512
77480W        W36917  30.413   5.347  10.577
77481W        W36918  36.540  38.984  10.458
77482W        W36919  36.854  43.416   0.376
77483W        W36920  13.247  23.598   4.836
77484W        W36921   1.328  27.630  14.822
77485W        W36922   8.784   3.881   4.245
77486W        W36923   9.314  37.072   0.341
77487W        W36924   9.389  25.485   1.737
77488W        W36925  16.191   4.257  11.373
77489W        W36926  27.551  42.785   1.735
77490W        W36927  23.007  18.283  10.637
77491W        W36928  36.997   6.292   1.233
77492W        W36929  41.439   3.897  10.557
77493W        W36930   8.871  13.826   4.116
77494W        W36931  21.200  11.824   0.900
77495W        W36932   9.748  12.360   2.778
77496W        W36933  16.087   7.832  12.825
77497W        W36934  18.616  13.297  12.088
77498W        W36935  36.368  17.574  11.604
77499W        W36936  26.982  29.656  11.436
77500W        W36937  25.125  31.973  11.864
77501W        W36938  27.469  36.413   0.344
77502W        W36939  37.026  33.055  13.532
77503W        W36940  37.493  18.764   0.442
77504W        W36941  37.442  42.444  14.992
77505W        W36942   8.792  14.798  11.372
77506W        W36943  27.043  41.855  14.312
77507W        W36944  27.167   5.890   4.703
77508W        W36945  40.449   7.877  13.038
77509W        W36946   0.955  18.058  12.373
77510W        W36947  28.593   7.688   0.767
77511W        W36948  33.599  13.807   2.194
77512W        W36949  28.949   9.803   4.128
77513W        W36950  40.391   3.231   9.990
77514W        W36951  26.023  31.534   2.344
77515W        W36952   9.150  11.771  10.149
77516W        W36953   1.312  27.589   2.848
77517W        W36954   5.388  22.093  14.504
77518W        W36955  34.538   9.221   3.722
77519W        W36956   6.818  18.130   4.739
77520W        W36957  21.258  23.215  10.580
77521W        W36958  38.069  40.829   3.790
77522W        W36959  16.668  12.677  12.859
77523W        W36960  36.929  12.230  12.071
77524W        W36961   6.193   5.850  13.403
77525W        W36962   1.363  37.888   2.208
77526W        W36963  42.814   0.433   1.442
77527W        W36964   5.687  25.563   2.190
77528W        W36965  22.113  32.044  14.918
77529W        W36966  28.640  30.434  10.411
77530W        W36967  20.178  14.639  10.974
77531W        W36968  32.601  10.728  12.538
77532W        W36969  19.715  30.569   4.602
77533W        W36970   0.369  18.600   3.300
77534W        W36971   2.352  18.286   5.199
77535W        W36972   3.788  30.081   4.352
77536W        W36973  42.777  40.543   1.714
77537W        W36974   8.160  27.570  13.938
77538W        W36975  39.037  28.545   1.238
77539W        W36976  41.513  42.821   0.847
77540W        W36977  40.394  27.001  12.879
77541W        W36978  35.564  28.130  14.337
77542W        W36979  38.988  14.688   2.704
77543W        W36980  25.557  35.471  12.569
77544W        W36981  38.887  18.112  13.512
77545W        W36982  21.516  25.632  10.572
77546W        W36983   3.943  32.066   5.312
77547W        W36984  14.287   8.865  11.930
77548W        W36985  26.625  30.560  12.848
77549W        W36986  31.571  24.617   0.406
77550W        W36987  21.135  44.271   1.785
77551W        W36988   8.737  34.874   0.383
77552W        W36989   7.883  29.109   0.900
77553W        W36990  17.630   7.698   0.346
77554W        W36991  23.565  40.823   3.339
77555W        W36992   3.409  14.202   2.857
77556W        W36993   3.403  27.097   4.638
77557W        W36994  13.197  33.924  12.083
77558W        W36995  30.552  19.262  12.487
77559W        W36996  10.153  12.315  10.449
77560W        W36997  32.502   2.864  13.879
77561W        W36998  20.526  12.329  14.345
77562W        W36999  23.672  14.723   2.361
77563W        W37000   8.394  23.710   4.747
77564W        W37001  17.262  44.964   1.215
77565W        W37002  28.099   0.441  13.327
77566W        W37003   8.859  42.899   3.339
77567W        W37004  25.518  23.170   3.219
77568W        W37005  32.965  33.535   4.172
77569W        W37006  11.665   0.926  14.839
77570W        W37007  35.945  31.437  13.898
77571W        W37008   0.378  33.127  12.448
77572W        W37009  30.590  30.093  10.934
77573W        W37010  35.864  27.025  13.429
77574W        W37011   0.835  10.168  14.285
77575W        W37012  29.465  30.575   0.455
77576W        W37013  16.207  28.598  13.439
77577W        W37014  28.960  23.210   1.823
77578W        W37015  37.854   1.823   0.955
77579W        W37016  33.013  17.569   4.287
77580W        W37017  34.092   9.705  13.385
77581W        W37018  32.960  22.671  11.113
77582W        W37019  33.578   9.875   1.914
77583W        W37020   3.451  24.139   1.861
77584W        W37021  34.961  33.041   3.667
77585W        W37022  16.800  40.032   5.148
77586W        W37023  24.104  42.497   1.429
77587W        W37024  21.263  13.120   2.729
77588W        W37025  17.749   4.241  11.496
77589W        W37026  31.974  42.000   1.781
77590W        W37027   3.893  29.566  13.009
77591W        W37028   8.864   1.944   2.779
77592W        W37029  44.390  41.888   1.845
77593W        W37030  33.604   7.348   3.786
77594W        W37031  19.555  24.572   1.395
77595W        W37032  36.969  14.161   1.417
77596W        W37033  14.156  40.377   2.687
77597W        W37034  17.601  24.152   3.717
77598W        W37035  21.131   0.806   1.882
77599W        W37036   8.236  15.746  12.402
77600W        W37037  13.151  25.132  11.033
77601W        W37038  22.523  26.662   0.255
77602W        W37039  11.241  33.914   0.317
77603W        W37040  14.696  43.948   4.241
77604W        W37041  32.990  41.961  12.407
77605W        W37042  13.608  18.757  14.375
77606W        W37043  27.568   5.232  11.497
77607W        W37044  35.921  38.906  13.991
77608W        W37045  40.483  39.889   2.303
77609W        W37046  14.615   7.359   0.878
77610W        W37047   4.275  43.295  14.279
77611W        W37048  23.988   6.784  11.037
77612W        W37049   7.267  42.489   3.258
77613W        W37050  10.273   8.348   4.166
77614W        W37051  23.511  26.522  14.290
77615W        W37052  40.446  26.699   4.736
77616W        W37053   6.916  29.993  12.459
77617W        W37054  34.494  10.332  14.449
77618W        W37055  36.906  13.779   1.845
77619W        W37056   1.838  10.237   1.233
77620W        W37057   6.681  13.205   2.416
77621W        W37058  19.188  26.687  10.898
77622W        W37059  36.469  39.430  14.926
77623W        W37060   0.482  35.022  13.921
77624W        W37061  36.494  26.186  14.314
77625W        W37062  39.817  11.762  12.403
77626W        W37063  29.532  11.794   0.949
77627W        W37064  26.994  28.976  11.386
77628W        W37065  11.213  25.997  13.502
77629W        W37066  22.127   5.874   2.404
77630W        W37067  30.515  42.008   4.743
77631W        W37068   0.288  43.482  13.939
77632W        W37069   5.304  35.433   4.666
77633W        W37070  25.686  10.667   4.829
77634W        W37071  26.691  19.628   4.783
77635W        W37072  29.032  35.531  12.007
77636W        W37073  29.536  20.685  12.533
77637W        W37074   0.386  23.987   0.429
77638W        W37075  18.294  44.922  10.978
77639W        W37076  30.565  33.879  12.456
77640W        W37077  38.535  35.454  10.934
77641W        W37078  13.753  40.360  12.550
77642W        W37079  34.412  17.654  10.521
77643W        W37080   9.284  43.311  14.770
77644W        W37081  12.249   6.688  13.864
77645W        W37082  33.449  22.076  12.355
77646W        W37083  39.979  37.501  13.433
77647W        W37084  11.132   3.334  12.489
77648W        W37085  15.680   3.263   1.830
77649W        W37086  20.581  10.747   1.248
77650W        W37087  19.739  10.736  10.428
77651W        W37088  31.612  28.564   1.271
77652W        W37089  19.594  13.635   4.752
77653W        W37090  30.160  35.507  11.021
77654W        W37091  30.586   0.837   0.279
77655W        W37092   5.824  43.946  11.039
77656W        W37093  37.567  28.115  13.406
77657W        W37094  21.111  32.896   2.209
77658W        W37095  35.101  14.698  11.911
77659W        W37096  35.025   7.696   0.303
77660W        W37097  36.072   0.348  12.951
77661W        W37098   5.821  41.354   4.641
77662W        W37099  15.810  36.494  12.915
77663W        W37100   9.702  38.385  12.560
77664W        W37101  27.551  35.414   1.697
77665W        W37102  15.628  14.233  12.921
77666W        W37103  41.827  11.151   4.749
77667W        W37104  31.573  13.119   4.342
77668W        W37105  39.820  20.269  12.407
77669W        W37106   9.882  22.129  12.042
77670W        W37107   2.793  19.154   0.851
77671W        W37108  28.052  18.070   2.753
77672W        W37109  14.100   3.301  12.903
77673W        W37110  43.316   6.725  11.081
77674W        W37111  25.545  11.635  12.357
77675W        W37112  44.933  33.477   3.724
77676W        W37113  42.359   3.365  12.566
77677W        W37114   3.926  35.972  12.931
77678W        W37115  42.013   3.936  12.474
77679W        W37116  11.642  13.292   1.809
77680W        W37117  34.080  38.899   2.863
77681W        W37118  25.097  15.599  11.049
77682W        W37119  20.753   0.443  13.368
77683W        W37120  13.615  35.602  14.937
77684W        W37121  44.360   0.816   1.813
77685W        W37122  39.436  19.567  10.427
77686W        W37123  40.016  26.156   4.723
77687W        W37124  12.670  37.473  12.096
77688W        W37125  44.765  38.349   5.292
77689W        W37126  27.692  30.137  13.938
77690W        W37127  17.587  23.693  14.502
77691W        W37128  36.554   1.263  11.881
77692W        W37129  39.407   7.334  12.438
77693W        W37130  40.330   5.755   2.852
77694W        W37131   0.775   1.836  14.328
77695W        W37132  42.340  34.428  13.531
77696W        W37133   6.357  33.532   1.717
77697W        W37134   0.269  19.088   3.381
77698W        W37135  43.020  22.997  13.824
77699W        W37136   4.422  23.699   3.367
77700W        W37137  19.678   3.804   4.726
77701W        W37138  37.505  13.727   3.289
77702W        W37139   8.191   3.287  14.804
77703W        W37140   2.897  21.511   2.338
77704W        W37141  18.773  24.520   2.341
77705W        W37142  30.615   3.410   3.752
77706W        W37143   1.785  10.738   1.371
77707W        W37144  24.655  43.928  11.066
77708W        W37145  34.112   7.266  13.533
77709W        W37146  26.470  28.587  13.538
77710W        W37147  39.923   5.872  11.019
77711W        W37148   6.307   3.796  13.972
77712W        W37149  42.805  19.271  11.585
77713W        W37150  32.020  15.099   0.733
77714W        W37151   9.266   7.842  10.628
77715W        W37152  25.607  38.829  13.921
77716W        W37153  44.883   4.279   1.878
77717W        W37154  13.717  43.020  12.009
77718W        W37155  37.877  18.087   2.233
77719W        W37156   1.928  11.346   4.182
77720W        W37157  12.203  25.052  12.977
77721W        W37158  34.114  21.619   4.653
77722W        W37159  37.061   1.915  14.375
77723W        W37160  28.062   3.216  12.036
77724W        W37161   2.286  36.073  14.410
77725W        W37162   9.187  23.158  11.472
77726W        W37163  22.581  40.931   2.215
77727W        W37164  13.655  22.007   1.784
77728W        W37165  17.787  31.054   3.233
77729W        W37166  40.874  14.660  14.882
77730W        W37167  17.074  39.970  14.968
77731W        W37168   7.391  14.183   0.826
77732W        W37169  18.288  31.589   1.890
77733W        W37170  37.912  39.451  12.053
77734W        W37171  40.486   9.769   3.248
77735W        W37172   8.675  31.907  14.819
77736W        W37173  13.768  24.100  11.475
77737W        W37174   4.422  11.347   1.763
77738W        W37175  26.662  33.570   2.759
77739W        W37176  33.565  36.064   4.743
77740W        W37177  37.030   6.837   0.935
77741W        W37178  28.469  14.718   4.303
77742W        W37179  40.898  30.602  13.000
77743W        W37180  22.523  38.007   1.697
77744W        W37181  34.965  19.055  12.556
77745W        W37182  15.617  32.937   3.165
77746W        W37183   1.822  43.947   2.692
77747W        W37184  32.429  32.911  13.339
77748W        W37185  33.460   0.877  11.456
77749W        W37186  34.424   0.470  13.417
77750W        W37187  21.142  12.678   3.857
77751W        W37188  34.505  28.045  12.044
77752W        W37189  10.366  17.073  10.154
77753W        W37190  40.999  28.024  12.042
77754W        W37191  29.157  10.640   3.194
77755W        W37192  22.619   4.745   4.660
77756W        W37193  44.890  29.659   4.757
77757W        W37194  21.029   6.753   0.337
77758W        W37195  10.219  21.237   0.831
77759W        W37196   7.262  43.814   4.713
77760W        W37197  18.716  19.208   1.343
77761W        W37198  38.981  16.280  10.617
77762W        W37199   8.286  24.104   2.266
77763W        W37200   0.747  31.065   3.209
77764W        W37201  24.173  14.655   3.227
77765W        W37202   9.728  14.621   1.352
77766W        W37203  21.130  43.369  13.374
77767W        W37204  12.300  41.803  12.096
77768W        W37205  37.342  31.564  11.494
77769W        W37206  41.919   2.297  13.321
77770W        W37207   2.917  42.940  13.528
77771W        W37208   8.661  40.817  12.060
77772W        W37209  23.026  29.654  14.292
77773W        W37210  21.559  18.745  13.845
77774W        W37211  42.403  21.526   4.171
77775W        W37212  18.251  42.416   2.317
77776W        W37213  41.934  14.829   1.752
77777W        W37214  28.531  32.025   1.303
77778W        W37215  25.048  44.271  11.571
77779W        W37216  38.004   6.813  13.877
77780W        W37217  33.886   5.738   1.353
77781W        W37218  37.859  38.826   2.815
77782W        W37219  40.505  42.394   1.261
77783W        W37220  25.571  42.435  13.971
77784W        W37221  43.799  26.537  13.449
77785W        W37222  31.481   3.399   2.844
77786W        W37223  23.020  21.205   5.086
77787W        W37224  32.502  12.692   3.651
77788W        W37225  35.906  29.638   0.814
77789W        W37226  28.563  39.924  12.378
77790W        W37227  31.129  39.052   2.668
77791W        W37228   2.274  21.669  11.034
77792W        W37229  39.527  12.186  12.516
77793W        W37230  36.391  16.760  13.526
77794W        W37231  19.285  16.209  13.421
77795W        W37232   4.750   5.406  14.864
77796W        W37233   6.382  39.314  10.929
77797W        W37234  14.720  17.092  12.518
77798W        W37235  20.270  11.153  13.415
77799W        W37236   8.270  36.545   0.414
77800W        W37237  13.745  24.129  11.863
77801W        W37238   9.247   5.877   3.275
77802W        W37239  41.404  37.063  10.434
77803W        W37240  35.097  13.618  10.999
77804W        W37241  23.637  40.534  11.459
77805W        W37242  38.513  11.369   3.194
77806W        W37243   8.778   3.458  14.354
77807W        W37244  14.141  35.456  11.554
77808W        W37245  25.708  18.699  14.285
77809W        W37246  19.250   2.406  11.556
77810W        W37247   7.406  19.259   0.428
77811W        W37248  38.980   0.295  14.760
77812W        W37249  30.004  44.324   0.341
77813W        W37250  41.013  29.122  12.898
77814W        W37251  34.076  21.208  12.551
77815W        W37252  22.511  24.052   2.246
77816W        W37253  33.992  29.035   0.829
77817W        W37254  16.758   0.941   4.738
77818W        W37255  19.133  11.790  10.487
77819W        W37256  21.040  29.054   0.332
77820W        W37257  16.581   7.784   2.732
77821W        W37258   1.321  41.433   4.712
77822W        W37259  15.194  25.999  10.504
77823W        W37260  22.725  33.419  12.965
77824W        W37261  12.730   2.766  13.463
77825W        W37262  42.785  17.206   2.764
77826W        W37263  28.549   9.228  11.884
77827W        W37264   5.234  33.125  14.919
77828W        W37265  11.207  20.528   2.793
77829W        W37266  28.999  30.427   2.315
77830W        W37267  27.488   9.381  10.985
77831W        W37268   8.741  29.528  10.403
77832W        W37269  43.321   8.287   3.308
77833W        W37270  28.572  11.331  13.878
77834W        W37271  29.020   6.817  13.503
77835W        W37272  16.195  24.184   0.874
77836W        W37273  28.475  18.277   2.365
77837W        W37274   9.857  11.268  11.385
77838W        W37275   3.441  24.210  13.008
77839W        W37276  10.175   1.452   3.861
77840W        W37277  32.609  11.210   2.347
77841W        W37278  33.060  25.535  14.760
77842W        W37279   6.240  31.933   0.390
77843W        W37280  12.853  12.210   1.290
77844W        W37281   9.777   1.880   3.711
77845W        W37282  23.235  29.471   3.767
77846W        W37283  17.632  27.999  12.429
77847W        W37284  15.713  21.680  10.426
77848W        W37285   7.307  11.832   2.796
77849W        W37286  34.416  36.059   0.783
77850W        W37287   6.420  10.139   5.135
77851W        W37288  24.119  32.440   0.315
77852W        W37289  30.027  28.497   1.399
77853W        W37290   6.911  31.621   2.895
77854W        W37291  32.544  15.297  14.026
77855W        W37292  36.516   6.849   2.290
77856W        W37293  14.672  17.734   1.297
77857W        W37294  13.628  16.146  12.579
77858W        W37295  36.583  25.498  11.464
77859W        W37296  13.322  28.663   4.632
77860W        W37297  22.661  39.860   2.681
77861W        W37298  36.482  19.759  12.376
77862W        W37299   8.236  24.019  14.364
77863W        W37300  37.540  19.205   0.394
77864W        W37301   8.270  33.583  13.850
77865W        W37302  28.048   3.327  11.572
77866W        W37303   4.944  29.623  12.350
77867W        W37304   7.854   3.941   2.179
77868W        W37305  19.112  21.202  13.975
77869W        W37306   6.316  42.947  13.844
77870W        W37307  11.206  25.656  13.054
77871W        W37308  29.982  43.352   2.714
77872W        W37309  37.843  18.265   2.700
77873W        W37310  29.014  44.443   1.919
77874W        W37311  34.864  23.157   1.776
77875W        W37312  11.272  21.546   1.748
77876W        W37313  37.948  23.146   0.316
77877W        W37314  21.056  36.077  13.904
77878W        W37315  26.051  35.415   2.315
77879W        W37316  34.924  41.299   1.929
77880W        W37317   5.340  12.821  14.769
77881W        W37318  29.504   1.471   3.837
77882W        W37319  15.765  22.514  10.896
77883W        W37320  39.064  14.284  14.373
77884W        W37321  32.408  24.119  13.467
77885W        W37322  13.225  32.611   1.382
77886W        W37323  43.369  38.525  15.000
77887W        W37324  22.599  26.591   0.873
77888W        W37325  33.450  12.666  12.881
77889W        W37326   1.434  17.148  14.416
77890W        W37327  25.513   6.785   3.217
77891W        W37328  44.890  30.115   3.663
77892W        W37329  24.128  11.335   1.932
77893W        W37330  11.674   8.684   9.972
77894W        W37331  12.803   3.453   3.278
77895W        W37332   7.272  41.383  11.067
77896W        W37333   7.275  31.498   0.770
77897W        W37334  16.699  29.043   4.113
77898W        W37335  28.169  39.397   1.744
77899W        W37336  12.225  42.813   0.727
77900W        W37337   7.912  43.352   4.207
77901W        W37338  37.512   7.736   2.895
77902W        W37339  40.024   3.933   3.198
77903W        W37340  35.546   3.922   0.365
77904W        W37341  40.464  34.598   2.670
77905W        W37342  13.331  34.976  11.445
77906W        W37343  24.057   4.929   1.294
77907W        W37344  10.641   4.776   1.392
77908W        W37345  22.106   4.737   2.692
77909W        W37346  13.335  12.327   2.892
77910W        W37347  32.908  41.815   3.195
77911W        W37348  24.068  43.385  12.412
77912W        W37349  27.474  21.119  11.604
77913W        W37350  16.202  15.180   4.304
77914W        W37351  17.102  43.789   1.869
77915W        W37352  36.986  39.843  12.341
77916W        W37353  16.090  23.550  14.469
77917W        W37354  41.899   4.916   2.670
77918W        W37355  29.605  32.457   4.785
77919W        W37356   1.406  39.832  13.904
77920W        W37357  37.953  22.076   2.865
77921W        W37358   3.340  24.699   1.311
77922W        W37359  38.444  39.824   4.217
77923W        W37360  30.473   0.479  10.605
77924W        W37361   8.885  35.442   4.256
77925W        W37362  10.236  17.079   0.349
77926W        W37363  32.049  34.051   0.932
77927W        W37364  28.053  32.433   4.223
77928W        W37365  37.878  25.480  13.025
77929W        W37366  32.557  17.222   3.214
77930W        W37367  31.514   1.397   2.204
77931W        W37368  22.218  23.685   3.198
77932W        W37369   9.756  31.933   0.311
77933W        W37370  35.062  16.274   4.673
77934W        W37371  19.083  20.122   3.702
77935W        W37372  40.988   4.773  12.516
77936W        W37373  32.410  17.651  10.597
77937W        W37374  31.527  21.642  12.999
77938W        W37375  38.030  35.470  13.908
77939W        W37376  28.613  36.446  12.042
77940W        W37377   7.283  28.126  13.829
77941W        W37378  12.680   1.891  11.472
77942W        W37379  23.555  25.033  10.523
77943W        W37380  32.416  39.435   0.306
77944W        W37381  16.713  11.692   3.170
77945W        W37382  37.385  23.130  11.942
77946W        W37383  23.693  42.459   2.345
77947W        W37384  32.001   0.839   5.138
77948W        W37385  43.824   6.710   4.760
77949W        W37386  32.419  23.711  14.438
77950W        W37387  42.462  16.643   1.372
77951W        W37388  29.959  39.373   0.777
77952W        W37389   0.787  27.146  11.062
77953W        W37390  13.122  11.824   4.220
77954W        W37391  36.050  37.340  13.957
77955W        W37392  26.663   9.154   1.897
77956W        W37393  26.116  33.488  12.357
77957W        W37394  40.432  12.137   1.772
77958W        W37395  33.981  25.662  14.391
77959W        W37396  24.685  13.262  13.436
77960W        W37397  17.200  13.752  12.082
77961W        W37398  24.643  32.548   2.897
77962W        W37399   4.381  28.068   3.362
77963W        W37400  27.529  32.060   0.442
77964W        W37401  36.027  37.058  10.491
77965W        W37402   3.881  27.492   1.311
77966W        W37403  21.250  30.041  13.437
77967W        W37404   4.834  22.560  12.007
77968W        W37405  10.821   1.404  10.422
77969W        W37406   8.759  27.625   1.875
77970W        W37407  25.091   2.400   2.196
77971W        W37408  30.613  27.615  13.942
77972W        W37409  35.568   5.743   1.410
77973W        W37410  30.946  42.378  13.952
77974W        W37411  12.725  36.053  13.372
77975W        W37412  29.161   4.823   0.397
77976W        W37413  18.091  15.285  12.546
77977W        W37414   4.873  31.954   3.360
77978W        W37415  17.633   7.842   3.787
77979W        W37416  21.170  37.354   3.300
77980W        W37417   3.944  31.414   1.808
77981W        W37418  21.623   9.727   3.849
77982W        W37419  20.658   5.202   2.702
77983W        W37420   8.368   6.312   2.662
77984W        W37421  22.019  19.075   2.198
77985W        W37422  30.441  40.831  10.897
77986W        W37423   6.266  26.107  14.933
77987W        W37424  27.050  35.374   1.786
77988W        W37425  11.174  11.229  13.820
77989W        W37426  34.570  11.135  12.058
77990W        W37427   1.945  43.918   3.677
77991W        W37428   4.773   9.386   4.242
77992W        W37429  37.467   6.369   3.251
77993W        W37430  37.962  28.548  14.788
77994W        W37431   1.929   9.719   2.403
77995W        W37432  28.070  26.180  14.461
77996W        W37433  13.665  17.236  10.629
77997W        W37434  42.499  37.027   9.649
77998W        W37435  35.422  43.310   2.817
77999W        W37436   6.378  39.508   4.806
78000W        W37437  28.185  31.468   0.313
78001W        W37438   0.950   3.914   3.176
78002W        W37439  33.423  33.608   2.699
78003W        W37440  14.276   5.835   1.896
78004W        W37441  40.805  22.736  11.891
78005W        W37442  39.046  18.694  14.790
78006W        W37443  16.603  28.974  14.766
78007W        W37444  40.922  42.823  10.939
78008W        W37445  43.967  17.100  10.481
78009W        W37446  36.487   2.404  11.871
78010W        W37447  26.693   3.436  11.546
78011W        W37448  23.225  42.983   2.412
78012W        W37449  16.722  41.371  10.045
78013W        W37450   1.431  26.099  13.015
78014W        W37451  22.529  31.584   4.221
78015W        W37452   3.454  34.942  14.378
78016W        W37453  28.469  44.900   1.771
78017W        W37454  41.343  44.849  11.497
78018W        W37455  43.948  28.158  12.051
78019W        W37456   5.688  26.602   2.815
78020W        W37457  17.740  40.395   1.893
78021W        W37458  29.527   7.871   5.156
78022W        W37459  40.976  25.592  13.395
78023W        W37460   0.426  21.160   0.448
78024W        W37461  35.889  15.288   4.247
78025W        W37462  31.059   6.395  11.384
78026W        W37463  22.594   6.914  13.993
78027W        W37464  42.992  27.963  14.842
78028W        W37465  36.981  42.358  11.546
78029W        W37466  15.805  40.965   1.823
78030W        W37467  38.566  21.054  11.003
78031W        W37468  42.013   4.445   1.287
78032W        W37469  15.175  29.493  12.979
78033W        W37470  38.454  27.523  13.501
78034W        W37471  43.907  19.589  13.899
78035W        W37472  33.626  29.616   2.354
78036W        W37473  23.572  37.837  10.114
78037W        W37474  42.513  43.883   3.703
78038W        W37475  22.584  28.170  10.515
78039W        W37476  11.311  25.096   0.890
78040W        W37477  27.463  25.016   1.761
78041W        W37478  29.937  29.555  12.938
78042W        W37479   9.355  28.486  14.773
78043W        W37480  11.696  33.027  12.905
78044W        W37481  29.436  20.143   0.362
78045W        W37482  23.010  16.700   3.201
78046W        W37483  16.145   8.806   0.417
78047W        W37484  27.556  11.329  12.972
78048W        W37485  11.694  10.706   2.289
78049W        W37486  42.421  28.619   4.240
78050W        W37487  44.355  29.427  10.121
78051W        W37488  31.992  30.104   2.723
78052W        W37489  42.895  19.103  14.989
78053W        W37490  25.204   6.423   3.705
78054W        W37491  19.536  42.411   4.267
78055W        W37492  29.099  28.981   3.807
78056W        W37493  22.080   5.821   4.774
78057W        W37494   6.772   8.305  14.453
78058W        W37495  42.880   6.327  14.004
78059W        W37496  25.101  18.699   2.404
78060W        W37497   4.708  38.407  11.121
78061W        W37498  18.705  28.595   4.649
78062W        W37499  18.787  22.740  10.632
78063W        W37500   3.304  35.435  10.618
78064W        W37501  30.918  35.460  13.494
78065W        W37502  17.119  37.357  14.283
78066W        W37503  31.917  30.089   2.282
78067W        W37504   7.758  27.497   0.938
78068W        W37505  34.425  17.119   1.852
78069W        W37506  39.510  12.721  14.832
78070W        W37507  35.997  13.319   2.821
78071W        W37508  26.518   1.807  10.076
78072W        W37509  17.709  16.111  13.335
78073W        W37510  16.302  35.047   3.230
78074W        W37511  15.695  16.780   0.423
78075W        W37512  13.728  40.495   1.396
78076W        W37513  27.629   8.405   3.701
78077W        W37514  20.084  44.413   0.295
78078W        W37515  23.186   3.930  11.500
78079W        W37516   5.933   9.385  13.457
78080W        W37517  26.086  11.747   9.934
78081W        W37518  26.066  14.184   0.408
78082W        W37519  22.239  41.852   0.876
78083W        W37520  38.048  32.431   0.812
78084W        W37521  12.289   0.892  13.983
78085W        W37522  13.217  38.507  14.860
78086W        W37523   8.232  32.554  10.428
78087W        W37524  42.780  39.522  14.967
78088W        W37525  33.963  35.557   1.250
78089W        W37526  20.658  38.005  14.472
78090W        W37527  35.507   9.837   3.349
78091W        W37528  24.053  28.026  13.347
78092W        W37529  12.332  17.672   3.743
78093W        W37530  12.159   9.756   1.265
78094W        W37531  11.251  27.571  13.949
78095W        W37532  25.041  31.056   2.388
78096W        W37533  38.025  42.430  13.324
78097W        W37534  13.285  22.710  11.956
78098W        W37535  29.530  37.992   9.988
78099W        W37536  24.661  12.678   0.872
78100W        W37537  29.461   8.198  12.088
78101W        W37538  22.145  30.008  12.021
78102W        W37539  38.068  11.665   3.383
78103W        W37540  22.069  36.593  10.487
78104W        W37541  16.585  17.669  14.396
78105W        W37542  25.707  14.761  14.331
78106W        W37543  14.192  30.612   2.403
78107W        W37544   4.220  20.136  11.601
78108W        W37545  39.355  10.331  12.096
78109W        W37546  29.486   2.772   4.685
78110W        W37547  26.973  31.629  12.925
78111W        W37548  24.686   2.237   2.873
78112W        W37549  32.409  16.652  14.988
78113W        W37550  21.253  17.214   0.733
78114W        W37551  38.983  34.904  12.448
78115W        W37552  10.229  31.642   4.676
78116W        W37553  22.725   6.267   4.624
78117W        W37554  43.361  23.605  11.577
78118W        W37555  26.207  39.450   1.422
78119W        W37556  29.064  26.510  11.965
78120W        W37557  23.158  39.014   3.667
78121W        W37558  19.754  32.023  11.065
78122W        W37559  37.888   5.413  10.569
78123W        W37560  10.272  26.143  14.385
78124W        W37561   6.899  35.507  12.353
78125W        W37562   0.255   9.857   0.276
78126W        W37563  41.987   6.917   3.642
78127W        W37564   3.276  36.928   0.414
78128W        W37565   9.170  29.078  14.017
78129W        W37566  31.070  32.138  11.928
78130W        W37567  20.192  43.911  12.520
78131W        W37568  11.844  11.228   0.778
78132W        W37569   8.709  12.789  13.314
78133W        W37570  19.674  34.960  12.933
78134W        W37571  11.767  39.376  13.387
78135W        W37572  22.232   4.937   0.928
78136W        W37573  27.056   2.957   3.843
78137W        W37574  40.878  32.890  14.456
78138W        W37575  43.966  36.527  12.086
78139W        W37576  34.976  24.085  12.019
78140W        W37577  25.074  29.662   4.746
78141W        W37578  14.797  26.081  12.837
78142W        W37579  11.851   8.252  13.373
78143W        W37580   1.912  44.339   1.321
78144W        W37581  13.674  37.052  11.555
78145W        W37582  33.949  44.860  11.005
78146W        W37583  31.547   6.272   4.796
78147W        W37584  35.992  24.195   4.794
78148W        W37585  38.472  34.999  13.881
78149W        W37586  40.507  40.352  14.937
78150W        W37587  39.505  33.946  14.471
78151W        W37588   0.249   8.398   0.401
78152W        W37589  40.489  14.289  12.471
78153W        W37590  25.684  24.644  12.475
78154W        W37591  24.554  27.046  13.989
78155W        W37592  31.484   0.320  14.466
78156W        W37593  22.675   1.961  12.545
78157W        W37594  24.710  22.137  11.584
78158W        W37595  21.068  28.962  10.893
78159W        W37596   9.390   3.897  12.530
78160W        W37597  14.657  32.513  12.062
78161W        W37598  25.688  40.511   5.211
78162W        W37599   1.939  33.415  14.487
78163W        W37600  29.503  38.397   0.741
78164W        W37601   9.852  17.638   0.452
78165W        W37602  16.195  33.046   0.844
78166W        W37603  14.118  30.519   3.644
78167W        W37604  37.401   1.341   0.381
78168W        W37605   0.908  34.592  11.066
78169W        W37606  17.664   6.906   0.363
78170W        W37607   6.331  31.560   1.332
78171W        W37608  30.646  29.456  14.298
78172W        W37609  10.140  13.352  11.499
78173W        W37610   1.303  15.663   4.702
78174W        W37611  25.191  30.622  13.375
78175W        W37612  40.818   0.380  10.534
78176W        W37613  17.111  31.985   0.333
78177W        W37614  39.024  20.538   3.705
78178W        W37615   0.469  36.954  13.394
78179W        W37616   4.919  23.227  12.855
78180W        W37617  22.645   3.270   0.347
78181W        W37618   0.280  34.565   1.747
78182W        W37619  12.716  21.726  11.118
78183W        W37620  39.336  34.548  13.906
78184W        W37621  19.142  19.168   2.339
78185W        W37622   9.273  12.285  14.850
78186W        W37623  26.024   1.856  13.004
78187W        W37624  43.479  13.609   3.305
78188W        W37625  36.375   2.249  13.350
78189W        W37626  15.795  41.895  12.877
78190W        W37627  27.188  24.702  11.996
78191W        W37628  24.638   4.742   9.937
78192W        W37629  35.530  30.125  12.552
78193W        W37630  27.119   5.868  14.783
78194W        W37631  42.423  11.351   2.892
78195W        W37632  16.225   6.414  12.942
78196W        W37633  41.345  25.139   3.191
78197W        W37634  18.650  25.687   1.368
78198W        W37635  29.991  44.823  13.390
78199W        W37636  42.865  12.782   1.415
78200W        W37637   8.823  30.458   4.687
78201W        W37638  20.711  11.847   0.760
78202W        W37639   8.185  25.546  12.358
78203W        W37640   9.712  39.524  12.993
78204W        W37641  28.940  34.399  13.838
78205W        W37642  28.137  22.576  14.901
78206W        W37643  15.296  16.590  11.424
78207W        W37644   8.742  11.766  11.060
78208W        W37645  44.924  21.741   0.463
78209W        W37646  22.695  25.171   0.389
78210W        W37647  18.569  37.935  10.975
78211W        W37648  28.162  19.542  11.566
78212W        W37649  17.094  24.578  10.015
78213W        W37650   4.396  24.993   4.746
78214W        W37651  27.154  43.272   1.918
78215W        W37652  16.101  16.751   9.980
78216W        W37653  39.365  33.424  10.898
78217W        W37654  37.080  37.022  10.925
78218W        W37655  37.858   8.737   2.723
78219W        W37656  11.334  20.214   0.405
78220W        W37657  36.514  44.374  13.949
78221W        W37658  43.468  43.931  11.574
78222W        W37659  25.197  44.950  12.395
78223W        W37660   8.755  35.894   2.867
78224W        W37661   8.183   5.435  11.025
78225W        W37662  38.948  42.956   4.117
78226W        W37663  31.482  36.463  10.439
78227W        W37664   6.211  28.617   3.749
78228W        W37665  14.779  34.438  13.985
78229W        W37666  28.619  29.551   0.455
78230W        W37667  31.590  21.108  13.539
78231W        W37668  37.927  29.605   1.346
78232W        W37669  33.487   5.431  13.901
78233W        W37670  18.207  31.587   4.833
78234W        W37671   8.818   5.929  11.581
78235W        W37672  20.060  31.480   1.915
78236W        W37673  30.548   8.244  11.608
78237W        W37674  25.178  10.242   5.732
78238W        W37675  38.044  22.713   1.854
78239W        W37676  32.449  29.143   4.339
78240W        W37677  39.949  37.874   2.858
78241W        W37678  39.384  39.812  14.779
78242W        W37679  32.974  40.853   3.340
78243W        W37680   8.746  25.572  13.316
78244W        W37681  14.164  43.792   3.813
78245W        W37682  13.840   6.811   2.204
78246W        W37683   5.347  32.906   1.698
78247W        W37684   2.431  44.486   5.150
78248W        W37685  21.541  13.748   2.317
78249W        W37686   3.415  39.548   1.872
78250W        W37687  43.410  32.089  13.433
78251W        W37688  37.900  34.552  10.056
78252W        W37689  22.095  21.675   0.756
78253W        W37690  42.312   4.931  12.422
78254W        W37691  22.548  34.465   3.358
78255W        W37692   2.372   6.677   3.308
78256W        W37693  42.006  11.803   0.767
78257W        W37694   3.746  37.405  10.464
78258W        W37695  22.063   2.936   3.317
78259W        W37696  19.274  16.227   3.242
78260W        W37697  13.297  33.074   3.295
78261W        W37698  36.899  19.569  14.340
78262W        W37699  37.350   4.731  11.514
78263W        W37700  17.758  36.967   3.804
78264W        W37701  42.953  29.966   3.285
78265W        W37702   9.834  29.926   1.411
78266W        W37703  32.063  36.939  14.403
78267W        W37704  13.237  17.770  13.324
78268W        W37705   5.782  37.363  12.072
78269W        W37706  21.645  31.918  12.950
78270W        W37707  20.030  25.611   3.674
78271W        W37708   9.716  39.521   0.373
78272W        W37709  18.607  26.971  14.359
78273W        W37710  26.095  35.986  12.871
78274W        W37711  17.280  44.496   1.754
78275W        W37712  24.616  29.519   3.735
78276W        W37713  19.084  21.263  10.950
78277W        W37714  28.595   5.305  13.963
78278W        W37715  30.928  29.927   3.222
78279W        W37716   6.730   4.361   0.261
78280W        W37717  12.751  40.875  14.006
78281W        W37718  42.513   4.355   4.706
78282W        W37719   9.223   7.240   2.735
78283W        W37720  44.410  26.502   1.283
78284W        W37721  24.653  42.404  12.427
78285W        W37722  28.186  31.934   0.378
78286W        W37723  33.909  44.907  14.933
78287W        W37724   3.411  43.485   3.306
78288W        W37725  15.092  43.407   0.811
78289W        W37726   5.277   4.403   4.275
78290W        W37727  29.615  10.371   3.322
78291W        W37728  24.145  32.467   1.901
78292W        W37729  29.937   5.438   3.770
78293W        W37730  31.119  13.724   0.920
78294W        W37731  19.648   6.826   1.321
78295W        W37732  33.523  33.990  11.931
78296W        W37733  18.261   8.319  13.985
78297W        W37734  40.314  21.120   2.864
78298W        W37735   9.239  44.754   2.410
78299W        W37736  32.972  26.189  11.550
78300W        W37737  37.385   4.775  10.926
78301W        W37738  43.848  38.859   2.264
78302W        W37739  10.381   9.380   0.904
78303W        W37740  41.934  27.619   3.858
78304W        W37741  25.015  34.886  13.044
78305W        W37742   8.700  17.304  11.008
78306W        W37743  14.762  15.290   0.463
78307W        W37744  44.977  16.732  12.547
78308W        W37745  20.135  28.936   4.337
78309W        W37746  44.923  25.174  10.939
78310W        W37747  36.877  34.580  13.983
78311W        W37748  26.164  37.572   2.235
78312W        W37749  31.520  37.009  12.396
78313W        W37750  26.069  44.304   1.919
78314W        W37751  43.490  13.725   1.868
78315W        W37752  17.577  12.187  13.315
78316W        W37753   4.421  10.298   4.615
78317W        W37754  31.553  12.777  13.878
78318W        W37755  16.139  38.451  13.425
78319W        W37756   6.869  37.904  13.489
78320W        W37757   6.284  20.734   1.695
78321W        W37758   4.862  39.471  14.275
78322W        W37759  22.669  12.697  13.438
78323W        W37760  26.959  23.039  13.017
78324W        W37761  29.604  20.047  13.798
78325W        W37762  38.551  24.145  12.857
78326W        W37763  36.401   4.264   0.262
78327W        W37764  30.907  21.723   5.299
78328W        W37765  38.916  41.453  13.402
78329W        W37766  25.080  37.570  13.022
78330W        W37767  28.080   7.368  12.969
78331W        W37768   5.873  44.334  12.946
78332W        W37769   6.751  39.558  11.451
78333W        W37770  22.129  26.176   1.739
78334W        W37771  27.050  37.902  10.525
78335W        W37772  20.105  35.974   3.806
78336W        W37773  37.516  24.212  12.837
78337W        W37774   8.767  13.252  13.032
78338W        W37775  43.384  33.959   0.249
78339W        W37776  23.118  30.983  14.918
78340W        W37777  26.171  13.164  14.907
78341W        W37778  11.207  35.480  12.514
78342W        W37779  30.130  25.061   4.730
78343W        W37780  23.603  25.196  12.024
78344W        W37781   2.455  44.369   4.340
78345W        W37782  34.022  10.784   4.834
78346W        W37783  13.268  15.153  13.952
78347W        W37784   5.373  30.995   9.930
78348W        W37785  34.906  27.064  11.998
78349W        W37786  10.864  14.104  12.377
78350W        W37787  18.074   5.742  10.516
78351W        W37788  30.909  43.851   2.757
78352W        W37789  32.020   7.286  12.028
78353W        W37790  38.842  29.071   2.419
78354W        W37791   1.751  26.064   0.765
78355W        W37792  29.962  44.451   2.204
78356W        W37793  25.173  37.945   2.305
78357W        W37794   6.903   1.426  11.998
78358W        W37795  37.412  39.372  14.007
78359W        W37796  42.480  44.903   4.813
78360W        W37797  30.009  43.899   1.443
78361W        W37798  35.600  30.124   4.349
78362W        W37799  43.926  25.129   2.352
78363W        W37800  35.090  42.320   0.917
78364W        W37801  44.276  17.287  14.769
78365W        W37802  16.730  14.216  12.898
78366W        W37803   5.688  38.046  14.476
78367W        W37804  35.857  24.068   2.347
78368W        W37805  40.358   3.277  11.868
78369W        W37806  44.775  18.565   3.646
78370W        W37807  32.514   0.385  10.963
78371W        W37808  23.507  39.406   1.794
78372W        W37809  43.010  10.228   2.206
78373W        W37810  27.522  12.780   4.138
78374W        W37811   9.273  40.404  12.502
78375W        W37812  23.497  34.536   0.847
78376W        W37813   6.821  34.600   1.843
78377W        W37814  37.355   0.771  11.060
78378W        W37815  17.633  11.342  11.081
78379W        W37816  14.196   9.674   2.262
78380W        W37817  41.499  44.925   2.778
78381W        W37818  43.401  20.179  11.930
78382W        W37819  24.982   7.376   1.808
78383W        W37820  21.600   6.863   1.345
78384W        W37821  24.142  12.324   1.267
78385W        W37822  11.173  10.636   3.230
78386W        W37823  24.179   4.874  10.047
78387W        W37824   0.441   0.961   3.735
78388W        W37825  40.332  20.160  14.314
78389W        W37826  33.456  32.998  13.037
78390W        W37827   9.275  25.511   1.247
78391W        W37828   9.765  39.480   1.261
78392W        W37829   3.412  39.843  13.941
78393W        W37830  12.248  35.416  14.359
78394W        W37831  16.685   7.729  12.548
78395W        W37832   8.174  29.615   9.976
78396W        W37833  32.975  27.665   2.665
78397W        W37834   1.846  27.115  12.387
78398W        W37835   0.908  29.029  12.424
78399W        W37836   7.742  25.670   0.909
78400W        W37837  37.365  35.410  12.400
78401W        W37838  39.830  41.449   3.284
78402W        W37839  11.295  40.414  11.973
78403W        W37840  12.234  17.276   4.831
78404W        W37841  11.177  19.157   1.723
78405W        W37842   2.733  28.172   1.820
78406W        W37843  34.575  15.227   2.250
78407W        W37844  11.145  37.384   2.419
78408W        W37845   1.933  42.892   1.914
78409W        W37846  36.443  35.395   3.808
78410W        W37847   7.910  39.900  13.422
78411W        W37848   8.664  33.535   3.308
78412W        W37849  29.663  36.579   0.967
78413W        W37850   1.473  29.589  14.889
78414W        W37851  30.093  43.989   3.372
78415W        W37852  30.586  33.598   2.373
78416W        W37853  43.774   3.450   4.126
78417W        W37854  17.068   9.818   1.312
78418W        W37855  38.489  25.980   4.649
78419W        W37856  40.470  11.304  13.825
78420W        W37857  14.262   2.419   4.659
78421W        W37858  15.728   4.268  10.156
78422W        W37859  14.197  31.920  12.509
78423W        W37860  16.592  13.300   2.211
78424W        W37861  38.970  13.637  10.443
78425W        W37862  33.079  44.411   4.157
78426W        W37863  36.895  39.317  14.435
78427W        W37864  26.145  23.697  11.911
78428W        W37865  34.549  34.503   1.448
78429W        W37866  13.287  27.609  14.292
78430W        W37867   2.835   5.748  13.541
78431W        W37868   3.324  42.870  13.538
78432W        W37869  19.660  29.918   4.726
78433W        W37870  44.845  30.089   3.244
78434W        W37871   4.280  42.497   4.203
78435W        W37872  37.407  11.680  12.410
78436W        W37873  33.466  17.798   3.231
78437W        W37874  16.141  19.263  13.963
78438W        W37875   9.835  22.593   3.312
78439W        W37876  44.001   0.378  11.406
78440W        W37877  23.089  43.492  14.287
78441W        W37878  18.145  27.067  13.860
78442W        W37879  14.639  16.112   0.423
78443W        W37880  24.680   3.913  14.425
78444W        W37881  16.261  30.454  14.452
78445W        W37882  31.427  16.140  14.354
78446W        W37883  39.025  14.304  12.887
78447W        W37884  27.651  36.384  14.910
78448W        W37885   5.847  35.891   1.433
78449W        W37886   5.812  43.493  11.495
78450W        W37887  41.403  11.808   1.382
78451W        W37888   7.333   2.289  14.315
78452W        W37889  34.098  28.459   1.720
78453W        W37890  40.029   4.367  13.340
78454W        W37891  20.058  34.108   2.229
78455W        W37892  32.595  32.043  10.590
78456W        W37893  12.657   8.215   4.338
78457W        W37894  20.104  25.146  13.034
78458W        W37895  15.255  40.899  10.075
78459W        W37896  13.734  26.122  14.964
78460W        W37897  35.958  30.067  13.924
78461W        W37898   4.945  33.412  10.925
78462W        W37899   5.371  20.597  14.910
78463W        W37900  21.617  18.708   1.857
78464W        W37901  11.846   7.876  12.419
78465W        W37902  24.188  24.576   2.222
78466W        W37903  32.528  25.546   3.766
78467W        W37904  24.064  30.977   2.348
78468W        W37905  31.946  22.022   5.221
78469W        W37906  35.858  37.975   4.240
78470W        W37907  27.058   3.429   4.808
78471W        W37908  23.611  29.156   1.384
78472W        W37909  10.778  41.398   3.366
78473W        W37910  28.077  29.576   1.406
78474W        W37911  23.013  16.225   4.117
78475W        W37912  42.949  33.614   1.706
78476W        W37913  43.433  13.175  11.086
78477W        W37914  36.418  43.926   3.369
78478W        W37915  33.083  40.313  12.358
78479W        W37916   6.342  18.130   4.310
78480W        W37917   1.464  40.818  11.471
78481W        W37918   4.812  19.744   3.655
78482W        W37919   0.835  22.082  10.143
78483W        W37920  33.918  29.479  12.960
78484W        W37921   4.795  18.074  13.355
78485W        W37922  41.430  43.853  14.481
78486W        W37923  11.717  12.628  13.839
78487W        W37924  30.433  15.197   2.764
78488W        W37925  40.473   0.983  13.967
78489W        W37926   1.308  24.983  12.076
78490W        W37927  44.763  38.409  13.334
78491W        W37928  42.027   4.911  12.432
78492W        W37929  10.683  34.452   0.273
78493W        W37930  33.888   8.777  12.843
78494W        W37931  12.118  24.188  13.392
78495W        W37932  38.383   7.321   2.694
78496W        W37933  19.628  38.906   4.315
78497W        W37934  25.644  37.025   0.326
78498W        W37935   6.826  23.563  11.518
78499W        W37936  15.182  19.077   3.660
78500W        W37937   5.423  21.211  11.390
78501W        W37938  40.040   1.877   2.215
78502W        W37939  22.237  12.841  14.805
78503W        W37940  25.975  38.449  12.094
78504W        W37941  30.039  30.606   3.263
78505W        W37942  36.517  36.448  11.010
78506W        W37943   6.820  33.911  12.462
78507W        W37944  19.670  16.728  13.336
78508W        W37945   7.753  34.416   4.653
78509W        W37946  34.058  34.546  12.430
78510W        W37947  15.630  18.080   1.765
78511W        W37948  22.073   5.348   0.341
78512W        W37949  23.189  35.965  10.982
78513W        W37950  26.135   6.918   0.247
78514W        W37951   9.819   2.948   1.758
78515W        W37952  33.593  43.781  11.026
78516W        W37953   7.887   1.470  11.052
78517W        W37954  41.522  19.278   2.260
78518W        W37955  30.121  34.403  11.557
78519W        W37956   6.759  14.195  13.387
78520W        W37957  36.412  35.958  13.479
78521W        W37958   6.878  12.260  12.549
78522W        W37959  17.174   4.345   2.688
78523W        W37960  21.516  38.480   5.150
78524W        W37961  18.134  16.590  12.421
78525W        W37962  39.403  12.752  10.987
78526W        W37963  41.514  44.343  11.905
78527W        W37964  17.100  39.548   0.812
78528W        W37965  20.670  26.681  12.948
78529W        W37966   3.391   6.815   1.231
78530W        W37967   4.275  40.473   3.254
78531W        W37968  16.638   8.841  14.954
78532W        W37969  35.413  26.652  13.432
78533W        W37970   4.255  15.267  12.895
78534W        W37971  23.142  27.654   2.215
78535W        W37972  12.196   8.346   4.285
78536W        W37973  16.292   7.706  14.810
78537W        W37974  15.704  12.823  10.639
78538W        W37975   4.809  28.617  12.931
78539W        W37976  18.216  27.135  13.418
78540W        W37977  12.676   0.834   2.886
78541W        W37978   4.378  17.627   4.623
78542W        W37979  26.646   1.848   5.120
78543W        W37980  20.197   4.699  11.883
78544W        W37981   2.965  24.169   9.950
78545W        W37982  26.951  41.787  13.919
78546W        W37983  18.758  38.974   2.180
78547W        W37984   9.849  23.508  11.967
78548W        W37985   0.821   7.709  10.521
78549W        W37986  30.427  14.634   3.318
78550W        W37987  18.764  23.659  10.573
78551W        W37988   2.864   0.362   2.321
78552W        W37989  31.507  17.075  11.461
78553W        W37990  44.332  20.583   0.800
78554W        W37991  13.107  11.295   4.716
78555W        W37992  32.047  21.030  13.517
78556W        W37993  34.510  20.114  11.899
78557W        W37994  44.793  23.516   0.276
78558W        W37995  26.486   6.407   3.272
78559W        W37996  26.522  41.338  11.011
78560W        W37997  20.585  23.634   4.617
78561W        W37998  19.642  40.960  12.495
78562W        W37999   8.799  38.374   0.960
78563W        W38000  36.401  44.277   2.819
78564W        W38001  21.218  44.922  10.925
78565W        W38002  25.666  24.030   3.245
78566W        W38003  20.273   4.940  14.836
78567W        W38004  40.395   4.227   0.304
78568W        W38005   5.251  20.555  13.351
78569W        W38006  24.087  21.098  10.973
78570W        W38007  11.837   0.820   4.775
78571W        W38008  20.031  31.508   3.831
78572W        W38009  26.693  20.042  11.025
78573W        W38010  29.604  21.566   2.220
78574W        W38011  21.680  31.993   4.322
78575W        W38012   0.880  34.610  14.294
78576W        W38013  24.515  39.463  14.788
78577W        W38014  40.905  42.303   0.358
78578W        W38015  12.618  35.981  10.496
78579W        W38016  41.907  41.841  11.502
78580W        W38017  14.121  23.593  10.898
78581W        W38018  22.205  26.193   9.953
78582W        W38019  43.989  14.237   3.867
78583W        W38020  36.542  27.665   4.733
78584W        W38021  39.864  14.236   0.320
78585W        W38022  42.790  19.058   3.323
78586W        W38023  38.336  19.710   3.717
78587W        W38024  11.312  32.929   4.807
78588W        W38025  30.133  29.608   0.759
78589W        W38026  44.280  18.689   2.685
78590W        W38027  44.882   6.398   3.777
78591W        W38028  32.051  18.752   4.761
78592W        W38029  20.578   9.675  13.331
78593W        W38030   6.838  22.243   4.262
78594W        W38031  34.009   0.767   2.203
78595W        W38032  41.470   4.372  12.476
78596W        W38033  30.071  35.018   3.754
78597W        W38034  38.016  20.251   3.170
78598W        W38035  17.672   9.273   0.907
78599W        W38036  33.884  16.078   2.710
78600W        W38037   4.378  25.017   3.833
78601W        W38038  39.027   4.392   1.902
78602W        W38039  38.850  12.295   1.323
78603W        W38040  26.519  21.214   2.754
78604W        W38041  32.516  29.657   3.267
78605W        W38042  28.137  25.088   3.774
78606W        W38043  29.483  26.532  12.397
78607W        W38044  12.846  28.139  11.494
78608W        W38045  39.421   9.358   2.889
78609W        W38046  12.822  42.950   4.304
78610W        W38047  34.975   3.378   3.812
78611W        W38048  34.032  14.730  12.938
78612W        W38049  17.602  33.069  11.452
78613W        W38050   4.755  21.200   4.827
78614W        W38051  28.590  31.479   4.336
78615W        W38052   1.455  24.687   3.226
78616W        W38053   6.399  11.203  11.127
78617W        W38054  29.090  37.400  11.978
78618W        W38055  44.334  44.428   2.299
78619W        W38056  12.773  42.387   5.127
78620W        W38057   6.341   3.840  11.543
78621W        W38058   4.833  23.500   4.793
78622W        W38059  10.846   8.754   4.621
78623W        W38060  43.790  20.253  13.411
78624W        W38061  13.272  23.124  11.907
78625W        W38062   2.432  30.514  13.434
78626W        W38063  27.042   2.858  12.545
78627W        W38064  15.319  29.580  11.072
78628W        W38065  33.442   0.917   0.947
78629W        W38066  21.030  19.555   3.223
78630W        W38067  44.925  44.004   4.205
78631W        W38068  27.168  34.481   1.319
78632W        W38069  14.284   0.782  13.795
78633W        W38070  12.253  12.165   2.764
78634W        W38071   7.836  38.913   2.270
78635W        W38072  33.478  38.952   2.383
78636W        W38073  37.489  13.813  11.572
78637W        W38074  37.480  39.369  12.013
78638W        W38075  28.494  13.288  12.506
78639W        W38076  35.442  29.494  11.977
78640W        W38077  38.036  23.214   3.207
78641W        W38078  27.190  33.570  12.415
78642W        W38079  17.605  31.152   1.931
78643W        W38080  23.494  17.772  14.439
78644W        W38081   2.797  37.582  13.054
78645W        W38082  22.023  27.069   3.684
78646W        W38083  41.310  26.680  11.517
78647W        W38084  30.158  24.228   1.757
78648W        W38085   4.296  27.446  12.435
78649W        W38086   8.663   7.733   4.246
78650W        W38087   8.190  29.009   3.801
78651W        W38088  43.289   2.725   0.339
78652W        W38089  31.974  16.791   9.956
78653W        W38090  35.601  14.226   4.142
78654W        W38091   7.335   3.258  10.979
78655W        W38092   7.683  18.702   3.161
78656W        W38093  28.506  43.818   2.811
78657W        W38094  28.644  30.127  13.975
78658W        W38095  12.338   4.225  14.892
78659W        W38096  35.502  15.118  12.006
78660W        W38097  30.534  38.032   1.374
78661W        W38098  27.467  14.735   0.863
78662W        W38099  12.745  25.701   3.166
78663W        W38100  26.467  25.551   2.387
78664W        W38101   6.845  28.008   4.740
78665W        W38102  12.242  37.480   2.247
78666W        W38103  34.065  31.459   0.841
78667W        W38104  33.383  43.890   4.127
78668W        W38105   8.733  18.270   2.841
78669W        W38106  44.419   2.423   5.184
78670W        W38107   4.804  29.018   1.895
78671W        W38108   1.446  19.243  11.972
78672W        W38109  24.188  32.588   3.841
78673W        W38110  32.974  24.090  12.343
78674W        W38111  19.557   1.944   3.860
78675W        W38112  33.388  24.977  14.814
78676W        W38113   7.273  15.309   2.374
78677W        W38114  14.756   1.783  12.936
78678W        W38115  13.843  29.643   3.701
78679W        W38116  32.521  42.020  12.474
78680W        W38117   7.689  11.864  13.940
78681W        W38118  31.552  42.867  14.906
78682W        W38119  32.097  32.930  12.912
78683W        W38120  44.505   9.165   1.426
78684W        W38121  17.599  14.265  10.503
78685W        W38122   1.941  38.072   2.765
78686W        W38123   7.262  44.760  14.941
78687W        W38124  38.966  19.714   3.744
78688W        W38125  24.056   2.238   1.211
78689W        W38126  24.076  14.286   0.249
78690W        W38127  28.136  11.321   2.789
78691W        W38128  16.152  41.394  14.003
78692W        W38129  40.906  39.057   2.408
78693W        W38130   8.355  30.487  13.978
78694W        W38131   3.388  39.999   1.331
78695W        W38132  31.996  17.160   3.301
78696W        W38133   4.336  16.136   2.781
78697W        W38134   7.326  31.565  11.429
78698W        W38135   7.366   2.952  11.943
78699W        W38136  42.893  20.609   2.410
78700W        W38137   8.879  13.778   0.866
78701W        W38138  24.573  40.851   1.379
78702W        W38139  13.230  25.500   2.875
78703W        W38140  12.642  14.785   0.929
78704W        W38141   6.740  27.691  12.425
78705W        W38142  41.935  28.508   3.787
78706W        W38143  17.781  30.632  12.085
78707W        W38144  30.447  42.797   0.256
78708W        W38145  22.692   3.805  12.579
78709W        W38146  38.513  22.084  10.478
78710W        W38147  13.779  34.035  11.927
78711W        W38148  36.854  32.409   3.840
78712W        W38149  15.256   3.813   3.693
78713W        W38150  40.806  44.828  10.419
78714W        W38151  31.014  25.698   1.747
78715W        W38152  34.997  29.150   0.769
78716W        W38153  34.381   4.745   4.241
78717W        W38154   0.346  41.330   2.747
78718W        W38155  14.835  28.144  10.020
78719W        W38156  34.092  30.582  14.489
78720W        W38157  19.051   0.300  14.789
78721W        W38158   7.171  12.808  13.011
78722W        W38159  23.555  39.508   5.279
78723W        W38160  39.408   9.248  13.547
78724W        W38161  24.659   6.870  13.446
78725W        W38162  12.827   1.457  10.420
78726W        W38163   3.344   8.729   3.197
78727W        W38164  31.045   4.396  13.012
78728W        W38165  27.170  32.429  10.641
78729W        W38166  25.473   4.402  12.451
78730W        W38167  25.701  42.892   2.870
78731W        W38168  17.647  23.050   2.180
78732W        W38169  18.636   8.241   2.220
78733W        W38170  17.606  18.147   1.793
78734W        W38171  11.144  16.798   1.310
78735W        W38172  41.906  41.847  14.780
78736W        W38173   7.685  13.664   2.365
78737W        W38174  12.331  27.633   2.233
78738W        W38175  11.763  23.208   0.419
78739W        W38176   7.825   1.269  11.962
78740W        W38177  14.168  17.135   0.338
78741W        W38178   8.248  43.396   4.170
78742W        W38179  31.637  34.583  10.924
78743W        W38180  42.351  39.486  10.952
78744W        W38181  20.226  23.666  12.026
78745W        W38182  37.909  39.873   2.795
78746W        W38183  34.076   0.341   3.871
78747W        W38184   2.366  16.107   0.273
78748W        W38185  43.454  34.467   0.842
78749W        W38186   0.378  43.470   4.230
78750W        W38187  11.634  35.520  10.894
78751W        W38188   0.843  21.529   3.213
78752W        W38189   4.910  17.656  13.027
78753W        W38190  33.090  19.124   2.894
78754W        W38191  38.490  33.947   2.798
78755W        W38192  41.386  39.477  10.067
78756W        W38193  39.339  27.059  12.063
78757W        W38194  27.561  36.481  13.413
78758W        W38195  20.066   8.854   3.295
78759W        W38196  17.741  34.949  12.398
78760W        W38197  30.921  21.652  10.964
78761W        W38198  43.422  27.465   0.468
78762W        W38199  40.400   4.238  14.335
78763W        W38200  14.715  17.785   3.167
78764W        W38201  31.427   9.320  13.430
78765W        W38202  44.462  12.334   2.727
78766W        W38203  32.042  30.997   4.164
78767W        W38204  23.234  37.889  11.051
78768W        W38205  31.999  11.258  13.333
78769W        W38206   9.217  40.913   0.959
78770W        W38207   3.828  42.805   4.611
78771W        W38208  28.973   6.791  10.569
78772W        W38209   3.856  30.129   2.242
78773W        W38210   7.335  17.724   0.823
78774W        W38211  15.257  28.510  12.967
78775W        W38212  44.978   9.352   0.960
78776W        W38213  31.495  21.660   0.394
78777W        W38214  19.623  26.592  12.940
78778W        W38215  27.079   9.250   4.232
78779W        W38216   5.352  30.414  11.400
78780W        W38217  24.519  17.266  11.545
78781W        W38218  23.048  39.373  13.411
78782W        W38219  36.060  26.469  10.644
78783W        W38220  31.987  18.080  12.577
78784W        W38221  17.687  43.804   0.807
78785W        W38222   5.398   0.417  12.029
78786W        W38223  11.650  36.871   2.346
78787W        W38224  24.129  22.516   0.408
78788W        W38225   5.230  26.589  14.820
78789W        W38226  34.920  37.882  13.897
78790W        W38227   3.408  26.040   1.225
78791W        W38228   5.916  33.909   1.869
78792W        W38229  29.641  20.636  10.511
78793W        W38230  11.167   1.428  12.488
78794W        W38231  31.995  26.967  12.518
78795W        W38232  22.561  12.660   1.722
78796W        W38233  31.543   9.217   0.438
78797W        W38234  22.076  27.134  12.853
78798W        W38235   6.237  44.452  14.342
78799W        W38236  31.993   2.891  13.829
78800W        W38237  42.308  23.577   3.700
78801W        W38238  30.032  20.215  12.476
78802W        W38239   6.842  36.498   3.730
78803W        W38240  28.171  40.883   0.249
78804W        W38241  41.383  21.117   3.303
78805W        W38242  29.990  38.890   3.313
78806W        W38243  28.933  35.525   4.649
78807W        W38244  37.879  13.128  10.554
78808W        W38245  12.821   3.718   2.705
78809W        W38246  13.751  27.551   3.156
78810W        W38247   7.714  18.753   4.323
78811W        W38248  40.947  31.469  11.063
78812W        W38249  29.468  36.451   4.145
78813W        W38250  40.049  37.057  13.517
78814W        W38251  27.102   7.889   3.274
78815W        W38252  34.989  26.955  13.003
78816W        W38253  17.591  38.928  11.527
78817W        W38254  35.880  33.590   0.792
78818W        W38255  40.864   6.250  13.796
78819W        W38256   9.153   1.314   1.888
78820W        W38257  40.351  28.634   2.868
78821W        W38258  37.919  35.013   3.631
78822W        W38259   4.212   7.850  12.461
78823W        W38260   0.263  22.665   4.331
78824W        W38261  13.220  41.032  11.555
78825W        W38262  40.957  27.495  14.775
78826W        W38263  22.183  39.874   9.467
78827W        W38264  17.657  15.606   0.909
78828W        W38265  22.179  15.656  14.499
78829W        W38266  10.233  17.587  11.028
78830W        W38267   7.711   6.221   4.320
78831W        W38268  26.600  35.501  11.076
78832W        W38269  32.919   6.853   0.868
78833W        W38270  38.074  31.449  10.452
78834W        W38271  12.789  44.947  10.641
78835W        W38272  17.290   0.448  10.987
78836W        W38273  41.019   2.803   1.407
78837W        W38274  32.433   3.864  14.470
78838W        W38275  40.816  14.595  13.501
78839W        W38276   7.720  15.280   1.713
78840W        W38277   7.217  14.803  11.530
78841W        W38278  25.038  21.747  13.795
78842W        W38279  42.327   7.902   2.770
78843W        W38280  26.612   5.727   3.379
78844W        W38281  41.418   1.245   1.900
78845W        W38282  43.350  35.963  14.759
78846W        W38283  10.637   2.956  11.885
78847W        W38284  10.162  28.931  12.947
78848W        W38285   9.683   8.320   0.790
78849W        W38286  23.157  36.972  11.483
78850W        W38287  14.247  20.597   3.349
78851W        W38288  23.514  10.829   3.374
78852W        W38289  17.671  21.635   0.852
78853W        W38290  34.496  27.115  11.389
78854W        W38291  20.649  16.181  13.881
78855W        W38292  14.594   7.184  14.451
78856W        W38293   2.405  13.682   0.283
78857W        W38294  14.183  37.054   3.755
78858W        W38295  18.567   1.910  13.954
78859W        W38296  27.950  15.138   4.301
78860W        W38297  10.329  28.621  10.902
78861W        W38298   5.222   0.452  13.471
78862W        W38299  14.797  43.451   4.312
78863W        W38300   8.172  33.515  14.444
78864W        W38301  29.660   4.272  12.378
78865W        W38302  12.798  14.278  14.804
78866W        W38303  25.009   4.211   3.163
78867W        W38304  33.031   4.262  14.327
78868W        W38305   8.741  34.911  13.814
78869W        W38306  21.039  31.906   0.454
78870W        W38307  18.236   8.324   0.361
78871W        W38308  10.371  14.249  13.871
78872W        W38309  31.489  32.124  14.783
78873W        W38310  23.231  26.149   1.413
78874W        W38311  23.599  20.223   3.704
78875W        W38312  21.098  19.590   3.724
78876W        W38313  26.115  43.842   0.788
78877W        W38314  31.569  42.287   1.238
78878W        W38315  10.366   7.329  12.549
78879W        W38316   8.300  17.634  10.891
78880W        W38317   6.803  28.600  13.349
78881W        W38318  32.070  37.049   3.369
78882W        W38319  15.195  20.181   3.239
78883W        W38320  13.802  17.192   1.415
78884W        W38321   6.737   0.251  10.418
78885W        W38322  21.753   5.349  13.348
78886W        W38323  27.452  30.560  13.541
78887W        W38324  10.712   8.397  12.929
78888W        W38325  39.958  14.238   0.733
78889W        W38326   6.390  34.867   3.276
78890W        W38327  35.379  29.021  11.381
78891W        W38328  36.466   9.806  10.517
78892W        W38329  21.243  42.012  13.790
78893W        W38330  41.871  27.082   1.290
78894W        W38331  44.947   9.829  13.469
78895W        W38332  41.816  18.758   2.677
78896W        W38333   6.316   3.360  13.912
78897W        W38334  23.599   8.666   2.888
78898W        W38335  29.943   0.302  11.038
78899W        W38336  11.674  27.949  11.540
78900W        W38337  12.673  37.043   1.742
78901W        W38338  42.980  43.454  12.444
78902W        W38339  16.170  19.673   1.887
78903W        W38340  44.005  30.452   2.826
78904W        W38341  23.127   0.773   4.781
78905W        W38342  22.998  32.928   0.958
78906W        W38343  30.911   5.197  10.485
78907W        W38344   0.493   2.393   4.737
78908W        W38345  16.147  31.416  11.411
78909W        W38346  18.642  20.582   2.281
78910W        W38347  21.026   2.368  11.536
78911W        W38348  32.967   4.848   4.837
78912W        W38349  25.521  29.970   0.254
78913W        W38350   1.929  26.673  10.898
78914W        W38351  14.104  34.047   2.186
78915W        W38352  37.921  12.121  12.561
78916W        W38353   4.425  36.925   4.238
78917W        W38354  25.147  23.079   4.236
78918W        W38355  37.848  26.684   0.457
78919W        W38356   4.401   4.873  14.882
78920W        W38357  22.571   2.785   2.203
78921W        W38358  40.009  27.602   0.791
78922W        W38359  13.784  29.495  13.862
78923W        W38360  39.991  38.911  11.081
78924W        W38361  13.349  32.426  12.956
78925W        W38362  24.220  19.212   4.303
78926W        W38363   1.896  25.041  12.934
78927W        W38364  36.380  40.014  11.991
78928W        W38365   0.838   7.814   2.253
78929W        W38366  20.077  24.105  14.881
78930W        W38367   3.843  38.940   1.451
78931W        W38368  13.777   1.240   1.233
78932W        W38369   2.957  32.959  14.491
78933W        W38370  19.132  40.900  12.021
78934W        W38371  11.210  42.337   1.383
78935W        W38372  23.121   1.859   2.726
78936W        W38373  22.037   1.841   3.233
78937W        W38374   9.856   4.347  10.575
78938W        W38375   9.344  14.150  14.833
78939W        W38376  35.026  37.030  14.957
78940W        W38377  42.852  35.957  13.930
78941W        W38378   1.946  10.722  11.951
78942W        W38379  18.546  38.474   1.891
78943W        W38380  16.715  10.769   4.314
78944W        W38381  25.183  42.922  13.335
78945W        W38382  38.988  20.752   0.852
78946W        W38383   4.285  35.508   3.766
78947W        W38384   7.700  38.902  10.103
78948W        W38385  36.930  35.938   0.479
78949W        W38386  27.158  38.076  14.014
78950W        W38387  21.601  29.061   5.275
78951W        W38388  17.141  25.570  10.613
78952W        W38389   9.839  39.038  14.371
78953W        W38390  19.234  23.600   4.738
78954W        W38391  39.958  16.769   4.240
78955W        W38392  42.893  35.596  13.938
78956W        W38393  13.342  37.896  10.614
78957W        W38394   7.269   7.816   3.241
78958W        W38395  36.576   6.389  11.898
78959W        W38396  33.586  34.984   0.445
78960W        W38397  33.945  16.098  13.038
78961W        W38398  42.778  35.418   5.109
78962W        W38399  29.168  33.383   1.216
78963W        W38400  16.625  20.740  13.802
78964W        W38401  16.117  28.440  14.807
78965W        W38402   7.233  31.595  10.456
78966W        W38403  25.055  10.828   3.284
78967W        W38404  16.124  28.545   4.125
78968W        W38405  43.451   9.247   4.176
78969W        W38406   9.783  31.466  14.359
78970W        W38407  39.449  19.661   2.222
78971W        W38408  18.773  31.637  13.029
78972W        W38409  34.558  10.151   2.695
78973W        W38410   8.681  37.475  10.143
78974W        W38411  14.171  29.591  12.570
78975W        W38412  23.665   5.225   4.296
78976W        W38413  29.576  19.088  13.409
78977W        W38414   5.263  20.078   2.688
78978W        W38415   4.939   9.714   0.958
78979W        W38416  30.919  37.454   2.212
78980W        W38417   4.355  21.042   4.323
78981W        W38418   3.407  21.122   2.238
78982W        W38419   5.785  37.993   1.739
78983W        W38420  39.864  13.305  11.005
78984W        W38421  14.835  15.165   4.637
78985W        W38422  39.461  12.685   0.339
78986W        W38423  11.282  31.078  10.568
78987W        W38424  38.510  29.122  14.013
78988W        W38425  24.647   5.694   0.445
78989W        W38426  13.792  33.030   1.317
78990W        W38427  23.160  12.341   2.267
78991W        W38428  20.112  10.313  14.360
78992W        W38429  25.040  10.189  14.371
78993W        W38430  19.743  13.216   1.788
78994W        W38431   8.838  18.581   2.296
78995W        W38432   0.468   9.874  11.520
78996W        W38433  41.368  34.460  13.016
78997W        W38434  25.996  39.978   1.825
78998W        W38435  26.974  14.241   0.438
78999W        W38436   4.270   2.364  10.516
79000W        W38437  17.666  42.953   2.246
79001W        W38438  36.973  33.008   3.213
79002W        W38439   4.777  31.487   3.318
79003W        W38440  13.218  29.090  12.067
79004W        W38441  37.943  33.956   1.394
79005W        W38442  36.008  39.551  12.990
79006W        W38443  12.159  13.707   4.685
79007W        W38444  14.305  27.466   2.276
79008W        W38445  28.671  20.095   1.730
79009W        W38446  28.620   5.262   2.217
79010W        W38447  21.103  34.935   4.218
79011W        W38448  11.680   1.293  14.895
79012W        W38449  41.438  30.610  10.473
79013W        W38450  15.591  36.392  10.424
79014W        W38451   1.872  30.416   4.778
79015W        W38452   6.202  18.186   5.268
79016W        W38453  25.183  43.896  14.011
79017W        W38454  35.910   9.676   3.155
79018W        W38455  25.077  35.460   0.423
79019W        W38456   8.402  21.671   2.677
79020W        W38457   1.304   0.747   3.263
79021W        W38458  10.237  21.217   0.464
79022W        W38459  27.112  20.671   4.779
79023W        W38460   9.871  38.363  13.063
79024W        W38461   2.959  42.032  11.958
79025W        W38462  20.210  44.453   3.869
79026W        W38463  11.628  20.234  12.576
79027W        W38464   2.434  40.917  13.959
79028W        W38465  31.020  20.098  12.470
79029W        W38466  14.648  37.918  13.890
79030W        W38467   4.940  19.601   2.863
79031W        W38468  16.259  34.888  13.006
79032W        W38469  15.599  20.214  14.946
79033W        W38470  33.454  39.015   1.866
79034W        W38471   7.254  10.641  14.972
79035W        W38472   1.246  10.823   1.284
79036W        W38473  36.462  24.551   1.358
79037W        W38474  43.926   0.260  12.508
79038W        W38475  33.537   8.809   0.799
79039W        W38476  31.103  31.593   4.685
79040W        W38477  42.427  40.334   1.876
79041W        W38478  29.947  13.247   3.853
79042W        W38479  39.552  15.649  13.822
79043W        W38480  15.773  30.006  13.429
79044W        W38481  32.072  31.495   3.294
79045W        W38482   5.193  23.110  13.031
79046W        W38483  28.501  31.486  11.932
79047W        W38484  13.197  41.369   0.937
79048W        W38485  28.657  29.074  10.575
79049W        W38486  15.621  37.011  11.418
79050W        W38487  20.223  32.902   4.211
79051W        W38488  10.263  35.396  12.043
79052W        W38489  32.019  18.729  11.008
79053W        W38490   0.460  17.613  10.598
79054W        W38491  17.780  40.955  12.055
79055W        W38492  36.491  44.961   3.330
79056W        W38493  29.426   6.775   3.252
79057W        W38494   2.857  33.125  12.481
79058W        W38495  33.505  31.123   4.285
79059W        W38496  18.253   4.246  13.460
79060W        W38497  42.518   4.274   0.937
79061W        W38498  23.223  15.688  13.309
79062W        W38499  34.016  11.653   2.380
79063W        W38500   6.885  19.555   2.698
79064W        W38501  39.889  18.550   0.744
79065W        W38502  14.115  29.483   0.836
79066W        W38503  10.730   7.345  14.319
79067W        W38504  18.253   4.345  14.338
79068W        W38505  27.192  44.401  11.944
79069W        W38506  10.230  20.582   1.846
79070W        W38507  14.246   4.810  10.999
79071W        W38508  13.340  11.182   1.821
79072W        W38509   9.152  42.883  15.000
79073W        W38510  34.527  33.012   2.373
79074W        W38511  38.840  12.239  12.956
79075W        W38512  11.159  41.441  13.500
79076W        W38513  11.657   8.853   3.737
79077W        W38514  39.315  34.024  13.513
79078W        W38515  34.058  14.835   2.361
79079W        W38516  36.003  20.527  13.355
79080W        W38517  44.454  16.674   3.187
79081W        W38518   7.906  25.610   3.259
79082W        W38519  35.419  39.040   0.476
79083W        W38520  17.162  41.323  13.003
79084W        W38521  44.425  20.731  10.411
79085W        W38522  14.722  44.467   3.717
79086W        W38523  24.042  37.083   1.281
79087W        W38524  22.164   0.361  12.571
79088W        W38525  16.613  41.872  11.550
79089W        W38526   8.389  34.959   1.413
79090W        W38527  23.129  29.918   3.234
79091W        W38528  11.718  22.713  11.860
79092W        W38529  41.031  39.375   9.481
79093W        W38530  42.463  43.290   2.662
79094W        W38531   7.245  40.359   1.713
79095W        W38532  15.593  12.752  14.955
79096W        W38533  44.891  29.042   4.136
79097W        W38534  14.618  11.822  12.424
79098W        W38535   4.915   3.864   2.398
79099W        W38536  40.974   7.732   1.727
79100W        W38537  34.942   6.198   2.401
79101W        W38538   5.197  41.963   0.789
79102W        W38539  34.978  31.958  11.579
79103W        W38540  24.556  10.360   0.812
79104W        W38541  32.923   3.310   4.290
79105W        W38542  28.935  42.426   2.741
79106W        W38543   2.869   0.966  10.633
79107W        W38544  22.615   4.791   5.234
79108W        W38545   4.734  41.305  11.987
79109W        W38546  11.131   0.460  13.015
79110W        W38547  21.618  44.880   4.171
79111W        W38548   1.432  18.190   1.345
79112W        W38549  11.651  12.293  10.425
79113W        W38550  26.995  19.141  12.559
79114W        W38551   6.805  12.759  13.480
79115W        W38552  27.118  22.234   2.698
79116W        W38553  35.552  20.530   3.369
79117W        W38554  11.652  31.078  11.545
79118W        W38555  24.499  43.781  10.406
79119W        W38556  14.833  27.612  12.932
79120W        W38557   5.850  19.557   2.221
79121W        W38558  18.667  21.157   2.790
79122W        W38559  25.650   1.435   1.218
79123W        W38560  18.063  35.454  11.464
79124W        W38561  24.181   0.338  14.980
79125W        W38562  27.676  42.479   2.704
79126W        W38563  33.108  26.635   5.178
79127W        W38564  15.726  28.550   0.732
79128W        W38565  16.773  30.009  13.415
79129W        W38566   8.847  31.615  13.380
79130W        W38567  38.906  16.184   0.939
79131W        W38568  11.250   3.249  11.044
79132W        W38569  44.782  28.452  14.809
79133W        W38570  22.165   6.345   1.280
79134W        W38571  21.166  29.918  12.340
79135W        W38572   1.785  23.624  13.831
79136W        W38573  37.461  16.317  12.357
79137W        W38574  42.362  10.204  11.889
79138W        W38575  39.457  32.103  10.602
79139W        W38576  26.004  21.205   1.772
79140W        W38577   1.458   0.368  14.979
79141W        W38578  11.224  27.500   0.833
79142W        W38579  41.880  23.117   0.311
79143W        W38580  28.446  38.357   0.888
79144W        W38581  31.580   0.839  11.519
79145W        W38582  23.220   0.269   3.235
79146W        W38583  17.172  20.566   3.299
79147W        W38584  28.608  37.531   1.915
79148W        W38585  21.634  21.561   0.845
79149W        W38586  15.793  11.631  11.568
79150W        W38587  22.240  42.418   0.348
79151W        W38588  14.235  29.491   0.415
79152W        W38589   7.880  42.402   3.309
79153W        W38590  32.540   3.888  12.896
79154W        W38591  33.961  41.035  12.847
79155W        W38592  20.206  31.612  14.804
79156W        W38593  37.978  38.068   1.293
79157W        W38594   2.900  20.766  12.549
79158W        W38595   5.863  23.041  12.540
79159W        W38596  26.605  23.055   4.219
79160W        W38597   8.807  25.192   3.747
79161W        W38598  13.195  35.381   3.208
79162W        W38599   0.945  18.754  11.917
79163W        W38600  33.589  13.727  10.963
79164W        W38601   4.934   7.692  13.411
79165W        W38602  26.498  34.121  14.335
79166W        W38603  39.968  23.103  13.954
79167W        W38604  19.099   6.354  10.595
79168W        W38605  32.088  44.946   3.717
79169W        W38606  19.214  12.691   0.384
79170W        W38607   7.250  33.116   0.275
79171W        W38608  24.048  36.015   1.814
79172W        W38609   7.848   4.261   2.383
79173W        W38610  15.788  43.376  13.453
79174W        W38611   4.291   7.760  11.882
79175W        W38612   9.712  26.074  11.376
79176W        W38613  30.964   0.749  12.824
79177W        W38614  43.805  21.598  12.847
79178W        W38615   5.196  39.349  13.033
79179W        W38616   6.814  29.555   4.630
79180W        W38617  35.546   1.349   4.747
79181W        W38618  32.976   0.771   4.760
79182W        W38619   6.181  43.505   1.912
79183W        W38620   6.416   3.802   0.788
79184W        W38621  29.520  15.621   4.343
79185W        W38622  26.169  44.446   0.248
79186W        W38623  26.089  31.942  11.543
79187W        W38624  36.534  44.491  12.454
79188W        W38625  10.364  18.602  11.120
79189W        W38626  29.483  43.314   2.366
79190W        W38627  41.516  43.380   0.325
79191W        W38628   8.886  30.004  10.935
79192W        W38629  37.575  23.100   3.150
79193W        W38630  43.003  14.624   4.795
79194W        W38631  22.644  38.428   5.756
79195W        W38632  41.815  12.238  13.505
79196W        W38633  34.918  12.639   4.782
79197W        W38634  16.236  34.473  11.387
79198W        W38635  39.825  13.636   4.671
79199W        W38636   3.716  26.580  13.413
79200W        W38637   6.425  26.486  13.854
79201W        W38638  43.352  25.122  11.069
79202W        W38639   5.725  27.673   2.711
79203W        W38640  39.811  23.577  13.411
79204W        W38641  23.170  41.320   0.788
79205W        W38642   2.913   2.244  11.480
79206W        W38643  15.619   1.905  12.414
79207W        W38644  43.928  28.438  10.498
79208W        W38645  32.449  18.628   1.916
79209W        W38646  35.030  21.529  12.431
79210W        W38647  18.263  25.088   0.778
79211W        W38648  26.579  28.964   2.783
79212W        W38649  29.644  17.566   2.302
79213W        W38650  43.795  17.245   2.876
79214W        W38651  20.034  12.697   5.191
79215W        W38652  22.506  21.081  11.392
79216W        W38653   1.887  36.454  12.533
79217W        W38654  26.532   8.665   0.283
79218W        W38655  38.034  30.424  14.513
79219W        W38656   3.413  25.015   0.474
79220W        W38657  42.389  43.002   0.870
79221W        W38658  33.005   2.269   1.834
79222W        W38659  14.317   6.192  11.412
79223W        W38660  23.102  29.509   0.914
79224W        W38661  39.828  41.343  14.455
79225W        W38662  11.157  14.245  12.425
79226W        W38663  19.585  13.623  13.492
79227W        W38664  23.526   6.229   2.204
79228W        W38665  42.496   9.312   4.114
79229W        W38666   1.365  14.215   4.742
79230W        W38667  14.827  15.297  12.005
79231W        W38668  14.683  31.562  11.948
79232W        W38669   3.458   6.200   4.210
79233W        W38670   3.319  10.724  11.524
79234W        W38671  14.278  14.242   0.343
79235W        W38672  44.986  37.471  13.813
79236W        W38673  22.527  36.008  14.492
79237W        W38674  38.959   9.208   0.460
79238W        W38675  19.726  16.221   0.357
79239W        W38676  33.559  21.111   4.756
79240W        W38677  19.091   0.468   3.765
79241W        W38678  16.112  21.743   0.829
79242W        W38679  14.711  20.244  14.031
79243W        W38680  25.081  25.698   2.210
79244W        W38681  20.684  28.606   2.252
79245W        W38682  40.997  32.609  10.435
79246W        W38683   4.920  34.408  13.898
79247W        W38684  37.539  17.114  10.622
79248W        W38685  32.593  10.857  11.969
79249W        W38686  25.613  33.046  10.983
79250W        W38687  17.701  37.377   3.174
79251W        W38688  43.415  22.061  11.899
79252W        W38689  24.207  21.655  12.346
79253W        W38690  41.418  23.200  12.551
79254W        W38691   8.713  14.666  13.953
79255W        W38692  22.520  19.095   2.663
79256W        W38693   6.421  23.180  10.976
79257W        W38694  32.927  25.978  12.942
79258W        W38695  23.127  12.634   2.365
79259W        W38696  11.693   8.869   3.360
79260W        W38697  31.913   4.839  13.534
79261W        W38698  33.384  24.663   1.888
79262W        W38699   7.809   7.758   1.345
79263W        W38700  34.110  37.938   9.539
79264W        W38701  35.545  37.905   1.309
79265W        W38702  29.037  17.753   0.875
79266W        W38703   8.230  27.049  13.998
79267W        W38704  14.769  14.660  11.433
79268W        W38705   6.235  13.806  14.804
79269W        W38706  41.028   7.900   0.414
79270W        W38707   9.721  40.399   0.918
79271W        W38708  41.504   4.300  12.877
79272W        W38709   8.778   8.182  13.853
79273W        W38710  19.691  13.329   3.670
79274W        W38711  41.516  42.486   4.607
79275W        W38712   7.361  34.060  14.457
79276W        W38713  33.891  29.921   0.801
79277W        W38714  28.047   9.700   4.255
79278W        W38715   9.830  41.408   1.230
79279W        W38716   6.215  34.944  14.475
79280W        W38717  28.024   8.217  10.596
79281W        W38718   4.844  34.072   0.850
79282W        W38719  18.573  12.670  11.985
79283W        W38720  33.936   7.270   3.870
79284W        W38721  41.357  28.992  10.978
79285W        W38722  17.121  32.082  13.828
79286W        W38723   5.255   2.790  12.549
79287W        W38724   0.305   8.263   0.743
79288W        W38725  26.997   8.195   3.245
79289W        W38726   6.198  15.816   2.778
79290W        W38727  11.190  36.402   1.780
79291W        W38728   1.483  17.727  10.458
79292W        W38729   1.832  22.215   3.316
79293W        W38730  26.572  42.467   4.760
79294W        W38731  26.048  19.563   5.308
79295W        W38732  39.919   0.797  13.461
79296W        W38733   2.261  32.887   2.809
79297W        W38734  11.176  16.738  10.583
79298W        W38735   8.370   2.348   2.814
79299W        W38736  14.794  33.562   2.188
79300W        W38737  42.412  33.070  13.866
79301W        W38738  19.063  25.583   0.313
79302W        W38739  12.224  28.450   0.924
79303W        W38740  24.130  22.222   0.276
79304W        W38741  24.115   6.857  11.545
79305W        W38742  19.220  17.760  14.919
79306W        W38743  25.581   7.689   1.280
79307W        W38744  12.136  30.584   3.657
79308W        W38745  36.089  31.991  12.016
79309W        W38746  14.758  15.687  14.396
79310W        W38747  16.269  21.190  12.445
79311W        W38748  28.673  13.308   3.371
79312W        W38749   0.493   1.865  14.886
79313W        W38750  35.546   7.393  10.900
79314W        W38751   2.361   6.851   4.171
79315W        W38752  19.264  14.614  11.449
79316W        W38753   9.366  21.567  11.556
79317W        W38754  41.876   6.253  10.414
79318W        W38755  44.502  24.998   0.785
79319W        W38756  22.654  29.527  12.460
79320W        W38757  13.799   0.346  14.015
79321W        W38758   2.777  24.094   5.260
79322W        W38759   7.877  30.457   4.315
79323W        W38760   7.741  32.908  11.514
79324W        W38761  41.865  40.901  11.530
79325W        W38762   5.888  42.404  10.559
79326W        W38763  25.696  26.113   2.811
79327W        W38764  23.513   2.304   0.417
79328W        W38765   1.374   1.249  10.520
79329W        W38766  39.916  16.126  14.380
79330W        W38767  42.008  37.567   3.323
79331W        W38768  24.496  36.022   4.800
79332W        W38769  22.159  28.009  13.993
79333W        W38770   5.214  31.070   4.238
79334W        W38771  43.469  21.542  11.984
79335W        W38772  14.739  11.149  12.096
79336W        W38773   0.288  25.161  12.394
79337W        W38774  20.255  28.998   3.206
79338W        W38775  35.559  23.079  12.031
79339W        W38776  29.027  22.500  13.868
79340W        W38777  10.235  29.163   3.304
79341W        W38778  13.832  30.547   2.677
79342W        W38779  43.511  31.139  10.447
79343W        W38780  13.789   0.825  12.966
79344W        W38781  29.535  36.097  12.051
79345W        W38782  31.589   6.708  11.564
79346W        W38783  21.099  26.159   2.251
79347W        W38784  15.265  24.693  10.986
79348W        W38785   8.253  27.575   3.386
79349W        W38786   6.743  20.067   4.252
79350W        W38787  33.388  18.198  14.365
79351W        W38788  27.973  27.450  10.911
79352W        W38789  29.073  16.094   0.323
79353W        W38790   0.404  10.206   3.729
79354W        W38791  26.544  19.552   9.989
79355W        W38792  23.711  26.654  11.386
79356W        W38793  10.379  42.966   3.156
79357W        W38794  34.044  35.478  11.927
79358W        W38795  38.361  33.874   3.718
79359W        W38796  12.617  23.545   4.717
79360W        W38797   3.426  27.512  14.878
79361W        W38798  36.403  37.465   1.919
79362W        W38799  32.552   8.738   3.372
79363W        W38800  39.482  44.386  12.060
79364W        W38801  27.641  38.385   0.843
79365W        W38802  27.061  33.054  14.024
79366W        W38803  14.628  19.735  12.956
79367W        W38804   6.683  24.706   1.443
79368W        W38805   2.227   5.830   0.401
79369W        W38806  22.640  17.582   3.289
79370W        W38807  11.226  43.888   4.227
79371W        W38808  29.488  38.865  11.013
79372W        W38809  36.544  23.022   2.666
79373W        W38810  21.603  43.305   2.367
79374W        W38811  31.953   1.849   1.334
79375W        W38812  42.921  16.259   0.453
79376W        W38813   1.844  31.426  14.021
79377W        W38814  30.485   5.807  12.094
79378W        W38815   6.718  29.634   0.859
79379W        W38816  30.936  23.545   2.864
79380W        W38817  40.531  28.510  13.426
79381W        W38818   8.399  31.507   4.753
79382W        W38819  27.672   4.233  10.553
79383W        W38820  17.064  35.401   1.827
79384W        W38821  24.553  37.941   0.739
79385W        W38822  36.980  30.433  13.386
79386W        W38823  22.183  42.898   0.383
79387W        W38824  44.824  33.053   0.808
79388W        W38825  12.219  28.128   3.651
79389W        W38826  30.515  23.018  13.424
79390W        W38827   7.709  34.097  11.110
79391W        W38828  12.117   0.439  12.400
79392W        W38829  36.997  16.689   4.797
79393W        W38830  35.031   3.450   3.307
79394W        W38831  43.413  14.253   1.313
79395W        W38832   1.872  15.587   3.660
79396W        W38833  25.712   2.354  12.982
79397W        W38834   1.945  18.099   4.124
79398W        W38835  18.148  22.735  14.360
79399W        W38836  19.079  42.510  14.026
79400W        W38837   6.238   2.405   4.677
79401W        W38838  30.120  29.571   0.280
79402W        W38839  44.299  38.851  14.852
79403W        W38840  30.118  24.611  11.113
79404W        W38841  21.213   5.310   4.178
79405W        W38842   8.226  38.529   4.232
79406W        W38843  29.625   7.189  13.022
79407W        W38844  27.513  35.086   0.379
79408W        W38845  12.224  10.287  13.521
79409W        W38846   2.949   9.265  12.456
79410W        W38847  27.597  41.974   5.165
79411W        W38848   8.237   9.782  13.451
79412W        W38849  29.515   0.968   3.277
79413W        W38850  18.233   0.449  12.869
79414W        W38851  40.827  15.086  10.448
79415W        W38852   8.195   7.831   2.233
79416W        W38853  35.567   3.333  13.466
79417W        W38854  28.461   8.394   3.704
79418W        W38855  38.522  19.090  14.936
79419W        W38856  37.843  38.472  12.454
79420W        W38857   5.405  32.619  11.524
79421W        W38858  16.776  27.126  10.635
79422W        W38859   0.475  19.247   1.847
79423W        W38860  35.079  11.349  11.010
79424W        W38861  21.724  11.832   3.672
79425W        W38862  20.043  16.188  14.337
79426W        W38863  40.526  29.092   0.750
79427W        W38864  15.775  38.430   4.746
79428W        W38865  19.098   0.447   1.307
79429W        W38866  17.747  44.943  14.892
79430W        W38867  37.544  26.187   0.457
79431W        W38868  42.489  33.563   1.311
79432W        W38869  17.707  36.090   1.924
79433W        W38870  22.086  44.766   2.311
79434W        W38871  25.675  16.279  11.053
79435W        W38872  33.896  24.978   4.708
79436W        W38873  10.327   9.378   1.450
79437W        W38874  37.899  14.095   5.285
79438W        W38875  25.979  26.182   1.365
79439W        W38876  23.553  41.943  14.759
79440W        W38877  40.969  31.952  11.532
79441W        W38878  33.450  34.511  13.845
79442W        W38879  30.475  41.510   9.637
79443W        W38880  30.613  19.136  11.008
79444W        W38881  41.798  20.189   1.424
79445W        W38882  34.882  38.951  11.938
79446W        W38883  11.179  30.464  13.052
79447W        W38884   6.874  29.948   3.361
79448W        W38885   6.241  26.658  14.956
79449W        W38886  11.157   4.239  14.837
79450W        W38887  24.517  40.412  10.903
79451W        W38888  35.915  35.545   0.361
79452W        W38889   7.776   8.262   1.368
79453W        W38890  44.393  33.614  11.423
79454W        W38891  16.209  17.258  11.109
79455W        W38892  37.448  28.016  14.503
79456W        W38893  17.623  31.637   1.414
79457W        W38894  32.411  24.974  13.424
79458W        W38895  43.467  10.832   2.245
79459W        W38896  16.158  36.914  14.848
79460W        W38897  21.728  15.229   2.263
79461W        W38898  35.094  15.629   4.279
79462W        W38899  33.888   1.888   3.788
79463W        W38900  11.320  42.411   0.730
79464W        W38901  33.081  16.699   1.805
79465W        W38902  23.077  44.992  13.918
79466W        W38903   8.209  17.245   3.826
79467W        W38904  35.536   6.846  12.465
79468W        W38905  41.797  24.652   1.410
79469W        W38906  40.311  12.231   4.170
79470W        W38907   1.946  43.366  14.969
79471W        W38908  27.197   8.764  13.534
79472W        W38909   7.230  30.912  12.849
79473W        W38910  38.488  14.151   4.629
79474W        W38911  37.405  17.295  13.862
79475W        W38912  25.970  40.018  12.864
79476W        W38913  17.580  32.895  10.933
79477W        W38914  19.102  23.605   3.738
79478W        W38915   8.243  39.333  14.008
79479W        W38916  25.486   8.808   3.836
79480W        W38917  22.230  17.260   0.360
79481W        W38918  25.628   6.357   0.328
79482W        W38919  44.462  43.932  11.434
79483W        W38920  32.468  33.917  11.384
79484W        W38921   2.885  13.313  13.029
79485W        W38922  37.367  30.496  11.994
79486W        W38923  30.111   7.845  10.952
79487W        W38924  34.487   6.355  14.012
79488W        W38925  23.122  40.979   4.301
79489W        W38926  31.424   7.393  13.857
79490W        W38927  26.084   2.240   4.161
79491W        W38928  27.061  23.635   5.671
79492W        W38929  40.374  38.410  13.036
79493W        W38930  10.273   9.167  10.611
79494W        W38931  23.113  40.997  12.964
79495W        W38932  41.803   4.428   1.820
79496W        W38933   6.267  27.985   1.780
79497W        W38934  20.128  37.462   2.805
79498W        W38935  39.917  37.007   4.271
79499W        W38936  14.101  43.412   2.893
79500W        W38937   8.860  22.645  12.508
79501W        W38938   1.342  34.401   1.917
79502W        W38939  17.705  38.412  13.909
79503W        W38940   8.797  12.262  12.447
79504W        W38941   0.781  23.092  11.018
79505W        W38942  35.507   7.365  14.873
79506W        W38943  42.004  23.558   0.402
79507W        W38944  31.518   9.224  13.831
79508W        W38945  28.483  16.170   0.807
79509W        W38946  32.591   3.836  10.483
79510W        W38947  25.132  26.489  14.994
79511W        W38948   4.405  39.019  11.942
79512W        W38949  27.673   9.869   1.442
79513W        W38950  18.169  11.708   4.720
79514W        W38951  39.535  10.298   2.329
79515W        W38952  19.683   9.288  12.537
79516W        W38953  35.093  36.533   5.193
79517W        W38954   7.898   5.884   1.848
79518W        W38955  30.573  38.567   9.486
79519W        W38956  36.004  13.199   0.362
79520W        W38957  24.583  35.081  14.927
79521W        W38958   7.357  11.197   1.840
79522W        W38959  39.397   8.352  10.479
79523W        W38960   5.259  35.575   3.381
79524W        W38961  35.882  34.509   2.229
79525W        W38962   6.772  44.776   2.266
79526W        W38963   0.474  31.418  11.500
79527W        W38964  28.101  37.560  11.546
79528W        W38965   2.924  18.575  14.884
79529W        W38966  21.221  24.492   1.356
79530W        W38967  24.050  19.646   1.904
79531W        W38968  34.371  35.394   3.319
79532W        W38969  33.039   8.188   1.908
79533W        W38970   2.734  38.067  12.928
79534W        W38971  24.591  37.512  11.587
79535W        W38972  36.363   1.324  10.887
79536W        W38973  31.095  18.125  12.927
79537W        W38974  16.259  22.500  12.511
79538W        W38975  38.846  15.121   2.408
79539W        W38976  41.449   2.863   2.265
79540W        W38977  22.622  20.059   1.297
79541W        W38978  16.608  24.653   4.658
79542W        W38979   9.298   9.356  10.934
79543W        W38980  16.311  25.174  13.461
79544W        W38981  19.594  29.584  11.974
79545W        W38982  28.647   6.805  13.451
79546W        W38983   6.223  43.516   0.309
79547W        W38984   8.174  10.216  11.411
79548W        W38985  19.242  34.865  13.879
79549W        W38986  42.972  13.728   0.852
79550W        W38987  41.334   9.228  12.986
79551W        W38988  40.001   8.745  14.864
79552W        W38989  11.282  36.411   1.314
79553W        W38990  32.394  13.334   2.781
79554W        W38991  24.063  25.678   0.321
79555W        W38992  29.641  42.904  12.416
79556W        W38993  31.640  15.614   4.611
79557W        W38994  27.560  29.006   0.757
79558W        W38995  17.763   9.840   1.781
79559W        W38996  22.227  38.361  13.861
79560W        W38997   5.749  41.460  14.428
79561W        W38998  28.128  12.709   3.775
79562W        W38999  17.131  17.775   1.304
79563W        W39000  17.213  33.051   3.708
79564W        W39001  40.862  42.853   3.854
79565W        W39002   5.758  41.939   1.813
79566W        W39003  26.009  15.591   3.765
79567W        W39004  40.526  17.094  12.510
79568W        W39005   9.799  27.544  12.086
79569W        W39006  24.075   0.365   2.388
79570W        W39007   3.421  28.101   2.809
79571W        W39008  18.627  22.511   3.346
79572W        W39009  17.109   9.695   2.416
79573W        W39010  19.717  23.234  11.604
79574W        W39011   2.360  24.583  12.425
79575W        W39012  26.160  39.021   0.951
79576W        W39013  24.579  33.488  12.070
79577W        W39014  10.774  15.755   0.761
79578W        W39015  37.984   5.744   2.777
79579W        W39016  21.735  33.435  13.453
79580W        W39017  21.134  16.684   1.230
79581W        W39018  18.198   7.872   1.369
79582W        W39019  25.713   9.165   2.394
79583W        W39020  32.393   0.492   3.219
79584W        W39021  44.430  35.566  12.965
79585W        W39022  31.035   9.858   3.295
79586W        W39023  21.705  39.003  10.513
79587W        W39024   2.450  31.065  10.902
79588W        W39025  40.002  26.019  10.897
79589W        W39026  40.388  10.734   0.738
79590W        W39027  39.034  14.675   4.319
79591W        W39028  32.912  14.309  14.493
79592W        W39029  31.496  33.907  10.536
79593W        W39030  22.250   1.449  10.563
79594W        W39031   7.799  30.089   4.726
79595W        W39032  39.408  26.971  13.391
79596W        W39033   6.694   7.890   2.719
79597W        W39034  38.901   2.423   2.306
79598W        W39035  16.082  17.292   0.318
79599W        W39036  43.817  42.967  10.150
79600W        W39037  23.570  24.230  13.389
79601W        W39038  42.792   4.764   4.152
79602W        W39039  19.695   2.308   2.233
79603W        W39040  40.358   2.827   3.329
79604W        W39041   3.750  21.620  13.343
79605W        W39042   3.902  19.766   3.851
79606W        W39043  18.053  32.900  11.605
79607W        W39044  15.654  13.793   0.962
79608W        W39045  32.062  13.833  11.414
79609W        W39046  38.992  16.727   4.299
79610W        W39047  28.644  15.682   0.875
79611W        W39048  41.985  37.380   1.395
79612W        W39049  17.299  17.655   4.254
79613W        W39050  43.272   4.269  14.768
79614W        W39051   0.892   6.336   2.348
79615W        W39052  37.537  30.144  11.042
79616W        W39053  26.689  19.632  13.437
79617W        W39054  42.795  22.648   4.632
79618W        W39055   3.252  31.438  11.963
79619W        W39056   5.716  22.537  14.365
79620W        W39057  23.041   9.276   3.770
79621W        W39058  25.504  18.280   2.295
79622W        W39059  16.149  30.470   4.814
79623W        W39060   9.354  40.008  10.482
79624W        W39061  38.516  18.062  14.013
79625W        W39062  34.876  43.781   1.918
79626W        W39063  26.011  36.582   4.333
79627W        W39064  16.646  44.884  12.074
79628W        W39065  21.662  32.985   3.316
79629W        W39066  42.435   0.249   4.116
79630W        W39067  13.187  11.251   4.283
79631W        W39068   2.227  30.477   4.675
79632W        W39069  24.212  32.585   4.214
79633W        W39070  16.093  14.798  12.484
79634W        W39071  15.717   2.439  13.054
79635W        W39072  24.189  43.288  10.949
79636W        W39073  28.088  34.040   3.259
79637W        W39074  34.041  37.339   4.189
79638W        W39075  18.069  20.209  11.601
79639W        W39076  40.376   7.251   3.633
79640W        W39077  36.958  43.002  10.482
79641W        W39078   0.416  20.046  13.332
79642W        W39079  43.376  14.246  14.962
79643W        W39080   7.252   5.383   0.447
79644W        W39081  29.569   7.262   3.638
79645W        W39082  42.912  39.504   0.957
79646W        W39083  22.643   9.754  14.981
79647W        W39084  35.891   9.211  14.484
79648W        W39085  10.853   0.295  14.881
79649W        W39086   2.831   5.710  14.857
79650W        W39087   2.457  21.124   4.149
79651W        W39088   1.312  15.289  12.990
79652W        W39089  21.624   5.729   4.224
79653W        W39090  17.263  12.177  12.399
79654W        W39091  43.426  36.488  13.338
79655W        W39092   5.358  41.879  12.352
79656W        W39093  30.050  35.600   0.908
79657W        W39094  42.823  23.587   1.226
79658W        W39095  23.009  24.621   0.272
79659W        W39096  14.683  10.867   1.842
79660W        W39097   9.268   4.913  10.089
79661W        W39098   2.820  39.491  11.046
79662W        W39099  19.124   2.946   2.737
79663W        W39100  12.203  17.238  11.565
79664W        W39101  22.534  29.568   4.764
79665W        W39102   6.248  36.994   1.856
79666W        W39103  12.277  11.263   3.826
79667W        W39104   5.890   3.738  13.026
79668W        W39105  17.689  37.942   2.292
79669W        W39106   8.839  10.139  11.396
79670W        W39107   1.885   8.844  13.033
79671W        W39108   3.883  36.421  11.523
79672W        W39109  30.594   8.850   3.735
79673W        W39110   5.221   0.859  12.404
79674W        W39111  23.133   0.281  12.945
79675W        W39112  35.552  32.138   1.745
79676W        W39113   4.850   3.814  11.971
79677W        W39114   9.304  30.557   3.687
79678W        W39115   9.362  16.594  12.918
79679W        W39116  33.060   0.828   1.218
79680W        W39117   0.427  15.147  14.350
79681W        W39118  16.665  27.168   3.288
79682W        W39119  36.973  41.430  13.413
79683W        W39120  37.495   6.427  13.929
79684W        W39121  35.366  39.457  13.946
79685W        W39122  34.578  31.432   0.839
79686W        W39123  19.651  17.229   1.221
79687W        W39124   2.927  24.690  12.070
79688W        W39125  11.778  22.019  12.941
79689W        W39126  11.174   1.304   4.159
79690W        W39127  32.594  19.270   1.397
79691W        W39128  13.657  13.172  14.312
79692W        W39129   8.735  17.801   1.436
79693W        W39130  33.947  32.994   4.804
79694W        W39131  34.928  34.559   2.217
79695W        W39132  15.148  28.066  11.860
79696W        W39133  11.331  12.151  10.613
79697W        W39134  38.352  12.853   4.675
79698W        W39135  21.712  19.765  10.489
79699W        W39136  19.188  43.385   5.087
79700W        W39137  41.401  24.513   3.233
79701W        W39138  39.441  18.178  13.468
79702W        W39139  22.207  15.644  12.429
79703W        W39140  10.769  39.931  15.000
79704W        W39141  23.559  38.519   2.262
79705W        W39142  38.914  39.905   0.462
79706W        W39143  39.999  26.026   0.354
79707W        W39144  27.196   6.232  11.126
79708W        W39145  17.107  40.362   2.256
79709W        W39146  30.103   1.442   1.900
79710W        W39147  41.535  43.379   2.786
79711W        W39148  26.563  24.032   1.421
79712W        W39149   2.454  22.093   1.784
79713W        W39150  33.566  30.067  13.015
79714W        W39151  32.501  23.226   9.650
79715W        W39152  37.573   3.331   0.755
79716W        W39153   9.247  36.389  11.892
79717W        W39154  36.511  10.286  14.312
79718W        W39155   5.828  38.470  12.411
79719W        W39156  22.129  25.214   0.925
79720W        W39157  23.020  34.482  14.449
79721W        W39158  29.463  11.148   0.746
79722W        W39159  29.092  12.704   5.672
79723W        W39160  29.645  13.623   1.240
79724W        W39161  11.347   8.656  13.011
79725W        W39162   7.183  30.002   1.814
79726W        W39163  37.048   6.856  11.024
79727W        W39164  13.790  19.584   1.253
79728W        W39165  38.842  18.596   2.775
79729W        W39166  26.003  27.086   0.945
79730W        W39167  27.170  34.074   3.336
79731W        W39168  33.010  33.104  14.325
79732W        W39169   3.781  30.004   0.287
79733W        W39170  31.070  14.259   4.242
79734W        W39171   6.209  32.616   1.831
79735W        W39172   3.408  36.526  14.784
79736W        W39173  37.874  14.233  11.513
79737W        W39174   5.837   1.466  10.565
79738W        W39175  26.206  24.073   3.843
79739W        W39176  33.098  11.290  13.991
79740W        W39177   4.330  34.507   0.726
79741W        W39178   1.474  35.517   4.265
79742W        W39179  44.432  22.672   2.762
79743W        W39180  20.742  33.582  12.472
79744W        W39181  12.193  24.717  14.958
79745W        W39182  28.475   4.381   3.870
79746W        W39183  31.039  43.298   0.941
79747W        W39184   0.366   1.962  13.914
79748W        W39185  39.450   1.419   4.813
79749W        W39186  34.881  41.816   1.913
79750W        W39187  32.990  14.221   3.347
79751W        W39188  34.052   8.858   1.299
79752W        W39189  41.832   9.762  12.914
79753W        W39190  28.672   3.942  12.938
79754W        W39191   5.437  41.790  12.830
79755W        W39192   6.245  21.569  14.385
79756W        W39193  29.584  44.422  10.982
79757W        W39194  30.928  41.821  10.578
79758W        W39195  10.150  29.033   2.858
79759W        W39196  15.304  35.021   3.759
79760W        W39197  16.704  16.181   2.242
79761W        W39198  14.240   5.234   3.171
79762W        W39199  21.710  14.592   0.462
79763W        W39200  35.468  19.772   5.234
79764W        W39201   7.201   1.418  14.994
79765W        W39202  35.515  34.427  12.860
79766W        W39203  24.497  25.671   4.186
79767W        W39204   2.288  39.063  14.016
79768W        W39205  25.161   5.199  14.795
79769W        W39206  39.989  16.670   4.804
79770W        W39207  38.826  37.867  11.579
79771W        W39208  37.453  38.459   4.350
79772W        W39209  16.752  26.559  14.409
79773W        W39210  30.012  33.483  12.900
79774W        W39211  23.997  40.010  14.445
79775W        W39212  29.453  28.628  13.361
79776W        W39213  17.607   9.276  14.461
79777W        W39214  44.281  33.586  11.077
79778W        W39215  41.839  10.284  14.939
79779W        W39216  22.558   5.312  12.494
79780W        W39217  38.043   4.244   3.808
79781W        W39218  42.519  24.507   2.415
79782W        W39219  23.549  19.565   1.911
79783W        W39220  15.168  20.205  12.095
79784W        W39221  17.754  33.034  13.945
79785W        W39222  29.013  20.710  13.946
79786W        W39223  15.243  34.998   4.825
79787W        W39224  35.524  30.636  10.588
79788W        W39225  38.076  24.174   0.355
79789W        W39226  22.142  41.304  10.502
79790W        W39227   3.347   6.414  11.037
79791W        W39228  16.203  14.712  10.575
79792W        W39229  18.138  13.618   4.280
79793W        W39230  19.712  40.914  10.990
79794W        W39231  15.674  12.651  12.559
79795W        W39232  14.216  21.245  12.930
79796W        W39233   0.980  36.959   3.773
79797W        W39234  19.117  24.049  14.429
79798W        W39235  16.144  19.129   0.314
79799W        W39236  41.010  44.851   0.842
79800W        W39237  16.154   4.414   1.894
79801W        W39238   9.153  32.430   1.235
79802W        W39239   1.832  44.817   0.354
79803W        W39240   5.916  11.653   3.200
79804W        W39241  15.139  19.278   4.831
79805W        W39242  37.924  20.715  11.496
79806W        W39243  11.128  27.533   2.234
79807W        W39244  14.767  27.506   1.907
79808W        W39245   1.937  35.925   2.866
79809W        W39246  30.943  19.688  11.431
79810W        W39247   4.868  12.835  13.311
79811W        W39248  36.533  16.708   3.766
79812W        W39249  14.775  15.598  10.425
79813W        W39250  13.622  21.514   4.804
79814W        W39251  41.988  17.685   4.797
79815W        W39252  28.439  15.233   3.674
79816W        W39253  39.055  17.797  12.021
79817W        W39254  13.650  17.094   4.317
79818W        W39255  26.696  15.730   1.439
79819W        W39256  36.017   9.654   2.697
79820W        W39257  12.343  23.163  11.889
79821W        W39258  31.956   5.333  12.879
79822W        W39259  44.754  28.954  13.495
79823W        W39260   0.816   6.399   4.238
79824W        W39261  20.076   7.215   1.800
79825W        W39262   6.404  36.905  13.062
79826W        W39263  25.646  22.999   9.954
79827W        W39264  28.568  31.992  14.392
79828W        W39265  25.062  35.012   0.296
79829W        W39266  16.261  18.660  12.836
79830W        W39267  13.282   6.806  13.986
79831W        W39268  13.663   8.374   3.335
79832W        W39269   0.962  18.111  12.895
79833W        W39270  32.624  39.028  12.551
79834W        W39271  15.237  40.016   3.682
79835W        W39272   8.207  37.059   0.847
79836W        W39273  15.233  18.157   3.725
79837W        W39274  19.186  44.294   0.352
79838W        W39275  27.659  25.177   4.631
79839W        W39276  41.381  13.149   2.180
79840W        W39277   8.794  31.561   1.390
79841W        W39278  42.864  13.270  14.491
79842W        W39279  39.047  30.485  13.320
79843W        W39280  23.691  16.081  11.400
79844W        W39281   3.854  17.270   2.674
79845W        W39282   8.317  30.147  11.120
79846W        W39283  31.144  25.659   1.297
79847W        W39284   1.284  10.712  10.041
79848W        W39285  26.187  25.994  12.501
79849W        W39286  25.554  35.885  13.928
79850W        W39287  29.646  29.972  11.456
79851W        W39288  17.245  21.588   0.265
79852W        W39289   0.409   0.966  13.992
79853W        W39290  16.117   6.862  12.481
79854W        W39291   9.188  18.787  11.088
79855W        W39292  11.220  35.402  11.007
79856W        W39293  23.505  37.468   1.367
79857W        W39294  30.607  25.038   0.298
79858W        W39295  21.216   3.941   1.443
79859W        W39296   9.372   6.238  12.987
79860W        W39297   7.845  29.636   4.313
79861W        W39298  39.972  38.840   4.314
79862W        W39299  11.179   9.873  10.945
79863W        W39300  32.438   0.828   0.839
79864W        W39301  43.356  37.969  13.905
79865W        W39302  41.420   8.205  14.944
79866W        W39303  36.505  26.956  13.033
79867W        W39304  38.846  32.106   3.382
79868W        W39305   5.355  30.560  11.107
79869W        W39306  14.685  15.632   1.700
79870W        W39307  36.973  24.653   3.243
79871W        W39308  21.062  28.455   2.756
79872W        W39309  11.311  37.388  11.863
79873W        W39310  25.972  20.619  11.996
79874W        W39311  20.035  13.107   3.164
79875W        W39312  12.784  37.487  12.363
79876W        W39313  40.008  19.763  14.771
79877W        W39314  19.127  41.974   3.696
79878W        W39315  43.440  44.436   1.833
79879W        W39316  11.790   5.920   3.162
79880W        W39317  13.631  16.738   4.706
79881W        W39318  19.211  44.370   5.106
79882W        W39319  43.799  34.386   2.840
79883W        W39320  22.554  12.611   3.256
79884W        W39321  43.381  12.343  13.359
79885W        W39322  27.445  43.346  12.520
79886W        W39323  36.876  33.424   2.902
79887W        W39324   5.714  16.693  14.000
79888W        W39325  34.516   5.854  13.803
79889W        W39326  11.621  36.862   1.759
79890W        W39327  21.716  36.006  12.565
79891W        W39328  24.036  31.533   4.629
79892W        W39329  14.775  33.551   0.319
79893W        W39330  22.723  22.041   0.356
79894W        W39331  30.578   2.366  11.018
79895W        W39332  30.964  37.409  11.955
79896W        W39333  42.427  20.092   2.776
79897W        W39334  24.725  19.570   2.792
79898W        W39335  23.682  20.215  10.527
79899W        W39336  37.507  43.903   1.240
79900W        W39337  25.522  29.939   3.338
79901W        W39338  38.902   1.469   0.884
79902W        W39339  40.355   6.205   2.252
79903W        W39340  22.550  26.516   4.165
79904W        W39341   8.322  41.960   2.380
79905W        W39342   2.849  15.707   1.448
79906W        W39343  11.671  15.177  10.075
79907W        W39344  35.871   5.359   2.318
79908W        W39345   4.354  15.731   2.691
79909W        W39346  40.525  41.868  11.455
79910W        W39347   8.370  33.127   3.654
79911W        W39348  21.074  21.694  13.974
79912W        W39349   6.200   3.870  13.041
79913W        W39350  18.746  14.160   3.725
79914W        W39351   1.284  21.071  14.414
79915W        W39352   6.321  42.994   5.172
79916W        W39353   5.310  42.490  13.488
79917W        W39354  34.442  14.642  14.010
79918W        W39355   5.865  15.134   0.296
79919W        W39356  26.019  17.236   0.878
79920W        W39357  41.886  24.205   5.083
79921W        W39358  28.672  10.687  13.471
79922W        W39359  22.091  17.167  12.458
79923W        W39360  18.629   0.460   0.852
79924W        W39361  27.671  26.575  11.857
79925W        W39362  18.071  38.451  12.402
79926W        W39363  28.637  34.482  11.017
79927W        W39364  42.447  27.581   3.215
79928W        W39365  41.492  19.155  14.513
79929W        W39366  14.755   3.846  12.554
79930W        W39367  32.449  29.073  10.566
79931W        W39368  39.013   2.939  11.429
79932W        W39369  32.888   8.857   0.439
79933W        W39370  11.670  39.315  11.493
79934W        W39371   2.918   5.699   4.142
79935W        W39372  13.171  42.915  10.640
79936W        W39373  33.965  28.035   2.359
79937W        W39374   2.888  13.691   9.642
79938W        W39375  30.571   0.339  11.858
79939W        W39376   4.325  27.189  14.981
79940W        W39377   7.283  25.694   0.775
79941W        W39378  37.051  13.234  13.814
79942W        W39379  15.175  28.596  12.439
79943W        W39380   7.376  36.064  12.828
79944W        W39381  38.953  39.916  12.026
79945W        W39382  42.413   8.845  10.422
79946W        W39383  39.942  11.756   3.341
79947W        W39384   8.267  37.045   1.933
79948W        W39385  30.658  20.541   2.196
79949W        W39386  43.418  42.819   5.248
79950W        W39387   7.263  32.599  13.348
79951W        W39388   2.757  32.564   0.882
79952W        W39389  12.615  16.225   3.354
79953W        W39390  34.948   6.774  14.952
79954W        W39391  25.534  35.027   2.857
79955W        W39392  10.687  34.090   3.656
79956W        W39393   3.945   2.822  14.912
79957W        W39394  20.273  21.245  13.436
79958W        W39395  26.667  28.625  10.956
79959W        W39396  13.827  43.892   3.759
79960W        W39397   8.722  15.586   4.613
79961W        W39398  19.691  24.995  10.411
79962W        W39399  34.924  37.389   2.274
79963W        W39400  39.396   8.802  12.390
79964W        W39401  44.846  23.235  10.573
79965W        W39402  21.663  19.115  12.581
79966W        W39403  23.060  30.080  10.922
79967W        W39404   1.443  38.917   1.773
79968W        W39405  17.287  18.253   1.239
79969W        W39406  25.125   7.357  14.905
79970W        W39407  22.021  39.934   4.614
79971W        W39408  33.904  19.085   0.408
79972W        W39409   5.406  32.445  13.985
79973W        W39410   5.842  21.077  12.887
79974W        W39411  22.113  27.987   3.240
79975W        W39412  43.452  38.328   3.741
79976W        W39413   4.791  20.645  14.922
79977W        W39414  28.458  31.934  12.459
79978W        W39415  38.384   5.857   1.402
79979W        W39416  28.951  28.678   3.756
79980W        W39417  11.845   9.733   1.243
79981W        W39418  27.176  33.075   1.255
79982W        W39419  21.140  24.012   1.886
79983W        W39420  36.865  28.062   0.894
79984W        W39421  35.580  11.751   4.185
79985W        W39422  29.593  28.620  10.602
79986W        W39423  39.987  41.824  11.447
79987W        W39424  34.514  43.012  11.015
79988W        W39425  11.709  40.054   3.704
79989W        W39426  39.421  23.671   1.361
79990W        W39427  34.893  12.722   0.293
79991W        W39428  24.073   8.775   4.123
79992W        W39429   7.321  18.170  12.345
79993W        W39430  26.020   2.426   0.931
79994W        W39431  41.835   5.790   0.269
79995W        W39432  41.435  37.940   0.783
79996W        W39433  30.544  17.278  13.361
79997W        W39434  41.010  21.059  14.759
79998W        W39435   4.816  43.451  13.442
79999W        W39436  44.452  44.899   1.401
80000W        W39437  22.637  42.286  12.565
80001W        W39438  34.535  31.949  13.343
80002W        W39439  25.583  20.116  14.479
80003W        W39440   3.334   0.323  12.960
80004W        W39441   7.772  34.020   1.268
80005W        W39442  15.628   7.244   1.775
80006W        W39443  15.264   1.823   2.400
80007W        W39444  28.659  35.377  14.423
80008W        W39445  34.524   4.264   2.256
80009W        W39446  29.976  34.949   2.734
80010W        W39447  36.855  10.380   3.800
80011W        W39448  27.169  43.961   0.457
80012W        W39449  16.706  43.848   1.420
80013W        W39450  32.465  23.162   1.846
80014W        W39451   5.430  17.643  13.990
80015W        W39452   1.835   1.482  10.568
80016W        W39453  42.303  42.949   0.438
80017W        W39454  11.285  37.851   2.793
80018W        W39455  37.065  38.405   4.794
80019W        W39456  14.305  10.176  14.974
80020W        W39457  42.839  20.256   2.213
80021W        W39458  24.696   1.321  10.956
80022W        W39459  28.580  41.934  11.057
80023W        W39460  41.935  43.425   1.451
80024W        W39461  17.664  25.217   3.688
80025W        W39462   7.405  15.256  11.111
80026W        W39463  21.186  14.737   0.263
80027W        W39464  44.345  28.053   4.750
80028W        W39465  28.553  39.476   1.795
80029W        W39466  38.853  35.018  14.834
80030W        W39467  19.099  30.127   4.237
80031W        W39468  44.815   4.856  11.086
80032W        W39469  42.443  29.624  13.519
80033W        W39470  22.070  21.108  12.997
80034W        W39471  17.729  39.362  12.523
80035W        W39472  18.110  11.252  14.830
80036W        W39473   2.442  32.547  14.832
80037W        W39474  35.482  38.473   1.230
80038W        W39475   3.722   8.224   1.426
80039W        W39476   3.332  14.223  10.086
80040W        W39477  34.959  43.800  14.289
80041W        W39478  16.702  13.610   1.746
80042W        W39479  40.000  18.155   1.362
80043W        W39480  28.665   9.695  11.858
80044W        W39481  39.061  10.314   2.705
80045W        W39482  12.322   4.443  12.990
80046W        W39483  40.884   8.383   4.734
80047W        W39484   2.328  13.109   2.417
80048W        W39485   1.337  20.195   0.874
80049W        W39486  25.105  35.391   2.228
80050W        W39487  25.113  15.173   0.274
80051W        W39488  24.168   5.930   4.125
80052W        W39489   1.741  20.762   2.271
80053W        W39490  20.226  12.843   0.816
80054W        W39491  41.855  42.369   3.869
80055W        W39492  16.635   5.921  12.029
80056W        W39493  38.070  38.571   0.443
80057W        W39494  40.960  13.346   0.382
80058W        W39495  30.131  17.121   0.892
80059W        W39496  22.677  31.097   4.835
80060W        W39497  19.055   1.470   1.830
80061W        W39498  18.671  34.980   1.353
80062W        W39499   4.360  18.283  12.917
80063W        W39500  28.572  18.289   4.716
80064W        W39501   2.944  42.469   0.817
80065W        W39502  37.957   0.278  14.768
80066W        W39503  29.494   6.799   1.805
80067W        W39504  41.995   6.315   5.243
80068W        W39505  12.227  12.730  13.397
80069W        W39506  27.029  13.727   0.767
80070W        W39507  32.595  41.902   3.277
80071W        W39508  36.350   3.297  11.883
80072W        W39509  36.492  30.454   9.953
80073W        W39510  25.995  27.066  11.879
80074W        W39511  18.114  15.752  14.302
80075W        W39512  38.870  25.015   5.248
80076W        W39513  28.052  12.748   2.663
80077W        W39514  17.767   9.778   0.245
80078W        W39515  21.249  30.588  13.955
80079W        W39516  12.850   4.929  14.331
80080W        W39517  37.048  40.863  12.939
80081W        W39518  18.080   4.258  12.867
80082W        W39519  32.937   6.915   3.861
80083W        W39520   3.422  43.419   2.314
80084W        W39521  30.158  31.464   0.294
80085W        W39522   8.360  11.221  10.924
80086W        W39523  17.132  22.691  10.080
80087W        W39524   0.816  14.723   3.782
80088W        W39525  23.008  17.615   5.290
80089W        W39526  29.158  27.646   0.339
80090W        W39527  41.517  14.821  13.475
80091W        W39528  10.358   3.219   4.201
80092W        W39529  28.545  16.587   2.400
80093W        W39530  39.927  12.236  11.889
80094W        W39531  22.221  13.660  10.959
80095W        W39532  31.578  31.051  11.582
80096W        W39533  40.938  28.554  14.778
80097W        W39534  36.509   0.269   0.395
80098W        W39535  36.453  20.700  10.900
80099W        W39536  44.785  42.861   0.256
80100W        W39537  13.140   9.795  10.916
80101W        W39538   9.200   0.849   3.842
80102W        W39539  25.164  35.604   1.347
80103W        W39540  21.212   9.885   4.813
80104W        W39541   6.762  23.598  10.502
80105W        W39542  18.147   1.287  13.851
80106W        W39543  43.288  25.195  10.022
80107W        W39544  29.560   9.793  13.917
80108W        W39545  37.482   8.781   3.792
80109W        W39546   9.199  31.408  13.020
80110W        W39547   3.237  33.490  13.458
80111W        W39548  22.105   8.346  14.974
80112W        W39549  21.113  31.407   1.364
80113W        W39550   7.287  14.778  14.377
80114W        W39551  40.916  28.460   4.127
80115W        W39552  17.080  37.405  12.018
80116W        W39553  21.612  37.048  10.937
80117W        W39554  15.755   6.732   1.233
80118W        W39555  26.618   9.256  10.576
80119W        W39556   9.651  29.456   0.906
80120W        W39557  11.130  42.991   3.697
80121W        W39558  42.982  16.631   1.357
80122W        W39559  13.649  39.955   0.350
80123W        W39560  29.621  16.807  10.490
80124W        W39561  22.613  39.037  11.040
80125W        W39562   3.747  15.147  13.335
80126W        W39563  16.748  43.984  11.947
80127W        W39564   4.797  42.512  10.486
80128W        W39565  41.905  13.162  11.070
80129W        W39566   6.402   2.245  12.425
80130W        W39567   6.765   2.342   2.739
80131W        W39568  25.528   1.377   4.336
80132W        W39569  11.814  16.180  13.901
80133W        W39570  31.621  30.441   4.785
80134W        W39571  16.264  39.421   1.738
80135W        W39572  13.234  39.972   0.809
80136W        W39573  13.650  20.728   0.469
80137W        W39574  15.822  13.234  12.068
80138W        W39575  38.960   8.209  10.534
80139W        W39576   6.205  11.247   1.431
80140W        W39577  14.244   2.264  10.421
80141W        W39578  31.605   6.866   4.191
80142W        W39579  11.177  28.497  12.018
80143W        W39580  10.822   2.238  10.637
80144W        W39581  38.946  15.597  13.323
80145W        W39582  39.396  34.085   2.314
80146W        W39583   0.980  44.426   4.717
80147W        W39584  31.521   1.355  14.396
80148W        W39585  22.234  15.316  12.427
80149W        W39586  10.727  30.024   2.743
80150W        W39587  27.064  41.011   0.767
80151W        W39588  12.245   6.424   0.748
80152W        W39589  21.102   6.815   1.332
80153W        W39590   3.270  17.672  14.797
80154W        W39591   3.239  35.904   2.738
80155W        W39592  12.679  32.140  11.058
80156W        W39593  37.574  14.196  13.842
80157W        W39594  43.885   4.250   0.476
80158W        W39595  38.501   6.884  13.479
80159W        W39596  19.189   6.912   1.252
80160W        W39597  15.329  43.343   1.377
80161W        W39598  10.285   7.848  11.046
80162W        W39599   7.224   8.701  12.509
80163W        W39600  15.592   8.205   1.728
80164W        W39601  43.809  24.599  12.935
80165W        W39602  21.239  15.729   3.216
80166W        W39603  21.623  16.257   3.210
80167W        W39604  22.227  43.967  14.358
80168W        W39605  28.071  41.892  10.962
80169W        W39606   6.800  44.285  12.026
80170W        W39607   0.297  25.575  11.909
80171W        W39608  11.245  32.928  12.402
80172W        W39609  25.713  26.510   1.698
80173W        W39610  42.283  30.981   4.305
80174W        W39611  13.276  37.498  12.449
80175W        W39612  41.495  19.635   1.387
80176W        W39613  14.152  21.151   0.414
80177W        W39614  39.492  19.282   2.791
80178W        W39615  10.653  19.213   1.248
80179W        W39616  22.012  17.265   4.337
80180W        W39617   4.394  19.233   4.202
80181W        W39618  35.544  12.118   1.904
80182W        W39619   1.765  38.914  13.844
80183W        W39620  33.399  21.023   0.355
80184W        W39621  21.642  18.126   0.328
80185W        W39622  34.463  24.627   1.742
80186W        W39623  18.106   1.792   2.682
80187W        W39624  31.963  30.487   0.776
80188W        W39625   3.722  29.112   2.822
80189W        W39626   4.731  42.495   3.745
80190W        W39627  41.402  18.200   3.326
80191W        W39628  36.020  20.609   2.325
80192W        W39629   2.292  33.971   1.290
80193W        W39630  11.342   0.364  14.778
80194W        W39631   8.713  27.496  10.567
80195W        W39632  39.042  41.850   5.083
80196W        W39633   6.724  27.662  13.002
80197W        W39634   3.867  33.491   3.252
80198W        W39635  39.490  31.638   2.349
80199W        W39636  41.391  34.940   0.298
80200W        W39637  40.476  15.126   3.244
80201W        W39638  27.194  11.127   2.217
80202W        W39639  20.118  11.320  14.009
80203W        W39640  35.526   0.337  12.029
80204W        W39641  33.114  18.551  13.886
80205W        W39642  21.210  38.347   2.286
80206W        W39643  36.858  10.869   1.245
80207W        W39644  37.060   1.462   2.306
80208W        W39645   7.388  10.863  12.436
80209W        W39646  42.389  23.594   0.936
80210W        W39647  28.987  10.653  11.414
80211W        W39648  22.109  31.980  14.002
80212W        W39649   3.827  26.073  13.807
80213W        W39650  11.664  12.847  12.919
80214W        W39651   7.875  20.697   1.880
80215W        W39652  43.867   4.212  12.935
80216W        W39653  27.491  25.110  14.321
80217W        W39654  12.627   4.884  14.950
80218W        W39655  14.659  33.065  11.417
80219W        W39656   5.908   2.732   1.370
80220W        W39657  16.273  15.751   1.387
80221W        W39658   4.382  38.025  11.397
80222W        W39659  39.023  28.508   3.719
80223W        W39660  42.861  41.845  12.043
80224W        W39661  32.007  22.545   9.934
80225W        W39662  17.686  31.506   4.624
80226W        W39663   1.892  14.699   0.916
80227W        W39664  44.412   4.323  13.516
80228W        W39665  30.618  44.954  13.449
80229W        W39666  13.707   8.357  12.530
80230W        W39667  15.321  17.178  11.524
80231W        W39668  21.608  26.596   1.395
80232W        W39669  19.222  28.995  10.476
80233W        W39670  43.480  25.104   0.453
80234W        W39671  28.564   6.914   0.282
80235W        W39672  18.666  19.552   2.694
80236W        W39673  27.036  34.882  11.965
80237W        W39674   6.788  27.661   0.789
80238W        W39675  38.448   8.322   1.819
80239W        W39676  31.934  11.162  14.883
80240W        W39677  38.342  25.688   3.146
80241W        W39678  41.363  42.850  13.397
80242W        W39679  27.624   5.757   4.144
80243W        W39680  14.732  27.108   0.341
80244W        W39681  35.041  12.327  12.374
80245W        W39682   8.849  18.118   3.322
80246W        W39683  14.620  22.702  10.411
80247W        W39684   6.749  33.622   2.193
80248W        W39685  20.131  23.489   4.291
80249W        W39686   6.789  25.169  13.412
80250W        W39687  30.990  32.020  12.433
80251W        W39688   6.229   5.193   4.768
80252W        W39689  40.441  22.030   0.331
80253W        W39690  13.639  19.047   1.308
80254W        W39691   9.262  22.127   2.691
80255W        W39692   5.439  25.578  10.432
80256W        W39693  14.791  18.609  11.871
80257W        W39694  36.904  21.109  12.018
80258W        W39695  33.505  18.647  13.365
80259W        W39696  30.008  22.524  14.937
80260W        W39697  43.805   3.859   3.769
80261W        W39698  38.449   1.263   4.207
80262W        W39699  30.061  27.568   3.770
80263W        W39700  24.137  10.170  14.367
80264W        W39701  39.991  28.481   4.653
80265W        W39702   3.742  25.653   1.931
80266W        W39703  21.592  18.129   4.676
80267W        W39704  33.905  11.685  11.872
80268W        W39705   3.932  31.093   1.417
80269W        W39706  34.588   7.376   3.271
80270W        W39707  38.851   8.291  11.472
80271W        W39708  29.941   9.256   0.785
80272W        W39709  18.723  19.650   3.275
80273W        W39710  33.595  31.588  13.325
80274W        W39711  33.127  33.949  12.058
80275W        W39712  18.286  30.606  12.975
80276W        W39713  33.449  21.523   1.920
80277W        W39714  29.529  11.806  12.395
80278W        W39715  12.691  26.081  13.320
80279W        W39716  28.517  33.974   2.278
80280W        W39717  42.433  10.175   1.839
80281W        W39718  19.713  26.085  12.007
80282W        W39719  34.534  13.334   1.778
80283W        W39720  24.709  44.454  13.829
80284W        W39721  43.973  42.801  14.280
80285W        W39722  30.133  18.788   0.268
80286W        W39723   0.960  40.931  13.027
80287W        W39724  21.214   7.717   1.842
80288W        W39725  36.941   9.885   2.797
80289W        W39726  11.283  34.987  11.488
80290W        W39727  43.911  37.978   2.711
80291W        W39728   5.217   6.299  11.423
80292W        W39729   3.292  27.175  10.637
80293W        W39730   0.754  18.102   4.736
80294W        W39731  22.697  41.971  13.465
80295W        W39732  36.927  30.134   1.889
80296W        W39733  44.467  15.624   2.347
80297W        W39734  31.919  30.988  13.922
80298W        W39735  20.670  43.819  12.075
80299W        W39736  39.974  19.630   0.481
80300W        W39737  39.817  30.425  11.877
80301W        W39738   6.824  27.687   1.788
80302W        W39739  12.668   5.810  14.780
80303W        W39740  12.852  18.119   3.231
80304W        W39741  11.132   1.471  14.026
80305W        W39742  10.777  22.250  13.877
80306W        W39743  39.994  39.927   0.358
80307W        W39744  29.049  34.416  14.471
80308W        W39745  15.700  14.719  14.914
80309W        W39746   9.261   8.810   2.727
80310W        W39747  30.111   5.867   2.344
80311W        W39748  32.051  17.669   1.820
80312W        W39749  33.958  42.507   4.612
80313W        W39750   7.715   2.321   1.819
80314W        W39751   3.363  31.610  10.406
80315W        W39752  21.733   2.267   4.626
80316W        W39753   0.396  44.274  14.933
80317W        W39754  41.331  21.217  12.447
80318W        W39755  34.429  24.143  10.887
80319W        W39756   2.376  14.656  12.481
80320W        W39757  39.976  43.808   3.821
80321W        W39758  28.470  20.726   2.720
80322W        W39759  33.129   9.664  12.535
80323W        W39760  14.226   0.818   1.785
80324W        W39761  11.293  39.056   4.247
80325W        W39762  42.478  26.617   3.284
80326W        W39763  17.307  24.053  12.075
80327W        W39764  16.228  36.898   4.189
80328W        W39765   2.416  26.482   1.898
80329W        W39766  25.130  17.137   4.622
80330W        W39767  36.383   6.848  12.369
80331W        W39768  27.687  30.597  11.414
80332W        W39769  26.688  14.285   1.918
80333W        W39770  21.664   6.714   1.876
80334W        W39771  28.951   2.324   0.865
80335W        W39772  20.134  11.866  11.391
80336W        W39773  39.054   7.289   0.844
80337W        W39774  10.350  44.794   1.332
80338W        W39775   5.429  29.653  13.895
80339W        W39776  42.961  16.096  13.366
80340W        W39777   4.837   2.949   1.310
80341W        W39778   5.810  37.848   0.447
80342W        W39779   3.812   7.368   0.249
80343W        W39780  16.170   4.430  14.958
80344W        W39781  23.648   2.312  11.518
80345W        W39782  38.337  10.695   2.194
80346W        W39783  36.927  23.549  14.880
80347W        W39784  16.684  16.073  14.289
80348W        W39785  16.761  41.034   1.749
80349W        W39786  22.650  35.863  10.446
80350W        W39787   4.814  35.084   4.193
80351W        W39788  27.482  36.968  11.975
80352W        W39789  14.701  15.272  14.821
80353W        W39790  35.521   1.357  13.341
80354W        W39791  28.955   1.328   2.311
80355W        W39792  30.500  11.752  10.527
80356W        W39793  17.299  43.874   4.147
80357W        W39794  14.657  27.677  13.981
80358W        W39795  32.593   6.318  14.900
80359W        W39796   7.408  10.210  11.869
80360W        W39797   5.874   0.385  14.868
80361W        W39798  14.288   9.780   2.687
80362W        W39799  40.919  27.563   2.759
80363W        W39800  27.141   8.348  11.038
80364W        W39801  26.529  28.112  12.980
80365W        W39802  28.510  29.167   4.713
80366W        W39803   2.919  24.216   3.316
80367W        W39804  29.010  38.439   2.210
80368W        W39805  42.334  12.249  13.508
80369W        W39806  25.697   7.709  11.876
80370W        W39807   7.368  12.322  13.310
80371W        W39808  43.484   6.402   2.248
80372W        W39809  41.867  38.071  13.028
80373W        W39810  24.552   5.417  14.466
80374W        W39811  40.958   0.788  13.824
80375W        W39812   6.740   2.296  12.039
80376W        W39813  32.905  29.500  10.576
80377W        W39814  34.487  28.185   2.839
80378W        W39815  38.486  18.568  13.497
80379W        W39816  20.146  12.121  11.508
80380W        W39817  39.840  18.547  14.314
80381W        W39818   4.707  17.679  13.856
80382W        W39819  20.696  43.866   1.753
80383W        W39820  16.248  34.572   5.103
80384W        W39821  10.739  23.723   4.247
80385W        W39822  11.308   0.843  14.479
80386W        W39823  15.729  28.645  10.625
80387W        W39824  26.176  21.555  12.386
80388W        W39825   6.846   6.300   2.249
80389W        W39826  30.448  29.012   4.693
80390W        W39827  13.768  26.134  12.905
80391W        W39828  23.580   3.367   2.705
80392W        W39829  44.835  21.202   0.823
80393W        W39830   4.790  32.930   4.283
80394W        W39831  36.094  33.895   1.722
80395W        W39832  15.251   8.255  13.544
80396W        W39833   1.329   6.845   2.831
80397W        W39834  32.401  12.220   2.378
80398W        W39835  16.680  27.964   4.598
80399W        W39836   6.881  36.383   4.286
80400W        W39837  16.201  40.379  11.875
80401W        W39838  31.149  36.557  13.961
80402W        W39839   5.834  42.799   3.185
80403W        W39840   5.813   1.913  14.780
80404W        W39841  10.361  43.809   3.754
80405W        W39842  35.094  21.151   2.876
80406W        W39843  16.225  30.415  14.803
80407W        W39844  34.942   3.226   0.295
80408W        W39845  25.623  33.962  13.330
80409W        W39846  14.219   5.194  12.531
80410W        W39847  22.679  13.691  12.898
80411W        W39848  43.993  10.222  14.455
80412W        W39849   2.293  21.216   4.703
80413W        W39850   9.787  14.798  13.991
80414W        W39851  33.073  33.906   0.794
80415W        W39852  18.289  37.435   3.862
80416W        W39853  24.997  28.976   1.710
80417W        W39854   3.839   1.376  13.415
80418W        W39855  43.791   3.379  11.606
80419W        W39856  36.389   8.366   3.646
80420W        W39857   0.900   6.727  10.525
80421W        W39858   6.882  38.939  10.613
80422W        W39859  15.650  30.938   0.816
80423W        W39860  35.454  25.580   2.377
80424W        W39861   2.895  16.580  12.930
80425W        W39862   4.733   2.782   3.161
80426W        W39863  20.631  19.594   9.943
80427W        W39864  16.218  42.327  11.933
80428W        W39865  13.701   2.879   4.699
80429W        W39866  13.653  32.033  14.938
80430W        W39867  10.225   4.922  14.825
80431W        W39868  24.141  17.088  11.411
80432W        W39869  27.446  37.999   1.344
80433W        W39870  16.614  23.645  10.638
80434W        W39871  20.731   5.280   4.629
80435W        W39872  38.525  25.495  11.547
80436W        W39873  43.837   8.748  12.555
80437W        W39874  20.163  26.612   2.377
80438W        W39875  31.097  26.092  12.932
80439W        W39876  25.603  16.152   0.849
80440W        W39877  31.420  30.522   0.931
80441W        W39878  18.614  40.306  14.790
80442W        W39879  17.580  31.642   4.245
80443W        W39880  34.863  41.891   0.436
80444W        W39881  28.540   1.369   3.832
80445W        W39882  31.953  39.981   2.210
80446W        W39883  19.181  44.342   0.914
80447W        W39884  36.997  35.469  13.039
80448W        W39885  21.166  30.127  12.998
80449W        W39886  36.512  15.706  13.963
80450W        W39887  41.879  34.441   4.313
80451W        W39888  27.046  24.005  12.442
80452W        W39889  13.199  31.067   2.715
80453W        W39890  34.073  17.637   0.771
80454W        W39891  27.643  35.406   2.829
80455W        W39892  13.176  36.013   3.711
80456W        W39893  38.447  38.869   2.821
80457W        W39894   3.721   6.839  11.562
80458W        W39895  17.582  41.352   2.410
80459W        W39896  13.149  13.329  11.919
80460W        W39897  24.186  38.940  14.279
80461W        W39898  25.045  12.752  14.886
80462W        W39899  39.915   0.431  10.936
80463W        W39900  35.911  25.477   0.412
80464W        W39901  24.508   0.413  14.784
80465W        W39902   8.810  30.619   0.757
80466W        W39903  20.717  11.313   0.810
80467W        W39904  11.334   2.827  14.439
80468W        W39905  35.918  22.208   4.710
80469W        W39906  29.618  30.013  11.926
80470W        W39907  37.997   9.730   0.733
80471W        W39908  41.379  34.370   3.683
80472W        W39909   0.418  38.563  14.909
80473W        W39910  39.474  34.415  14.998
80474W        W39911  11.814  19.186  12.883
80475W        W39912  18.629   2.884   1.416
80476W        W39913   6.881  38.397   1.414
80477W        W39914  42.895   0.819  10.631
80478W        W39915  41.319  28.674  12.845
80479W        W39916  11.629  32.092  10.428
80480W        W39917   8.681  15.185  11.562
80481W        W39918   2.414   9.361  13.836
80482W        W39919  18.232  10.374  13.792
80483W        W39920  26.555  16.622   1.774
80484W        W39921   0.310  28.645   2.668
80485W        W39922  41.011   8.255  12.376
80486W        W39923  14.136  23.736   2.415
80487W        W39924  25.544   0.490  12.543
80488W        W39925  11.323  36.991   3.231
80489W        W39926  36.553  18.655   0.386
80490W        W39927   3.417  33.041   3.764
80491W        W39928  18.255  17.261  12.057
80492W        W39929   8.360  22.669  11.965
80493W        W39930  34.103   3.360  13.940
80494W        W39931  23.228   2.361  14.982
80495W        W39932  15.626  39.053  10.045
80496W        W39933  33.901  22.525   1.408
80497W        W39934  27.471   9.316   0.769
80498W        W39935   4.387  36.576  10.448
80499W        W39936   7.716  30.518  14.458
80500W        W39937  20.743  32.423   3.172
80501W        W39938   7.386  17.122   3.227
80502W        W39939  13.338  24.091  12.477
80503W        W39940  11.132  30.647  13.838
80504W        W39941  30.094  28.578  13.460
80505W        W39942  33.392   9.372   2.340
80506W        W39943  35.024  10.207  10.978
80507W        W39944  27.024  28.608   2.272
80508W        W39945  36.983  32.048   1.378
80509W        W39946  11.740  30.022  12.909
80510W        W39947  41.995  23.596   3.690
80511W        W39948  36.531  30.600   3.286
80512W        W39949   1.888  43.887   4.114
80513W        W39950  22.546  36.509  11.565
80514W        W39951   2.344  29.008   3.817
80515W        W39952  22.736  12.222   2.231
80516W        W39953  36.380   9.692   3.348
80517W        W39954   1.812  30.498   0.832
80518W        W39955   0.407  10.307   5.582
80519W        W39956  17.715  42.479  12.039
80520W        W39957  42.796   8.210   2.714
80521W        W39958  14.787  32.087   0.453
80522W        W39959  34.057  30.023  14.803
80523W        W39960  11.249  36.428   0.913
80524W        W39961  17.605  27.467  11.864
80525W        W39962  34.965  36.920  13.023
80526W        W39963   5.765  20.117   4.606
80527W        W39964  37.548  39.002   4.293
80528W        W39965  37.524  37.497  13.895
80529W        W39966  39.041  27.052  13.869
80530W        W39967   7.193  17.142   1.764
80531W        W39968  10.232  13.647   1.756
80532W        W39969  38.559  26.648  12.419
80533W        W39970  14.597   5.901  12.823
80534W        W39971  43.492  41.871  14.948
80535W        W39972  39.881  14.196   2.727
80536W        W39973  15.127  18.713  14.396
80537W        W39974  28.603  19.265  11.390
80538W        W39975  27.177   3.298   0.821
80539W        W39976  12.157  18.699  10.945
80540W        W39977  23.693   9.764  14.759
80541W        W39978  31.935  35.929   4.169
80542W        W39979  20.536  32.046  13.465
80543W        W39980  11.776  43.799  13.974
80544W        W39981   3.735  42.902   4.114
80545W        W39982  20.270  35.476  14.783
80546W        W39983  13.216  16.093   3.835
80547W        W39984   8.343  30.927  13.367
80548W        W39985  42.898   5.372  13.972
80549W        W39986  31.060  13.688  14.869
80550W        W39987  42.955   3.436  14.877
80551W        W39988   9.720  41.361  11.443
80552W        W39989  10.876  37.842  13.943
80553W        W39990  22.201  33.103  13.846
80554W        W39991   4.309  25.187  12.887
80555W        W39992  27.652  34.552  13.520
80556W        W39993  28.008  21.257  14.336
80557W        W39994  30.658   5.757   4.628
80558W        W39995   7.666  36.928   1.358
80559W        W39996   2.372  18.754   4.837
80560W        W39997  33.886   0.335  13.432
80561W        W39998   6.304  38.841   0.302
80562W        W39999  11.831  23.709   1.860
80563W        W40000  13.205  20.185  10.941
80564W        W40001  37.869  16.123  14.306
80565W        W40002  17.635  18.767  12.018
80566W        W40003  38.837  25.980   3.812
80567W        W40004   4.854  42.452  11.093
80568W        W40005  41.350  39.453  11.097
80569W        W40006  35.435  15.263   2.178
80570W        W40007   9.228  30.617   3.162
80571W        W40008  10.817  36.546  12.362
80572W        W40009  30.559  43.316  11.983
80573W        W40010  15.581  20.603   1.704
80574W        W40011  29.095  14.250  11.078
80575W        W40012  11.748   4.747  13.382
80576W        W40013  38.442  44.787   3.187
80577W        W40014  30.631  34.087  13.048
80578W        W40015  33.982  44.809   0.935
80579W        W40016  12.740  12.361   0.744
80580W        W40017  26.953  33.411   4.824
80581W        W40018  40.450  33.565  14.509
80582W        W40019  23.100  23.582   5.275
80583W        W40020  10.198   9.295  14.946
80584W        W40021  15.800  25.024   3.732
80585W        W40022  24.623   1.458   4.322
80586W        W40023  22.533   3.337  10.143
80587W        W40024   5.293  43.485   0.817
80588W        W40025   8.688  38.447  12.528
80589W        W40026  22.597   7.805  10.931
80590W        W40027  36.061   4.418  13.002
80591W        W40028   7.290  31.010   2.349
80592W        W40029  11.180  39.816  13.970
80593W        W40030  30.120  12.322  10.526
80594W        W40031   3.283  24.993   3.696
80595W        W40032  36.051  32.458   0.247
80596W        W40033  28.495  44.305   4.270
80597W        W40034  23.007  21.641   0.832
80598W        W40035  40.848  33.989   1.731
80599W        W40036   0.930  43.323   2.194
80600W        W40037  13.632  39.493  12.339
80601W        W40038   7.320   9.765  12.833
80602W        W40039  16.142  15.186   3.308
80603W        W40040  38.018   5.261  12.067
80604W        W40041  39.404  10.772   0.403
80605W        W40042   3.386  19.163   4.772
80606W        W40043  35.577  10.682   1.334
80607W        W40044  33.607  29.944   1.776
80608W        W40045   0.352  18.697  14.964
80609W        W40046  40.858  31.496  13.954
80610W        W40047  23.617  25.209   5.187
80611W        W40048  36.014  35.413  12.577
80612W        W40049  22.114   4.386   2.696
80613W        W40050  11.308  27.070  13.359
80614W        W40051  14.798   0.323   0.957
80615W        W40052  20.738  37.903   4.818
80616W        W40053  30.020  17.168  10.431
80617W        W40054  32.413   8.759   4.641
80618W        W40055  16.246  43.401  11.408
80619W        W40056   4.758   7.219  10.429
80620W        W40057   5.740  10.814  11.088
80621W        W40058  19.143  34.553   4.639
80622W        W40059  26.078   3.862  10.911
80623W        W40060   8.759  10.369  13.488
80624W        W40061   1.833  15.114  12.983
80625W        W40062  30.065   8.227   4.727
80626W        W40063  20.646  23.161   2.872
80627W        W40064  20.151  23.021   2.366
80628W        W40065  18.202  28.118  13.442
80629W        W40066  30.060  30.602  12.413
80630W        W40067   8.656   4.715  14.402
80631W        W40068  36.080   0.974   5.187
80632W        W40069  13.705   1.423   0.291
80633W        W40070  35.922  19.055   2.325
80634W        W40071  19.062  27.569   4.127
80635W        W40072  29.081  41.903  10.486
80636W        W40073  17.772  23.037   1.803
80637W        W40074   7.721  27.048  13.888
80638W        W40075   1.286  40.404   4.312
80639W        W40076  37.397  43.777  13.917
80640W        W40077  43.771  22.087  13.032
80641W        W40078  34.499  12.652   0.743
80642W        W40079  19.608  31.935   0.256
80643W        W40080  41.517  12.799  14.776
80644W        W40081  10.334  22.533   3.770
80645W        W40082  39.424  12.347   1.759
80646W        W40083  17.662  16.655   0.266
80647W        W40084  40.313  42.383  10.438
80648W        W40085  29.591  25.059   0.953
80649W        W40086  28.596  22.677   0.254
80650W        W40087  14.262  35.556   1.288
80651W        W40088  34.426  17.104   2.338
80652W        W40089  19.576  13.271   3.385
80653W        W40090  28.471  16.649  13.858
80654W        W40091  43.976  16.788   0.758
80655W        W40092  28.078  16.305  14.309
80656W        W40093   3.446  13.637   5.753
80657W        W40094  12.297  29.053  13.926
80658W        W40095  43.978  33.525  11.897
80659W        W40096  23.650   7.736  13.795
80660W        W40097  10.294   5.204  14.955
80661W        W40098  36.523  31.954   1.437
80662W        W40099  23.126  35.075  11.931
80663W        W40100   8.312  34.599  10.490
80664W        W40101  42.019   2.856   1.260
80665W        W40102   9.710  26.102  11.104
80666W        W40103  14.327  29.102   0.803
80667W        W40104  30.608  34.406   0.246
80668W        W40105  25.139  25.697  14.873
80669W        W40106   2.265   1.793  14.876
80670W        W40107  16.792   7.402  12.010
80671W        W40108  24.516  43.512  11.073
80672W        W40109  41.938  38.404  12.542
80673W        W40110  31.128  32.411  14.839
80674W        W40111  36.892  21.623   3.322
80675W        W40112  26.618  23.193  14.401
80676W        W40113  14.207  43.940   2.689
80677W        W40114  20.181  19.204  10.996
80678W        W40115  16.669  32.092   3.754
80679W        W40116   1.832  33.005   2.313
80680W        W40117  38.441  41.465  11.574
80681W        W40118  16.163   8.700  10.937
80682W        W40119  22.706  19.574  14.436
80683W        W40120  15.696   1.409   3.797
80684W        W40121   9.161  41.017  12.831
80685W        W40122  22.513   9.763  13.814
80686W        W40123  19.088   7.383   3.794
80687W        W40124  39.811  22.525  14.516
80688W        W40125   1.319  31.913   3.368
80689W        W40126  26.964  16.756  12.530
80690W        W40127  29.544  21.111   0.859
80691W        W40128  34.924  17.083  13.447
80692W        W40129   8.295  14.317   5.218
80693W        W40130  38.929  18.151   4.670
80694W        W40131  14.592  34.956  12.050
80695W        W40132  36.036  26.968  14.303
80696W        W40133  39.474  27.545  14.817
80697W        W40134  37.525   9.836   0.951
80698W        W40135  10.213   1.312  11.436
80699W        W40136  32.074  39.840  14.428
80700W        W40137  24.648  20.751  11.479
80701W        W40138  16.246  43.457   1.264
80702W        W40139  35.970  25.653   4.780
80703W        W40140  36.547  11.719  14.329
80704W        W40141  43.360  29.462  12.468
80705W        W40142  34.079   0.896  14.799
80706W        W40143  43.964  36.497   3.146
80707W        W40144   0.290  32.010  13.473
80708W        W40145  43.383  14.161   5.290
80709W        W40146  35.454  31.594  11.072
80710W        W40147  24.593   2.465  14.971
80711W        W40148  33.009   6.884  14.026
80712W        W40149  16.142   7.751   0.427
80713W        W40150  35.910  42.476   9.942
80714W        W40151  37.878  22.649   0.730
80715W        W40152  41.299  29.546  14.488
80716W        W40153  33.568  13.704   1.716
80717W        W40154  41.874  15.657   2.184
80718W        W40155   4.363   7.685   1.440
80719W        W40156  14.616   4.907   0.399
80720W        W40157  24.539  28.450   1.911
80721W        W40158  38.952  25.470  12.931
80722W        W40159  25.195  24.613   2.855
80723W        W40160  44.913  17.203  11.075
80724W        W40161   7.276  23.177  10.497
80725W        W40162  37.397  43.949   0.350
80726W        W40163  35.399   1.848  13.893
80727W        W40164  36.926  31.598   4.241
80728W        W40165  31.533  40.919  10.627
80729W        W40166   6.842  37.051   0.402
80730W        W40167  13.610  15.674  12.032
80731W        W40168  39.413  34.462  12.883
80732W        W40169  37.077  36.504   2.886
80733W        W40170  12.177  16.786   2.733
80734W        W40171   9.822   6.419   0.915
80735W        W40172  23.570  36.402   4.245
80736W        W40173  14.261  40.964   4.289
80737W        W40174  12.802  38.536  13.446
80738W        W40175  16.609   9.374   0.820
80739W        W40176  17.609  44.860   9.612
80740W        W40177  38.007  31.980   2.784
80741W        W40178  33.915   5.222   4.671
80742W        W40179  33.888   7.867   1.353
80743W        W40180  25.660  34.016   0.880
80744W        W40181  13.638  40.826  11.542
80745W        W40182  16.229  12.628   0.480
80746W        W40183  38.405  41.892  14.812
80747W        W40184   5.823  35.592   3.864
80748W        W40185   8.740  32.601  14.322
80749W        W40186   9.826  38.508  11.482
80750W        W40187   2.863  39.841  14.015
80751W        W40188  27.957  19.764   3.208
80752W        W40189   7.888  29.128  11.417
80753W        W40190  14.107  40.454  13.808
80754W        W40191   1.788   1.462  11.917
80755W        W40192  16.749  38.519  14.500
80756W        W40193  10.255  21.165  14.310
80757W        W40194  40.400  42.817  11.084
80758W        W40195  24.507  13.264   4.241
80759W        W40196   3.332   1.301   0.909
80760W        W40197  44.874   7.882  13.467
80761W        W40198  40.533   6.428   3.758
80762W        W40199  30.086  38.014   2.350
80763W        W40200  43.990  40.446   3.761
80764W        W40201  18.176  27.684   2.885
80765W        W40202   5.315  32.434  12.007
80766W        W40203  31.441  43.371  12.381
80767W        W40204   3.811  25.672  13.463
80768W        W40205  34.450  43.859  10.422
80769W        W40206  29.544  13.841   0.737
80770W        W40207  12.128   2.314  10.464
80771W        W40208  15.148   4.818   2.380
80772W        W40209  28.636  35.568  14.797
80773W        W40210  21.568  10.651   1.804
80774W        W40211   0.401   3.413   0.358
80775W        W40212  18.576  40.010   0.777
80776W        W40213  34.933  42.837   1.251
80777W        W40214  44.988  21.202  14.368
80778W        W40215   5.706  16.210   4.607
80779W        W40216  12.213  41.322   2.334
80780W        W40217  38.052  29.628   3.189
80781W        W40218   1.900   7.387   3.267
80782W        W40219   8.376  19.675  14.482
80783W        W40220  27.005  38.482  13.979
80784W        W40221  37.939  40.054  12.000
80785W        W40222  28.677  31.474   1.848
80786W        W40223  17.650  32.532  10.567
80787W        W40224  20.059  39.908   9.925
80788W        W40225  15.759  23.229   3.171
80789W        W40226  37.544  17.678  12.497
80790W        W40227  32.918  41.434   1.336
80791W        W40228  33.401  40.476   3.201
80792W        W40229   5.406   0.884   1.369
80793W        W40230   2.242  43.465  12.067
80794W        W40231  26.542   5.722  12.909
80795W        W40232  28.133  15.624   1.818
80796W        W40233  28.071  21.724   0.457
80797W        W40234   7.222  30.143   4.666
80798W        W40235  36.411  12.151  10.931
80799W        W40236   7.382  35.363   3.368
80800W        W40237   6.271  41.031  14.343
80801W        W40238   0.778  14.675   4.817
80802W        W40239  13.829  34.920   3.839
80803W        W40240  41.482  34.491  14.400
80804W        W40241   3.364  14.189   1.881
80805W        W40242  38.864  17.638  11.475
80806W        W40243  44.361  27.679  11.580
80807W        W40244  32.500  31.436  10.417
80808W        W40245  14.202  11.813   4.180
80809W        W40246  25.043  26.194   3.339
80810W        W40247   7.837  22.530   1.877
80811W        W40248  14.813  44.787   0.827
80812W        W40249  13.104  10.345  11.613
80813W        W40250  39.005  26.636   0.465
80814W        W40251   9.808   7.377  11.473
80815W        W40252  23.559  39.519  13.388
80816W        W40253  27.088  26.608   1.785
80817W        W40254  33.530  14.202  12.519
80818W        W40255  43.385  30.600  14.999
80819W        W40256  30.507  15.681  13.014
80820W        W40257   5.375   1.817  13.472
80821W        W40258   4.219  11.148   2.242
80822W        W40259  25.102  20.192  12.483
80823W        W40260   5.234  24.223   5.126
80824W        W40261  10.698  11.241  13.010
80825W        W40262   8.180   8.166  11.890
80826W        W40263  36.456  33.417  14.925
80827W        W40264  43.920  18.070   3.265
80828W        W40265   9.229  18.787  12.349
80829W        W40266  17.795  44.295   1.889
80830W        W40267  35.964  19.697   2.796
80831W        W40268  44.841  33.577   1.368
80832W        W40269   5.852   8.894   1.352
80833W        W40270   5.713  27.020   3.797
80834W        W40271   2.849   1.964  14.834
80835W        W40272   5.342  41.322  10.638
80836W        W40273  31.639  33.408   2.702
80837W        W40274  26.973  39.877   3.758
80838W        W40275  15.263   5.863   4.653
80839W        W40276  30.041  43.448   3.789
80840W        W40277  13.198  35.993   2.669
80841W        W40278  13.703  15.216  11.012
80842W        W40279  25.492   3.233  13.378
80843W        W40280   6.836   1.370  13.395
80844W        W40281  17.245  44.835   2.783
80845W        W40282  10.298  37.934   0.245
80846W        W40283   6.231  31.592   0.918
80847W        W40284   1.901  14.117   1.400
80848W        W40285  35.467  32.047  11.108
80849W        W40286  16.624  28.058   2.663
80850W        W40287  23.094  10.193  12.459
80851W        W40288   1.300  32.469   0.822
80852W        W40289   0.278  27.593  13.032
80853W        W40290  17.228  15.606  12.398
80854W        W40291  32.416  33.498   2.311
80855W        W40292  14.124  40.547   2.375
80856W        W40293   8.814  44.432   0.871
80857W        W40294  10.869   1.366   3.794
80858W        W40295  28.071  38.022   9.574
80859W        W40296  44.282  22.120   3.233
80860W        W40297  33.582  17.090   5.304
80861W        W40298  41.320  17.286  13.955
80862W        W40299  30.612  39.963   1.403
80863W        W40300  32.887   4.324   2.880
80864W        W40301  31.118   8.791  12.560
80865W        W40302  39.928  10.860   4.824
80866W        W40303  12.157  30.110  14.899
80867W        W40304  24.512   1.253  12.080
80868W        W40305   7.765  29.976  14.797
80869W        W40306  20.238  39.482   9.516
80870W        W40307  36.385  37.518  13.415
80871W        W40308  43.297  28.088  10.132
80872W        W40309   9.291  12.160   3.691
80873W        W40310  23.567  16.252  10.901
80874W        W40311  41.496  15.098   4.217
80875W        W40312  26.459  35.363   4.658
80876W        W40313   7.723  27.478  11.013
80877W        W40314  26.106   7.251   0.791
80878W        W40315  26.988   5.415   4.632
80879W        W40316   8.248  30.940  11.085
80880W        W40317  32.393  13.129  11.084
80881W        W40318  25.112   0.817   0.377
80882W        W40319  33.955   1.426  12.388
80883W        W40320  38.452  15.586  14.364
80884W        W40321  38.938   4.383  13.822
80885W        W40322  39.899  21.094   1.225
80886W        W40323  44.462  18.125  14.921
80887W        W40324  37.945  24.036   3.196
80888W        W40325  10.802  44.429   0.400
80889W        W40326  44.995  27.941   3.211
80890W        W40327  25.126  35.401   3.192
80891W        W40328   3.428  25.191  13.834
80892W        W40329  19.538  43.773   4.319
80893W        W40330  13.200   4.710  11.896
80894W        W40331   3.278  44.763  13.006
80895W        W40332   3.298  22.698   1.761
80896W        W40333  39.885  42.309  12.555
80897W        W40334  25.179  40.959  14.902
80898W        W40335  22.186  34.400   3.799
80899W        W40336  30.984   9.159  12.943
80900W        W40337  17.084  27.157   0.434
80901W        W40338  20.755  24.683  12.572
80902W        W40339  35.047  22.080   1.312
80903W        W40340  20.208  27.600  12.897
80904W        W40341  15.636  26.155   4.610
80905W        W40342   5.910  24.516  11.930
80906W        W40343  40.430   3.730  12.088
80907W        W40344  20.713  29.967  12.412
80908W        W40345  28.002  39.990   0.295
80909W        W40346  36.527   8.670  12.035
80910W        W40347  28.445  24.205  13.329
80911W        W40348   8.741  31.966  13.840
80912W        W40349  24.138  39.026   0.478
80913W        W40350  40.453  43.892  10.606
80914W        W40351  31.119  33.463   4.694
80915W        W40352  11.346  20.598   3.716
80916W        W40353  30.566   0.477   1.839
80917W        W40354   6.698   2.297   0.446
80918W        W40355   3.302  18.196  11.394
80919W        W40356   4.326  22.689   4.711
80920W        W40357  44.836  16.583   2.315
80921W        W40358  28.491  22.041   5.094
80922W        W40359  14.302  30.907   2.865
80923W        W40360   8.221  30.454   1.738
80924W        W40361  32.553  26.089  14.991
80925W        W40362   0.864  40.386  10.083
80926W        W40363  26.592  34.992  11.392
80927W        W40364  33.909  18.165  13.972
80928W        W40365  10.781   6.267   9.969
80929W        W40366  36.034  36.530   5.221
80930W        W40367  25.570  43.443  10.470
80931W        W40368  32.923  35.994   0.941
80932W        W40369  40.954  23.497  11.475
80933W        W40370  27.551  12.682   0.763
80934W        W40371  34.377  18.181  13.465
80935W        W40372  24.091  14.822   2.793
80936W        W40373  25.541  34.935  12.040
80937W        W40374  36.418  14.183  13.523
80938W        W40375  12.256  35.028   4.132
80939W        W40376  13.213  40.908  12.094
80940W        W40377   9.204  26.486  12.073
80941W        W40378  22.161  28.445   0.740
80942W        W40379   6.399  24.668  14.954
80943W        W40380  43.953   1.247   2.201
80944W        W40381  40.980  39.019  11.920
80945W        W40382  44.006  41.458   1.796
80946W        W40383  26.178  41.512   9.994
80947W        W40384   9.163  38.447  13.353
80948W        W40385   1.281   4.272   2.698
80949W        W40386   1.415  35.383  12.076
80950W        W40387  10.364  26.688  14.911
80951W        W40388  42.489  32.008  14.018
80952W        W40389  29.540   8.381   4.719
80953W        W40390  15.780   0.803   3.264
80954W        W40391  24.042  33.029  11.868
80955W        W40392  21.138  23.024   3.726
80956W        W40393  26.516  18.064  13.959
80957W        W40394  31.482  25.043   4.285
80958W        W40395  44.326  42.300  12.855
80959W        W40396  17.645  10.792  13.481
80960W        W40397  27.589   6.854  11.888
80961W        W40398   5.773   8.363  10.449
80962W        W40399   0.301  40.876   0.320
80963W        W40400  39.046  36.447  10.570
80964W        W40401  40.988  43.924   4.813
80965W        W40402  32.130  36.998  12.505
80966W        W40403  28.516  22.618  13.448
80967W        W40404  12.164  30.588   4.828
80968W        W40405   2.782  17.147  11.599
80969W        W40406  42.311  24.718   1.404
80970W        W40407  13.287  30.596   2.330
80971W        W40408  37.050   9.794   2.224
80972W        W40409  11.272  10.239  12.013
80973W        W40410   8.871  20.192   1.718
80974W        W40411  18.223  44.310  12.833
80975W        W40412  15.637  40.879   0.966
80976W        W40413  27.662  37.878  14.377
80977W        W40414  19.169  38.000  14.487
80978W        W40415   3.872  11.631   3.817
80979W        W40416  30.540  34.522   4.221
80980W        W40417  35.088  14.617  12.471
80981W        W40418  36.561  12.666   2.415
80982W        W40419  16.662  10.694  14.435
80983W        W40420   9.288   9.847  11.064
80984W        W40421   6.739  37.850  14.374
80985W        W40422  19.768  37.402   4.289
80986W        W40423  30.004  41.535  12.442
80987W        W40424  18.720  23.138   2.358
80988W        W40425   7.309  38.985  14.378
80989W        W40426  42.893   5.903  10.531
80990W        W40427  33.902  17.585   2.415
80991W        W40428  40.874  40.388  11.040
80992W        W40429  42.009  12.143   1.333
80993W        W40430  36.006   4.910  10.434
80994W        W40431   0.867  11.268   0.874
80995W        W40432  33.893  22.062  14.403
80996W        W40433   5.759  25.567  13.473
80997W        W40434  20.273   0.457  13.373
80998W        W40435  21.566  37.580   3.801
80999W        W40436  27.692  29.000  14.409
81000W        W40437  41.968   2.797   2.778
81001W        W40438   6.302  11.170   3.204
81002W        W40439  32.055   8.380   1.330
81003W        W40440   2.800   4.412   0.474
81004W        W40441  41.995  43.294   0.791
81005W        W40442  12.678   5.890  12.058
81006W        W40443  39.974   9.152   1.310
81007W        W40444  16.711   2.311  13.426
81008W        W40445  44.972  22.219  10.487
81009W        W40446   9.275  26.967   1.341
81010W        W40447  36.474  44.341  14.812
81011W        W40448  27.452   1.887   0.897
81012W        W40449   9.713  40.839   4.678
81013W        W40450   3.286  25.711  11.980
81014W        W40451  41.870  24.059  13.867
81015W        W40452  11.639  12.269   4.252
81016W        W40453  43.295  27.034   0.321
81017W        W40454  14.589  44.455  12.419
81018W        W40455  33.624  34.904   2.184
81019W        W40456  42.844  21.132   1.210
81020W        W40457  24.647  27.017  14.370
81021W        W40458   5.238  10.176   3.182
81022W        W40459   6.843  34.948  13.399
81023W        W40460  32.978  43.422   2.877
81024W        W40461  35.543  41.933   4.159
81025W        W40462  27.558  37.568  12.030
81026W        W40463  17.108  10.755  14.977
81027W        W40464  24.207  14.607  10.984
81028W        W40465  32.037  25.560   4.226
81029W        W40466  11.655  29.947   1.736
81030W        W40467  27.507   9.804   2.886
81031W        W40468  42.815  27.111   1.309
81032W        W40469  22.609  13.117  14.949
81033W        W40470  19.169  21.718   0.894
81034W        W40471  36.847  13.652  14.479
81035W        W40472  13.651   4.216   0.803
81036W        W40473  44.400  41.324   0.862
81037W        W40474  15.222  19.636   1.812
81038W        W40475  22.025  13.685  12.556
81039W        W40476  41.034  42.999  12.878
81040W        W40477  32.070  19.608   4.170
81041W        W40478  30.135  32.981  13.043
81042W        W40479  43.509  33.440   0.862
81043W        W40480   7.755  20.062   3.738
81044W        W40481  39.847  25.472   3.177
81045W        W40482  26.042  37.044   3.351
81046W        W40483  15.209  32.575  11.551
81047W        W40484  29.428  44.439   2.866
81048W        W40485  27.026  43.874  11.437
81049W        W40486  22.197  17.219  11.556
81050W        W40487  12.266   2.876   1.223
81051W        W40488  11.292  39.912   2.900
81052W        W40489  10.284   3.342  14.864
81053W        W40490  33.899  18.194   4.195
81054W        W40491  25.214  15.624   9.993
81055W        W40492  18.210  44.965   3.223
81056W        W40493  22.581  17.211   4.831
81057W        W40494   2.868  33.917   4.287
81058W        W40495   6.861   4.808   2.199
81059W        W40496  17.302  37.916   2.694
81060W        W40497  44.874  14.747  13.825
81061W        W40498  10.289  20.170   2.194
81062W        W40499  10.307  42.820  14.784
81063W        W40500  40.366  15.749   4.642
81064W        W40501  32.892  26.618  11.024
81065W        W40502  11.769  18.774  13.404
81066W        W40503  38.417   6.895  11.406
81067W        W40504  41.944  11.172   0.417
81068W        W40505   1.405  34.983   4.837
81069W        W40506  26.511  16.094  10.104
81070W        W40507  11.639  37.065  11.879
81071W        W40508  14.150  12.740   3.854
81072W        W40509  30.586   0.769   4.762
81073W        W40510  22.664  33.563  10.463
81074W        W40511  38.845  37.877   3.669
81075W        W40512  12.160  26.527   3.671
81076W        W40513   8.861  40.046  14.322
81077W        W40514  31.052  18.611   2.390
81078W        W40515  38.868  36.564   1.339
81079W        W40516  24.987  18.715  12.384
81080W        W40517   1.732  32.491   0.253
81081W        W40518  21.035  18.140   2.817
81082W        W40519  29.935  37.946   4.634
81083W        W40520  14.647   7.345  11.571
81084W        W40521  32.921  29.502   3.716
81085W        W40522  15.742  37.883  12.066
81086W        W40523   1.424  17.224  11.881
81087W        W40524  17.158  40.895  12.062
81088W        W40525  32.943  30.583   2.870
81089W        W40526  36.521   4.385   3.195
81090W        W40527  40.911   0.396  12.840
81091W        W40528  35.419  27.137   3.348
81092W        W40529  31.521  23.727  10.603
81093W        W40530  23.562  12.245   2.867
81094W        W40531  27.595   4.304  11.462
81095W        W40532  20.698  27.081  11.106
81096W        W40533  17.630  35.864   4.756
81097W        W40534  17.180  42.830   2.408
81098W        W40535  34.531   8.663  14.786
81099W        W40536   4.320  35.985   4.799
81100W        W40537  43.431  24.983  10.458
81101W        W40538  27.477   7.400   4.201
81102W        W40539  30.940  11.664  14.821
81103W        W40540  39.488   6.720   3.213
81104W        W40541   7.685  29.663  14.774
81105W        W40542  30.108  13.778   0.923
81106W        W40543  22.627  28.006  10.911
81107W        W40544  18.184  36.447   4.172
81108W        W40545  44.889   9.701  12.971
81109W        W40546  27.531   8.676   3.338
81110W        W40547  42.835  36.886   4.115
81111W        W40548  23.994  21.105   3.152
81112W        W40549  34.469  33.456  11.031
81113W        W40550  15.596  38.897   1.846
81114W        W40551  28.488   9.663   0.760
81115W        W40552  24.706  22.129   1.792
81116W        W40553  32.433  37.350   1.911
81117W        W40554  27.967   7.667  10.069
81118W        W40555  41.026  17.137   0.853
81119W        W40556   0.270  19.274   4.346
81120W        W40557  35.930  27.631  10.504
81121W        W40558  42.837  31.421  11.393
81122W        W40559  24.586  22.559  13.401
81123W        W40560   0.427  41.332  10.528
81124W        W40561   3.290   8.189   2.822
81125W        W40562  18.690  29.530   1.235
81126W        W40563   0.774  35.551  14.492
81127W        W40564  10.704  26.653   5.286
81128W        W40565  40.945  41.358  12.506
81129W        W40566  25.649   3.721   0.330
81130W        W40567  29.027  13.608   4.255
81131W        W40568  43.907  15.224   1.414
81132W        W40569  16.127  10.876  14.310
81133W        W40570  43.951  12.278   3.376
81134W        W40571  33.878  17.595  14.485
81135W        W40572  42.419  16.257   0.898
81136W        W40573  16.760   1.846   0.260
81137W        W40574  25.051  31.053  14.406
81138W        W40575   8.376   8.841   2.348
81139W        W40576  33.909  18.060   3.359
81140W        W40577  29.065  18.096  12.343
81141W        W40578   9.214  42.817  11.470
81142W        W40579  11.706  42.403   2.896
81143W        W40580  40.942  11.664  14.931
81144W        W40581   0.941  25.218   5.097
81145W        W40582  17.587  23.597   0.255
81146W        W40583   0.393  10.157  10.150
81147W        W40584  35.393  22.583  13.056
81148W        W40585  28.929  24.165  10.606
81149W        W40586  28.497   0.856  14.993
81150W        W40587  34.951  22.560   3.297
81151W        W40588   3.867  43.965  12.904
81152W        W40589  13.205  41.341  12.974
81153W        W40590  43.944   9.842   0.854
81154W        W40591  24.534  19.083   3.732
81155W        W40592  42.284  44.893   1.911
81156W        W40593  29.984  28.583  10.935
81157W        W40594  11.757  20.642   4.211
81158W        W40595  21.543  21.111   1.851
81159W        W40596  16.150  10.787  14.018
81160W        W40597  37.878   5.204   1.417
81161W        W40598  36.361   0.874   0.308
81162W        W40599  23.574  30.110   2.295
81163W        W40600  24.207  20.256   0.392
81164W        W40601  19.099  38.839   2.197
81165W        W40602  28.933  15.193  14.332
81166W        W40603  21.665  11.140   2.282
81167W        W40604  37.534   1.358  14.340
81168W        W40605  19.609  19.052   2.356
81169W        W40606  12.682  27.645  11.998
81170W        W40607  44.381  43.891   1.850
81171W        W40608  41.953  19.636  11.507
81172W        W40609  39.934  15.171  12.058
81173W        W40610  15.234  30.541   1.299
81174W        W40611   4.916  25.171   2.276
81175W        W40612   7.323   5.837   2.374
81176W        W40613  22.238  17.733   5.276
81177W        W40614   0.824   4.394   0.875
81178W        W40615   9.178   6.314  13.989
81179W        W40616  14.227   6.337  11.938
81180W        W40617  42.422  13.299   4.255
81181W        W40618  42.367  38.960  10.968
81182W        W40619  39.496  14.695  14.408
81183W        W40620  13.710   9.678  14.000
81184W        W40621  34.451  18.151  12.923
81185W        W40622   2.918  34.908  11.935
81186W        W40623  16.157  11.703  13.905
81187W        W40624   1.853  40.394   0.457
81188W        W40625  14.195  38.340  10.529
81189W        W40626  25.214  14.725   4.225
81190W        W40627   1.477  25.474   4.137
81191W        W40628  19.537  12.320  10.594
81192W        W40629   3.460  11.193  11.511
81193W        W40630  26.661   8.716  12.892
81194W        W40631  20.566  11.312   4.756
81195W        W40632  10.660  25.015   1.734
81196W        W40633  25.158  17.661   4.705
81197W        W40634   5.202  15.660   0.881
81198W        W40635   1.245  30.570  13.813
81199W        W40636  39.899   9.256  11.395
81200W        W40637   9.795   4.374   2.880
81201W        W40638  21.592  21.132  12.500
81202W        W40639  18.561  21.214   4.177
81203W        W40640   1.820  26.084   5.201
81204W        W40641  29.059   3.898   3.155
81205W        W40642  27.073  18.136  12.063
81206W        W40643  26.594  22.602  12.473
81207W        W40644  15.223  21.234  10.907
81208W        W40645  24.153  42.836   4.348
81209W        W40646  33.034   7.199   3.178
81210W        W40647  37.450  26.960  12.406
81211W        W40648  31.129  23.073   3.237
81212W        W40649  35.513  17.595   3.657
81213W        W40650  35.500  27.004  11.050
81214W        W40651  44.443  38.848   4.720
81215W        W40652  15.205   5.204  10.509
81216W        W40653  40.798   0.385  14.420
81217W        W40654   6.748  22.548   2.869
81218W        W40655  22.522  12.321   0.747
81219W        W40656  23.132   4.275   4.207
81220W        W40657  23.691   2.853  11.098
81221W        W40658   7.379   6.357   2.743
81222W        W40659   2.929   3.876   1.249
81223W        W40660  29.026  20.217  12.536
81224W        W40661   5.848  37.483   2.801
81225W        W40662  25.710   5.910   0.280
81226W        W40663  10.198  37.489  10.007
81227W        W40664  28.573  32.498  13.057
81228W        W40665  24.489   6.873   1.920
81229W        W40666  28.451  35.086   1.792
81230W        W40667  28.447  41.794   2.396
81231W        W40668  30.138  28.139   1.344
81232W        W40669  35.043   5.727   0.832
81233W        W40670  15.783  30.949  13.002
81234W        W40671   6.831  13.729  13.503
81235W        W40672  23.690  17.255  12.431
81236W        W40673  44.810   8.220  14.342
81237W        W40674   4.359  10.321  11.973
81238W        W40675  22.217   2.855  10.526
81239W        W40676   5.854  26.558   0.871
81240W        W40677  39.860  28.455   1.243
81241W        W40678   4.940  44.851   0.268
81242W        W40679  30.134  36.513   3.665
81243W        W40680  18.777  41.412   3.331
81244W        W40681  29.612   9.330   1.409
81245W        W40682  12.360  11.660  10.921
81246W        W40683  12.350  39.519  11.965
81247W        W40684  39.427  15.162   0.318
81248W        W40685  22.222  33.956   4.236
81249W        W40686  44.821  17.688  12.937
81250W        W40687  25.674  42.388   0.252
81251W        W40688   8.365   7.781  13.869
81252W        W40689  35.896  12.675   2.342
81253W        W40690   2.380  16.687  13.434
81254W        W40691  24.067  23.533   1.726
81255W        W40692  17.562  26.649   4.627
81256W        W40693  19.601  40.940  12.947
81257W        W40694  16.695   2.229   1.810
81258W        W40695  17.296  30.569  10.445
81259W        W40696  38.427  10.728   4.346
81260W        W40697  10.649  27.012   4.185
81261W        W40698  11.330  12.179   3.671
81262W        W40699  12.158  25.487   0.833
81263W        W40700   1.965  10.315   4.615
81264W        W40701  11.721  31.540   4.831
81265W        W40702   7.299   4.393   4.184
81266W        W40703  33.569   3.901   4.126
81267W        W40704  16.096   7.177  10.460
81268W        W40705  38.887   9.355   3.662
81269W        W40706  18.195  25.533  14.870
81270W        W40707  29.027  34.458  13.463
81271W        W40708  19.629  41.518   0.922
81272W        W40709  14.640  14.706  11.934
81273W        W40710  16.592   8.218   1.853
81274W        W40711  37.546   5.412  10.495
81275W        W40712  14.699  16.639   0.892
81276W        W40713  31.565  15.774  10.978
81277W        W40714  16.760  13.275  14.838
81278W        W40715   4.808  23.090  14.448
81279W        W40716  34.082  38.376  13.496
81280W        W40717  23.156  32.466  10.439
81281W        W40718  36.862  33.934   3.152
81282W        W40719  12.352  41.360   1.867
81283W        W40720   5.349  34.523   3.322
81284W        W40721  18.577  34.892  11.877
81285W        W40722  32.067   1.851   3.755
81286W        W40723   3.833  11.161  13.867
81287W        W40724  18.077   7.338  12.883
81288W        W40725   0.774   6.757  11.935
81289W        W40726  19.271  36.561   0.952
81290W        W40727  42.018   2.441   3.857
81291W        W40728  38.953  12.305   0.372
81292W        W40729   9.282  42.867  13.895
81293W        W40730  25.489   1.842  10.889
81294W        W40731  13.276  40.936  14.011
81295W        W40732  34.092  31.124   2.889
81296W        W40733  27.600   8.838  14.951
81297W        W40734  24.046  23.011   1.395
81298W        W40735  18.050  22.531  14.932
81299W        W40736   7.192  17.152   4.174
81300W        W40737  28.669  14.812  14.012
81301W        W40738   6.284  22.601  12.954
81302W        W40739  24.556  30.916  13.416
81303W        W40740  20.741  15.627   0.905
81304W        W40741  30.594  20.160  10.911
81305W        W40742   3.860  35.384   2.682
81306W        W40743   4.420   4.395   1.702
81307W        W40744  12.190   4.826  13.942
81308W        W40745   3.310   1.855   2.276
81309W        W40746  10.314  39.019   3.821
81310W        W40747  35.582  37.850   5.204
81311W        W40748  39.553  18.105   4.313
81312W        W40749  13.288  15.123  12.037
81313W        W40750  13.624  24.016   0.915
81314W        W40751  27.050  36.397  12.414
81315W        W40752  35.503  30.033  12.911
81316W        W40753   0.861  30.642   3.868
81317W        W40754  32.942  25.973  14.888
81318W        W40755  25.017  27.602   3.850
81319W        W40756  30.470  44.906   2.763
81320W        W40757   0.356   7.403   3.323
81321W        W40758  20.670   1.831  12.392
81322W        W40759  11.699  15.672   2.187
81323W        W40760  10.697  14.164  13.510
81324W        W40761   4.805   8.377   1.902
81325W        W40762  26.991  22.588   4.278
81326W        W40763   7.249  15.287   3.221
81327W        W40764  11.644  18.779   1.276
81328W        W40765  43.016  36.414  12.996
81329W        W40766  16.779  25.486  13.449
81330W        W40767  44.969  41.984  13.322
81331W        W40768  32.519   6.875   0.300
81332W        W40769  27.946  29.635  10.420
81333W        W40770  23.734  19.610  13.442
81334W        W40771  28.492  39.412  11.440
81335W        W40772  10.234  20.739  12.943
81336W        W40773  10.211   0.944  14.354
81337W        W40774  24.667  38.558   2.263
81338W        W40775   6.911  21.701  13.948
81339W        W40776  44.884  37.939   0.306
81340W        W40777  37.374  23.023  10.476
81341W        W40778  24.488  31.517   4.172
81342W        W40779   9.351  44.921  14.778
81343W        W40780  39.545  37.869   1.263
81344W        W40781  40.349  16.271   0.367
81345W        W40782  32.455  19.285  13.994
81346W        W40783   4.208  39.866  10.631
81347W        W40784  11.364  34.022  13.514
81348W        W40785  33.522  36.903  14.351
81349W        W40786  14.626   3.290   2.413
81350W        W40787  29.642  25.094  12.564
81351W        W40788  41.824   6.230  13.533
81352W        W40789   7.296   3.738   2.274
81353W        W40790  37.522   6.261   1.276
81354W        W40791  40.804  24.713   0.833
81355W        W40792  10.187  30.533   4.340
81356W        W40793   9.880  40.382  14.766
81357W        W40794  29.160  17.661  11.122
81358W        W40795  21.594   5.348  10.494
81359W        W40796   2.887  40.920  14.875
81360W        W40797  40.401  15.787  14.456
81361W        W40798  25.988  33.584  11.381
81362W        W40799  27.609  37.022   2.826
81363W        W40800  18.119  16.781   2.355
81364W        W40801  20.235  10.758   2.889
81365W        W40802   3.873  15.097   2.828
81366W        W40803   0.957   1.794   4.769
81367W        W40804  37.470  35.477   4.335
81368W        W40805  29.090  43.424   2.672
81369W        W40806  44.799  42.518   4.192
81370W        W40807   5.253  38.060   1.744
81371W        W40808  13.298  27.582   2.898
81372W        W40809   7.190  37.014   3.186
81373W        W40810  31.518   6.901  14.880
81374W        W40811  28.151  29.931  10.545
81375W        W40812  11.690  20.693   3.204
81376W        W40813  20.252  10.152   4.763
81377W        W40814   4.802  16.755  13.062
81378W        W40815   3.434   7.695   2.838
81379W        W40816  27.965  18.291   3.215
81380W        W40817  34.964  15.288   1.297
81381W        W40818  10.144   3.268  12.887
81382W        W40819  42.964  12.256  10.552
81383W        W40820  12.177  29.432   0.400
81384W        W40821   1.942   8.711   4.227
81385W        W40822   3.454  26.166   0.838
81386W        W40823   2.433  17.085   9.648
81387W        W40824   4.724  14.690   2.735
81388W        W40825  21.739  14.646   4.271
81389W        W40826   3.799   1.774  13.908
81390W        W40827   5.790  26.167  13.996
81391W        W40828   9.388  25.092   2.252
81392W        W40829  14.099   8.795  10.462
81393W        W40830  40.505  10.167   4.354
81394W        W40831  27.128  34.120   2.777
81395W        W40832  36.881  16.755  13.988
81396W        W40833  22.083   6.255  12.943
81397W        W40834  11.298  41.004   3.170
81398W        W40835  17.561  15.132   2.709
81399W        W40836   8.784  29.933   2.384
81400W        W40837   1.799  25.149  10.515
81401W        W40838   4.304  15.643  12.824
81402W        W40839  19.619   0.955  12.575
81403W        W40840  10.831  37.845  12.381
81404W        W40841  27.672  33.047  14.930
81405W        W40842  22.684  13.714   0.409
81406W        W40843   3.350  33.120  10.087
81407W        W40844  38.965  23.637  10.476
81408W        W40845  12.716  42.906   0.320
81409W        W40846  21.752  30.050   2.852
81410W        W40847  21.726  38.000  12.466
81411W        W40848  18.075  35.501   0.455
81412W        W40849  34.481  36.379   4.223
81413W        W40850  11.839  44.491   0.753
81414W        W40851   6.241  10.715   3.204
81415W        W40852  12.246  28.154   4.816
81416W        W40853  21.739  39.528   0.278
81417W        W40854  34.902  15.083  12.000
81418W        W40855  34.381  21.184   2.178
81419W        W40856  17.673   9.286   2.311
81420W        W40857  26.474  37.076   1.929
81421W        W40858  38.933  30.627   3.817
81422W        W40859  33.953   6.708   4.294
81423W        W40860  22.658  27.633  13.044
81424W        W40861  22.087  17.086   2.192
81425W        W40862  18.178  13.722  11.117
81426W        W40863  10.768  10.692  11.391
81427W        W40864  14.729  38.937   4.635
81428W        W40865   4.715  23.094   0.848
81429W        W40866   7.673   8.329  11.465
81430W        W40867  11.235   8.803  12.043
81431W        W40868  25.499  41.467   2.822
81432W        W40869  43.393  16.622  12.960
81433W        W40870  21.719  38.395  11.038
81434W        W40871  42.957  43.850   0.265
81435W        W40872  36.424   1.368   4.125
81436W        W40873   4.417  21.099   0.922
81437W        W40874  25.966  22.747  13.879
81438W        W40875  26.088  44.471   4.196
81439W        W40876  21.565  16.701   2.698
81440W        W40877  37.460  37.401  13.510
81441W        W40878  15.705  15.623   0.783
81442W        W40879  33.392  17.221   2.865
81443W        W40880  35.892  16.713  11.946
81444W        W40881   2.297   8.238  10.625
81445W        W40882  42.890  42.799   0.464
81446W        W40883  20.153  44.857  11.545
81447W        W40884  30.436   4.763  13.972
81448W        W40885  33.938  20.543  13.449
81449W        W40886  13.161   4.404   4.186
81450W        W40887  36.488   3.769   3.319
81451W        W40888   2.784  15.629   4.163
81452W        W40889  16.208  23.999   0.479
81453W        W40890  22.730  41.867   2.227
81454W        W40891  43.298   5.311   2.234
81455W        W40892  37.974  29.048   1.889
81456W        W40893   1.829  37.877  11.997
81457W        W40894  39.403   2.816   0.858
81458W        W40895  30.500  20.181  11.987
81459W        W40896  34.066  35.029   2.270
81460W        W40897  20.211  14.306  11.601
81461W        W40898  21.221   2.877  10.986
81462W        W40899  10.205  19.743   1.934
81463W        W40900  32.476  25.501  13.480
81464W        W40901  15.799  20.219  13.046
81465W        W40902  29.464  28.182  13.310
81466W        W40903  41.830  22.683   2.291
81467W        W40904  38.338   7.749   4.119
81468W        W40905  30.497  15.599  14.956
81469W        W40906  26.077  17.679  13.798
81470W        W40907   1.800  16.700   4.640
81471W        W40908  28.483  39.459  12.454
81472W        W40909  19.592  35.093  13.507
81473W        W40910  31.625  10.321  13.920
81474W        W40911  16.631  36.469   2.185
81475W        W40912  12.759  37.027   0.337
81476W        W40913  20.193  39.920   2.264
81477W        W40914   0.382   6.803   4.150
81478W        W40915  32.891  28.631  13.857
81479W        W40916  37.351  25.576   5.087
81480W        W40917  27.071   8.250  11.939
81481W        W40918  25.199  34.060   1.258
81482W        W40919  25.538   9.267  14.300
81483W        W40920  28.082  38.565   4.164
81484W        W40921  41.482  43.280   4.606
81485W        W40922   8.299  41.944   3.149
81486W        W40923  12.741  33.542   4.333
81487W        W40924  40.988  22.039  11.009
81488W        W40925  38.919  26.024  12.458
81489W        W40926  15.150  36.581   3.357
81490W        W40927  13.324  11.798  10.615
81491W        W40928  39.053   1.895   3.687
81492W        W40929  31.080  39.498   0.340
81493W        W40930  34.990  22.015   3.656
81494W        W40931  43.297  10.862  12.978
81495W        W40932  12.723  43.998   4.755
81496W        W40933  43.286  39.522   1.344
81497W        W40934  39.543  23.205  13.009
81498W        W40935  17.562  22.013  11.071
81499W        W40936  43.778  10.865   1.904
81500W        W40937  44.917  44.354   3.808
81501W        W40938  18.283  23.496   2.874
81502W        W40939  37.885   6.906   4.168
81503W        W40940  35.594  28.621  13.005
81504W        W40941   3.276  21.695  14.770
81505W        W40942  12.236   0.981  14.974
81506W        W40943  39.936  27.556   0.284
81507W        W40944  17.720  17.129  12.031
81508W        W40945  33.019  36.925   3.737
81509W        W40946   5.913   3.925   4.182
81510W        W40947  24.079  17.108   0.809
81511W        W40948  25.509  31.617  12.070
81512W        W40949  36.067  25.560  14.989
81513W        W40950  31.620   4.879  14.420
81514W        W40951  28.600  36.992   0.959
81515W        W40952  23.522  43.363   1.305
81516W        W40953   3.757  24.543  10.952
81517W        W40954  41.831  10.178  12.976
81518W        W40955  18.261  20.578   0.889
81519W        W40956   1.301  27.559  11.944
81520W        W40957  36.361   4.743   2.253
81521W        W40958  41.972  26.184  10.539
81522W        W40959  22.170  15.192   0.419
81523W        W40960  15.707  36.842  13.976
81524W        W40961  38.955   4.780  11.522
81525W        W40962   5.693  40.344  11.886
81526W        W40963  16.575  22.238  11.127
81527W        W40964   1.775  39.421   3.379
81528W        W40965  28.978  39.382  12.345
81529W        W40966  29.444  26.070   3.314
81530W        W40967   6.887   2.771  11.091
81531W        W40968  12.630   7.370   2.240
81532W        W40969  44.784   1.433  13.501
81533W        W40970  32.622  39.844  12.079
81534W        W40971   0.753  42.455  13.982
81535W        W40972  21.082  39.496   0.274
81536W        W40973  29.585  30.563   3.679
81537W        W40974   3.391  26.995  14.856
81538W        W40975   2.854  36.012  11.052
81539W        W40976   4.826  18.708   1.770
81540W        W40977  17.739   6.317  13.976
81541W        W40978  18.560   3.924  10.427
81542W        W40979  26.123  22.594  12.477
81543W        W40980  15.745  39.377   3.203
81544W        W40981   8.333   3.274   1.353
81545W        W40982  19.070  39.944   2.753
81546W        W40983  18.273  29.099  10.933
81547W        W40984   5.228  22.068  14.951
81548W        W40985  20.683   1.924   3.301
81549W        W40986  40.014  44.274   2.754
81550W        W40987  34.880  19.633  11.906
81551W        W40988  44.294  44.884  13.971
81552W        W40989   1.925  40.813   2.722
81553W        W40990  20.563  35.890  11.380
81554W        W40991   7.750  38.404   1.272
81555W        W40992  39.455   6.265   1.724
81556W        W40993  27.984  11.201  13.323
81557W        W40994   3.254  25.630  12.399
81558W        W40995  44.410  39.357   2.355
81559W        W40996   2.452  34.946  10.549
81560W        W40997  24.179  17.604   0.401
81561W        W40998  23.989  35.540  14.830
81562W        W40999  14.178  32.969   3.787
81563W        W41000  32.438  37.937  10.541
81564W        W41001  17.647  24.657  14.783
81565W        W41002  18.154  19.694  12.075
81566W        W41003   8.177  27.503  12.485
81567W        W41004  31.560  33.530  11.559
81568W        W41005  11.796  39.054   4.311
81569W        W41006  23.647  40.322   4.778
81570W        W41007  41.530  27.136   1.773
81571W        W41008  41.939  16.301  12.976
81572W        W41009  26.207  41.801   1.403
81573W        W41010  21.245  11.230  12.377
81574W        W41011  33.053  30.054   0.726
81575W        W41012  34.890  20.685   3.242
81576W        W41013   1.849  15.636   4.632
81577W        W41014  36.383  28.550   4.339
81578W        W41015  35.538   4.443   1.411
81579W        W41016  32.932  10.310  12.445
81580W        W41017   2.871  26.188  12.346
81581W        W41018   4.251  24.504   3.654
81582W        W41019  44.306  30.059  13.997
81583W        W41020  30.653  29.537   3.736
81584W        W41021  28.445  19.681  13.039
81585W        W41022  16.735  27.053  12.092
81586W        W41023   4.422  25.105   0.831
81587W        W41024  42.450  42.850  14.345
81588W        W41025  28.526  35.085   3.183
81589W        W41026   4.267  23.238   2.843
81590W        W41027  20.133  10.709  14.284
81591W        W41028  42.321  36.405  13.997
81592W        W41029  20.135  36.037  10.555
81593W        W41030  23.620  31.056   1.294
81594W        W41031   9.666  41.338  13.472
81595W        W41032   4.718  21.147   0.455
81596W        W41033   0.290  10.204  10.533
81597W        W41034  24.229  36.540   0.839
81598W        W41035  44.945  22.686   0.302
81599W        W41036  38.550  36.434   1.294
81600W        W41037  25.047  36.850   0.908
81601W        W41038  43.782   3.323   5.267
81602W        W41039  30.513   7.693   0.474
81603W        W41040  22.106  20.167  12.926
81604W        W41041  29.164  14.650   1.264
81605W        W41042   5.196  15.608  12.396
81606W        W41043  31.123   5.289  13.472
81607W        W41044  38.483  39.893   4.647
81608W        W41045   0.923  44.810   3.221
81609W        W41046  26.106  17.753   4.212
81610W        W41047  28.676  16.273   3.711
81611W        W41048  31.432  29.100   3.182
81612W        W41049   9.349  28.621   3.836
81613W        W41050   1.427  14.678  11.110
81614W        W41051  29.034  24.097   3.154
81615W        W41052  42.317  34.040  10.412
81616W        W41053  39.516  35.949   1.353
81617W        W41054  41.014   0.937   1.826
81618W        W41055  24.197  13.765  13.869
81619W        W41056   6.420  10.300   0.764
81620W        W41057  18.618  41.030  10.526
81621W        W41058  21.674  43.337   0.478
81622W        W41059  32.890  24.557  13.394
81623W        W41060  16.721  11.373   1.405
81624W        W41061  17.638  28.447  14.426
81625W        W41062  35.537  10.721   1.915
81626W        W41063  37.907  15.803   2.780
81627W        W41064   9.245  39.524  13.347
81628W        W41065  35.060  17.064  13.928
81629W        W41066  17.645  40.920   5.747
81630W        W41067  26.072  32.603   2.273
81631W        W41068  41.530   2.810  12.431
81632W        W41069  41.988   3.812   0.864
81633W        W41070  29.642  40.953  10.935
81634W        W41071  34.971  33.380   2.878
81635W        W41072  13.776  37.859  13.998
81636W        W41073  27.637  41.893  11.911
81637W        W41074  43.432   4.267   2.252
81638W        W41075  44.881  25.516  12.961
81639W        W41076   0.877  43.502  11.609
81640W        W41077  28.484  31.943   3.316
81641W        W41078  27.543  14.723  12.878
81642W        W41079  43.489   4.895   0.434
81643W        W41080  17.682   5.335  14.391
81644W        W41081  15.589  11.832  13.316
81645W        W41082  27.184  26.588  10.486
81646W        W41083  29.499   7.378  12.555
81647W        W41084   1.373  10.166  14.777
81648W        W41085  19.686  25.038   2.791
81649W        W41086  28.456  11.265   1.699
81650W        W41087  25.035  18.155   2.676
81651W        W41088  24.038   1.450  14.443
81652W        W41089   4.830  11.225   3.690
81653W        W41090   4.739  17.582   4.301
81654W        W41091  40.447   5.898   4.822
81655W        W41092  40.435  35.542   0.967
81656W        W41093  28.048   2.232  10.545
81657W        W41094   3.876   3.258  10.618
81658W        W41095  14.715  41.973  12.956
81659W        W41096  27.485  27.539  12.964
81660W        W41097  17.192  18.577  10.420
81661W        W41098  15.658  32.005  12.352
81662W        W41099   4.791   8.861   3.738
81663W        W41100  16.582  37.830  11.591
81664W        W41101  27.004  21.203   4.625
81665W        W41102  38.064  10.253  11.872
81666W        W41103  31.062   1.247   3.168
81667W        W41104  19.747  27.522   0.363
81668W        W41105   1.375   2.913   2.815
81669W        W41106  13.812  26.175   1.734
81670W        W41107  33.550  10.181   4.240
81671W        W41108  29.515  14.790  12.084
81672W        W41109  31.941  29.033  14.392
81673W        W41110  16.127  16.083  11.559
81674W        W41111  18.226  34.578  10.457
81675W        W41112  38.892  13.272   4.310
81676W        W41113  33.417  21.088  10.952
81677W        W41114  43.775   8.217   3.864
81678W        W41115   9.218  40.811   4.781
81679W        W41116  44.469   3.377  14.966
81680W        W41117  39.485  38.914  12.037
81681W        W41118   1.295  21.113  13.434
81682W        W41119  11.820  37.864   1.812
81683W        W41120  38.927  41.968   1.737
81684W        W41121  28.970  43.844   2.806
81685W        W41122   5.869  32.578   4.622
81686W        W41123  21.724  29.443  14.293
81687W        W41124  24.216  14.097  13.509
81688W        W41125  39.983  22.657  10.958
81689W        W41126   3.340  40.969   0.300
81690W        W41127  24.645   5.207   4.190
81691W        W41128  29.503  23.163  14.882
81692W        W41129  42.000  20.255  11.433
81693W        W41130  10.187  27.621   2.776
81694W        W41131  12.777   6.364  11.457
81695W        W41132   4.889  41.017   0.785
81696W        W41133  41.316  20.762   3.332
81697W        W41134   6.191   6.753   1.747
81698W        W41135  29.642  28.992   9.932
81699W        W41136  14.783  35.474  11.084
81700W        W41137  28.518  38.903  11.076
81701W        W41138  41.824  36.846  11.908
81702W        W41139  23.680   1.417  14.446
81703W        W41140  34.453  28.079  10.414
81704W        W41141  22.220  20.621   0.830
81705W        W41142  37.025  43.325   3.306
81706W        W41143  15.134  12.749   2.845
81707W        W41144   2.372   3.370  14.996
81708W        W41145  29.457  14.176   1.820
81709W        W41146  22.092  26.058  13.355
81710W        W41147  22.685  19.767  13.848
81711W        W41148  22.659  27.665   3.756
81712W        W41149  25.054  39.336  11.553
81713W        W41150  17.585  27.108   2.308
81714W        W41151  36.949  16.173  12.949
81715W        W41152  12.617  29.611   4.818
81716W        W41153   4.383  34.967   3.293
81717W        W41154  30.544   9.695  11.544
81718W        W41155   2.865  37.374  11.012
81719W        W41156  35.881  24.991  14.773
81720W        W41157  39.011  23.540  14.857
81721W        W41158  37.488  24.022   5.087
81722W        W41159   4.734  28.571  12.053
81723W        W41160  38.850   6.315   0.270
81724W        W41161   7.680  44.337  14.355
81725W        W41162  25.631  13.707   1.848
81726W        W41163   8.339   1.438   3.811
81727W        W41164  14.616  21.743   4.814
81728W        W41165  40.507   1.870   1.441
81729W        W41166  18.556  37.439  10.939
81730W        W41167  10.688   7.872   1.268
81731W        W41168  35.476  31.641   2.825
81732W        W41169  20.661   3.354   3.864
81733W        W41170  21.674  35.071  13.942
81734W        W41171   9.802  18.190   1.343
81735W        W41172  18.267  13.183  13.971
81736W        W41173  29.165  35.878  14.879
81737W        W41174  15.273  12.260   2.831
81738W        W41175  28.593  24.529   0.795
81739W        W41176  29.498  28.094  10.587
81740W        W41177  37.011  13.350   3.209
81741W        W41178  10.240  32.577   0.258
81742W        W41179  13.186  10.821  11.378
81743W        W41180  11.787   0.387  12.938
81744W        W41181  15.756  22.130  13.875
81745W        W41182  17.095  12.271  12.939
81746W        W41183   7.266  13.613  13.058
81747W        W41184  12.252  39.046  10.981
81748W        W41185  39.545   6.832  14.483
81749W        W41186   8.167  26.191   1.317
81750W        W41187   0.747  12.795  14.018
81751W        W41188  24.183  27.466   4.703
81752W        W41189  35.037  42.887   0.735
81753W        W41190  14.116   0.315  12.964
81754W        W41191  14.236  27.592   4.246
81755W        W41192  38.343  20.602  14.380
81756W        W41193  28.581  44.344   0.406
81757W        W41194  22.110  19.253   1.266
81758W        W41195  20.154  40.046   4.736
81759W        W41196  33.491  12.260   4.171
81760W        W41197  40.452   6.821  13.355
81761W        W41198   7.190  18.630  13.980
81762W        W41199  43.780  42.936   2.884
81763W        W41200   6.310  37.529   4.277
81764W        W41201  14.109  34.569   3.292
81765W        W41202  18.271  23.564   4.808
81766W        W41203  14.125  10.697  14.013
81767W        W41204  24.502  26.580  11.933
81768W        W41205  19.182  20.047   0.328
81769W        W41206  17.248  43.926  13.482
81770W        W41207  43.383  18.230   0.959
81771W        W41208  34.065  29.999  12.359
81772W        W41209  23.220  20.680  10.036
81773W        W41210  42.389  37.440   5.116
81774W        W41211   1.917  17.067  10.960
81775W        W41212  26.638   3.225  10.904
81776W        W41213  10.241  14.181   1.873
81777W        W41214  26.565   4.216   4.774
81778W        W41215   0.410  10.284  14.841
81779W        W41216  21.118  38.985  11.569
81780W        W41217   7.857  31.412  11.466
81781W        W41218  29.523  22.081   3.305
81782W        W41219  16.287   3.886   4.691
81783W        W41220   3.321  28.500   1.412
81784W        W41221  14.771   6.421  13.920
81785W        W41222  33.127  15.613   1.877
81786W        W41223  35.037  19.284   1.760
81787W        W41224  24.669  39.901  13.535
81788W        W41225  25.643  14.173  10.615
81789W        W41226  21.250   8.821  14.336
81790W        W41227   7.855  42.298   1.752
81791W        W41228  17.665  19.082   3.287
81792W        W41229  38.907  28.472   0.852
81793W        W41230   5.210  32.444  14.470
81794W        W41231  30.638  10.329   3.721
81795W        W41232  19.642  36.047  12.071
81796W        W41233  20.763  10.658  11.890
81797W        W41234  30.607  39.415  11.468
81798W        W41235  25.702  31.555   2.763
81799W        W41236   6.216  12.253  12.948
81800W        W41237  23.499  35.950  12.930
81801W        W41238  25.630  11.211   2.398
81802W        W41239   7.755  17.247   2.704
81803W        W41240  30.564   2.334  13.799
81804W        W41241   6.872  40.823   1.860
81805W        W41242  20.068  22.563   0.774
81806W        W41243  39.410  23.207  14.866
81807W        W41244  23.644  39.490  13.896
81808W        W41245  11.698  28.070   3.631
81809W        W41246  34.574  39.902  14.436
81810W        W41247  13.206  35.870   1.725
81811W        W41248   1.384  26.664   1.325
81812W        W41249  31.954   0.323   4.699
81813W        W41250  14.174  28.658  11.951
81814W        W41251   9.667  12.815  14.013
81815W        W41252  27.124   2.402   2.379
81816W        W41253  39.520  32.138   3.833
81817W        W41254  21.568  23.989  12.363
81818W        W41255  27.623  31.949  14.458
81819W        W41256   6.388  43.411  11.992
81820W        W41257  39.552  44.437   2.178
81821W        W41258  40.949  32.569   0.361
81822W        W41259  27.057  42.950  11.588
81823W        W41260  15.127  36.573   1.423
81824W        W41261   7.209  29.661  12.363
81825W        W41262  10.727   0.960   0.435
81826W        W41263  22.620   9.706  13.355
81827W        W41264  21.619  12.692  12.065
81828W        W41265   5.386  25.686   3.340
81829W        W41266  13.610  44.767   1.711
81830W        W41267   9.169  28.155  13.480
81831W        W41268  18.592  32.902   3.257
81832W        W41269   1.340  26.521  14.942
81833W        W41270  11.791   6.214  14.928
81834W        W41271  18.743  22.047   0.786
81835W        W41272  43.835  14.238  10.028
81836W        W41273  10.350  26.107  11.875
81837W        W41274  19.104  17.201  13.853
81838W        W41275  28.014  31.000   2.776
81839W        W41276  33.495  28.567  12.915
81840W        W41277  16.673   1.971  14.508
81841W        W41278   6.395   1.806  10.049
81842W        W41279   7.387   5.434  14.980
81843W        W41280  10.151   3.760   3.347
81844W        W41281  34.060   5.910  12.925
81845W        W41282  28.507  18.224   1.304
81846W        W41283  39.535  17.783   2.694
81847W        W41284  40.426  21.611   3.236
81848W        W41285  21.617  30.992  12.897
81849W        W41286   2.344  11.358  11.399
81850W        W41287  36.079  23.087   1.385
81851W        W41288  24.618  30.065  12.843
81852W        W41289  31.413  18.740  13.447
81853W        W41290  25.051  28.511  14.905
81854W        W41291  44.305  26.589   2.708
81855W        W41292   4.339  29.539   1.895
81856W        W41293   4.433   2.852  14.802
81857W        W41294  15.173   1.353  11.435
81858W        W41295   1.876  38.395  11.907
81859W        W41296  18.268   8.677   5.170
81860W        W41297  32.606  24.665   0.246
81861W        W41298  24.599  19.753  14.311
81862W        W41299  22.523  36.404  14.836
81863W        W41300  26.467  24.039  10.112
81864W        W41301  10.377  41.326  11.881
81865W        W41302   0.343  15.294   1.752
81866W        W41303   5.809  41.357   2.766
81867W        W41304  17.614  26.120  11.030
81868W        W41305  21.078  20.584   3.202
81869W        W41306  11.748   1.367  13.877
81870W        W41307  17.255   6.734  10.503
81871W        W41308  29.513  42.877   4.115
81872W        W41309  15.633  21.199  14.833
81873W        W41310  34.905  39.529   3.386
81874W        W41311  10.638  34.865   3.284
81875W        W41312  31.498  11.237  12.056
81876W        W41313  40.441  37.071   0.441
81877W        W41314  40.814  13.626   1.896
81878W        W41315   1.800  35.919  12.510
81879W        W41316  32.613  41.877  14.368
81880W        W41317  43.411  18.674  14.357
81881W        W41318  32.400  42.837  13.544
81882W        W41319  35.975  36.454  11.956
81883W        W41320   2.472   5.853   2.287
81884W        W41321  21.244   7.345  14.494
81885W        W41322  36.092  28.138  10.580
81886W        W41323  41.860  36.441  14.816
81887W        W41324   1.951  44.290   1.717
81888W        W41325   1.433  34.924  14.403
81889W        W41326  33.961  13.286   4.834
81890W        W41327  12.119  30.489   1.352
81891W        W41328   9.827  33.444  14.382
81892W        W41329   0.255  16.613   3.380
81893W        W41330  39.830   2.468  14.950
81894W        W41331  27.035  29.070  13.320
81895W        W41332  28.486  36.577   1.845
81896W        W41333   3.924  14.818   3.314
81897W        W41334  26.155  29.964   0.283
81898W        W41335  31.127  20.045  14.857
81899W        W41336  29.646  15.698   2.749
81900W        W41337  11.128  30.996   2.693
81901W        W41338  34.591  18.630   2.810
81902W        W41339  37.372  21.048  11.986
81903W        W41340   0.459   5.426   3.749
81904W        W41341  15.685   9.785  12.441
81905W        W41342  43.429  36.507   0.868
81906W        W41343   6.202  42.492   3.319
81907W        W41344  33.999   6.766  13.932
81908W        W41345   3.763   6.734  11.949
81909W        W41346  25.192  32.975   1.303
81910W        W41347  40.316   5.931  11.548
81911W        W41348  35.557  24.590  13.045
81912W        W41349  21.183   4.774   4.166
81913W        W41350  16.299  27.995  10.502
81914W        W41351  34.071  41.852   0.740
81915W        W41352  41.380   6.902  14.912
81916W        W41353  33.563  27.552   4.635
81917W        W41354  27.076  43.343   0.261
81918W        W41355  27.493  12.193  11.962
81919W        W41356  19.754  37.402   1.376
81920W        W41357   8.779   6.375  14.996
81921W        W41358  35.393   3.321   3.164
81922W        W41359  28.948   3.370   3.299
81923W        W41360  43.353  43.774  10.469
81924W        W41361  33.062   1.902   1.770
81925W        W41362  15.668  32.089   4.656
81926W        W41363   8.703  36.911  12.341
81927W        W41364   6.767   6.364  14.803
81928W        W41365  33.929  28.070  10.442
81929W        W41366  29.518   6.295  10.054
81930W        W41367   8.290  28.469   3.338
81931W        W41368   9.270   6.918  14.768
81932W        W41369  12.173  20.546   0.746
81933W        W41370  12.236  37.087   3.764
81934W        W41371  15.297  34.468   2.209
81935W        W41372  33.940  17.290   1.339
81936W        W41373  30.985  28.105   3.268
81937W        W41374  34.999  11.266  12.017
81938W        W41375  44.351  15.607  11.462
81939W        W41376  37.509  28.020   1.294
81940W        W41377  32.988  32.039  14.300
81941W        W41378   3.428   0.783  14.793
81942W        W41379   0.253  29.455   3.650
81943W        W41380  29.956  32.139  14.406
81944W        W41381  28.184  39.434  12.878
81945W        W41382  10.188  34.932   1.299
81946W        W41383  32.429  29.517  11.373
81947W        W41384  28.186  11.191   2.243
81948W        W41385  43.951  14.723  12.475
81949W        W41386  20.687  30.595  11.120
81950W        W41387  32.426  35.545  14.820
81951W        W41388  16.150  30.063   1.395
81952W        W41389  19.178  44.270   4.668
81953W        W41390  20.690   0.355  12.865
81954W        W41391  43.272  44.416  11.104
81955W        W41392  19.254  35.020   2.351
81956W        W41393  43.811  42.870  13.055
81957W        W41394   4.851  24.053  13.873
81958W        W41395  17.246  44.010  10.921
81959W        W41396  31.985   6.813  12.863
81960W        W41397  39.949  16.131  14.823
81961W        W41398   7.196  20.069   0.444
81962W        W41399  28.664  20.032  11.382
81963W        W41400  32.128   8.250   0.799
81964W        W41401   9.737  39.468  11.876
81965W        W41402   5.216  39.822  11.017
81966W        W41403  19.107   2.726  10.900
81967W        W41404  28.182  12.323   2.825
81968W        W41405  25.527  37.002   9.984
81969W        W41406   1.921  35.021  13.951
81970W        W41407  38.401  25.706  12.424
81971W        W41408   0.325   0.844  12.505
81972W        W41409  23.519  24.141   4.665
81973W        W41410  44.298   3.312  13.904
81974W        W41411  20.073  20.647   3.383
81975W        W41412  38.003  29.093   3.311
81976W        W41413  16.800  40.988   3.302
81977W        W41414  40.858   3.425  11.057
81978W        W41415  43.290  11.845  13.036
81979W        W41416  12.135  39.902  11.980
81980W        W41417  18.681  44.342   5.112
81981W        W41418  18.080  28.125  12.580
81982W        W41419   6.217  32.595  14.455
81983W        W41420  38.050  10.807   1.403
81984W        W41421  43.861  40.544   9.623
81985W        W41422  15.584  44.395   4.258
81986W        W41423  36.061  13.767  10.909
81987W        W41424  18.668   4.428  11.040
81988W        W41425  32.541  20.722  12.059
81989W        W41426  20.686  42.288   5.240
81990W        W41427   8.755  13.685   3.718
81991W        W41428  34.909  11.284  14.820
81992W        W41429   0.280  11.863  12.883
81993W        W41430  37.892  25.100   4.655
81994W        W41431  14.284  38.025  10.439
81995W        W41432   4.293  12.229  11.119
81996W        W41433   4.898  29.152  12.568
81997W        W41434  17.727   1.736  12.508
81998W        W41435  43.375   7.755  10.479
81999W        W41436   8.211   0.301  12.516
82000W        W41437  35.540  39.992  14.941
82001W        W41438  36.365  23.131   0.913
82002W        W41439  24.984   3.858   0.764
82003W        W41440   2.963  20.538  11.096
82004W        W41441  30.119   1.804   1.846
82005W        W41442   3.821  35.471  11.447
82006W        W41443   6.815  11.359   2.699
82007W        W41444  19.231  10.824  11.558
82008W        W41445  13.678  27.995   4.236
82009W        W41446  29.650   0.774  12.096
82010W        W41447  18.159   9.229  10.919
82011W        W41448  23.227  27.462  10.968
82012W        W41449   1.834   2.782   1.254
82013W        W41450  14.187  28.975   3.178
82014W        W41451   4.331   2.759  13.870
82015W        W41452  20.541   1.362   0.921
82016W        W41453  42.447  12.739   4.326
82017W        W41454  25.166  21.699   3.257
82018W        W41455  26.473  38.362   2.365
82019W        W41456  38.383   0.909  10.968
82020W        W41457  10.312   1.861   1.856
82021W        W41458   7.341  34.590   2.209
82022W        W41459  28.600  27.641   3.778
82023W        W41460   2.381  35.066  14.841
82024W        W41461   1.954  22.211   4.116
82025W        W41462  26.576   5.423   0.307
82026W        W41463  32.565   1.478   3.635
82027W        W41464  14.768  13.132  12.069
82028W        W41465  34.097  41.967   3.252
82029W        W41466  19.272  19.095  11.544
82030W        W41467  14.678   6.376  13.335
82031W        W41468  42.389  12.340   1.313
82032W        W41469   3.297  16.644  13.451
82033W        W41470  17.209  29.963  10.072
82034W        W41471   3.922  39.375   3.264
82035W        W41472  14.779  38.436  12.500
82036W        W41473  40.338  32.515  12.370
82037W        W41474  35.958  16.134  13.539
82038W        W41475  22.736   1.883  10.638
82039W        W41476  43.778  36.520  12.561
82040W        W41477  16.567  37.581   3.360
82041W        W41478   2.450  23.092  14.326
82042W        W41479  44.960  23.038   4.114
82043W        W41480   7.797   4.750  11.878
82044W        W41481  11.844   3.368   4.831
82045W        W41482   5.802  16.231  11.933
82046W        W41483  39.858  32.893   1.885
82047W        W41484   5.335  41.943  13.990
82048W        W41485  29.978  44.345  11.029
82049W        W41486  36.405  35.039  11.945
82050W        W41487   2.786   3.897  13.889
82051W        W41488   9.846  17.297  11.374
82052W        W41489  18.125  18.050   3.653
82053W        W41490   8.809  25.508  14.483
82054W        W41491  19.645  31.474  14.490
82055W        W41492  22.698   6.418   2.848
82056W        W41493   2.320  27.613  14.493
82057W        W41494  16.683  40.462   0.835
82058W        W41495  19.648   5.224   2.699
82059W        W41496  10.801  35.484  12.885
82060W        W41497  31.119  22.164  12.870
82061W        W41498  40.303  39.346  10.548
82062W        W41499  14.102  32.553  10.433
82063W        W41500   9.782  34.885   1.354
82064W        W41501   6.781  33.445  12.462
82065W        W41502  28.036  16.670   1.714
82066W        W41503  22.041  39.388  14.454
82067W        W41504   6.246  34.905   0.422
82068W        W41505   6.731  14.659  14.283
82069W        W41506  28.593  18.576   4.328
82070W        W41507  27.146  32.916  12.840
82071W        W41508   2.307  26.558  12.083
82072W        W41509  42.986  43.774  12.926
82073W        W41510  13.791  31.070   0.835
82074W        W41511  43.492  25.054   3.382
82075W        W41512  13.127   6.300   3.184
82076W        W41513  44.395  11.762   1.419
82077W        W41514  32.089  14.826  12.410
82078W        W41515   0.469  30.117   3.657
82079W        W41516  32.075  26.112  11.004
82080W        W41517  33.605  17.213   0.799
82081W        W41518  34.870  19.647   4.246
82082W        W41519   8.724  20.270  13.059
82083W        W41520  40.352  27.549   0.411
82084W        W41521  13.783  30.515  14.382
82085W        W41522  41.470  39.357  13.924
82086W        W41523  15.248  16.585  12.860
82087W        W41524  23.706  11.247   3.202
82088W        W41525  31.508  33.586  12.413
82089W        W41526  34.095  36.347   4.236
82090W        W41527  29.047  38.532  12.863
82091W        W41528  31.616  16.628  10.555
82092W        W41529   3.890  37.456   0.471
82093W        W41530  27.492  43.817  12.399
82094W        W41531  43.370  44.837  14.440
82095W        W41532  29.585   8.768   3.871
82096W        W41533  19.164  11.629  11.074
82097W        W41534  22.698  36.042   1.210
82098W        W41535  16.082  17.203   3.208
82099W        W41536  19.558  22.064  12.884
82100W        W41537  12.244  26.584  14.770
82101W        W41538  35.538  36.364   4.196
82102W        W41539   7.789  30.951   4.277
82103W        W41540  42.957  34.569   3.756
82104W        W41541   5.281   1.362  11.113
82105W        W41542  32.394  19.181  10.962
82106W        W41543  13.236  29.576   2.760
82107W        W41544   0.272  22.068  14.887
82108W        W41545  11.366  25.701   1.919
82109W        W41546  12.323  27.537  10.959
82110W        W41547  31.500  13.619   3.772
82111W        W41548   1.376  42.841  14.799
82112W        W41549   6.188  33.916  14.856
82113W        W41550  24.505  11.698   0.388
82114W        W41551  21.677  21.144  10.495
82115W        W41552  19.250  44.807   3.296
82116W        W41553  36.539  18.109  14.997
82117W        W41554  23.644  38.016   3.341
82118W        W41555   0.810  34.036  12.482
82119W        W41556  44.834  32.935   5.254
82120W        W41557  34.591  31.541  10.613
82121W        W41558  26.528  33.415   1.327
82122W        W41559  35.857   3.830   2.251
82123W        W41560  29.566   7.359   0.483
82124W        W41561  13.622   3.385   3.700
82125W        W41562   6.815   7.871   1.391
82126W        W41563  42.355  39.990   0.921
82127W        W41564   5.436  14.673  13.442
82128W        W41565  35.549   1.351  10.492
82129W        W41566  26.167  26.601  11.426
82130W        W41567   2.396  29.117   2.290
82131W        W41568  11.630  20.699  12.903
82132W        W41569  22.629  32.042   3.363
82133W        W41570  25.643  44.368   9.948
82134W        W41571  25.033  40.977  11.907
82135W        W41572   1.245  38.069   0.439
82136W        W41573   9.359  26.142   1.432
82137W        W41574  44.832  11.731   3.176
82138W        W41575  22.527  31.106  14.916
82139W        W41576   2.392  17.285   0.951
82140W        W41577  28.954   0.488   3.260
82141W        W41578  36.011  24.643   3.798
82142W        W41579  36.849   2.723   1.807
82143W        W41580   3.222   4.767  11.095
82144W        W41581  44.967  28.013   3.802
82145W        W41582  39.859  32.520   3.297
82146W        W41583  32.417  26.639   0.735
82147W        W41584  28.145  42.999  12.556
82148W        W41585   4.898  17.700  14.509
82149W        W41586  36.392  12.275   1.424
82150W        W41587   7.290  19.582   1.821
82151W        W41588  40.971  43.805   2.224
82152W        W41589  15.799  27.198   0.283
82153W        W41590  36.988  23.716  10.899
82154W        W41591  23.497  35.923   2.782
82155W        W41592  23.606  33.986   2.820
82156W        W41593  29.967  17.284  13.391
82157W        W41594  26.119  33.960  13.992
82158W        W41595  25.709  38.965   1.288
82159W        W41596  20.080  41.990   0.910
82160W        W41597  37.537  32.135  12.574
82161W        W41598  43.443  23.139  12.402
82162W        W41599  36.094  29.937   4.345
82163W        W41600   3.404  12.293   4.757
82164W        W41601   9.198   2.251   2.724
82165W        W41602  28.457  15.085   0.904
82166W        W41603  35.879  14.759   3.819
82167W        W41604   4.313  19.084  13.846
82168W        W41605  31.038  26.527  14.457
82169W        W41606  27.685   3.947  13.498
82170W        W41607   7.307  16.633  11.070
82171W        W41608  42.789  30.528   0.439
82172W        W41609  37.924   7.376   0.957
82173W        W41610   5.902  30.550   0.258
82174W        W41611  31.056   5.227   4.334
82175W        W41612  43.907  40.536  11.019
82176W        W41613  21.213  41.006   1.802
82177W        W41614  10.265  32.128  13.514
82178W        W41615  16.581  39.844   4.674
82179W        W41616   3.746   8.390  12.405
82180W        W41617   4.325  44.380  13.019
82181W        W41618  13.109   6.336  14.396
82182W        W41619  18.137  25.104  13.428
82183W        W41620  17.738   2.967   1.317
82184W        W41621   7.725  11.273   2.753
82185W        W41622   6.219  25.640   2.368
82186W        W41623  22.134   6.384   2.266
82187W        W41624  18.702  14.637  10.633
82188W        W41625  32.102   5.384  14.366
82189W        W41626   4.923   2.390  11.382
82190W        W41627   1.310   2.343   0.409
82191W        W41628  13.148  41.535   0.346
82192W        W41629  23.626   0.259   1.246
82193W        W41630   5.346  19.181  11.589
82194W        W41631   5.231   6.908  14.766
82195W        W41632   8.696  14.307   2.706
82196W        W41633   2.451   9.821   3.721
82197W        W41634   1.785  15.703   9.956
82198W        W41635  27.166  30.052  12.448
82199W        W41636  18.770  17.677  12.399
82200W        W41637  29.175  16.315  14.472
82201W        W41638  44.890  40.941   4.748
82202W        W41639  12.176  15.239   2.304
82203W        W41640   2.783  20.055  14.361
82204W        W41641  41.329  36.060   3.814
82205W        W41642  11.250  26.093   3.383
82206W        W41643  27.534   1.890  13.868
82207W        W41644  43.819  17.262  11.024
82208W        W41645  37.846   2.851  10.512
82209W        W41646  29.498  31.451  11.904
82210W        W41647   9.814   9.195   1.348
82211W        W41648  32.038  20.527  13.409
82212W        W41649  17.591  21.135   2.397
82213W        W41650  26.150   1.428   0.368
82214W        W41651   8.757   5.809  14.409
82215W        W41652  26.653  39.528   2.883
82216W        W41653  35.102  21.150  14.351
82217W        W41654  24.191  28.974  12.405
82218W        W41655  20.132   5.704   3.757
82219W        W41656  19.541  31.567   3.646
82220W        W41657   4.298   8.353   0.952
82221W        W41658  37.518  19.683  14.949
82222W        W41659  31.641  16.129   3.148
82223W        W41660   7.670  35.899   2.348
82224W        W41661   9.158   4.268  11.052
82225W        W41662  23.058  36.581   5.242
82226W        W41663   2.832   0.456  11.487
82227W        W41664   6.761  13.264  13.401
82228W        W41665   1.425  28.941   0.846
82229W        W41666   0.795  37.886  11.377
82230W        W41667  27.984  15.218  11.421
82231W        W41668  13.191  40.985   2.804
82232W        W41669   3.296   5.890   0.924
82233W        W41670   9.189  39.060  11.391
82234W        W41671  14.628  25.472  12.450
82235W        W41672  19.255  21.616   2.409
82236W        W41673  44.368  25.042   0.350
82237W        W41674   3.431  41.786   4.790
82238W        W41675  16.805  44.772  11.095
82239W        W41676   9.269  10.780  14.441
82240W        W41677  30.017  32.420  13.047
82241W        W41678  30.653  16.684   2.401
82242W        W41679  18.053  43.284   0.288
82243W        W41680  44.379  44.797  12.965
82244W        W41681  14.628  37.981  12.939
82245W        W41682  40.053  29.484   3.835
82246W        W41683  41.343  18.749  14.410
82247W        W41684  12.651   1.860   4.821
82248W        W41685   4.701   2.723   4.663
82249W        W41686  22.582  36.070  14.001
82250W        W41687  13.752  38.907  13.027
82251W        W41688  20.666  30.036  11.499
82252W        W41689  33.437  32.080  14.367
82253W        W41690   6.898  35.395   4.615
82254W        W41691  21.135   8.658   0.388
82255W        W41692  43.490   4.449  12.088
82256W        W41693  25.556  19.534   0.927
82257W        W41694  39.424  12.633   1.787
82258W        W41695   8.786   2.748  14.832
82259W        W41696  29.032  40.972  12.457
82260W        W41697  20.102   1.836  10.420
82261W        W41698  20.086   3.403   0.947
82262W        W41699  30.121  27.047   1.430
82263W        W41700   3.927  36.013   4.638
82264W        W41701  32.894  10.199   3.162
82265W        W41702  29.598  32.090  10.925
82266W        W41703  15.746  24.657   4.808
82267W        W41704  31.054  12.783  13.885
82268W        W41705  16.766  39.993   1.324
82269W        W41706  27.975  12.141   3.173
82270W        W41707   1.418  21.537   2.271
82271W        W41708  14.187  22.155  12.039
82272W        W41709  33.033  10.262   1.835
82273W        W41710  36.550  43.854  14.436
82274W        W41711  44.930  35.431  14.992
82275W        W41712  22.652  15.145   3.649
82276W        W41713  23.734  29.984   2.890
82277W        W41714  37.440  36.506   0.330
82278W        W41715   1.892   8.777   0.949
82279W        W41716  16.754  23.110  10.936
82280W        W41717  14.832   5.435  12.432
82281W        W41718  13.612  39.348   0.825
82282W        W41719  18.053  26.119  13.412
82283W        W41720  32.041  34.875  14.018
82284W        W41721  26.134  22.534   4.242
82285W        W41722  11.192  33.099   1.355
82286W        W41723  22.567  21.627   2.398
82287W        W41724  39.842   3.845   0.858
82288W        W41725  21.595  12.829   1.366
82289W        W41726  22.551  38.531  10.064
82290W        W41727  42.956   1.461   3.358
82291W        W41728  34.970  23.213   4.184
82292W        W41729  14.149   4.241   3.702
82293W        W41730  36.049  35.955   2.668
82294W        W41731  38.493  13.238  10.902
82295W        W41732  15.142   2.310  11.972
82296W        W41733  16.784   8.862  14.029
82297W        W41734   5.410   1.444  14.955
82298W        W41735   0.321  21.053  11.434
82299W        W41736  20.043  44.428  12.393
82300W        W41737  37.458   1.782  11.381
82301W        W41738  25.601  43.310   3.760
82302W        W41739  22.515  34.404  14.450
82303W        W41740  22.063  34.010  12.923
82304W        W41741  18.736  39.888  12.971
82305W        W41742  39.350  24.615   0.927
82306W        W41743  26.197  14.210  13.848
82307W        W41744   8.355  26.091  10.625
82308W        W41745  13.695   9.812  14.985
82309W        W41746  14.749  33.023  13.465
82310W        W41747  33.535  10.731   0.778
82311W        W41748  29.519  34.574  14.956
82312W        W41749  16.247  20.067   2.260
82313W        W41750   2.319  12.283  13.046
82314W        W41751  27.485  30.995  13.981
82315W        W41752  15.597  30.092   3.333
82316W        W41753  41.418  29.120  10.436
82317W        W41754  17.628   7.361   4.270
82318W        W41755   0.345  18.791   1.290
82319W        W41756  19.718  13.665  13.893
82320W        W41757  40.511   8.271  12.002
82321W        W41758  32.539  41.453   0.396
82322W        W41759  20.536  25.505  14.787
82323W        W41760  38.529  12.747  13.872
82324W        W41761  38.396  26.957  14.997
82325W        W41762  10.177  33.002  10.112
82326W        W41763  26.198  29.492  11.573
82327W        W41764  13.337  35.981  14.480
82328W        W41765   8.864  25.061   1.304
82329W        W41766  26.621  39.029   2.716
82330W        W41767  37.841  24.147   4.731
82331W        W41768  34.889  17.117   4.317
82332W        W41769   0.871  23.023  12.924
82333W        W41770   6.881  14.821  12.095
82334W        W41771  23.201  41.374   3.289
82335W        W41772  42.502   2.948  10.438
82336W        W41773  10.825   5.718  11.938
82337W        W41774  28.950  16.076  12.838
82338W        W41775  26.203   9.707  11.441
82339W        W41776  25.970  21.252  11.084
82340W        W41777  20.100  42.383   2.202
82341W        W41778  16.682  31.518   0.872
82342W        W41779   2.319  43.417   3.306
82343W        W41780  40.984  40.358   1.373
82344W        W41781  27.180  36.867  13.001
82345W        W41782  30.488  44.812  11.414
82346W        W41783  39.364  24.185   1.396
82347W        W41784  43.799  20.532  13.310
82348W        W41785   4.896   0.777   3.204
82349W        W41786   4.379  18.651  12.883
82350W        W41787   3.423  17.112   2.707
82351W        W41788  43.392  41.510   4.731
82352W        W41789  11.338  21.053   1.253
82353W        W41790  20.702  12.801  11.505
82354W        W41791  16.142  22.142  13.040
82355W        W41792  28.472   5.410   4.272
82356W        W41793   8.865  32.609   2.845
82357W        W41794  44.400  36.020   1.251
82358W        W41795  23.550   4.801  13.003
82359W        W41796  29.499  29.607   3.186
82360W        W41797  30.575  31.072  14.930
82361W        W41798  18.586  33.384  11.444
82362W        W41799  43.467  43.441   2.189
82363W        W41800  41.971  29.590  12.094
82364W        W41801   5.302  43.012   2.379
82365W        W41802  28.046  35.363  14.880
82366W        W41803  41.413  39.879  13.876
82367W        W41804  34.899  14.705   2.755
82368W        W41805  11.309  42.375  12.982
82369W        W41806  29.059   9.386  14.763
82370W        W41807  14.276  35.025   2.294
82371W        W41808  16.293  32.933   0.448
82372W        W41809  18.210  24.127   4.243
82373W        W41810  23.016  33.444   0.378
82374W        W41811  30.046  16.732   1.740
82375W        W41812   5.753  23.128  10.456
82376W        W41813  38.437  16.137   3.259
82377W        W41814  13.147  17.568   3.747
82378W        W41815  17.207  34.053   1.219
82379W        W41816   9.877  42.799   1.736
82380W        W41817  30.633  43.861   1.334
82381W        W41818  35.046  39.879  10.066
82382W        W41819  32.003  32.088  12.943
82383W        W41820  42.341  42.523  14.486
82384W        W41821  11.317  25.063  10.961
82385W        W41822  32.511  42.451  14.510
82386W        W41823  25.579  29.002   4.680
82387W        W41824  43.345  33.439   5.304
82388W        W41825  28.963  32.095   0.733
82389W        W41826  28.154  33.398   3.387
82390W        W41827  39.819  38.499   0.879
82391W        W41828  44.415  12.723   1.314
82392W        W41829  16.170  29.483   4.745
82393W        W41830   1.956   0.761  11.857
82394W        W41831  36.863  17.065   3.684
82395W        W41832  24.647   7.375  11.976
82396W        W41833  38.841  20.633  12.025
82397W        W41834  18.090  12.130   1.909
82398W        W41835  23.678   5.839  10.581
82399W        W41836  20.053  37.880   2.847
82400W        W41837  30.140  28.006  14.347
82401W        W41838  21.701  24.081  12.869
82402W        W41839  16.194   4.934  14.462
82403W        W41840   9.275  42.843   5.259
82404W        W41841  43.284  19.079   3.215
82405W        W41842  13.263  33.384  13.491
82406W        W41843  37.933  23.990  12.406
82407W        W41844  40.401  39.941  12.934
82408W        W41845  21.061   2.311   3.857
82409W        W41846  29.543  28.612  11.076
82410W        W41847  34.864  42.322   2.663
82411W        W41848   8.665  21.047  13.037
82412W        W41849   9.881  37.033   4.148
82413W        W41850  17.065  22.592  14.852
82414W        W41851  16.648  43.973   4.730
82415W        W41852   6.886  24.021   2.321
82416W        W41853  28.989  16.196   4.723
82417W        W41854  42.467  13.215  13.531
82418W        W41855  22.503  14.315   4.297
82419W        W41856  21.026  16.641   2.351
82420W        W41857  27.061  37.519   9.934
82421W        W41858   7.372  10.770   3.716
82422W        W41859  27.469  19.537   2.676
82423W        W41860  29.470  15.733  12.498
82424W        W41861  11.309   5.331  12.349
82425W        W41862  38.425  33.496   4.167
82426W        W41863  26.699  13.801  10.031
82427W        W41864   0.371  15.085   0.843
82428W        W41865  30.072  38.558  13.451
82429W        W41866  21.711  25.117   2.233
82430W        W41867  21.652   0.904  11.959
82431W        W41868  16.802   8.176  13.827
82432W        W41869  30.640  27.974   3.171
82433W        W41870  17.121  36.905   4.230
82434W        W41871   0.449  29.065   4.741
82435W        W41872   4.866  20.650   4.669
82436W        W41873  17.082  38.015  14.765
82437W        W41874  11.283  43.282   1.849
82438W        W41875  19.280  25.611  14.435
82439W        W41876  10.380  38.337   3.236
82440W        W41877   9.844  31.563  11.064
82441W        W41878   3.789  44.875   0.775
82442W        W41879  14.742  27.122   2.867
82443W        W41880  40.488  35.358   2.323
82444W        W41881  35.584  21.234  14.761
82445W        W41882   4.414  15.184  11.095
82446W        W41883  37.398  11.864   5.195
82447W        W41884  10.204  19.259   1.280
82448W        W41885  28.063  44.499   2.369
82449W        W41886   9.668  38.995   3.210
82450W        W41887   9.740  10.330   4.125
82451W        W41888  11.244  43.470   1.279
82452W        W41889  26.527  44.884  12.482
82453W        W41890  28.662  15.308  14.368
82454W        W41891   5.292  39.934   4.167
82455W        W41892  29.168  34.065  12.414
82456W        W41893  36.912  13.143  14.328
82457W        W41894  44.894  32.458   3.666
82458W        W41895  28.670  14.189   4.655
82459W        W41896  30.598  22.026  13.476
82460W        W41897  19.719  41.871   1.739
82461W        W41898  20.741  20.695  13.360
82462W        W41899  34.443  14.246  11.898
82463W        W41900  17.266  33.984  11.045
82464W        W41901  17.115  31.000   0.947
82465W        W41902   4.231  42.775   4.657
82466W        W41903  34.508   8.243   2.731
82467W        W41904   2.779  22.676  12.982
82468W        W41905  42.854  13.223   3.210
82469W        W41906   0.760   9.705   2.191
82470W        W41907  37.999   2.297  10.484
82471W        W41908  31.611  28.108  14.372
82472W        W41909  42.483  19.590  12.404
82473W        W41910  37.338  14.322   1.300
82474W        W41911  19.101   5.277  12.479
82475W        W41912  27.124  33.027  11.466
82476W        W41913   5.309  34.111   3.176
82477W        W41914   8.880  15.665  13.015
82478W        W41915  25.083  34.582   9.995
82479W        W41916  38.371  13.709  13.341
82480W        W41917  17.771  21.050   5.189
82481W        W41918  42.876  15.697   1.789
82482W        W41919  21.624  37.464   0.906
82483W        W41920   9.301  25.648   0.436
82484W        W41921  10.178  33.912  12.960
82485W        W41922   8.345  29.547   1.279
82486W        W41923  16.568  30.133  12.992
82487W        W41924   8.194   8.822   2.746
82488W        W41925  27.474  22.039  13.352
82489W        W41926  37.048  33.893   3.652
82490W        W41927  12.778  30.522  12.007
82491W        W41928   8.359   2.846  12.088
82492W        W41929  14.818  24.228  13.871
82493W        W41930  37.350  14.227  14.463
82494W        W41931  11.713  13.600   0.348
82495W        W41932  12.689  29.474   0.327
82496W        W41933  29.141   0.461  14.843
82497W        W41934  39.386  35.536  11.564
82498W        W41935   0.458   4.910   3.722
82499W        W41936  17.611  44.433   5.616
82500W        W41937  40.540   6.202   5.309
82501W        W41938  31.509  26.975   9.603
82502W        W41939  25.993  15.247  11.919
82503W        W41940  34.913  31.107  12.913
82504W        W41941  17.566  35.586   4.271
82505W        W41942  25.163  42.868  11.992
82506W        W41943  26.155  15.261   3.369
82507W        W41944   3.339  22.187   1.891
82508W        W41945  32.531  13.153  12.486
82509W        W41946  24.547  21.163   5.140
82510W        W41947   6.856  36.006   1.885
82511W        W41948  25.470  44.759   2.183
82512W        W41949  42.022  27.134  13.042
82513W        W41950  37.542  21.069  11.407
82514W        W41951  14.183  13.210  13.012
82515W        W41952  22.069   7.279  12.857
82516W        W41953   5.709   2.364   1.777
82517W        W41954  34.446  43.792   2.397
82518W        W41955  22.049  28.613   3.745
82519W        W41956  43.447  13.761   4.828
82520W        W41957   7.745  42.403   0.438
82521W        W41958  27.586  20.546   0.948
82522W        W41959  15.651  16.646  12.554
82523W        W41960  25.174  34.441  11.988
82524W        W41961   5.209  22.169  11.490
82525W        W41962  26.167  19.590  14.393
82526W        W41963  16.773  37.464  10.535
82527W        W41964  12.190  21.737   1.701
82528W        W41965  19.261  12.736   3.264
82529W        W41966   6.395  38.011   2.232
82530W        W41967  30.562  41.856  11.554
82531W        W41968  43.444   4.781  14.413
82532W        W41969  41.328  31.593   4.151
82533W        W41970  19.086  19.592   2.242
82534W        W41971   3.820  25.219   2.780
82535W        W41972  33.981   7.826   1.871
82536W        W41973  27.066   7.798  11.421
82537W        W41974  38.411  15.126  11.052
82538W        W41975  30.603   4.415  13.819
82539W        W41976  36.863  41.844   1.289
82540W        W41977  33.108  34.054  10.990
82541W        W41978   1.282   3.283   4.173
82542W        W41979  40.460   8.288  14.456
82543W        W41980  31.610  12.172  14.291
82544W        W41981  25.215  23.734  12.870
82545W        W41982   0.352  40.977   4.250
82546W        W41983  25.710  22.019   4.745
82547W        W41984   0.404  25.665  10.430
82548W        W41985  33.958  17.601   1.262
82549W        W41986  17.150  15.767  14.805
82550W        W41987   9.819  16.205   3.230
82551W        W41988  10.178  18.674  11.379
82552W        W41989  28.055  20.657  14.004
82553W        W41990  22.247  31.484   2.291
82554W        W41991  41.850  36.350   3.307
82555W        W41992  33.022   6.183   3.160
82556W        W41993  35.443  28.049   3.745
82557W        W41994  44.781  20.746  13.036
82558W        W41995  33.445  23.987   4.794
82559W        W41996  14.695  41.502  14.979
82560W        W41997  26.146  25.590   3.701
82561W        W41998  26.606  40.376   0.352
82562W        W41999  35.431  10.333  10.461
82563W        W42000  21.072  18.268  13.332
82564W        W42001  23.700  37.422   4.777
82565W        W42002  34.520   0.406   3.169
82566W        W42003  22.736  15.121   3.265
82567W        W42004  18.203  42.516  14.290
82568W        W42005  27.530  31.535   0.383
82569W        W42006  21.621  39.872   1.223
82570W        W42007  14.230   2.328  11.384
82571W        W42008  18.660  15.166  10.944
82572W        W42009  11.759   7.769   0.408
82573W        W42010  26.489  17.248   4.315
82574W        W42011  35.001  16.190  11.124
82575W        W42012  35.381  39.842   5.736
82576W        W42013   5.410  18.191   2.779
82577W        W42014   9.720  16.665  11.489
82578W        W42015  25.179   6.342  12.836
82579W        W42016  16.176   8.348  10.447
82580W        W42017  12.344  26.461   4.284
82581W        W42018  12.229   4.307   0.933
82582W        W42019  15.297  31.629  10.546
82583W        W42020  29.495  29.165   1.353
82584W        W42021  35.516  25.617  13.841
82585W        W42022  44.756  11.682  14.779
82586W        W42023  39.896  18.592   0.477
82587W        W42024  41.907  36.884  13.475
82588W        W42025  20.645   4.329   0.747
82589W        W42026  43.299  26.494  12.343
82590W        W42027   9.325   1.917   1.350
82591W        W42028  38.534  41.511   4.244
82592W        W42029   1.766  29.638  14.337
82593W        W42030  29.962  21.070  11.010
82594W        W42031  16.191   9.236  10.602
82595W        W42032  27.514  17.269  14.289
82596W        W42033  31.042  16.568  13.894
82597W        W42034  14.739  33.475   0.726
82598W        W42035  11.294   1.325   3.697
82599W        W42036  27.156   9.801   1.817
82600W        W42037   2.451   9.354  11.861
82601W        W42038  23.128  21.526   1.852
82602W        W42039  33.577  10.193  13.807
82603W        W42040  32.600  11.752   3.720
82604W        W42041   5.746  16.144  12.976
82605W        W42042   2.465   4.378   4.299
82606W        W42043  22.597  17.655   4.184
82607W        W42044  10.315  41.303  10.074
82608W        W42045  37.376  24.178   4.657
82609W        W42046   7.768  36.954   2.221
82610W        W42047  30.586  40.429   3.280
82611W        W42048   3.396  39.555   0.440
82612W        W42049  10.751   2.352  11.946
82613W        W42050  39.843  25.196  10.643
82614W        W42051  41.362  36.519  13.378
82615W        W42052  40.322  16.694   0.770
82616W        W42053  19.665   0.746   3.763
82617W        W42054   1.278   2.722  11.541
82618W        W42055  28.525  37.948   2.835
82619W        W42056  38.864  23.132   3.239
82620W        W42057  43.817  35.857  14.455
82621W        W42058  38.044  18.759  14.854
82622W        W42059  19.267  29.001   2.785
82623W        W42060   7.389  26.546  13.915
82624W        W42061  21.543   4.317  13.819
82625W        W42062  13.285   7.703  13.885
82626W        W42063  37.485  24.527  12.357
82627W        W42064   0.339  15.606   1.925
82628W        W42065  37.482  11.813  13.959
82629W        W42066  34.448   0.833  13.925
82630W        W42067  37.513  43.819   3.681
82631W        W42068  16.299  11.728  13.029
82632W        W42069  40.474   8.293   0.307
82633W        W42070   7.356   6.291  11.492
82634W        W42071  19.273  31.032   2.782
82635W        W42072  30.049  18.693  11.436
82636W        W42073  17.144  20.073   1.355
82637W        W42074  25.009   6.277  11.120
82638W        W42075  15.264   4.379   2.852
82639W        W42076  12.303  42.476   3.281
82640W        W42077   0.348  39.827  10.990
82641W        W42078  44.402  14.220   5.259
82642W        W42079  16.238  44.856   2.691
82643W        W42080   5.374  15.201   4.817
82644W        W42081  40.306   8.288   0.842
82645W        W42082  32.069  33.922  13.359
82646W        W42083  25.154  21.713  10.607
82647W        W42084  23.524  44.761  14.944
82648W        W42085   4.935  29.164  12.034
82649W        W42086  34.034  10.377   0.250
82650W        W42087  12.795   9.695  11.562
82651W        W42088  18.628  18.615   2.687
82652W        W42089  40.921  12.743  12.829
82653W        W42090  10.138  30.589  13.890
82654W        W42091   0.399   2.963  12.544
82655W        W42092   0.316   6.421  12.445
82656W        W42093  39.025  28.112  10.430
82657W        W42094  44.946  41.888   0.347
82658W        W42095   7.841  11.192   1.416
82659W        W42096  33.491  12.854   1.330
82660W        W42097  35.418  13.188  10.544
82661W        W42098  13.222  30.963   1.286
82662W        W42099   3.379  12.762   4.289
82663W        W42100  32.126  20.564   0.747
82664W        W42101  12.237   8.856   3.318
82665W        W42102  16.679  11.668   3.839
82666W        W42103  43.854  13.240  13.384
82667W        W42104  19.721  39.924   3.147
82668W        W42105   9.731   8.809   1.269
82669W        W42106   1.260  30.512  11.052
82670W        W42107  13.273  42.795   4.733
82671W        W42108  16.760   5.723  13.538
82672W        W42109  41.894  40.800  13.037
82673W        W42110  42.992  29.159   0.796
82674W        W42111   0.366   3.796   4.144
82675W        W42112  21.067  10.214  10.940
82676W        W42113  40.506  18.668  13.504
82677W        W42114   7.701  19.609  12.097
82678W        W42115  27.514  39.928  10.046
82679W        W42116  14.322  19.630  13.468
82680W        W42117  44.841   0.254   1.233
82681W        W42118   8.213   5.256   3.146
82682W        W42119  35.853   1.816  11.006
82683W        W42120   7.749  42.899   9.975
82684W        W42121   5.221  18.288  11.423
82685W        W42122  10.337  40.334   5.247
82686W        W42123  23.210  11.266  12.427
82687W        W42124  42.305   1.420  11.073
82688W        W42125  22.171   4.373   3.276
82689W        W42126   1.914  11.153  12.508
82690W        W42127  35.899   5.889   2.693
82691W        W42128  19.126  23.573   4.262
82692W        W42129  40.980  44.754  11.003
82693W        W42130  32.028  37.536   4.249
82694W        W42131  16.782  16.240   3.181
82695W        W42132  39.915  30.079  13.872
82696W        W42133  34.551  13.767  14.368
82697W        W42134  14.133  32.941   1.934
82698W        W42135  36.939  35.386  11.997
82699W        W42136  28.972   0.847  11.494
82700W        W42137  27.176  24.066   5.227
82701W        W42138  27.017  21.551  12.390
82702W        W42139  22.516  12.699  12.510
82703W        W42140  19.600  11.290  14.914
82704W        W42141  18.757   8.208   3.778
82705W        W42142  34.371  26.682   4.183
82706W        W42143  33.422  13.261   0.796
82707W        W42144   2.838   9.220  13.509
82708W        W42145  20.759  30.648  13.924
82709W        W42146  31.920   2.434  11.897
82710W        W42147  25.017  13.733  13.399
82711W        W42148  16.661  11.706   1.274
82712W        W42149  20.598  43.474  10.555
82713W        W42150   7.745  23.652  14.879
82714W        W42151  11.374  11.727   2.398
82715W        W42152  23.600  19.228  10.932
82716W        W42153  17.097  10.242   5.087
82717W        W42154  32.573  39.464  14.871
82718W        W42155  18.264  27.524  11.908
82719W        W42156  30.575   9.793  12.463
82720W        W42157  19.623  28.566  13.030
82721W        W42158  38.440   5.267  11.877
82722W        W42159  16.128  39.943   0.368
82723W        W42160  32.485  14.675  11.913
82724W        W42161  33.975  35.533   4.769
82725W        W42162  33.552  21.562  14.396
82726W        W42163   3.767   3.861   4.243
82727W        W42164  41.830  39.393   2.831
82728W        W42165  19.757   4.930  13.886
82729W        W42166   7.896  14.176   3.867
82730W        W42167  12.732  21.605  13.930
82731W        W42168  12.758  13.190   0.897
82732W        W42169  35.008  16.620   3.278
82733W        W42170  17.278  13.696  12.422
82734W        W42171  44.814  23.494  10.419
82735W        W42172  34.021  24.567   5.612
82736W        W42173  42.995  21.069  11.884
82737W        W42174  13.701  12.796  14.029
82738W        W42175  33.380  26.173  11.127
82739W        W42176  26.050  25.531  14.513
82740W        W42177   3.746  31.152  11.093
82741W        W42178  37.984   2.283  10.993
82742W        W42179  22.054  21.118  11.374
82743W        W42180   0.332   3.843  14.428
82744W        W42181  10.721  16.229   4.758
82745W        W42182  24.146  17.153  11.029
82746W        W42183   0.846  24.692   1.775
82747W        W42184   3.924  13.218  12.457
82748W        W42185  18.633  36.904   0.449
82749W        W42186  27.162  25.516  13.490
82750W        W42187   3.778  25.694   1.415
82751W        W42188  17.128  29.588  12.057
82752W        W42189  29.501  12.279  12.053
82753W        W42190   9.800  41.529   1.717
82754W        W42191   9.739  33.954   1.407
82755W        W42192  26.034  18.706   1.787
82756W        W42193   6.329  31.117   0.394
82757W        W42194   8.826  40.406  11.527
82758W        W42195  38.052   9.188   0.417
82759W        W42196  18.225  10.710  13.000
82760W        W42197  31.076  32.984   4.780
82761W        W42198   1.472  40.912  11.014
82762W        W42199  11.805  20.127  11.975
82763W        W42200   6.851  23.550  12.901
82764W        W42201  35.027  24.537  14.353
82765W        W42202  30.461  17.563   4.241
82766W        W42203  13.844   0.340   1.315
82767W        W42204   4.713  20.590   3.668
82768W        W42205  34.883   4.342   1.910
82769W        W42206  42.016  39.516   0.430
82770W        W42207  34.444   7.712   2.335
82771W        W42208  23.062  33.968  12.845
82772W        W42209   2.311  25.968   0.430
82773W        W42210  21.756  17.176   5.676
82774W        W42211  32.933  14.635   2.724
82775W        W42212  19.262   2.321   4.824
82776W        W42213  15.192  18.167  13.354
82777W        W42214  10.795   3.344  14.763
82778W        W42215   5.829  38.021  11.416
82779W        W42216  32.012  39.343   2.871
82780W        W42217  35.048   9.322   1.434
82781W        W42218  12.153  43.388  13.333
82782W        W42219  26.630  15.314  13.527
82783W        W42220  19.135  22.021  14.473
82784W        W42221  21.046  32.504  13.938
82785W        W42222  36.891   4.899  11.502
82786W        W42223   0.823  28.530   0.823
82787W        W42224  18.198   7.854   2.380
82788W        W42225  40.334  29.589   2.282
82789W        W42226   5.931  20.099   4.339
82790W        W42227  37.849  41.467   4.349
82791W        W42228  33.389  41.501   0.343
82792W        W42229  27.119  28.975  14.463
82793W        W42230  17.224  35.906   3.172
82794W        W42231  19.642  16.759   1.841
82795W        W42232  17.673  44.488   3.277
82796W        W42233  22.209  42.300   3.804
82797W        W42234  40.884  36.406  13.477
82798W        W42235  41.792  17.307   3.222
82799W        W42236  25.608  38.903   5.265
82800W        W42237  18.690  24.544  11.479
82801W        W42238  19.063  14.728  10.593
82802W        W42239  30.134  29.996  13.528
82803W        W42240  30.581  36.056  13.474
82804W        W42241  41.950  23.005   3.372
82805W        W42242   7.232   5.917   1.899
82806W        W42243  19.237  15.230   5.660
82807W        W42244  32.594  40.037  12.520
82808W        W42245  30.538  26.976   3.777
82809W        W42246  21.055  31.933  12.340
82810W        W42247  13.216   2.247   0.283
82811W        W42248  14.157   3.939  11.879
82812W        W42249  32.458  32.032  11.114
82813W        W42250   3.293  39.037  12.344
82814W        W42251   9.664  27.127  14.475
82815W        W42252  21.618  43.339  13.352
82816W        W42253  44.374  18.723  12.539
82817W        W42254  43.305  33.988  10.976
82818W        W42255  26.026   5.848  13.383
82819W        W42256   8.286  42.912  11.079
82820W        W42257  19.561   3.919  13.509
82821W        W42258  11.831  42.483   3.701
82822W        W42259  39.537  13.667  14.818
82823W        W42260   0.839  30.123   2.228
82824W        W42261  23.500  37.047   2.727
82825W        W42262  20.126  19.760   2.278
82826W        W42263  35.494   1.252   0.363
82827W        W42264   0.480  14.207   1.710
82828W        W42265   6.329  16.575   0.482
82829W        W42266  24.123  39.992  13.482
82830W        W42267  25.560  31.024  14.390
82831W        W42268  36.089   4.245   4.624
82832W        W42269  44.951   9.170  14.355
82833W        W42270  33.971  32.926   1.761
82834W        W42271  19.187   1.968  13.498
82835W        W42272  26.114  27.592   1.747
82836W        W42273  29.629  25.644  12.376
82837W        W42274  40.351  38.061   3.632
82838W        W42275  12.686  32.526   3.758
82839W        W42276   2.931  42.948   4.342
82840W        W42277  41.438   8.763   0.825
82841W        W42278  21.700  34.978  10.108
82842W        W42279  31.986  29.970  14.803
82843W        W42280  39.999  42.509   3.237
82844W        W42281  12.120  30.057  13.374
82845W        W42282  18.646   4.263   4.750
82846W        W42283  25.982  34.958  11.086
82847W        W42284  29.174  34.002  10.969
82848W        W42285   2.803  26.490   1.750
82849W        W42286  39.007  35.012  12.986
82850W        W42287  44.386  11.282  14.286
82851W        W42288  31.100  14.126   0.255
82852W        W42289  30.078  19.108   3.747
82853W        W42290  33.090  14.197   4.239
82854W        W42291  31.128  25.627   0.814
82855W        W42292  30.034  24.695   3.148
82856W        W42293  40.368  22.129   4.242
82857W        W42294  13.651   8.691   0.346
82858W        W42295  19.717  15.328  11.384
82859W        W42296  11.173  39.059  14.769
82860W        W42297  44.278  19.189   4.696
82861W        W42298  35.529  32.001  12.368
82862W        W42299  33.094  44.768  11.464
82863W        W42300  22.171  14.197   4.722
82864W        W42301  35.407  24.131  10.590
82865W        W42302   6.903  26.502  11.869
82866W        W42303  41.020  38.547   4.177
82867W        W42304   0.310  35.399   3.250
82868W        W42305  44.003   5.198   3.801
82869W        W42306  21.708  33.912   1.349
82870W        W42307   4.260  19.099  14.919
82871W        W42308  36.457  23.065   1.838
82872W        W42309  32.005  36.064   2.182
82873W        W42310  29.618   1.884  12.345
82874W        W42311  30.650  37.897   4.672
82875W        W42312  31.932  33.596   1.843
82876W        W42313   0.795   0.764   2.813
82877W        W42314  18.195  41.454   3.334
82878W        W42315  23.125  44.356   4.200
82879W        W42316  36.394  29.175  14.867
82880W        W42317   4.308  40.544   4.343
82881W        W42318  10.347  25.659  10.512
82882W        W42319  18.266  24.983   2.278
82883W        W42320  13.209  30.108   3.658
82884W        W42321  27.587  43.412  14.318
82885W        W42322  27.068  38.955   1.306
82886W        W42323  37.396  33.544  13.959
82887W        W42324   1.757  44.930   4.199
82888W        W42325  30.016  41.847   1.216
82889W        W42326  13.171  14.236   1.344
82890W        W42327  39.538  17.604  13.819
82891W        W42328  35.076  33.573  10.637
82892W        W42329  42.839  25.099   3.317
82893W        W42330  38.568  23.536  13.825
82894W        W42331  41.027  29.075   0.883
82895W        W42332  25.997  12.837  13.388
82896W        W42333   2.283  24.649   1.210
82897W        W42334  39.471  19.132  13.046
82898W        W42335   3.241   9.711  10.941
82899W        W42336  21.042  12.740  12.928
82900W        W42337  31.120  14.267  10.564
82901W        W42338  38.031  13.699  10.604
82902W        W42339  12.272  34.889  12.092
82903W        W42340   2.240  10.669   0.874
82904W        W42341  15.235  22.999  10.595
82905W        W42342  33.088  40.976  10.585
82906W        W42343  33.612  37.035  11.500
82907W        W42344   0.950   6.911   2.269
82908W        W42345  43.430  17.752  10.945
82909W        W42346   3.943  27.075   3.218
82910W        W42347  44.820  23.608  13.975
82911W        W42348   9.868  17.252  13.963
82912W        W42349  19.729  30.046   2.263
82913W        W42350  21.061  32.924  13.826
82914W        W42351  17.687  34.422   4.160
82915W        W42352  18.072  42.323  11.057
82916W        W42353  18.095   6.681   0.734
82917W        W42354  16.106   5.862   2.303
82918W        W42355  38.337  38.386  11.870
82919W        W42356   7.731  33.564   4.769
82920W        W42357   2.461  44.977  10.627
82921W        W42358  24.506  28.463  11.877
82922W        W42359  37.392  21.601   2.183
82923W        W42360  29.149  31.416  12.560
82924W        W42361  38.912  34.088   3.159
82925W        W42362  32.495  15.659  10.925
82926W        W42363  20.161   6.734   0.822
82927W        W42364  26.052  23.210   4.250
82928W        W42365  33.907  41.962   2.364
82929W        W42366  41.538  41.809  14.384
82930W        W42367   3.234  19.653   2.293
82931W        W42368   4.830  44.488   4.129
82932W        W42369  14.762   6.852  11.042
82933W        W42370  15.745  32.066   3.381
82934W        W42371  24.127  17.613  13.896
82935W        W42372   4.269  43.498  13.874
82936W        W42373  17.802  23.237  13.844
82937W        W42374  37.495  39.868   0.408
82938W        W42375  34.572  42.299  12.564
82939W        W42376  37.018  37.558   0.322
82940W        W42377  13.113  17.260   3.678
82941W        W42378   6.710  43.985  12.485
82942W        W42379  38.403  22.626   0.905
82943W        W42380   4.429  32.520   0.785
82944W        W42381  30.443  44.475   0.290
82945W        W42382  14.698  15.674   4.809
82946W        W42383  18.072  31.569  11.001
82947W        W42384  15.119   6.869  11.958
82948W        W42385   9.172   0.898   2.209
82949W        W42386  29.127  34.427   2.740
82950W        W42387   4.704  40.461  13.472
82951W        W42388  21.712  10.789   3.326
82952W        W42389  25.999   5.313   1.717
82953W        W42390  16.724  27.458  11.032
82954W        W42391  19.568  23.997  10.631
82955W        W42392   1.382  36.424  13.510
82956W        W42393  27.003  22.672  14.009
82957W        W42394   7.893  15.624   3.209
82958W        W42395  39.885  31.020   4.338
82959W        W42396   4.400   9.188  13.319
82960W        W42397  24.230  20.542  10.993
82961W        W42398  35.457  13.168  11.999
82962W        W42399  44.264  10.165   5.261
82963W        W42400  40.395  16.600  13.877
82964W        W42401  29.163  31.061   0.755
82965W        W42402   5.334  34.401   0.792
82966W        W42403  15.099  37.504   0.415
82967W        W42404  43.951  44.429  14.910
82968W        W42405  15.641  29.159  10.095
82969W        W42406  21.627  20.117  12.044
82970W        W42407  10.257  27.645  13.378
82971W        W42408  14.770  42.953  12.863
82972W        W42409   3.766  23.590  12.413
82973W        W42410  44.880  27.025   2.691
82974W        W42411  20.553  23.145   1.451
82975W        W42412   5.896   3.362  11.015
82976W        W42413  39.057  29.456  11.954
82977W        W42414   9.675  36.984  14.917
82978W        W42415  13.166  35.544  12.507
82979W        W42416  38.016  16.292   0.377
82980W        W42417  41.830  21.218   3.763
82981W        W42418  28.523  15.579  13.809
82982W        W42419  20.614  39.968  11.911
82983W        W42420  24.018  26.558   5.200
82984W        W42421  43.405  42.793  11.508
82985W        W42422  34.526  34.073   3.651
82986W        W42423  29.621   2.444  13.047
82987W        W42424  18.548  36.539   1.893
82988W        W42425   6.189  24.707  13.861
82989W        W42426  38.018   3.728   2.415
82990W        W42427  19.687  14.201  11.024
82991W        W42428  22.706  20.592  13.052
82992W        W42429  12.245  10.838  11.997
82993W        W42430   1.361   3.331  10.518
82994W        W42431   5.846  35.097   2.283
82995W        W42432  36.979  28.603  11.536
82996W        W42433  15.315  24.131   1.866
82997W        W42434   6.248  27.523  13.538
82998W        W42435   6.684   6.857  10.413
82999W        W42436  32.892  28.603   2.395
83000W        W42437  31.636   5.369   0.935
83001W        W42438  22.083  44.902   1.912
83002W        W42439  11.715  23.568   2.781
83003W        W42440  37.361  13.308  14.843
83004W        W42441  15.640   6.765  13.006
83005W        W42442   0.871  24.158   4.761
83006W        W42443   0.455   2.762  11.549
83007W        W42444  25.070  21.645   4.329
83008W        W42445  39.997  29.956  12.950
83009W        W42446  42.330   0.744  13.061
83010W        W42447  37.484  38.921   0.856
83011W        W42448  15.310  41.528   2.378
83012W        W42449  17.771  18.707   0.360
83013W        W42450  35.373  22.661   3.282
83014W        W42451  23.102  34.390  11.941
83015W        W42452  20.052   7.320   3.247
83016W        W42453  39.965  25.628  11.388
83017W        W42454  34.499   2.429   4.144
83018W        W42455  37.539   7.253   1.340
83019W        W42456   0.271  20.663  11.562
83020W        W42457   5.710  44.378  10.441
83021W        W42458  20.044  11.369   2.671
83022W        W42459  30.435  32.604  14.323
83023W        W42460   4.759  16.091  13.409
83024W        W42461  28.967  25.563   2.291
83025W        W42462  22.646  44.912  11.945
83026W        W42463  23.146  32.963  14.350
83027W        W42464  13.208  27.639   0.743
83028W        W42465  19.264  25.671  13.534
83029W        W42466  27.949  10.153  12.997
83030W        W42467  10.657  24.050   4.338
83031W        W42468  32.140   7.704   4.652
83032W        W42469   8.867  42.417   4.697
83033W        W42470  37.373  42.020  14.880
83034W        W42471  23.719  17.292   0.873
83035W        W42472  43.376  38.494  12.847
83036W        W42473  10.164  37.062  14.008
83037W        W42474  14.240  17.251   2.781
83038W        W42475   4.753  12.355   5.107
83039W        W42476  17.152  23.007  10.930
83040W        W42477   2.793   1.897  10.600
83041W        W42478  33.545  13.183   4.721
83042W        W42479   0.759  11.273  14.487
83043W        W42480  30.587  27.946  10.645
83044W        W42481  39.001   7.205   0.343
83045W        W42482  38.880  34.428   4.616
83046W        W42483   5.392  18.641  13.347
83047W        W42484  20.160  34.390  10.589
83048W        W42485  21.523  34.422  14.398
83049W        W42486  35.895  25.500  14.316
83050W        W42487  11.368  22.731  13.806
83051W        W42488   3.261   0.276  10.890
83052W        W42489  28.495  40.354  14.341
83053W        W42490  23.049  36.402   1.727
83054W        W42491  28.092  32.535  14.337
83055W        W42492  27.530  35.390   3.231
83056W        W42493  30.910  44.817  14.475
83057W        W42494  35.975   0.943  14.428
83058W        W42495  24.488  26.130   2.737
83059W        W42496   3.232  34.976  12.481
83060W        W42497  16.686  34.948   0.364
83061W        W42498  38.949   1.273   0.353
83062W        W42499   1.855  13.787  11.881
83063W        W42500   5.422  24.015   1.359
83064W        W42501   0.925  43.914   2.217
83065W        W42502  44.271   2.343   4.177
83066W        W42503  22.576  42.793  14.827
83067W        W42504  33.084  32.612  13.535
83068W        W42505  22.129  40.452   0.782
83069W        W42506  18.164  32.494  10.910
83070W        W42507  10.265  20.109  12.531
83071W        W42508   0.445  43.801   1.775
83072W        W42509  29.970   2.320   3.254
83073W        W42510  12.832  28.617  12.911
83074W        W42511  29.525  25.029   3.226
83075W        W42512  19.164  17.612   2.309
83076W        W42513  26.126  42.507   2.212
83077W        W42514  12.167  18.175  14.280
83078W        W42515  25.087  41.894  13.388
83079W        W42516   3.409  35.018   5.126
83080W        W42517  34.371  27.627  12.032
83081W        W42518  23.081   0.405   2.390
83082W        W42519  18.269  18.606  11.919
83083W        W42520   3.298  16.685  14.416
83084W        W42521   9.338  14.255  14.485
83085W        W42522  44.842  32.393   0.331
83086W        W42523  35.406  41.383  14.473
83087W        W42524  29.441  33.042  13.972
83088W        W42525   7.775  36.979  11.396
83089W        W42526  42.841  38.437  14.431
83090W        W42527  25.176   3.442  11.980
83091W        W42528  41.860   2.902  14.940
83092W        W42529   5.424  10.316  12.512
83093W        W42530   5.857  11.331   4.692
83094W        W42531  35.091  42.940  10.500
83095W        W42532   4.846  37.507   2.862
83096W        W42533  43.276   6.205   4.758
83097W        W42534  25.203  32.547   0.927
83098W        W42535  32.585   8.270  13.414
83099W        W42536  39.392   0.350  11.938
83100W        W42537  20.756  40.804  13.934
83101W        W42538   2.310  38.419   1.345
83102W        W42539   5.410  28.033  12.071
83103W        W42540  21.139  23.577  12.921
83104W        W42541   6.355   2.730  12.005
83105W        W42542  15.158  44.786   1.299
83106W        W42543  39.960   6.264   4.268
83107W        W42544  34.060  24.632  12.972
83108W        W42545  31.425  10.772   2.662
83109W        W42546  42.286   0.354   1.794
83110W        W42547  33.116  43.359   4.182
83111W        W42548  36.893  10.330  14.312
83112W        W42549  10.715  14.614   3.693
83113W        W42550  12.832  38.883   1.860
83114W        W42551  29.101  31.910  12.845
83115W        W42552  14.318   7.704   3.296
83116W        W42553   5.270  10.839  12.384
83117W        W42554  18.652  28.502  11.072
83118W        W42555  10.862   2.237  11.420
83119W        W42556   9.770   7.241   4.299
83120W        W42557  35.496   8.212  12.571
83121W        W42558  31.572  10.221  13.040
83122W        W42559  43.469  16.726   4.226
83123W        W42560   9.203  15.620   0.752
83124W        W42561  42.451  21.129  13.362
83125W        W42562  28.086  13.749  12.077
83126W        W42563  28.445  41.959   3.315
83127W        W42564  40.417  27.987  14.350
83128W        W42565  11.350   6.415   3.721
83129W        W42566   5.229  35.484  14.346
83130W        W42567   9.341  16.134   3.729
83131W        W42568  18.776   3.867   3.779
83132W        W42569  27.173  37.391  11.547
83133W        W42570  10.267   8.866  11.962
83134W        W42571   2.392  40.481  12.385
83135W        W42572  33.894   5.238  11.016
83136W        W42573  25.703  39.979   0.394
83137W        W42574  38.489  26.529  10.445
83138W        W42575  27.002  20.694  12.446
83139W        W42576  39.458  20.093  13.386
83140W        W42577  20.134  43.345  10.020
83141W        W42578  29.644  38.830  10.412
83142W        W42579  34.885  13.639   2.314
83143W        W42580  30.621  12.801   1.856
83144W        W42581   0.413  22.728  13.873
83145W        W42582   4.715   1.464   2.770
83146W        W42583   5.917  43.436   1.720
83147W        W42584  32.110  11.789  10.910
83148W        W42585  11.211   6.338  13.414
83149W        W42586   9.270  38.325   3.869
83150W        W42587   8.826  32.924  11.072
83151W        W42588  19.263  21.255   1.218
83152W        W42589   2.255  31.434  12.566
83153W        W42590  30.044  37.085  14.402
83154W        W42591  20.036  33.399   3.352
83155W        W42592  44.326  34.105   0.772
83156W        W42593  33.546  37.481   0.765
83157W        W42594   5.414  44.893  11.589
83158W        W42595  37.510   4.352   9.998
83159W        W42596  15.120  28.025   2.275
83160W        W42597  24.215  43.378  14.007
83161W        W42598  26.486  25.699   1.229
83162W        W42599   0.961  28.094  11.970
83163W        W42600  35.865  17.626   0.750
83164W        W42601  36.462  32.046  13.524
83165W        W42602  22.026  32.613  13.940
83166W        W42603  35.379  18.614  14.507
83167W        W42604  16.276  38.047   9.463
83168W        W42605  17.629  11.371  14.340
83169W        W42606   9.793   4.735   1.331
83170W        W42607  39.358  16.748   3.821
83171W        W42608  33.891  30.929   2.377
83172W        W42609   1.790  13.708   1.421
83173W        W42610   5.703  26.664   3.828
83174W        W42611  37.020  36.030  12.532
83175W        W42612   8.348  22.022   1.775
83176W        W42613  26.140  39.528  12.858
83177W        W42614  19.768  37.081   4.827
83178W        W42615  17.782  29.943  13.002
83179W        W42616  20.229   2.744  13.364
83180W        W42617  43.339   3.261   3.350
83181W        W42618  23.687  19.045   5.218
83182W        W42619  20.567  20.232  14.463
83183W        W42620   3.267  32.073  10.917
83184W        W42621   5.891  22.030   4.600
83185W        W42622   9.320   7.899   1.227
83186W        W42623  39.519   9.716  14.885
83187W        W42624  41.492  11.853   3.648
83188W        W42625  34.051  41.034  13.318
83189W        W42626   7.759  30.487   5.292
83190W        W42627   7.364  27.159   4.652
83191W        W42628  32.130  21.030  11.493
83192W        W42629   0.745  26.110  13.347
83193W        W42630  15.808   3.845   0.874
83194W        W42631   5.690  35.556  12.575
83195W        W42632  38.904  23.679   2.891
83196W        W42633  16.694   8.254   0.329
83197W        W42634  30.091  40.306   1.724
83198W        W42635   2.265   4.726  13.470
83199W        W42636  12.248  13.201  10.904
83200W        W42637  39.351   3.267  14.891
83201W        W42638  16.246  38.016   2.244
83202W        W42639   8.706  30.446  14.467
83203W        W42640  12.754  24.062   2.786
83204W        W42641  14.811  21.678   0.481
83205W        W42642  28.075  16.173  12.825
83206W        W42643  25.975  11.322   2.231
83207W        W42644  20.767  34.482   0.814
83208W        W42645  44.919   4.928   3.372
83209W        W42646  32.020  37.976   3.283
83210W        W42647  41.413  18.057  14.855
83211W        W42648  20.111  42.438   4.231
83212W        W42649  31.587  19.084  11.897
83213W        W42650   3.841  33.026  14.284
83214W        W42651  21.175  44.894   4.126
83215W        W42652  29.530  27.451  12.021
83216W        W42653   2.431  16.662  10.485
83217W        W42654   1.395  18.721   1.415
83218W        W42655  35.042  32.512  14.321
83219W        W42656  39.987   9.305   3.636
83220W        W42657  44.397  33.951   0.365
83221W        W42658  32.943  14.783  11.501
83222W        W42659  39.535  25.135   1.876
83223W        W42660  16.660  37.837   1.719
83224W        W42661  25.214  31.503   3.183
83225W        W42662  36.434  10.744  11.895
83226W        W42663  38.361   5.834  10.516
83227W        W42664  39.850  14.323  11.923
83228W        W42665  30.146  22.130   5.286
83229W        W42666  32.519  30.127  12.846
83230W        W42667   6.382  43.380  14.483
83231W        W42668  11.648  22.035  14.800
83232W        W42669  16.113  36.478   1.241
83233W        W42670  24.004  42.462  13.811
83234W        W42671   7.383  17.640  10.542
83235W        W42672   3.341  27.089  13.863
83236W        W42673  23.641  14.204  11.037
83237W        W42674  40.335  35.030   3.302
83238W        W42675  40.996  17.236  12.475
83239W        W42676  37.835   2.819  14.472
83240W        W42677  22.042  39.332   3.293
83241W        W42678   5.211   7.728   2.706
83242W        W42679  44.790  39.557   3.719
83243W        W42680  37.839  34.615  14.401
83244W        W42681  31.080  39.412  14.934
83245W        W42682  33.493  25.512  13.941
83246W        W42683  39.458  11.301  11.424
83247W        W42684  30.489  26.582  11.461
83248W        W42685  15.691  11.202  13.794
83249W        W42686   1.927  29.537   3.643
83250W        W42687   9.747  25.104  10.598
83251W        W42688  23.239  20.716   9.538
83252W        W42689  28.103  34.977  11.104
83253W        W42690   9.269  40.487   3.710
83254W        W42691  34.001  38.425   1.408
83255W        W42692   3.758   1.420   2.887
83256W        W42693  19.260  44.297  10.476
83257W        W42694  32.527  22.044   3.723
83258W        W42695  30.632  19.536   0.875
83259W        W42696  27.071  28.584  14.985
83260W        W42697  34.031   0.446   2.298
83261W        W42698  35.444  16.167  13.892
83262W        W42699  31.123  35.910   4.119
83263W        W42700  35.560  11.272  12.073
83264W        W42701  34.578  30.655  14.401
83265W        W42702  25.129  39.450  14.880
83266W        W42703  13.287  37.878   3.698
83267W        W42704  19.737  37.857   4.693
83268W        W42705   4.877  43.874  10.527
83269W        W42706  18.099  14.707  10.520
83270W        W42707  23.705  18.771  11.097
83271W        W42708  37.536  23.012   1.240
83272W        W42709  17.768  11.686  13.801
83273W        W42710  31.088  38.331  11.446
83274W        W42711  13.681  23.527  12.359
83275W        W42712  19.644  23.557  13.429
83276W        W42713  39.332  28.109  13.869
83277W        W42714   4.922  12.138  12.550
83278W        W42715  13.251  35.545  14.904
83279W        W42716  15.329  24.724  12.382
83280W        W42717   7.352   5.865  13.960
83281W        W42718  32.464   9.368   0.455
83282W        W42719  37.937  31.432   2.358
83283W        W42720  40.991  25.530   4.726
83284W        W42721  36.404   4.371   0.921
83285W        W42722  40.419  13.599  11.928
83286W        W42723  10.143  37.514   4.204
83287W        W42724   8.160  15.210  14.931
83288W        W42725  23.525  29.920  14.973
83289W        W42726  27.082  23.551  12.971
83290W        W42727  25.967  10.325   1.742
83291W        W42728  41.468   2.443  14.402
83292W        W42729  21.741  13.269   3.321
83293W        W42730   3.848  34.568   0.396
83294W        W42731   7.399  44.796   0.739
83295W        W42732  19.779  31.498  13.340
83296W        W42733  35.068  22.007   4.275
83297W        W42734  15.607   1.792   1.749
83298W        W42735   3.429  33.049  14.768
83299W        W42736  21.216  41.496  12.423
83300W        W42737  29.515  40.984  13.008
83301W        W42738  13.704  36.852  10.567
83302W        W42739  37.889  26.649   4.696
83303W        W42740   0.263  31.604  10.917
83304W        W42741  34.581  19.654  12.507
83305W        W42742  33.469  14.288   5.291
83306W        W42743  38.023   4.809  14.323
83307W        W42744  11.318   3.218  14.375
83308W        W42745   8.199   6.749   0.786
83309W        W42746  37.018  37.428   9.932
83310W        W42747  27.523  27.607  11.112
83311W        W42748  26.480  27.032  10.404
83312W        W42749  19.719  38.937   2.808
83313W        W42750  30.535  33.879   2.181
83314W        W42751  32.601  31.538   2.709
83315W        W42752   9.671  44.467   0.873
83316W        W42753  40.937  34.035  12.058
83317W        W42754   6.256   0.322  13.440
83318W        W42755   4.730  41.875  14.940
83319W        W42756   1.873  33.584  14.953
83320W        W42757  21.650  17.265  14.385
83321W        W42758   0.342   1.404  13.809
83322W        W42759  40.400  26.456  14.761
83323W        W42760  25.588   5.689  13.946
83324W        W42761  35.004   6.826  11.043
83325W        W42762  15.100  11.827   4.341
83326W        W42763  31.116   2.306   3.869
83327W        W42764  26.477  17.743   2.702
83328W        W42765   9.223  20.668  13.035
83329W        W42766  41.027  20.107  10.990
83330W        W42767  30.937  26.120   1.329
83331W        W42768  34.966  36.436   1.926
83332W        W42769  23.725   6.425   4.728
83333W        W42770   4.839  33.047  10.477
83334W        W42771  36.396  10.242  13.951
83335W        W42772  35.476  43.343   3.694
83336W        W42773   0.441   1.915  10.617
83337W        W42774  42.846  12.734  13.061
83338W        W42775  42.011  43.971  11.860
83339W        W42776   6.390  36.862  12.357
83340W        W42777  37.031  26.485   4.684
83341W        W42778  18.239   3.281  10.495
83342W        W42779  42.895   7.689  13.377
83343W        W42780  27.967   0.841  14.422
83344W        W42781  44.495   8.327   0.847
83345W        W42782  29.115   7.905  11.006
83346W        W42783  30.095   6.214  12.435
83347W        W42784  41.025  22.694   2.399
83348W        W42785  43.015   0.759   4.124
83349W        W42786  10.756  15.298  11.121
83350W        W42787  20.541  44.876  13.538
83351W        W42788  12.223  22.088  13.035
83352W        W42789  30.123  34.004  13.807
83353W        W42790   0.785  40.316  14.391
83354W        W42791  21.523  35.587   1.298
83355W        W42792   7.788  34.067  14.370
83356W        W42793  22.149   6.278   2.766
83357W        W42794  28.058   1.261   0.894
83358W        W42795  40.441  37.437   0.884
83359W        W42796  17.628  15.719  10.525
83360W        W42797  36.051  17.774   3.803
83361W        W42798  11.135  42.875   0.346
83362W        W42799  25.693  12.233  11.490
83363W        W42800  37.573   9.348   0.875
83364W        W42801  35.977   0.913   3.794
83365W        W42802   4.253   9.852  13.472
83366W        W42803  23.108  44.279   1.230
83367W        W42804  19.055  27.639  10.973
83368W        W42805  29.554   8.164  11.045
83369W        W42806  15.801   0.487   0.446
83370W        W42807   7.807   4.304  11.480
83371W        W42808   6.881  22.587  10.479
83372W        W42809   8.793  21.063   2.664
83373W        W42810   0.902  21.594   4.606
83374W        W42811  20.592  28.600  13.055
83375W        W42812  43.808  33.999   4.153
83376W        W42813  43.887  21.131  11.980
83377W        W42814   8.716  19.582   0.757
83378W        W42815  19.669  29.556   3.281
83379W        W42816  17.153   2.446  12.875
83380W        W42817  10.827  28.487   2.763
83381W        W42818  23.045  34.071   0.343
83382W        W42819  35.398  34.993   4.620
83383W        W42820  13.339  15.084   0.286
83384W        W42821   8.246  29.143   2.360
83385W        W42822  40.511  21.186   1.347
83386W        W42823  22.567   9.833  11.915
83387W        W42824  25.468  44.332   2.310
83388W        W42825  26.147  21.528  11.583
83389W        W42826   7.229  11.342   1.252
83390W        W42827  31.950  34.112  14.764
83391W        W42828  12.155  20.528  10.902
83392W        W42829  40.999   8.242   2.386
83393W        W42830  13.668  26.511   0.323
83394W        W42831  32.018  17.204  10.437
83395W        W42832  37.049  34.470   4.342
83396W        W42833  25.000  13.653   0.737
83397W        W42834  40.981  20.585   0.941
83398W        W42835  33.467   3.937  13.417
83399W        W42836  34.397  44.318   2.400
83400W        W42837  24.197  10.150   3.299
83401W        W42838  34.456  41.951   4.627
83402W        W42839  16.180  31.969  13.986
83403W        W42840   9.231  30.937  10.975
83404W        W42841  10.647  14.609   0.813
83405W        W42842   5.911   3.436   1.426
83406W        W42843  16.084  27.957  12.088
83407W        W42844  41.881   2.439  10.618
83408W        W42845  35.389   8.399   3.232
83409W        W42846  27.691   2.930   1.797
83410W        W42847  18.550  10.226  10.413
83411W        W42848  15.774  44.899   1.716
83412W        W42849   5.387  32.574   4.827
83413W        W42850  18.091  27.542  14.927
83414W        W42851  29.492  11.640  14.384
83415W        W42852   5.349   7.176   0.389
83416W        W42853   9.179  26.039  10.907
83417W        W42854  14.177  19.190  12.887
83418W        W42855  10.294  24.989  13.833
83419W        W42856  44.765  11.242  12.417
83420W        W42857  23.715  13.845   4.250
83421W        W42858  20.634  29.489  11.397
83422W        W42859  15.600  11.342   4.724
83423W        W42860  18.286  17.189   1.406
83424W        W42861  29.110  15.243   2.880
83425W        W42862  15.158  16.153   4.318
83426W        W42863  24.483  36.871  12.367
83427W        W42864   6.685  29.570   9.951
83428W        W42865  21.025   7.698  10.570
83429W        W42866   0.771  41.360  12.954
83430W        W42867  12.152  36.401   1.823
83431W        W42868  24.533  44.485  10.549
83432W        W42869   9.793  32.056   0.836
83433W        W42870  11.862   7.205   0.445
83434W        W42871   0.822  28.037  13.377
83435W        W42872  23.123   0.818  11.951
83436W        W42873  15.235  30.138   1.909
83437W        W42874  13.280  24.497  10.617
83438W        W42875  17.655  43.418   4.645
83439W        W42876  25.668  41.931   4.331
83440W        W42877   1.945   6.425   0.253
83441W        W42878  27.079  13.347   2.878
83442W        W42879  36.894  34.513   3.870
83443W        W42880   3.342  12.338  10.543
83444W        W42881   7.700  17.555  13.991
83445W        W42882  26.182  35.889  11.544
83446W        W42883  34.000  40.035  13.036
83447W        W42884  16.627  38.545  11.517
83448W        W42885  37.887  32.504   1.774
83449W        W42886   5.332  40.027   0.270
83450W        W42887  30.093  22.545  11.384
83451W        W42888   1.933  42.419   3.868
83452W        W42889   3.425  37.083   1.336
83453W        W42890  36.434  15.604   3.661
83454W        W42891   9.825   3.890   3.779
83455W        W42892   5.250  27.070  12.552
83456W        W42893  16.616  22.624  12.000
83457W        W42894  29.999  20.687   2.232
83458W        W42895  20.524   0.845  14.773
83459W        W42896  37.990  26.607   9.969
83460W        W42897  37.388  26.966  14.767
83461W        W42898  21.041  37.013  13.938
83462W        W42899   5.739  26.459   0.302
83463W        W42900  44.300  22.610   4.800
83464W        W42901   3.760  40.349   3.150
83465W        W42902   4.908  41.477   1.237
83466W        W42903   5.218   9.244  11.434
83467W        W42904   5.909  38.456  13.411
83468W        W42905  16.115   4.339   4.755
83469W        W42906  41.376  17.706  10.492
83470W        W42907  30.565  42.811  13.055
83471W        W42908  26.019  23.102   1.892
83472W        W42909   2.749  28.971  11.588
83473W        W42910  26.603  15.249   5.169
83474W        W42911   0.827  22.517   4.822
83475W        W42912  30.429  28.061  11.072
83476W        W42913  15.259  37.499  14.997
83477W        W42914  27.000  16.107   9.520
83478W        W42915  10.371  23.502   9.950
83479W        W42916  38.011  43.918  10.632
83480W        W42917  35.891  27.188   1.220
83481W        W42918  12.213  38.494  12.967
83482W        W42919   0.919  11.332   5.158
83483W        W42920  39.049  24.580   1.851
83484W        W42921   5.212   2.437  11.438
83485W        W42922  40.009  15.649  14.419
83486W        W42923  15.788  34.482   0.893
83487W        W42924  39.843  28.514  11.426
83488W        W42925  34.529  32.532  10.569
83489W        W42926   4.733  24.164  11.380
83490W        W42927  44.289  23.231   2.694
83491W        W42928  34.444  39.465  13.054
83492W        W42929  41.504  32.068  12.466
83493W        W42930  38.443   2.836   2.371
83494W        W42931  18.099  33.880   3.200
83495W        W42932   1.843  20.763  10.514
83496W        W42933   5.856  11.669   2.296
83497W        W42934  44.346  44.419  11.955
83498W        W42935  17.614  24.650   0.451
83499W        W42936   4.309  36.969   1.380
83500W        W42937  13.636   5.912   4.688
83501W        W42938  35.868   2.896  13.959
83502W        W42939  26.682  13.665  14.905
83503W        W42940  16.149   3.789   1.261
83504W        W42941  13.809  13.756  12.460
83505W        W42942  37.470  15.123  13.447
83506W        W42943  42.902  17.584   4.217
83507W        W42944  44.994  12.766   1.870
83508W        W42945  35.870  24.577   4.320
83509W        W42946   2.914  11.162   2.310
83510W        W42947   1.356  14.656   3.340
83511W        W42948  17.753  25.556   2.226
83512W        W42949  39.524  22.704  11.944
83513W        W42950  43.876  29.014  11.094
83514W        W42951   2.439   8.400  14.367
83515W        W42952   6.250   7.686   2.204
83516W        W42953   2.833  14.096   1.723
83517W        W42954  23.699  36.493   3.211
83518W        W42955   9.768  10.734  11.469
83519W        W42956   1.329  10.632   2.891
83520W        W42957   7.691  17.651   2.358
83521W        W42958  30.919   6.315   3.755
83522W        W42959   9.889   2.329   0.755
83523W        W42960  15.279  30.416  14.012
83524W        W42961   5.838   4.275  13.034
83525W        W42962  33.054   1.296   2.256
83526W        W42963  37.554   9.833  11.112
83527W        W42964   0.298  30.151  11.032
83528W        W42965  14.283  31.586  10.918
83529W        W42966  13.344  16.242   4.195
83530W        W42967  24.111   1.253   0.795
83531W        W42968   5.422  20.060  14.409
83532W        W42969  35.491  39.035   4.258
83533W        W42970  39.931  19.558   2.874
83534W        W42971  38.442   1.323  12.089
83535W        W42972  31.427  37.929  12.347
83536W        W42973  12.786  33.574  11.528
83537W        W42974  16.773  27.513   4.780
83538W        W42975  27.120   2.469  11.947
83539W        W42976  10.284   1.789  14.972
83540W        W42977  13.619  31.416  11.948
83541W        W42978  32.499  17.683   1.843
83542W        W42979   2.341  29.499   0.378
83543W        W42980   7.335  25.595  14.323
83544W        W42981   6.268  44.281   1.839
83545W        W42982  34.068  21.755   4.132
83546W        W42983  25.112  10.359   0.394
83547W        W42984  28.086  16.216   3.162
83548W        W42985  34.504   9.392   2.713
83549W        W42986  23.104  42.937   0.393
83550W        W42987   8.771  32.429   3.195
83551W        W42988   2.430  38.387   3.330
83552W        W42989  31.004  30.641   0.816
83553W        W42990  22.187  19.255  14.994
83554W        W42991   6.751   2.896   0.435
83555W        W42992   0.477  16.592  13.831
83556W        W42993  12.830   1.402  11.502
83557W        W42994  25.485  33.025   2.733
83558W        W42995   1.925   5.299   2.781
83559W        W42996  32.887  42.498  14.425
83560W        W42997  30.020  13.646  12.349
83561W        W42998  36.988  27.157  10.412
83562W        W42999   0.370  21.558  14.837
83563W        W43000  22.708  42.789  10.439
83564W        W43001  23.527   1.978  14.775
83565W        W43002  34.898  25.605   2.333
83566W        W43003  37.539  15.642   2.903
83567W        W43004  42.812   7.304  14.313
83568W        W43005  43.825  35.560   0.926
83569W        W43006  15.185  25.217  11.885
83570W        W43007  11.679   9.309   1.755
83571W        W43008   4.781  30.122   3.748
83572W        W43009  32.009  15.613   5.108
83573W        W43010  38.825   0.872   4.735
83574W        W43011  29.554  24.194   9.967
83575W        W43012  20.214  29.113   4.608
83576W        W43013   0.258  30.133  13.898
83577W        W43014  18.257  26.158  14.811
83578W        W43015  20.614  11.160   1.312
83579W        W43016  42.299  20.124  13.916
83580W        W43017   3.734   4.365   0.257
83581W        W43018  39.391  10.348  13.949
83582W        W43019  25.217   9.762  10.978
83583W        W43020  13.329  28.981  11.604
83584W        W43021  21.625  16.802   9.994
83585W        W43022  35.366  30.962   3.658
83586W        W43023  44.354  29.106  13.918
83587W        W43024  39.923  13.163   2.789
83588W        W43025  26.502  15.108   0.791
83589W        W43026  10.258   4.776   2.248
83590W        W43027  33.563  44.400  12.490
83591W        W43028  23.679   2.756   0.780
83592W        W43029  35.595  44.809   1.871
83593W        W43030  32.128  22.660  13.817
83594W        W43031   1.351   3.948   4.617
83595W        W43032  32.498  34.975  12.369
83596W        W43033  20.725  35.520  10.633
83597W        W43034   6.733   8.302   4.145
83598W        W43035  12.245   4.301  10.957
83599W        W43036   2.433  13.349  12.497
83600W        W43037  16.220  27.941   4.350
83601W        W43038  41.967  39.377  14.860
83602W        W43039   2.850  10.361   0.335
83603W        W43040  39.840  44.429   1.766
83604W        W43041  13.809  29.945  12.462
83605W        W43042  37.997   0.451   1.770
83606W        W43043  29.946   3.300   1.438
83607W        W43044  23.556  24.975  13.993
83608W        W43045  40.977   5.915   0.283
83609W        W43046   6.767  20.730   2.793
83610W        W43047  40.957  10.859   3.743
83611W        W43048  25.574   0.374   2.312
83612W        W43049  20.037  28.558  10.447
83613W        W43050  42.016  44.361  12.428
83614W        W43051  32.895  14.142  14.785
83615W        W43052  27.113  44.857   0.928
83616W        W43053  33.553  44.423  13.530
83617W        W43054  22.623  27.968  13.912
83618W        W43055   6.428  31.559  12.863
83619W        W43056   4.869  33.439  13.966
83620W        W43057  16.733   4.814   1.809
83621W        W43058   7.309  23.162   2.282
83622W        W43059  27.665  12.170  12.412
83623W        W43060  22.638   8.323   4.193
83624W        W43061  26.481  15.226  13.838
83625W        W43062  17.798  25.712  12.345
83626W        W43063  14.293  39.387  10.419
83627W        W43064  37.847  25.053  11.929
83628W        W43065   7.769  19.065  13.341
83629W        W43066  20.638  20.113   0.793
83630W        W43067  13.159  18.164   3.378
83631W        W43068  30.035  21.669  13.402
83632W        W43069   6.898  22.243  11.874
83633W        W43070  12.815  34.003   2.764
83634W        W43071  18.785  38.493  14.508
83635W        W43072  37.045  18.554  13.966
83636W        W43073  41.449  26.996  11.977
83637W        W43074  41.508  18.760   1.725
83638W        W43075  37.018   0.891   1.920
83639W        W43076  15.766  15.198   9.957
83640W        W43077  38.567  24.132  11.090
83641W        W43078   0.924   7.225  10.622
83642W        W43079  13.221  15.700   1.731
83643W        W43080  15.620  28.076  12.446
83644W        W43081  21.142  33.593  14.938
83645W        W43082  25.648  20.107   4.159
83646W        W43083   4.900  42.477  10.003
83647W        W43084  33.409  41.439   2.324
83648W        W43085  18.767   5.432   0.750
83649W        W43086  20.081  13.688   3.780
83650W        W43087  39.042  37.552  13.911
83651W        W43088   0.327  14.196   5.242
83652W        W43089  43.384  41.378  12.032
83653W        W43090   5.828  44.782  10.965
83654W        W43091  28.097  23.001   4.220
83655W        W43092  20.550   4.809   3.817
83656W        W43093  25.053  40.325   1.863
83657W        W43094  25.026  26.526   4.620
83658W        W43095   1.369  35.410  13.865
83659W        W43096  16.295   3.366  12.837
83660W        W43097  44.788  40.908  13.954
83661W        W43098  43.879  32.602   1.836
83662W        W43099  39.053  32.065   4.192
83663W        W43100  24.680   6.778  13.012
83664W        W43101  40.462  40.908   1.767
83665W        W43102  43.499  33.539  12.359
83666W        W43103  14.595  24.561  10.533
83667W        W43104  10.781  21.059  12.856
83668W        W43105  37.966   1.359   2.235
83669W        W43106  11.325  27.958  12.000
83670W        W43107  31.513  39.055   0.753
83671W        W43108  44.452  12.802  14.320
83672W        W43109  44.306  34.418  12.070
83673W        W43110  13.797  11.680  14.026
83674W        W43111  31.414  37.503  14.866
83675W        W43112   9.226   1.257  11.001
83676W        W43113   6.212   9.776  14.879
83677W        W43114  26.970  44.450  10.534
83678W        W43115  17.613  37.076   1.894
83679W        W43116  34.961  18.277   2.311
83680W        W43117   3.875  29.562  11.387
83681W        W43118  32.986  17.254  13.412
83682W        W43119  25.986  21.181   4.774
83683W        W43120   7.324  15.740   1.218
83684W        W43121  18.103  41.419   1.853
83685W        W43122  11.232  10.844  13.343
83686W        W43123  32.025   5.827  11.888
83687W        W43124  34.871   8.279   4.748
83688W        W43125   7.359   6.757  13.033
83689W        W43126  25.640  43.328   2.224
83690W        W43127   9.267  20.629  13.402
83691W        W43128  29.533  22.722   2.396
83692W        W43129  39.396  33.083   2.261
83693W        W43130  44.375  32.441   1.756
83694W        W43131  17.209   1.391  14.849
83695W        W43132  19.090  42.507   4.156
83696W        W43133  40.892  10.720   2.215
83697W        W43134  32.583  16.759   2.849
83698W        W43135  44.930  21.096   1.273
83699W        W43136  29.557   3.869  11.114
83700W        W43137  16.660  33.388   4.261
83701W        W43138  16.236  37.369   2.353
83702W        W43139  31.007  44.918   2.899
83703W        W43140   4.706  27.649  14.996
83704W        W43141  31.537  19.271   3.763
83705W        W43142  25.087  16.090  11.521
83706W        W43143  36.879   4.320  11.602
83707W        W43144  16.723  11.192  11.608
83708W        W43145  34.495  23.233   0.292
83709W        W43146  44.391  22.705  11.597
83710W        W43147  42.817  37.033  12.533
83711W        W43148  26.013  19.177   3.219
83712W        W43149  30.413  18.185  11.107
83713W        W43150   8.673  29.442  12.364
83714W        W43151  39.411  30.572  10.477
83715W        W43152  10.272  10.252   1.328
83716W        W43153  33.493  11.740   4.313
83717W        W43154  24.700   5.355   2.370
83718W        W43155  19.057   9.332  11.029
83719W        W43156  30.033  38.452   2.382
83720W        W43157  41.989  43.909  11.109
83721W        W43158  38.935  28.574  13.861
83722W        W43159  44.838  15.617  13.974
83723W        W43160  25.010  27.643  10.423
83724W        W43161   1.370  21.750  14.917
83725W        W43162  27.965  29.929  12.413
83726W        W43163   9.335   5.211  11.912
83727W        W43164  39.922  34.999  14.914
83728W        W43165  20.151  26.655  10.039
83729W        W43166  14.119  21.069   5.207
83730W        W43167  37.022  29.008   2.745
83731W        W43168  21.656  43.276  12.509
83732W        W43169  31.934  17.659   2.223
83733W        W43170  12.220  22.591   0.907
83734W        W43171  43.828  18.737  10.448
83735W        W43172  16.771  28.536   2.742
83736W        W43173  23.553  26.064   2.870
83737W        W43174  41.513  26.559  10.480
83738W        W43175  26.552  18.649   0.334
83739W        W43176  14.128  35.059  12.891
83740W        W43177  32.992  19.553  14.334
83741W        W43178   3.936  32.109  11.530
83742W        W43179  34.055  40.798   2.221
83743W        W43180  29.038   0.266  10.583
83744W        W43181  11.353  35.520   1.835
83745W        W43182  22.166  15.608   1.306
83746W        W43183  41.406  20.692   3.851
83747W        W43184  24.626   7.794   3.151
83748W        W43185  27.554  10.827   3.360
83749W        W43186  13.274  31.057  12.359
83750W        W43187   8.710  32.898   2.686
83751W        W43188  32.533   3.297  11.885
83752W        W43189  24.130  28.014  14.816
83753W        W43190  30.557   2.330  12.455
83754W        W43191   4.861  26.550   3.812
83755W        W43192  17.775   8.674   4.343
83756W        W43193  24.046  33.538  10.527
83757W        W43194   9.809   4.704  10.429
83758W        W43195  26.526  30.421   0.358
83759W        W43196  26.538  31.111   1.357
83760W        W43197  15.137  18.095  13.845
83761W        W43198   0.314  22.202  10.634
83762W        W43199  35.054  10.822   2.899
83763W        W43200   5.926  35.603  11.043
83764W        W43201  11.212   6.711  11.456
83765W        W43202  18.196  20.255   1.237
83766W        W43203  21.527  15.806  12.526
83767W        W43204  35.532   6.727  11.102
83768W        W43205   6.383  37.868   3.648
83769W        W43206  26.200  39.895   2.693
83770W        W43207  29.439  22.026   1.802
83771W        W43208  32.612   4.830   0.923
83772W        W43209  39.028  29.038  13.366
83773W        W43210  20.589  22.065  14.352
83774W        W43211  28.068  23.692  11.589
83775W        W43212  11.633  14.806   3.631
83776W        W43213  38.970  30.983  13.041
83777W        W43214  38.955  44.504  14.469
83778W        W43215   9.242   4.336  14.327
83779W        W43216  18.261  26.083  14.441
83780W        W43217   8.236  23.168  13.492
83781W        W43218  41.483   2.310  14.018
83782W        W43219  28.447  19.089  12.941
83783W        W43220  30.414  40.546   1.791
83784W        W43221  23.642   1.857   0.785
83785W        W43222  22.728   1.412  11.430
83786W        W43223   6.721  43.291  11.120
83787W        W43224   4.755  39.866  11.117
83788W        W43225  15.806  40.333  14.364
83789W        W43226  26.018  12.128  13.036
83790W        W43227  19.537  31.969   2.717
83791W        W43228  10.796  35.579   0.762
83792W        W43229  42.337  19.560  13.974
83793W        W43230  22.197  19.569   3.287
83794W        W43231  41.886   9.872  14.791
83795W        W43232  37.400  44.459   3.303
83796W        W43233  26.578  29.919  13.388
83797W        W43234  26.578   5.841  10.414
83798W        W43235   3.253   2.735  14.349
83799W        W43236   1.795  23.525  11.936
83800W        W43237  43.936  30.995  13.325
83801W        W43238  19.072   4.802   2.899
83802W        W43239   1.895  37.879   0.807
83803W        W43240  40.416   0.948  11.607
83804W        W43241  11.826  26.151   3.354
83805W        W43242  44.320  32.926  14.892
83806W        W43243  23.694  31.553   2.769
83807W        W43244  32.484  43.416  11.594
83808W        W43245  21.249  11.342   2.393
83809W        W43246   8.272  24.127  13.003
83810W        W43247  22.656  19.565   3.841
83811W        W43248  17.676  39.825   1.307
83812W        W43249  30.571   9.644  10.984
83813W        W43250  40.818   5.411  13.981
83814W        W43251  44.502  35.546  10.519
83815W        W43252  37.537  29.506   4.827
83816W        W43253  34.999  41.867  13.891
83817W        W43254  31.439  19.691  11.050
83818W        W43255  34.067  27.192   3.315
83819W        W43256   7.739   3.410  12.475
83820W        W43257  10.214  30.564   3.646
83821W        W43258  13.329  11.256  14.795
83822W        W43259  13.315  18.577   2.348
83823W        W43260  32.919   6.293  13.849
83824W        W43261  44.857   2.782   3.840
83825W        W43262  32.466  41.393  11.127
83826W        W43263  26.139  40.839  11.550
83827W        W43264   4.740  40.549   3.242
83828W        W43265  44.972  17.190  11.996
83829W        W43266  26.555  19.591   1.218
83830W        W43267  26.007  13.637  11.568
83831W        W43268  17.089  20.579  14.016
83832W        W43269  38.826  30.445  10.074
83833W        W43270  23.622   5.221  13.892
83834W        W43271  12.283  12.269  12.848
83835W        W43272  12.126  43.996  14.394
83836W        W43273  38.866  32.141   1.872
83837W        W43274  13.673   2.723  10.953
83838W        W43275  10.766   8.706  11.607
83839W        W43276  35.596  35.536   1.879
83840W        W43277  17.259  35.454   1.295
83841W        W43278  19.710  41.434  13.908
83842W        W43279  14.331  25.680   1.312
83843W        W43280  21.584  19.636  13.376
83844W        W43281  11.296   0.401  10.540
83845W        W43282  10.152  11.657   2.687
83846W        W43283   6.318  37.398   4.769
83847W        W43284  32.900   1.850   0.850
83848W        W43285  38.917  43.369  12.082
83849W        W43286  14.713   2.810  12.913
83850W        W43287   2.783  32.116  13.453
83851W        W43288  18.725  34.461  13.375
83852W        W43289  20.143  38.435   0.403
83853W        W43290   9.320  19.162   0.745
83854W        W43291  38.844  34.112  12.038
83855W        W43292  32.480  19.562  14.789
83856W        W43293   8.737  29.025  12.364
83857W        W43294  29.103   2.928  13.844
83858W        W43295  22.687  33.927  11.007
83859W        W43296  36.495   4.390  14.356
83860W        W43297  25.523   7.210   3.630
83861W        W43298  28.969   5.803  14.377
83862W        W43299  16.731   6.325   1.716
83863W        W43300   7.840  12.662   0.413
83864W        W43301  15.170  33.923   2.837
83865W        W43302   2.292  23.639  12.861
83866W        W43303  12.822  14.141   2.229
83867W        W43304   3.713  11.679   0.952
83868W        W43305  19.734  11.226  14.029
83869W        W43306  20.182  42.913  14.942
83870W        W43307   8.658  22.708  13.389
83871W        W43308   1.894  35.564   4.629
83872W        W43309   7.836   7.360   0.457
83873W        W43310  20.532  27.485   1.696
83874W        W43311  38.505  41.884  13.308
83875W        W43312  32.623  24.721   4.599
83876W        W43313  41.966  18.637   3.370
83877W        W43314  23.097  39.884  13.977
83878W        W43315  28.555  33.549  10.490
83879W        W43316  12.851  35.597   3.231
83880W        W43317   7.909  16.728   0.956
83881W        W43318  30.933   2.381   3.306
83882W        W43319  21.606  30.984   2.217
83883W        W43320  34.418  19.646   1.764
83884W        W43321  14.273   0.836  11.541
83885W        W43322   3.756  17.674  14.480
83886W        W43323  13.778  10.655   2.314
83887W        W43324  11.242  20.723  10.479
83888W        W43325  18.624   6.188   0.406
83889W        W43326   3.358  15.171   0.941
83890W        W43327  29.060  38.410   3.866
83891W        W43328   1.252  43.979   3.365
83892W        W43329  31.476  23.192  12.021
83893W        W43330  26.534  35.994   2.845
83894W        W43331  37.894  14.260  12.001
83895W        W43332  44.285  20.267   2.209
83896W        W43333   0.401  33.954   2.183
83897W        W43334  39.850  10.727  14.989
83898W        W43335   1.947  22.529  13.401
83899W        W43336  15.191  22.532  11.385
83900W        W43337  42.989  10.722  13.895
83901W        W43338  21.222  39.560   4.161
83902W        W43339  11.787  29.035  12.422
83903W        W43340  21.720  19.616   1.769
83904W        W43341   2.245  44.356  11.893
83905W        W43342  34.615  26.179   3.152
83906W        W43343   3.829  14.694   2.401
83907W        W43344  11.291  44.896  14.370
83908W        W43345  12.663  26.698   3.267
83909W        W43346  40.837   4.874  11.008
83910W        W43347   2.467   5.256   3.707
83911W        W43348  44.920  15.270  13.938
83912W        W43349  23.664  16.605  11.007
83913W        W43350  14.175  18.253   0.807
83914W        W43351  25.105  24.650   0.327
83915W        W43352  20.087  22.233   4.318
83916W        W43353  18.179  42.507   2.835
83917W        W43354   0.818  30.602  11.047
83918W        W43355  17.621  13.820  10.432
83919W        W43356  15.089  13.614  12.022
83920W        W43357  29.510  44.826  12.924
83921W        W43358  21.699  37.551  12.501
83922W        W43359  12.710  10.858   1.433
83923W        W43360  44.455   4.938  11.413
83924W        W43361  41.868  43.891   2.392
83925W        W43362   3.936  16.806  13.336
83926W        W43363  16.226  42.849  13.983
83927W        W43364  24.158  27.064   0.915
83928W        W43365  32.468  37.004  13.887
83929W        W43366  40.833  30.570   1.712
83930W        W43367   5.349  32.516   2.418
83931W        W43368  11.270  10.684   3.734
83932W        W43369  14.721  22.031   1.261
83933W        W43370  32.103  32.491  12.383
83934W        W43371  36.976   5.793  14.484
83935W        W43372  35.448  27.554  12.349
83936W        W43373  29.027  33.489  11.452
83937W        W43374  20.654  13.789  10.524
83938W        W43375   3.849  12.758  11.419
83939W        W43376  27.658  21.737  10.480
83940W        W43377  31.130  23.132  13.920
83941W        W43378  15.798  31.493  12.553
83942W        W43379  19.623  21.233  13.454
83943W        W43380  40.866  24.160   4.705
83944W        W43381  23.547  34.459  10.973
83945W        W43382  18.291  33.487   1.301
83946W        W43383  27.011  28.049  11.860
83947W        W43384  29.518  10.814   3.232
83948W        W43385  19.610  10.266  10.468
83949W        W43386  25.480  38.900   9.969
83950W        W43387  41.833  38.947  10.435
83951W        W43388  12.734  23.240  13.800
83952W        W43389  37.892  28.932  12.846
83953W        W43390  31.987  22.631   9.601
83954W        W43391   7.667  34.120   4.166
83955W        W43392  16.752  41.358  11.975
83956W        W43393   7.750   4.890  13.876
83957W        W43394  10.749  35.552  13.927
83958W        W43395  44.268   5.303   4.251
83959W        W43396   9.829   9.163   4.141
83960W        W43397  39.987   5.273  13.522
83961W        W43398  32.525  12.240  14.325
83962W        W43399  31.580  19.178  12.858
83963W        W43400  40.879  20.162  11.573
83964W        W43401  27.607  44.423  13.416
83965W        W43402  32.474  19.668   3.158
83966W        W43403  17.196  15.090  14.935
83967W        W43404   4.363  16.734   0.399
83968W        W43405  36.456  39.425  10.485
83969W        W43406  19.708  40.463  12.958
83970W        W43407  43.397  19.118   2.338
83971W        W43408  43.866  29.008   3.669
83972W        W43409  29.000  21.528   3.368
83973W        W43410  13.613   9.701   2.771
83974W        W43411  16.673  26.079   3.148
83975W        W43412  38.869  41.321   3.337
83976W        W43413   8.331  25.681   4.628
83977W        W43414   8.351  15.123  12.344
83978W        W43415  39.391  37.999   0.731
83979W        W43416   5.885  24.066  13.956
83980W        W43417  15.631  35.928  12.465
83981W        W43418  13.684  44.943   2.286
83982W        W43419  43.869  34.968   5.613
83983W        W43420  28.003  38.017   3.660
83984W        W43421   6.828  12.232   4.702
83985W        W43422  44.930  26.204  12.419
83986W        W43423   1.367  11.766   5.306
83987W        W43424  15.329  12.120  14.890
83988W        W43425  13.307  27.180   2.737
83989W        W43426  24.228  15.329   4.351
83990W        W43427  40.546  13.686  12.385
83991W        W43428  27.968  28.017  11.032
83992W        W43429   1.846  41.833   3.221
83993W        W43430  29.487  18.764   0.322
83994W        W43431   6.281  12.743  10.130
83995W        W43432   3.728  21.064  10.502
83996W        W43433   6.303  12.255  13.362
83997W        W43434   1.882  20.209  11.859
83998W        W43435  40.024  21.211   1.817
83999W        W43436  18.580  14.698   3.358
84000W        W43437  32.534   4.253  14.776
84001W        W43438  42.320   8.315  11.488
84002W        W43439  39.443  29.446   0.321
84003W        W43440   0.744  43.380  14.928
84004W        W43441  26.075  43.838  14.365
84005W        W43442   0.460  21.578  13.489
84006W        W43443  14.118  41.487  11.975
84007W        W43444  23.662  29.520  13.969
84008W        W43445  26.022  19.121  14.478
84009W        W43446   9.682  41.334  14.940
84010W        W43447   3.222  28.649   0.788
84011W        W43448  44.327   5.892  12.079
84012W        W43449  39.375   5.812   2.862
84013W        W43450  15.607  15.176  14.369
84014W        W43451   6.422  29.972  14.456
84015W        W43452  23.678   3.348   2.349
84016W        W43453  17.213  40.853   1.298
84017W        W43454  30.065  32.612  13.928
84018W        W43455  19.108  28.024   4.771
84019W        W43456  35.579  33.381   2.877
84020W        W43457  16.617  28.526   0.932
84021W        W43458   0.289  36.506  12.936
84022W        W43459  39.931  19.739   3.840
84023W        W43460  13.210  40.902   3.731
84024W        W43461  34.530   8.881   1.371
84025W        W43462  35.920  44.364  13.900
84026W        W43463   6.290   0.953   4.727
84027W        W43464  11.216  18.552  13.958
84028W        W43465  31.051  31.524   4.187
84029W        W43466  25.164  44.489   3.313
84030W        W43467  13.758  17.238   0.876
84031W        W43468  41.314   6.827  13.020
84032W        W43469  26.625  28.483  10.413
84033W        W43470  32.107  29.075   3.821
84034W        W43471   3.927  23.543  14.850
84035W        W43472  12.199  21.638  14.283
84036W        W43473  22.554  16.591   2.325
84037W        W43474  24.057  21.238   5.135
84038W        W43475  38.346  33.946   0.481
84039W        W43476  21.511   9.771  10.453
84040W        W43477  39.453  27.040   4.709
84041W        W43478  15.182  22.069   0.475
84042W        W43479   4.325  27.099  13.390
84043W        W43480  31.627  37.041   0.907
84044W        W43481  34.376  14.188  11.555
84045W        W43482  37.917  18.593   0.919
84046W        W43483  17.596  27.558   3.332
84047W        W43484  10.745  31.150   1.329
84048W        W43485  21.723  41.018   1.815
84049W        W43486   5.879  29.925  11.105
84050W        W43487   9.689  40.863   2.867
84051W        W43488  30.049  40.523   3.690
84052W        W43489   8.274   3.756  13.333
84053W        W43490  15.652   7.179   0.452
84054W        W43491  36.889  10.644   4.120
84055W        W43492  20.651   7.761  11.935
84056W        W43493  25.614   4.236   0.288
84057W        W43494  21.667   8.405   3.371
84058W        W43495  19.192  30.638  10.494
84059W        W43496   4.239   8.844   4.259
84060W        W43497  42.833  34.886   4.754
84061W        W43498  10.258  35.888   4.626
84062W        W43499   5.845  41.300  14.962
84063W        W43500  21.756   7.706  14.870
84064W        W43501   3.829  44.491  14.003
84065W        W43502   6.256  23.196   0.373
84066W        W43503  38.913  32.619  14.789
84067W        W43504  29.441  42.900   1.435
84068W        W43505  21.547  12.317  13.395
84069W        W43506  40.319  10.218  12.999
84070W        W43507   9.872  13.713  13.845
84071W        W43508  28.937  15.686   3.280
84072W        W43509  14.660  16.134  12.928
84073W        W43510   0.945  42.493   4.301
84074W        W43511   7.318  14.637   0.734
84075W        W43512  20.239  34.378   3.282
84076W        W43513   1.875  20.268  10.571
84077W        W43514  33.951  29.949  11.570
84078W        W43515  17.730  19.652   2.367
84079W        W43516  33.428  30.139  11.048
84080W        W43517  10.187  44.330  11.115
84081W        W43518  15.147  43.834  11.898
84082W        W43519  24.589   5.895  10.473
84083W        W43520  43.985  41.840  11.088
84084W        W43521  14.659   4.865   2.251
84085W        W43522  27.074   9.215   0.399
84086W        W43523  29.077  10.844   0.804
84087W        W43524  41.870  10.769   2.717
84088W        W43525  16.112   5.333   1.284
84089W        W43526   5.269  13.753  11.486
84090W        W43527  38.031  38.068  11.985
84091W        W43528  32.454   3.435   5.162
84092W        W43529  40.892   3.337   3.814
84093W        W43530  38.567  20.199   2.391
84094W        W43531  18.261   5.849   4.212
84095W        W43532  13.644   8.730   2.684
84096W        W43533   6.715   9.385  14.476
84097W        W43534  10.199  31.506  11.925
84098W        W43535  41.924  21.024   2.826
84099W        W43536   6.821  38.331  13.996
84100W        W43537   7.304  33.104   3.785
84101W        W43538  24.650   3.939   0.480
84102W        W43539   0.374  17.113  12.472
84103W        W43540  28.514  44.371  14.427
84104W        W43541   2.875   6.745  11.504
84105W        W43542  33.878   5.734   0.295
84106W        W43543  42.483   5.425  10.458
84107W        W43544  34.115  34.597  13.949
84108W        W43545  36.075  40.385   1.314
84109W        W43546  36.977  44.447  14.421
84110W        W43547  16.153  16.171  10.619
84111W        W43548  32.006  36.560   4.337
84112W        W43549  22.634  29.077  13.929
84113W        W43550  33.017  21.620  13.963
84114W        W43551   9.264  19.122  12.882
84115W        W43552   9.790   3.903   1.748
84116W        W43553  23.156  11.269   4.775
84117W        W43554  10.694  10.655   0.795
84118W        W43555   9.675  32.952  10.925
84119W        W43556  15.584  37.940  10.048
84120W        W43557  37.367  29.628  14.435
84121W        W43558  24.704  41.501  13.458
84122W        W43559  33.006   6.706  12.497
84123W        W43560  34.462  29.950  14.514
84124W        W43561  39.338  22.672  12.346
84125W        W43562  19.249  26.534   4.642
84126W        W43563  24.107  35.024   4.777
84127W        W43564   3.751   9.366   2.691
84128W        W43565   6.193  10.674  13.412
84129W        W43566  31.625  30.556  13.372
84130W        W43567  40.047  40.958   4.291
84131W        W43568   0.862  11.821   2.769
84132W        W43569   6.678   7.272   3.372
84133W        W43570  15.643  40.417   0.457
84134W        W43571   5.350  15.232  10.042
84135W        W43572  17.233  35.057   1.441
84136W        W43573  36.087   7.687  14.886
84137W        W43574  22.504  16.652  14.491
84138W        W43575   5.214  22.021   4.772
84139W        W43576   9.690  28.164  14.301
84140W        W43577  34.102  28.563  11.505
84141W        W43578  32.908   8.311  10.467
84142W        W43579  17.623  14.244   4.284
84143W        W43580   9.871  33.464  13.365
84144W        W43581  34.482   6.212  14.773
84145W        W43582  36.051  39.027   3.265
84146W        W43583   1.955   8.398   1.806
84147W        W43584  19.771   0.800  14.474
84148W        W43585  30.561   7.370  10.960
84149W        W43586   8.227  22.186   4.255
84150W        W43587   8.815  17.105  13.438
84151W        W43588  13.747  44.970  13.518
84152W        W43589  39.362  32.021  14.357
84153W        W43590  21.199  28.534  13.398
84154W        W43591  16.116  12.737   0.943
84155W        W43592   9.376  26.510   2.813
84156W        W43593  10.824  41.337   3.842
84157W        W43594  18.161  15.318   0.920
84158W        W43595   0.897  31.930   0.357
84159W        W43596  10.722  26.558   1.251
84160W        W43597  39.949   1.280  12.056
84161W        W43598  13.750   7.787  14.823
84162W        W43599  23.004  22.529   3.662
84163W        W43600  44.817  21.729  12.343
84164W        W43601  17.639   5.324  11.020
84165W        W43602  35.487  38.827  14.441
84166W        W43603  42.833  42.472  14.010
84167W        W43604   4.791  30.599  13.468
84168W        W43605  28.476   8.707   4.666
84169W        W43606  37.523  21.103   2.400
84170W        W43607  14.773  33.032  14.923
84171W        W43608   6.387  31.937  13.428
84172W        W43609  25.999  36.357   2.215
84173W        W43610  15.254  39.329   0.965
84174W        W43611  37.373  28.583  13.469
84175W        W43612  22.199  20.593   2.797
84176W        W43613  17.280  31.419   3.722
84177W        W43614  43.984  28.501  14.428
84178W        W43615  20.259  22.122  12.943
84179W        W43616  24.194  34.378  12.450
84180W        W43617  31.043   1.400  10.513
84181W        W43618  16.750  38.972   9.989
84182W        W43619  27.191   8.364   2.897
84183W        W43620   0.814  34.014   4.826
84184W        W43621   8.236  11.284   4.720
84185W        W43622   8.821  40.419   5.304
84186W        W43623  23.013  36.426  14.504
84187W        W43624  36.865  10.155   1.416
84188W        W43625  25.203  32.542  11.958
84189W        W43626  15.220  28.467  11.478
84190W        W43627  36.902  36.565  12.438
84191W        W43628   2.913  39.886  12.076
84192W        W43629  36.857  10.303   2.296
84193W        W43630  43.416   2.408  14.413
84194W        W43631  26.659   9.836   3.849
84195W        W43632   3.436  41.512  14.431
84196W        W43633  25.195   2.896  14.009
84197W        W43634  40.381   7.727  10.584
84198W        W43635  34.411   1.904  12.342
84199W        W43636  30.648  20.747  12.898
84200W        W43637  18.635  32.086   2.780
84201W        W43638  32.964   9.814   1.761
84202W        W43639  35.570  29.485   3.338
84203W        W43640   4.280   9.802  13.866
84204W        W43641   9.707  35.445  14.859
84205W        W43642   4.720   7.392   2.816
84206W        W43643  16.097  23.102   3.230
84207W        W43644   8.185  31.010  13.057
84208W        W43645  37.523  41.312  14.019
84209W        W43646  18.216  20.088   0.831
84210W        W43647   0.482  16.212   3.698
84211W        W43648  30.963  22.080   5.248
84212W        W43649  36.893  36.967   3.790
84213W        W43650   2.743  42.317   3.252
84214W        W43651  38.935   8.375   1.920
84215W        W43652  12.678  13.745  14.812
84216W        W43653  10.846   0.266  10.566
84217W        W43654   6.780  29.094  11.856
84218W        W43655  15.611  26.573  12.834
84219W        W43656  28.088  44.849   4.793
84220W        W43657  15.297  42.403  11.108
84221W        W43658  24.199   5.860   3.701
84222W        W43659   8.768  13.697  13.540
84223W        W43660  19.609   6.836  10.593
84224W        W43661  38.534   9.349  11.054
84225W        W43662   1.334  34.085  12.003
84226W        W43663   0.766  24.195  10.950
84227W        W43664  17.800   4.379  10.987
84228W        W43665  41.497  13.694  12.874
84229W        W43666  10.869   2.414   2.839
84230W        W43667  10.727  19.540   0.851
84231W        W43668  40.543  43.444   2.186
84232W        W43669  30.992  20.752  11.128
84233W        W43670   9.299  24.054  13.884
84234W        W43671  29.052   3.287   4.141
84235W        W43672  28.500   9.722  12.843
84236W        W43673  34.449  15.586   4.753
84237W        W43674  30.424  33.009  13.054
84238W        W43675  23.065  39.826   0.881
84239W        W43676  43.969  26.590  13.043
84240W        W43677   1.288  33.387   1.318
84241W        W43678  35.891  39.327  13.865
84242W        W43679  29.454  28.142   5.298
84243W        W43680  33.475  33.614  10.976
84244W        W43681   1.433  10.273   0.481
84245W        W43682  31.091  35.595  12.913
84246W        W43683  24.029  26.971  14.476
84247W        W43684  17.639  25.538   3.822
84248W        W43685  14.611  15.178  13.875
84249W        W43686  32.968  22.600   9.553
84250W        W43687  36.503  35.104  11.060
84251W        W43688  13.693  25.131   0.321
84252W        W43689  26.000  39.051  11.519
84253W        W43690  40.041  20.589  10.638
84254W        W43691  21.529  38.931   0.308
84255W        W43692   6.756  21.684  12.362
84256W        W43693   3.365  35.932   4.163
84257W        W43694  15.738   4.224   4.299
84258W        W43695  30.909  30.495   4.277
84259W        W43696  25.587  29.078  10.902
84260W        W43697  21.619  22.575  13.915
84261W        W43698  43.358  23.164   2.296
84262W        W43699  43.920   5.884   3.300
84263W        W43700  16.144  25.508   0.391
84264W        W43701  36.937  13.602  11.121
84265W        W43702  28.081  18.196  14.471
84266W        W43703  44.314  22.623   1.442
84267W        W43704  29.016  37.346   4.253
84268W        W43705  21.616  40.320  12.860
84269W        W43706  42.350  43.455  11.422
84270W        W43707  33.484  19.748  12.514
84271W        W43708  15.178  25.673  14.905
84272W        W43709  17.782  10.810   3.198
84273W        W43710  25.157   2.239  10.635
84274W        W43711  26.697  31.629   0.896
84275W        W43712   8.765   1.404  12.412
84276W        W43713  22.731  11.220   2.778
84277W        W43714   4.838  21.163   1.441
84278W        W43715  39.884   9.292   3.337
84279W        W43716  37.365   3.403   3.171
84280W        W43717  39.496   0.387  10.919
84281W        W43718  43.322  22.731   2.813
84282W        W43719  22.240  43.818  13.545
84283W        W43720  26.996  20.585  13.909
84284W        W43721  40.045  42.975  14.929
84285W        W43722  16.745   8.664   3.247
84286W        W43723   9.695  20.169   0.326
84287W        W43724  11.256   5.206   2.324
84288W        W43725  42.475  30.955  10.520
84289W        W43726   6.696  42.019  14.933
84290W        W43727  10.302   7.898  14.342
84291W        W43728  19.079  43.302   2.231
84292W        W43729  13.679   2.458   0.287
84293W        W43730  38.892  31.448   9.966
84294W        W43731  29.145  26.458  10.004
84295W        W43732  19.078  42.787   5.111
84296W        W43733   7.805   3.447   2.331
84297W        W43734  13.744  35.886   1.426
84298W        W43735  17.737  17.716  11.093
84299W        W43736  31.921  22.727   3.235
84300W        W43737   1.268  40.989   1.229
84301W        W43738  21.096  43.487   5.133
84302W        W43739   3.869  35.865  11.532
84303W        W43740  30.520   7.803   1.932
84304W        W43741  10.807  30.958   1.910
84305W        W43742  13.778  15.736  11.436
84306W        W43743  42.312   8.736   1.804
84307W        W43744  21.200   2.940  13.472
84308W        W43745  21.145   4.308  14.809
84309W        W43746  44.965  30.982   0.290
84310W        W43747   7.408   2.867  10.974
84311W        W43748  19.046  21.635   1.917
84312W        W43749   4.763  25.005   0.259
84313W        W43750  43.379  18.700   4.711
84314W        W43751  34.062  26.073   0.926
84315W        W43752  16.770  32.481  10.475
84316W        W43753  42.297  11.323   1.754
84317W        W43754  10.157  16.584  13.328
84318W        W43755  44.333  28.075  13.868
84319W        W43756  27.667  16.708  13.338
84320W        W43757  15.314  15.122  13.895
84321W        W43758   1.469  32.984  12.545
84322W        W43759   4.343  13.620   4.716
84323W        W43760   5.399   4.337  13.845
84324W        W43761  25.600  25.984   3.841
84325W        W43762  10.383   3.781  13.353
84326W        W43763  11.771  23.004   4.175
84327W        W43764   5.822   3.815  10.963
84328W        W43765  38.867  14.313  14.970
84329W        W43766  36.010   8.367  12.835
84330W        W43767  42.444  21.649   1.707
84331W        W43768  32.920  44.933   1.928
84332W        W43769  37.393  15.804  12.983
84333W        W43770  13.726  13.729   3.188
84334W        W43771   3.730   5.750   1.256
84335W        W43772  41.308  29.082   1.870
84336W        W43773  29.427   3.310   0.854
84337W        W43774   3.318  30.458  10.463
84338W        W43775   8.706  24.122  11.098
84339W        W43776  43.987  24.542   3.175
84340W        W43777   9.750  15.803  13.387
84341W        W43778   6.883   1.904   4.778
84342W        W43779  33.975  24.685  14.332
84343W        W43780  38.494   1.854  13.814
84344W        W43781  23.023  31.901   3.305
84345W        W43782  37.362  27.589  12.551
84346W        W43783  41.516  37.543   0.338
84347W        W43784  35.988   4.432  11.553
84348W        W43785  12.661  16.613   4.693
84349W        W43786  15.745  32.406   3.226
84350W        W43787  34.561  31.474   3.810
84351W        W43788  39.396  25.485  13.542
84352W        W43789  36.553  36.943  14.306
84353W        W43790  18.641  16.742  12.379
84354W        W43791  29.971  24.490  12.436
84355W        W43792   3.376  21.018  11.388
84356W        W43793  32.922  33.621   0.253
84357W        W43794  31.086  27.126  10.535
84358W        W43795  26.973  42.458  10.420
84359W        W43796  43.420  22.131  11.490
84360W        W43797  35.009  21.562   3.336
84361W        W43798  41.364  33.551   0.899
84362W        W43799  32.482  26.682  14.819
84363W        W43800  33.547   8.827  14.426
84364W        W43801   2.358   8.739   9.970
84365W        W43802  22.188  12.810  13.507
84366W        W43803  16.601  34.880  13.324
84367W        W43804  20.742   2.731  12.436
84368W        W43805  10.818  37.479   2.257
84369W        W43806   3.946  39.522  13.416
84370W        W43807   9.275  35.084  14.020
84371W        W43808  17.607   8.278  12.042
84372W        W43809  24.652   0.346  12.986
84373W        W43810   2.471   1.939  13.446
84374W        W43811   9.761  42.862   3.213
84375W        W43812  16.306   5.932  14.488
84376W        W43813  21.211  27.965  14.303
84377W        W43814  28.623  31.511  14.363
84378W        W43815  26.205  40.368  14.464
84379W        W43816  25.640  10.302   3.374
84380W        W43817  38.525  30.519  14.800
84381W        W43818   6.765  43.347  10.420
84382W        W43819  34.498  16.313  11.573
84383W        W43820  31.503  34.938   0.851
84384W        W43821  25.537  16.644  11.537
84385W        W43822  18.590  24.576  13.538
84386W        W43823   7.810  11.284   2.240
84387W        W43824  20.125   8.406  14.390
84388W        W43825   7.208  36.896  13.537
84389W        W43826  29.167   1.434  12.365
84390W        W43827  37.357  11.158  10.133
84391W        W43828  30.984  30.424  13.874
84392W        W43829  42.906  21.135  14.936
84393W        W43830  22.612   3.901  11.095
84394W        W43831   9.224  39.894   4.261
84395W        W43832  36.892   2.929  12.357
84396W        W43833   8.256   6.217   4.177
84397W        W43834  16.228  43.953  10.556
84398W        W43835   7.206  17.249  12.850
84399W        W43836   2.327  44.296   2.873
84400W        W43837  23.523  38.854   9.611
84401W        W43838  10.285  25.157  11.920
84402W        W43839  10.663   9.196  11.896
84403W        W43840  31.404  10.276   4.768
84404W        W43841  14.112   6.332  12.361
84405W        W43842   0.450  27.030   3.385
84406W        W43843  24.101  20.574   4.248
84407W        W43844  27.516  39.855   1.350
84408W        W43845  44.800  32.949  12.522
84409W        W43846  18.559  30.541  14.283
84410W        W43847  26.196  21.748  13.993
84411W        W43848   8.305  30.049  12.092
84412W        W43849  38.565  30.091  13.395
84413W        W43850  42.527  40.941  11.917
84414W        W43851   2.812  36.968   2.414
84415W        W43852   2.928  21.550  14.959
84416W        W43853   2.942  44.280   2.196
84417W        W43854  23.582  11.305   2.353
84418W        W43855   8.804  36.387  14.516
84419W        W43856   7.280  12.740  11.859
84420W        W43857  27.520   5.350   3.657
84421W        W43858  19.620  37.555  14.469
84422W        W43859   7.879  34.890  10.039
84423W        W43860  16.717  28.168   2.268
84424W        W43861   7.330   6.770  11.959
84425W        W43862  43.012  34.069   2.354
84426W        W43863  12.244   8.783   4.245
84427W        W43864  13.202  29.477  11.045
84428W        W43865  42.026   9.847  10.616
84429W        W43866  31.530  40.413   3.292
84430W        W43867   0.946   0.311  14.407
84431W        W43868   7.178  25.078   5.228
84432W        W43869  37.884  20.714  12.834
84433W        W43870  30.134  13.213  14.435
84434W        W43871  14.792  16.585   3.631
84435W        W43872   7.253  40.921   3.353
84436W        W43873  42.454  41.883  13.375
84437W        W43874  17.592  31.647  13.835
84438W        W43875   6.739   5.796   2.349
84439W        W43876  42.347  21.527   1.318
84440W        W43877   2.816  10.224   3.153
84441W        W43878  13.767  11.835   0.441
84442W        W43879  15.142   7.857  13.332
84443W        W43880   6.855  11.258  12.422
84444W        W43881   8.722  37.023   1.437
84445W        W43882  10.669  37.412  13.939
84446W        W43883   6.748  31.429  10.964
84447W        W43884  37.952  20.646   2.777
84448W        W43885  40.978   0.905   1.403
84449W        W43886  24.106  33.609   5.157
84450W        W43887  41.496   4.704   2.266
84451W        W43888   3.420  38.408  11.984
84452W        W43889  24.142  28.443  11.428
84453W        W43890   6.321  36.843   0.886
84454W        W43891  23.240  36.361   3.670
84455W        W43892  17.137  23.230   0.455
84456W        W43893  43.304  42.380   2.703
84457W        W43894   5.908  35.942  12.928
84458W        W43895  23.063  28.183  13.041
84459W        W43896   5.750  28.133   0.318
84460W        W43897  34.989  44.497  13.818
84461W        W43898  13.720  35.515   4.654
84462W        W43899  33.005  32.572   4.690
84463W        W43900   7.215  36.042  14.760
84464W        W43901  43.496   2.319   2.326
84465W        W43902  20.081   2.465   1.917
84466W        W43903  19.568  32.984  12.862
84467W        W43904   2.378   0.915   2.292
84468W        W43905  14.604  29.600  13.436
84469W        W43906  11.161  18.200   4.116
84470W        W43907  19.166   1.241   0.947
84471W        W43908  10.341  25.706  12.868
84472W        W43909  19.077  22.728  12.834
84473W        W43910  42.947   9.317  10.607
84474W        W43911  33.066  30.420   2.404
84475W        W43912   2.450  19.168  14.763
84476W        W43913   9.306  20.585   4.776
84477W        W43914  11.225  32.081  10.956
84478W        W43915  37.937  33.900   0.379
84479W        W43916  24.483  36.368   3.746
84480W        W43917  43.020  34.921  11.401
84481W        W43918  42.875  18.581   3.803
84482W        W43919  27.135  24.620  13.409
84483W        W43920  31.999  25.603  12.089
84484W        W43921  40.332  16.648  14.377
84485W        W43922  25.068  21.046   1.319
84486W        W43923  11.291  28.533  12.555
84487W        W43924  26.064  34.510   1.368
84488W        W43925   3.322  31.625   1.434
84489W        W43926  43.859  16.306   3.835
84490W        W43927   2.396  28.138  12.891
84491W        W43928   9.237  41.465  10.604
84492W        W43929  15.665  38.867  13.969
84493W        W43930  35.515  10.276   0.352
84494W        W43931  31.025  41.506  12.094
84495W        W43932   7.194  23.037   1.698
84496W        W43933  33.456  33.606   0.462
84497W        W43934  43.894  21.109   3.743
84498W        W43935  40.351  32.105   9.947
84499W        W43936  14.652  27.956  13.436
84500W        W43937  41.419  38.904  13.866
84501W        W43938   2.867  18.264   0.344
84502W        W43939  27.160  35.477  11.118
84503W        W43940  26.084  12.685   4.795
84504W        W43941  28.010   2.871  12.493
84505W        W43942  18.107  36.931  13.866
84506W        W43943  18.615  28.069   1.341
84507W        W43944  32.418  14.637  14.032
84508W        W43945  13.197  18.104   1.847
84509W        W43946  19.736  21.256   3.692
84510W        W43947  40.970  34.553  12.826
84511W        W43948  29.081  29.456  11.386
84512W        W43949  10.717  27.118  14.463
84513W        W43950  32.029  20.599  11.455
84514W        W43951  43.877   6.881   0.401
84515W        W43952  10.769  36.554   0.284
84516W        W43953   3.261  20.177  13.007
84517W        W43954  31.153  40.946  10.944
84518W        W43955   1.757  19.215  13.894
84519W        W43956  39.965  41.811  11.066
84520W        W43957  42.421   4.699   3.300
84521W        W43958  22.098  16.250   0.909
84522W        W43959  17.139  34.974  10.137
84523W        W43960   9.259  17.097   4.770
84524W        W43961  43.851  41.024   4.223
84525W        W43962  20.264  24.722  12.870
84526W        W43963  23.550   0.256   2.799
84527W        W43964  43.389  28.938  10.055
84528W        W43965   9.716  25.604  13.361
84529W        W43966   3.731  10.269  14.406
84530W        W43967  37.526  18.721   3.313
84531W        W43968  12.671  16.631  11.575
84532W        W43969   7.843  44.820   2.871
84533W        W43970  38.971   4.824   3.773
84534W        W43971   2.407  33.107  14.799
84535W        W43972  12.336  44.004   0.923
84536W        W43973  17.183  14.631  13.540
84537W        W43974   4.414  28.933   3.825
84538W        W43975  13.165  36.865  10.997
84539W        W43976  31.103  17.600  14.430
84540W        W43977  11.750   2.285  11.570
84541W        W43978  31.412  42.458   0.935
84542W        W43979   2.775  35.985  11.496
84543W        W43980  29.057  27.189  11.016
84544W        W43981  12.314  35.915  11.100
84545W        W43982  23.134  23.041  14.361
84546W        W43983  15.270  15.234  10.967
84547W        W43984  25.659  11.191  11.034
84548W        W43985  10.169   7.902  13.356
84549W        W43986  43.434  28.146   1.785
84550W        W43987  40.902  15.278  10.931
84551W        W43988  41.797  21.580  14.842
84552W        W43989  18.646   3.233   4.134
84553W        W43990  32.549  39.020  13.837
84554W        W43991   1.802  15.238   0.764
84555W        W43992  37.877  42.293   1.859
84556W        W43993   0.846  32.926  11.005
84557W        W43994  36.947   3.758   4.653
84558W        W43995  19.595  15.581  13.315
84559W        W43996   6.848  26.131   2.202
84560W        W43997  33.041  10.676   2.306
84561W        W43998  19.565  30.084   4.187
84562W        W43999  19.115  25.552   1.219
84563W        W44000  16.292  15.670  12.570
84564W        W44001   0.971  28.664  14.772
84565W        W44002  12.129  20.106  11.001
84566W        W44003  31.422  12.148  13.958
84567W        W44004   2.775   6.288   4.717
84568W        W44005   3.903  32.552  13.334
84569W        W44006   3.425  21.591   2.311
84570W        W44007  10.340  44.278  10.523
84571W        W44008  35.389  38.380  10.522
84572W        W44009  13.236  21.562   2.248
84573W        W44010  44.336   9.645   5.306
84574W        W44011  11.236  37.978  12.952
84575W        W44012  15.266  21.031   1.210
84576W        W44013  27.989  19.711  10.150
84577W        W44014   7.784  34.476   1.317
84578W        W44015  39.423  18.648   1.414
84579W        W44016  39.441  30.912  11.535
84580W        W44017  39.516  30.531   2.244
84581W        W44018  36.395  24.206   2.345
84582W        W44019   2.365  10.658  10.493
84583W        W44020  37.531  38.539  10.568
84584W        W44021  44.332   8.676   0.827
84585W        W44022  19.211  35.432  13.434
84586W        W44023   3.939  35.868   3.637
84587W        W44024  39.425  40.536  12.458
84588W        W44025  11.709  30.438  12.492
84589W        W44026  12.852  36.985   2.359
84590W        W44027   8.238   5.328   3.741
84591W        W44028  38.493   6.249   2.691
84592W        W44029  24.625  41.941  14.359
84593W        W44030  18.082  27.124   2.398
84594W        W44031   0.961  11.138   2.241
84595W        W44032  12.620  16.224  14.926
84596W        W44033  17.255  28.045   0.359
84597W        W44034  27.593  31.968  11.529
84598W        W44035  14.319  43.889  11.428
84599W        W44036  34.898   0.749   3.848
84600W        W44037  31.484  31.917  12.463
84601W        W44038  32.909   2.892   2.217
84602W        W44039  23.176  30.146  13.843
84603W        W44040   4.290  24.136   9.638
84604W        W44041   9.217  27.114   4.330
84605W        W44042  33.918   2.426  13.977
84606W        W44043  40.478  29.012   3.221
84607W        W44044  10.217   7.703   4.721
84608W        W44045  26.023  11.654   3.341
84609W        W44046  29.125  30.475  11.906
84610W        W44047   6.272  38.867  11.976
84611W        W44048  21.588   7.176  14.955
84612W        W44049  20.253  25.024   0.867
84613W        W44050  25.083  25.586   0.481
84614W        W44051  12.666  21.210   4.786
84615W        W44052   5.690   3.870  14.342
84616W        W44053  21.039  21.751   1.237
84617W        W44054   7.858  22.652   4.802
84618W        W44055  29.072  41.343  11.869
84619W        W44056  13.291  18.579  11.425
84620W        W44057   4.385  19.730   2.313
84621W        W44058  10.639  13.819  12.945
84622W        W44059  24.707   8.746  10.509
84623W        W44060  36.429   9.178   3.694
84624W        W44061  35.988  12.818  11.610
84625W        W44062  21.078   1.811  11.905
84626W        W44063   9.319   8.800   1.451
84627W        W44064  29.973  35.412   0.314
84628W        W44065  37.937  33.475  10.896
84629W        W44066  26.083  11.204   1.893
84630W        W44067  31.040  27.947  12.365
84631W        W44068  43.971  10.252  12.523
84632W        W44069  41.300  38.329  11.877
84633W        W44070   7.789  19.727  10.642
84634W        W44071  27.446  21.741  13.854
84635W        W44072  14.714  27.586   3.149
84636W        W44073  36.496  18.185   1.710
84637W        W44074   4.707  41.887  10.640
84638W        W44075  29.531  37.912  13.005
84639W        W44076  27.625   7.264  11.119
84640W        W44077  34.952   8.795  11.950
84641W        W44078  37.015  44.281  10.618
84642W        W44079  22.043  39.956   1.408
84643W        W44080  40.964  24.539  11.856
84644W        W44081  16.214  28.455  11.059
84645W        W44082   3.451  24.576  14.456
84646W        W44083  13.728   7.172   1.243
84647W        W44084  15.598  38.472   1.931
84648W        W44085   0.340  33.600   4.283
84649W        W44086  27.608  38.414   1.817
84650W        W44087  37.837   9.738   2.331
84651W        W44088   4.912   8.802   3.270
84652W        W44089  20.736  44.383   2.875
84653W        W44090  22.014  44.849   2.682
84654W        W44091  34.552  41.003   1.846
84655W        W44092   6.875  42.836  11.110
84656W        W44093  37.566  39.521  11.088
84657W        W44094   0.816  11.207   3.777
84658W        W44095  12.679   6.407   1.736
84659W        W44096  24.512  40.898   3.790
84660W        W44097   9.796  27.008  12.845
84661W        W44098   6.722  30.943   5.318
84662W        W44099   1.241  16.281   9.674
84663W        W44100   2.939  37.888   2.883
84664W        W44101  42.871  16.758   2.314
84665W        W44102  36.495  27.179  11.577
84666W        W44103  26.646  13.702   1.844
84667W        W44104  15.156  42.502   0.837
84668W        W44105  32.991   5.852   1.881
84669W        W44106   9.361   8.258   0.746
84670W        W44107  26.581  20.271   5.274
84671W        W44108  25.101  32.467  12.962
84672W        W44109  15.101  23.127   0.303
84673W        W44110  44.284  28.666   0.763
84674W        W44111  19.628  26.462   5.172
84675W        W44112   4.899  44.471  11.415
84676W        W44113  19.219  25.087   0.857
84677W        W44114   3.260   2.341  14.945
84678W        W44115  14.619  38.457   4.795
84679W        W44116  10.272  33.480  14.809
84680W        W44117  13.333  24.608   1.847
84681W        W44118  32.611  33.447   2.820
84682W        W44119  18.677  23.649   0.362
84683W        W44120  27.640  18.631   3.769
84684W        W44121  39.899  34.876  10.513
84685W        W44122  26.207  12.154  10.944
84686W        W44123  25.987   6.752  12.991
84687W        W44124  19.586  29.097  13.862
84688W        W44125   0.768  34.093  13.451
84689W        W44126   6.206  19.060  11.011
84690W        W44127  41.835  32.016  14.359
84691W        W44128  36.909   2.841  13.951
84692W        W44129  23.063   8.824  11.565
84693W        W44130   6.680  37.563  12.443
84694W        W44131  30.039  26.036  12.073
84695W        W44132  35.401  13.706   1.228
84696W        W44133  44.870  42.019  14.967
84697W        W44134  36.066   1.330   4.830
84698W        W44135  38.828  38.516   5.192
84699W        W44136   3.753  29.078   1.806
84700W        W44137  12.201  37.574   2.843
84701W        W44138  29.010  18.216   1.836
84702W        W44139  34.944  32.974  13.509
84703W        W44140  30.996  39.339  13.959
84704W        W44141  34.105  11.229   0.380
84705W        W44142  20.625  11.763  14.982
84706W        W44143  12.222   8.253  10.897
84707W        W44144  23.669   3.451   3.856
84708W        W44145  15.590   2.345  12.090
84709W        W44146   1.383  20.256   1.910
84710W        W44147  29.116  21.061  14.275
84711W        W44148  19.732  11.185  13.335
84712W        W44149  20.752  16.736  14.412
84713W        W44150   5.246  26.611   1.834
84714W        W44151  11.134  15.176  12.884
84715W        W44152  18.772   4.754  10.056
84716W        W44153  16.303   7.857  11.897
84717W        W44154  15.121   0.324  10.510
84718W        W44155   9.778   4.267   1.766
84719W        W44156   3.897  30.069  11.599
84720W        W44157   9.391  19.726   0.426
84721W        W44158   0.471  38.939   9.564
84722W        W44159  34.889  21.232  10.579
84723W        W44160  32.429  31.059   4.178
84724W        W44161  27.133  15.616   4.335
84725W        W44162   9.319  14.591  13.328
84726W        W44163  37.835  26.081  10.592
84727W        W44164  37.086  26.174   3.277
84728W        W44165  16.678  22.133  13.804
84729W        W44166  40.436   8.337  13.985
84730W        W44167  35.990  12.695  14.910
84731W        W44168  35.065  31.602  12.082
84732W        W44169  15.724  18.138  13.427
84733W        W44170  13.680   0.379   0.429
84734W        W44171  20.162  14.262   2.719
84735W        W44172   5.784   1.468   2.214
84736W        W44173   5.376  23.141  10.982
84737W        W44174  36.498  43.456  11.503
84738W        W44175  20.056  20.522  12.452
84739W        W44176  17.651  17.240   0.734
84740W        W44177  25.144  14.296  10.463
84741W        W44178  33.579  16.691  12.539
84742W        W44179  14.735   5.822  12.374
84743W        W44180  12.327  22.620  14.020
84744W        W44181   8.747  39.380   1.252
84745W        W44182  37.458  40.853  12.552
84746W        W44183  35.554  32.581  14.933
84747W        W44184  25.042   7.744   3.294
84748W        W44185  29.654  23.536  12.918
84749W        W44186  29.095  31.942   3.798
84750W        W44187  44.445  25.182  13.462
84751W        W44188  29.653  20.591  12.892
84752W        W44189  19.684  14.142  13.374
84753W        W44190  33.048  42.289   0.287
84754W        W44191  11.746  14.627  10.919
84755W        W44192  41.519  13.641  12.429
84756W        W44193  30.918  18.289   4.289
84757W        W44194  33.400  11.864   3.792
84758W        W44195  18.665  32.460  12.863
84759W        W44196  38.551   3.784  12.428
84760W        W44197  33.024  35.994  10.159
84761W        W44198  41.839  22.613  11.028
84762W        W44199  42.001   8.669  10.027
84763W        W44200  22.244  41.504   1.934
84764W        W44201   2.307  41.457   2.662
84765W        W44202  18.067  21.651   3.856
84766W        W44203  24.175  11.865  14.441
84767W        W44204  23.216  25.636   2.406
84768W        W44205  11.318   1.822  14.907
84769W        W44206   6.271  37.910   1.406
84770W        W44207  14.204  43.939  10.604
84771W        W44208  40.452   3.261   3.344
84772W        W44209  16.716  19.596  10.623
84773W        W44210  40.031  39.428   0.478
84774W        W44211  25.976  33.391  12.962
84775W        W44212  20.757  21.198   4.326
84776W        W44213  19.102  17.167   2.827
84777W        W44214   3.805  41.966  11.590
84778W        W44215  22.730  42.965  11.050
84779W        W44216  39.493  36.843   3.706
84780W        W44217  26.550  38.947  14.862
84781W        W44218  19.741  13.833   2.389
84782W        W44219  24.676  25.674  11.929
84783W        W44220   5.774  43.404  12.417
84784W        W44221  13.172   0.416  10.031
84785W        W44222   6.416  30.461  13.326
84786W        W44223  10.869  44.998  11.059
84787W        W44224  37.926  18.264   3.638
84788W        W44225  19.099  34.522   4.231
84789W        W44226   8.778  40.438  14.010
84790W        W44227  15.088  18.696   0.350
84791W        W44228  18.654  38.463  12.072
84792W        W44229  28.007  31.616   2.268
84793W        W44230  37.344   9.836  11.910
84794W        W44231   5.741   4.282   3.740
84795W        W44232  11.849  27.669   2.409
84796W        W44233  22.739  12.661  11.953
84797W        W44234  13.771  34.538  14.503
84798W        W44235  29.168  44.956   1.886
84799W        W44236  13.263  41.456  12.040
84800W        W44237  22.659   6.748   1.259
84801W        W44238  17.210  26.957  12.359
84802W        W44239  12.261  16.793  13.941
84803W        W44240   0.911  10.762   5.280
84804W        W44241  22.574  38.368   0.476
84805W        W44242   0.847   1.315  11.103
84806W        W44243   6.892   1.859  13.896
84807W        W44244  12.335  38.899   1.287
84808W        W44245  30.429  23.076   1.914
84809W        W44246   7.230   0.342  14.431
84810W        W44247   4.218  34.403   1.408
84811W        W44248  39.456  31.429   1.817
84812W        W44249  42.899  17.140   4.341
84813W        W44250   9.311   4.823  13.357
84814W        W44251  17.129   9.252  14.780
84815W        W44252  22.066  29.560   1.774
84816W        W44253  38.537  38.347   4.747
84817W        W44254  11.350   2.470  13.999
84818W        W44255  36.052  34.922   2.845
84819W        W44256  28.660  18.203   3.187
84820W        W44257  10.751   7.268   1.708
84821W        W44258  10.664  43.000  11.533
84822W        W44259   0.980  28.645   0.465
84823W        W44260  40.821  32.089  10.507
84824W        W44261  32.571  11.677  12.013
84825W        W44262  42.969  29.143  14.403
84826W        W44263  40.972   9.223  13.494
84827W        W44264  25.607  22.619  14.897
84828W        W44265  35.412  14.105  13.870
84829W        W44266  43.930   4.442   3.677
84830W        W44267  28.495   1.952   4.130
84831W        W44268  10.231  25.713  13.373
84832W        W44269  30.937  31.917  12.915
84833W        W44270   2.406   3.423   9.995
84834W        W44271  23.523  16.704  14.982
84835W        W44272   6.387  19.076   9.945
84836W        W44273  41.402  38.838   2.248
84837W        W44274  16.204  31.951   4.265
84838W        W44275  37.398   5.424   4.190
84839W        W44276  33.985  39.487  12.831
84840W        W44277  13.121  18.613  12.915
84841W        W44278  29.008  11.234  10.965
84842W        W44279  34.869  44.934   4.276
84843W        W44280   0.957  19.275  12.918
84844W        W44281  29.467  36.956  14.765
84845W        W44282   3.429  17.097   0.343
84846W        W44283  35.558  15.708  11.435
84847W        W44284  34.540  31.931  11.983
84848W        W44285  42.430   3.934   0.851
84849W        W44286  34.076  39.461  10.056
84850W        W44287   3.273  23.680  12.997
84851W        W44288   3.351  32.508   0.944
84852W        W44289   1.848  25.612  14.355
84853W        W44290  29.997  23.509  14.299
84854W        W44291  34.046  27.521   1.242
84855W        W44292  43.770  22.573  12.080
84856W        W44293  11.727   3.276  11.557
84857W        W44294  39.426  12.315  10.509
84858W        W44295  35.028  39.457  11.921
84859W        W44296  44.396  29.143  14.500
84860W        W44297   9.355   5.814   9.981
84861W        W44298  22.076   9.834  10.600
84862W        W44299   3.813  14.684  13.956
84863W        W44300  19.272  39.484   4.118
84864W        W44301  42.303   0.827   3.301
84865W        W44302   3.241  22.588  10.908
84866W        W44303  10.790  15.298   0.894
84867W        W44304   4.778  34.594  12.393
84868W        W44305  21.175   3.219   2.701
84869W        W44306  38.569  26.636   4.647
84870W        W44307  35.929  27.952   4.614
84871W        W44308   5.886  27.077  12.972
84872W        W44309  29.425  23.005  11.864
84873W        W44310   6.686   6.686   4.815
84874W        W44311  17.185  26.492  13.327
84875W        W44312  24.687  25.006  10.943
84876W        W44313  27.057  34.519  14.312
84877W        W44314  11.647  12.650   0.734
84878W        W44315  25.501  11.734  14.009
84879W        W44316  17.093  43.504   1.339
84880W        W44317  11.865  23.985   3.674
84881W        W44318  38.422  13.194  14.775
84882W        W44319  44.399  36.870   0.349
84883W        W44320   5.341  26.020  12.356
84884W        W44321  34.985  42.014   9.933
84885W        W44322  10.646  33.616  10.147
84886W        W44323  17.578  26.121   0.243
84887W        W44324  17.283  33.403  12.919
84888W        W44325  26.115  43.296   3.781
84889W        W44326  10.197  12.190  14.304
84890W        W44327  26.497  24.549   2.305
84891W        W44328  28.532  20.687  11.606
84892W        W44329  39.320  25.148  11.041
84893W        W44330   7.895  27.974  13.819
84894W        W44331  40.804  16.760  11.961
84895W        W44332  14.112  15.267  10.987
84896W        W44333  22.038   9.701   0.818
84897W        W44334  16.121  36.353  10.573
84898W        W44335   4.288  15.311   2.198
84899W        W44336  13.778   9.833  11.940
84900W        W44337  26.121  15.766  11.922
84901W        W44338  38.417  20.261  13.511
84902W        W44339   0.748  22.174  12.887
84903W        W44340  36.435  11.752  11.089
84904W        W44341  37.862  39.847   0.806
84905W        W44342  20.595  42.320  10.059
84906W        W44343  26.181  27.967  13.374
84907W        W44344  37.987   3.770   3.380
84908W        W44345   5.849  25.486   1.768
84909W        W44346  30.027  32.471   3.840
84910W        W44347  35.058   0.845   2.262
84911W        W44348   3.385  28.940  12.082
84912W        W44349  24.071   2.951  12.361
84913W        W44350  13.133  28.958  10.018
84914W        W44351  38.840  44.844  13.795
84915W        W44352  38.414  14.691  12.389
84916W        W44353  10.718  43.804  11.511
84917W        W44354  34.491  18.201   4.212
84918W        W44355   7.757  25.051  11.382
84919W        W44356  40.522  33.516   3.816
84920W        W44357  37.905  19.178   3.864
84921W        W44358  43.329  23.695   3.664
84922W        W44359  33.440  14.339   9.921
84923W        W44360  28.539  30.071   2.705
84924W        W44361  22.033  19.592   3.866
84925W        W44362  15.200  21.134   0.308
84926W        W44363  38.945  35.384  12.991
84927W        W44364  33.059   8.284  13.030
84928W        W44365  17.594  27.593  12.450
84929W        W44366  12.172   5.197   2.799
84930W        W44367  36.901  20.768  14.864
84931W        W44368   6.184  13.662  12.481
84932W        W44369  17.085  19.140   2.261
84933W        W44370  29.563  36.360   3.215
84934W        W44371  39.875   4.217   4.332
84935W        W44372  18.651  32.007   3.287
84936W        W44373  38.423  24.055   2.775
84937W        W44374  23.148  15.096  11.447
84938W        W44375  44.490   8.166  12.515
84939W        W44376   2.248  17.695  14.312
84940W        W44377  12.630  20.256  14.513
84941W        W44378  39.873  35.536   3.276
84942W        W44379   6.404  22.196   3.308
84943W        W44380  11.249   3.262  13.063
84944W        W44381  29.571  26.618  14.432
84945W        W44382  34.452  37.896   2.731
84946W        W44383  36.990  23.130  11.558
84947W        W44384  32.481  11.141   4.186
84948W        W44385  16.090   1.464   2.696
84949W        W44386   3.766   9.392  13.003
84950W        W44387  36.469  27.527   0.773
84951W        W44388  14.753  19.142  12.854
84952W        W44389  29.021  40.484  12.920
84953W        W44390  20.052  36.498   2.290
84954W        W44391  37.853  30.137   1.245
84955W        W44392  15.158   2.431  12.871
84956W        W44393  42.991  29.940  13.457
84957W        W44394  13.685  16.299  10.907
84958W        W44395  19.227   4.811   0.788
84959W        W44396  37.564  31.446   1.390
84960W        W44397   7.794  11.768   0.936
84961W        W44398  40.415  40.979  14.382
84962W        W44399  10.785  21.545  12.033
84963W        W44400  20.728  41.475  14.018
84964W        W44401  18.698  24.180   2.774
84965W        W44402   8.816  18.243   1.733
84966W        W44403  43.280  20.031   0.918
84967W        W44404   6.705  44.950   1.247
84968W        W44405  31.911  11.629   3.180
84969W        W44406  12.690  41.441   4.288
84970W        W44407   4.212  35.368   0.443
84971W        W44408  43.785  30.079   3.183
84972W        W44409  22.184  27.150  13.333
84973W        W44410  24.981  25.124  11.379
84974W        W44411  42.410  27.195  12.833
84975W        W44412   1.430  22.706  14.985
84976W        W44413   5.361   7.316  14.489
84977W        W44414  30.573  31.984  10.548
84978W        W44415  30.067  16.297  11.484
84979W        W44416  37.436  38.478  10.058
84980W        W44417  20.129  41.532   4.172
84981W        W44418  13.701  19.768  10.404
84982W        W44419  22.541   0.892   5.087
84983W        W44420  44.490  22.226  11.877
84984W        W44421  31.497  27.561  14.802
84985W        W44422  33.952  44.764  11.415
84986W        W44423  40.317  39.816  14.326
84987W        W44424   1.792  35.097  11.052
84988W        W44425  30.132  22.170   3.779
84989W        W44426  40.992  22.678   4.799
84990W        W44427  13.773  32.008   0.961
84991W        W44428   1.829  27.986   0.361
84992W        W44429  42.299  22.529   0.373
84993W        W44430   4.279  27.036   2.741
84994W        W44431  38.505   0.440  12.837
84995W        W44432  33.568  23.004  13.313
84996W        W44433  29.002  33.063  12.369
84997W        W44434  19.661  19.536   3.638
84998W        W44435  24.074  33.586  11.943
84999W        W44436   0.806  32.034   5.305
85000W        W44437  16.164  17.565  14.802
85001W        W44438   3.345  29.077   5.202
85002W        W44439  22.718  22.703  12.341
85003W        W44440  12.694   5.320  12.900
85004W        W44441  42.461  22.089  12.920
85005W        W44442   3.220  29.994   1.837
85006W        W44443  26.467  24.018   3.309
85007W        W44444   5.810  13.178   4.674
85008W        W44445  20.735  41.948   1.808
85009W        W44446  22.231   7.317   1.393
85010W        W44447  21.651  42.848   0.772
85011W        W44448  11.303   0.264   1.884
85012W        W44449   0.358  28.651  12.918
85013W        W44450  20.611   4.341  11.584
85014W        W44451   7.291  23.088  10.973
85015W        W44452  29.125   3.445   2.404
85016W        W44453  22.657  34.103  11.452
85017W        W44454   4.329  29.148   0.739
85018W        W44455  36.931  33.127  13.822
85019W        W44456  39.044  11.289  11.521
85020W        W44457  41.369  38.484   2.396
85021W        W44458  19.080  24.018  14.898
85022W        W44459  32.408  21.633   4.308
85023W        W44460  21.730  36.561   2.697
85024W        W44461  22.039   9.154   1.213
85025W        W44462  33.938  26.039   1.350
85026W        W44463  13.734   9.375  11.541
85027W        W44464  11.842  27.130   1.772
85028W        W44465  25.542   9.651   5.147
85029W        W44466  42.016   2.305  13.965
85030W        W44467  44.826  36.015   0.817
85031W        W44468  43.958  39.526   4.759
85032W        W44469  24.658  30.518  14.909
85033W        W44470  18.173  40.326  12.403
85034W        W44471   9.178   6.280  11.054
85035W        W44472  29.026  27.483  11.578
85036W        W44473  25.663  27.514  11.081
85037W        W44474  11.836  20.180  14.321
85038W        W44475  40.910  38.912   3.364
85039W        W44476   6.701   9.757   2.895
85040W        W44477  32.464  13.699  12.067
85041W        W44478   2.802   2.797   3.228
85042W        W44479  41.960   0.926   0.920
85043W        W44480  29.148   0.401  13.339
85044W        W44481  41.981  13.777   0.742
85045W        W44482   5.808  30.485  12.475
85046W        W44483  44.785  35.024  13.895
85047W        W44484   8.196  28.108   4.742
85048W        W44485   4.359  41.888  12.371
85049W        W44486  16.090  38.063  13.012
85050W        W44487  30.429  11.864   0.246
85051W        W44488  32.528  10.326  13.981
85052W        W44489  38.376  25.481  13.479
85053W        W44490   0.899  39.015  14.346
85054W        W44491  11.684   8.845   4.678
85055W        W44492  22.692   9.224  10.155
85056W        W44493  14.226   6.257   3.160
85057W        W44494  43.772  22.575  14.439
85058W        W44495   6.409  24.631   2.695
85059W        W44496   3.390  10.252   2.281
85060W        W44497  44.490   9.741  13.920
85061W        W44498  22.687  34.368   3.656
85062W        W44499   2.894  27.194  14.025
85063W        W44500  25.191   5.368   1.345
85064W        W44501  34.953  44.951   1.274
85065W        W44502  10.230  28.651   2.667
85066W        W44503  11.334  22.699   4.610
85067W        W44504  21.233  40.050   5.643
85068W        W44505  13.323  24.665   4.338
85069W        W44506  28.947  43.354  13.452
85070W        W44507  18.217  35.918   0.338
85071W        W44508  30.941  13.766  12.866
85072W        W44509  19.215  39.983   3.739
85073W        W44510  16.171  32.100   3.655
85074W        W44511  14.639  42.412   3.307
85075W        W44512  30.143  23.237   3.380
85076W        W44513  16.580  16.605  12.003
85077W        W44514  30.090  32.519  11.002
85078W        W44515  18.163   7.346   1.309
85079W        W44516  39.023  14.224   0.740
85080W        W44517  33.905  33.883  14.297
85081W        W44518  33.477  41.450   0.961
85082W        W44519  20.196  35.029  11.085
85083W        W44520   3.339   4.775  12.427
85084W        W44521  25.029  44.496   4.650
85085W        W44522  18.791   8.354  13.463
85086W        W44523  35.893   2.881  12.047
85087W        W44524  19.133   5.258  14.327
85088W        W44525  20.256  43.310   1.724
85089W        W44526   7.388  14.815   2.354
85090W        W44527  24.531  26.634  14.490
85091W        W44528  16.700  41.476   0.406
85092W        W44529  22.554  31.619   3.740
85093W        W44530   4.350  37.506   1.697
85094W        W44531  26.487  19.135   0.380
85095W        W44532   3.859  19.048  10.576
85096W        W44533  22.020  40.798  12.551
85097W        W44534  27.060   2.459   0.484
85098W        W44535  21.714   1.915   3.804
85099W        W44536   6.219  10.718  12.846
85100W        W44537  28.971   4.925   4.174
85101W        W44538  24.114   1.808   9.952
85102W        W44539   5.742   2.786  12.457
85103W        W44540  25.183  32.612  11.115
85104W        W44541  18.619  40.030   1.421
85105W        W44542  43.789   8.765  13.890
85106W        W44543  36.874  31.475  13.847
85107W        W44544   7.271  28.063   3.281
85108W        W44545  40.828  31.600   3.378
85109W        W44546  44.407  34.021  12.901
85110W        W44547  20.734  10.265  10.934
85111W        W44548  16.130  19.681  10.986
85112W        W44549  23.627  39.366  10.160
85113W        W44550   2.394  28.039   1.860
85114W        W44551  18.573  27.659   0.871
85115W        W44552  33.938  42.342  12.431
85116W        W44553  32.580  28.534   0.906
85117W        W44554  20.125   1.464   1.896
85118W        W44555  19.237   4.904  14.365
85119W        W44556   6.264  37.835   0.788
85120W        W44557   0.266  25.009  11.601
85121W        W44558  35.451  42.451   3.826
85122W        W44559  43.910   2.922   4.319
85123W        W44560   0.404   5.778  11.586
85124W        W44561   8.385  15.610  13.480
85125W        W44562   2.274  32.041  14.860
85126W        W44563  28.932   3.795  13.446
85127W        W44564  37.839  30.912   0.350
85128W        W44565  14.259  22.538  12.518
85129W        W44566  20.690  21.738   0.367
85130W        W44567  27.578  33.453   3.357
85131W        W44568   8.218  36.987  12.986
85132W        W44569  24.089  23.148  13.816
85133W        W44570  34.069  30.487  13.962
85134W        W44571  15.266  11.843  13.471
85135W        W44572   8.840  11.175  12.050
85136W        W44573  38.350  13.801  10.643
85137W        W44574  43.503  32.542  10.588
85138W        W44575  28.525  20.094  11.118
85139W        W44576  21.058  25.142  11.564
85140W        W44577  22.640  40.838  14.939
85141W        W44578  44.004  39.506   3.283
85142W        W44579  37.940  44.359   1.934
85143W        W44580   9.842  44.004   3.188
85144W        W44581  37.885  14.268  13.483
85145W        W44582  15.635  13.219  12.530
85146W        W44583  25.488  11.728  13.390
85147W        W44584  42.482   4.365  12.862
85148W        W44585   3.337  19.534   2.689
85149W        W44586   8.286  27.058   1.333
85150W        W44587   9.784  10.838   3.268
85151W        W44588   0.755  44.406   0.753
85152W        W44589   3.347  10.280  14.856
85153W        W44590  31.609  25.497   2.889
85154W        W44591   0.814  42.411   2.195
85155W        W44592   7.291   0.877   2.297
85156W        W44593   6.394   4.421  13.929
85157W        W44594  23.026  22.016  12.342
85158W        W44595  21.736   9.314   4.305
85159W        W44596  16.290  37.084   4.808
85160W        W44597  20.757  42.404   5.597
85161W        W44598  30.534  32.472   0.451
85162W        W44599  14.598  36.924   1.354
85163W        W44600  33.588  41.889   2.828
85164W        W44601  31.915   0.834   2.220
85165W        W44602   2.287  10.798  11.960
85166W        W44603  33.563  13.826   4.244
85167W        W44604  44.289  32.572   3.375
85168W        W44605  22.186  13.604  14.301
85169W        W44606   4.839  23.513  11.860
85170W        W44607   5.881   8.389  12.397
85171W        W44608   9.289  19.571   0.947
85172W        W44609  28.575  33.521  13.319
85173W        W44610  41.404   1.824   4.291
85174W        W44611   8.891  29.525   3.697
85175W        W44612   5.891  10.152   3.782
85176W        W44613  12.284  23.026   4.236
85177W        W44614   8.724  39.848   2.196
85178W        W44615  39.316   0.792  13.867
85179W        W44616  37.026  34.037   4.636
85180W        W44617   7.409  37.840  14.278
85181W        W44618  24.603  43.369  12.409
85182W        W44619   7.774  33.962   1.807
85183W        W44620  11.330  19.154   2.376
85184W        W44621   3.912  39.903  14.282
85185W        W44622   0.777  14.258   1.270
85186W        W44623  33.112  43.987   2.266
85187W        W44624   9.153  14.678  14.998
85188W        W44625   3.838   3.392   0.352
85189W        W44626  37.532  24.653  11.515
85190W        W44627  38.981  37.000   3.183
85191W        W44628   2.238  28.469   0.462
85192W        W44629  42.296   9.835   0.897
85193W        W44630   8.182  23.649   4.148
85194W        W44631  33.384   9.859  10.531
85195W        W44632  17.121  27.521   2.844
85196W        W44633  31.468   8.345  14.430
85197W        W44634   5.891  36.364   1.337
85198W        W44635  39.320  32.013  12.841
85199W        W44636  24.645  30.913  11.856
85200W        W44637  22.182  27.599  13.056
85201W        W44638  18.274  40.937   0.367
85202W        W44639  40.337  42.834  10.419
85203W        W44640  16.685  13.273  13.530
85204W        W44641  40.328  23.150   1.800
85205W        W44642  19.127  16.651   0.282
85206W        W44643   5.314  28.965  10.988
85207W        W44644  29.595  11.651   0.453
85208W        W44645  11.140  35.914  14.460
85209W        W44646  44.461  12.190  13.548
85210W        W44647  25.071  21.058   0.852
85211W        W44648  18.601  34.907  12.379
85212W        W44649  17.220  19.107  12.521
85213W        W44650  12.700   5.746  13.372
85214W        W44651  31.585   1.425   0.913
85215W        W44652  16.656  40.893  10.984
85216W        W44653  36.055  10.826  12.066
85217W        W44654   1.907  31.125   1.808
85218W        W44655  39.883  33.385  14.922
85219W        W44656  24.519  10.245   2.178
85220W        W44657   4.786  15.807   4.259
85221W        W44658  25.647  32.556   1.894
85222W        W44659  17.589  12.825   3.185
85223W        W44660  28.522  21.588   3.234
85224W        W44661  27.028  28.940  14.983
85225W        W44662  33.903  29.147  12.978
85226W        W44663  31.122   6.354  12.382
85227W        W44664   2.964   6.688   2.835
85228W        W44665  27.549  22.186  14.787
85229W        W44666  34.492  26.532   0.947
85230W        W44667   6.807  28.149  10.468
85231W        W44668  30.914   8.244   2.745
85232W        W44669  19.766  39.331  11.932
85233W        W44670  27.606  15.672   2.317
85234W        W44671  11.207   4.804  14.003
85235W        W44672  33.957  33.027   2.784
85236W        W44673  20.570  36.380   3.173
85237W        W44674  42.026  24.990   1.220
85238W        W44675  35.437  19.571  14.465
85239W        W44676  42.461  27.072   0.304
85240W        W44677  27.546  17.065   1.353
85241W        W44678  43.957  23.663  11.476
85242W        W44679  22.116   7.716   4.232
85243W        W44680  38.350  39.337   4.608
85244W        W44681   8.657  28.441   0.831
85245W        W44682  24.481   8.320  14.483
85246W        W44683  35.014  17.087   2.701
85247W        W44684  12.635  11.210  13.950
85248W        W44685  19.092   2.425   0.446
85249W        W44686   2.238  15.155  12.483
85250W        W44687  39.821  43.369  10.586
85251W        W44688  40.852   5.919  13.987
85252W        W44689  13.642  10.636  14.399
85253W        W44690  28.630   6.778  13.799
85254W        W44691  10.358  14.319   4.154
85255W        W44692   2.463  19.123   3.182
85256W        W44693  29.453  10.786  11.472
85257W        W44694   2.398  24.046  14.887
85258W        W44695  44.777  41.795  14.283
85259W        W44696  32.950  40.961   1.756
85260W        W44697  17.618  16.123   0.344
85261W        W44698  35.046  17.574   4.658
85262W        W44699  44.342   9.709   3.319
85263W        W44700   6.245  27.689   0.317
85264W        W44701  32.125  10.760  12.903
85265W        W44702  26.703  10.729  13.005
85266W        W44703  36.556  39.840  13.017
85267W        W44704  37.465   8.217   4.788
85268W        W44705   2.845  26.693  11.093
85269W        W44706  10.213  40.487  10.591
85270W        W44707   8.185  44.759  12.411
85271W        W44708  10.667  21.601  13.359
85272W        W44709   5.298   6.783   1.295
85273W        W44710  10.720  12.847  14.455
85274W        W44711  25.597  29.995   0.864
85275W        W44712  23.995  39.057   1.902
85276W        W44713  10.213  37.022  14.952
85277W        W44714  42.927   9.248   3.723
85278W        W44715  42.779  39.840   2.408
85279W        W44716  27.036  30.589   3.284
85280W        W44717  14.173  43.985  10.077
85281W        W44718   6.360  29.933  13.380
85282W        W44719  35.914  21.222  13.420
85283W        W44720  33.069   6.366  12.555
85284W        W44721  21.084  16.294   0.386
85285W        W44722  40.817  18.701   1.303
85286W        W44723  20.554  15.636   4.245
85287W        W44724  35.957  34.455  11.090
85288W        W44725  18.275  18.259  14.295
85289W        W44726  25.073  13.262   1.347
85290W        W44727  20.197   5.930   0.431
85291W        W44728  17.122  10.157  10.487
85292W        W44729  23.050  20.127   1.723
85293W        W44730  29.538  39.332  12.932
85294W        W44731   4.332  28.077  11.560
85295W        W44732  11.234  14.194  14.904
85296W        W44733  20.740   0.315  10.513
85297W        W44734  24.215   7.820   5.128
85298W        W44735  40.317  15.103  12.037
85299W        W44736  38.392  39.482  13.367
85300W        W44737  39.326   0.467   0.949
85301W        W44738  16.678  14.801   0.297
85302W        W44739   2.293  30.052  10.954
85303W        W44740   5.296  15.660   2.721
85304W        W44741  33.055  18.157  14.833
85305W        W44742  21.737  37.560  13.846
85306W        W44743  32.952  15.194   2.348
85307W        W44744   2.285   1.378   4.333
85308W        W44745   5.222  14.175   3.369
85309W        W44746  22.067  44.957  11.498
85310W        W44747  36.515   7.770  14.978
85311W        W44748  31.501  13.646   4.249
85312W        W44749  25.012  31.112  11.471
85313W        W44750  41.894  37.940   0.370
85314W        W44751  27.000  14.173   3.801
85315W        W44752  28.973  29.546  12.395
85316W        W44753  23.083   1.842  13.934
85317W        W44754  35.068  24.056   5.255
85318W        W44755   3.953  32.108  12.386
85319W        W44756  32.930   0.443   2.251
85320W        W44757  40.043  15.186   0.399
85321W        W44758   7.724  10.768  12.989
85322W        W44759  41.955   9.283  13.488
85323W        W44760  16.209  41.006   1.903
85324W        W44761  14.745   0.761  11.530
85325W        W44762  30.499   7.367   2.872
85326W        W44763  37.374   0.453   9.950
85327W        W44764  21.117  40.346  10.598
85328W        W44765   0.477  24.188   3.675
85329W        W44766  11.327   7.708   3.228
85330W        W44767  44.471  29.124   2.766
85331W        W44768  30.493  39.981  13.859
85332W        W44769  38.824   6.780  14.821
85333W        W44770  34.590  38.972   0.741
85334W        W44771  17.098   7.223   4.350
85335W        W44772   4.816  12.302   0.384
85336W        W44773  16.111  43.952  14.361
85337W        W44774  16.724  13.255  14.461
85338W        W44775  37.400  31.048   4.768
85339W        W44776  42.320  35.571   9.941
85340W        W44777  18.223  18.579   1.379
85341W        W44778  40.419   7.229   1.847
85342W        W44779   2.920   4.243   1.304
85343W        W44780   2.435  41.319  11.068
85344W        W44781  23.166  31.499   2.781
85345W        W44782   1.903   8.310  10.604
85346W        W44783  44.479  22.546   3.283
85347W        W44784   7.853  35.107   5.288
85348W        W44785  28.492  30.439  12.831
85349W        W44786  28.456   2.325   3.177
85350W        W44787   5.717  39.534  11.583
85351W        W44788   6.279  17.780  10.999
85352W        W44789  10.806  29.559   1.917
85353W        W44790  43.376   0.827   1.417
85354W        W44791  27.023  16.302   4.671
85355W        W44792  22.230  15.222   2.375
85356W        W44793  29.161  24.531  13.879
85357W        W44794  19.688  21.074  11.382
85358W        W44795  41.327  26.517   0.936
85359W        W44796  26.489  12.155  11.988
85360W        W44797  42.886   7.868   4.298
85361W        W44798  25.547  24.551  13.501
85362W        W44799  11.247  32.519  10.905
85363W        W44800  13.768  40.461  13.956
85364W        W44801  38.076  22.107   3.771
85365W        W44802  21.549   2.788  11.005
85366W        W44803  44.888  40.313   4.163
85367W        W44804  25.124  42.396   0.859
85368W        W44805  15.809  16.727   1.334
85369W        W44806  37.354   0.291  13.045
85370W        W44807  34.457  36.557   1.810
85371W        W44808  15.279  19.546  12.874
85372W        W44809  31.923  28.166   3.663
85373W        W44810  31.070  24.978  13.049
85374W        W44811  11.309  16.198  11.377
85375W        W44812  40.348  18.698   1.235
85376W        W44813  39.825  10.798  10.561
85377W        W44814  36.097  10.644  12.536
85378W        W44815  29.443   3.748  12.466
85379W        W44816   0.764  41.970   3.827
85380W        W44817  40.413  44.977  11.399
85381W        W44818  17.164  43.395  14.394
85382W        W44819   0.767   9.742  12.044
85383W        W44820   2.285   1.252   1.271
85384W        W44821  19.176  35.018  14.303
85385W        W44822  20.589  28.470  13.547
85386W        W44823  33.058  33.468  10.918
85387W        W44824   1.949  35.005   2.410
85388W        W44825   5.431   9.721  11.863
85389W        W44826   1.395  44.923  13.420
85390W        W44827  44.951  28.651  10.923
85391W        W44828   2.359  18.581  13.042
85392W        W44829  21.148  13.343   4.224
85393W        W44830   5.328  34.480  13.350
85394W        W44831  17.209  41.792   2.357
85395W        W44832   6.717  39.523   1.897
85396W        W44833  11.823  10.680   3.696
85397W        W44834  33.589  37.548  14.387
85398W        W44835  11.232  33.580   2.241
85399W        W44836  28.098  33.517  13.845
85400W        W44837   1.455  13.211   4.165
85401W        W44838   1.451  11.187   3.645
85402W        W44839  10.745  25.507   0.458
85403W        W44840   4.437  44.984  11.867
85404W        W44841   1.915  22.224   3.723
85405W        W44842  44.805   0.482  11.458
85406W        W44843  25.156  44.332  11.971
85407W        W44844  34.986   9.673  13.516
85408W        W44845  36.422  34.399  10.041
85409W        W44846  35.101   1.760   2.359
85410W        W44847   9.806   7.784   4.682
85411W        W44848  24.164  28.517  12.966
85412W        W44849  39.486  21.599  12.371
85413W        W44850  41.906   7.829  14.282
85414W        W44851  36.470  11.699  14.825
85415W        W44852  40.993  19.172   4.278
85416W        W44853  18.733  23.538   1.355
85417W        W44854  31.629  23.214  14.772
85418W        W44855   1.349  44.878   2.735
85419W        W44856  39.461  23.070   2.219
85420W        W44857  30.115  14.271  11.077
85421W        W44858   5.920  15.756  14.284
85422W        W44859   3.774   4.287  14.009
85423W        W44860  26.532  42.332  13.016
85424W        W44861  10.819  20.128   3.371
85425W        W44862  22.076  40.438   1.400
85426W        W44863  19.562  38.352   3.145
85427W        W44864  14.225  37.008  13.372
85428W        W44865  43.417   9.716   2.801
85429W        W44866  16.271  26.461  13.443
85430W        W44867   9.174  19.656  11.997
85431W        W44868   3.377  23.542   4.235
85432W        W44869  39.389   1.831   3.203
85433W        W44870  35.007  27.658   1.404
85434W        W44871   2.901  37.045  12.375
85435W        W44872  16.709   3.297  11.467
85436W        W44873  42.853  23.596   0.885
85437W        W44874  33.401  15.268   1.334
85438W        W44875  10.257  26.993  12.369
85439W        W44876  11.836  26.596   3.665
85440W        W44877  38.519  33.095  12.565
85441W        W44878   8.893  24.514   3.270
85442W        W44879  17.585  24.198   4.274
85443W        W44880  29.496  38.007   2.729
85444W        W44881   0.287  16.133   2.329
85445W        W44882   1.894  40.029   1.910
85446W        W44883  43.958  42.285  11.975
85447W        W44884   9.705  31.933  12.868
85448W        W44885  30.968  34.101  11.400
85449W        W44886  41.407  25.075  10.959
85450W        W44887  43.911  20.621  13.907
85451W        W44888   4.880  37.072  10.922
85452W        W44889  34.494  15.766  10.498
85453W        W44890  26.976  44.754   1.376
85454W        W44891  39.526   9.793  11.555
85455W        W44892   8.292  14.776   4.793
85456W        W44893  18.287  31.565  10.453
85457W        W44894  16.741   3.263  13.523
85458W        W44895  20.272   4.923  10.518
85459W        W44896  29.098  36.583  14.512
85460W        W44897  39.552   2.420  13.005
85461W        W44898  14.601  38.514  13.494
85462W        W44899  18.733   5.269   2.849
85463W        W44900  42.370  23.580   1.883
85464W        W44901  14.137  37.884   1.701
85465W        W44902  37.011  42.845  13.878
85466W        W44903   0.829  14.236   5.102
85467W        W44904   5.231  23.597  13.819
85468W        W44905  26.585  27.593   4.762
85469W        W44906  26.184  17.103   3.218
85470W        W44907  24.657   9.270   1.830
85471W        W44908  13.274  13.212   2.339
85472W        W44909  35.088  14.819  13.055
85473W        W44910  21.201   8.240   0.862
85474W        W44911   4.940  26.610  11.873
85475W        W44912  19.668  43.501  14.984
85476W        W44913  37.493  44.270   0.305
85477W        W44914  40.874  40.940   2.372
85478W        W44915  24.150  17.771  12.370
85479W        W44916  37.031  37.458   2.340
85480W        W44917  19.676  41.335  14.515
85481W        W44918  30.597  25.091  11.595
85482W        W44919  22.196  10.659  13.489
85483W        W44920   3.266   1.237   1.770
85484W        W44921   3.351  22.164  10.410
85485W        W44922  17.107   2.471  11.604
85486W        W44923  37.472  30.137  11.951
85487W        W44924  13.134   3.726   2.278
85488W        W44925  37.452  11.280   0.965
85489W        W44926  39.064  43.993   3.841
85490W        W44927   7.202  37.461   0.865
85491W        W44928   4.735  35.444  13.868
85492W        W44929  39.988  10.701  10.924
85493W        W44930  20.704  38.389  14.927
85494W        W44931  20.076   4.361  12.969
85495W        W44932  37.875   0.359  10.412
85496W        W44933  28.660  43.316   0.305
85497W        W44934  39.322  11.737  14.476
85498W        W44935  41.870  21.757  13.924
85499W        W44936  16.084  38.548   1.246
85500W        W44937  12.360   3.390  14.505
85501W        W44938  19.682  38.977  13.821
85502W        W44939  34.949   4.446   2.761
85503W        W44940  25.047  38.076   4.122
85504W        W44941  28.038  27.148   0.253
85505W        W44942  26.124  29.175  11.124
85506W        W44943  43.477  33.445   1.914
85507W        W44944  19.732  17.141  13.030
85508W        W44945  43.865  11.164   1.306
85509W        W44946  17.654  30.091  14.295
85510W        W44947  24.664   7.671  14.892
85511W        W44948  39.923  25.210  13.866
85512W        W44949   5.269  37.844  13.030
85513W        W44950   9.351  19.576  12.372
85514W        W44951   2.432  12.691   2.227
85515W        W44952  32.438  26.583  13.495
85516W        W44953  11.281  43.838   2.201
85517W        W44954  25.066  14.647   3.229
85518W        W44955   0.488  30.475  12.066
85519W        W44956  19.749  30.430   0.352
85520W        W44957  29.959  31.115  14.937
85521W        W44958   3.366   7.740   4.636
85522W        W44959  18.142  31.913  11.977
85523W        W44960   2.747  32.991  12.060
85524W        W44961  35.011   7.862  13.956
85525W        W44962  18.697   3.807  11.025
85526W        W44963   5.294  24.992   4.288
85527W        W44964  19.656  26.660  14.781
85528W        W44965  22.682  42.018   4.338
85529W        W44966   6.715  29.430  12.034
85530W        W44967  42.962  22.669   1.856
85531W        W44968   4.865  34.499  13.508
85532W        W44969  42.450  17.561  14.455
85533W        W44970  39.926   7.248   0.835
85534W        W44971  13.700  44.903  14.909
85535W        W44972  26.181  37.028   1.311
85536W        W44973  20.745  28.118   4.709
85537W        W44974   1.827  33.090   2.796
85538W        W44975  30.045  31.451   3.305
85539W        W44976  13.127  37.007   3.842
85540W        W44977  30.912  27.153  13.846
85541W        W44978  32.481  19.127   0.873
85542W        W44979  10.855  25.534   3.150
85543W        W44980  23.585  43.488  14.428
85544W        W44981   7.812  33.392  14.890
85545W        W44982  13.839  25.095   3.258
85546W        W44983  15.309  29.986   2.887
85547W        W44984  25.097  31.089  10.472
85548W        W44985   5.347  12.203  10.059
85549W        W44986  14.272  30.978   2.354
85550W        W44987   3.457  39.514  14.432
85551W        W44988  21.527  33.498   2.348
85552W        W44989  11.667   9.692  10.428
85553W        W44990   7.669  26.142   0.423
85554W        W44991   2.302  24.017  10.088
85555W        W44992  11.755  15.589   4.191
85556W        W44993   6.684  31.055   2.304
85557W        W44994  14.714   0.835  13.060
85558W        W44995  39.045   8.228  12.995
85559W        W44996   6.307  33.996  12.579
85560W        W44997  11.814  42.428  13.434
85561W        W44998   6.711  10.857   3.324
85562W        W44999  20.732  13.674  11.029
85563W        W45000  43.964  43.975  14.981
85564W        W45001   1.934  28.630   1.852
85565W        W45002  37.046  38.075  12.547
85566W        W45003  39.507  37.851  14.504
85567W        W45004  15.809   7.272  10.636
85568W        W45005  29.633  36.392   1.826
85569W        W45006  35.505   8.804   2.264
85570W        W45007  14.327  26.646  12.068
85571W        W45008  17.219  28.054   1.254
85572W        W45009   5.697  26.634   4.757
85573W        W45010   9.290  40.049   2.292
85574W        W45011  21.682  26.692   3.731
85575W        W45012  19.732  20.678  14.279
85576W        W45013  27.558  39.543   3.191
85577W        W45014  43.931  11.244   4.289
85578W        W45015  24.221  15.206  12.079
85579W        W45016   7.413  22.049  14.480
85580W        W45017   9.650  22.114   1.245
85581W        W45018  36.384  34.432   1.360
85582W        W45019  14.811   2.763  12.569
85583W        W45020  43.802  32.039   1.857
85584W        W45021  25.070  24.219   1.869
85585W        W45022  31.080   4.237   2.214
85586W        W45023  42.931  24.213  11.857
85587W        W45024  42.514  16.632  14.371
85588W        W45025  15.685   1.294   2.216
85589W        W45026  37.493  24.027  11.863
85590W        W45027   4.210  38.493  14.973
85591W        W45028   5.693  13.307   2.806
85592W        W45029   1.351  28.090   2.747
85593W        W45030  44.778  42.933  11.968
85594W        W45031  41.358   2.461  11.519
85595W        W45032  19.636   6.885   0.856
85596W        W45033  32.001   3.291  13.988
85597W        W45034  10.274  30.444  12.949
85598W        W45035  10.784   4.776   0.478
85599W        W45036  25.980  33.090  14.310
85600W        W45037   9.299  20.594  11.528
85601W        W45038   4.920   8.822   2.840
85602W        W45039  40.386  30.112   1.829
85603W        W45040   2.353  20.560   4.132
85604W        W45041  32.439  17.631  12.562
85605W        W45042  36.360   8.388   1.261
85606W        W45043  38.350  25.635  12.005
85607W        W45044   0.746  30.071   4.192
85608W        W45045  25.602  36.470   9.998
85609W        W45046   9.287  37.433   2.895
85610W        W45047   8.726   6.752  12.908
85611W        W45048  33.883  24.067  14.863
85612W        W45049   8.699  14.752   1.309
85613W        W45050  38.024  20.043  12.479
85614W        W45051  21.692  32.488   4.208
85615W        W45052  15.736   3.727   3.213
85616W        W45053  43.426   6.251  11.596
85617W        W45054  37.891  17.734   1.432
85618W        W45055  20.106  10.755  11.936
85619W        W45056  18.615  17.199   1.413
85620W        W45057   3.268   5.379  10.955
85621W        W45058  36.983   0.295   3.743
85622W        W45059  10.749  21.530  10.513
85623W        W45060  21.258  37.856   4.622
85624W        W45061  44.776  32.999  13.439
85625W        W45062  38.538   7.188  10.617
85626W        W45063  19.697  17.180   2.820
85627W        W45064  20.183  12.817   4.204
85628W        W45065  28.669  18.241   1.717
85629W        W45066  41.470  42.939  12.412
85630W        W45067   5.718  28.494  11.858
85631W        W45068   8.797  27.072  10.149
85632W        W45069  41.842  15.646  10.012
85633W        W45070   0.813  42.885  14.431
85634W        W45071   2.448  27.029   3.315
85635W        W45072  29.985  22.517   1.905
85636W        W45073   5.893   1.412   4.298
85637W        W45074  19.732  13.312  13.490
85638W        W45075   6.373  16.092   1.858
85639W        W45076   8.793  30.026  14.811
85640W        W45077  11.770   2.751   4.169
85641W        W45078  35.057  43.953   2.829
85642W        W45079  11.142   6.222  10.532
85643W        W45080  32.035  36.067   3.723
85644W        W45081   2.262  23.503  14.836
85645W        W45082  34.456   2.934   4.648
85646W        W45083  17.100   0.493   1.390
85647W        W45084   0.891   7.183  11.387
85648W        W45085   5.784  40.843  13.057
85649W        W45086  30.596  25.654  13.351
85650W        W45087   6.911  11.346   2.383
85651W        W45088  44.988   2.738  12.083
85652W        W45089  16.307  30.454   0.479
85653W        W45090  15.160  33.060  12.360
85654W        W45091  38.952   4.940   2.676
85655W        W45092   7.326  30.923   4.275
85656W        W45093  23.609  12.643   4.344
85657W        W45094  30.969   0.279  12.826
85658W        W45095  16.776  32.462   4.257
85659W        W45096  40.312  33.534   3.331
85660W        W45097  22.731  12.276   4.205
85661W        W45098  15.706  21.641   4.663
85662W        W45099  17.154   0.870  10.447
85663W        W45100   7.404   4.916  14.511
85664W        W45101  31.504  15.319  10.986
85665W        W45102  23.506  31.472  13.902
85666W        W45103  21.620  27.996   1.933
85667W        W45104  24.013  33.929  12.077
85668W        W45105  13.658  17.660  13.855
85669W        W45106  28.942  11.373   3.271
85670W        W45107  24.513  11.200  13.953
85671W        W45108  10.249  18.675  12.980
85672W        W45109  32.612   1.412   2.318
85673W        W45110  14.199   6.900   3.740
85674W        W45111  34.989  19.694   3.861
85675W        W45112  13.328  19.268  13.432
85676W        W45113  41.962  42.376   4.124
85677W        W45114   8.821  31.101   1.281
85678W        W45115  43.487  32.543  14.462
85679W        W45116  16.314  42.798  14.873
85680W        W45117  18.066  41.866   2.858
85681W        W45118  36.409  31.551   1.911
85682W        W45119   1.916  34.979  14.807
85683W        W45120  12.329  11.140  10.489
85684W        W45121   1.430   9.808   0.844
85685W        W45122  39.952  26.693  10.891
85686W        W45123  30.051   7.175   4.292
85687W        W45124   2.414  30.950  13.383
85688W        W45125  33.424   9.727  12.063
85689W        W45126  21.235  36.398  12.915
85690W        W45127  16.608  36.860  10.483
85691W        W45128  18.056  14.130   2.246
85692W        W45129   9.716  26.483   0.249
85693W        W45130  30.019  33.951   2.329
85694W        W45131  11.230   3.356  11.554
85695W        W45132  26.485  23.731  11.429
85696W        W45133  35.488   7.378  13.060
85697W        W45134  44.402   0.400   0.379
85698W        W45135  32.511  18.743  14.807
85699W        W45136  19.161  39.373   2.730
85700W        W45137  28.132  15.228  13.484
85701W        W45138  29.496   8.192  13.934
85702W        W45139  42.868  35.584  14.406
85703W        W45140  42.500  43.825   0.889
85704W        W45141   6.919  24.556  11.479
85705W        W45142   6.374  14.775  10.473
85706W        W45143  15.088   4.848  12.560
85707W        W45144  30.130  25.030  13.328
85708W        W45145  21.028  38.920   5.247
85709W        W45146  37.086  12.778   1.915
85710W        W45147  31.641  18.719   2.724
85711W        W45148  31.531   4.260   3.188
85712W        W45149  40.803   9.801  11.046
85713W        W45150  12.288   8.343   2.294
85714W        W45151  39.382  14.099  11.917
85715W        W45152   7.891  40.416   0.775
85716W        W45153  41.992   0.265   1.351
85717W        W45154  33.433  42.030  10.537
85718W        W45155   2.854  35.592   0.830
85719W        W45156  27.675  13.620  11.384
85720W        W45157  23.577   3.285   4.126
85721W        W45158  16.659  11.851  12.831
85722W        W45159   3.819  33.112   3.665
85723W        W45160   3.405  13.762   0.915
85724W        W45161  11.729   2.453  13.841
85725W        W45162  36.538  44.300   5.322
85726W        W45163  41.373  18.069  14.443
85727W        W45164  42.010  13.294   3.738
85728W        W45165  11.192  19.632  10.930
85729W        W45166  14.622  36.378  14.428
85730W        W45167  17.593  35.929  14.516
85731W        W45168  30.024  17.106  11.990
85732W        W45169  39.334   6.696   2.864
85733W        W45170  38.375   5.230   1.703
85734W        W45171  22.723   8.282  12.561
85735W        W45172   1.805  29.084   0.402
85736W        W45173  19.072  19.271   3.153
85737W        W45174  43.797  42.916   0.405
85738W        W45175  41.036  17.095   4.734
85739W        W45176  44.349   0.906  14.989
85740W        W45177  25.665  40.893   5.304
85741W        W45178  43.907  27.481   2.878
85742W        W45179   9.159  36.508   2.261
85743W        W45180  39.883  37.380  11.952
85744W        W45181  23.555   6.367   1.750
85745W        W45182  20.768   5.360  14.413
85746W        W45183  28.658  23.600   0.336
85747W        W45184  37.931  13.743  10.954
85748W        W45185   1.787  13.702   0.753
85749W        W45186  36.920  41.837  13.830
85750W        W45187  41.919  31.926   4.790
85751W        W45188  14.637  43.842  11.991
85752W        W45189  13.113   1.920  14.830
85753W        W45190   9.740  12.216  13.811
85754W        W45191  29.123  42.924  13.500
85755W        W45192   4.758  37.515  13.049
85756W        W45193  15.762  39.520   0.315
85757W        W45194  19.773  34.466   0.884
85758W        W45195  29.036  22.118  13.990
85759W        W45196  35.404   2.312  10.980
85760W        W45197   1.732  13.133  14.990
85761W        W45198  17.213  21.671   0.826
85762W        W45199  29.563  23.489   0.760
85763W        W45200  28.665   2.304   4.137
85764W        W45201  33.013  14.099   4.810
85765W        W45202  40.335  40.533  12.852
85766W        W45203  44.914  43.885  14.501
85767W        W45204  29.138  34.541   3.208
85768W        W45205  12.645  26.953  11.089
85769W        W45206  12.837  10.817  11.879
85770W        W45207  16.125   3.268   4.612
85771W        W45208   4.932  19.563  12.009
85772W        W45209  17.556  44.845   4.727
85773W        W45210  34.370  14.301  13.000
85774W        W45211  14.595  34.504   2.396
85775W        W45212  31.505  44.826   1.916
85776W        W45213  41.487   1.868  14.881
85777W        W45214  42.993  16.170  13.923
85778W        W45215   1.863  39.951   4.131
85779W        W45216   8.199  22.698  12.485
85780W        W45217  44.946  29.922   2.361
85781W        W45218  19.189   1.377  12.344
85782W        W45219  40.470   8.336  10.504
85783W        W45220  18.730  42.798   2.692
85784W        W45221  13.662  31.003  14.290
85785W        W45222  16.584  44.485  10.411
85786W        W45223  35.976  10.764   4.709
85787W        W45224   3.384   7.730   0.326
85788W        W45225  23.987  17.127  14.387
85789W        W45226  22.704  38.833   2.826
85790W        W45227   1.408  11.802  12.993
85791W        W45228  30.456  23.194   3.799
85792W        W45229  14.258  11.252  10.582
85793W        W45230  33.447   6.741  11.479
85794W        W45231  39.963  36.355  13.794
85795W        W45232  14.761  13.140  11.512
85796W        W45233  27.682   9.852  11.971
85797W        W45234  41.906   9.293   3.199
85798W        W45235  20.682  15.155  14.002
85799W        W45236  16.162  35.016  12.074
85800W        W45237  42.292  22.186  10.923
85801W        W45238  14.102   3.900  12.343
85802W        W45239  25.206  37.369   9.566
85803W        W45240  34.473   3.373  13.504
85804W        W45241   2.723   0.368   4.173
85805W        W45242  42.483  16.772   1.926
85806W        W45243  40.848  34.024  11.009
85807W        W45244  11.779  37.475   0.472
85808W        W45245  23.682  42.925  10.472
85809W        W45246   5.198   1.961   3.313
85810W        W45247   5.212  36.458   0.429
85811W        W45248  16.163  44.940   9.486
85812W        W45249  16.238  24.575  13.890
85813W        W45250  34.435  20.176  14.331
85814W        W45251  41.789  22.574   3.210
85815W        W45252  17.750  44.784   4.266
85816W        W45253   5.910  18.666   4.759
85817W        W45254   3.416   4.210   4.729
85818W        W45255   8.257  28.054  14.995
85819W        W45256  17.202  26.684   0.922
85820W        W45257  29.936  31.911  11.499
85821W        W45258   8.381  30.455  11.119
85822W        W45259   2.277  28.180   4.703
85823W        W45260  38.962  39.060  10.464
85824W        W45261  25.199  12.161  12.567
85825W        W45262  21.224  37.522   1.223
85826W        W45263  22.743  16.164   4.638
85827W        W45264   9.262  15.305  12.917
85828W        W45265  23.024  25.701  11.606
85829W        W45266  28.465   2.237   2.243
85830W        W45267  25.154   8.292  12.971
85831W        W45268   7.740  22.177   1.227
85832W        W45269  31.432  23.224   0.787
85833W        W45270   6.789  40.540   0.730
85834W        W45271   3.734  41.490  13.859
85835W        W45272  26.008  36.378  11.016
85836W        W45273  15.675  29.509   2.861
85837W        W45274  17.748   9.227   1.375
85838W        W45275  39.863  23.010  12.533
85839W        W45276  25.045  42.846  11.598
85840W        W45277  20.046  18.197  12.041
85841W        W45278  34.926  30.452   2.237
85842W        W45279  31.553   4.210  10.409
85843W        W45280  26.464  34.952   1.726
85844W        W45281  29.023  32.024   4.141
85845W        W45282   9.233  17.692  11.065
85846W        W45283   8.721  27.676   4.253
85847W        W45284  38.966  11.135   9.929
85848W        W45285  34.886  36.434  11.572
85849W        W45286  20.179  27.452   0.430
85850W        W45287  37.005  28.599  10.584
85851W        W45288  27.965   8.776   2.390
85852W        W45289  31.514  29.924   3.349
85853W        W45290  36.071  31.480   4.208
85854W        W45291  22.525  29.985   4.796
85855W        W45292   2.951  17.649   4.273
85856W        W45293  34.931  23.049   3.366
85857W        W45294  43.898   5.404   1.376
85858W        W45295  32.620  22.648   4.657
85859W        W45296  26.660  28.487  12.948
85860W        W45297  37.858  39.948   1.721
85861W        W45298  43.823  18.170   4.768
85862W        W45299  25.994  21.583  10.929
85863W        W45300  35.901  43.903  10.444
85864W        W45301  35.509  44.503   0.949
85865W        W45302   4.296  12.238  12.462
85866W        W45303   8.799  31.448  12.841
85867W        W45304  37.850  24.188   2.331
85868W        W45305  43.001  17.600  13.940
85869W        W45306   6.727  27.550   5.166
85870W        W45307  26.506  11.333  13.428
85871W        W45308  38.972   5.712  12.478
85872W        W45309  30.026  11.725   0.844
85873W        W45310  24.569  16.585  12.830
85874W        W45311  27.109  44.476  12.912
85875W        W45312  13.700  43.000   2.747
85876W        W45313  15.293  40.022   2.756
85877W        W45314   7.761  26.979   3.792
85878W        W45315  18.278  31.595   1.369
85879W        W45316  29.001   6.378  13.372
85880W        W45317  13.727  18.082  12.895
85881W        W45318  38.538  22.148   3.644
85882W        W45319   0.426   6.240   1.216
85883W        W45320  27.065   3.343   1.452
85884W        W45321  24.210  43.412   4.328
85885W        W45322  41.429  11.198   4.294
85886W        W45323  44.922   8.261   1.360
85887W        W45324  18.668  26.134   2.416
85888W        W45325   9.152  12.316  10.641
85889W        W45326  41.815  22.714   5.134
85890W        W45327  21.662  44.476   4.688
85891W        W45328   6.329  15.612  12.966
85892W        W45329   0.942   5.371   4.612
85893W        W45330  30.058  31.536  12.440
85894W        W45331  18.259  23.081  13.308
85895W        W45332   1.810  42.518   4.245
85896W        W45333  22.037  22.647   3.340
85897W        W45334  18.202  19.104   0.767
85898W        W45335  32.617  10.687   1.417
85899W        W45336  22.112   8.401  11.959
85900W        W45337  39.968  28.933   2.730
85901W        W45338  28.929  31.998   2.669
85902W        W45339  16.583   8.825   2.358
85903W        W45340  25.148  19.194   0.431
85904W        W45341  30.025  26.626   1.396
85905W        W45342  37.999  40.457  13.456
85906W        W45343  25.628  30.924   2.187
85907W        W45344  29.454  36.527   3.652
85908W        W45345  16.208  44.934  14.465
85909W        W45346  35.994  35.926  12.839
85910W        W45347   1.466  40.339   3.182
85911W        W45348  23.186  18.266  14.796
85912W        W45349  43.009  43.892  10.111
85913W        W45350  16.123  43.943   0.849
85914W        W45351   7.894  28.435   3.691
85915W        W45352  31.981  26.597   4.217
85916W        W45353  33.116  44.923  11.971
85917W        W45354   1.286  16.722   2.839
85918W        W45355  23.021  24.182   5.580
85919W        W45356   1.315   2.388  12.093
85920W        W45357  35.408  40.974   4.327
85921W        W45358  26.957   2.771   4.318
85922W        W45359  14.275  31.009  11.446
85923W        W45360  27.037  33.022   3.241
85924W        W45361  14.824  21.673   1.357
85925W        W45362  19.109  16.261   2.394
85926W        W45363  43.447   3.740   2.880
85927W        W45364  22.517  24.076   1.767
85928W        W45365  18.203  41.967   3.231
85929W        W45366  29.499   4.244   1.764
85930W        W45367  10.845  39.475   1.287
85931W        W45368  18.622  23.143  14.873
85932W        W45369  16.571  27.168   3.743
85933W        W45370  20.669   5.739   0.386
85934W        W45371  42.794   6.903   1.276
85935W        W45372  41.383  24.611   3.836
85936W        W45373   6.899  40.834  14.770
85937W        W45374  31.019  37.506  14.975
85938W        W45375  20.055  16.787  13.501
85939W        W45376  26.136  14.648   1.747
85940W        W45377  19.066  32.926  13.332
85941W        W45378   6.765  13.723   2.853
85942W        W45379  38.384  15.599   1.334
85943W        W45380  20.131  43.844   1.866
85944W        W45381  31.599  13.826   0.383
85945W        W45382   1.238  33.603   4.146
85946W        W45383  38.037  33.409   1.785
85947W        W45384  18.588  20.683   0.761
85948W        W45385  10.354  19.771   0.253
85949W        W45386  37.944  25.034   1.282
85950W        W45387  14.694   9.348  11.052
85951W        W45388  18.635  19.727  11.518
85952W        W45389  18.291  38.859   2.362
85953W        W45390  21.167  11.724  12.832
85954W        W45391  43.772   2.883  10.516
85955W        W45392  35.470   6.385  14.487
85956W        W45393  28.063  10.642   5.709
85957W        W45394   3.372  32.933   2.800
85958W        W45395   0.881  34.899  14.465
85959W        W45396  32.129   0.807  13.315
85960W        W45397  40.525  25.075   1.834
85961W        W45398   6.868   6.727   3.638
85962W        W45399   7.882  38.400  12.393
85963W        W45400  13.122  33.512   1.902
85964W        W45401  26.474  40.461   2.381
85965W        W45402  15.747  44.395  13.010
85966W        W45403   8.205  44.346  11.898
85967W        W45404  37.421  36.411  13.005
85968W        W45405   3.227  22.509   5.189
85969W        W45406   6.342  36.489  14.937
85970W        W45407  21.559   4.278  10.982
85971W        W45408  40.311  27.667   2.267
85972W        W45409   2.469  20.204  14.413
85973W        W45410  42.017  13.310  13.919
85974W        W45411  18.196   2.410   1.712
85975W        W45412   4.918   5.348  10.633
85976W        W45413  42.324  31.470   3.685
85977W        W45414  18.734   9.273   1.702
85978W        W45415  29.940  10.340   3.762
85979W        W45416  16.785  37.962  14.961
85980W        W45417   3.878  35.063  14.950
85981W        W45418  32.998   3.954   1.698
85982W        W45419  28.166  30.517   4.643
85983W        W45420  38.955  32.948  12.095
85984W        W45421  21.755  43.789  11.513
85985W        W45422   3.721  33.056  12.080
85986W        W45423  22.650  30.438  12.897
85987W        W45424  11.688   5.198   1.260
85988W        W45425   8.688  42.981   2.381
85989W        W45426  39.994   9.751  11.456
85990W        W45427  28.535  12.798   0.446
85991W        W45428   5.202  38.889  14.307
85992W        W45429  28.023   3.377  10.616
85993W        W45430   3.378  12.712  11.466
85994W        W45431   7.705  10.671   2.730
85995W        W45432  20.166  41.479   1.220
85996W        W45433  33.999  24.077  10.952
85997W        W45434  15.260  36.892   4.613
85998W        W45435  25.975  20.546  13.825
85999W        W45436  14.237  21.548  13.960
86000W        W45437  21.718   6.775  12.833
86001W        W45438   9.355  42.981   2.205
86002W        W45439  21.023  12.689  12.456
86003W        W45440  19.188   0.359  13.851
86004W        W45441  25.524  44.414  14.458
86005W        W45442   2.928  24.992   1.883
86006W        W45443  26.108   9.252   2.714
86007W        W45444   5.872  20.538  12.945
86008W        W45445  10.332  34.526   0.914
86009W        W45446  21.160  39.427  12.872
86010W        W45447  16.135  43.400   2.892
86011W        W45448   7.280  19.201  11.584
86012W        W45449  17.175  12.304   2.804
86013W        W45450  25.057  39.922  11.942
86014W        W45451  39.820  26.514  14.463
86015W        W45452  14.727  32.997   1.332
86016W        W45453  41.787  39.028   4.322
86017W        W45454  30.151  34.607   1.899
86018W        W45455  17.616  13.234   3.644
86019W        W45456   5.795  41.970   1.247
86020W        W45457  31.558  13.800  11.513
86021W        W45458  28.581  15.196  13.504
86022W        W45459   0.828  34.487   4.136
86023W        W45460   5.736  22.128   3.330
86024W        W45461  23.101  36.563  13.930
86025W        W45462  32.989  24.196   9.950
86026W        W45463  35.473  34.955   2.320
86027W        W45464  39.560  42.987  11.122
86028W        W45465  34.469  21.046  13.387
86029W        W45466  23.103  14.675  13.520
86030W        W45467   5.194  14.256   3.854
86031W        W45468  38.382  24.665   0.298
86032W        W45469   9.749  35.072   0.315
86033W        W45470  19.644   1.938   4.771
86034W        W45471   7.707  17.155  14.008
86035W        W45472  40.931   8.240  11.909
86036W        W45473  41.010  37.523   0.827
86037W        W45474  27.678  26.037  11.985
86038W        W45475  44.872  15.292   1.266
86039W        W45476  24.583  20.571  13.314
86040W        W45477  10.661  21.534   1.322
86041W        W45478  18.782  32.031  10.604
86042W        W45479   3.261  31.934  14.955
86043W        W45480  21.069  27.165   1.889
86044W        W45481  42.308  43.302   4.131
86045W        W45482  40.386  21.179   2.335
86046W        W45483  12.176  31.935  12.072
86047W        W45484   3.862  36.362  14.937
86048W        W45485   7.186  17.228  14.372
86049W        W45486  41.465  39.557   0.891
86050W        W45487   2.876  31.966  11.530
86051W        W45488  26.951  12.140   3.378
86052W        W45489   5.821  22.690   4.174
86053W        W45490   1.254  37.499  11.119
86054W        W45491  27.476  21.103  12.960
86055W        W45492  22.565   3.331   1.405
86056W        W45493  33.389  25.528  14.975
86057W        W45494  30.469  10.247   1.856
86058W        W45495  39.557  39.915  12.987
86059W        W45496  41.455  32.912   2.188
86060W        W45497  42.821  43.336   1.745
86061W        W45498   8.890  21.645  13.354
86062W        W45499  22.724  13.744   2.393
86063W        W45500  37.514  22.177  14.008
86064W        W45501  22.167  39.906   4.151
86065W        W45502  13.335  44.318   0.799
86066W        W45503  12.766  43.339   3.739
86067W        W45504  21.551   1.329  11.559
86068W        W45505  41.328  27.015   0.730
86069W        W45506  27.512  26.567  12.494
86070W        W45507  43.807  35.963   3.160
86071W        W45508  39.047  13.179  11.489
86072W        W45509   4.353   9.815   3.175
86073W        W45510   8.716  21.231  11.470
86074W        W45511  11.334  14.165   3.854
86075W        W45512  23.050  19.273   3.630
86076W        W45513  29.095  16.236  13.986
86077W        W45514  26.480  37.913   5.648
86078W        W45515   9.328  15.753  13.838
86079W        W45516  11.323   9.340  10.976
86080W        W45517  10.300  27.985  11.602
86081W        W45518  29.463  41.409  10.518
86082W        W45519  43.812  16.613  10.965
86083W        W45520  25.115  10.367   4.617
86084W        W45521   3.360  28.015   1.784
86085W        W45522  44.488  26.533   5.112
86086W        W45523  19.735  11.184   0.926
86087W        W45524  27.683  34.933  14.032
86088W        W45525  23.556  23.701   0.876
86089W        W45526   4.732  25.152   5.296
86090W        W45527  15.263  39.457  10.975
86091W        W45528  35.589   5.903   4.319
86092W        W45529  17.555   8.285   4.256
86093W        W45530  30.425  33.566  11.489
86094W        W45531  14.262  24.058   5.261
86095W        W45532  38.444  19.608  14.774
86096W        W45533  26.491   3.888  10.926
86097W        W45534   0.960  33.489   1.268
86098W        W45535  38.017   8.325  10.499
86099W        W45536  20.255  24.025  14.506
86100W        W45537  39.351   8.843   3.790
86101W        W45538  43.386  44.283  11.894
86102W        W45539  29.161   4.749   1.852
86103W        W45540   7.358  33.417   0.331
86104W        W45541   9.831  12.778  13.005
86105W        W45542  30.120  27.635  12.525
86106W        W45543   3.457  17.164  14.995
86107W        W45544   6.305  12.738  11.463
86108W        W45545  21.118  14.710   4.225
86109W        W45546  27.468  28.992   2.345
86110W        W45547  22.709  28.501   1.437
86111W        W45548   0.315   7.706  11.501
86112W        W45549  13.325  20.649  13.527
86113W        W45550  26.701  31.005   3.348
86114W        W45551  42.827  18.672   0.275
86115W        W45552  15.672  25.062  14.956
86116W        W45553  12.724   0.298   2.344
86117W        W45554  41.947  40.469  12.939
86118W        W45555  23.167  37.338  14.959
86119W        W45556  25.002  44.787  13.799
86120W        W45557  22.646   7.279   5.297
86121W        W45558  38.449   6.307   3.851
86122W        W45559   2.332  26.123   5.116
86123W        W45560  31.960  15.231  13.534
86124W        W45561  42.987  33.541  10.012
86125W        W45562  27.573  10.207  11.992
86126W        W45563  15.641  38.007   4.354
86127W        W45564  10.348   4.296  13.888
86128W        W45565  30.540  28.486  11.472
86129W        W45566  16.108  44.440  10.488
86130W        W45567  25.141  31.622  12.851
86131W        W45568  39.951  34.406   4.773
86132W        W45569  10.865  42.904   3.146
86133W        W45570  39.012  25.641  10.426
86134W        W45571  43.359  11.858  12.526
86135W        W45572  22.180   9.330  13.845
86136W        W45573  15.221   5.931   3.788
86137W        W45574  12.272   6.783  13.412
86138W        W45575  41.994   6.738  11.459
86139W        W45576  37.934  32.473   3.374
86140W        W45577  21.530  28.491   1.760
86141W        W45578  29.622  19.705  13.511
86142W        W45579  13.774   3.294   2.723
86143W        W45580  13.238  32.088   1.935
86144W        W45581  17.294  28.999  13.942
86145W        W45582  29.104  32.986   4.141
86146W        W45583  16.093   1.347  13.400
86147W        W45584   6.768   3.794  10.586
86148W        W45585  19.675   2.297  10.998
86149W        W45586  29.997  17.557  12.553
86150W        W45587  44.352  23.221   4.730
86151W        W45588   1.388  14.280  12.834
86152W        W45589  37.481  37.845   2.755
86153W        W45590  17.233  13.641  13.905
86154W        W45591  26.509   0.419  14.900
86155W        W45592  14.130  28.662  12.957
86156W        W45593  16.580  44.929   0.448
86157W        W45594  25.559  13.633   3.268
86158W        W45595  11.642   4.748  14.021
86159W        W45596   3.738   5.807   4.189
86160W        W45597  11.318  39.338   1.695
86161W        W45598  32.072  43.363  12.062
86162W        W45599   5.699   7.811   1.856
86163W        W45600  12.754  31.898   3.767
86164W        W45601   2.964  32.605  13.365
86165W        W45602  29.054  29.472  10.404
86166W        W45603  12.670  32.413  13.872
86167W        W45604   6.873   1.274  12.362
86168W        W45605  39.343  12.320  13.035
86169W        W45606   2.731  40.474   1.326
86170W        W45607  25.004  33.385  13.488
86171W        W45608  35.059  44.881   3.868
86172W        W45609   3.236  29.452  12.411
86173W        W45610   6.791  38.466   3.314
86174W        W45611  25.644  22.659  14.440
86175W        W45612  19.722   7.310   1.895
86176W        W45613  40.541  15.254   0.251
86177W        W45614  22.711  44.007  11.949
86178W        W45615   8.762  26.032   2.706
86179W        W45616  31.948  31.473  12.452
86180W        W45617  12.835  20.204  11.876
86181W        W45618  35.956   4.839   2.666
86182W        W45619  39.408  27.971   4.608
86183W        W45620   7.411  14.222   1.334
86184W        W45621  26.599  25.161  14.402
86185W        W45622   2.893  20.248   1.858
86186W        W45623  37.912  18.686  12.016
86187W        W45624  23.525  15.644   1.713
86188W        W45625  39.549  42.903  12.879
86189W        W45626  42.790   2.757   3.768
86190W        W45627  38.382  21.575  14.008
86191W        W45628  31.941  41.376   1.285
86192W        W45629  44.939  26.079   4.835
86193W        W45630  40.343  40.428  12.462
86194W        W45631  14.294  20.199   0.244
86195W        W45632  29.428  35.434  13.875
86196W        W45633  13.142  33.530  11.396
86197W        W45634  15.737  15.780   9.997
86198W        W45635   6.773   2.734  11.921
86199W        W45636  42.012  42.482  11.505
86200W        W45637  31.119  30.163   0.789
86201W        W45638  33.050  35.502  11.587
86202W        W45639  10.696  14.328   3.697
86203W        W45640  12.184   7.413  14.975
86204W        W45641  33.887  11.861  10.932
86205W        W45642  42.896  44.979   3.331
86206W        W45643   9.392  43.446  14.305
86207W        W45644   4.754  32.085  11.453
86208W        W45645  15.086  41.471  13.890
86209W        W45646  37.555   5.384  14.909
86210W        W45647  12.694   6.295   3.155
86211W        W45648   5.800  30.114   3.270
86212W        W45649  22.577  28.493   3.659
86213W        W45650  20.551   9.820  11.578
86214W        W45651  39.851  16.597  11.556
86215W        W45652  21.259   8.199  14.331
86216W        W45653  18.760   7.212   3.727
86217W        W45654  17.673  39.956  12.905
86218W        W45655  35.596   0.307   0.454
86219W        W45656  15.748  13.132   3.702
86220W        W45657  16.642   6.822  11.455
86221W        W45658  20.218  17.202  13.931
86222W        W45659  13.678  15.578  11.111
86223W        W45660  13.276  16.719   3.827
86224W        W45661  34.915  36.899   0.406
86225W        W45662  11.712  38.407  12.528
86226W        W45663  31.123  25.077   1.370
86227W        W45664   0.427   0.795  13.319
86228W        W45665   8.364  25.691   0.946
86229W        W45666   5.353   0.444   2.838
86230W        W45667  13.249  15.229  10.470
86231W        W45668  27.466  15.202   3.296
86232W        W45669  25.496  42.442  11.436
86233W        W45670  27.027  11.246   1.269
86234W        W45671  35.990  44.260  13.306
86235W        W45672  27.956  26.601   2.314
86236W        W45673  24.650  17.740   2.378
86237W        W45674  28.459   8.810   4.197
86238W        W45675  19.561  34.954   2.243
86239W        W45676  23.006   1.434   0.258
86240W        W45677  29.546  33.092   0.849
86241W        W45678  42.476   0.279   0.909
86242W        W45679  23.106  41.990   5.239
86243W        W45680   7.741  39.942   0.869
86244W        W45681  18.257   7.314   0.301
86245W        W45682  24.007   1.270  14.860
86246W        W45683  43.370  12.688  12.862
86247W        W45684  26.031   8.683   3.634
86248W        W45685  43.303   0.348  10.639
86249W        W45686  12.288  26.105   3.294
86250W        W45687  11.674  19.039  13.315
86251W        W45688  38.538  18.245   0.802
86252W        W45689  43.839   7.687   0.812
86253W        W45690  43.867  18.083  14.293
86254W        W45691   7.722  26.021   3.199
86255W        W45692  27.993  11.707   2.724
86256W        W45693   6.272   2.399  11.048
86257W        W45694   5.744   2.413  14.834
86258W        W45695  37.400  40.425  11.529
86259W        W45696  32.411  25.998  11.119
86260W        W45697  43.361  32.995  11.973
86261W        W45698  17.243  22.575   1.872
86262W        W45699   6.731  28.110  14.798
86263W        W45700  42.823  23.710  10.996
86264W        W45701  13.782  43.764  10.586
86265W        W45702  14.631  39.376  10.947
86266W        W45703  29.513  24.622   5.101
86267W        W45704  42.355   4.892   4.282
86268W        W45705  27.475  20.080   2.417
86269W        W45706   7.787  12.703  11.053
86270W        W45707  21.048  35.057  10.919
86271W        W45708  26.087  40.009  13.904
86272W        W45709  44.898  40.920  12.973
86273W        W45710  37.453  13.318   4.666
86274W        W45711  22.502  20.046   0.852
86275W        W45712  38.972  38.029  13.326
86276W        W45713  16.306   4.268   4.306
86277W        W45714   2.473  42.913  11.401
86278W        W45715  19.546   9.248  13.045
86279W        W45716  44.502  29.089  13.350
86280W        W45717   1.960  26.533   2.783
86281W        W45718  43.371  13.624  14.475
86282W        W45719  33.408  31.996   9.948
86283W        W45720  19.654   2.407   3.820
86284W        W45721  35.392  34.967  14.452
86285W        W45722  26.665  19.578   4.270
86286W        W45723  14.720  43.506  13.808
86287W        W45724   2.268   0.978  10.577
86288W        W45725  22.143  28.069  11.892
86289W        W45726  12.777  41.921  11.590
86290W        W45727  14.785  30.557  10.435
86291W        W45728  10.819   5.305  14.382
86292W        W45729  21.107  12.725   3.197
86293W        W45730   9.270  22.662   0.914
86294W        W45731  28.587  26.658  14.439
86295W        W45732  23.534  32.462   2.805
86296W        W45733  12.760  13.122   3.339
86297W        W45734  17.067  35.492  11.412
86298W        W45735  12.194   6.864  14.322
86299W        W45736   6.375  12.658   4.128
86300W        W45737  17.751   6.762   4.685
86301W        W45738   0.815  11.239   4.138
86302W        W45739  10.653  11.757  11.116
86303W        W45740   3.380  33.531  12.964
86304W        W45741  19.697  15.297  14.415
86305W        W45742  41.488  18.571   2.838
86306W        W45743  34.078  28.612   4.629
86307W        W45744   4.270   0.868  12.872
86308W        W45745  27.447  26.180   9.528
86309W        W45746   2.416   4.729   4.350
86310W        W45747  23.575   9.248   3.643
86311W        W45748  15.111  35.867  11.112
86312W        W45749  14.643  41.968  10.431
86313W        W45750  40.860   8.309   3.209
86314W        W45751   3.755   2.457  14.390
86315W        W45752  36.490  33.532  12.046
86316W        W45753   7.798  19.045   4.643
86317W        W45754  28.465   4.204   0.869
86318W        W45755  40.948  30.976  12.872
86319W        W45756   0.950  16.200  13.533
86320W        W45757  41.845   8.881  12.459
86321W        W45758  27.029   2.230   4.675
86322W        W45759  42.908   6.361  12.944
86323W        W45760  21.592  38.504   1.704
86324W        W45761  15.286  40.927  11.580
86325W        W45762  14.722  17.616  12.986
86326W        W45763  13.341   6.306  10.973
86327W        W45764   3.372  16.083  11.936
86328W        W45765   5.819   6.189  13.522
86329W        W45766  17.237  36.070   1.330
86330W        W45767  11.336  33.929   1.876
86331W        W45768  19.084  14.232  10.407
86332W        W45769  36.386  22.567   2.186
86333W        W45770  27.562   1.743   3.684
86334W        W45771  21.233  44.790  10.531
86335W        W45772  36.512   5.415  13.430
86336W        W45773   6.370  35.365   0.343
86337W        W45774  34.957  20.618  11.450
86338W        W45775  41.302  36.390   0.483
86339W        W45776  20.742  29.960   1.898
86340W        W45777  35.566  20.567  14.910
86341W        W45778  15.265  26.147   4.225
86342W        W45779  28.656   3.923   4.694
86343W        W45780  24.685  40.445   1.246
86344W        W45781  17.185  31.068  11.412
86345W        W45782  19.099  36.845   4.693
86346W        W45783  27.117  35.565   1.256
86347W        W45784  29.148  16.165  11.588
86348W        W45785   2.940  14.214   2.247
86349W        W45786  26.462   6.773  13.547
86350W        W45787  43.986  10.636   2.811
86351W        W45788   4.839  11.633   9.505
86352W        W45789   7.293   9.684  11.581
86353W        W45790  38.910  36.480   4.808
86354W        W45791  25.120   8.167   1.914
86355W        W45792  43.311  14.174   3.775
86356W        W45793  18.070  34.557  12.405
86357W        W45794   8.278  36.411   3.848
86358W        W45795  16.125   9.710  12.970
86359W        W45796   9.884  14.290  12.467
86360W        W45797  35.358  31.029  12.569
86361W        W45798  44.893  23.078   2.814
86362W        W45799   2.723  17.129   1.386
86363W        W45800  29.005  29.024   3.219
86364W        W45801  36.567  36.933   0.342
86365W        W45802  44.308  44.972   1.908
86366W        W45803  22.707  35.415  10.533
86367W        W45804   4.709  33.985  10.411
86368W        W45805   7.235  36.851   4.288
86369W        W45806  34.917  11.247   0.248
86370W        W45807  15.228   7.847   2.721
86371W        W45808  42.999  35.587  12.407
86372W        W45809  41.990  25.180   0.331
86373W        W45810  32.636  39.957   3.336
86374W        W45811   2.782  19.629   1.277
86375W        W45812  38.568   3.712  11.474
86376W        W45813  42.352  28.030   0.304
86377W        W45814  24.026   1.955   3.182
86378W        W45815  16.707  18.265  11.055
86379W        W45816  41.330  17.141  12.953
86380W        W45817  35.861  32.485   1.745
86381W        W45818  43.785   8.381  14.029
86382W        W45819  17.772  28.562  13.048
86383W        W45820  19.098  44.444  10.034
86384W        W45821  37.967  33.878  10.416
86385W        W45822  12.777  17.239   1.785
86386W        W45823  11.718  31.641   1.733
86387W        W45824  16.256  10.283   4.209
86388W        W45825  42.896   6.198  10.931
86389W        W45826  12.663  11.630   2.372
86390W        W45827  15.821  27.653   0.904
86391W        W45828  16.248  25.190   0.769
86392W        W45829  19.156  21.655  10.494
86393W        W45830  28.958  27.509  13.012
86394W        W45831  23.522  35.380  12.521
86395W        W45832  26.972  40.814   3.331
86396W        W45833  25.588  10.350  11.386
86397W        W45834  22.683  18.715   1.758
86398W        W45835   6.366  39.977  12.841
86399W        W45836  34.579  21.196  12.918
86400W        W45837  35.935  40.812   1.696
86401W        W45838  41.506  31.947  14.404
86402W        W45839  25.066  32.024   3.629
86403W        W45840  14.785  40.348   5.633
86404W        W45841   4.225  32.619  14.400
86405W        W45842  22.252   2.832  11.532
86406W        W45843  35.592   1.882   2.819
86407W        W45844  18.558  42.939  11.093
86408W        W45845  41.358  37.538   3.172
86409W        W45846  38.356  31.528   3.667
86410W        W45847  36.406  35.897   1.929
86411W        W45848  41.338  33.115   3.233
86412W        W45849  21.143  11.867   3.863
86413W        W45850   8.246  26.547  14.947
86414W        W45851  25.656   5.881   1.436
86415W        W45852  14.672  38.440   3.773
86416W        W45853  25.567   3.272  10.090
86417W        W45854   1.443  12.153   0.867
86418W        W45855  32.089   0.309  12.516
86419W        W45856  11.241  13.196   4.188
86420W        W45857  36.457  42.891   0.474
86421W        W45858  20.069  30.136   2.838
86422W        W45859  14.269  33.549   0.281
86423W        W45860  13.664   6.914   2.888
86424W        W45861  29.035  10.712  14.497
86425W        W45862  28.082  40.016   2.290
86426W        W45863   7.683  17.573   3.327
86427W        W45864  42.890   4.235   4.731
86428W        W45865  15.271  39.826  13.914
86429W        W45866  24.038  25.013   4.690
86430W        W45867  12.655  14.140  12.033
86431W        W45868  19.759  10.198  13.322
86432W        W45869  25.145  24.709  13.461
86433W        W45870   2.757  22.014  14.965
86434W        W45871   0.960  16.110   5.597
86435W        W45872  16.761  43.922   2.209
86436W        W45873  16.258   5.350  14.869
86437W        W45874  14.235  35.067   3.767
86438W        W45875  14.720  10.335  10.429
86439W        W45876  37.898  28.996  10.027
86440W        W45877  16.307  10.242  11.547
86441W        W45878  40.328  41.984  10.524
86442W        W45879  32.079  28.052  13.920
86443W        W45880  21.245  28.594  12.951
86444W        W45881  30.976  44.394  14.402
86445W        W45882  20.258  30.035   0.407
86446W        W45883  18.642   5.205   1.302
86447W        W45884  25.982  29.158  12.473
86448W        W45885  44.378  21.211   0.908
86449W        W45886  43.806  37.024  13.847
86450W        W45887   2.387  18.168  12.934
86451W        W45888  34.460  24.106  14.820
86452W        W45889  19.556  23.222  14.867
86453W        W45890  15.243  23.990  13.459
86454W        W45891   9.764  23.002  12.061
86455W        W45892  29.985   6.276  14.315
86456W        W45893  38.417   4.775   2.863
86457W        W45894  26.547  39.404  11.382
86458W        W45895   9.370   5.861   0.860
86459W        W45896  25.636  14.821  11.419
86460W        W45897  13.183   9.212   3.259
86461W        W45898   3.941  41.034   1.344
86462W        W45899   4.289  36.431  14.391
86463W        W45900  15.650  29.643  14.919
86464W        W45901  42.800  19.206  12.872
86465W        W45902  43.453   0.301  11.923
86466W        W45903  31.478   8.197   1.694
86467W        W45904   3.902  14.310  13.463
86468W        W45905  27.007  20.624   0.257
86469W        W45906  14.319  30.610  13.540
86470W        W45907  23.558   3.257  13.886
86471W        W45908  20.142  35.908  13.962
86472W        W45909   9.848  37.844   4.213
86473W        W45910  18.296  36.045  11.388
86474W        W45911  38.051  11.861   2.693
86475W        W45912   4.213   2.294  13.463
86476W        W45913  40.498  12.792  10.062
86477W        W45914  13.678   9.203   1.294
86478W        W45915   2.742   2.950   1.784
86479W        W45916  29.670  12.641  14.462
86480W        W45917   9.765   2.395   4.712
86481W        W45918  18.730  24.548   4.641
86482W        W45919   2.250  40.813  13.361
86483W        W45920  13.306  25.690   3.184
86484W        W45921   1.746  33.560   2.302
86485W        W45922  21.129  27.481   2.806
86486W        W45923  31.944  12.729   3.179
86487W        W45924   1.309   2.328  10.474
86488W        W45925   8.895   7.306   0.833
86489W        W45926  19.258  20.767  13.494
86490W        W45927  30.918  44.373  14.016
86491W        W45928  30.049  42.948  12.912
86492W        W45929  27.121  33.984   4.614
86493W        W45930  11.798  11.187   3.173
86494W        W45931  33.989  16.114   3.800
86495W        W45932  20.619  32.112  10.558
86496W        W45933  11.364  25.686  10.565
86497W        W45934  25.061  24.601   3.804
86498W        W45935  26.592  41.372   2.211
86499W        W45936  39.443   4.315  10.633
86500W        W45937   6.734  31.446  12.444
86501W        W45938  18.614   2.235   1.240
86502W        W45939  15.819  38.414   2.401
86503W        W45940  17.085   7.749  12.479
86504W        W45941   9.886  18.640   2.292
86505W        W45942  38.346  35.533  13.879
86506W        W45943  41.970  30.573   3.346
86507W        W45944  32.525   1.338   4.817
86508W        W45945  43.272  44.414   0.441
86509W        W45946  35.105   7.380  12.952
86510W        W45947  38.501  10.243   2.697
86511W        W45948  31.908  32.941   0.792
86512W        W45949  29.087  27.539   3.777
86513W        W45950  37.858   8.759   3.746
86514W        W45951   6.259  22.606  11.451
86515W        W45952  35.018   1.834  14.831
86516W        W45953  35.554  12.731   0.801
86517W        W45954   8.176   3.715   3.768
86518W        W45955  11.242  30.157   4.642
86519W        W45956   9.359  12.656  13.001
86520W        W45957  40.540  42.524   4.664
86521W        W45958  20.707  41.963   2.189
86522W        W45959  11.364  16.714   0.319
86523W        W45960  44.300  20.066   4.645
86524W        W45961   1.314  27.004   4.114
86525W        W45962  38.426   7.910  11.000
86526W        W45963  22.677  44.914   2.728
86527W        W45964  37.523   2.919  14.418
86528W        W45965  44.819  43.452   1.729
86529W        W45966  20.192   4.734   3.274
86530W        W45967  36.506  21.520   3.760
86531W        W45968  27.635  37.083  12.869
86532W        W45969  19.234  31.549  14.914
86533W        W45970   0.881  18.203   3.710
86534W        W45971   1.846  20.685  13.979
86535W        W45972  25.563  37.443   4.212
86536W        W45973  20.195  34.601   1.450
86537W        W45974  15.635   4.881  11.079
86538W        W45975   8.795  31.523   4.825
86539W        W45976  29.076   5.263   2.220
86540W        W45977  18.548  44.272  12.454
86541W        W45978  21.046  41.495  13.812
86542W        W45979  20.713  20.563   3.194
86543W        W45980  32.547  37.934   0.292
86544W        W45981  38.857  17.786  13.393
86545W        W45982  38.349  38.519  11.110
86546W        W45983  34.384  35.374   0.281
86547W        W45984  16.775   4.757   0.937
86548W        W45985  10.773  27.097  11.930
86549W        W45986  31.640  40.017  13.953
86550W        W45987  19.734   6.426  13.532
86551W        W45988  34.118  34.495  10.463
86552W        W45989  17.102   1.826   3.811
86553W        W45990   9.305   1.465  13.858
86554W        W45991   0.821  30.591  14.779
86555W        W45992  15.702   8.247  11.923
86556W        W45993  25.649  26.173  12.442
86557W        W45994   5.219  23.215  12.071
86558W        W45995  32.093  11.175  14.295
86559W        W45996  23.583  20.207  11.592
86560W        W45997  30.536  39.815   0.284
86561W        W45998   5.688  16.783   0.915
86562W        W45999   4.822  20.750   1.907
86563W        W46000  11.839  40.505   2.397
86564W        W46001  31.484   2.779   0.405
86565W        W46002  30.619  41.835  13.959
86566W        W46003  37.519  10.336   1.399
86567W        W46004  12.842  18.226  14.927
86568W        W46005  21.738   5.292  12.088
86569W        W46006  44.837  22.118   1.225
86570W        W46007  32.992  44.880   0.273
86571W        W46008  32.508  22.237  13.931
86572W        W46009  25.546  42.510  10.504
86573W        W46010  19.284  41.820  13.452
86574W        W46011   1.859  20.556   0.393
86575W        W46012  23.528  28.068  10.559
86576W        W46013  23.685  19.727   0.743
86577W        W46014  27.992  27.015   2.365
86578W        W46015  22.736  41.387   9.556
86579W        W46016  29.650  43.289  14.832
86580W        W46017  27.959   7.388   9.955
86581W        W46018  32.496   4.404   4.624
86582W        W46019  18.599  15.808   4.238
86583W        W46020  19.692  21.256   9.922
86584W        W46021  34.914  16.699   1.216
86585W        W46022  26.171  34.512  13.871
86586W        W46023  31.618  33.077   1.438
86587W        W46024  20.069   9.764  13.385
86588W        W46025  41.930  29.451   3.695
86589W        W46026  28.001  33.921   4.670
86590W        W46027   3.910  16.678   0.805
86591W        W46028  27.673   8.275  11.920
86592W        W46029  23.146  43.863   2.849
86593W        W46030  14.211  35.580   2.368
86594W        W46031  28.655  37.994   3.224
86595W        W46032   5.288  16.731  12.954
86596W        W46033  27.142  12.260  12.867
86597W        W46034   4.766   1.741  13.317
86598W        W46035  30.656  16.763   3.846
86599W        W46036  38.563  43.355   1.316
86600W        W46037  35.544  31.630   0.326
86601W        W46038   8.747  23.156  13.383
86602W        W46039  32.586  41.501  12.444
86603W        W46040   1.815   1.911  10.969
86604W        W46041  17.142  32.555   3.870
86605W        W46042   9.254  11.239   1.899
86606W        W46043  12.769  11.724  11.943
86607W        W46044   9.238  13.759   0.747
86608W        W46045   6.406  14.265  13.885
86609W        W46046  10.165  28.184   4.817
86610W        W46047   6.240  31.013  14.790
86611W        W46048  20.058  26.635  11.517
86612W        W46049  44.830  41.844   4.828
86613W        W46050  36.075  14.707   5.213
86614W        W46051  41.923  26.595  12.463
86615W        W46052   6.318   8.276   4.276
86616W        W46053  33.483  35.462  10.463
86617W        W46054  17.277  22.656  12.022
86618W        W46055  44.412  38.568   2.293
86619W        W46056  35.897   3.394  13.010
86620W        W46057   3.409  43.968  13.330
86621W        W46058  11.713   9.675  13.515
86622W        W46059  27.003  41.969  13.327
86623W        W46060  20.120  17.109  12.532
86624W        W46061  32.141   1.388   2.331
86625W        W46062  28.064  24.512   4.779
86626W        W46063  24.210  18.265  13.818
86627W        W46064   4.728   6.751   2.789
86628W        W46065  21.648   7.824   1.788
86629W        W46066  32.478  38.929   3.248
86630W        W46067  17.100   7.282   3.794
86631W        W46068  31.901   4.920   4.351
86632W        W46069  43.490  44.419  11.449
86633W        W46070  27.504   6.850  11.001
86634W        W46071  23.127   2.363  12.898
86635W        W46072  22.536  20.543  14.284
86636W        W46073  12.672  14.107   1.327
86637W        W46074  34.517   7.683  11.463
86638W        W46075   9.319  33.474   2.229
86639W        W46076   6.877  23.089   2.793
86640W        W46077  34.481  34.104  12.028
86641W        W46078  39.975  39.811   0.940
86642W        W46079   8.815  13.157  14.764
86643W        W46080  21.553  14.179  14.453
86644W        W46081  43.333  29.966   2.388
86645W        W46082  15.754  27.478  14.031
86646W        W46083   7.760  42.465   3.655
86647W        W46084   7.362   7.679  11.407
86648W        W46085   3.288  38.345   0.793
86649W        W46086  14.332  33.448   4.305
86650W        W46087  11.656   2.439   1.823
86651W        W46088  17.707   2.841   2.211
86652W        W46089  37.374  15.585   0.305
86653W        W46090  22.192  26.044  10.899
86654W        W46091  25.023  30.433   0.747
86655W        W46092  42.323  15.276   1.908
86656W        W46093  19.744  19.729  12.074
86657W        W46094  33.926  19.160   2.800
86658W        W46095   9.168  22.245   3.263
86659W        W46096  26.633   7.757   3.731
86660W        W46097  30.437  28.475   0.448
86661W        W46098  18.668  20.133   2.694
86662W        W46099  38.550  26.565  14.452
86663W        W46100  25.988  20.091   2.808
86664W        W46101  21.726  38.022   3.785
86665W        W46102  30.017  11.629   4.608
86666W        W46103  21.656  28.163   2.862
86667W        W46104   2.887   4.253   1.728
86668W        W46105  24.483   3.851  10.979
86669W        W46106  23.149  31.009  12.413
86670W        W46107  20.705  21.218   1.252
86671W        W46108  18.281  30.121  10.521
86672W        W46109  13.106  39.809  14.375
86673W        W46110  39.942   9.149  14.965
86674W        W46111  10.809   3.251   0.451
86675W        W46112  14.718  44.503  10.634
86676W        W46113  15.811  36.424  11.464
86677W        W46114  38.823  10.873   1.397
86678W        W46115   5.418  12.798   0.743
86679W        W46116   9.270  30.573  10.404
86680W        W46117   5.849  38.063   4.837
86681W        W46118  18.638  43.839  10.542
86682W        W46119  15.731  43.281  14.490
86683W        W46120  41.359  28.176  12.506
86684W        W46121  40.435  44.421   3.779
86685W        W46122  14.669  32.598  12.963
86686W        W46123  27.009  18.757  10.642
86687W        W46124   1.353  30.600   2.846
86688W        W46125  18.555   5.272   4.291
86689W        W46126  41.843  32.008   0.962
86690W        W46127  41.944  25.032  13.468
86691W        W46128  38.940  13.609   3.370
86692W        W46129   5.796   3.426   2.298
86693W        W46130  21.048  18.663   3.821
86694W        W46131  12.692  41.329  11.490
86695W        W46132  13.303  43.511   2.841
86696W        W46133  43.952  20.199  12.567
86697W        W46134  18.156  28.506  10.451
86698W        W46135  19.265  11.862  12.536
86699W        W46136  38.544   0.355   2.869
86700W        W46137  29.045  43.904   3.272
86701W        W46138  12.655  34.521   4.826
86702W        W46139  10.217  20.660  14.377
86703W        W46140  24.488  14.825  11.417
86704W        W46141  35.368  38.429  13.495
86705W        W46142  29.589  18.595   1.368
86706W        W46143  14.657  28.623   4.347
86707W        W46144  22.178  12.848   3.352
86708W        W46145   3.373   9.842   3.821
86709W        W46146  44.952  44.326   2.243
86710W        W46147  24.613  26.071   1.746
86711W        W46148  34.377  36.426   5.191
86712W        W46149  23.660   2.933   1.927
86713W        W46150   5.829  22.190   0.298
86714W        W46151  30.440   0.328  13.536
86715W        W46152  28.950  36.396  11.563
86716W        W46153  38.503  22.745  10.989
86717W        W46154  22.023  21.072   4.211
86718W        W46155  21.631  41.860  12.870
86719W        W46156  32.944  10.249   4.191
86720W        W46157  30.479  17.214  11.077
86721W        W46158   9.280  16.805  11.555
86722W        W46159  25.216  38.852  12.992
86723W        W46160  18.773  41.911   1.389
86724W        W46161  26.669  33.621   2.316
86725W        W46162  22.596  20.044   4.597
86726W        W46163   9.731   2.324  11.014
86727W        W46164   3.338  20.675   4.156
86728W        W46165  11.659  29.564   2.892
86729W        W46166  16.176   9.320  11.382
86730W        W46167  30.970   4.941  14.329
86731W        W46168   9.889   9.352   2.294
86732W        W46169  19.772  27.191   4.331
86733W        W46170  27.950  21.098   2.187
86734W        W46171  37.536  17.133  13.390
86735W        W46172  25.570   8.709   4.690
86736W        W46173  20.747   1.878  12.045
86737W        W46174  10.633  30.593  14.514
86738W        W46175  28.128   3.460   5.301
86739W        W46176  42.902  25.974   0.755
86740W        W46177  41.322   4.353   2.832
86741W        W46178  19.560  14.674   3.374
86742W        W46179  38.343  38.935  12.090
86743W        W46180  21.636  25.578   0.887
86744W        W46181   3.262  18.193   3.690
86745W        W46182   5.265  41.332  12.034
86746W        W46183  22.667   6.360  11.871
86747W        W46184  38.406  20.702   0.417
86748W        W46185  20.667  44.938   0.460
86749W        W46186  20.665   6.855   2.277
86750W        W46187  19.668  44.843   0.396
86751W        W46188  36.021  17.162  12.436
86752W        W46189  34.060   1.780  13.354
86753W        W46190   2.275  36.484  10.526
86754W        W46191   7.319   5.723   2.870
86755W        W46192  41.038   1.867   1.256
86756W        W46193  11.163  25.670  14.963
86757W        W46194  42.305  14.604  14.783
86758W        W46195  21.681  18.626  11.117
86759W        W46196  15.704  23.013   0.386
86760W        W46197  23.664  25.006  13.423
86761W        W46198  43.405  27.471   1.340
86762W        W46199  44.753  18.557  13.455
86763W        W46200  18.617  10.649   1.287
86764W        W46201  17.720  12.276   4.299
86765W        W46202   2.937  24.988  11.036
86766W        W46203  35.525  31.484  12.955
86767W        W46204  22.207  28.963   3.361
86768W        W46205  21.177  28.638  13.941
86769W        W46206   5.227  13.257  11.447
86770W        W46207  41.798  14.607  13.331
86771W        W46208  24.612  36.020  13.402
86772W        W46209  27.981  32.554   0.832
86773W        W46210   4.905  22.640  13.039
86774W        W46211   2.930  22.034   0.399
86775W        W46212  18.127  26.167  11.924
86776W        W46213  28.978  36.575   2.244
86777W        W46214  14.779  19.221   3.689
86778W        W46215   0.352  42.525   0.910
86779W        W46216  10.698  28.962  13.519
86780W        W46217   7.396  33.438  14.905
86781W        W46218  12.698  43.868   2.663
86782W        W46219  21.517  28.116  13.055
86783W        W46220  31.145  36.530   0.733
86784W        W46221  35.403  16.161   3.716
86785W        W46222  42.001  18.286   0.726
86786W        W46223  25.638   5.924   1.793
86787W        W46224  35.997  17.066   2.318
86788W        W46225  41.491  25.979  11.489
86789W        W46226  32.086  18.157   2.898
86790W        W46227   8.243   3.411   2.898
86791W        W46228  39.884  14.628   4.301
86792W        W46229  36.370  16.119  10.564
86793W        W46230   5.859  38.907   4.754
86794W        W46231  22.639  35.519   4.237
86795W        W46232  27.173  41.843   0.960
86796W        W46233  29.599   3.902   1.407
86797W        W46234  22.007  17.286   4.629
86798W        W46235  39.319  20.089   3.733
86799W        W46236  19.109  22.233  14.790
86800W        W46237  24.600  44.900   1.709
86801W        W46238  12.669   3.830   3.795
86802W        W46239  36.083  15.203   1.242
86803W        W46240  23.540  25.571   1.832
86804W        W46241  30.037  41.395   1.866
86805W        W46242  21.148   9.873   0.863
86806W        W46243  34.536  26.577   1.289
86807W        W46244  20.185  42.365   4.669
86808W        W46245  19.683   7.887  11.941
86809W        W46246  41.846  28.186  14.354
86810W        W46247  28.595   2.252  12.089
86811W        W46248  44.277  38.353  14.005
86812W        W46249  27.146  20.230  13.356
86813W        W46250  29.979  29.616   3.216
86814W        W46251  40.529  24.659   3.265
86815W        W46252  11.165   6.860   0.889
86816W        W46253   1.464  24.699   4.822
86817W        W46254  26.495  28.021   3.847
86818W        W46255  13.689  34.477  13.466
86819W        W46256  42.007  44.320  10.466
86820W        W46257  13.275   3.361  13.855
86821W        W46258  11.783  37.491  13.883
86822W        W46259   9.325   1.780  12.487
86823W        W46260  34.583  25.533  12.916
86824W        W46261   0.330  38.459   0.783
86825W        W46262  16.794  44.286  11.085
86826W        W46263  32.969  36.416   5.656
86827W        W46264  35.528  28.108   1.817
86828W        W46265  14.763  23.145   2.370
86829W        W46266  10.693  16.072   0.902
86830W        W46267  28.019   8.379  12.853
86831W        W46268  13.715   9.804   0.737
86832W        W46269  10.217   3.870  12.521
86833W        W46270  31.003   0.758  10.141
86834W        W46271  34.880  36.573  11.014
86835W        W46272   6.235  21.074  12.342
86836W        W46273   0.476  18.083   3.758
86837W        W46274  34.004  24.556   4.818
86838W        W46275  40.045  30.488   2.732
86839W        W46276  25.683  37.984  13.889
86840W        W46277  32.563   5.927  10.626
86841W        W46278   9.289  18.619  12.838
86842W        W46279  35.023  28.507   3.234
86843W        W46280   2.345  17.161   1.717
86844W        W46281   5.719  40.998  12.530
86845W        W46282   5.878  33.114   3.331
86846W        W46283  19.062  14.636  10.905
86847W        W46284  37.452  15.128   0.454
86848W        W46285  15.305  43.402  14.432
86849W        W46286  43.869  21.630  12.466
86850W        W46287  11.303  40.004   3.823
86851W        W46288  32.442  10.790  13.847
86852W        W46289  35.076  26.114   4.783
86853W        W46290  20.728   0.753   0.837
86854W        W46291  28.159  22.101  14.422
86855W        W46292   8.368  39.926  13.958
86856W        W46293   6.392  29.017   4.280
86857W        W46294  16.585  24.075   2.362
86858W        W46295  16.630   1.913  11.969
86859W        W46296  25.965  32.920  10.563
86860W        W46297   2.230  29.571   3.379
86861W        W46298  14.303  22.134   2.408
86862W        W46299   6.366  11.742   0.438
86863W        W46300  37.379   7.907  12.575
86864W        W46301  43.822  33.086   4.600
86865W        W46302   3.714   4.258  12.411
86866W        W46303  27.118  30.132   1.260
86867W        W46304  13.282  30.140   2.419
86868W        W46305  43.498  10.149  11.486
86869W        W46306  36.359  31.416   3.721
86870W        W46307  28.112  33.879  11.425
86871W        W46308   3.946  25.472  13.037
86872W        W46309   1.848   8.264   4.186
86873W        W46310  21.072  14.253  12.860
86874W        W46311  27.970  25.030  11.423
86875W        W46312  40.837   7.698   4.833
86876W        W46313  44.503  31.470   4.672
86877W        W46314  13.151  30.414   3.298
86878W        W46315  27.080  44.416  12.497
86879W        W46316   3.803  38.425  10.473
86880W        W46317  37.553   8.778   4.293
86881W        W46318  39.501  23.550  11.584
86882W        W46319  39.403  24.588  10.593
86883W        W46320  16.196  15.111  10.945
86884W        W46321  10.210  19.754  14.872
86885W        W46322   4.210  22.052  11.976
86886W        W46323  16.115   8.372   0.430
86887W        W46324  36.538  14.774   3.190
86888W        W46325  13.189  19.609  10.903
86889W        W46326   0.781   3.759   4.627
86890W        W46327  38.074  15.752  12.478
86891W        W46328  42.810  40.430   4.618
86892W        W46329  14.250  30.131  11.596
86893W        W46330  42.345  36.429  12.989
86894W        W46331  28.969  27.083  12.979
86895W        W46332  28.956  11.841  12.913
86896W        W46333  11.668  35.385  10.423
86897W        W46334  23.682  10.815  14.509
86898W        W46335  12.789  14.793  14.986
86899W        W46336  27.540  10.828   0.729
86900W        W46337   2.344  14.198   2.899
86901W        W46338  36.862  25.503  13.010
86902W        W46339  18.188  40.531   0.932
86903W        W46340  36.572  30.645   0.823
86904W        W46341   7.784   9.322   3.333
86905W        W46342  44.967  41.517   0.754
86906W        W46343  19.658  42.877   1.863
86907W        W46344  17.728  10.261   3.687
86908W        W46345  18.213  14.718  12.404
86909W        W46346  17.258  34.963  14.440
86910W        W46347  44.386  42.913  11.447
86911W        W46348  44.779  37.941   5.764
86912W        W46349  29.581   1.367   4.700
86913W        W46350   1.770   6.249  13.366
86914W        W46351  33.987  11.788   1.895
86915W        W46352  29.644  20.112  10.538
86916W        W46353  18.776   9.859   1.829
86917W        W46354  29.065   8.859  12.441
86918W        W46355  43.296  44.379   4.604
86919W        W46356   9.778  10.708   3.656
86920W        W46357  12.197  12.226  14.878
86921W        W46358  38.862   8.251  13.978
86922W        W46359  36.413   8.814  12.856
86923W        W46360   5.389  14.193   2.695
86924W        W46361  37.468  40.519  12.017
86925W        W46362   6.287  34.391  10.084
86926W        W46363  22.569   8.369  14.966
86927W        W46364  17.194  38.519  11.064
86928W        W46365  21.699   4.417   1.914
86929W        W46366  38.556   3.328  10.540
86930W        W46367  43.281  10.699  10.611
86931W        W46368  44.992  10.711  12.538
86932W        W46369  28.008  35.096   5.283
86933W        W46370  26.679  38.519  14.815
86934W        W46371  21.135  33.927  13.965
86935W        W46372   4.226  15.704  12.517
86936W        W46373  34.051  21.616  14.994
86937W        W46374  43.021  40.015   2.896
86938W        W46375  44.834  33.926  12.866
86939W        W46376  43.796  29.126  12.561
86940W        W46377  16.277  34.523   2.250
86941W        W46378   0.977  18.588  12.541
86942W        W46379  26.546  19.221  11.091
86943W        W46380  17.170  42.793  14.020
86944W        W46381  40.389  26.591  13.974
86945W        W46382  15.290  38.062  13.911
86946W        W46383  19.111  14.672  13.038
86947W        W46384   2.952  37.908   5.174
86948W        W46385   5.213  30.464   4.751
86949W        W46386  30.982  31.630  13.378
86950W        W46387  20.555  25.701  10.020
86951W        W46388  16.105  24.496   3.161
86952W        W46389  20.620   7.182  12.420
86953W        W46390  27.178  27.687   0.761
86954W        W46391  21.738  28.575  11.041
86955W        W46392  10.857  29.031   3.148
86956W        W46393  41.498   6.859   4.297
86957W        W46394  16.312  17.093  11.417
86958W        W46395   9.381  25.213  11.014
86959W        W46396  21.028  39.890   0.315
86960W        W46397  23.147  26.671   4.176
86961W        W46398  19.543  31.080   0.943
86962W        W46399  15.185   4.261  14.315
86963W        W46400  29.655   1.326   1.427
86964W        W46401  37.390   9.849   1.918
86965W        W46402  19.632  22.656  13.856
86966W        W46403  17.593  21.133   0.308
86967W        W46404  42.943  29.173  10.618
86968W        W46405  23.731   6.884  11.610
86969W        W46406  14.799  19.055  10.957
86970W        W46407  17.707  15.674  11.079
86971W        W46408  10.319  25.214   5.156
86972W        W46409  26.070  33.106  11.453
86973W        W46410   4.311  10.770  11.872
86974W        W46411   9.810  34.457   2.206
86975W        W46412  26.601  11.214   2.733
86976W        W46413  15.697  14.649  13.890
86977W        W46414  13.768  16.658  14.965
86978W        W46415  15.625  14.324   1.368
86979W        W46416  19.574  15.148  12.409
86980W        W46417  34.541   5.428   3.195
86981W        W46418  26.030  41.858   4.713
86982W        W46419   5.425  16.303  14.355
86983W        W46420  37.945  43.810  11.884
86984W        W46421  41.867   4.250  12.545
86985W        W46422  30.646  15.193   2.352
86986W        W46423  11.211  24.026  10.891
86987W        W46424  26.972   7.297   4.715
86988W        W46425   3.314  42.832  12.515
86989W        W46426  33.611  23.614   3.647
86990W        W46427   1.876  30.625  11.871
86991W        W46428   3.906  16.078   2.843
86992W        W46429  10.357   8.655  12.947
86993W        W46430  16.260  14.280  12.369
86994W        W46431  23.034   8.857  10.917
86995W        W46432  34.930  12.195  14.771
86996W        W46433  38.360   0.338  10.623
86997W        W46434   2.431  13.287   2.799
86998W        W46435  42.939  12.334   4.639
86999W        W46436  27.542  42.782   4.669
87000W        W46437   2.741  37.064   0.730
87001W        W46438   3.731  40.037   4.721
87002W        W46439  21.643  26.116   4.144
87003W        W46440  29.424   1.867   1.353
87004W        W46441   9.392   8.779   3.695
87005W        W46442   4.937  38.335  11.406
87006W        W46443   1.748  11.230  13.003
87007W        W46444  22.247  18.727  14.971
87008W        W46445  21.622  16.583   5.311
87009W        W46446  41.860  40.434   1.287
87010W        W46447  17.798  19.628  13.538
87011W        W46448   6.822  12.725  14.434
87012W        W46449  29.010   3.710   4.289
87013W        W46450   8.400  33.904   4.236
87014W        W46451  33.928  27.505  12.565
87015W        W46452   7.669  32.580   4.154
87016W        W46453  23.734  26.571   3.251
87017W        W46454  42.431   1.430  12.024
87018W        W46455  31.482  15.116   1.767
87019W        W46456  34.576  33.999   2.177
87020W        W46457  13.296   4.342  10.405
87021W        W46458  31.048  42.979  13.545
87022W        W46459  32.400   8.211  11.574
87023W        W46460  41.902  32.532  12.968
87024W        W46461  35.952  38.348  14.013
87025W        W46462  28.546  42.319  10.467
87026W        W46463  37.924  29.512  14.032
87027W        W46464  16.576   4.384  13.465
87028W        W46465   9.275   1.473   2.324
87029W        W46466  36.867   7.384   2.198
87030W        W46467  12.688  26.120   2.394
87031W        W46468   4.745  36.907  14.858
87032W        W46469  24.556  35.047  10.589
87033W        W46470  36.348  14.825   3.856
87034W        W46471   6.314  36.063   2.355
87035W        W46472  29.504  38.513  10.978
87036W        W46473  33.935  12.202   4.691
87037W        W46474  36.417   5.292   2.812
87038W        W46475  37.564  22.120   2.375
87039W        W46476  26.681   7.711   2.695
87040W        W46477  18.217  21.742   3.162
87041W        W46478  11.653  24.539  13.955
87042W        W46479  22.052  14.754  12.974
87043W        W46480  42.880  30.057  11.053
87044W        W46481  43.997  41.923   1.825
87045W        W46482   5.196  37.880   0.422
87046W        W46483   6.804  20.145  11.574
87047W        W46484  19.571  38.417  12.065
87048W        W46485  26.099  42.367   0.314
87049W        W46486  28.656  30.611  12.521
87050W        W46487   0.285  29.025  13.054
87051W        W46488  13.801  25.536  13.347
87052W        W46489  30.492  11.232  13.310
87053W        W46490  23.679  35.962   4.172
87054W        W46491   3.390   3.274   5.286
87055W        W46492  24.144  42.938   2.752
87056W        W46493  20.219  27.518  10.889
87057W        W46494   5.339  17.571  11.068
87058W        W46495  42.495   9.346   2.316
87059W        W46496  23.499  16.177   3.859
87060W        W46497  35.867  12.773   3.817
87061W        W46498  17.212   6.877   1.334
87062W        W46499   0.417  42.313  11.966
87063W        W46500  14.717  22.678  12.018
87064W        W46501  29.526  10.195   4.832
87065W        W46502  31.998  10.307   3.285
87066W        W46503  25.149  27.630   3.384
87067W        W46504  38.058  15.285  11.948
87068W        W46505   3.833  16.137   3.830
87069W        W46506   4.869  33.380   1.725
87070W        W46507  20.718  11.359  12.090
87071W        W46508  14.297  24.002  11.472
87072W        W46509  13.347  31.633   2.709
87073W        W46510  43.495  20.257   0.431
87074W        W46511   1.323  14.681   4.611
87075W        W46512  25.677   7.272  13.457
87076W        W46513  39.402  44.783   2.384
87077W        W46514  16.638   6.870   3.648
87078W        W46515  35.585   7.374   3.254
87079W        W46516  16.686  44.916   3.333
87080W        W46517  28.067  32.012  10.016
87081W        W46518  11.752  13.168   2.397
87082W        W46519  43.954   4.707   2.182
87083W        W46520   4.445  31.451  11.501
87084W        W46521  27.050   5.325   3.779
87085W        W46522  43.886  36.409   2.819
87086W        W46523   0.751  11.707   1.288
87087W        W46524   5.273  38.475  13.427
87088W        W46525  34.466  15.625   2.883
87089W        W46526  36.393  41.960   1.218
87090W        W46527  21.532  16.275  14.934
87091W        W46528  35.942  39.459   3.281
87092W        W46529  19.703  24.693  13.528
87093W        W46530  27.008   9.825   4.198
87094W        W46531   1.963   6.851   2.895
87095W        W46532  24.698  32.935   4.179
87096W        W46533  26.633  12.328   1.903
87097W        W46534   1.261  11.689  10.571
87098W        W46535  44.433  10.270  10.891
87099W        W46536  22.647  24.488   9.541
87100W        W46537  12.810  15.325  13.833
87101W        W46538   4.725  44.353   2.183
87102W        W46539  43.867  17.105  11.959
87103W        W46540  15.582  44.994  11.495
87104W        W46541  26.188  11.157   1.221
87105W        W46542  43.495  26.516   1.396
87106W        W46543   6.398   8.174  11.119
87107W        W46544   1.807   9.264  14.029
87108W        W46545  22.599  28.492   2.284
87109W        W46546  19.657   6.919  11.465
87110W        W46547  13.342  15.181   0.859
87111W        W46548   0.308  26.067   1.818
87112W        W46549  29.045  37.470   4.778
87113W        W46550   7.898  42.021   3.864
87114W        W46551   9.152  24.642   1.404
87115W        W46552  20.242  11.848   3.218
87116W        W46553  19.755  10.317  11.965
87117W        W46554  40.834   2.880   2.226
87118W        W46555  32.045  24.574   0.841
87119W        W46556  11.644  30.081  14.909
87120W        W46557  20.262  32.934  11.582
87121W        W46558  10.659  44.779  13.013
87122W        W46559   9.185  11.170   4.713
87123W        W46560  30.542   6.698   0.798
87124W        W46561   8.213  15.142  11.907
87125W        W46562  39.963  18.164  14.486
87126W        W46563   1.889  19.069   0.264
87127W        W46564  33.535  37.449   5.180
87128W        W46565  11.211  16.131  14.495
87129W        W46566   0.978  20.031  14.886
87130W        W46567  35.471  12.816  11.440
87131W        W46568  20.160   5.921  14.858
87132W        W46569   3.415  23.069  12.431
87133W        W46570  34.872   7.790  14.814
87134W        W46571   4.253  43.413   2.834
87135W        W46572  42.891   5.787  10.890
87136W        W46573  32.960   6.773   2.818
87137W        W46574  12.678  43.809  12.902
87138W        W46575  16.732  40.444   3.687
87139W        W46576  38.459   5.329  13.008
87140W        W46577  20.768  41.490   0.245
87141W        W46578  20.580  32.424  13.530
87142W        W46579  31.919   7.245  12.542
87143W        W46580  27.481  28.964   0.321
87144W        W46581  19.130  20.178   1.350
87145W        W46582  17.143  35.018   0.749
87146W        W46583  12.289  34.959  14.280
87147W        W46584  30.516  15.724   3.342
87148W        W46585  31.942  13.666  14.435
87149W        W46586  17.114  24.006  14.457
87150W        W46587  21.135  24.550  11.400
87151W        W46588  18.617  28.153  11.598
87152W        W46589  12.336  28.451   2.320
87153W        W46590  16.094  31.414  14.328
87154W        W46591  44.879  16.219  13.854
87155W        W46592  34.379  19.742   0.953
87156W        W46593  20.735  18.145  13.842
87157W        W46594  34.026  34.564   3.655
87158W        W46595  14.648  42.393  13.966
87159W        W46596   9.186  29.134  14.410
87160W        W46597  42.360  10.745  12.096
87161W        W46598  17.176  16.796  11.998
87162W        W46599   8.394  27.646  14.444
87163W        W46600  42.797  11.632  12.487
87164W        W46601  10.811  44.816   1.362
87165W        W46602   6.917  26.495   1.707
87166W        W46603  35.431  10.340  11.077
87167W        W46604   5.288  28.994   2.824
87168W        W46605   1.974  37.041  10.475
87169W        W46606  23.723  38.536   3.700
87170W        W46607   5.215  43.811  14.329
87171W        W46608  41.926   8.255   0.424
87172W        W46609  25.691  29.174   2.896
87173W        W46610  35.103  44.768   3.257
87174W        W46611  41.301  31.930   0.763
87175W        W46612   6.185   2.352  10.605
87176W        W46613   5.237  44.988   1.865
87177W        W46614  31.633  20.530  10.607
87178W        W46615  41.430  40.459   3.853
87179W        W46616  18.648   3.781  14.387
87180W        W46617  44.435   6.910  14.341
87181W        W46618   9.171  12.188  13.479
87182W        W46619  39.476  32.947  14.922
87183W        W46620   2.232  18.290  10.432
87184W        W46621  25.491  25.037  11.554
87185W        W46622  43.338  36.361  14.484
87186W        W46623  20.583  37.843   2.664
87187W        W46624   1.466  38.493  11.410
87188W        W46625   6.215  33.450  11.006
87189W        W46626   1.732  42.485  11.980
87190W        W46627   7.745  14.809  14.384
87191W        W46628   2.772  37.446  12.023
87192W        W46629  39.017  21.151   1.702
87193W        W46630  12.294   6.425   2.894
87194W        W46631  38.473  15.819  13.946
87195W        W46632   8.724  10.665   3.735
87196W        W46633  40.815  12.630   1.373
87197W        W46634  28.577  32.450  13.884
87198W        W46635  14.594  24.677   2.236
87199W        W46636  26.490   8.193  12.503
87200W        W46637  29.987  27.014   0.377
87201W        W46638  28.544  18.612   2.884
87202W        W46639  26.970  24.564  12.545
87203W        W46640   9.803  34.078   2.389
87204W        W46641  11.351  35.599  14.510
87205W        W46642  24.105  23.996   1.747
87206W        W46643  11.311  39.922  11.389
87207W        W46644  10.707   8.686   2.811
87208W        W46645   5.888  40.914   1.217
87209W        W46646  20.606   1.805   1.892
87210W        W46647  19.193  31.915   3.868
87211W        W46648  14.300  38.353   3.846
87212W        W46649  33.403  16.710   2.753
87213W        W46650  13.678  16.636  12.972
87214W        W46651  29.621  41.330  11.024
87215W        W46652  28.512  21.680   2.192
87216W        W46653  23.490  29.131  13.484
87217W        W46654  25.029   7.716  12.066
87218W        W46655  35.455  44.899   4.642
87219W        W46656  21.605   5.932   4.729
87220W        W46657  26.560  36.030  13.942
87221W        W46658  34.934   8.693   0.927
87222W        W46659  28.647  24.166  14.962
87223W        W46660  27.624  29.995  11.006
87224W        W46661  34.535  37.026   2.324
87225W        W46662  16.221  20.738  14.366
87226W        W46663  14.758  17.083  14.021
87227W        W46664  35.870  38.390  11.981
87228W        W46665  27.054  17.094  12.050
87229W        W46666   0.754  16.776  11.859
87230W        W46667  37.941   1.860  10.484
87231W        W46668  17.782  10.739   2.664
87232W        W46669   0.319  10.661  10.900
87233W        W46670  22.685  40.339   1.309
87234W        W46671  17.678  22.180  10.442
87235W        W46672  29.598   0.930   1.809
87236W        W46673  30.082  11.315   4.604
87237W        W46674  43.842  23.082  14.832
87238W        W46675  20.248  37.506   2.187
87239W        W46676  38.401  32.498   0.285
87240W        W46677  23.204  15.677  10.539
87241W        W46678  11.853   7.399   3.715
87242W        W46679  15.580  20.732  11.122
87243W        W46680  32.967   6.327   2.676
87244W        W46681  22.137  33.537  12.088
87245W        W46682  38.864  16.735  13.527
87246W        W46683  36.545  27.121  13.392
87247W        W46684   3.421  22.047   2.833
87248W        W46685  12.834  29.004   2.677
87249W        W46686  31.062   7.209   0.854
87250W        W46687  27.540   1.378  10.591
87251W        W46688  21.245  25.472   3.325
87252W        W46689  43.430  15.181   4.687
87253W        W46690  30.943  23.535  12.447
87254W        W46691  19.081   7.294  12.985
87255W        W46692  11.170  44.286   1.251
87256W        W46693  26.997  39.491  14.286
87257W        W46694  15.701  16.082   9.509
87258W        W46695   9.310  41.370   0.451
87259W        W46696   6.403  27.036   1.451
87260W        W46697  17.102  31.449   1.320
87261W        W46698  44.897  30.465   0.768
87262W        W46699  40.849  33.946  14.319
87263W        W46700  36.013  16.645  13.508
87264W        W46701  43.887  25.098   2.795
87265W        W46702  15.095  42.979   2.730
87266W        W46703  35.022  22.167   3.309
87267W        W46704  25.702  24.137   2.226
87268W        W46705   7.303  28.615  11.066
87269W        W46706  13.759  16.631  13.914
87270W        W46707  34.478  30.650   2.344
87271W        W46708   4.853  31.429   0.379
87272W        W46709  32.002  42.920  10.159
87273W        W46710  31.958  26.186  13.397
87274W        W46711   5.707  28.576   2.348
87275W        W46712  31.407  25.560   2.330
87276W        W46713   2.833  14.690   3.735
87277W        W46714  15.693  43.310   5.249
87278W        W46715  35.076  15.677  12.938
87279W        W46716   9.239  43.823  14.839
87280W        W46717  32.563   0.868  14.313
87281W        W46718   4.743   0.958   3.756
87282W        W46719  44.988  35.861  14.869
87283W        W46720   0.384  25.207   3.319
87284W        W46721  21.561  27.010   2.679
87285W        W46722  13.160  39.041  12.835
87286W        W46723  19.224  15.100   9.486
87287W        W46724  29.521  27.081   3.219
87288W        W46725   2.905  43.466   1.889
87289W        W46726  37.582  39.986   4.783
87290W        W46727  43.405  23.138  10.962
87291W        W46728  15.143  14.832   0.830
87292W        W46729  43.413  16.105  10.560
87293W        W46730   8.886  32.041   2.199
87294W        W46731   8.262   1.428  12.070
87295W        W46732  34.950   6.826  12.440
87296W        W46733  37.352  32.909   0.446
87297W        W46734  10.876  31.593  12.485
87298W        W46735   3.897   8.209   2.849
87299W        W46736  38.870  26.057   2.755
87300W        W46737  43.294  37.897  14.883
87301W        W46738   4.284   5.874  14.839
87302W        W46739  36.501  35.461   3.163
87303W        W46740  38.391   1.734   2.869
87304W        W46741  13.652  32.891   0.783
87305W        W46742  44.440  28.010  11.514
87306W        W46743  15.094  23.030   1.698
87307W        W46744  18.246  26.554  10.543
87308W        W46745  17.691   8.863  13.851
87309W        W46746  37.970  13.349  13.024
87310W        W46747   3.857  31.635   2.703
87311W        W46748  41.963  14.812   3.230
87312W        W46749   1.296   3.882   3.814
87313W        W46750   3.798  37.437   9.944
87314W        W46751  25.094  33.957  13.869
87315W        W46752   0.469  15.677   3.171
87316W        W46753  21.682   3.447   4.713
87317W        W46754   0.248   9.847  11.987
87318W        W46755  38.060  18.684   3.286
87319W        W46756  21.733   8.802  14.821
87320W        W46757  39.472  39.976  13.805
87321W        W46758  17.687   0.450   3.334
87322W        W46759  23.174  17.236  13.379
87323W        W46760  23.502  20.646   2.203
87324W        W46761   7.345  31.435  14.787
87325W        W46762  37.007  22.633   2.703
87326W        W46763  19.721   3.921  10.541
87327W        W46764  14.646   9.276   0.846
87328W        W46765  25.583  44.946  12.468
87329W        W46766  15.221  23.994  12.579
87330W        W46767  29.059  26.082  14.469
87331W        W46768  36.895  27.455  12.356
87332W        W46769  31.039  23.698   1.365
87333W        W46770   6.380   4.732  12.095
87334W        W46771  19.193  33.890   4.625
87335W        W46772  38.919  27.636   3.263
87336W        W46773  17.797  15.657  11.574
87337W        W46774  28.639  23.573  13.321
87338W        W46775   4.349  23.559   0.457
87339W        W46776  27.477   1.419  13.843
87340W        W46777  20.673  38.055  11.569
87341W        W46778  25.112  37.390   3.712
87342W        W46779  34.545  17.156   0.370
87343W        W46780  13.179  33.097   0.783
87344W        W46781  13.271  36.477   4.310
87345W        W46782  24.636   8.807   9.997
87346W        W46783  18.679  42.016  14.819
87347W        W46784  40.331  41.926   4.719
87348W        W46785  21.120   7.772   0.787
87349W        W46786  12.842  40.406   5.113
87350W        W46787  11.761  41.471  14.307
87351W        W46788  14.621  26.703  14.011
87352W        W46789   8.790  28.929   4.300
87353W        W46790  34.909  44.349   0.405
87354W        W46791  14.802  32.975   0.947
87355W        W46792  44.937  32.020   3.773
87356W        W46793  30.642  15.180  13.059
87357W        W46794  33.610  35.908  13.837
87358W        W46795  28.436  28.933   1.292
87359W        W46796  35.557   2.729  13.834
87360W        W46797  26.185  27.550   0.883
87361W        W46798  28.012  21.123   2.664
87362W        W46799  24.027  36.486  13.963
87363W        W46800  28.054  13.185   1.350
87364W        W46801  37.371  20.036   1.792
87365W        W46802  43.998  36.591   1.336
87366W        W46803  19.280  43.339   3.212
87367W        W46804   2.731  10.816   3.723
87368W        W46805  26.202  30.912  11.915
87369W        W46806   1.473   9.870  11.386
87370W        W46807  36.503   3.771  13.889
87371W        W46808  30.631  22.565  10.067
87372W        W46809  14.096  13.252   2.300
87373W        W46810  16.302  12.778  12.997
87374W        W46811  35.991   7.744  11.029
87375W        W46812  37.871  18.786  12.511
87376W        W46813   4.427  18.173  12.530
87377W        W46814  42.890  15.587   3.297
87378W        W46815  23.670  19.671  12.548
87379W        W46816  25.626  12.221   0.925
87380W        W46817  20.149  17.249  11.612
87381W        W46818  21.157   7.824  13.521
87382W        W46819  25.625   9.350   0.788
87383W        W46820  30.066  21.061  12.083
87384W        W46821  42.878  38.915   2.837
87385W        W46822  15.688  29.055   1.273
87386W        W46823   4.260  18.724  14.929
87387W        W46824   3.369  11.276  13.517
87388W        W46825   5.775  26.054  13.029
87389W        W46826  33.442  44.485  10.489
87390W        W46827  25.480  13.348   3.329
87391W        W46828  12.733  17.638   3.678
87392W        W46829  23.545  35.983  10.445
87393W        W46830   9.326  44.965  10.556
87394W        W46831  38.453  31.088  12.021
87395W        W46832  41.980  12.794  10.498
87396W        W46833  35.867  30.027  13.317
87397W        W46834   4.807  36.526   1.271
87398W        W46835  41.025  21.256   4.248
87399W        W46836  29.034  14.147   1.825
87400W        W46837  27.100  13.780   3.645
87401W        W46838  17.556  29.552  13.484
87402W        W46839  43.467  21.057   4.337
87403W        W46840  39.977  25.181   1.736
87404W        W46841  24.078  33.599   9.944
87405W        W46842  29.924  15.087   4.354
87406W        W46843  27.050  23.027  11.572
87407W        W46844  32.995  17.580   0.824
87408W        W46845  35.466  33.403  10.631
87409W        W46846  39.490  34.481   0.341
87410W        W46847  12.838  27.172   2.266
87411W        W46848  30.615  13.794  10.988
87412W        W46849  40.887  44.857   1.916
87413W        W46850  17.073   8.796  12.365
87414W        W46851  27.450  19.127   0.361
87415W        W46852   3.455  20.759   0.346
87416W        W46853  30.460  35.576  11.961
87417W        W46854  20.720  18.585  14.340
87418W        W46855  25.660   1.912  10.619
87419W        W46856  39.557  14.190  12.884
87420W        W46857  10.327  27.455  13.863
87421W        W46858  15.262  38.931  13.466
87422W        W46859  35.012  38.385   1.421
87423W        W46860  32.637  23.202  12.940
87424W        W46861  37.928   5.921  13.423
87425W        W46862  34.524  17.204   4.231
87426W        W46863   3.424  38.863   0.287
87427W        W46864  10.358  43.298  14.469
87428W        W46865   4.291   3.769  12.910
87429W        W46866  18.150   3.414   2.799
87430W        W46867  33.557  18.598   1.846
87431W        W46868  36.877  41.338   0.309
87432W        W46869  24.057  24.671  10.926
87433W        W46870  31.046  25.036   2.821
87434W        W46871   1.406  41.826   2.297
87435W        W46872  14.163  21.651  11.596
87436W        W46873  38.497   3.360   5.277
87437W        W46874   3.441   3.263   2.771
87438W        W46875  11.698  41.391  12.877
87439W        W46876   0.316  42.798   2.902
87440W        W46877   4.307  34.457  13.897
87441W        W46878  16.616  21.210  14.501
87442W        W46879  11.694   4.822   0.322
87443W        W46880  24.678  33.558   2.351
87444W        W46881  26.046  42.863   2.890
87445W        W46882  41.481  10.862  12.470
87446W        W46883  18.586  29.979   1.309
87447W        W46884  23.724  38.037   1.754
87448W        W46885  34.401  38.871   1.893
87449W        W46886   1.482   8.789   0.477
87450W        W46887  23.118  13.703  14.938
87451W        W46888  13.177   0.318   0.326
87452W        W46889  37.492   9.205   4.743
87453W        W46890  20.213  27.685   2.178
87454W        W46891  35.871  30.639   3.727
87455W        W46892  35.425  19.125   0.795
87456W        W46893   0.882  32.963  11.525
87457W        W46894   8.396  15.766   0.894
87458W        W46895  14.627  19.250  14.939
87459W        W46896   5.200  34.495   1.743
87460W        W46897  19.687  28.499   0.736
87461W        W46898   5.713   4.895  11.887
87462W        W46899   2.368  15.126   3.246
87463W        W46900  21.640  23.057   0.813
87464W        W46901   1.863   0.979  14.470
87465W        W46902  11.146  34.491   1.733
87466W        W46903  16.615  12.208   2.770
87467W        W46904  39.843   0.905  11.394
87468W        W46905   8.818  29.059  13.816
87469W        W46906  26.087  23.146  10.587
87470W        W46907  13.599  36.993   2.202
87471W        W46908  31.515  20.085   0.948
87472W        W46909   8.351  15.766   4.733
87473W        W46910  27.685   5.722   2.862
87474W        W46911  17.278  44.822  11.462
87475W        W46912  28.139   4.251  14.317
87476W        W46913  10.800  36.010   4.729
87477W        W46914  17.676   7.702   1.255
87478W        W46915   6.388  32.083   1.767
87479W        W46916  15.694  40.833  10.093
87480W        W46917   9.818  10.329   2.835
87481W        W46918   6.376  41.032  13.953
87482W        W46919   2.805  22.660  13.805
87483W        W46920  43.808  17.093   2.188
87484W        W46921  34.560   5.237  10.534
87485W        W46922  24.995  33.926   0.773
87486W        W46923  37.848  23.209  14.327
87487W        W46924  39.906  28.159  12.077
87488W        W46925  40.039  14.747  13.469
87489W        W46926  15.315  41.814   0.762
87490W        W46927  37.929  30.496   4.118
87491W        W46928  44.791  12.647  12.088
87492W        W46929   6.361  11.298  10.428
87493W        W46930  27.003  32.634   0.785
87494W        W46931  17.122  42.821   0.295
87495W        W46932  37.496   7.335   3.355
87496W        W46933   0.416   9.375  12.345
87497W        W46934  38.427  43.306   1.815
87498W        W46935  14.219  29.951   3.869
87499W        W46936  42.910   2.826  13.354
87500W        W46937  32.550  17.281  12.034
87501W        W46938  44.394  19.760  13.838
87502W        W46939  24.160   3.309   0.856
87503W        W46940  19.686  17.587   5.774
87504W        W46941   3.877  36.403  11.937
87505W        W46942  33.072   5.774  13.386
87506W        W46943  43.848   1.819   0.368
87507W        W46944   6.292   6.336   5.118
87508W        W46945  42.788  35.531   4.718
87509W        W46946   0.964  14.620   0.426
87510W        W46947   4.226  44.877  12.828
87511W        W46948   7.279   1.278  13.388
87512W        W46949  35.378   7.899  11.569
87513W        W46950  41.387  27.947   3.651
87514W        W46951  32.394  23.603   1.760
87515W        W46952  19.642   4.891  13.347
87516W        W46953  35.001  42.877   2.192
87517W        W46954   7.748  42.970  14.788
87518W        W46955  42.364  11.269  10.978
87519W        W46956   3.762  17.229  13.988
87520W        W46957   5.340  36.406   3.788
87521W        W46958   7.214  39.488  13.358
87522W        W46959  21.214  31.901  14.824
87523W        W46960  43.283   4.280   4.755
87524W        W46961   5.248  38.334  10.487
87525W        W46962   1.975  23.139   0.363
87526W        W46963  40.370  16.616   0.331
87527W        W46964  19.581  10.877  13.338
87528W        W46965  24.582  26.059  12.354
87529W        W46966  41.419  33.039  14.942
87530W        W46967  36.558  29.012   3.173
87531W        W46968   4.889  31.967   2.191
87532W        W46969  38.964  18.777  13.993
87533W        W46970  28.491   5.192  14.426
87534W        W46971  36.901  32.008   3.185
87535W        W46972  32.553   9.739  14.439
87536W        W46973  11.318  22.533   1.709
87537W        W46974  18.088  22.118  12.555
87538W        W46975  37.523  33.107   2.385
87539W        W46976   7.387   3.270   3.298
87540W        W46977  35.004  34.483  11.903
87541W        W46978  35.429  23.128  14.387
87542W        W46979  43.891  20.766   2.333
87543W        W46980  30.092  39.914  14.002
87544W        W46981  10.186  43.816  13.940
87545W        W46982  19.158  18.155   3.369
87546W        W46983  18.650  27.498   3.739
87547W        W46984  25.135   1.369   3.766
87548W        W46985   4.208  39.372   1.357
87549W        W46986  34.543  39.830  11.381
87550W        W46987  41.465   2.255   1.445
87551W        W46988  22.711  20.636  10.066
87552W        W46989  11.206   8.833   4.310
87553W        W46990  44.906  33.453   0.484
87554W        W46991  15.182  26.125   1.304
87555W        W46992   6.185  19.702  10.122
87556W        W46993  23.221  32.409   0.912
87557W        W46994   2.320  42.357   1.787
87558W        W46995  34.549  12.335   1.916
87559W        W46996  15.766  16.754  14.773
87560W        W46997  34.412  39.325  14.459
87561W        W46998  34.605  24.999   3.208
87562W        W46999  29.020  38.066   4.205
87563W        W47000   2.721   0.346   3.359
87564W        W47001  36.921  40.486  10.602
87565W        W47002   7.393  26.107  11.974
87566W        W47003  38.462  36.005   2.721
87567W        W47004  24.008  17.761   3.762
87568W        W47005  42.822  19.696   3.829
87569W        W47006  35.919  13.284   0.893
87570W        W47007  10.794   2.966  10.940
87571W        W47008  37.465  26.124   1.397
87572W        W47009  23.142  35.603   4.258
87573W        W47010   8.359  34.452  13.050
87574W        W47011  21.556  23.093   3.213
87575W        W47012   2.761  30.909   0.467
87576W        W47013  25.658  39.441  11.041
87577W        W47014  35.904  13.709   0.471
87578W        W47015  34.934  44.336   4.179
87579W        W47016   9.315  15.289  10.626
87580W        W47017  31.900  32.034  10.431
87581W        W47018  38.863  25.559   4.633
87582W        W47019  33.475  36.047  10.550
87583W        W47020  14.197  34.369  12.355
87584W        W47021  28.632   8.250   1.778
87585W        W47022  34.935  24.082   4.247
87586W        W47023  43.369  30.582   1.263
87587W        W47024  40.320  29.441  14.877
87588W        W47025  31.996   2.324  12.340
87589W        W47026   8.705  41.788   2.826
87590W        W47027   7.751  14.167  11.556
87591W        W47028  36.883  19.622   2.348
87592W        W47029  26.559  30.963   3.858
87593W        W47030   8.187  29.451   4.833
87594W        W47031   5.405  33.410   1.311
87595W        W47032  38.382  13.349   3.286
87596W        W47033  43.948  40.870  10.408
87597W        W47034   5.827   7.382  13.342
87598W        W47035  31.607   3.316   4.647
87599W        W47036   2.359  15.794   1.926
87600W        W47037  12.705  21.521  12.046
87601W        W47038  30.156  44.322   1.370
87602W        W47039  35.581  25.180  12.447
87603W        W47040  35.079  14.103  13.485
87604W        W47041  40.397  39.380   4.759
87605W        W47042  21.213  26.990   4.599
87606W        W47043  42.009   5.725  11.079
87607W        W47044  33.542  25.071   4.709
87608W        W47045  15.292  24.635  10.619
87609W        W47046  17.072  30.654  13.960
87610W        W47047  38.404   4.229   1.320
87611W        W47048  41.885  26.151  10.912
87612W        W47049  39.408  25.696  11.928
87613W        W47050   5.374  30.567  12.907
87614W        W47051  13.305  10.317  11.910
87615W        W47052  42.466  43.013  12.854
87616W        W47053  22.167  11.305  12.341
87617W        W47054  40.344  32.896   0.816
87618W        W47055  37.477   0.273  13.511
87619W        W47056  31.999   5.424   2.243
87620W        W47057  32.138   5.361   3.262
87621W        W47058  11.158  22.516  13.335
87622W        W47059   9.391  43.443   1.214
87623W        W47060  11.752   9.827  12.483
87624W        W47061   7.371  42.019   1.794
87625W        W47062   7.734  12.282  11.599
87626W        W47063   5.917  23.162  14.366
87627W        W47064   1.793  16.773  11.567
87628W        W47065  32.509  15.103   4.816
87629W        W47066  33.493  11.773   3.252
87630W        W47067   4.798  27.176  14.429
87631W        W47068   0.410  15.726   3.835
87632W        W47069  44.478  25.571  11.930
87633W        W47070  36.893  30.444  14.868
87634W        W47071  34.089  18.722  14.448
87635W        W47072   8.186  32.620   1.309
87636W        W47073  33.439  12.655  14.822
87637W        W47074  42.914   0.262  13.946
87638W        W47075  34.892  43.865  12.019
87639W        W47076  36.088  27.122  13.854
87640W        W47077  24.665   9.352   9.950
87641W        W47078   0.922  38.963   1.416
87642W        W47079   0.411   9.361   2.703
87643W        W47080  29.571  25.119  14.435
87644W        W47081  43.891  13.645   4.226
87645W        W47082  37.579  30.472  11.604
87646W        W47083  15.150  34.405  13.800
87647W        W47084  29.530   8.271  14.863
87648W        W47085  36.514   2.367   4.300
87649W        W47086   3.739  28.030   1.726
87650W        W47087  40.403  26.198  12.497
87651W        W47088  40.402   2.735   4.256
87652W        W47089  24.038  33.102   4.811
87653W        W47090   1.406  15.264  10.422
87654W        W47091  12.126  35.491   2.890
87655W        W47092   5.336  32.632  14.871
87656W        W47093  42.413  28.567  14.828
87657W        W47094  35.866   4.725  12.895
87658W        W47095  42.861  43.372   4.323
87659W        W47096  23.155  11.784  11.028
87660W        W47097   1.427  44.393  14.351
87661W        W47098   1.966  43.887  14.440
87662W        W47099  27.617  12.143   2.702
87663W        W47100   9.853  40.862  12.883
87664W        W47101   7.257  24.650   3.869
87665W        W47102  34.104  22.591  14.948
87666W        W47103  42.972   2.274   0.910
87667W        W47104  31.534  20.546  13.517
87668W        W47105  39.062  23.023   3.803
87669W        W47106   0.839   3.748   0.310
87670W        W47107  42.319  36.373   1.240
87671W        W47108  31.596   5.376  10.926
87672W        W47109  24.115  25.990   2.189
87673W        W47110  19.079  40.437   3.173
87674W        W47111  33.451  20.602  14.816
87675W        W47112  41.792  12.795   2.338
87676W        W47113  18.772   4.834  13.051
87677W        W47114   3.393  17.195   5.186
87678W        W47115  32.477  42.974   1.890
87679W        W47116  34.461  36.899   2.668
87680W        W47117   9.170  22.617   0.475
87681W        W47118   7.180  40.839  11.898
87682W        W47119  14.215  28.937  11.589
87683W        W47120  42.804  44.972   1.239
87684W        W47121  29.043  27.508   4.754
87685W        W47122   2.734  26.016   1.232
87686W        W47123  38.402  11.791  10.887
87687W        W47124  18.213  17.249  14.914
87688W        W47125  38.336  20.737  12.931
87689W        W47126  29.549  28.946  11.570
87690W        W47127  39.032  24.664  12.913
87691W        W47128  39.062  24.550   4.221
87692W        W47129  27.102  28.027  12.373
87693W        W47130  40.434  27.651   3.374
87694W        W47131  13.178  29.127  10.939
87695W        W47132   0.770   4.787   0.391
87696W        W47133  30.045   3.293  11.611
87697W        W47134  34.473  22.166  11.991
87698W        W47135  25.028   1.330  11.381
87699W        W47136  31.494  42.895   4.729
87700W        W47137   2.845  23.601  11.114
87701W        W47138  42.376  15.139   0.475
87702W        W47139  27.678  40.428   0.251
87703W        W47140   7.267  42.480  12.999
87704W        W47141  10.219  32.031  14.882
87705W        W47142   7.410  37.086  12.073
87706W        W47143  12.690  35.422  12.875
87707W        W47144  31.609   7.219  13.023
87708W        W47145  43.870  17.584  11.436
87709W        W47146  11.790  24.707  10.107
87710W        W47147  28.072  38.325   3.802
87711W        W47148   9.328  28.487  12.035
87712W        W47149  17.713  20.188  13.022
87713W        W47150  28.140   3.758   4.743
87714W        W47151  35.412  14.685   1.776
87715W        W47152  38.953  22.204  14.764
87716W        W47153  16.293  33.931  11.118
87717W        W47154   0.413   8.176  14.804
87718W        W47155  38.935  36.960   2.340
87719W        W47156  24.079   1.879   1.763
87720W        W47157   2.928  29.664  13.911
87721W        W47158  17.219  41.952   4.686
87722W        W47159  33.463  18.667   0.947
87723W        W47160   6.920  13.191  12.909
87724W        W47161  32.565  31.147  13.806
87725W        W47162  36.375  25.116   4.737
87726W        W47163  25.999  19.195  14.774
87727W        W47164   6.323  31.509   2.678
87728W        W47165  36.045  37.075  14.792
87729W        W47166  34.916  34.567   4.340
87730W        W47167  39.936   3.882  12.441
87731W        W47168  23.207   9.287   1.249
87732W        W47169  33.473   2.291   1.425
87733W        W47170  19.698  23.652   1.852
87734W        W47171  42.791  21.537   3.304
87735W        W47172   7.687   1.786  12.437
87736W        W47173  35.462  18.781   1.882
87737W        W47174  10.736  40.349  11.503
87738W        W47175  26.990  44.874   4.637
87739W        W47176  19.243  21.707  11.459
87740W        W47177   8.768  15.163   0.405
87741W        W47178  42.374  22.104  11.870
87742W        W47179  43.421  12.644  10.895
87743W        W47180  21.634  17.089   0.881
87744W        W47181  17.198  35.526   2.231
87745W        W47182  37.036  18.248   3.800
87746W        W47183   0.893  11.136   4.698
87747W        W47184  42.816   6.738   3.349
87748W        W47185  20.111  27.569  12.570
87749W        W47186  18.191   9.150   4.162
87750W        W47187  41.035  36.844   3.217
87751W        W47188  25.485  36.912  11.870
87752W        W47189  31.522   7.807  11.419
87753W        W47190  23.544   0.304  12.478
87754W        W47191   9.166  10.296   4.758
87755W        W47192  28.678   5.397  10.956
87756W        W47193   6.252  15.659   4.654
87757W        W47194   1.955  19.738  13.883
87758W        W47195  17.639  38.005  12.083
87759W        W47196  30.532  40.451   1.359
87760W        W47197  40.861   2.378  14.816
87761W        W47198  29.613  14.244   0.432
87762W        W47199  14.166  21.210   3.236
87763W        W47200   9.731   1.361   4.173
87764W        W47201  43.990   0.846  14.487
87765W        W47202  42.326  13.797   3.655
87766W        W47203   0.494   0.823  14.794
87767W        W47204   4.726  16.277   3.652
87768W        W47205  40.335  30.056   0.321
87769W        W47206  24.717  37.376  10.457
87770W        W47207  42.445  38.359  12.049
87771W        W47208   3.732   9.674   0.847
87772W        W47209  10.204  31.151  12.858
87773W        W47210  31.559  38.527  14.333
87774W        W47211  39.434  17.181  10.589
87775W        W47212  23.097  22.554  14.487
87776W        W47213  23.116   8.376  13.400
87777W        W47214   9.214  29.962   2.281
87778W        W47215  19.090   3.846   0.755
87779W        W47216  14.277  18.737   1.885
87780W        W47217   1.288  33.880   3.705
87781W        W47218  43.848   6.732  13.041
87782W        W47219  32.927  22.505   4.210
87783W        W47220  22.020   3.359  14.865
87784W        W47221  18.244  40.847  12.481
87785W        W47222   6.913  28.176   2.277
87786W        W47223  19.723  11.843   0.911
87787W        W47224  20.557  15.123  11.953
87788W        W47225   3.799  13.197  13.878
87789W        W47226  44.317   9.825   3.636
87790W        W47227   6.212  28.594   1.247
87791W        W47228  25.573   2.873  11.898
87792W        W47229  22.684  21.117  14.489
87793W        W47230  25.667   2.354  10.530
87794W        W47231  35.374  22.723  11.012
87795W        W47232   7.348  39.408   1.929
87796W        W47233  38.472  38.417   4.180
87797W        W47234   9.824  19.140  14.284
87798W        W47235  30.626  24.994  14.874
87799W        W47236  25.144  38.529   1.259
87800W        W47237  42.414  19.226   4.246
87801W        W47238  15.151  25.561   1.351
87802W        W47239  31.076   3.352   4.289
87803W        W47240   9.748  10.753   1.931
87804W        W47241  40.904   7.332   4.598
87805W        W47242  40.391  23.053  13.055
87806W        W47243  29.948  22.158  14.938
87807W        W47244  44.974  38.365   0.797
87808W        W47245  26.107  10.827  14.389
87809W        W47246  15.111   1.373  10.543
87810W        W47247  43.857  25.997  13.517
87811W        W47248  42.949  21.169   4.742
87812W        W47249  35.089   0.339   1.419
87813W        W47250  26.059  22.562   4.696
87814W        W47251  39.022  30.060   1.867
87815W        W47252  37.858  37.928   2.268
87816W        W47253   0.430  39.524  12.927
87817W        W47254  30.070  20.694   9.987
87818W        W47255  27.138  24.077   1.279
87819W        W47256  15.729  12.618   2.209
87820W        W47257  14.747  26.150  10.551
87821W        W47258  13.204  43.018  13.414
87822W        W47259  35.451  42.021   0.834
87823W        W47260  26.530  21.665  11.972
87824W        W47261  44.296   8.170  12.861
87825W        W47262  11.266  32.633  13.819
87826W        W47263   5.357  10.333  14.375
87827W        W47264  32.538  17.164   0.879
87828W        W47265  11.159   3.305   2.862
87829W        W47266   3.817  30.145  13.435
87830W        W47267  15.328  37.875  12.882
87831W        W47268   1.869  11.757   2.305
87832W        W47269  29.478  40.419   3.325
87833W        W47270  15.120   8.670  12.434
87834W        W47271  24.018  38.897   2.705
87835W        W47272  32.056  35.362  14.861
87836W        W47273  42.356  14.625   1.892
87837W        W47274   1.959  11.176  13.933
87838W        W47275  12.751  35.905   2.358
87839W        W47276  21.639  18.609  13.021
87840W        W47277  15.089  14.105   3.289
87841W        W47278  23.595  40.548  10.971
87842W        W47279   4.290   5.298   4.327
87843W        W47280  28.564  18.126  12.493
87844W        W47281  15.310  19.748  11.536
87845W        W47282  27.050  22.587  11.518
87846W        W47283  20.733  30.551  11.557
87847W        W47284   8.662   0.945   3.714
87848W        W47285  18.179  34.435  13.464
87849W        W47286   5.401   4.859   3.869
87850W        W47287  25.196  15.600   9.628
87851W        W47288  14.753  37.010   3.757
87852W        W47289  17.668  43.288  14.422
87853W        W47290  36.459  34.089   0.296
87854W        W47291   2.817  24.097  12.549
87855W        W47292  24.166  30.591   5.230
87856W        W47293  27.506  21.670  10.982
87857W        W47294  30.498   3.250   1.322
87858W        W47295  22.704  41.883  14.881
87859W        W47296  18.627  16.622   2.762
87860W        W47297  41.897  42.527   2.855
87861W        W47298  14.305  28.538  13.981
87862W        W47299  34.579  41.816   2.723
87863W        W47300   9.833   2.780   2.297
87864W        W47301  34.566  22.602  13.024
87865W        W47302  35.005  40.984   3.798
87866W        W47303   8.240  25.011  11.516
87867W        W47304   4.258  27.000   1.758
87868W        W47305  41.426  30.539  14.432
87869W        W47306  18.686   2.280   1.816
87870W        W47307   5.716  20.127   3.191
87871W        W47308  22.628  42.378  10.559
87872W        W47309  19.113  12.685   4.678
87873W        W47310  44.899  34.409  14.980
87874W        W47311  15.784  10.161  10.501
87875W        W47312  29.513  26.156  11.005
87876W        W47313  17.301  43.357  12.534
87877W        W47314  33.458  20.670   4.132
87878W        W47315  21.035  42.409   3.160
87879W        W47316   4.730  15.167   1.350
87880W        W47317  11.319   9.220   1.356
87881W        W47318  18.623   4.435  11.465
87882W        W47319  37.918  12.678  13.959
87883W        W47320  35.535   2.405   3.679
87884W        W47321  18.161   0.403  13.404
87885W        W47322   7.300  17.217   2.234
87886W        W47323  24.091  10.853   4.764
87887W        W47324  27.533   7.175   3.232
87888W        W47325  22.688   8.199   2.690
87889W        W47326  13.195  32.630   2.847
87890W        W47327  12.668   9.658   1.249
87891W        W47328  16.650  32.084   2.810
87892W        W47329   3.458   7.908  13.989
87893W        W47330  44.322  26.162  13.355
87894W        W47331   1.907  39.331   5.254
87895W        W47332  26.951  38.880   1.856
87896W        W47333  40.350   5.347  13.890
87897W        W47334  17.654  34.115  12.060
87898W        W47335  38.342   2.336   0.911
87899W        W47336  25.540   3.277   3.684
87900W        W47337  38.357  19.163  13.315
87901W        W47338  15.629  28.583  13.921
87902W        W47339   9.305  44.905   1.250
87903W        W47340  19.641   4.907  11.860
87904W        W47341  27.526  42.478   4.116
87905W        W47342  11.838  27.142   3.183
87906W        W47343   7.816   7.405  10.413
87907W        W47344   7.810  43.977  14.279
87908W        W47345  28.177  30.126  14.768
87909W        W47346  35.423  16.739  12.905
87910W        W47347   9.689  44.863   0.856
87911W        W47348  11.269  18.248  14.449
87912W        W47349  16.116  20.617   3.365
87913W        W47350   4.325  29.037   2.200
87914W        W47351  37.475   2.458   0.855
87915W        W47352  19.200  28.441  11.605
87916W        W47353  13.167  16.272  12.375
87917W        W47354  15.175  10.364   3.338
87918W        W47355  44.905  40.994   9.560
87919W        W47356   2.313  42.913  12.859
87920W        W47357  35.499  18.738   4.260
87921W        W47358  27.028  30.551  10.431
87922W        W47359  24.663  16.651  11.877
87923W        W47360  39.962  15.293  13.981
87924W        W47361  31.600  39.552   5.768
87925W        W47362  24.001  23.997   2.715
87926W        W47363   6.766  25.047  13.800
87927W        W47364   7.253  14.150  10.982
87928W        W47365  26.663  39.389  10.941
87929W        W47366  38.967  16.657   0.887
87930W        W47367   2.313  24.198  11.942
87931W        W47368  42.892  34.532  13.985
87932W        W47369   8.236   0.315   1.730
87933W        W47370   5.801   6.791   0.845
87934W        W47371  43.436  31.143  13.938
87935W        W47372  42.304  12.831  10.596
87936W        W47373   9.294   2.821  10.959
87937W        W47374   9.245  43.961   4.807
87938W        W47375  17.790  43.445   2.299
87939W        W47376  31.046  35.380   4.612
87940W        W47377  25.632  41.384  11.960
87941W        W47378   2.762  35.949   0.897
87942W        W47379   1.773  28.006   3.830
87943W        W47380   8.372  12.168   1.843
87944W        W47381  14.295  21.019  10.915
87945W        W47382   5.777  42.883  14.493
87946W        W47383  21.175  14.275   4.328
87947W        W47384  43.958  25.710   4.652
87948W        W47385  23.163   2.754  12.384
87949W        W47386  27.451  42.391  13.986
87950W        W47387   7.209  17.612   1.776
87951W        W47388  35.002  12.760   1.825
87952W        W47389  11.249  26.471   4.173
87953W        W47390  22.243  44.969   0.445
87954W        W47391   4.357  22.535  14.274
87955W        W47392  15.652  26.656  12.495
87956W        W47393  39.348  11.355  13.337
87957W        W47394  18.059   6.921  14.996
87958W        W47395  31.513   6.197   4.175
87959W        W47396   7.413  34.099  14.898
87960W        W47397   3.745  22.567  13.469
87961W        W47398  15.811  34.078  14.456
87962W        W47399  10.751  15.190  14.930
87963W        W47400   6.720  31.110  11.387
87964W        W47401  38.833  31.114  11.404
87965W        W47402  19.236   2.260   4.205
87966W        W47403   9.343  15.680  10.911
87967W        W47404  34.392  19.565  10.451
87968W        W47405  44.351  25.498  11.541
87969W        W47406  22.635  17.672   1.700
87970W        W47407  22.708  12.138  13.400
87971W        W47408  11.353  18.638   2.801
87972W        W47409  35.074  10.153  13.858
87973W        W47410   6.696  25.469   2.745
87974W        W47411  25.615  38.542   1.390
87975W        W47412   0.394   1.429  10.926
87976W        W47413  34.591  10.305   4.838
87977W        W47414  35.422  40.968  12.874
87978W        W47415  23.518  29.046  10.494
87979W        W47416  25.551   9.800  14.408
87980W        W47417  35.939  25.154   1.255
87981W        W47418  19.194   4.790  11.871
87982W        W47419  26.198  19.207  13.064
87983W        W47420   9.807  20.682   0.416
87984W        W47421  25.694  21.032   1.431
87985W        W47422  35.088  23.502  12.859
87986W        W47423  18.132  30.132   0.788
87987W        W47424  37.934  12.738   0.364
87988W        W47425   7.870  32.427   1.727
87989W        W47426  19.569  31.442   0.881
87990W        W47427   3.934  30.554  14.862
87991W        W47428   5.400  19.217   3.761
87992W        W47429  42.796  39.515  12.510
87993W        W47430  27.585   1.397  11.061
87994W        W47431  41.430  17.612  12.866
87995W        W47432   2.833  35.418  13.953
87996W        W47433  40.515   8.705  11.392
87997W        W47434   1.936  29.951  13.428
87998W        W47435  34.993  35.979   4.785
87999W        W47436   4.359  34.492  11.014
88000W        W47437  43.395  19.591   3.222
88001W        W47438  43.996  11.295  13.449
88002W        W47439  23.084  21.202   4.663
88003W        W47440   2.912  41.039  11.391
88004W        W47441   9.795   9.722  11.532
88005W        W47442  27.514  25.985   0.787
88006W        W47443   1.896  44.284   3.326
88007W        W47444  37.513   2.273  12.511
88008W        W47445  28.584  17.101   2.210
88009W        W47446  30.555  10.771   3.868
88010W        W47447  35.939   8.160  12.430
88011W        W47448  21.102  42.432   1.292
88012W        W47449   3.884  36.015  14.007
88013W        W47450  10.345  41.828  14.797
88014W        W47451  34.904   4.750   5.317
88015W        W47452  44.415  19.226   0.798
88016W        W47453  37.432  11.254   3.860
88017W        W47454  10.223  28.480   4.154
88018W        W47455   6.914  28.461  12.999
88019W        W47456  18.243  34.510   2.385
88020W        W47457  14.330  16.242  12.047
88021W        W47458  28.122  12.716  13.029
88022W        W47459  39.463  40.044   0.382
88023W        W47460  31.043   5.319   2.778
88024W        W47461  13.731  11.352  13.872
88025W        W47462  41.822   6.425  11.099
88026W        W47463  21.064   2.859   3.369
88027W        W47464  39.822  41.426   4.158
88028W        W47465  36.540   6.843  11.910
88029W        W47466  43.906  12.685  10.406
88030W        W47467   7.697  29.425   3.295
88031W        W47468   4.306   3.811  12.353
88032W        W47469  25.510   3.372   4.268
88033W        W47470  31.058   9.249   4.668
88034W        W47471   3.405   6.761  13.056
88035W        W47472  19.750   1.849   1.827
88036W        W47473  24.193  44.812   1.808
88037W        W47474  25.538  42.971  14.374
88038W        W47475  27.100  24.608   9.495
88039W        W47476  44.953   8.160   1.866
88040W        W47477  20.147  37.350   3.672
88041W        W47478  27.066  20.163   1.896
88042W        W47479  21.619  23.680  13.502
88043W        W47480  25.501  38.402  11.031
88044W        W47481  31.076  38.968   4.714
88045W        W47482  37.987  19.265  10.924
88046W        W47483  35.908  28.473   0.943
88047W        W47484  30.462  19.155  14.444
88048W        W47485  32.465  30.126  14.510
88049W        W47486  42.912   2.737   1.376
88050W        W47487  16.104  22.106   4.810
88051W        W47488  33.977  14.642   3.694
88052W        W47489  31.637  21.669  10.638
88053W        W47490   2.811  10.772   0.815
88054W        W47491  33.441  32.424  11.867
88055W        W47492  10.376  14.309  12.021
88056W        W47493   4.704  34.390   2.709
88057W        W47494  27.064  21.745   0.319
88058W        W47495  36.085   5.207  12.567
88059W        W47496  13.727   4.364  12.987
88060W        W47497   3.902  37.960   2.315
88061W        W47498  32.418  21.147  13.313
88062W        W47499  35.037   5.860   4.819
88063W        W47500  30.450   4.834   1.421
88064W        W47501  32.089  21.252  14.497
88065W        W47502  44.935  22.108   4.289
88066W        W47503  11.805  30.915  12.393
88067W        W47504  27.046  40.461   2.843
88068W        W47505  23.650  42.458  11.431
88069W        W47506   0.384   6.287   2.898
88070W        W47507  30.034  28.515   2.770
88071W        W47508  18.231  24.148   0.766
88072W        W47509  10.316   2.430  14.872
88073W        W47510   8.396  22.072  12.447
88074W        W47511   9.284  29.100   0.881
88075W        W47512  34.932  19.761   5.317
88076W        W47513  32.995  13.648   3.319
88077W        W47514  10.674  31.479  11.571
88078W        W47515  15.085  36.437  14.444
88079W        W47516  13.105  43.979   1.426
88080W        W47517  28.954  39.419  12.060
88081W        W47518  13.751  12.349  11.083
88082W        W47519  30.476  11.800   1.777
88083W        W47520   3.709   3.341  13.399
88084W        W47521  26.128  10.859  11.502
88085W        W47522  17.100  32.955  11.061
88086W        W47523  24.110  21.221  13.933
88087W        W47524  42.016  10.748  10.521
88088W        W47525  14.631  42.431   5.763
88089W        W47526  16.804   5.924   3.727
88090W        W47527   3.747  42.866  11.063
88091W        W47528   1.835  39.818  13.972
88092W        W47529  19.274  18.769  10.009
88093W        W47530  27.490  11.343  14.405
88094W        W47531  17.155  31.924   2.697
88095W        W47532  42.434  15.684  14.841
88096W        W47533   2.366  27.471   1.376
88097W        W47534  10.771  12.261  10.550
88098W        W47535  29.060  37.579  14.422
88099W        W47536  23.232  10.352   4.299
88100W        W47537  27.159  29.125   4.238
88101W        W47538  41.945  21.254  12.085
88102W        W47539  26.654  25.120  12.577
88103W        W47540  25.677  23.533  14.347
88104W        W47541  30.542  10.698  10.507
88105W        W47542  30.977  41.921  14.852
88106W        W47543  37.450  25.125   1.797
88107W        W47544  30.550  16.734   0.864
88108W        W47545  40.882  10.250  10.937
88109W        W47546  13.660  14.165   4.308
88110W        W47547  29.453   0.865  10.919
88111W        W47548  20.231   4.205  10.621
88112W        W47549   8.778   7.903  11.453
88113W        W47550  36.879  37.906   2.208
88114W        W47551   3.892  13.148   9.659
88115W        W47552  32.592  37.838   0.908
88116W        W47553  21.665  14.221   1.875
88117W        W47554  34.981   1.893  13.954
88118W        W47555   1.295   7.212  10.505
88119W        W47556  37.397  32.039  13.464
88120W        W47557  36.516  26.637  10.564
88121W        W47558  19.614   0.355   1.440
88122W        W47559  18.195  15.705  13.361
88123W        W47560  29.934  11.239  10.579
88124W        W47561  22.628  30.143   0.946
88125W        W47562   0.827  37.508   3.352
88126W        W47563  13.149  16.800   3.376
88127W        W47564  12.193  23.624  12.997
88128W        W47565  24.693  29.534  13.309
88129W        W47566   8.231  26.592  11.406
88130W        W47567  23.698  39.970  11.462
88131W        W47568  39.365  43.846  14.942
88132W        W47569  32.599  40.842  11.902
88133W        W47570  12.707  34.600  11.538
88134W        W47571   6.398  11.229   4.213
88135W        W47572  27.012   9.757  12.958
88136W        W47573  10.348  36.511  14.893
88137W        W47574  32.943  39.323   1.879
88138W        W47575  29.464  28.155  14.849
88139W        W47576  18.758  41.489   1.308
88140W        W47577  19.693  33.990   3.737
88141W        W47578   5.801   5.824   4.262
88142W        W47579  15.739  13.193   1.778
88143W        W47580  35.885   3.436   3.730
88144W        W47581  33.014   2.444   2.376
88145W        W47582   0.868  43.326  11.951
88146W        W47583  16.137   9.324  12.897
88147W        W47584  39.401   7.237   0.874
88148W        W47585  28.593   0.343   1.446
88149W        W47586  31.005   4.770  13.044
88150W        W47587  33.913   3.307   0.342
88151W        W47588  15.615  20.199  11.873
88152W        W47589  13.772  22.591  12.969
88153W        W47590  20.192  37.976   1.694
88154W        W47591  13.717  10.869  10.467
88155W        W47592   8.180  44.359   1.721
88156W        W47593   8.295  19.127  13.813
88157W        W47594  42.366  31.921  11.979
88158W        W47595  40.830  37.405  11.062
88159W        W47596  30.633  36.856  12.528
88160W        W47597  14.736  37.978   2.781
88161W        W47598  42.875  29.031   1.863
88162W        W47599  14.750  30.561  14.029
88163W        W47600  39.819  40.824  11.507
88164W        W47601  16.139   9.771   3.635
88165W        W47602  22.583   4.902   3.869
88166W        W47603  31.556  26.007   2.247
88167W        W47604  25.138  34.076  11.558
88168W        W47605  23.703  10.787   2.327
88169W        W47606  17.106  21.540  11.551
88170W        W47607  25.205  43.463   0.380
88171W        W47608  10.166  16.629   4.163
88172W        W47609  15.294   2.398   1.929
88173W        W47610  40.022  32.444  13.488
88174W        W47611  16.093  32.907   4.332
88175W        W47612  27.543  40.429  13.992
88176W        W47613  18.643  40.354  13.989
88177W        W47614  19.685  41.838  11.563
88178W        W47615  20.244  44.501   1.719
88179W        W47616  37.974  34.406  10.443
88180W        W47617   1.799   5.236   3.237
88181W        W47618  31.561  33.594   0.793
88182W        W47619  37.946   4.889  11.883
88183W        W47620  35.401   1.773   3.195
88184W        W47621  31.555  21.046   4.279
88185W        W47622   3.756  26.030   1.812
88186W        W47623   3.244  12.255   1.364
88187W        W47624  39.975  25.994  14.891
88188W        W47625  11.659  41.981  11.116
88189W        W47626  16.080  25.636  12.352
88190W        W47627   9.392  39.531  14.856
88191W        W47628  21.659  34.490  11.887
88192W        W47629  15.712  41.374  10.062
88193W        W47630  21.087   4.423  12.542
88194W        W47631  42.508   1.313   0.292
88195W        W47632   1.429  22.704   1.856
88196W        W47633  43.360   4.879  12.905
88197W        W47634   1.473  41.004  13.465
88198W        W47635   0.772  20.035   2.350
88199W        W47636  43.880  23.021  11.024
88200W        W47637  38.348  36.403   4.276
88201W        W47638  12.223  34.926  14.832
88202W        W47639  16.773  13.821  13.362
88203W        W47640   8.775  16.647  11.400
88204W        W47641  27.092  13.121  14.428
88205W        W47642  27.616  22.226   0.729
88206W        W47643  25.032  25.106  12.530
88207W        W47644  20.539  41.347  12.011
88208W        W47645  11.151  23.560   0.754
88209W        W47646  19.577  36.516  11.531
88210W        W47647   2.321   6.856  14.473
88211W        W47648  34.112  43.935  13.012
88212W        W47649   5.889   1.439  10.969
88213W        W47650  29.633  35.976  12.356
88214W        W47651   5.717  13.709  12.867
88215W        W47652  16.625  36.004  14.512
88216W        W47653  16.707  39.420  13.548
88217W        W47654  14.227   2.344   0.964
88218W        W47655   7.389  26.529  12.935
88219W        W47656  17.217  31.569   0.435
88220W        W47657  43.472  38.425  14.418
88221W        W47658   2.768  36.586   1.402
88222W        W47659  16.707  25.581   0.398
88223W        W47660  17.117  40.478  12.451
88224W        W47661  18.105  28.041  10.574
88225W        W47662  10.247   6.744  13.881
88226W        W47663  26.683  37.938  14.349
88227W        W47664   3.725  43.492   3.352
88228W        W47665  29.017  18.231  10.510
88229W        W47666  28.053   3.888   3.658
88230W        W47667  30.988  30.602   0.459
88231W        W47668  28.524   3.421   3.246
88232W        W47669  39.465   0.978   4.770
88233W        W47670   7.794  17.593   1.306
88234W        W47671  43.438  28.979  11.960
88235W        W47672  23.636  25.965   3.784
88236W        W47673  38.842  19.167   0.933
88237W        W47674  37.495  25.645   4.656
88238W        W47675   3.776  29.990  13.980
88239W        W47676  32.063  35.037   0.937
88240W        W47677  37.039  11.856  11.400
88241W        W47678  27.457  20.064  13.417
88242W        W47679  14.672  29.114  10.420
88243W        W47680  37.484  28.657  11.884
88244W        W47681  19.223  43.767  12.527
88245W        W47682  33.991  18.777   1.257
88246W        W47683  31.068  37.857   2.410
88247W        W47684  21.569  32.510   0.858
88248W        W47685  17.231  27.016   9.953
88249W        W47686  11.787  31.150   3.287
88250W        W47687   4.267  12.646  11.005
88251W        W47688  18.720   1.248  14.284
88252W        W47689  15.167  43.445   4.302
88253W        W47690  29.140  30.578  10.449
88254W        W47691  22.741  42.957  11.916
88255W        W47692   6.876   4.835  13.958
88256W        W47693   1.838  38.515   1.931
88257W        W47694  29.086  24.566   1.740
88258W        W47695  15.810   3.243   4.218
88259W        W47696  40.945  21.589   0.730
88260W        W47697  19.126  18.238   3.731
88261W        W47698  31.618  23.664   1.745
88262W        W47699   9.298  41.955  13.054
88263W        W47700  39.950  34.948   1.227
88264W        W47701   8.890  31.497   1.920
88265W        W47702  28.984  26.015  11.497
88266W        W47703  19.675   0.459  10.055
88267W        W47704  42.480  12.664  14.379
88268W        W47705  24.706  33.400  12.886
88269W        W47706  40.356   7.912   1.307
88270W        W47707  13.776  44.434  11.105
88271W        W47708  26.121   9.884   1.808
88272W        W47709  38.074   0.924   2.251
88273W        W47710  27.488   0.926   3.641
88274W        W47711  27.963  13.105   0.409
88275W        W47712  37.038  20.676   4.119
88276W        W47713  32.124  19.149   3.693
88277W        W47714  34.085  22.011   2.864
88278W        W47715  35.460   4.773  12.449
88279W        W47716  22.050  38.014  14.458
88280W        W47717  35.456   5.409  12.539
88281W        W47718  23.621  13.242  14.968
88282W        W47719   1.439   3.896  10.553
88283W        W47720  24.032  14.664  10.151
88284W        W47721   8.209  32.507   3.307
88285W        W47722  21.692  26.577  10.015
88286W        W47723  44.357  42.402  13.418
88287W        W47724  44.923  12.747   1.426
88288W        W47725  31.443  42.425  12.871
88289W        W47726  11.810  17.791   1.718
88290W        W47727  15.208  25.078  11.600
88291W        W47728  35.095  30.994   0.310
88292W        W47729   2.358  21.654  12.501
88293W        W47730  44.829  32.020   2.289
88294W        W47731   7.843  25.646   1.742
88295W        W47732  26.990  39.844   0.437
88296W        W47733  22.586  13.168   1.347
88297W        W47734   8.274   2.241   1.835
88298W        W47735  38.469  13.273   2.186
88299W        W47736  39.957   1.787   1.806
88300W        W47737  31.027  19.176   3.852
88301W        W47738  30.094   0.291  12.472
88302W        W47739   9.756  24.066  10.629
88303W        W47740  30.966  33.476  11.923
88304W        W47741  22.710  11.775   1.298
88305W        W47742  26.027  12.707  11.968
88306W        W47743  39.393  40.892   2.703
88307W        W47744  38.850  17.169   2.346
88308W        W47745  19.539  16.625  13.928
88309W        W47746   2.425  13.838   0.948
88310W        W47747  32.890  14.806   0.309
88311W        W47748  26.115   8.720  14.394
88312W        W47749  35.426   7.751   2.328
88313W        W47750   7.240  14.660   3.364
88314W        W47751  41.928  43.335  11.016
88315W        W47752  33.529  19.586   1.740
88316W        W47753  21.106  30.933   0.242
88317W        W47754   0.379  14.278   2.331
88318W        W47755  22.105   5.872  11.038
88319W        W47756  39.030  31.606   2.820
88320W        W47757  32.599   4.903  12.349
88321W        W47758   5.361  13.801  13.830
88322W        W47759  28.103  18.548  12.983
88323W        W47760   0.927  16.805   3.285
88324W        W47761  20.635  37.861   3.661
88325W        W47762  15.746   2.913   0.458
88326W        W47763  20.234   5.885   2.179
88327W        W47764  33.396   8.256   0.843
88328W        W47765  18.750  31.040  13.013
88329W        W47766   8.281  39.971  12.515
88330W        W47767  31.619  18.148   2.668
88331W        W47768  16.721  22.566   4.248
88332W        W47769   7.380   3.307   0.838
88333W        W47770  28.997  37.083  14.391
88334W        W47771   7.294  21.195  14.280
88335W        W47772  12.162  32.397   3.811
88336W        W47773  31.091   1.340  11.418
88337W        W47774  20.044   6.278   9.989
88338W        W47775  11.327  40.386   3.305
88339W        W47776  38.037  15.642  11.903
88340W        W47777  43.496  26.584  13.527
88341W        W47778  40.033  34.377   0.729
88342W        W47779   1.367  39.450  13.526
88343W        W47780  11.195  17.687  12.941
88344W        W47781  29.175  31.502  10.499
88345W        W47782  24.995   6.839   2.201
88346W        W47783  25.686  26.007   1.211
88347W        W47784  10.744  42.435  11.553
88348W        W47785  39.416   0.939  14.473
88349W        W47786   4.846  25.550   0.421
88350W        W47787  18.227   8.700   0.446
88351W        W47788  12.665   8.251   1.414
88352W        W47789  15.298  31.028   0.391
88353W        W47790  12.687  29.651   3.764
88354W        W47791  24.611  21.068  13.392
88355W        W47792  27.497  36.901   3.761
88356W        W47793  36.942   0.286  14.993
88357W        W47794  26.021  35.546  11.949
88358W        W47795  16.810  35.871   4.694
88359W        W47796   0.412  44.953   3.662
88360W        W47797  21.247   3.711   0.322
88361W        W47798  30.449  20.682  14.001
88362W        W47799  16.212   9.871  14.358
88363W        W47800  22.507  28.648  11.038
88364W        W47801  41.868  15.781   4.196
88365W        W47802  10.846  13.139  13.523
88366W        W47803  11.749  39.820   2.404
88367W        W47804  19.258  36.578  10.601
88368W        W47805   3.245  12.260  11.388
88369W        W47806   8.209   4.283  11.881
88370W        W47807  12.655  28.500   0.950
88371W        W47808   9.190  12.210  13.924
88372W        W47809  18.752  12.638   1.705
88373W        W47810  10.640   9.341  14.490
88374W        W47811   9.275  16.308  12.968
88375W        W47812   3.893  35.505   0.895
88376W        W47813  30.609  37.541   1.788
88377W        W47814  29.462   3.280   0.456
88378W        W47815  11.156  31.982  11.495
88379W        W47816  12.837   4.760   2.665
88380W        W47817  13.681  17.294   1.839
88381W        W47818   7.186  37.848  12.474
88382W        W47819  32.509  33.532  10.106
88383W        W47820  40.479  41.016  12.577
88384W        W47821  33.057  17.790  14.910
88385W        W47822  33.933  23.654  14.344
88386W        W47823  13.766  42.871   0.425
88387W        W47824   4.401  30.458  13.404
88388W        W47825  37.079  28.565  14.838
88389W        W47826  38.357  12.245  13.005
88390W        W47827   9.299  36.067   1.355
88391W        W47828  11.737   6.897  13.391
88392W        W47829   6.697  30.004   2.853
88393W        W47830  24.032  40.549  10.483
88394W        W47831  40.805  41.791  13.857
88395W        W47832  23.706  24.230  11.523
88396W        W47833  26.471  27.991   3.243
88397W        W47834  12.799  32.112   0.953
88398W        W47835  14.338  14.741   3.820
88399W        W47836   1.930  41.799   2.244
88400W        W47837  29.646  37.386  11.607
88401W        W47838  15.283  26.538  13.925
88402W        W47839  44.409  36.438   4.753
88403W        W47840   7.759  20.139   4.601
88404W        W47841  18.565  34.886   2.701
88405W        W47842  34.435  33.541  10.592
88406W        W47843  18.177  13.678   0.317
88407W        W47844  43.783  37.996  12.976
88408W        W47845  14.743   4.350   4.726
88409W        W47846  15.768  35.877  14.845
88410W        W47847   5.389  37.886  14.488
88411W        W47848  33.606  28.167   5.193
88412W        W47849  16.142   7.370   0.805
88413W        W47850  23.066  15.657   1.291
88414W        W47851  11.827   6.862  11.123
88415W        W47852  10.845  11.265  11.411
88416W        W47853  16.704  18.122   0.844
88417W        W47854   1.358  35.544   2.190
88418W        W47855  25.646  27.658   3.176
88419W        W47856  18.745   7.204  12.525
88420W        W47857  11.168  10.694  14.025
88421W        W47858  41.862  12.336  12.050
88422W        W47859  35.379   2.791  13.532
88423W        W47860  34.968  18.735  12.047
88424W        W47861  31.566  18.263   4.146
88425W        W47862  16.577  27.979   1.394
88426W        W47863  26.618  36.967   3.651
88427W        W47864   3.345   4.243  13.372
88428W        W47865  11.812  28.983   2.880
88429W        W47866   0.381  43.810  14.434
88430W        W47867  26.155   8.384   5.246
88431W        W47868  35.083   3.398   5.120
88432W        W47869  24.156  39.482  12.853
88433W        W47870  19.264   3.356  14.330
88434W        W47871  42.323  25.183   5.172
88435W        W47872   6.877  10.280   3.650
88436W        W47873  38.035   4.769   9.980
88437W        W47874  14.636   0.940  10.924
88438W        W47875  33.012   1.775   3.771
88439W        W47876   2.952  39.813   3.780
88440W        W47877  14.271  44.370   2.894
88441W        W47878   6.347  35.563   2.851
88442W        W47879  20.220  27.460   4.174
88443W        W47880  29.044  20.762  13.474
88444W        W47881   1.918  35.449  12.831
88445W        W47882  26.047  40.990  10.628
88446W        W47883  33.897  26.145   3.297
88447W        W47884  35.979  32.624   2.219
88448W        W47885  35.493  16.570  10.634
88449W        W47886  38.387  26.083   0.798
88450W        W47887  28.078  36.077   1.295
88451W        W47888  38.488  33.498   3.680
88452W        W47889  32.612  40.965  10.411
88453W        W47890   2.887  40.516   1.820
88454W        W47891   5.745  16.712   2.329
88455W        W47892   1.264  36.042   1.364
88456W        W47893  36.398  40.411   2.323
88457W        W47894  31.540   3.329  10.982
88458W        W47895  35.081  10.794  14.397
88459W        W47896   8.266  25.564   4.157
88460W        W47897  41.872  14.121  13.334
88461W        W47898  40.020  19.764   4.687
88462W        W47899  16.131  11.208  14.777
88463W        W47900  29.436   8.862  13.378
88464W        W47901  35.917   6.819   1.341
88465W        W47902  18.099  39.039   0.951
88466W        W47903  17.169   1.317  10.551
88467W        W47904  30.614  27.475  12.895
88468W        W47905  35.368  42.522  14.828
88469W        W47906  31.422   9.753  12.984
88470W        W47907   8.379   4.698   2.231
88471W        W47908  30.018  25.571  12.867
88472W        W47909  14.733   1.919  14.913
88473W        W47910  33.407  44.961   4.230
88474W        W47911   0.928  42.438   0.483
88475W        W47912  28.581   9.690  13.338
88476W        W47913   8.844   4.907   1.345
88477W        W47914  38.528  15.725   0.468
88478W        W47915  19.191  26.638  11.542
88479W        W47916   4.338  43.891   3.802
88480W        W47917  13.623  15.803  12.524
88481W        W47918  18.250  35.048   4.708
88482W        W47919  42.420  30.139  12.008
88483W        W47920   2.234   3.891   4.331
88484W        W47921   2.863  10.690   1.833
88485W        W47922  31.054  30.144   2.242
88486W        W47923   7.820  13.224  12.838
88487W        W47924  16.740   2.391   1.278
88488W        W47925   1.892  30.126   1.376
88489W        W47926  10.323  14.256  13.500
88490W        W47927  39.518  15.817   4.292
88491W        W47928  17.714  40.868  12.524
88492W        W47929  33.073  27.532  14.467
88493W        W47930   0.249   0.786   0.378
88494W        W47931  29.494  28.495  14.907
88495W        W47932  20.540  18.633  11.918
88496W        W47933  43.825  30.135   1.871
88497W        W47934  33.881  42.980  11.872
88498W        W47935  28.606  35.984   4.131
88499W        W47936   0.359  20.266   2.415
88500W        W47937  27.974  16.768  13.997
88501W        W47938  37.555  13.339   2.676
88502W        W47939   9.648  14.696  13.013
88503W        W47940   0.958  24.712  12.384
88504W        W47941   7.697  31.092   3.157
88505W        W47942  38.890  12.653   2.182
88506W        W47943  43.792  24.160  12.573
88507W        W47944  31.555  28.082  10.567
88508W        W47945  12.135  20.685   4.193
88509W        W47946  24.227  17.686  11.494
88510W        W47947  28.576  17.677  13.438
88511W        W47948  38.413  26.091  11.432
88512W        W47949  20.092  41.382   4.737
88513W        W47950  12.795   1.397  13.818
88514W        W47951  35.885  42.858   2.818
88515W        W47952  24.653  37.003   5.645
88516W        W47953  35.434  29.948   0.899
88517W        W47954  15.694  15.106   3.158
88518W        W47955  37.855  28.663   2.835
88519W        W47956  37.398  16.140   0.331
88520W        W47957  44.873   3.736  13.848
88521W        W47958  43.298  19.537   5.253
88522W        W47959  40.904  38.860  14.491
88523W        W47960  18.685   7.905  13.464
88524W        W47961  18.584  18.100  12.365
88525W        W47962   9.695   2.746   1.290
88526W        W47963   2.467   8.721   3.170
88527W        W47964  31.077  36.494   2.400
88528W        W47965  24.205   0.812   0.441
88529W        W47966  31.598  12.299  13.372
88530W        W47967   6.190  19.208   2.685
88531W        W47968   1.365  11.271   4.743
88532W        W47969  33.043  21.674  13.016
88533W        W47970  30.628  20.110  12.841
88534W        W47971  27.549  33.444  11.091
88535W        W47972   8.166  18.724   0.961
88536W        W47973   6.212  25.015  12.092
88537W        W47974  29.937  21.660  14.002
88538W        W47975  23.663   8.345   1.211
88539W        W47976  23.166   3.946   0.777
88540W        W47977  37.562  20.175   4.779
88541W        W47978  29.427   3.448  11.570
88542W        W47979  25.483   1.842  12.041
88543W        W47980   1.481  42.421  14.810
88544W        W47981  37.076   6.892   0.451
88545W        W47982  36.954  16.109   4.623
88546W        W47983  36.555   9.862  11.101
88547W        W47984  18.785  14.137   3.261
88548W        W47985  22.635  14.172   4.780
88549W        W47986   1.345  39.359   0.423
88550W        W47987  23.521  21.080   4.686
88551W        W47988  40.981   8.361   4.213
88552W        W47989   8.795  33.491  13.374
88553W        W47990  41.951  35.945  13.372
88554W        W47991   6.196   0.930  14.373
88555W        W47992  34.118  25.569  10.992
88556W        W47993  30.956  14.765   3.818
88557W        W47994  39.906   1.732  11.049
88558W        W47995  22.203  39.861   1.831
88559W        W47996  31.104   7.830  11.112
88560W        W47997  15.680  21.106   4.237
88561W        W47998  33.131  26.531  12.894
88562W        W47999  42.437  39.943  11.462
88563W        W48000   5.370  31.475  13.931
88564W        W48001   5.404  38.074  11.935
88565W        W48002   8.369   0.421   4.187
88566W        W48003  32.561  15.805   0.777
88567W        W48004  12.630  38.038   3.715
88568W        W48005  25.616   2.361   0.945
88569W        W48006  22.208  10.149   2.714
88570W        W48007   1.426   0.839  14.411
88571W        W48008  24.167  19.204   0.758
88572W        W48009   6.423  44.950   1.443
88573W        W48010  38.834  23.520  11.925
88574W        W48011   5.768  32.438  11.110
88575W        W48012  12.316  42.331   2.338
88576W        W48013  26.117  30.595   0.820
88577W        W48014  23.041  11.746  11.514
88578W        W48015  43.438  17.556  12.472
88579W        W48016  15.597  12.713  11.126
88580W        W48017  14.798   8.865  11.419
88581W        W48018   7.860  36.554  10.522
88582W        W48019  41.952  15.199   2.239
88583W        W48020   5.758  21.030   4.770
88584W        W48021   2.811  27.559   2.288
88585W        W48022  33.044  35.501   3.810
88586W        W48023  35.382  29.088   2.418
88587W        W48024  40.867  24.670  13.969
88588W        W48025   0.362  26.049  11.915
88589W        W48026   9.203  21.578   3.303
88590W        W48027  20.628  38.555   2.881
88591W        W48028  35.961  33.430   4.249
88592W        W48029  26.084  34.426   0.944
88593W        W48030  43.986  14.685  13.328
88594W        W48031  32.128  26.513  13.386
88595W        W48032  42.383  33.403   3.231
88596W        W48033  24.515   8.356   4.833
88597W        W48034  15.302  27.667  12.943
88598W        W48035  16.751  33.089  12.988
88599W        W48036  32.545   5.792   3.840
88600W        W48037  12.229  35.969  13.500
88601W        W48038  11.752  39.405   2.412
88602W        W48039  34.875  23.579   4.794
88603W        W48040  15.714  21.737   0.306
88604W        W48041  11.836  25.966  12.852
88605W        W48042  10.214  26.611  14.394
88606W        W48043  27.126  20.190   4.177
88607W        W48044  32.391  35.393   4.289
88608W        W48045   7.699  39.911   2.384
88609W        W48046   6.221  20.060   2.857
88610W        W48047  13.341  14.297  12.368
88611W        W48048  39.467  21.640   0.332
88612W        W48049  13.113  37.545  14.322
88613W        W48050   8.167  33.014  11.097
88614W        W48051  44.922  39.532  12.383
88615W        W48052  40.541   3.395   1.906
88616W        W48053  29.538  19.216   1.306
88617W        W48054  35.918  18.731   4.611
88618W        W48055  39.907   4.813   3.363
88619W        W48056  23.553  37.395  11.431
88620W        W48057  28.963  22.122  12.071
88621W        W48058  41.445  11.348  12.993
88622W        W48059  17.790  31.068   4.605
88623W        W48060  14.612  14.173  14.916
88624W        W48061  43.355  26.052  11.409
88625W        W48062  42.451  18.137   0.379
88626W        W48063  31.984  20.202   0.855
88627W        W48064  34.419  34.092  11.461
88628W        W48065   5.245  27.157  13.886
88629W        W48066  21.044  38.537  11.402
88630W        W48067  38.410  35.858  12.961
88631W        W48068  27.543  37.529  10.911
88632W        W48069  28.048  14.629  12.400
88633W        W48070  26.603  26.059  10.404
88634W        W48071   3.713  22.596   3.319
88635W        W48072  24.158  13.182   3.164
88636W        W48073  37.383  36.379  11.524
88637W        W48074  39.454  11.680  11.577
88638W        W48075  18.649   4.746  11.023
88639W        W48076  38.383  36.854  12.974
88640W        W48077  14.111  27.660   3.808
88641W        W48078  10.153  25.489   4.204
88642W        W48079   5.281  43.361   1.857
88643W        W48080  31.508  38.833   4.711
88644W        W48081  41.477  33.532  10.961
88645W        W48082  29.099  42.803  14.313
88646W        W48083   8.214  22.731   0.829
88647W        W48084  38.013  11.737  14.434
88648W        W48085   5.364  25.011  14.009
88649W        W48086   7.891  38.418  10.452
88650W        W48087  11.271  38.016  14.416
88651W        W48088  42.965  31.504   3.360
88652W        W48089   4.370   3.406  10.599
88653W        W48090  37.019  30.955   3.766
88654W        W48091   3.949  14.799  11.395
88655W        W48092  23.218  38.560  10.454
88656W        W48093  21.751   0.485  11.510
88657W        W48094  18.761  22.615  10.098
88658W        W48095   2.787  28.949  11.006
88659W        W48096   5.851  29.635  12.970
88660W        W48097  13.236  38.847   0.931
88661W        W48098  28.492  28.162  12.349
88662W        W48099  39.368  41.042  13.979
88663W        W48100  13.760  11.692  11.967
88664W        W48101  22.057  27.984  14.778
88665W        W48102  16.635   4.406  11.118
88666W        W48103  12.786   1.829  13.823
88667W        W48104  30.544   5.356  13.976
88668W        W48105  19.575  11.854  12.455
88669W        W48106  32.095   3.443  13.404
88670W        W48107   5.806   3.763  11.856
88671W        W48108  26.990  38.918   3.349
88672W        W48109  44.767  35.548   1.411
88673W        W48110  42.977   4.296   2.850
88674W        W48111   5.327  14.645  10.552
88675W        W48112  21.637  21.194   2.190
88676W        W48113   7.824   0.337  14.976
88677W        W48114  37.469  14.656  10.531
88678W        W48115  27.109  26.139   2.268
88679W        W48116  22.184   7.889  13.447
88680W        W48117  41.354  40.913   1.846
88681W        W48118  43.347   5.868  14.773
88682W        W48119  36.938  27.491  14.314
88683W        W48120   0.859  40.538  13.847
88684W        W48121  31.604  33.582  13.440
88685W        W48122   7.242  20.238   4.223
88686W        W48123  24.526   5.733   2.262
88687W        W48124   5.401  33.901  13.442
88688W        W48125   3.758  40.363  11.986
88689W        W48126  33.460  38.836   1.227
88690W        W48127   9.384  20.113  14.432
88691W        W48128  15.718  27.576   4.772
88692W        W48129   1.812  19.251   1.824
88693W        W48130  35.032   8.368  13.874
88694W        W48131  19.552  44.963  10.475
88695W        W48132   2.412  28.439   4.269
88696W        W48133  31.493  36.552   4.697
88697W        W48134  27.071  18.693  13.868
88698W        W48135  38.866   3.414  14.456
88699W        W48136  20.644  20.180   2.711
88700W        W48137  11.759  41.375   2.330
88701W        W48138  42.473  16.206   2.785
88702W        W48139  44.466  22.224  11.532
88703W        W48140  16.805  41.896   4.145
88704W        W48141  17.659  25.029  10.553
88705W        W48142   0.942  43.513   2.726
88706W        W48143  11.244  13.348  10.554
88707W        W48144   4.864   6.703  11.477
88708W        W48145  43.483  16.118  12.861
88709W        W48146  28.149  24.125  12.995
88710W        W48147  24.107  17.214   4.824
88711W        W48148  20.233  15.105  13.372
88712W        W48149  37.855  31.585  11.928
88713W        W48150  40.044  41.961   2.712
88714W        W48151  31.117  39.865  11.606
88715W        W48152   7.182  14.306  13.478
88716W        W48153  14.189   0.931   4.159
88717W        W48154  11.308   2.410  12.557
88718W        W48155   5.752  12.641   4.622
88719W        W48156  18.761  21.693  14.921
88720W        W48157  35.560  39.964   1.237
88721W        W48158  30.022  19.661  10.948
88722W        W48159  29.576  24.715   3.374
88723W        W48160  35.468  23.666   1.444
88724W        W48161  29.932   0.791  10.479
88725W        W48162  17.122  31.582   3.227
88726W        W48163   8.856   4.942  13.324
88727W        W48164  13.171  32.508  10.991
88728W        W48165  37.866  39.411  14.761
88729W        W48166  13.162  36.394   3.849
88730W        W48167   6.240  32.000   0.746
88731W        W48168  19.117  23.215  13.837
88732W        W48169  16.230  33.046  13.036
88733W        W48170  33.064   1.793   3.267
88734W        W48171  37.501   0.944  13.313
88735W        W48172  27.084  35.469   4.147
88736W        W48173  42.856   1.972   4.186
88737W        W48174  21.568  41.013  11.057
88738W        W48175  23.616  10.874   0.913
88739W        W48176   4.712  15.268  12.383
88740W        W48177  22.009  38.891  12.919
88741W        W48178  34.943   1.447  13.934
88742W        W48179  10.746   8.305  11.000
88743W        W48180  10.264  34.863  13.868
88744W        W48181  42.863  18.229   4.811
88745W        W48182  23.240  40.365  14.345
88746W        W48183  37.022  24.141   3.741
88747W        W48184   4.840  25.633  13.952
88748W        W48185  26.699   6.685   4.259
88749W        W48186  23.582   9.273   3.304
88750W        W48187  28.947  29.603   1.298
88751W        W48188   4.410  20.239  14.969
88752W        W48189   1.944  22.692  12.918
88753W        W48190   5.821  26.096  14.830
88754W        W48191   6.699   9.737  11.381
88755W        W48192  16.632  38.340   5.295
88756W        W48193   9.840  19.734  14.843
88757W        W48194  43.959  26.546  10.539
88758W        W48195  26.691  25.196   3.656
88759W        W48196  41.839  40.997  10.568
88760W        W48197  29.029  13.605  14.483
88761W        W48198  44.976  37.419   5.691
88762W        W48199   6.224  33.976   1.363
88763W        W48200  20.682  37.382  13.030
88764W        W48201   0.440  37.417   1.871
88765W        W48202   1.782  31.471   1.838
88766W        W48203  27.574  22.526   3.310
88767W        W48204  13.838  42.418   0.921
88768W        W48205  20.619  41.022   0.389
88769W        W48206  43.807   2.840   2.678
88770W        W48207  37.954  41.888  10.463
88771W        W48208  44.334  28.588  14.937
88772W        W48209  12.734  34.561   3.271
88773W        W48210  17.717  40.515  14.874
88774W        W48211  10.858  19.064  14.017
88775W        W48212  24.602   4.760  10.899
88776W        W48213  38.330  10.302   4.754
88777W        W48214  40.487  42.988  12.418
88778W        W48215   4.907  15.201  10.944
88779W        W48216  25.513  12.118  10.988
88780W        W48217  35.949  12.283   1.215
88781W        W48218  36.870  37.345  10.995
88782W        W48219  20.556  42.985  14.796
88783W        W48220  43.004  11.295   4.267
88784W        W48221  17.065   4.243  13.989
88785W        W48222   8.232  11.708   4.828
88786W        W48223  13.804  26.071   3.649
88787W        W48224  35.528  27.632  13.340
88788W        W48225  41.002   6.694   3.355
88789W        W48226   1.869   7.836   3.161
88790W        W48227  24.006  36.579  10.901
88791W        W48228  17.094  11.338   1.221
88792W        W48229  39.474  23.234   3.813
88793W        W48230  23.173  16.100  12.444
88794W        W48231  20.674  10.299  13.481
88795W        W48232  20.101  10.777   4.289
88796W        W48233  39.337  42.365   1.754
88797W        W48234  16.772  25.560  12.076
88798W        W48235   2.271   7.264  12.841
88799W        W48236  35.402  32.536  14.426
88800W        W48237  34.575  36.561   9.588
88801W        W48238  24.579  17.219  12.473
88802W        W48239  37.965  36.420   0.820
88803W        W48240  18.598  25.092  14.876
88804W        W48241  14.276  40.881   2.201
88805W        W48242  26.095  35.434   2.741
88806W        W48243  21.726  27.521  10.449
88807W        W48244  26.541   3.407   2.319
88808W        W48245  28.108  39.532   5.773
88809W        W48246  22.508  15.153  13.057
88810W        W48247   2.226   2.919   2.309
88811W        W48248   5.791   1.845  13.541
88812W        W48249  39.882   6.255  14.829
88813W        W48250  12.764  33.462  11.976
88814W        W48251  43.383  19.207   0.361
88815W        W48252  19.251  22.034   3.735
88816W        W48253   8.879  22.228  14.805
88817W        W48254  21.075  36.374  14.851
88818W        W48255  27.585  24.094   1.348
88819W        W48256  15.723  34.968  12.429
88820W        W48257  34.511   7.304  12.047
88821W        W48258  38.326  15.648  12.456
88822W        W48259  41.308  38.054   2.703
88823W        W48260  33.013  20.234  11.494
88824W        W48261  17.620   8.334  11.017
88825W        W48262  28.615  10.259  11.060
88826W        W48263  38.842  22.523  13.374
88827W        W48264  10.710  19.240  11.580
88828W        W48265  25.548  10.876  12.569
88829W        W48266  43.976  35.103   0.887
88830W        W48267  42.808  29.078  13.547
88831W        W48268  41.400   0.345  14.313
88832W        W48269  40.812  43.847   3.729
88833W        W48270  35.418  43.793  13.911
88834W        W48271  23.067  31.419   4.230
88835W        W48272  21.703  39.822  10.968
88836W        W48273  39.990  44.781   0.966
88837W        W48274  32.935  32.576   1.749
88838W        W48275  40.944  43.816   1.403
88839W        W48276   7.382  26.988  12.488
88840W        W48277  39.347  17.619  14.343
88841W        W48278   9.783  13.738  12.482
88842W        W48279  32.504  35.419   3.852
88843W        W48280  19.268  29.139  10.890
88844W        W48281  20.671  35.476   3.818
88845W        W48282   8.695  12.282  10.555
88846W        W48283   6.872  38.859   4.743
88847W        W48284  18.563  33.564  14.992
88848W        W48285  20.185  41.804   4.296
88849W        W48286   7.332  44.988   1.329
88850W        W48287   5.719  17.302  13.876
88851W        W48288   0.848   7.224   5.274
88852W        W48289  12.640   4.341  10.597
88853W        W48290  20.546  41.928   3.190
88854W        W48291  41.425  14.232  12.869
88855W        W48292   3.459   0.307   3.768
88856W        W48293  40.396  35.992  11.568
88857W        W48294  39.460  16.297   1.432
88858W        W48295   2.282  29.531  13.421
88859W        W48296  44.868   2.923  12.421
88860W        W48297  43.956   9.728  12.482
88861W        W48298  19.260  24.038   5.102
88862W        W48299  33.465  29.010   4.269
88863W        W48300  15.820  23.190  11.405
88864W        W48301  21.688  27.036   0.448
88865W        W48302  16.717  31.465   0.387
88866W        W48303   1.478  27.140  13.917
88867W        W48304  12.743   3.220   3.703
88868W        W48305  15.629   9.658  11.596
88869W        W48306  23.691   9.160  14.783
88870W        W48307  37.442  40.454  13.835
88871W        W48308  16.245   4.839   0.366
88872W        W48309  19.601  41.415   1.751
88873W        W48310  11.332  33.985  11.874
88874W        W48311  21.682  39.880  11.934
88875W        W48312  44.786  38.330  13.028
88876W        W48313  26.977  27.005  13.012
88877W        W48314  28.056  18.099   1.819
88878W        W48315  42.370   0.357  13.325
88879W        W48316   2.462  25.996   1.872
88880W        W48317  39.948   6.397  12.846
88881W        W48318  12.660  17.247  11.940
88882W        W48319  34.104   3.329  13.519
88883W        W48320  13.775  32.979  12.984
88884W        W48321  16.779  35.987  10.495
88885W        W48322  39.542  15.785  14.907
88886W        W48323  37.981  43.820  12.579
88887W        W48324  43.784   0.934  14.934
88888W        W48325  41.326  10.786  12.981
88889W        W48326   4.327  10.838   0.800
88890W        W48327  41.526   9.730   4.266
88891W        W48328   3.218  12.142  10.044
88892W        W48329   9.655   5.252   3.346
88893W        W48330  37.518   3.426  11.525
88894W        W48331  32.456  29.444   2.321
88895W        W48332   0.326  23.031  14.351
88896W        W48333  41.931  32.024   0.348
88897W        W48334  27.090  22.633  12.500
88898W        W48335  38.001  28.621   1.856
88899W        W48336  34.875   5.835  11.492
88900W        W48337   5.221  43.461  13.826
88901W        W48338  25.145   8.844   1.225
88902W        W48339  32.445   9.345  13.799
88903W        W48340  37.488  41.435   0.296
88904W        W48341   1.480  20.143  11.978
88905W        W48342  16.677  15.264  14.775
88906W        W48343   1.934  27.151  10.480
88907W        W48344  36.850  42.432  10.903
88908W        W48345  16.735  10.215  12.492
88909W        W48346   9.198  39.481  10.404
88910W        W48347   8.232  14.269   3.320
88911W        W48348   4.256  41.343  12.886
88912W        W48349  10.722  20.654  14.481
88913W        W48350  33.437  38.558  10.085
88914W        W48351  22.591  37.481   0.741
88915W        W48352  22.075   3.364  12.357
88916W        W48353  24.191   2.288  14.365
88917W        W48354   7.288  33.085  13.874
88918W        W48355  36.957   0.251  11.577
88919W        W48356  39.408  30.014  13.021
88920W        W48357   6.779  13.621   4.330
88921W        W48358  23.154  25.174   4.336
88922W        W48359  35.893  41.516   4.320
88923W        W48360   0.790  28.082   3.205
88924W        W48361   4.311  18.206  14.333
88925W        W48362   4.719  35.107  11.107
88926W        W48363  37.075  41.983  10.087
88927W        W48364  28.504   3.257   3.782
88928W        W48365  43.503   9.865  13.493
88929W        W48366  33.497  29.516  10.105
88930W        W48367  29.651  37.491   9.934
88931W        W48368   3.840  32.061   0.278
88932W        W48369  15.691   4.438  12.535
88933W        W48370   4.818   8.262  14.829
88934W        W48371  27.517  38.355  14.984
88935W        W48372  23.044  37.472   1.433
88936W        W48373  41.447  24.712   0.806
88937W        W48374  20.578   3.768   4.288
88938W        W48375   9.311   7.713  11.454
88939W        W48376  27.616  31.948  13.446
88940W        W48377   9.347  22.168  11.058
88941W        W48378  38.384  12.299  12.074
88942W        W48379  36.412  24.113  12.487
88943W        W48380   6.194  38.333   4.273
88944W        W48381  34.551  16.631   0.965
88945W        W48382  17.216   0.896  14.476
88946W        W48383  35.872  13.725   4.261
88947W        W48384  28.002  14.805  12.014
88948W        W48385  25.081  36.568  10.578
88949W        W48386   0.295  39.400  12.400
88950W        W48387  30.433  42.479  11.389
88951W        W48388  20.702  43.796   4.608
88952W        W48389   8.712  21.095  10.403
88953W        W48390   5.325  34.553   3.790
88954W        W48391   3.241  21.756  10.902
88955W        W48392  43.855   4.711   0.758
88956W        W48393   6.783  39.449   1.334
88957W        W48394  20.170  24.586   2.291
88958W        W48395  19.535  16.200   2.280
88959W        W48396   4.853  41.958   1.908
88960W        W48397  20.701  26.063  11.585
88961W        W48398   9.213   3.223  10.144
88962W        W48399  44.829   7.260   0.387
88963W        W48400  32.092  38.854  11.925
88964W        W48401  25.577  25.002  12.947
88965W        W48402  44.879  31.540   3.285
88966W        W48403   4.941   1.955   0.836
88967W        W48404  40.838  26.516   3.839
88968W        W48405   5.273   4.211   1.366
88969W        W48406  17.090  43.459   0.351
88970W        W48407  20.561   9.644   2.318
88971W        W48408  22.073  22.067  13.880
88972W        W48409  17.690   6.838  12.958
88973W        W48410  30.522   0.409  13.842
88974W        W48411  14.699  11.221  10.974
88975W        W48412  19.615   9.200   4.150
88976W        W48413   5.207  21.662  11.961
88977W        W48414  33.594  28.186  11.502
88978W        W48415   6.401   3.422   1.383
88979W        W48416   1.772  26.481  13.503
88980W        W48417  27.164  31.410  12.353
88981W        W48418  14.742   5.910   2.726
88982W        W48419   8.693   6.739   2.776
88983W        W48420  44.905  14.680   2.850
88984W        W48421  33.026  18.159   0.828
88985W        W48422  23.987  27.017   3.248
88986W        W48423  30.581  38.564   2.671
88987W        W48424  18.785  10.181  14.779
88988W        W48425  20.561  22.033   1.894
88989W        W48426  20.162  15.674   2.396
88990W        W48427  41.308  31.521  12.414
88991W        W48428   7.786   9.649  12.953
88992W        W48429  27.963  20.567  11.017
88993W        W48430  15.701  32.054  13.471
88994W        W48431   8.283  27.475   2.744
88995W        W48432  23.145  40.912   2.697
88996W        W48433  20.030  30.158  14.992
88997W        W48434   7.813  29.553  13.895
88998W        W48435  20.219  15.326  12.446
88999W        W48436  37.844   7.242  14.281
89000W        W48437  33.381  26.129  12.463
89001W        W48438   1.733   7.412  12.459
89002W        W48439  20.107  44.417  14.913
89003W        W48440  36.980  30.057   3.197
89004W        W48441   3.436  29.436   4.663
89005W        W48442   7.198  23.148  14.008
89006W        W48443  19.777  40.345  10.899
89007W        W48444   6.307  19.615   3.767
89008W        W48445  15.581  26.089   3.864
89009W        W48446  44.959  16.577  13.316
89010W        W48447  29.954  32.479   1.768
89011W        W48448  28.511  20.118   1.420
89012W        W48449  37.426  35.878  11.002
89013W        W48450  27.972  24.487   0.293
89014W        W48451  25.668  26.162   4.620
89015W        W48452   3.240  23.168   0.815
89016W        W48453  30.164  26.563  11.563
89017W        W48454  20.110   3.913  10.420
89018W        W48455  27.991   8.827   1.929
89019W        W48456  20.189  38.008   0.477
89020W        W48457  21.088  29.018  13.319
89021W        W48458   0.341  27.158  11.416
89022W        W48459  44.802  24.993   0.394
89023W        W48460  15.125  34.033   0.747
89024W        W48461   9.877   8.849  14.335
89025W        W48462  21.048   2.429  14.791
89026W        W48463  12.641  41.393   3.852
89027W        W48464  13.272  41.919  11.860
89028W        W48465  28.137  23.541   1.221
89029W        W48466  18.173  11.652  14.994
89030W        W48467   4.918  28.045  13.963
89031W        W48468  10.343  40.968  10.503
89032W        W48469   8.163  44.433  11.124
89033W        W48470  17.149  23.056  11.569
89034W        W48471   1.927  17.304   1.260
89035W        W48472  27.981   6.189  10.434
89036W        W48473   4.226   0.792  14.869
89037W        W48474  21.573  23.034  10.060
89038W        W48475  28.173   7.857  13.028
89039W        W48476  43.275  13.340   2.738
89040W        W48477  13.751  28.954  13.791
89041W        W48478  17.095  37.359   3.305
89042W        W48479  24.682  12.168   0.282
89043W        W48480  43.372  10.256  12.451
89044W        W48481  44.824  43.282  13.947
89045W        W48482  22.143  14.151   0.801
89046W        W48483  12.210  26.056  13.842
89047W        W48484  10.159  32.480   2.832
89048W        W48485  33.547  43.962   0.738
89049W        W48486   9.766  37.893  10.916
89050W        W48487  40.319  16.265  12.375
89051W        W48488  18.107  28.049   0.340
89052W        W48489   1.397  11.812   3.224
89053W        W48490   6.205  41.981   4.615
89054W        W48491   8.326  41.835  12.954
89055W        W48492   6.842  15.584   0.814
89056W        W48493  36.580  36.534   2.712
89057W        W48494  36.551  36.523   0.925
89058W        W48495  19.570  41.498   4.814
89059W        W48496   7.343   1.399  13.843
89060W        W48497  26.068  11.142   4.212
89061W        W48498   3.233  38.489  14.809
89062W        W48499  41.300  43.822   4.703
89063W        W48500  25.016  22.224   2.246
89064W        W48501  42.394  13.828   1.700
89065W        W48502  33.491  32.954  14.007
89066W        W48503  32.965  41.789  14.479
89067W        W48504  23.183  32.141   1.761
89068W        W48505  20.210  30.628   1.341
89069W        W48506  26.590   7.677  10.531
89070W        W48507  12.186  11.771   0.858
89071W        W48508  18.235  15.782  14.950
89072W        W48509   2.227  26.058   1.449
89073W        W48510  13.671  25.095  12.962
89074W        W48511  20.049  12.782   2.242
89075W        W48512   1.360   3.317  13.844
89076W        W48513  23.580  30.633  11.888
89077W        W48514   9.311  28.975  10.581
89078W        W48515   1.809  11.198  11.921
89079W        W48516  39.066  12.636  10.083
89080W        W48517  21.590  24.656  14.795
89081W        W48518   4.367  43.876  13.034
89082W        W48519  40.503  39.862  12.395
89083W        W48520  17.789  40.307   2.209
89084W        W48521   7.725  23.034  13.333
89085W        W48522  10.217   1.355  13.482
89086W        W48523  15.163  20.271  13.357
89087W        W48524  33.423  35.053   3.384
89088W        W48525  13.125  15.688   9.959
89089W        W48526  33.512  11.322  13.448
89090W        W48527  20.533  43.355  13.942
89091W        W48528  15.710  27.653   4.191
89092W        W48529  15.618  33.005  11.945
89093W        W48530  34.059  16.691   4.354
89094W        W48531  28.028  13.205   0.907
89095W        W48532  19.195  42.518  12.851
89096W        W48533  38.016  28.668  12.888
89097W        W48534  27.586  35.548  13.898
89098W        W48535  34.446  19.738   3.384
89099W        W48536  42.857  18.127   2.363
89100W        W48537   0.315  15.706   2.729
89101W        W48538  34.611  10.793   1.774
89102W        W48539  32.914  31.980  12.888
89103W        W48540  22.704   7.761   3.361
89104W        W48541  15.238  42.482   4.239
89105W        W48542  10.691  17.260   1.240
89106W        W48543   3.458   0.781  10.628
89107W        W48544  22.100  30.131   3.202
89108W        W48545  44.345  40.359   3.164
89109W        W48546  15.688   5.218   2.822
89110W        W48547   6.806  42.319  12.568
89111W        W48548  30.569  23.996   0.732
89112W        W48549   3.413   4.274   3.230
89113W        W48550  25.703  15.187  12.964
89114W        W48551  18.711  25.210  10.532
89115W        W48552  18.584  33.048   4.292
89116W        W48553  11.631  23.148  10.594
89117W        W48554  28.047  26.606  11.595
89118W        W48555  17.752  27.157  10.633
89119W        W48556   8.893   8.348   3.790
89120W        W48557  14.096   8.258  14.820
89121W        W48558  18.216   4.346   4.693
89122W        W48559  13.806   8.898   1.395
89123W        W48560  20.680  18.782  11.037
89124W        W48561  33.579  32.437   4.612
89125W        W48562  25.967  22.100  11.498
89126W        W48563  30.480  42.315  10.639
89127W        W48564  35.368  24.978  11.055
89128W        W48565  30.920  30.558   3.201
89129W        W48566  29.018  34.956  14.806
89130W        W48567  23.537  32.093   0.862
89131W        W48568  22.568  26.614   2.273
89132W        W48569  28.437  24.071  11.551
89133W        W48570  22.633  18.707  10.545
89134W        W48571  25.205  11.320   2.221
89135W        W48572  11.319  12.152   0.962
89136W        W48573  14.707  13.632  13.453
89137W        W48574  42.854  18.788  10.636
89138W        W48575  29.999  39.405  13.334
89139W        W48576  43.430  12.258  11.403
89140W        W48577  12.671  11.326   3.721
89141W        W48578   5.362  33.536  14.984
89142W        W48579  10.867   2.817   0.247
89143W        W48580   2.432   0.291   4.647
89144W        W48581  22.686   9.643  13.059
89145W        W48582  12.361  26.628   1.290
89146W        W48583   9.165  38.898   4.242
89147W        W48584   3.721  20.561   1.926
89148W        W48585  20.570  40.529  10.405
89149W        W48586  27.644  37.920  13.424
89150W        W48587  28.514   4.873  12.510
89151W        W48588  43.005  27.183   3.855
89152W        W48589   4.768   5.893  10.053
89153W        W48590  44.425  17.160   3.725
89154W        W48591  26.541  43.925   4.156
89155W        W48592  28.933   7.173  13.888
89156W        W48593  43.293  44.442  12.353
89157W        W48594  18.084   1.827  14.370
89158W        W48595  24.976  44.407  12.861
89159W        W48596  11.794  13.681  13.959
89160W        W48597  41.329  39.315   3.721
89161W        W48598  33.930  26.489   4.224
89162W        W48599  26.175  33.473   2.868
89163W        W48600  25.673   7.848   2.725
89164W        W48601  22.594  15.143   2.306
89165W        W48602  14.742   7.345  10.441
89166W        W48603  38.046  33.483  14.996
89167W        W48604  18.583  27.963  13.506
89168W        W48605  37.874  36.491   4.826
89169W        W48606   1.448   6.369  13.064
89170W        W48607   7.348   1.338   0.854
89171W        W48608  39.858  25.994  13.883
89172W        W48609  33.385   3.391  11.893
89173W        W48610  35.515  44.410  11.078
89174W        W48611  11.768  28.575   2.667
89175W        W48612  36.008  32.142  13.964
89176W        W48613  34.530  30.496   0.462
89177W        W48614   9.882   3.329   3.348
89178W        W48615  25.983   3.911  11.965
89179W        W48616   7.378   6.755   0.267
89180W        W48617  38.864  23.587  12.982
89181W        W48618  37.959  18.170  10.586
89182W        W48619   2.299  42.304   3.838
89183W        W48620   3.272  15.306   4.353
89184W        W48621  32.058  19.177   2.792
89185W        W48622  21.552   7.729   4.628
89186W        W48623  38.480   0.423  12.528
89187W        W48624  30.635  37.425  12.434
89188W        W48625  34.112  33.998  14.990
89189W        W48626  41.949   7.782   1.857
89190W        W48627   3.325   5.200  14.454
89191W        W48628  10.688  44.269  14.888
89192W        W48629  28.650   3.292  13.962
89193W        W48630  38.447  17.678  12.430
89194W        W48631   1.859  19.675   4.161
89195W        W48632  26.139   6.196   3.849
89196W        W48633  22.522   8.681   9.942
89197W        W48634   1.453  15.710   3.810
89198W        W48635  41.929  14.340   5.250
89199W        W48636  30.971  43.889  13.059
89200W        W48637   4.802   9.247  13.345
89201W        W48638  15.265  32.433  14.382
89202W        W48639   8.335  23.122  11.442
89203W        W48640  27.496  11.201   0.375
89204W        W48641  12.850   4.336   4.157
89205W        W48642  19.239   5.882  11.123
89206W        W48643  19.253  37.841   1.226
89207W        W48644  13.812   9.216   4.825
89208W        W48645  19.130  41.401  12.907
89209W        W48646  12.297  34.876   2.815
89210W        W48647   3.447  39.950  12.847
89211W        W48648  36.426  32.115   2.254
89212W        W48649  33.912  41.902   5.158
89213W        W48650  32.059  31.110  10.541
89214W        W48651   6.405   9.740   4.216
89215W        W48652   7.908   3.440  14.395
89216W        W48653  24.674  33.400  12.347
89217W        W48654  31.998   0.843  14.906
89218W        W48655  18.590  42.340   9.563
89219W        W48656  29.961  13.728  10.504
89220W        W48657  42.941  12.333  13.322
89221W        W48658  34.379  15.160  12.346
89222W        W48659  16.811  38.052   2.798
89223W        W48660   9.307  32.505   2.207
89224W        W48661  35.887  12.648   4.332
89225W        W48662  16.318  10.646  11.431
89226W        W48663  38.049   8.761   4.800
89227W        W48664  16.738  13.766  11.909
89228W        W48665   4.930  39.999  11.885
89229W        W48666  36.567  20.222  14.330
89230W        W48667  20.223  34.522  13.977
89231W        W48668  38.568  32.423  11.398
89232W        W48669  14.795  32.461  10.928
89233W        W48670  19.131  16.774   1.284
89234W        W48671  41.353  13.601   3.332
89235W        W48672   9.237  43.405   0.475
89236W        W48673  28.644  21.261   0.747
89237W        W48674  37.904  18.592  11.051
89238W        W48675   4.922   3.297   1.323
89239W        W48676  38.836  14.789  13.388
89240W        W48677  44.908  24.158   3.226
89241W        W48678  44.881  11.724   4.197
89242W        W48679  32.903  12.292   1.794
89243W        W48680  15.204  14.792   2.726
89244W        W48681  15.607  16.689   3.665
89245W        W48682  25.609  35.448   2.365
89246W        W48683  40.901  26.533   0.875
89247W        W48684  43.336  26.671   4.680
89248W        W48685  42.401  31.609   1.731
89249W        W48686   3.230  11.847   5.234
89250W        W48687  32.932  31.917  11.926
89251W        W48688  19.584  38.901   1.291
89252W        W48689   3.244  25.619  13.853
89253W        W48690  43.005   0.858   0.280
89254W        W48691  18.103  21.671  13.453
89255W        W48692  26.544   4.887  14.898
89256W        W48693  30.652  26.099   3.345
89257W        W48694  17.753  24.533   3.146
89258W        W48695  15.692  21.096   4.660
89259W        W48696  39.550  39.467   4.637
89260W        W48697  15.240  16.118   4.600
89261W        W48698  29.556  35.559  14.834
89262W        W48699  40.315  26.164   3.153
89263W        W48700   2.302  30.472   1.295
89264W        W48701  19.675   1.330   2.383
89265W        W48702  13.658  34.955  12.368
89266W        W48703  37.024   7.357   4.803
89267W        W48704  12.301   6.820  10.623
89268W        W48705  24.079  31.926   5.183
89269W        W48706  18.098  22.650   1.829
89270W        W48707  19.644  25.693   3.665
89271W        W48708  36.898  44.002   2.372
89272W        W48709  26.990  37.487   2.766
89273W        W48710   0.264  23.221   0.857
89274W        W48711   0.935   0.280   2.682
89275W        W48712  38.410   7.822  13.907
89276W        W48713  29.159  21.090  12.020
89277W        W48714  20.613  43.942   3.225
89278W        W48715   9.718  34.602  13.045
89279W        W48716  31.907  21.200   0.869
89280W        W48717   7.386   9.319  13.442
89281W        W48718  16.578   6.849  13.005
89282W        W48719  41.388  17.205  11.057
89283W        W48720  44.379  12.793   2.320
89284W        W48721   1.935  35.026   0.968
89285W        W48722  15.097  12.782  11.917
89286W        W48723  11.161  35.002   0.329
89287W        W48724  43.849  35.590   5.748
89288W        W48725  23.658  33.530   4.246
89289W        W48726  39.814   9.739  13.472
89290W        W48727  35.860  18.662   2.690
89291W        W48728  35.963   1.395  13.500
89292W        W48729  23.003  29.468  10.422
89293W        W48730  30.076   5.877  10.614
89294W        W48731  33.576   7.208   4.143
89295W        W48732  32.973  22.721  14.883
89296W        W48733  40.363  15.581   1.295
89297W        W48734  22.240  31.503  10.959
89298W        W48735  44.485  44.406  12.952
89299W        W48736  22.020   7.749  11.518
89300W        W48737  18.716  39.407  13.388
89301W        W48738   7.282  23.062   4.121
89302W        W48739  17.700  44.263  11.518
89303W        W48740  42.423  30.652   0.289
89304W        W48741  43.789  43.850  12.546
89305W        W48742  19.646  35.493  14.780
89306W        W48743  17.172   5.281  11.098
89307W        W48744   5.330  40.410   0.278
89308W        W48745   0.401  19.154   3.809
89309W        W48746  16.683  21.621   4.246
89310W        W48747  20.614  37.952  14.956
89311W        W48748  38.375   3.400  14.430
89312W        W48749  10.187  41.837   5.193
89313W        W48750  36.541   0.302  14.912
89314W        W48751   7.243  21.207   1.762
89315W        W48752  27.135   6.215   3.754
89316W        W48753  18.608  44.385  13.310
89317W        W48754  22.589  25.161  12.032
89318W        W48755  40.427  23.538  13.365
89319W        W48756  15.762  35.541   2.363
89320W        W48757  32.133  11.166   4.321
89321W        W48758  28.555  21.149   3.187
89322W        W48759  11.705  32.001  12.574
89323W        W48760  13.689  22.531  11.028
89324W        W48761  11.185  19.657  12.952
89325W        W48762  17.125  31.544  13.496
89326W        W48763  27.137   9.695   3.165
89327W        W48764   0.269  38.917   5.743
89328W        W48765   4.846   4.373   4.665
89329W        W48766   7.902  36.931   0.881
89330W        W48767  41.486  14.234   0.246
89331W        W48768  18.142  19.187  14.032
89332W        W48769   3.769  29.947  13.007
89333W        W48770  12.837  41.934   2.194
89334W        W48771  26.092  32.064   3.340
89335W        W48772  29.550   9.664  12.998
89336W        W48773  23.183  43.479   2.286
89337W        W48774   4.795   6.910  13.056
89338W        W48775  27.623  18.693   4.331
89339W        W48776  18.708  12.646   4.269
89340W        W48777   2.722  41.879  12.847
89341W        W48778  32.499  32.461  10.442
89342W        W48779  18.590   3.412  13.884
89343W        W48780  40.471  24.194   3.868
89344W        W48781   9.386  30.033   1.806
89345W        W48782  28.597  26.095   3.280
89346W        W48783  41.465   1.243   0.914
89347W        W48784   8.667  42.510  13.339
89348W        W48785  34.064  33.599   1.394
89349W        W48786  40.481  16.275  11.933
89350W        W48787  12.266  42.298  11.507
89351W        W48788  37.971   5.893   4.645
89352W        W48789   1.327  23.634   3.831
89353W        W48790  12.719  31.572  12.349
89354W        W48791  38.915  38.391  10.133
89355W        W48792  18.691   0.932   2.711
89356W        W48793  25.641  34.571  13.862
89357W        W48794  31.430  26.659   4.618
89358W        W48795  43.970  42.428  14.978
89359W        W48796  27.137   3.429   4.123
89360W        W48797  38.853  16.246   1.834
89361W        W48798  16.076   1.936  12.374
89362W        W48799   9.345   9.328   0.297
89363W        W48800   4.765   4.911   0.821
89364W        W48801   9.881  36.081  12.895
89365W        W48802  15.804   6.849   3.683
89366W        W48803  38.062  38.327  12.072
89367W        W48804  25.705   1.415  13.379
89368W        W48805  34.515  12.691  10.544
89369W        W48806   9.756  17.112  12.464
89370W        W48807  41.336   2.450  13.384
89371W        W48808  44.438  44.806   2.728
89372W        W48809  38.358   9.277   0.743
89373W        W48810  31.513   3.456  14.409
89374W        W48811  38.994  31.976  13.022
89375W        W48812  37.979  14.788   3.700
89376W        W48813  36.478   2.755   0.939
89377W        W48814  12.356  13.279  14.400
89378W        W48815  28.933  42.390   1.722
89379W        W48816   0.424  22.520  10.916
89380W        W48817  19.673  16.096  12.469
89381W        W48818  33.031   1.353  14.457
89382W        W48819   4.769  24.636  14.331
89383W        W48820   0.420   9.762  12.869
89384W        W48821  43.009  32.628   1.428
89385W        W48822  23.563  10.327  14.950
89386W        W48823  17.118  26.164   2.873
89387W        W48824  21.720  41.430  11.472
89388W        W48825   9.677  11.175   0.385
89389W        W48826  17.147  13.201  12.381
89390W        W48827  32.087  17.723  10.601
89391W        W48828  37.881  19.565  10.926
89392W        W48829  28.132   3.251   1.716
89393W        W48830  10.255  32.491  12.954
89394W        W48831  15.597  23.067  11.065
89395W        W48832  32.999  28.531   4.721
89396W        W48833  24.701  29.981   3.168
89397W        W48834  30.061  10.211   0.772
89398W        W48835  11.647  23.585  11.883
89399W        W48836  35.548  40.991   2.667
89400W        W48837  27.692  34.926  12.576
89401W        W48838   2.456  39.952   2.807
89402W        W48839  35.404  13.795  14.456
89403W        W48840  21.713  18.175  10.597
89404W        W48841  36.440  17.681   2.400
89405W        W48842  17.295  38.989  12.550
89406W        W48843  17.721  14.201   3.760
89407W        W48844  30.423  10.368   1.425
89408W        W48845  13.244  33.895  11.508
89409W        W48846  28.176  27.146   4.717
89410W        W48847  39.001  40.803  11.601
89411W        W48848  17.785  35.537   2.250
89412W        W48849  21.676  44.814  14.422
89413W        W48850  29.512  29.032   2.783
89414W        W48851  16.078  11.847   1.216
89415W        W48852   5.346  18.738   1.226
89416W        W48853   2.840  22.624   3.259
89417W        W48854  19.746  24.723   1.902
89418W        W48855  34.879  19.193   0.277
89419W        W48856  37.474  33.082  13.930
89420W        W48857  12.233  16.770  13.045
89421W        W48858   7.770   4.340   3.267
89422W        W48859  24.586   8.315  11.575
89423W        W48860  12.711   8.221  11.562
89424W        W48861  22.645  24.502   4.198
89425W        W48862  22.703  44.325   4.686
89426W        W48863  20.179  42.501   0.263
89427W        W48864  11.174  36.993  14.891
89428W        W48865  24.659  16.306   3.689
89429W        W48866  26.042  34.037  11.856
89430W        W48867  43.358  38.973  12.926
89431W        W48868   3.325  32.006   1.399
89432W        W48869  11.640  42.787   4.345
89433W        W48870   7.803  43.807  11.010
89434W        W48871  38.398  27.174  10.518
89435W        W48872  15.184   1.895  13.401
89436W        W48873   4.209  24.195  12.832
89437W        W48874  12.153  17.296  14.282
89438W        W48875   7.244  17.168  13.512
89439W        W48876  11.299  24.153   2.802
89440W        W48877   0.271  39.942   1.840
89441W        W48878   3.927  30.626  10.067
89442W        W48879  31.055  24.480  11.981
89443W        W48880   3.944  18.072   1.413
89444W        W48881  36.361  21.527   2.305
89445W        W48882   3.241  30.067   3.182
89446W        W48883  25.572  10.362  13.455
89447W        W48884   6.397   5.263  11.506
89448W        W48885  26.702  33.610  13.057
89449W        W48886   7.794   7.886  13.792
89450W        W48887  14.655  18.076   3.319
89451W        W48888  43.416  14.782  14.933
89452W        W48889   5.783  23.701  14.972
89453W        W48890  29.666  38.008   1.260
89454W        W48891  26.187  19.541  11.610
89455W        W48892  34.543  27.972  14.296
89456W        W48893   8.277  13.625  14.949
89457W        W48894  12.625   4.900  13.319
89458W        W48895  33.878  16.642  14.978
89459W        W48896  16.645  37.939  13.398
89460W        W48897  10.867  14.339  14.498
89461W        W48898  12.810  39.938  10.498
89462W        W48899  36.463   8.208   2.878
89463W        W48900  11.220  12.650   1.798
89464W        W48901   7.350  38.376   4.792
89465W        W48902  32.110   2.749  11.565
89466W        W48903  20.198  32.424  14.391
89467W        W48904  38.988  29.604  12.947
89468W        W48905  29.128  24.101   1.438
89469W        W48906  30.979   3.713  10.903
89470W        W48907  23.116   5.714  11.564
89471W        W48908   8.380  42.304  10.958
89472W        W48909  30.973  36.073  12.874
89473W        W48910  43.879  24.592   1.290
89474W        W48911   4.416   0.462  14.357
89475W        W48912  28.130  27.511  12.949
89476W        W48913   7.836   8.753  10.411
89477W        W48914  36.543  19.776  10.006
89478W        W48915  20.249  43.458   2.744
89479W        W48916  36.568  41.535  14.966
89480W        W48917   3.802   2.235   3.694
89481W        W48918   6.259  13.822  11.442
89482W        W48919  26.181  44.871   4.623
89483W        W48920   3.350  27.469   0.458
89484W        W48921   5.397  28.527  12.851
89485W        W48922  25.689  30.628  12.855
89486W        W48923  26.166  17.602  10.441
89487W        W48924  12.612  32.043   2.813
89488W        W48925  29.061  23.592  13.309
89489W        W48926  31.064   2.908  12.412
89490W        W48927  43.871  34.982   9.950
89491W        W48928  11.738   5.374   0.468
89492W        W48929  26.979  41.365   4.324
89493W        W48930  39.045  26.579  10.078
89494W        W48931  20.643   1.954  14.912
89495W        W48932  16.663  35.931   2.814
89496W        W48933  21.571   7.762   3.862
89497W        W48934  27.106  22.215  13.450
89498W        W48935   0.942  33.621   4.660
89499W        W48936  34.982   1.822   4.607
89500W        W48937  43.889  26.174   2.817
89501W        W48938   4.322  13.242   1.748
89502W        W48939  14.637  40.327   1.226
89503W        W48940  43.821  11.638  12.364
89504W        W48941   3.359  15.654  14.007
89505W        W48942  18.660  14.163  13.015
89506W        W48943  13.691   9.825  14.332
89507W        W48944  30.610  36.552   0.756
89508W        W48945   7.762  28.607   4.292
89509W        W48946  25.143  44.400   0.315
89510W        W48947   1.435  19.619   4.339
89511W        W48948  19.246  33.413  11.069
89512W        W48949  40.446   5.905  13.004
89513W        W48950   2.374  33.504  12.931
89514W        W48951  11.305  36.431   4.637
89515W        W48952   6.294  34.865   1.214
89516W        W48953  42.796  34.882  14.365
89517W        W48954  20.548   1.411  11.058
89518W        W48955  21.254  24.171  14.314
89519W        W48956   9.203  29.635  10.982
89520W        W48957  41.798  41.792  14.462
89521W        W48958  30.944  25.469   5.140
89522W        W48959   6.687  44.755   3.182
89523W        W48960  13.764  15.579  10.643
89524W        W48961  13.613  35.010   1.415
89525W        W48962  32.550  35.538   0.906
89526W        W48963   2.899   7.692  10.906
89527W        W48964  38.327  36.568   4.717
89528W        W48965   6.347  15.145   3.753
89529W        W48966  10.214  40.532   0.748
89530W        W48967   3.282  29.610  13.406
89531W        W48968  16.077  22.052   3.812
89532W        W48969   3.357  15.749   2.191
89533W        W48970  31.940  41.349   2.387
89534W        W48971  27.465  11.739   1.307
89535W        W48972  28.096  27.509   2.210
89536W        W48973  39.547  41.855   1.795
89537W        W48974  20.627  22.207  12.402
89538W        W48975  14.175  27.460   1.396
89539W        W48976  34.434  34.088   1.744
89540W        W48977  44.900  25.078   0.812
89541W        W48978  18.258  23.502  14.316
89542W        W48979  37.487  41.328  11.491
89543W        W48980  37.514  23.006   4.786
89544W        W48981  44.964  29.059  11.586
89545W        W48982   8.806  12.237   0.729
89546W        W48983  34.372  12.846  12.096
89547W        W48984   7.841  26.963  14.342
89548W        W48985  43.292  42.395  11.500
89549W        W48986  40.956  14.183  14.816
89550W        W48987  39.324   1.888   1.810
89551W        W48988  29.146  31.586  13.310
89552W        W48989  34.532   8.324  14.416
89553W        W48990  18.574  26.681   4.289
89554W        W48991  24.140  31.574  14.386
89555W        W48992  35.417  44.278  11.556
89556W        W48993  40.878  22.252   1.881
89557W        W48994  28.958  32.577   3.177
89558W        W48995  34.580  38.073   2.276
89559W        W48996   4.426  19.237  12.833
89560W        W48997  15.186  39.948   1.904
89561W        W48998  42.924   6.705  12.830
89562W        W48999  35.421  25.163   0.301
89563W        W49000  42.952  19.655   0.838
89564W        W49001  11.202  23.207  13.480
89565W        W49002  19.147  21.031   3.299
89566W        W49003  25.078   8.708  10.540
89567W        W49004  33.890  42.012   1.823
89568W        W49005   1.927  12.629   4.177
89569W        W49006   2.272  25.192  11.464
89570W        W49007  30.127  28.153  12.082
89571W        W49008  40.012  16.721  11.899
89572W        W49009  28.986   6.867  13.981
89573W        W49010  13.811  20.180  13.472
89574W        W49011  15.589  27.955  14.993
89575W        W49012   5.803  16.217   2.245
89576W        W49013  39.895  21.629  14.878
89577W        W49014  10.771  13.713  13.495
89578W        W49015   2.790  35.524   2.757
89579W        W49016  21.148  31.495  12.342
89580W        W49017   2.326  33.044   2.412
89581W        W49018  40.501  35.854  13.862
89582W        W49019  23.718  37.571   2.192
89583W        W49020  27.082  29.518   3.787
89584W        W49021   8.283  15.139  13.523
89585W        W49022  12.135  25.625   2.242
89586W        W49023  37.843   8.174  13.961
89587W        W49024   3.886  39.437  13.867
89588W        W49025   9.774  35.395  12.918
89589W        W49026  42.335  29.008   2.403
89590W        W49027  14.254  15.692   1.265
89591W        W49028   5.207  14.226  14.776
89592W        W49029  17.771  20.090   3.338
89593W        W49030  27.692   8.761  13.421
89594W        W49031  37.560   6.809   0.386
89595W        W49032  37.389  20.229  11.498
89596W        W49033  17.110  18.689   0.757
89597W        W49034  16.082  30.991  11.379
89598W        W49035  38.038   7.892  13.516
89599W        W49036   6.183  30.488   1.731
89600W        W49037  11.718   8.758   5.283
89601W        W49038  33.621  42.804   0.423
89602W        W49039   7.198   5.308  10.935
89603W        W49040  44.395  16.272   1.408
89604W        W49041   3.245  43.772   3.335
89605W        W49042  25.509  24.712   1.241
89606W        W49043  21.132  28.468   0.458
89607W        W49044  35.392   4.894  14.991
89608W        W49045   0.250   9.273  13.451
89609W        W49046  36.965  12.215   0.425
89610W        W49047  12.238  29.545  12.562
89611W        W49048  29.567  31.916  14.425
89612W        W49049  43.318  11.668  11.950
89613W        W49050  38.452  11.260   1.421
89614W        W49051  41.798  28.528   2.391
89615W        W49052  38.377  23.038  13.963
89616W        W49053   0.333  28.050   2.666
89617W        W49054  27.014  30.489  14.413
89618W        W49055  15.108  38.875  12.864
89619W        W49056  13.297   6.923   3.696
89620W        W49057   4.815  19.771   1.342
89621W        W49058   2.770  29.629  10.156
89622W        W49059  44.326  21.136   3.251
89623W        W49060  32.900   8.253   4.633
89624W        W49061   7.213   2.238  12.363
89625W        W49062   3.870  27.476  11.858
89626W        W49063  22.087  26.609  12.539
89627W        W49064  10.690  40.502  12.953
89628W        W49065  33.099  19.245  13.438
89629W        W49066  19.706  21.585  14.858
89630W        W49067  39.532  11.213  10.540
89631W        W49068  43.476  28.088  10.943
89632W        W49069  21.149  19.702   4.117
89633W        W49070  33.415  40.836   3.318
89634W        W49071  26.513  22.712   0.325
89635W        W49072  26.205   5.300  12.899
89636W        W49073  25.492  36.483   0.728
89637W        W49074  23.226   2.775   1.902
89638W        W49075  41.336  11.366  13.993
89639W        W49076  34.972   9.753  14.971
89640W        W49077  34.931   1.877  10.085
89641W        W49078  27.076  20.632  13.020
89642W        W49079  15.791   8.720  13.540
89643W        W49080  19.665   0.287   3.651
89644W        W49081  25.490  34.522  14.477
89645W        W49082  39.547  28.063  12.908
89646W        W49083  13.156  29.643   1.341
89647W        W49084  33.387  11.128  12.892
89648W        W49085  22.088  37.444   0.358
89649W        W49086  32.020  34.070   3.344
89650W        W49087   1.942  12.690  13.510
89651W        W49088   8.344  36.411  14.301
89652W        W49089  34.902  22.643   1.804
89653W        W49090  31.975  36.069  12.378
89654W        W49091  44.893  31.513   4.321
89655W        W49092   0.399  10.833  10.569
89656W        W49093  28.500  43.903   1.722
89657W        W49094  43.809  10.764  10.462
89658W        W49095  10.716  21.044   2.255
89659W        W49096  22.231   7.845   4.693
89660W        W49097  43.849  42.000  14.355
89661W        W49098   2.237  18.643  13.378
89662W        W49099  19.054  21.072  11.884
89663W        W49100   9.291   7.236   4.685
89664W        W49101  25.008  13.160  12.511
89665W        W49102  12.133  25.700   2.681
89666W        W49103  44.327  35.576  13.322
89667W        W49104  10.159  21.728   1.830
89668W        W49105  36.362  12.293  12.955
89669W        W49106  15.589  24.131  11.486
89670W        W49107  40.818  19.060   0.837
89671W        W49108  13.839  30.550  11.047
89672W        W49109  14.789  22.024   2.186
89673W        W49110  33.529   8.778  12.844
89674W        W49111  28.542   1.978   3.644
89675W        W49112  37.040  27.052   1.326
89676W        W49113  30.546  25.979  13.365
89677W        W49114  32.985  11.272   4.721
89678W        W49115  18.603  44.479  14.799
89679W        W49116   3.798  33.969  12.581
89680W        W49117  16.261  28.627  11.418
89681W        W49118  13.324  42.394  14.346
89682W        W49119  28.111  19.067   1.707
89683W        W49120  31.535   3.808   0.437
89684W        W49121   7.843  21.129   2.369
89685W        W49122  23.690  18.108  10.443
89686W        W49123  42.844  36.983   0.450
89687W        W49124  30.052  35.600   1.381
89688W        W49125  27.511  37.886   4.761
89689W        W49126  43.457  17.575   2.728
89690W        W49127  34.100  39.491  14.762
89691W        W49128  27.510  39.004   3.306
89692W        W49129  25.991  10.285   2.247
89693W        W49130  15.182  10.178   2.256
89694W        W49131  15.622  41.526  11.897
89695W        W49132  33.395   1.482  12.964
89696W        W49133  36.419   4.857  10.917
89697W        W49134  42.921  20.176  14.836
89698W        W49135  36.402  35.441   0.245
89699W        W49136   4.709   2.760   2.257
89700W        W49137   9.768  35.970   2.224
89701W        W49138  28.504  14.753  10.974
89702W        W49139  30.547  30.125   1.319
89703W        W49140  32.534  31.093   4.828
89704W        W49141  28.679  34.101  11.060
89705W        W49142  36.415  38.362  14.832
89706W        W49143  20.185  12.301  10.531
89707W        W49144  28.983  36.922  11.546
89708W        W49145  18.684   7.291   0.949
89709W        W49146  29.653  20.549   3.807
89710W        W49147  33.909   5.404   4.308
89711W        W49148   9.882  38.897  11.007
89712W        W49149  13.713  30.619  13.996
89713W        W49150  26.595   8.883   9.940
89714W        W49151  40.386  18.095   0.340
89715W        W49152  18.219  34.914   1.439
89716W        W49153  40.385  31.581  10.508
89717W        W49154  13.785  18.778  11.086
89718W        W49155  26.031  41.803   3.678
89719W        W49156  24.098  34.454  10.928
89720W        W49157  19.132  16.226   3.684
89721W        W49158  27.622  19.694  12.480
89722W        W49159  42.404  39.879   4.719
89723W        W49160  34.866  11.813   4.339
89724W        W49161  37.449  29.654  12.883
89725W        W49162  43.507   1.300   2.277
89726W        W49163   4.401   7.184   3.362
89727W        W49164  39.330  37.527  11.421
89728W        W49165   1.337  10.292   0.926
89729W        W49166  27.024  41.510   0.861
89730W        W49167   8.283  19.750   4.267
89731W        W49168  40.528  27.114  10.509
89732W        W49169  35.021  30.626  13.470
89733W        W49170  26.068  13.754  14.831
89734W        W49171   4.344  33.407   4.825
89735W        W49172  14.614  32.952   2.752
89736W        W49173  43.421  34.889  12.920
89737W        W49174  24.582  32.447   2.185
89738W        W49175  26.062  11.168   0.811
89739W        W49176  14.676  43.402  12.071
89740W        W49177  20.166  18.628  14.444
89741W        W49178   3.383  40.307   0.850
89742W        W49179  43.830  22.153  11.564
89743W        W49180  42.486   0.811  14.294
89744W        W49181  31.053  41.475   3.714
89745W        W49182  14.176  14.830  14.015
89746W        W49183  17.220  16.120   1.317
89747W        W49184  28.619  36.097   1.700
89748W        W49185  38.360  10.699  11.410
89749W        W49186  32.889  22.110  10.596
89750W        W49187  17.111  40.975  10.464
89751W        W49188  23.674   0.359  11.564
89752W        W49189   6.347   7.909   0.352
89753W        W49190  17.557  12.332   0.769
89754W        W49191  43.822   1.840   2.335
89755W        W49192   6.265  17.647   2.790
89756W        W49193  23.646   3.799   2.204
89757W        W49194  27.080  32.965   4.726
89758W        W49195  25.111  11.707  13.368
89759W        W49196   3.897   8.246   3.764
89760W        W49197  21.263   8.855   2.392
89761W        W49198  20.113  18.578   0.897
89762W        W49199  42.837  17.681  12.343
89763W        W49200  20.061   9.349  10.581
89764W        W49201  13.314  16.582   1.916
89765W        W49202   0.981  15.179  11.910
89766W        W49203  13.801  34.489   3.679
89767W        W49204   7.888   1.440  12.421
89768W        W49205  14.189   8.306  13.951
89769W        W49206  11.205  12.752   4.304
89770W        W49207  36.009  33.996   0.764
89771W        W49208  42.005  43.312  12.096
89772W        W49209  24.588  16.739  13.453
89773W        W49210  28.512   7.778  14.015
89774W        W49211  17.120   9.382   2.785
89775W        W49212  42.018   1.275   4.136
89776W        W49213  34.882   8.328  12.415
89777W        W49214  16.149   0.824  11.499
89778W        W49215   1.475  16.764  11.111
89779W        W49216  37.990  29.125   3.758
89780W        W49217  14.778  22.123  11.003
89781W        W49218  20.081   3.314  12.970
89782W        W49219  39.895  14.309   3.236
89783W        W49220  13.638   3.252  14.354
89784W        W49221  15.124   5.715  11.120
89785W        W49222  17.620  37.834  11.477
89786W        W49223  29.517  25.150   1.726
89787W        W49224  30.131   4.291  12.933
89788W        W49225   4.240  13.229   3.319
89789W        W49226  23.005  40.937   0.478
89790W        W49227  44.967  14.714   0.768
89791W        W49228  19.683  32.054   0.769
89792W        W49229  28.117  14.704   3.317
89793W        W49230  30.479  20.090   0.328
89794W        W49231  15.617  26.602  10.975
89795W        W49232  33.597  42.901   4.336
89796W        W49233  29.946  11.807   1.327
89797W        W49234  31.114  44.906  13.490
89798W        W49235  33.918  28.931  11.511
89799W        W49236  11.237  22.733  10.562
89800W        W49237   9.319  27.566  14.991
89801W        W49238  34.069  23.034  12.076
89802W        W49239  35.994   0.333  12.028
89803W        W49240   8.792   1.458   4.599
89804W        W49241  37.848  18.776   3.804
89805W        W49242   8.896   0.314  11.975
89806W        W49243  28.607  28.162  11.396
89807W        W49244   2.304   4.371  13.395
89808W        W49245  28.942  38.875   3.798
89809W        W49246  37.872  14.733   2.690
89810W        W49247  38.543   0.286  11.008
89811W        W49248   5.392  30.084  11.887
89812W        W49249  36.378  11.802  12.496
89813W        W49250   6.758   5.344   3.867
89814W        W49251   4.279   3.899   4.143
89815W        W49252   1.319  15.287   9.948
89816W        W49253  42.992  24.482  12.346
89817W        W49254  39.522  20.079   2.679
89818W        W49255  25.621   2.264  14.488
89819W        W49256   2.925  23.161  11.485
89820W        W49257  16.654  16.640  14.784
89821W        W49258   1.754  43.898  14.859
89822W        W49259  18.563   4.754  10.597
89823W        W49260  44.970  14.181   0.408
89824W        W49261  39.559   6.299  11.915
89825W        W49262  22.064  25.113   1.289
89826W        W49263  41.523  17.151  11.396
89827W        W49264  44.995   0.349   4.639
89828W        W49265   8.891  33.944  10.613
89829W        W49266  31.976  10.876   3.230
89830W        W49267  36.542  36.590  12.359
89831W        W49268  27.960   8.844  10.011
89832W        W49269   9.764  32.393  14.993
89833W        W49270  12.814  27.541  10.575
89834W        W49271  16.203  43.904   1.841
89835W        W49272  31.479  28.084   3.222
89836W        W49273   3.877  14.259  13.793
89837W        W49274  10.304  19.737   0.804
89838W        W49275  25.580  28.047   4.766
89839W        W49276  18.186  19.210  11.088
89840W        W49277   0.412  35.407   0.357
89841W        W49278  14.233  35.869  12.041
89842W        W49279  38.504  16.169  12.550
89843W        W49280  16.307  31.591  14.835
89844W        W49281   5.791  24.491   0.921
89845W        W49282  17.132  27.196  10.988
89846W        W49283  43.824  36.567   0.468
89847W        W49284  25.098  40.310   3.283
89848W        W49285  11.679  36.022   5.100
89849W        W49286   1.431   0.376   1.869
89850W        W49287  17.587  27.659   1.335
89851W        W49288  23.087  22.718  13.484
89852W        W49289  27.030  43.274  12.422
89853W        W49290  23.733   3.734   2.664
89854W        W49291  33.052   9.387   2.797
89855W        W49292  35.029  37.051   3.674
89856W        W49293  25.508  44.324   1.832
89857W        W49294  40.313  35.536  12.968
89858W        W49295  19.576  14.697  11.484
89859W        W49296  17.181   9.227  12.973
89860W        W49297  26.130  23.692  13.019
89861W        W49298  43.878  25.483  11.000
89862W        W49299   3.812  42.010   0.368
89863W        W49300  34.906  18.691   0.332
89864W        W49301  24.486  13.814   3.644
89865W        W49302  15.146  36.943  12.511
89866W        W49303  41.459  34.539   9.940
89867W        W49304   4.342   3.244   2.411
89868W        W49305  38.857  19.255  12.856
89869W        W49306   7.880  16.696   4.740
89870W        W49307  30.460  43.289  14.822
89871W        W49308  43.403   5.257  14.869
89872W        W49309  42.015  12.204   3.687
89873W        W49310  32.526  19.227  13.424
89874W        W49311  34.073  29.994  14.468
89875W        W49312  32.125  34.999  12.374
89876W        W49313   2.359   1.828  10.514
89877W        W49314  40.363  36.000   1.700
89878W        W49315  41.038  42.920   1.225
89879W        W49316  27.003  34.474  14.794
89880W        W49317  43.808  37.863   4.142
89881W        W49318  15.811   1.467   0.261
89882W        W49319  23.172  44.824  10.448
89883W        W49320  36.889  19.051   4.760
89884W        W49321  36.914  40.907   4.288
89885W        W49322   4.413  14.200  10.995
89886W        W49323  11.696   7.292   4.267
89887W        W49324  22.189  30.013   3.715
89888W        W49325  14.273  36.591   3.700
89889W        W49326  41.490  37.432   4.196
89890W        W49327  18.233   7.361   2.279
89891W        W49328  34.379  42.376  10.964
89892W        W49329  19.252  12.296  11.409
89893W        W49330   2.231  32.993   0.433
89894W        W49331   4.840  39.811   2.307
89895W        W49332   4.802  12.619  10.125
89896W        W49333  25.696  23.711  13.317
89897W        W49334   6.719  15.695   3.386
89898W        W49335  10.159   4.438   0.827
89899W        W49336  35.995  37.971  11.451
89900W        W49337  36.443  44.834  12.464
89901W        W49338  38.924  39.505   1.764
89902W        W49339  39.979   9.680  14.274
89903W        W49340   1.425  32.941  11.887
89904W        W49341  10.697  35.452  10.553
89905W        W49342  25.070   0.768   2.356
89906W        W49343   6.352   1.299   0.323
89907W        W49344  40.522  37.851   0.758
89908W        W49345  25.501  15.697   1.400
89909W        W49346  14.273   3.894   3.219
89910W        W49347  15.736  43.327   9.547
89911W        W49348  31.939  21.662  12.931
89912W        W49349   5.830  40.947   1.887
89913W        W49350   4.775  11.246   2.293
89914W        W49351  42.941   9.172   1.376
89915W        W49352  41.326  34.480   4.710
89916W        W49353  29.620  17.760   3.290
89917W        W49354  29.025  35.930  10.903
89918W        W49355  33.107   9.662   1.378
89919W        W49356  11.254  11.304   1.223
89920W        W49357  30.580  13.735   3.734
89921W        W49358   0.307  41.453   4.149
89922W        W49359  34.386   3.839   3.240
89923W        W49360  40.863  16.207  11.574
89924W        W49361  26.522   9.291  14.843
89925W        W49362  26.598  11.844  11.540
89926W        W49363  38.331   2.725   0.741
89927W        W49364  30.993  10.374   0.311
89928W        W49365   4.732   2.924   9.929
89929W        W49366   4.860  37.520   4.288
89930W        W49367  37.570  33.036   4.805
89931W        W49368  27.628  23.226  11.465
89932W        W49369  18.050  22.190  14.941
89933W        W49370   6.904  15.184   1.254
89934W        W49371  23.062  10.170  13.861
89935W        W49372  37.400   4.764   4.709
89936W        W49373   1.761   6.822  11.986
89937W        W49374  32.121  38.023   0.280
89938W        W49375   9.886  14.239  14.334
89939W        W49376  27.192  25.154   0.879
89940W        W49377   9.687  25.686  12.437
89941W        W49378  21.756   4.773  13.977
89942W        W49379  19.715  32.104   1.420
89943W        W49380  38.567  32.545   3.780
89944W        W49381  25.566  15.175   3.319
89945W        W49382  31.135  28.676  13.546
89946W        W49383  29.154  32.978  12.970
89947W        W49384  23.668  44.373   2.891
89948W        W49385  30.413  12.311   3.171
89949W        W49386  34.560  40.462   5.286
89950W        W49387  42.311  21.518   3.681
89951W        W49388  21.048  17.139   1.237
89952W        W49389  24.672   3.430   1.842
89953W        W49390   9.227  22.152  12.458
89954W        W49391  43.890  41.441   2.185
89955W        W49392  40.828  15.721   1.417
89956W        W49393   9.758  27.678  13.941
89957W        W49394  14.727   3.365  14.791
89958W        W49395  10.675  41.318   2.230
89959W        W49396   8.373  33.496   3.186
89960W        W49397  41.402  15.194  12.089
89961W        W49398   6.263   9.291  14.464
89962W        W49399  15.267  40.349  12.937
89963W        W49400   4.322   2.229  14.432
89964W        W49401  25.666  20.633   3.213
89965W        W49402  25.117  11.227  13.526
89966W        W49403  29.982  18.155   3.841
89967W        W49404  29.613  40.021   2.668
89968W        W49405   5.821  22.006  13.440
89969W        W49406  29.064  19.281   3.215
89970W        W49407  16.740   0.928   3.820
89971W        W49408  14.824  40.969  14.876
89972W        W49409   3.857   7.798   3.223
89973W        W49410  40.874  25.662  13.040
89974W        W49411  20.687   3.762  12.397
89975W        W49412  37.540  14.783  12.349
89976W        W49413   2.359  15.577  14.355
89977W        W49414  43.781  18.110   2.741
89978W        W49415  41.424  27.613   0.736
89979W        W49416   0.459   9.834   1.784
89980W        W49417   4.844  12.291   1.224
89981W        W49418  20.552  17.619   2.246
89982W        W49419  28.089  30.528   3.248
89983W        W49420  23.210  16.264   0.925
89984W        W49421  28.053  15.184   0.926
89985W        W49422  39.518  25.700  11.587
89986W        W49423  17.752   0.935  13.519
89987W        W49424  18.235   8.270  11.450
89988W        W49425  40.883   0.983   2.286
89989W        W49426  40.974  31.450  13.335
89990W        W49427  36.407  25.164  12.991
89991W        W49428  21.600   3.318   5.233
89992W        W49429  27.082  36.957   1.384
89993W        W49430  24.117  25.994  14.287
89994W        W49431  40.845  42.818   3.189
89995W        W49432  38.004  12.640  11.883
89996W        W49433  22.660  11.248   0.729
89997W        W49434  36.422  43.497  14.488
89998W        W49435  34.482   2.888  10.458
89999W        W49436   2.257  15.692   0.908
90000W        W49437  21.647  31.453   2.247
90001W        W49438  22.701   5.324   1.281
90002W        W49439  29.585  42.505   3.359
90003W        W49440   7.735  11.357  14.410
90004W        W49441   2.355  17.303   4.219
90005W        W49442  20.722  10.366  12.573
90006W        W49443  42.805  19.224   2.787
90007W        W49444  10.781  18.076  14.379
90008W        W49445  44.388  14.233  13.792
90009W        W49446  22.028  33.890  11.505
90010W        W49447  28.586  28.027   3.177
90011W        W49448  35.449  31.403  14.789
90012W        W49449  18.652  43.436  13.340
90013W        W49450  41.924  26.015  14.372
90014W        W49451  21.157  43.290  13.945
90015W        W49452  35.551  13.110  12.457
90016W        W49453  36.420  26.054  14.838
90017W        W49454  29.051  24.659  10.925
90018W        W49455   2.265  19.566   4.660
90019W        W49456  30.486  26.655   3.215
90020W        W49457  24.663  33.012  11.123
90021W        W49458   4.851  12.827  11.051
90022W        W49459  31.485  37.908   2.681
90023W        W49460  27.519  36.365   2.229
90024W        W49461  25.969  16.743  11.868
90025W        W49462  24.624  21.022   2.331
90026W        W49463  12.321  10.379   2.705
90027W        W49464  19.642  39.478  11.372
90028W        W49465  28.512  36.494   3.313
90029W        W49466   3.451  41.455   0.876
90030W        W49467  43.931  31.047   3.318
90031W        W49468  19.151   1.915   4.345
90032W        W49469  11.709  23.605  10.935
90033W        W49470  28.175   1.806   2.858
90034W        W49471  27.009  12.852   2.398
90035W        W49472   2.288  17.249  12.988
90036W        W49473  40.860  33.916   0.941
90037W        W49474  39.316  20.663  13.977
90038W        W49475   3.314  14.686  13.453
90039W        W49476  21.600   5.798   3.691
90040W        W49477  44.858   0.948  12.915
90041W        W49478   7.347  40.504  13.793
90042W        W49479  10.813  32.430  12.378
90043W        W49480   8.804  26.615   0.443
90044W        W49481  23.732  25.981  13.817
90045W        W49482  20.228  35.532   0.957
90046W        W49483  18.285  20.052   4.804
90047W        W49484  22.618  23.201  14.885
90048W        W49485  22.616   9.293   3.691
90049W        W49486  37.421   4.768   2.674
90050W        W49487   4.881  36.980   0.853
90051W        W49488   5.434  39.519   0.457
90052W        W49489  31.598  16.799   3.636
90053W        W49490  25.081  13.156   0.794
90054W        W49491  39.955   5.833   2.380
90055W        W49492  29.926  27.514   2.287
90056W        W49493  33.482   9.265   0.767
90057W        W49494   5.320   6.343  12.393
90058W        W49495  25.685  33.045   3.805
90059W        W49496  42.899  15.823   2.327
90060W        W49497  44.290  29.581  13.427
90061W        W49498   0.825   2.459  12.378
90062W        W49499  40.038  37.525   4.232
90063W        W49500  11.658  19.652  12.491
90064W        W49501   3.451  36.998   1.733
90065W        W49502  28.668   1.868   1.857
90066W        W49503   2.780  15.597  12.096
90067W        W49504   3.289  19.121  13.802
90068W        W49505  27.064   6.369   3.367
90069W        W49506  22.234  31.632   0.831
90070W        W49507   9.888  38.843  10.456
90071W        W49508  21.200  44.362   0.778
90072W        W49509  32.622  12.855   4.737
90073W        W49510  19.643  42.343   1.709
90074W        W49511  32.635  21.579   3.835
90075W        W49512  23.556  34.887   1.890
90076W        W49513   6.912  21.112   4.732
90077W        W49514  19.611  13.292   4.605
90078W        W49515  21.630   6.289   0.935
90079W        W49516  10.357  20.680  13.796
90080W        W49517  23.521  16.606  10.445
90081W        W49518  11.263  15.800   1.877
90082W        W49519  33.484   4.749  14.506
90083W        W49520  16.724  20.085   2.838
90084W        W49521  30.126  15.674  12.061
90085W        W49522  38.412  18.665   3.770
90086W        W49523  25.541  44.753   1.724
90087W        W49524  41.360   4.866   3.747
90088W        W49525   1.945  10.289  10.121
90089W        W49526   1.848  15.645  13.325
90090W        W49527  33.591  38.337   0.304
90091W        W49528  32.899   2.773  14.499
90092W        W49529   2.318  21.598  13.458
90093W        W49530   9.227  20.234  10.441
90094W        W49531  14.661  41.032  10.976
90095W        W49532  13.131  23.613   3.809
90096W        W49533  29.628  22.682  11.917
90097W        W49534  39.365   5.870   0.912
90098W        W49535  26.981  11.730  13.807
90099W        W49536  40.859  20.658   3.829
90100W        W49537   8.846  43.377   2.311
90101W        W49538   1.258  28.554   0.867
90102W        W49539  11.339  22.609   0.839
90103W        W49540  43.991  22.508   0.900
90104W        W49541  40.965   3.722   2.191
90105W        W49542  14.608   3.242  10.510
90106W        W49543  37.951  39.395  11.039
90107W        W49544  39.314  37.480   3.670
90108W        W49545  14.112  14.120  10.064
90109W        W49546  41.854   9.765  11.016
90110W        W49547  40.379  10.311   0.873
90111W        W49548  20.236  37.451   4.632
90112W        W49549  16.741   1.377  10.411
90113W        W49550   2.854   4.426  10.564
90114W        W49551  32.426  30.153  14.020
90115W        W49552  33.980  40.037  11.601
90116W        W49553  27.641  36.996   1.419
90117W        W49554  16.661  44.472  12.033
90118W        W49555  38.519  35.485  10.409
90119W        W49556  12.624  37.930   4.831
90120W        W49557   0.360  29.167   2.694
90121W        W49558  15.220  35.852   0.802
90122W        W49559   0.459   6.688  11.921
90123W        W49560   8.319   4.940  10.130
90124W        W49561  38.058  14.733   4.285
90125W        W49562   3.848   2.348   4.682
90126W        W49563   2.750   8.263  13.912
90127W        W49564   0.819   1.390  12.991
90128W        W49565  28.009  24.148  13.342
90129W        W49566  43.938  25.551  13.351
90130W        W49567  32.632  44.453   2.248
90131W        W49568  21.756  39.331   4.736
90132W        W49569  40.382  33.037  14.478
90133W        W49570  30.636  13.824  13.968
90134W        W49571   1.399  41.383   2.855
90135W        W49572   8.182  29.501   3.836
90136W        W49573  38.351  35.947   4.724
90137W        W49574  33.048   4.886  10.484
90138W        W49575  44.274  18.100   0.831
90139W        W49576   9.212  24.540  10.890
90140W        W49577   7.874  15.611  10.560
90141W        W49578  28.070  12.736   5.105
90142W        W49579  26.662  10.846   2.390
90143W        W49580   9.188  34.041  12.455
90144W        W49581  37.891  10.327  11.004
90145W        W49582   2.442  24.124   4.680
90146W        W49583  41.524  40.806  12.480
90147W        W49584  12.200  10.804   3.782
90148W        W49585   6.918  38.555  12.954
90149W        W49586  26.536  35.414  14.885
90150W        W49587  38.038  21.166   2.285
90151W        W49588  37.445  36.064   4.208
90152W        W49589  20.079  30.433  11.027
90153W        W49590  27.648  40.964  14.987
90154W        W49591   2.801  19.161  10.645
90155W        W49592   8.169  35.478  14.799
90156W        W49593  44.936  25.168   2.711
90157W        W49594  17.253   1.361   3.220
90158W        W49595  43.979  26.500  12.089
90159W        W49596  30.440  38.897  12.536
90160W        W49597  34.961  41.535  11.398
90161W        W49598  26.700   5.410   3.196
90162W        W49599  31.574  24.031  14.415
90163W        W49600  33.549  18.550  11.517
90164W        W49601  20.617  40.822   4.170
90165W        W49602  27.631  36.452  12.064
90166W        W49603   0.917  40.010   0.762
90167W        W49604  23.136  40.847  14.357
90168W        W49605   7.373   2.743   0.752
90169W        W49606  16.306  34.915  12.539
90170W        W49607  18.237  29.491  10.594
90171W        W49608   0.851  27.491  11.922
90172W        W49609   7.794  18.562  11.562
90173W        W49610  22.594  35.892   2.786
90174W        W49611  25.525  12.622  11.048
90175W        W49612   9.765  40.920   0.922
90176W        W49613  25.561   2.816   0.896
90177W        W49614   1.237  38.828   0.265
90178W        W49615  22.688  37.893   1.240
90179W        W49616   1.361  40.494   0.254
90180W        W49617   0.788  21.156   2.247
90181W        W49618  19.705  34.600   3.632
90182W        W49619  44.434  17.600   2.357
90183W        W49620  42.796  16.672  11.469
90184W        W49621   9.644  12.724   2.717
90185W        W49622  42.812  31.085   4.640
90186W        W49623  42.355   8.282  14.356
90187W        W49624   6.210  25.142   2.357
90188W        W49625  37.860  12.245  14.380
90189W        W49626  18.777  15.231   9.660
90190W        W49627  10.857  33.451  13.310
90191W        W49628   1.758  44.501  10.417
90192W        W49629  32.592  32.625   1.762
90193W        W49630  14.668  28.531  11.502
90194W        W49631  31.144   0.277   4.277
90195W        W49632  25.163  21.713   0.817
90196W        W49633  10.640  36.944  12.377
90197W        W49634  19.119  20.212   0.848
90198W        W49635  15.284  31.959   1.398
90199W        W49636  35.571   1.961  11.467
90200W        W49637   6.355  44.345   1.265
90201W        W49638  39.932   2.950   2.361
90202W        W49639   3.231  33.949  14.340
90203W        W49640  12.639   4.357  11.386
90204W        W49641  23.101   7.751   2.308
90205W        W49642   8.224  40.812  11.495
90206W        W49643  15.642  11.631   3.798
90207W        W49644  26.477   0.935  10.893
90208W        W49645   5.225  31.102   3.312
90209W        W49646  18.157  43.368  10.542
90210W        W49647  32.031  32.444   1.735
90211W        W49648  38.036  41.964   4.825
90212W        W49649  39.423  35.488  11.958
90213W        W49650  36.349   7.196  12.070
90214W        W49651   8.765  11.781   4.162
90215W        W49652   8.362  28.669   2.895
90216W        W49653   7.367  32.414  11.090
90217W        W49654  28.003  38.986   0.792
90218W        W49655   4.789   4.439   4.224
90219W        W49656   6.272  18.091   3.842
90220W        W49657  41.912  24.522  11.054
90221W        W49658  36.452  34.373   2.779
90222W        W49659  44.371  36.379   0.423
90223W        W49660   4.300  29.599   1.311
90224W        W49661  15.626  44.377  14.356
90225W        W49662  15.673  20.057   2.863
90226W        W49663  35.588   8.221   4.148
90227W        W49664  11.837  16.261   4.709
90228W        W49665  35.960  27.161   3.285
90229W        W49666   4.403  15.161   1.216
90230W        W49667  28.983  30.059  13.894
90231W        W49668  23.076  41.038  13.880
90232W        W49669   6.309  35.952  10.902
90233W        W49670  12.311  37.547   3.223
90234W        W49671  28.130  36.079  14.785
90235W        W49672  12.116  40.399  11.448
90236W        W49673  12.326  35.472  12.501
90237W        W49674  23.160  19.611   1.874
90238W        W49675  26.694  39.842   0.333
90239W        W49676  18.774  37.514  10.579
90240W        W49677  26.994  33.461   3.739
90241W        W49678  30.029   6.386   1.279
90242W        W49679   5.899  19.137   4.230
90243W        W49680  32.101  35.103  14.781
90244W        W49681  27.959  36.551  12.078
90245W        W49682  26.607   7.324  13.899
90246W        W49683  39.892  36.889  13.914
90247W        W49684   1.441  43.460   0.967
90248W        W49685  32.522  19.774  10.956
90249W        W49686  11.144  30.084  14.462
90250W        W49687  44.806  26.153  13.505
90251W        W49688  30.506   8.744  14.978
90252W        W49689  40.049   4.426   0.801
90253W        W49690  19.191   9.329   1.918
90254W        W49691  34.978  10.860   0.777
90255W        W49692  33.093  11.743  11.970
90256W        W49693  28.492  42.885  11.988
90257W        W49694   2.363  39.431  13.974
90258W        W49695   9.206  11.730  11.564
90259W        W49696  19.650  21.744   4.120
90260W        W49697  16.615  15.730  10.575
90261W        W49698  28.557  38.897   4.315
90262W        W49699  28.055  35.489   4.329
90263W        W49700   4.266  36.007   2.325
90264W        W49701  37.986  28.587   3.739
90265W        W49702  23.224  10.310  14.886
90266W        W49703   8.281   5.728  13.901
90267W        W49704  38.958  41.979  14.951
90268W        W49705   2.942  25.560   1.213
90269W        W49706  21.633   0.401   4.329
90270W        W49707   7.894   5.425  14.844
90271W        W49708  43.293  12.142   1.347
90272W        W49709   9.217   3.852  13.825
90273W        W49710   8.327  12.251   3.687
90274W        W49711  40.881  16.701   2.849
90275W        W49712  13.836  24.698   4.807
90276W        W49713  40.007   0.876  12.922
90277W        W49714  17.297  40.973  13.036
90278W        W49715  12.799   7.883   3.748
90279W        W49716  29.151  11.306   2.404
90280W        W49717   1.334  18.654   3.200
90281W        W49718   4.277   0.357   3.674
90282W        W49719  29.053  39.364   1.794
90283W        W49720  29.165  38.401  11.445
90284W        W49721   9.235  27.618   0.315
90285W        W49722  42.490  26.094  13.331
90286W        W49723  29.116  10.176  14.374
90287W        W49724  29.162  18.685   0.433
90288W        W49725  10.207   4.211  14.983
90289W        W49726  29.543  33.522   9.965
90290W        W49727  13.764  14.630   4.202
90291W        W49728  27.667  30.473   2.354
90292W        W49729  23.001  21.094  13.480
90293W        W49730   3.858  37.983  14.868
90294W        W49731  18.125  23.729   0.891
90295W        W49732  13.770  23.116   4.238
90296W        W49733  14.154   0.338   4.131
90297W        W49734   3.877  33.106   2.718
90298W        W49735  35.425  30.617   3.782
90299W        W49736  30.464  17.777   1.288
90300W        W49737  13.754  12.764   3.189
90301W        W49738  40.362   3.730  14.791
90302W        W49739  32.466   8.800  11.860
90303W        W49740  27.489   1.312  12.421
90304W        W49741  22.104  26.524   3.746
90305W        W49742  28.546  16.163  12.542
90306W        W49743  33.509  16.135  11.097
90307W        W49744  10.750   3.878   4.241
90308W        W49745  21.169   8.175   1.760
90309W        W49746  43.359  42.874   2.826
90310W        W49747  10.794  35.463   4.599
90311W        W49748  43.897  31.506   0.813
90312W        W49749  15.308  28.485   2.315
90313W        W49750  44.465  41.525  14.897
90314W        W49751   7.214  25.199  11.106
90315W        W49752   0.421  24.555  12.918
90316W        W49753  40.508  41.339  10.914
90317W        W49754   7.399  27.519   4.172
90318W        W49755   4.292  38.415   1.743
90319W        W49756  32.024  40.994   2.882
90320W        W49757  41.337  24.117   3.268
90321W        W49758  39.963  22.539  11.456
90322W        W49759  15.755   9.275   0.867
90323W        W49760   6.209  27.543   2.334
90324W        W49761  24.086   7.400   3.292
90325W        W49762  14.628  12.332  11.457
90326W        W49763  44.761  11.773  11.966
90327W        W49764  28.182   6.207  12.831
90328W        W49765   6.691   2.257   0.942
90329W        W49766  31.989  11.677   4.641
90330W        W49767  12.342   2.900  11.116
90331W        W49768  29.533  40.817   4.647
90332W        W49769  42.351   3.721   3.359
90333W        W49770  10.828   2.825  14.836
90334W        W49771  20.265  26.487   1.925
90335W        W49772  23.170   7.415  11.476
90336W        W49773  39.003  34.963  11.113
90337W        W49774  26.959   9.658  12.346
90338W        W49775   0.402  40.470   1.233
90339W        W49776  30.008  34.465  10.473
90340W        W49777  18.117   1.734  10.889
90341W        W49778  12.790  26.008   0.300
90342W        W49779  38.929  35.915  12.013
90343W        W49780   4.347  41.513  14.379
90344W        W49781  23.064  16.132   1.928
90345W        W49782  21.261  39.008   1.824
90346W        W49783  34.968  26.050  10.517
90347W        W49784  16.764  20.033   5.170
90348W        W49785  10.851  38.536  13.998
90349W        W49786  34.539   4.372   2.743
90350W        W49787  34.491  37.993  12.476
90351W        W49788   6.277   5.207  13.849
90352W        W49789  21.716  32.060  14.870
90353W        W49790  20.115  12.324  14.944
90354W        W49791  31.082  42.796  14.805
90355W        W49792   8.383  29.448   5.231
90356W        W49793   6.302  13.298   4.790
90357W        W49794   1.444  33.984   0.361
90358W        W49795  22.744   8.318   0.845
90359W        W49796  19.162  17.614   0.919
90360W        W49797  27.157  35.030  13.887
90361W        W49798  20.052   0.326   0.795
90362W        W49799  42.946   6.267   0.450
90363W        W49800  38.566  15.149   4.129
90364W        W49801   6.820  22.095  11.040
90365W        W49802  39.907  26.584  14.907
90366W        W49803  10.799  30.930   4.282
90367W        W49804  18.246   2.778   1.280
90368W        W49805  11.305  32.585   4.823
90369W        W49806   3.424   8.823   2.197
90370W        W49807  20.719  27.968   3.276
90371W        W49808  22.083  39.493   0.955
90372W        W49809  21.047  24.054  11.051
90373W        W49810  41.935  16.121  11.855
90374W        W49811  13.833  41.448  14.345
90375W        W49812   9.661  42.953  11.518
90376W        W49813  19.745   4.921   2.305
90377W        W49814   2.295  21.685   1.368
90378W        W49815  12.292  29.924   4.203
90379W        W49816  18.185  41.907   3.688
90380W        W49817  26.063  23.084  11.568
90381W        W49818  16.250  21.750   1.411
90382W        W49819  44.007   3.795   0.912
90383W        W49820  36.981  28.961  11.003
90384W        W49821  32.967  21.669  12.425
90385W        W49822  12.166  13.765  13.865
90386W        W49823  35.893  28.520   4.728
90387W        W49824   7.704   7.331   4.675
90388W        W49825  25.062  18.562  14.896
90389W        W49826  43.846  20.207  12.074
90390W        W49827  40.532  42.472   2.340
90391W        W49828  36.993  29.077   0.799
90392W        W49829  36.036  21.546   1.431
90393W        W49830  16.227   9.232  14.986
90394W        W49831  40.897  26.145  12.470
90395W        W49832   6.368  14.652   2.863
90396W        W49833  29.967  27.034   2.368
90397W        W49834  18.275  20.590  10.888
90398W        W49835  43.002  11.673  11.515
90399W        W49836   6.308  44.809   0.778
90400W        W49837  27.600  34.893   3.348
90401W        W49838   5.918  27.485   5.751
90402W        W49839  26.590   7.185  11.988
90403W        W49840  28.520  43.804  12.381
90404W        W49841  11.369   3.788  11.494
90405W        W49842  26.598   6.314   1.818
90406W        W49843  37.351  27.649   1.734
90407W        W49844  11.338  32.082  12.049
90408W        W49845  13.116  23.054   3.822
90409W        W49846  35.556  23.163   2.893
90410W        W49847  22.576  43.852  13.002
90411W        W49848  17.684  33.395   1.876
90412W        W49849  12.622  21.659  12.417
90413W        W49850  11.767  19.545   5.124
90414W        W49851  37.470  36.485   1.284
90415W        W49852  33.563  40.375  14.490
90416W        W49853  27.027   1.361  13.542
90417W        W49854  41.496   1.738   3.806
90418W        W49855   2.359   7.746  12.910
90419W        W49856  12.724   9.826   0.400
90420W        W49857   2.953  40.914   2.711
90421W        W49858  24.690  13.132   0.865
90422W        W49859  21.591  18.179  11.119
90423W        W49860  31.514  25.974  13.458
90424W        W49861  25.634  19.636  10.496
90425W        W49862  41.026  37.390   2.673
90426W        W49863   8.219  11.352   1.717
90427W        W49864  27.511   1.372  14.946
90428W        W49865  12.763  13.197   4.128
90429W        W49866  42.476  34.610   1.276
90430W        W49867  24.657  19.626   1.743
90431W        W49868   3.394  37.428  12.074
90432W        W49869   1.479  38.427  14.811
90433W        W49870  42.874  28.130  13.432
90434W        W49871   1.366  36.055   0.452
90435W        W49872   2.368  22.700   3.348
90436W        W49873  27.071  38.875   0.328
90437W        W49874  28.154   8.880   4.335
90438W        W49875  43.778  24.542  10.477
90439W        W49876  27.619   9.671   3.692
90440W        W49877  23.602  10.140  10.554
90441W        W49878  18.283  29.594   3.346
90442W        W49879  43.830   4.775   4.158
90443W        W49880  42.989  22.691   2.857
90444W        W49881   6.428  17.693   4.819
90445W        W49882  32.551   5.899  13.539
90446W        W49883  42.445  30.656  10.968
90447W        W49884   4.748   3.395  11.980
90448W        W49885  31.982  39.970   1.441
90449W        W49886  15.618  32.485  13.332
90450W        W49887   0.279  24.720  14.813
90451W        W49888  27.166  28.934  12.871
90452W        W49889  43.420  16.186  12.433
90453W        W49890  13.317   4.895   0.733
90454W        W49891   3.220  42.388   0.391
90455W        W49892   0.776  41.292   9.973
90456W        W49893  38.958   5.735   2.746
90457W        W49894   8.882  30.532   2.757
90458W        W49895  44.810   0.254   0.875
90459W        W49896  13.631   3.902   0.323
90460W        W49897  29.137  21.259  13.907
90461W        W49898  38.907  25.092   3.807
90462W        W49899  11.174  40.807   2.710
90463W        W49900   1.478   9.720  14.831
90464W        W49901  19.284  16.580  13.336
90465W        W49902  12.342   4.419  13.805
90466W        W49903   9.312  18.563  13.941
90467W        W49904  23.056  35.866   0.277
90468W        W49905  18.245  31.901  10.609
90469W        W49906  26.078   5.805   1.791
90470W        W49907   2.386  34.894   2.350
90471W        W49908  33.426  40.330  10.887
90472W        W49909  17.078  44.474  14.822
90473W        W49910  19.133  30.576   4.217
90474W        W49911  22.036   9.645  13.939
90475W        W49912   3.436  37.048  12.505
90476W        W49913  10.365  16.289  12.028
90477W        W49914  43.391  25.576  12.034
90478W        W49915  40.937  25.693   3.764
90479W        W49916  15.729   7.369  14.795
90480W        W49917  37.963  29.565   2.864
90481W        W49918  10.322  12.355   3.804
90482W        W49919   6.225  25.705  13.059
90483W        W49920  41.388  14.151   5.249
90484W        W49921  17.190  10.718   0.736
90485W        W49922  28.166  18.161   3.823
90486W        W49923  32.087  39.002  13.376
90487W        W49924   8.252   3.766   0.474
90488W        W49925  24.205  44.297   4.634
90489W        W49926  31.534   9.888   3.160
90490W        W49927  10.354   0.898  11.449
90491W        W49928   9.662   1.824   2.784
90492W        W49929   6.215  11.661   5.224
90493W        W49930  35.430   0.802  13.998
90494W        W49931   2.300  29.485   4.322
90495W        W49932  11.273  28.628  14.365
90496W        W49933  16.633  31.508  12.967
90497W        W49934   9.827  26.613   4.660
90498W        W49935  24.513  39.525   0.277
90499W        W49936   2.370   5.196  14.446
90500W        W49937  35.557   3.787   3.199
90501W        W49938   2.868  24.693   3.711
90502W        W49939  28.090   4.795   4.310
90503W        W49940  40.478  25.071   2.275
90504W        W49941  20.713  37.459   1.721
90505W        W49942  26.587  36.561  14.337
90506W        W49943  39.548  15.713   1.401
90507W        W49944  43.403   1.760   1.377
90508W        W49945  18.225  11.857  11.001
90509W        W49946  21.679   2.846  12.036
90510W        W49947  44.326  30.916   3.154
90511W        W49948   8.810  44.929  12.075
90512W        W49949  40.465  40.889  10.580
90513W        W49950  40.949  32.443  13.877
90514W        W49951   6.836  40.443   4.622
90515W        W49952  43.827   6.247  12.884
90516W        W49953   0.484  30.106   4.622
90517W        W49954  33.888  25.991  13.977
90518W        W49955   4.213  18.091   3.207
90519W        W49956   0.277   2.453  11.530
90520W        W49957   8.705  20.068  13.456
90521W        W49958  13.177   0.840   3.243
90522W        W49959  10.838  38.838  11.860
90523W        W49960   1.452  15.273   3.355
90524W        W49961   2.442   0.885  10.001
90525W        W49962  29.952  43.812   0.337
90526W        W49963  41.043   9.261  14.000
90527W        W49964  26.093   1.391  13.341
90528W        W49965  28.073   8.725  11.881
90529W        W49966  11.237  37.454   4.325
90530W        W49967  41.956   0.437   4.193
90531W        W49968  18.260  37.970   2.268
90532W        W49969   0.894  35.521   2.861
90533W        W49970  35.903  10.246  12.996
90534W        W49971   1.341   1.344  11.893
90535W        W49972  33.385  36.027  12.341
90536W        W49973  26.127  34.869  14.014
90537W        W49974  23.125  31.997  13.495
90538W        W49975  40.809  16.711  11.036
90539W        W49976  22.012   1.322  12.935
90540W        W49977   9.211   6.827   3.328
90541W        W49978  36.353  31.625   4.625
90542W        W49979   4.330  16.715  14.309
90543W        W49980   5.211  44.971  13.929
90544W        W49981  42.424  39.469  13.810
90545W        W49982   9.700  44.780   2.682
90546W        W49983   1.740   7.859   4.169
90547W        W49984  18.262   0.477  12.022
90548W        W49985  19.779  34.412  14.945
90549W        W49986  33.999  20.751   4.821
90550W        W49987  21.655  15.124   1.828
90551W        W49988  33.404  33.092   3.712
90552W        W49989  41.301  41.344  14.956
90553W        W49990  22.069  39.903   5.229
90554W        W49991  27.016  38.481  14.831
90555W        W49992  28.045   0.454  10.521
90556W        W49993  26.071   2.424   1.694
90557W        W49994  34.430  43.331   1.864
90558W        W49995  29.481  16.304   0.892
90559W        W49996  40.961   5.276   1.358
90560W        W49997  28.139   1.903   4.201
90561W        W49998  42.451  44.863  11.542
90562W        W49999  33.927  26.525   3.384
90563W        W50000  10.323   0.367   1.354
90564W        W50001  34.113  36.075  11.099
90565W        W50002   7.242   3.417   4.610
90566W        W50003   0.493  12.714  13.390
90567W        W50004   7.670  44.318   0.403
90568W        W50005   8.860  26.518   0.783
90569W        W50006   1.767  18.181  12.022
90570W        W50007  20.705  36.099   2.227
90571W        W50008   0.475  17.162   1.439
90572W        W50009  39.458  11.257  13.862
90573W        W50010   9.791   5.814   3.780
90574W        W50011  33.400  31.145   2.260
90575W        W50012   6.268   4.863   1.379
90576W        W50013  17.658  22.059   3.269
90577W        W50014  21.528  17.651   2.855
90578W        W50015  34.554  18.272  14.285
90579W        W50016  33.517  20.625  11.886
90580W        W50017  42.969   9.193   5.297
90581W        W50018   1.796  22.662  11.864
90582W        W50019  11.365  21.253  12.533
90583W        W50020  13.235  44.851   0.482
90584W        W50021  18.206  33.461  11.479
90585W        W50022  33.573   7.230   2.720
90586W        W50023  11.676  17.602  11.124
90587W        W50024   7.368  27.022  14.968
90588W        W50025  30.428   5.193   3.219
90589W        W50026  16.740  43.784  14.414
90590W        W50027  34.944   4.789  13.957
90591W        W50028  10.273  22.534   2.716
90592W        W50029  39.965  23.184   3.673
90593W        W50030  17.727  28.108  11.043
90594W        W50031  14.338  41.805   0.354
90595W        W50032  14.613   4.273   4.316
90596W        W50033  17.569  37.020   1.355
90597W        W50034  20.048  39.480  12.957
90598W        W50035   8.271  34.376   0.322
90599W        W50036  16.686  39.408   2.272
90600W        W50037  36.481  29.950  10.989
90601W        W50038  15.721  36.091   1.702
90602W        W50039   7.739  36.936  11.986
90603W        W50040  41.896  10.639  14.019
90604W        W50041  16.224  32.504   0.838
90605W        W50042  39.358  17.216   2.764
90606W        W50043  17.620  27.620  14.423
90607W        W50044  26.042  19.592  13.963
90608W        W50045  30.634   3.896   1.911
90609W        W50046  19.709   5.416   3.757
90610W        W50047  27.619  24.699   0.468
90611W        W50048  13.278  29.987   0.282
90612W        W50049  36.978   3.718   1.295
90613W        W50050  39.318   7.366  11.417
90614W        W50051  18.619  12.840   4.710
90615W        W50052  20.617  14.213  13.467
90616W        W50053  14.149  42.838   4.790
90617W        W50054   5.700  16.177  11.566
90618W        W50055  39.534  16.671   0.727
90619W        W50056   5.934  18.770  11.409
90620W        W50057  25.210  21.606  12.917
90621W        W50058  44.772  24.665   0.755
90622W        W50059   1.381  17.619   0.257
90623W        W50060  33.558   9.331  12.834
90624W        W50061  36.419  26.633  11.005
90625W        W50062  23.722  28.477  11.577
90626W        W50063  14.218  42.362   1.293
90627W        W50064  11.754  33.516  13.365
90628W        W50065  15.823  12.358   1.909
90629W        W50066  22.518  29.651   2.196
90630W        W50067  39.369  23.719   0.899
90631W        W50068  22.622  31.506   4.604
90632W        W50069  36.531  16.145  14.377
90633W        W50070  25.198  41.457   3.170
90634W        W50071   7.282  11.785   3.257
90635W        W50072  27.158   4.307   2.337
90636W        W50073  27.177  19.223   1.851
90637W        W50074  23.665  40.899  11.938
90638W        W50075   8.770  35.555  12.391
90639W        W50076  28.669  41.880   4.838
90640W        W50077   1.331  27.666   1.376
90641W        W50078  20.177  30.914   3.709
90642W        W50079   9.697  22.599   2.230
90643W        W50080   7.861   2.756  14.396
90644W        W50081  41.412   5.306   1.431
90645W        W50082  22.726  30.526   1.885
90646W        W50083  11.138  42.440   2.326
90647W        W50084   4.786  35.060  13.379
90648W        W50085   2.897  35.452   4.617
90649W        W50086  20.538  20.656  14.469
90650W        W50087   3.312   3.932   3.802
90651W        W50088  44.439  22.551   1.799
90652W        W50089  39.869  11.186  12.976
90653W        W50090  21.113  21.518  13.407
90654W        W50091  32.900  12.738  10.512
90655W        W50092   0.957   4.899   1.363
90656W        W50093  27.678  13.674  11.868
90657W        W50094  44.348  25.652   0.252
90658W        W50095  40.019  24.720  11.099
90659W        W50096  36.851  22.094  13.047
90660W        W50097   7.360  33.505  11.060
90661W        W50098   7.721  36.455   0.765
90662W        W50099  39.815  26.575   2.724
90663W        W50100   6.272  27.463   1.449
90664W        W50101  35.960  29.922   0.732
90665W        W50102  18.706  19.637   0.477
90666W        W50103  19.156  16.590   4.817
90667W        W50104  34.404  25.550   3.800
90668W        W50105  24.170  32.051   3.232
90669W        W50106  32.477  18.548   2.262
90670W        W50107  40.498  42.503   0.354
90671W        W50108  37.979  28.158   1.845
90672W        W50109  41.887  18.088  12.838
90673W        W50110  17.192  12.327  13.859
90674W        W50111   0.811   8.689  12.344
90675W        W50112  39.990  11.681  11.924
90676W        W50113   1.259  14.238   1.826
90677W        W50114   9.835   5.882  14.276
90678W        W50115   7.788   2.944   2.298
90679W        W50116  28.121  38.349  14.422
90680W        W50117  27.974  21.197   5.166
90681W        W50118  37.511  33.448  14.942
90682W        W50119   9.351  34.382   4.118
90683W        W50120  34.444  32.047   0.888
90684W        W50121  22.153  12.142  10.420
90685W        W50122  38.859  20.622   4.774
90686W        W50123  16.789  39.932  14.415
90687W        W50124  29.173  17.770  13.843
90688W        W50125  17.600  16.206   3.186
90689W        W50126  16.090  11.698   2.389
90690W        W50127  19.726   8.851   2.881
90691W        W50128  24.978   2.323  14.822
90692W        W50129  39.484  33.933  11.043
90693W        W50130  38.480  27.120  11.443
90694W        W50131  21.671  32.536  12.432
90695W        W50132   2.746  27.609   4.154
90696W        W50133  25.217   9.177   3.671
90697W        W50134   2.261  32.425   4.755
90698W        W50135   7.183  13.767   2.330
90699W        W50136  35.520   1.809  14.373
90700W        W50137   3.296  33.406   2.410
90701W        W50138  43.288  38.829  12.012
90702W        W50139   5.926  27.009   0.824
90703W        W50140  36.043  14.622  13.432
90704W        W50141   3.871  40.802  14.348
90705W        W50142  12.352  31.008  14.844
90706W        W50143  23.036   4.329   4.691
90707W        W50144   9.191  30.474  11.427
90708W        W50145  25.550  14.628  11.960
90709W        W50146  20.199  17.583   0.923
90710W        W50147  11.826  16.752  14.841
90711W        W50148  20.219  23.190  11.933
90712W        W50149  36.975   9.859  10.996
90713W        W50150  23.578   0.802   2.248
90714W        W50151   2.377  21.091  14.349
90715W        W50152   9.177  42.512   3.173
90716W        W50153  40.859  20.695  11.387
90717W        W50154   3.387  31.052  14.772
90718W        W50155  44.500  32.112   4.818
90719W        W50156  26.608  41.416   1.771
90720W        W50157  42.859   3.884   1.713
90721W        W50158  10.311   0.935   3.666
90722W        W50159  22.122   2.951   2.354
90723W        W50160  40.405   7.689   3.216
90724W        W50161  24.140  40.936  13.838
90725W        W50162  19.137  39.487  10.132
90726W        W50163   3.953  32.122  11.915
90727W        W50164  26.157   8.160  10.425
90728W        W50165   2.930  40.852  12.415
90729W        W50166  34.933  23.154  13.428
90730W        W50167  12.263  44.984   4.693
90731W        W50168  18.212  43.456  10.936
90732W        W50169  19.078  25.118  13.498
90733W        W50170  24.679  42.455  11.488
90734W        W50171  24.134  31.144   2.731
90735W        W50172  35.997   2.287   4.699
90736W        W50173  29.067  37.363  13.472
90737W        W50174   7.384  32.064   1.739
90738W        W50175   2.423  16.740   4.649
90739W        W50176  36.918  42.858  13.524
90740W        W50177  38.549  22.509  10.425
90741W        W50178  42.890  14.759   3.370
90742W        W50179  26.152  41.309  14.326
90743W        W50180  33.968  32.085   4.646
90744W        W50181  42.963  16.738   3.265
90745W        W50182   4.725  23.017   3.633
90746W        W50183  33.436   1.901   0.810
90747W        W50184  30.595  32.990  12.499
90748W        W50185  13.722  11.639  11.577
90749W        W50186  22.017  16.593  12.497
90750W        W50187  27.581  41.388  13.898
90751W        W50188  33.467  28.546   0.471
90752W        W50189  18.669  27.174  13.399
90753W        W50190  29.078  19.533  14.386
90754W        W50191  41.296  22.609  11.896
90755W        W50192  15.799  28.613   4.687
90756W        W50193   9.390  41.806   4.230
90757W        W50194  28.102  35.859  13.937
90758W        W50195  10.239  34.929   3.326
90759W        W50196  18.576  43.408   3.287
90760W        W50197  13.720  39.843   4.199
90761W        W50198  38.971  23.504  12.570
90762W        W50199  24.680  16.253   2.250
90763W        W50200  42.029  40.377  13.374
90764W        W50201  12.328  30.001  11.504
90765W        W50202   8.865  22.553  14.508
90766W        W50203  28.632  10.225   3.645
90767W        W50204   2.295  15.623   4.158
90768W        W50205  17.781  21.612  12.884
90769W        W50206  23.706  23.721   0.462
90770W        W50207  34.387   5.693   4.789
90771W        W50208   8.196  21.128  14.284
90772W        W50209   9.859  42.835   1.238
90773W        W50210  42.307  22.668   4.758
90774W        W50211  35.594  34.511   1.284
90775W        W50212   3.803  29.082  12.566
90776W        W50213   1.973  30.594   3.722
90777W        W50214  20.247  27.946   1.867
90778W        W50215  31.405   1.941   4.208
90779W        W50216  38.827   2.413  14.430
90780W        W50217  37.868  17.085  14.453
90781W        W50218  27.577  10.793  13.432
90782W        W50219  37.067  33.452   3.730
90783W        W50220  26.961  30.134  13.055
90784W        W50221   6.224  20.037  14.908
90785W        W50222  10.790   8.343  12.568
90786W        W50223  23.212  18.105  12.558
90787W        W50224   8.209   2.302  12.528
90788W        W50225   8.404  29.071   1.214
90789W        W50226  39.884  31.963  14.441
90790W        W50227   9.282  25.032   0.940
90791W        W50228  24.151   9.161   2.242
90792W        W50229  38.848   9.652  10.937
90793W        W50230  13.625   6.836  12.563
90794W        W50231  17.080  36.860  11.456
90795W        W50232  37.444  20.668   1.258
90796W        W50233  35.521  29.487   2.258
90797W        W50234  34.989  19.715   2.207
90798W        W50235  28.669   8.684  13.035
90799W        W50236  12.796  39.352   1.230
90800W        W50237  24.535   3.282   4.777
90801W        W50238  17.601   2.720   1.924
90802W        W50239   8.775   0.874  12.511
90803W        W50240  10.350   1.373   4.145
90804W        W50241  26.006  11.216  14.796
90805W        W50242   9.204  26.471  13.364
90806W        W50243  44.369   7.282   1.286
90807W        W50244   5.863  41.026   2.678
90808W        W50245  43.412  31.129  14.404
90809W        W50246  36.391   1.339  14.377
90810W        W50247   1.395  23.638   4.783
90811W        W50248  24.138   9.792  12.871
90812W        W50249  16.624  34.598  14.384
90813W        W50250  41.953  40.870  14.822
90814W        W50251   2.338  42.374  14.848
90815W        W50252  42.872  36.457  11.952
90816W        W50253  26.489  24.706   4.275
90817W        W50254   7.175  16.229  14.403
90818W        W50255  11.837  12.804   9.992
90819W        W50256  42.833  26.013  11.107
90820W        W50257  41.813   0.973   2.807
90821W        W50258   7.382  41.438  12.433
90822W        W50259  40.871  38.542  10.911
90823W        W50260  39.934  15.802   4.671
90824W        W50261   8.826  36.476  14.823
90825W        W50262  25.133  24.054   4.145
90826W        W50263  36.482   0.847  14.880
90827W        W50264  27.502   3.916   1.831
90828W        W50265   9.247   5.264  10.486
90829W        W50266   2.725  37.082  11.013
90830W        W50267  36.451  34.985  10.523
90831W        W50268  40.836  14.817  14.467
90832W        W50269  27.983   5.786  14.331
90833W        W50270  10.751   5.196   4.349
90834W        W50271  36.030  27.621  13.365
90835W        W50272  38.865  33.033   3.801
90836W        W50273   5.850  31.609  14.491
90837W        W50274   7.334  43.886   3.175
90838W        W50275  10.341  32.605   1.340
90839W        W50276  18.552  28.456  14.348
90840W        W50277  21.246  13.660  12.945
90841W        W50278  20.212  33.948   1.765
90842W        W50279  11.315  36.563  14.960
90843W        W50280  12.754   6.684   0.421
90844W        W50281   9.337  13.219   2.308
90845W        W50282  22.115  12.838   3.636
90846W        W50283   4.294  28.459   2.311
90847W        W50284  26.611  24.569  12.532
90848W        W50285  31.024  37.387  13.483
90849W        W50286   9.389  10.239  14.373
90850W        W50287  11.840  29.987   3.810
90851W        W50288   4.828  28.576   2.897
90852W        W50289  44.007  35.005  11.430
90853W        W50290   6.845  16.567   0.794
90854W        W50291  22.703  40.941   1.804
90855W        W50292  32.970  22.201  14.388
90856W        W50293   5.905  26.469  11.112
90857W        W50294   5.374  14.618   1.726
90858W        W50295  15.682  37.935   0.799
90859W        W50296  18.180  40.836  14.904
90860W        W50297  35.458   6.412  12.878
90861W        W50298  42.798  18.652  12.052
90862W        W50299   6.808  39.553  11.100
90863W        W50300  15.309  18.207   9.928
90864W        W50301  29.008  14.588   3.369
90865W        W50302  33.521  27.063   9.924
90866W        W50303  15.603  40.303  12.841
90867W        W50304  29.507  44.316   1.881
90868W        W50305  41.527  24.633   2.772
90869W        W50306  17.558   1.949  13.826
90870W        W50307   5.258  11.273  13.488
90871W        W50308   0.342  12.314  13.509
90872W        W50309  37.514  43.270   1.342
90873W        W50310  33.382  44.415   5.278
90874W        W50311   9.278   2.231   2.209
90875W        W50312  13.305  12.667  10.977
90876W        W50313  41.503  35.963   2.706
90877W        W50314  33.115  34.907  10.888
90878W        W50315  21.679  37.438   4.617
90879W        W50316  44.462   2.775   0.410
90880W        W50317  33.454  16.165  14.824
90881W        W50318  34.099  17.232   0.749
90882W        W50319  23.165  24.530  14.815
90883W        W50320  28.668  36.486  11.565
90884W        W50321  26.020  20.032  13.028
90885W        W50322  19.175  30.049   4.610
90886W        W50323   5.827  12.846   2.686
90887W        W50324  37.439  37.907   4.829
90888W        W50325   7.714  24.070  12.485
90889W        W50326  39.924  26.102  10.574
90890W        W50327  27.659  24.677  12.353
90891W        W50328  14.242   3.888   0.916
90892W        W50329  10.730  22.600  13.882
90893W        W50330   9.762  19.596  11.944
90894W        W50331  24.128  11.794   0.436
90895W        W50332  35.564  42.987   0.324
90896W        W50333  31.020  27.179   1.373
90897W        W50334   4.387  34.398  12.997
90898W        W50335  28.156   5.702   2.416
90899W        W50336  14.109  13.189   3.209
90900W        W50337  26.978  21.648  11.424
90901W        W50338   9.225  33.051   2.682
90902W        W50339  16.642  18.621  12.027
90903W        W50340  29.960  22.045  13.825
90904W        W50341  42.468  34.446   2.191
90905W        W50342   2.236   9.286   3.706
90906W        W50343  20.649   5.706  11.020
90907W        W50344   6.356  24.981   3.779
90908W        W50345  43.295  28.980   0.332
90909W        W50346   7.200  40.922  11.381
90910W        W50347   9.220   1.975  11.434
90911W        W50348   9.817   3.941  13.520
90912W        W50349  38.936  42.026  13.014
90913W        W50350  33.093  41.446   3.267
90914W        W50351   7.305   4.441   0.962
90915W        W50352  16.593  14.830  10.019
90916W        W50353  31.958   1.971  13.850
90917W        W50354  33.944  17.147  11.949
90918W        W50355  35.988  40.523  14.360
90919W        W50356  19.215  44.450   1.395
90920W        W50357  20.568  32.958  11.051
90921W        W50358  32.587   0.857   4.272
90922W        W50359  44.889   2.853   4.795
90923W        W50360  42.480   5.267   0.798
90924W        W50361  31.117  19.084  13.890
90925W        W50362  25.132  25.519   1.905
90926W        W50363   9.683   8.729  11.591
90927W        W50364   8.270  37.906   2.869
90928W        W50365  14.816  26.989   1.831
90929W        W50366  39.490  35.093   1.270
90930W        W50367  37.974  28.473  10.405
90931W        W50368  41.408  39.818   3.366
90932W        W50369  16.735  12.772   1.894
90933W        W50370  38.531   5.695  12.995
90934W        W50371  40.510  23.240  12.095
90935W        W50372  42.462  20.204   4.319
90936W        W50373  21.512   9.857  11.058
90937W        W50374  19.208  43.489  12.495
90938W        W50375   0.770  27.947   4.238
90939W        W50376  28.018  40.327   2.699
90940W        W50377   3.938  30.622  14.440
90941W        W50378  39.040  16.641  12.425
90942W        W50379   2.952  17.196   5.630
90943W        W50380   9.349   4.374   3.287
90944W        W50381  31.417   6.243  11.909
90945W        W50382   9.674  17.686  11.401
90946W        W50383   8.868  30.618  11.046
90947W        W50384  25.565   2.235  11.536
90948W        W50385  29.606  37.431   1.897
90949W        W50386  38.354  10.660  14.431
90950W        W50387  27.160  36.477  14.821
90951W        W50388  31.141   3.401   3.193
90952W        W50389  17.137  33.884  11.460
90953W        W50390  44.905   1.742  11.088
90954W        W50391  30.619  14.734   2.671
90955W        W50392  16.092  44.764   1.394
90956W        W50393  11.212   0.418  13.468
90957W        W50394  38.865  17.169   4.725
90958W        W50395  37.534   0.286  12.052
90959W        W50396  40.340  20.116   4.608
90960W        W50397  27.067   3.840   2.342
90961W        W50398   9.780  37.432  13.416
90962W        W50399   8.256  13.316   3.376
90963W        W50400  43.496  34.027   1.307
90964W        W50401   2.415  22.562   2.320
90965W        W50402  35.532  27.676  14.810
90966W        W50403  31.133  18.615   2.867
90967W        W50404  29.923  17.766   2.825
90968W        W50405  17.106  10.669  11.947
90969W        W50406   2.892  43.820   1.904
90970W        W50407  14.788  12.732   4.263
90971W        W50408  18.560  21.218  12.869
90972W        W50409  10.139  42.997   4.815
90973W        W50410   4.233  38.824   1.211
90974W        W50411  20.604  14.168  11.120
90975W        W50412  44.278  23.232  10.570
90976W        W50413   5.830  33.919   3.730
90977W        W50414  32.575  27.498   0.742
90978W        W50415   1.858  15.229  13.961
90979W        W50416  13.680   5.410   4.181
90980W        W50417  44.504  14.645   2.729
90981W        W50418   4.365  28.623   2.768
90982W        W50419  24.195  20.586   1.421
90983W        W50420  12.760  29.535  11.480
90984W        W50421  32.954  13.712   3.744
90985W        W50422  44.353  37.990   0.777
90986W        W50423   6.217  26.573   3.726
90987W        W50424  32.557  31.101   0.288
90988W        W50425   1.420  35.056  12.522
90989W        W50426   7.830  18.682   1.255
90990W        W50427  43.935  24.060   3.350
90991W        W50428  26.667   8.191   1.322
90992W        W50429  15.704  17.247   1.824
90993W        W50430   7.675  28.593   1.819
90994W        W50431   2.387  10.203  14.875
90995W        W50432   8.701  24.188   0.366
90996W        W50433  10.279  17.780  10.627
90997W        W50434  18.225   9.311  10.448
90998W        W50435  18.621  29.460   9.992
90999W        W50436  39.987   6.407  11.073
91000W        W50437  34.993  12.750   4.316
91001W        W50438  28.176   7.191  14.335
91002W        W50439  24.987  15.802  13.384
91003W        W50440  38.424   6.427   1.897
91004W        W50441  19.623  23.664  12.997
91005W        W50442  42.404  13.771   1.284
91006W        W50443  34.529  24.580  14.807
91007W        W50444  29.051  43.285  14.444
91008W        W50445  11.661  34.921  14.872
91009W        W50446  18.552   8.802  10.151
91010W        W50447  19.059   1.315   4.338
91011W        W50448   5.763  14.293   3.146
91012W        W50449   0.427  23.670  14.826
91013W        W50450  39.018  38.397  13.040
91014W        W50451  41.995  34.885  14.829
91015W        W50452   3.775  12.160  14.396
91016W        W50453  40.469  39.457   0.852
91017W        W50454   1.844  34.444  14.865
91018W        W50455  35.971  14.608  13.867
91019W        W50456  32.038   7.697   3.374
91020W        W50457  34.064   1.858   1.308
91021W        W50458  39.821   0.791   0.815
91022W        W50459  10.317  14.124   0.411
91023W        W50460  36.449  33.969  14.909
91024W        W50461   0.287  33.102   4.151
91025W        W50462  25.130  31.611  14.513
91026W        W50463  29.925  26.180   4.255
91027W        W50464  14.170   0.962   3.270
91028W        W50465  10.231  18.153  12.345
91029W        W50466  22.036  39.989  14.896
91030W        W50467  27.014  43.458  11.075
91031W        W50468  12.770   4.299  11.971
91032W        W50469  28.652  18.655   0.963
91033W        W50470   7.668  34.874  13.037
91034W        W50471  31.471   4.932   4.735
91035W        W50472   8.405  18.158  11.051
91036W        W50473  34.984  26.579  10.111
91037W        W50474  39.904  12.229  12.410
91038W        W50475  27.692   6.340  14.319
91039W        W50476  10.183  41.890   2.702
91040W        W50477  11.726   6.239  10.076
91041W        W50478  31.067  24.017   1.450
91042W        W50479  26.050  40.830   4.279
91043W        W50480   4.847  42.485  12.349
91044W        W50481  16.196  31.138   4.188
91045W        W50482  22.184  32.543  11.523
91046W        W50483  12.304  23.170   1.447
91047W        W50484  26.551  22.629  11.489
91048W        W50485  12.347  10.717   4.701
91049W        W50486   3.906  20.138  14.017
91050W        W50487  42.282   6.313   4.181
91051W        W50488  15.648   2.888  11.917
91052W        W50489  37.501   5.896  13.834
91053W        W50490  40.802  14.761  10.955
91054W        W50491  13.626  12.192  11.574
91055W        W50492  14.227  37.872  13.985
91056W        W50493  43.310  15.246  11.487
91057W        W50494   3.856  43.888   2.264
91058W        W50495  27.553  28.994   1.895
91059W        W50496  42.784  20.167  13.889
91060W        W50497   0.974  21.226  11.421
91061W        W50498  42.359   5.212  12.925
91062W        W50499  16.631  27.946  13.842
91063W        W50500  14.602  16.694   2.690
91064W        W50501   1.882  20.587   3.655
91065W        W50502  31.569  28.482   3.148
91066W        W50503  17.108  21.732  11.915
91067W        W50504  26.697  25.201   1.286
91068W        W50505  13.836   1.925   2.732
91069W        W50506  44.917  15.757  10.937
91070W        W50507  18.677  27.627  10.580
91071W        W50508  26.494  36.505   0.914
91072W        W50509  28.467  13.751  13.336
91073W        W50510  42.373   2.813   3.827
91074W        W50511  21.565   5.235  13.840
91075W        W50512  31.110  37.059  12.974
91076W        W50513   3.791  14.277   4.711
91077W        W50514   8.776  24.129  10.525
91078W        W50515   1.905  43.286  11.441
91079W        W50516  19.168  16.623  11.927
91080W        W50517  42.478  39.017   3.663
91081W        W50518  17.129  43.930  14.940
91082W        W50519  42.888   3.904  14.986
91083W        W50520  17.068  19.278  12.995
91084W        W50521   0.761  18.208  13.982
91085W        W50522  14.747  10.285  12.891
91086W        W50523  24.502  37.965  14.505
91087W        W50524  24.202  30.029  13.326
91088W        W50525  15.297  33.968   4.121
91089W        W50526  39.390  36.860   3.315
91090W        W50527  11.252  44.340   3.250
91091W        W50528  27.119  43.291   4.611
91092W        W50529   9.854  21.263   4.233
91093W        W50530   5.765  42.523   3.793
91094W        W50531  33.576  33.113   9.937
91095W        W50532  34.896  23.534  11.390
91096W        W50533  34.515  29.176  13.902
91097W        W50534  30.424   1.448   2.701
91098W        W50535   8.277  33.980  11.106
91099W        W50536   2.913  19.183   4.192
91100W        W50537   3.311  29.452   4.222
91101W        W50538  23.059  21.182  14.373
91102W        W50539   6.762  31.067  12.569
91103W        W50540  36.980   4.303  12.830
91104W        W50541  24.091  30.985   4.753
91105W        W50542  41.451  16.166   3.355
91106W        W50543  24.547  35.359   1.371
91107W        W50544  27.065  13.181  13.430
91108W        W50545   8.893  42.932   1.774
91109W        W50546  43.774   6.852  10.454
91110W        W50547  19.752  40.418   2.743
91111W        W50548  13.824  34.487   4.709
91112W        W50549  23.132   1.970  14.408
91113W        W50550  21.662  18.269   2.741
91114W        W50551   6.891  30.642  13.379
91115W        W50552  24.595   6.869  14.286
91116W        W50553  19.168  42.981   0.734
91117W        W50554  24.981   4.877   2.843
91118W        W50555   9.387  36.496   0.942
91119W        W50556   9.682  34.608   3.354
91120W        W50557  42.356  41.309   1.900
91121W        W50558   4.424  30.471   1.911
91122W        W50559   3.329   9.261   5.102
91123W        W50560  11.351  32.442   3.841
91124W        W50561  13.229   9.847  14.760
91125W        W50562  16.264  13.739   2.707
91126W        W50563  24.037   3.816   1.786
91127W        W50564  15.179  30.119   3.256
91128W        W50565  37.948  26.172  12.413
91129W        W50566  20.528  22.623  13.923
91130W        W50567   9.178   9.380   4.151
91131W        W50568  39.878  19.231   2.788
91132W        W50569  34.502  32.601  13.320
91133W        W50570  23.700  34.385  11.562
91134W        W50571  10.223  13.746   4.633
91135W        W50572  16.229   9.170   3.165
91136W        W50573  40.348  34.551  11.888
91137W        W50574  25.146  27.084   3.669
91138W        W50575  17.646  11.342  12.537
91139W        W50576  30.579  19.201   2.245
91140W        W50577   7.410  38.968   0.795
91141W        W50578  29.968  15.592  10.474
91142W        W50579  44.504  14.610  11.992
91143W        W50580  37.440  31.520   2.236
91144W        W50581  23.515  34.016   2.376
91145W        W50582  21.076   2.352  12.914
91146W        W50583  39.008  14.686  14.323
91147W        W50584  36.586  18.070  13.406
91148W        W50585  16.605   1.859  13.469
91149W        W50586   9.302   4.342   2.197
91150W        W50587   1.241  13.318   0.758
91151W        W50588   2.387  13.253   4.328
91152W        W50589  40.981  28.528  14.006
91153W        W50590  27.452  43.929   3.280
91154W        W50591   1.784   5.407  12.082
91155W        W50592  14.754   8.669   3.861
91156W        W50593   7.176  44.780   2.679
91157W        W50594  18.291   3.395  12.388
91158W        W50595   3.830   0.327   2.850
91159W        W50596  38.362   8.662  13.850
91160W        W50597   7.743  17.273  14.458
91161W        W50598  11.769   3.398   0.298
91162W        W50599  35.395  27.661   4.121
91163W        W50600  38.891   8.218   4.338
91164W        W50601   5.852  13.842  10.528
91165W        W50602   1.968   2.789  13.995
91166W        W50603   0.311   4.702  11.413
91167W        W50604   1.341  14.625   2.665
91168W        W50605   8.860  43.344  11.025
91169W        W50606  44.341  20.742   2.826
91170W        W50607   6.287  40.524  13.978
91171W        W50608  36.943  31.911   3.851
91172W        W50609  19.067  34.877   1.329
91173W        W50610  40.029   0.254  11.928
91174W        W50611  23.154  24.218  11.094
91175W        W50612  21.635  39.862   2.259
91176W        W50613   0.332  32.001   1.423
91177W        W50614  13.790   3.867   2.337
91178W        W50615  19.131   9.322  13.511
91179W        W50616  30.501  22.612   2.411
91180W        W50617  35.991  36.077   1.384
91181W        W50618  43.891  44.826  14.951
91182W        W50619  13.789  14.736   0.821
91183W        W50620  27.032  12.331  10.407
91184W        W50621  20.719  10.263   0.855
91185W        W50622  14.229  39.482   5.158
91186W        W50623  18.558   2.250   0.853
91187W        W50624  34.021  40.015   4.663
91188W        W50625  34.520  16.575   1.801
91189W        W50626  30.159   6.832   3.213
91190W        W50627   8.670  25.021  13.864
91191W        W50628  43.788  38.032   0.402
91192W        W50629  19.223  13.846  11.106
91193W        W50630   8.745  27.519  12.511
91194W        W50631   1.318  41.867  12.847
91195W        W50632  21.076  41.857  11.869
91196W        W50633  39.387  30.432  14.308
91197W        W50634  29.574   4.356  11.470
91198W        W50635  15.171  10.853   2.802
91199W        W50636   1.839  21.599  12.002
91200W        W50637   1.464  36.905   3.699
91201W        W50638  34.417   1.870   1.241
91202W        W50639  15.703  18.248   2.238
91203W        W50640  13.641   9.853   1.743
91204W        W50641  33.954  38.417  11.028
91205W        W50642   9.237   8.271   4.797
91206W        W50643  35.990  35.993   4.699
91207W        W50644   6.793  14.132   2.333
91208W        W50645  15.227  11.288  11.521
91209W        W50646  36.977  31.051  13.925
91210W        W50647  21.134  31.971  13.331
91211W        W50648  18.247  27.496   4.289
91212W        W50649  40.853   9.864  13.857
91213W        W50650   4.335  41.423  11.535
91214W        W50651  41.532  16.143   2.835
91215W        W50652  44.343  31.619   0.391
91216W        W50653  32.959  40.382  13.049
91217W        W50654   8.217  42.834  13.900
91218W        W50655  15.271  18.050   3.238
91219W        W50656  25.185  35.469  12.513
91220W        W50657  41.034  23.719   0.962
91221W        W50658  38.951   1.826  14.858
91222W        W50659  12.688  27.082   0.821
91223W        W50660  34.554   7.272  13.328
91224W        W50661  26.512   5.703  12.534
91225W        W50662  34.942  24.617   2.792
91226W        W50663  34.001  10.340   3.155
91227W        W50664   7.815  38.370  13.893
91228W        W50665   4.376  41.326   1.805
91229W        W50666   3.259  32.932  11.471
91230W        W50667  41.885  41.303   3.301
91231W        W50668  34.015  37.517   3.636
91232W        W50669  21.224  15.275   2.182
91233W        W50670   4.738   4.236   2.740
91234W        W50671   9.818  27.542  14.943
91235W        W50672  11.657  35.095   4.146
91236W        W50673  26.571  40.925  12.550
91237W        W50674   9.710  11.836  11.096
91238W        W50675   3.275  18.261  11.037
91239W        W50676  20.667  40.448   0.327
91240W        W50677  23.187   4.811  11.522
91241W        W50678  21.555  16.587   2.311
91242W        W50679  40.811   0.772   3.210
91243W        W50680  39.028  36.849   0.306
91244W        W50681  25.133   1.477   1.280
91245W        W50682  18.134  26.503  14.380
91246W        W50683   2.251  25.131   0.895
91247W        W50684  25.697   8.717  11.991
91248W        W50685  18.156   3.744  11.056
91249W        W50686  43.768   0.258  11.944
91250W        W50687  40.325  41.024  11.954
91251W        W50688   4.290  18.714  11.045
91252W        W50689  38.052  43.361  14.373
91253W        W50690  26.673  20.531  14.898
91254W        W50691  29.492  37.386  11.081
91255W        W50692  18.696  40.931  12.370
91256W        W50693  43.466  33.111   4.687
91257W        W50694  32.447   7.849  11.588
91258W        W50695  37.954   5.744  11.475
91259W        W50696  38.377  14.747  11.975
91260W        W50697  42.863  30.619  11.519
91261W        W50698  40.346  28.554   2.215
91262W        W50699  43.875  14.280   1.249
91263W        W50700  36.939  20.652  12.049
91264W        W50701   8.351   3.709   3.181
91265W        W50702  14.261  40.304   0.890
91266W        W50703  37.839  42.789  13.919
91267W        W50704  25.162  17.721  11.535
91268W        W50705  16.113   9.359   2.221
91269W        W50706  33.397  12.253   2.225
91270W        W50707  11.145  43.001  13.907
91271W        W50708  34.489  25.686  14.877
91272W        W50709  15.305   8.775  10.889
91273W        W50710  23.613  18.097   0.290
91274W        W50711   3.752   0.472   4.324
91275W        W50712  30.504   5.246   2.868
91276W        W50713  35.018  23.029  13.908
91277W        W50714  16.627  25.070   3.858
91278W        W50715  28.648   3.873  10.446
91279W        W50716   3.907  21.730  14.898
91280W        W50717  29.027  13.709  14.000
91281W        W50718  13.803   6.262   4.217
91282W        W50719  38.426  40.861   4.758
91283W        W50720  32.551  21.700   0.481
91284W        W50721   7.298  32.064  13.479
91285W        W50722  10.311  36.874  10.956
91286W        W50723  25.664   9.735  14.810
91287W        W50724   8.720  37.460  14.971
91288W        W50725  38.509   6.259   4.673
91289W        W50726  18.088  32.006  13.438
91290W        W50727  16.261  27.167  12.418
91291W        W50728  42.010  15.785  12.006
91292W        W50729  23.638  14.735   3.227
91293W        W50730   5.727   0.874  11.571
91294W        W50731  23.215   2.451  13.847
91295W        W50732  43.901  14.230  14.332
91296W        W50733  31.030  36.014  14.913
91297W        W50734   9.755  31.518   1.269
91298W        W50735  33.551  30.652  11.421
91299W        W50736   3.867  23.554   4.733
91300W        W50737  36.577  41.472  12.881
91301W        W50738  42.011  34.902  13.386
91302W        W50739   0.355   0.764   4.773
91303W        W50740  37.561  31.503   4.755
91304W        W50741   2.325  23.991   4.170
91305W        W50742   4.253  39.384  13.425
91306W        W50743  29.617  43.910  13.325
91307W        W50744  37.998  32.518  14.779
91308W        W50745  27.474  12.660   4.757
91309W        W50746  42.862  11.234  14.031
91310W        W50747   3.842  38.928   1.821
91311W        W50748  22.740  32.534  13.309
91312W        W50749  12.819  31.592  12.009
91313W        W50750  16.273  32.054   1.415
91314W        W50751  17.615  26.208   3.764
91315W        W50752   2.311   7.712   0.270
91316W        W50753   6.782  38.012   4.343
91317W        W50754  33.075   6.330  13.371
91318W        W50755   3.425   5.696  10.534
91319W        W50756  15.098   7.859   3.256
91320W        W50757  25.121  30.922   0.822
91321W        W50758  43.871   7.703   2.400
91322W        W50759  42.928  40.816  11.050
91323W        W50760  27.604   1.735   0.362
91324W        W50761  25.126  35.441  14.965
91325W        W50762  38.873  43.380  13.064
91326W        W50763  26.544  29.633  13.429
91327W        W50764  29.022  23.703  12.912
91328W        W50765  25.594  14.630   2.740
91329W        W50766   3.735   7.849  12.383
91330W        W50767   7.375  27.191   3.869
91331W        W50768  13.690  10.230  14.914
91332W        W50769   8.244  30.923  11.387
91333W        W50770  27.642  22.140  10.431
91334W        W50771  37.549  17.107  13.061
91335W        W50772   0.818   8.716  14.932
91336W        W50773   9.656   2.864  10.490
91337W        W50774  35.406  42.390   2.788
91338W        W50775   2.353  21.673  13.031
91339W        W50776  26.607  41.488  11.572
91340W        W50777  30.144  14.203  14.809
91341W        W50778  35.976   7.910   0.466
91342W        W50779  17.703  33.000  14.907
91343W        W50780  23.555  12.729  11.090
91344W        W50781  10.826  10.249   3.826
91345W        W50782   8.178  44.862   4.663
91346W        W50783  24.565  44.797  12.031
91347W        W50784  34.046  41.858   1.215
91348W        W50785   7.239  29.110   3.695
91349W        W50786  22.518  19.648  11.921
91350W        W50787  41.297  21.676   5.155
91351W        W50788   2.300  10.313   4.132
91352W        W50789  33.005   0.432  11.459
91353W        W50790  40.877  33.096  11.973
91354W        W50791  25.668  35.396   1.798
91355W        W50792  27.661   2.422  14.429
91356W        W50793  26.164  31.467  12.415
91357W        W50794  11.746  15.296  11.882
91358W        W50795  32.944  33.023  11.046
91359W        W50796   0.384  23.001  13.842
91360W        W50797  38.843  18.216   3.862
91361W        W50798  38.027   0.473   2.701
91362W        W50799  28.670   6.728  11.498
91363W        W50800  18.172  25.637  10.416
91364W        W50801  16.110  31.927   0.298
91365W        W50802   3.353  37.963   3.803
91366W        W50803  27.690  39.930   1.719
91367W        W50804  33.518  38.452  13.392
91368W        W50805  37.555  28.051   2.672
91369W        W50806  24.563  21.627  13.315
91370W        W50807  13.689  11.715   3.727
91371W        W50808  17.073  40.452   4.160
91372W        W50809  30.627  43.805   0.783
91373W        W50810   5.275   6.311   2.720
91374W        W50811   2.795  38.553   2.406
91375W        W50812   5.406  21.129  12.548
91376W        W50813   7.868  34.564  13.498
91377W        W50814  37.535  40.397   4.205
91378W        W50815  24.212  10.693   9.603
91379W        W50816  20.172  17.176  11.052
91380W        W50817   1.280  15.783  12.458
91381W        W50818  26.134  27.681  12.517
91382W        W50819  22.607  32.954  11.026
91383W        W50820  28.106  34.592   4.299
91384W        W50821  17.682  25.612   2.797
91385W        W50822  24.510  26.018  14.367
91386W        W50823  36.998  22.064   4.278
91387W        W50824  42.874  31.073  12.034
91388W        W50825  11.627  12.132  12.016
91389W        W50826   0.828  22.067  10.408
91390W        W50827  40.516  43.495   2.686
91391W        W50828   7.832  14.286  12.551
91392W        W50829   5.383  42.788  10.444
91393W        W50830   0.339  40.995  10.894
91394W        W50831  11.274  21.591   1.415
91395W        W50832  24.508   1.739   0.961
91396W        W50833  19.746  16.231   3.715
91397W        W50834  30.493  20.199   1.295
91398W        W50835   2.774  13.672  11.996
91399W        W50836   2.737  20.566   4.727
91400W        W50837  16.797  37.375   3.665
91401W        W50838  22.996  34.597  14.838
91402W        W50839   2.444  29.997   1.847
91403W        W50840  30.611  10.332  11.980
91404W        W50841  13.620  24.196   3.257
91405W        W50842  19.605  43.297  11.504
91406W        W50843  34.112  25.555   1.353
91407W        W50844  10.637   6.304  11.125
91408W        W50845   7.417  18.672   0.250
91409W        W50846  31.483  17.176   0.249
91410W        W50847  17.738   9.309  12.508
91411W        W50848  41.891   4.267  14.764
91412W        W50849   7.389  21.094   1.216
91413W        W50850   2.386  26.614   3.370
91414W        W50851  29.623  27.475   3.762
91415W        W50852   3.215  36.425   0.245
91416W        W50853  15.681   8.755  12.827
91417W        W50854  29.571  26.142   1.303
91418W        W50855  15.243  20.258   1.430
91419W        W50856  12.238  26.520  13.968
91420W        W50857  44.839  16.617  14.413
91421W        W50858  24.022  20.081   2.194
91422W        W50859  29.110   2.469   0.319
91423W        W50860   2.771  12.643  14.352
91424W        W50861  29.999  42.297   0.374
91425W        W50862  34.976  36.535  14.802
91426W        W50863  25.984   9.247  11.910
91427W        W50864   8.391  36.371   4.289
91428W        W50865  14.610  12.771  12.421
91429W        W50866  27.680  13.733   3.766
91430W        W50867  15.670  15.132   3.636
91431W        W50868  32.607  38.530  11.469
91432W        W50869  32.426  42.367   4.190
91433W        W50870  43.374   3.316   1.914
91434W        W50871  11.193   0.440  14.304
91435W        W50872  34.999   4.905  14.425
91436W        W50873  32.943  19.667  12.834
91437W        W50874   3.944  34.553  14.961
91438W        W50875  26.074   4.368   1.289
91439W        W50876  35.951  24.079   1.450
91440W        W50877  12.855  15.776  12.569
91441W        W50878  42.872  13.266   1.348
91442W        W50879  37.032  39.874   2.192
91443W        W50880  44.866  13.191  12.077
91444W        W50881  23.104  40.353   2.194
91445W        W50882   1.447  21.754  12.067
91446W        W50883  14.722  12.656  13.970
91447W        W50884   8.787  24.619   0.870
91448W        W50885  12.771  26.575   1.853
91449W        W50886  22.155  38.927  10.597
91450W        W50887   1.385  37.068   2.257
91451W        W50888   9.706  27.109  14.842
91452W        W50889  26.650  25.647  13.027
91453W        W50890  32.888  36.035  13.877
91454W        W50891  10.213  36.950  12.493
91455W        W50892  32.963  29.100  14.440
91456W        W50893   8.308  24.005   1.923
91457W        W50894  10.845  19.733  12.972
91458W        W50895  43.781  30.072   4.786
91459W        W50896  42.890  13.692  12.059
91460W        W50897  20.649   4.826   1.417
91461W        W50898  33.120  27.674  13.947
91462W        W50899  28.580  21.253  14.012
91463W        W50900   5.857  17.641   0.339
91464W        W50901   7.720  21.718   2.703
91465W        W50902  32.421  14.684   2.677
91466W        W50903  24.688  15.676   9.971
91467W        W50904  33.491  26.700  13.052
91468W        W50905  26.124  41.485   1.778
91469W        W50906  27.198  14.323  14.391
91470W        W50907  33.021   5.741  10.613
91471W        W50908  20.594  16.237   0.740
91472W        W50909  27.040   4.356   3.375
91473W        W50910  24.105   5.402   3.698
91474W        W50911  25.190   3.390  14.921
91475W        W50912  30.156   5.382   4.303
91476W        W50913   6.268  20.714   0.372
91477W        W50914  13.626  14.196  13.353
91478W        W50915   1.933   1.312  11.602
91479W        W50916  20.659  24.521  14.814
91480W        W50917  28.051   5.828   0.784
91481W        W50918  28.559  18.073   0.376
91482W        W50919   4.911   6.748   3.674
91483W        W50920  34.615  31.941   1.919
91484W        W50921   7.232  24.039  12.850
91485W        W50922  26.977  15.110   9.950
91486W        W50923  20.233  41.041  10.419
91487W        W50924   7.362  11.324   0.817
91488W        W50925  20.698  37.479   4.226
91489W        W50926   6.412  41.960  10.942
91490W        W50927  27.012  20.744  14.952
91491W        W50928  25.589  43.392   5.201
91492W        W50929   2.278   4.890  10.115
91493W        W50930  37.440  41.023   2.179
91494W        W50931  31.467  30.054  14.473
91495W        W50932   8.241  20.564  13.930
91496W        W50933  21.194   9.737   3.188
91497W        W50934  11.692  35.469   2.698
91498W        W50935  27.973  41.906   3.228
91499W        W50936  34.516  39.981  14.814
91500W        W50937   5.319  23.581   2.755
91501W        W50938  15.723  38.501  11.030
91502W        W50939   9.250  13.334   4.293
91503W        W50940  26.144  31.011  11.102
91504W        W50941  36.986  14.789  13.323
91505W        W50942  32.131  11.733  13.543
91506W        W50943  24.030  23.117   0.398
91507W        W50944  25.568  40.365  13.037
91508W        W50945  21.690   0.826  12.479
91509W        W50946  43.810  20.127   0.315
91510W        W50947  41.383  31.996  10.549
91511W        W50948  38.033  22.610  12.501
91512W        W50949   1.296  22.687   3.756
91513W        W50950  40.365  43.957  13.311
91514W        W50951  21.600  44.872  10.937
91515W        W50952   8.840  36.066   0.788
91516W        W50953  23.140  37.049  10.059
91517W        W50954  44.496  28.051   1.394
91518W        W50955  18.744  11.256  12.483
91519W        W50956  22.192  28.513  13.363
91520W        W50957  16.646  41.905   1.271
91521W        W50958  37.440  29.592   3.859
91522W        W50959  19.108  35.979   1.814
91523W        W50960  11.751  39.410  14.769
91524W        W50961  15.292  10.343   4.351
91525W        W50962   9.224  14.162  11.439
91526W        W50963  44.817  27.039  12.527
91527W        W50964  21.248  42.440  11.112
91528W        W50965  25.637   0.887  11.449
91529W        W50966  11.769  17.707  12.983
91530W        W50967  19.704  29.618   5.182
91531W        W50968  25.478   7.765  11.018
91532W        W50969  37.993  41.334   1.237
91533W        W50970  37.389   4.407   1.242
91534W        W50971  26.077  21.186  12.366
91535W        W50972   1.751  44.889   2.892
91536W        W50973  24.174   4.928   3.217
91537W        W50974  21.192   6.252   4.312
91538W        W50975  30.039  43.812  11.524
91539W        W50976  21.161   8.662  13.911
91540W        W50977  17.556   2.343  14.816
91541W        W50978  40.513  11.746   5.192
91542W        W50979  34.997   1.301   2.724
91543W        W50980  11.744  37.016   3.249
91544W        W50981  20.727  15.782   1.866
91545W        W50982  24.986  25.607  11.090
91546W        W50983  30.161  35.908  14.847
91547W        W50984  39.398  43.926   2.739
91548W        W50985  13.733  39.489   0.276
91549W        W50986   7.773  12.648   2.669
91550W        W50987  25.599  30.440  14.941
91551W        W50988  30.121  26.695  13.938
91552W        W50989  16.108  41.799  13.023
91553W        W50990  16.166  32.935  10.954
91554W        W50991  19.739  34.042  14.818
91555W        W50992   7.397  29.585   1.770
91556W        W50993  32.438  12.824   3.195
91557W        W50994   2.236  42.875  11.933
91558W        W50995  38.846   5.860   4.278
91559W        W50996  12.636  33.418   1.356
91560W        W50997  28.029  10.742   0.395
91561W        W50998   5.704  27.480  14.013
91562W        W50999  32.909   8.853   4.243
91563W        W51000   7.325  28.042   3.831
91564W        W51001   6.368  41.935   0.826
91565W        W51002  40.842  43.298   3.820
91566W        W51003   1.924  34.876  12.987
91567W        W51004  10.202  22.138  14.846
91568W        W51005  10.208  44.957   1.933
91569W        W51006  43.295  22.103   1.874
91570W        W51007  36.497  44.922   1.820
91571W        W51008   2.785   7.243  13.383
91572W        W51009  21.743   4.346   3.249
91573W        W51010  34.045  14.788  10.624
91574W        W51011   1.798   9.253  12.403
91575W        W51012   6.865  11.271  14.993
91576W        W51013  13.614  34.502  10.940
91577W        W51014  12.261  21.182  11.865
91578W        W51015  33.389   8.222   1.704
91579W        W51016   4.786   3.781   4.781
91580W        W51017  16.700  38.487   1.855
91581W        W51018  33.594  44.343  12.874
91582W        W51019  44.352  31.585  12.092
91583W        W51020  43.855  20.030   4.180
91584W        W51021  38.467  20.141  14.295
91585W        W51022  17.108  25.170   1.355
91586W        W51023  26.680  29.059  13.521
91587W        W51024   9.200  11.769   0.318
91588W        W51025  13.297  34.535  14.330
91589W        W51026  17.244  11.772   4.275
91590W        W51027  27.632   8.864   1.771
91591W        W51028   1.746  14.316   3.265
91592W        W51029  20.252   5.249  12.080
91593W        W51030  27.602   7.845   3.190
91594W        W51031  25.984  27.089  11.498
91595W        W51032  20.262   4.860  10.068
91596W        W51033  13.829   3.334  14.888
91597W        W51034  15.629  44.901  12.461
91598W        W51035  40.007  26.492   1.365
91599W        W51036  18.260   0.816   1.220
91600W        W51037   2.436  27.109  13.524
91601W        W51038  22.511   2.429  13.955
91602W        W51039  17.154  15.764  10.113
91603W        W51040  37.855  34.005  14.919
91604W        W51041  13.222  44.498  11.909
91605W        W51042  17.626  17.628   0.340
91606W        W51043   6.298  35.089  11.538
91607W        W51044  35.986  13.150   3.356
91608W        W51045  33.040  30.516   4.189
91609W        W51046  44.814   0.981  10.962
91610W        W51047  26.030   8.262  10.117
91611W        W51048  35.592  29.639   4.174
91612W        W51049   2.242  32.578   2.248
91613W        W51050  37.448  17.242   4.835
91614W        W51051  43.293  25.985   4.615
91615W        W51052   0.806  37.053  12.382
91616W        W51053  43.937  42.389   3.718
91617W        W51054  13.179  17.577  11.443
91618W        W51055  25.977   0.475  14.774
91619W        W51056  10.785  18.252   5.262
91620W        W51057  24.683  37.479   5.261
91621W        W51058  18.784  30.601   2.841
91622W        W51059  42.337  36.095   3.224
91623W        W51060  39.403  39.056   0.801
91624W        W51061  34.519   3.424   2.392
91625W        W51062  23.161  11.656  12.843
91626W        W51063  13.714  21.717  10.410
91627W        W51064  14.181  40.319  14.963
91628W        W51065   5.918  33.585   3.644
91629W        W51066  37.474   6.788  10.405
91630W        W51067  44.880  28.587   3.789
91631W        W51068  19.082  16.310   4.622
91632W        W51069  10.346  32.991   0.284
91633W        W51070  19.135  37.388   2.297
91634W        W51071  44.865  23.733   2.374
91635W        W51072   0.955  40.491   1.872
91636W        W51073   7.731  15.821   0.945
91637W        W51074   6.801  43.003  14.425
91638W        W51075  12.648   9.692  13.919
91639W        W51076  16.629  42.480  14.976
91640W        W51077  10.234   5.434   1.804
91641W        W51078  28.497  29.996   0.807
91642W        W51079  33.562  24.992  11.417
91643W        W51080  36.988   1.761  11.114
91644W        W51081  17.568  20.536  10.440
91645W        W51082   4.844  40.482   2.369
91646W        W51083  11.318  16.702  13.948
91647W        W51084  23.602   9.298  13.027
91648W        W51085  42.027  38.351   1.282
91649W        W51086   0.956   0.399  12.375
91650W        W51087  42.463  11.708  14.398
91651W        W51088  42.308  12.758  11.906
91652W        W51089  13.316  23.189  13.931
91653W        W51090  11.136  34.450   0.907
91654W        W51091  42.792   2.784  10.560
91655W        W51092  38.972   2.409   2.670
91656W        W51093   1.929  42.914  13.349
91657W        W51094   4.771  22.553   5.151
91658W        W51095  23.069  37.922  10.582
91659W        W51096  10.846  37.871  14.865
91660W        W51097  23.059  23.501  12.944
91661W        W51098   1.446   5.919  14.795
91662W        W51099  15.759  10.234  12.513
91663W        W51100  21.037  26.516   0.923
91664W        W51101  14.129  22.632   5.265
91665W        W51102  35.360  27.975   2.317
91666W        W51103  24.036  30.059  14.280
91667W        W51104  38.347   3.420   4.620
91668W        W51105  42.909   2.393  13.850
91669W        W51106   2.863  20.672  12.033
91670W        W51107   3.425  42.479   4.604
91671W        W51108  39.386  42.467  13.006
91672W        W51109  26.486  27.668   2.310
91673W        W51110  32.616  21.679   0.748
91674W        W51111  18.113  24.500   2.869
91675W        W51112  12.714  16.303   0.960
91676W        W51113  21.614  39.880   5.769
91677W        W51114  16.255  21.239   3.190
91678W        W51115  37.915  21.738  11.605
91679W        W51116  37.351   4.759  11.893
91680W        W51117  13.284  43.413  12.559
91681W        W51118  19.576  40.446  13.969
91682W        W51119   6.760  26.060  14.963
91683W        W51120  15.312  25.042   4.194
91684W        W51121  10.262   6.339   5.207
91685W        W51122  29.122  39.943   0.894
91686W        W51123  13.666   3.275  13.399
91687W        W51124  28.123  12.696   4.273
91688W        W51125  10.237  10.217   2.733
91689W        W51126  32.589  10.341  12.575
91690W        W51127  27.117   0.267   1.432
91691W        W51128  24.639   9.736   4.805
91692W        W51129  10.148  24.598   2.264
91693W        W51130  19.686   2.359   1.359
91694W        W51131  40.883  34.509   4.767
91695W        W51132  13.297  11.654   5.081
91696W        W51133  29.461  23.076   1.817
91697W        W51134  15.306   3.805  13.973
91698W        W51135  17.097  21.173   0.343
91699W        W51136   2.421   8.273  13.488
91700W        W51137  41.401   1.296  12.971
91701W        W51138  27.051  36.452   3.745
91702W        W51139   6.803  22.524   4.219
91703W        W51140  15.594  18.114   5.646
91704W        W51141  39.559  42.457   0.385
91705W        W51142  22.630  43.936   2.864
91706W        W51143  17.684   4.213   1.703
91707W        W51144   8.199  35.506   3.291
91708W        W51145   5.213  11.199  11.436
91709W        W51146  12.742  40.434   0.782
91710W        W51147  29.987   7.693   3.264
91711W        W51148   3.720   2.906   2.717
91712W        W51149   0.338  32.937   1.394
91713W        W51150  18.638  44.814   1.723
91714W        W51151   4.426  21.582  12.447
91715W        W51152  40.401   7.393  14.322
91716W        W51153   2.360   0.809  12.017
91717W        W51154  19.671  18.229   4.316
91718W        W51155  18.616  17.703   2.869
91719W        W51156  17.710   5.710  10.419
91720W        W51157  19.550  37.017  13.847
91721W        W51158  35.060  44.846  14.388
91722W        W51159  15.691   9.203   2.842
91723W        W51160  15.808   2.861   2.334
91724W        W51161  24.028   1.853  13.354
91725W        W51162  16.164  40.411   2.418
91726W        W51163  35.953  10.677   4.116
91727W        W51164  33.611  31.008   2.720
91728W        W51165  39.000  36.932   2.682
91729W        W51166  34.045  18.137  12.012
91730W        W51167  21.512  28.505  12.850
91731W        W51168  23.141  42.965   5.140
91732W        W51169   6.897  36.872   4.653
91733W        W51170  14.718  20.092   4.196
91734W        W51171  41.791  33.463   0.353
91735W        W51172  17.609   0.803   2.829
91736W        W51173  42.469  38.408  12.544
91737W        W51174  35.554  31.060   2.894
91738W        W51175  39.815  21.541  14.502
91739W        W51176  29.076   9.272   4.200
91740W        W51177  12.723  24.017  13.037
91741W        W51178  21.594  23.079   0.479
91742W        W51179  40.523  20.687  10.937
91743W        W51180  11.202   7.198  12.356
91744W        W51181  37.497  37.357   2.385
91745W        W51182  21.687  11.206  14.828
91746W        W51183  44.955  44.858   1.894
91747W        W51184   0.402  21.631   0.783
91748W        W51185   8.302  16.793  10.481
91749W        W51186  38.378  19.764   5.217
91750W        W51187   8.810  33.967  14.445
91751W        W51188  32.137  12.223   1.864
91752W        W51189  29.429  25.158  13.930
91753W        W51190   9.658  43.897   3.724
91754W        W51191   5.433  36.854  12.405
91755W        W51192  29.919  31.037   0.403
91756W        W51193   1.903  13.286  12.909
91757W        W51194  15.613  26.696   0.896
91758W        W51195   3.796  14.295  14.426
91759W        W51196  17.601  18.137  11.495
91760W        W51197  17.623  20.173  10.614
91761W        W51198   7.404  34.610   1.880
91762W        W51199  39.501  34.390   2.330
91763W        W51200  30.072  31.075   2.794
91764W        W51201   6.265  12.190   1.729
91765W        W51202  24.029   4.313  13.830
91766W        W51203  37.835  43.859   3.222
91767W        W51204  34.105  18.246   0.898
91768W        W51205  12.322  19.570  12.926
91769W        W51206  16.308  19.600  10.424
91770W        W51207  17.240  16.740   2.388
91771W        W51208  41.862   2.440   0.349
91772W        W51209  19.743  36.883   4.312
91773W        W51210  22.527  36.967   1.449
91774W        W51211  12.130  16.754  14.862
91775W        W51212  26.475  22.101   0.752
91776W        W51213   1.747  44.353  12.014
91777W        W51214  35.574  40.314  14.343
91778W        W51215  12.700  16.692  10.519
91779W        W51216  20.100  15.304   4.201
91780W        W51217  13.150   7.704  12.870
91781W        W51218  33.524  25.992  10.498
91782W        W51219  40.963  13.352   2.372
91783W        W51220  34.388  27.492  11.571
91784W        W51221  33.458  21.232  11.879
91785W        W51222  15.110  15.123  12.404
91786W        W51223  24.034  26.631   4.837
91787W        W51224  34.589  21.607   2.883
91788W        W51225  10.286  33.560   5.290
91789W        W51226  30.490  10.248   3.185
91790W        W51227  15.581  33.094   1.349
91791W        W51228  13.289  20.569  11.485
91792W        W51229  22.568  41.966   1.264
91793W        W51230   9.859  37.429  14.506
91794W        W51231  42.013  37.025  14.331
91795W        W51232  44.492  26.115  14.303
91796W        W51233  33.506  41.504   1.790
91797W        W51234  27.543  24.531   3.710
91798W        W51235  41.868  13.154   0.415
91799W        W51236  24.053   9.218  13.837
91800W        W51237  44.837  20.072  14.341
91801W        W51238  41.296  40.522  14.021
91802W        W51239  14.254  36.584  11.443
91803W        W51240  16.686  31.432  14.861
91804W        W51241  29.463   4.758  11.389
91805W        W51242  14.828  42.850   0.900
91806W        W51243  43.947  12.132  11.004
91807W        W51244  44.837  18.210   1.852
91808W        W51245  15.097   9.306  14.879
91809W        W51246  41.820   7.782   2.787
91810W        W51247  24.231  22.227  12.359
91811W        W51248   6.736  24.515  14.402
91812W        W51249  22.608   1.776  13.986
91813W        W51250  32.617  43.444   1.280
91814W        W51251  31.549  39.469   2.749
91815W        W51252   7.726  10.369  10.981
91816W        W51253  42.372  28.146   1.923
91817W        W51254   1.788  35.979  12.036
91818W        W51255  26.150  21.125  12.843
91819W        W51256  25.174  41.321  10.533
91820W        W51257  17.769  22.620  12.857
91821W        W51258  31.961   4.380  13.882
91822W        W51259  37.879  29.424  11.384
91823W        W51260  14.280  27.104  14.390
91824W        W51261  17.577   2.403   0.748
91825W        W51262  41.969  39.479   4.285
91826W        W51263  17.611  40.985  13.980
91827W        W51264   6.778  27.024   5.087
91828W        W51265   2.286   8.711   1.277
91829W        W51266  16.111  27.003   2.712
91830W        W51267  38.912   0.269  12.481
91831W        W51268  31.999  44.451  13.899
91832W        W51269  33.056   2.868  12.056
91833W        W51270   7.220  16.077  12.530
91834W        W51271  37.441  30.943  10.513
91835W        W51272  15.327  40.919  13.795
91836W        W51273  19.764  28.559   1.373
91837W        W51274  31.935  30.500   1.838
91838W        W51275   8.866  26.502  13.451
91839W        W51276   7.803  25.549  14.348
91840W        W51277  43.278  37.837   4.207
91841W        W51278  33.879  35.543  10.412
91842W        W51279   7.389   2.944  14.929
91843W        W51280  21.025  21.153   2.185
91844W        W51281  32.629  38.000  12.896
91845W        W51282   5.688  12.816  11.013
91846W        W51283   1.880  42.480  14.392
91847W        W51284  30.524  25.538  12.470
91848W        W51285  34.429  16.073   4.124
91849W        W51286  28.597  14.339   5.220
91850W        W51287  39.918  12.143  14.474
91851W        W51288  26.631  14.241   4.687
91852W        W51289  36.456  36.058  11.099
91853W        W51290  12.846  25.089  13.444
91854W        W51291   0.923  25.967  13.885
91855W        W51292   7.299  18.213  13.452
91856W        W51293   1.272  20.608   1.759
91857W        W51294  13.772  38.939  11.876
91858W        W51295  10.780  33.561   1.816
91859W        W51296  36.437  22.662  14.345
91860W        W51297  18.577  33.589   3.350
91861W        W51298  15.237  41.831  14.435
91862W        W51299  14.756  42.866  14.479
91863W        W51300  29.118   0.949   0.827
91864W        W51301  19.646  26.016  14.397
91865W        W51302  29.608  15.810   1.436
91866W        W51303   8.250  40.989   3.779
91867W        W51304  27.626  23.594  13.957
91868W        W51305  37.991  36.884  14.911
91869W        W51306  12.821  21.071  14.385
91870W        W51307  37.081   4.823  13.435
91871W        W51308  36.888   4.909   3.280
91872W        W51309  33.419  38.326  11.520
91873W        W51310  17.078   2.469   1.273
91874W        W51311  10.843  35.888   1.830
91875W        W51312  31.965   5.706   0.753
91876W        W51313   9.724  35.436   1.773
91877W        W51314  36.593  13.699   1.713
91878W        W51315  35.043  27.171  14.411
91879W        W51316  16.697  20.274  12.529
91880W        W51317   4.809  27.681   1.307
91881W        W51318  15.108   4.705   2.869
91882W        W51319  38.484  26.573  13.487
91883W        W51320  43.842  41.348  13.906
91884W        W51321   5.427  22.530  11.382
91885W        W51322  30.084  13.845   0.314
91886W        W51323  30.538  43.863  13.327
91887W        W51324  29.656   3.722   1.933
91888W        W51325  36.998  44.449   0.755
91889W        W51326  29.656  40.406   4.269
91890W        W51327  43.927  41.790  10.468
91891W        W51328  12.747  36.373   2.805
91892W        W51329   4.863  37.348  10.509
91893W        W51330  15.126  43.811   2.854
91894W        W51331  37.868  33.105   0.742
91895W        W51332  17.624   8.400   3.651
91896W        W51333  18.636  28.539  12.048
91897W        W51334  24.135  25.047   0.730
91898W        W51335  29.495  38.553  14.443
91899W        W51336   6.888  21.565  14.463
91900W        W51337  14.675  11.767  11.960
91901W        W51338   1.740  44.810   0.940
91902W        W51339  14.695  36.578   0.272
91903W        W51340  13.748  30.621   0.963
91904W        W51341   8.742  17.663  11.522
91905W        W51342  34.460  42.398   1.806
91906W        W51343  38.370  29.519  13.443
91907W        W51344  34.406   4.326   4.196
91908W        W51345  12.253   7.799  11.405
91909W        W51346   2.868   2.303   0.963
91910W        W51347  10.209   5.703   0.921
91911W        W51348  12.117   4.934  13.409
91912W        W51349  41.332  29.569   1.285
91913W        W51350  24.554   4.341   2.379
91914W        W51351  22.126  44.873   3.749
91915W        W51352   9.336  36.072   3.238
91916W        W51353  37.523  26.517  11.102
91917W        W51354  21.701  29.479  11.907
91918W        W51355  16.767   1.479  13.849
91919W        W51356  29.509   2.299  13.997
91920W        W51357   7.343  40.967   4.344
91921W        W51358  14.231  13.704  13.990
91922W        W51359  41.816  22.554  13.317
91923W        W51360  28.453  25.003  11.539
91924W        W51361   3.946  19.600   2.258
91925W        W51362   7.895  18.229   1.346
91926W        W51363  28.601  37.888   5.257
91927W        W51364  25.175   3.894   3.649
91928W        W51365  10.246   7.679   2.392
91929W        W51366  16.087  40.497  11.425
91930W        W51367  26.682  22.701   4.202
91931W        W51368  19.095  29.128  11.962
91932W        W51369  32.120  26.476  13.855
91933W        W51370  43.382  27.164  13.821
91934W        W51371   5.222  13.135  10.921
91935W        W51372  19.629   0.270  13.932
91936W        W51373  28.934   3.434  12.386
91937W        W51374  32.574  33.103   0.440
91938W        W51375   6.375  17.607   4.218
91939W        W51376  31.616   3.290   0.812
91940W        W51377  28.060  29.112   3.840
91941W        W51378  32.436  12.826  14.762
91942W        W51379  34.918  28.551  12.883
91943W        W51380  21.192  43.927  13.813
91944W        W51381  31.151  10.169   1.433
91945W        W51382  27.579  43.422   0.798
91946W        W51383  42.984  40.502   2.772
91947W        W51384  35.985  26.161  11.971
91948W        W51385  29.467   6.335  12.922
91949W        W51386  10.291  44.812  10.638
91950W        W51387  22.232  43.990   0.850
91951W        W51388  41.307   1.833   3.370
91952W        W51389  42.315  21.126  12.459
91953W        W51390  18.224   4.749   1.791
91954W        W51391  41.815   2.347  14.464
91955W        W51392  39.909  22.653  12.543
91956W        W51393  14.753  44.850   4.801
91957W        W51394  32.098  39.829  11.572
91958W        W51395  29.426  18.149  10.949
91959W        W51396   2.366  40.990   4.226
91960W        W51397   9.697  10.638  10.954
91961W        W51398  41.916   5.913   4.740
91962W        W51399  44.410  26.535  13.795
91963W        W51400  42.520   5.203   2.407
91964W        W51401  13.248  18.117  12.527
91965W        W51402  20.250  19.723   1.349
91966W        W51403   1.761  26.463   1.922
91967W        W51404  12.733  17.591  11.868
91968W        W51405  17.304  12.797   4.297
91969W        W51406  28.125  29.638   5.186
91970W        W51407   9.770  43.899  13.867
91971W        W51408   5.706  24.063   2.245
91972W        W51409  38.943  26.675  11.998
91973W        W51410   8.737  25.210  12.845
91974W        W51411  34.495  24.693   0.959
91975W        W51412  33.579  22.174  13.053
91976W        W51413  18.645   6.248  13.891
91977W        W51414  35.518   7.879  12.958
91978W        W51415  17.274  22.215   4.716
91979W        W51416   7.183  22.211   3.861
91980W        W51417  36.444   9.292  11.010
91981W        W51418  31.522  34.003   1.277
91982W        W51419  32.953  16.733  11.575
91983W        W51420  32.608  23.642   1.262
91984W        W51421  24.077  44.944  14.432
91985W        W51422  30.081  38.888  13.547
91986W        W51423  35.514   6.855   4.826
91987W        W51424  13.677  35.942   0.396
91988W        W51425   1.944  39.987   1.389
91989W        W51426   7.834  38.864   0.852
91990W        W51427  42.972  33.983  12.418
91991W        W51428  32.137  18.197   4.197
91992W        W51429   4.824   9.183  11.391
91993W        W51430  43.276  40.490   1.758
91994W        W51431   5.734  24.059   3.772
91995W        W51432  38.352  39.367  11.978
91996W        W51433  26.124  17.083  12.024
91997W        W51434  33.973  11.331   1.756
91998W        W51435  15.598  19.773  10.085
91999W        W51436  22.553   0.851   3.255
92000W        W51437  44.297  12.815   3.199
92001W        W51438  29.938  41.498  10.621
92002W        W51439   2.815  42.902   1.778
92003W        W51440   0.443  26.147  14.448
92004W        W51441  24.704  28.156  14.301
92005W        W51442  25.485  28.618   4.766
92006W        W51443  33.568   6.764   0.884
92007W        W51444  25.632  30.591  10.434
92008W        W51445  41.961  25.534  13.470
92009W        W51446  24.132  38.471  12.507
92010W        W51447  14.242  10.290   4.333
92011W        W51448  28.472  38.998  14.858
92012W        W51449  14.153  41.933  13.923
92013W        W51450  10.791  25.122   3.640
92014W        W51451  13.762  28.552  11.011
92015W        W51452   9.745  29.003   0.745
92016W        W51453  37.513  11.799   4.148
92017W        W51454  19.549  27.663  13.791
92018W        W51455   7.759  17.102  11.468
92019W        W51456  12.305  39.981  14.456
92020W        W51457  40.549  15.101  14.426
92021W        W51458   6.197  22.705   4.615
92022W        W51459  25.106  21.598   2.224
92023W        W51460   0.436  21.150  14.965
92024W        W51461  25.196  42.952  12.551
92025W        W51462  35.960   6.408  10.440
92026W        W51463  37.523  21.123  12.942
92027W        W51464   1.895  27.995  13.442
92028W        W51465   4.400  20.209   2.858
92029W        W51466  42.431   6.838  14.926
92030W        W51467  20.117  38.873   2.347
92031W        W51468  26.984   2.322   2.712
92032W        W51469  43.431  44.400   2.793
92033W        W51470  33.501  25.510   1.262
92034W        W51471   7.270   0.841   4.716
92035W        W51472  26.121  42.420  13.058
92036W        W51473   3.830  28.570   2.266
92037W        W51474  19.150  38.977  11.125
92038W        W51475  31.981  20.050   1.372
92039W        W51476  10.702  28.622   3.670
92040W        W51477   9.202  37.446  13.834
92041W        W51478  36.426  19.543   0.313
92042W        W51479  10.741  38.910  13.539
92043W        W51480  23.201  24.224   0.963
92044W        W51481  24.211  44.390  10.632
92045W        W51482  30.487  17.681  10.643
92046W        W51483  39.027  38.000   4.177
92047W        W51484  42.957  23.990   3.312
92048W        W51485  26.096  26.602   0.446
92049W        W51486  18.694  30.557   1.900
92050W        W51487  35.080   7.172  11.543
92051W        W51488   4.867  31.904  14.963
92052W        W51489  25.611  10.303   2.674
92053W        W51490  37.466  42.775  13.953
92054W        W51491  15.192   4.815  11.570
92055W        W51492  18.646  37.007   1.317
92056W        W51493  26.008  25.989   3.770
92057W        W51494   3.719  33.568  14.017
92058W        W51495  44.391  40.968  11.422
92059W        W51496   7.402  42.984  13.875
92060W        W51497  25.599  10.704   2.838
92061W        W51498  35.382  19.047  12.497
92062W        W51499  12.794  29.051  14.015
92063W        W51500  29.536  16.299   2.868
92064W        W51501  27.672  17.133   1.720
92065W        W51502  21.242  19.693   1.931
92066W        W51503  17.266   9.289   4.145
92067W        W51504  31.957  13.169  14.908
92068W        W51505  25.196   0.374   4.681
92069W        W51506  13.783  15.147  12.457
92070W        W51507  15.193  25.470  14.321
92071W        W51508  21.063  11.851  11.552
92072W        W51509  13.699  40.304   1.842
92073W        W51510  18.714  21.710   3.851
92074W        W51511  34.070  40.987  14.933
92075W        W51512   3.331  16.673   3.159
92076W        W51513  18.762   0.827   3.377
92077W        W51514  28.937  40.450  14.349
92078W        W51515  12.833  24.651  13.006
92079W        W51516  42.299  13.292   0.398
92080W        W51517  24.973  35.095   2.390
92081W        W51518  18.078  39.553  12.870
92082W        W51519  32.945  21.649   2.245
92083W        W51520   9.184  13.255   3.362
92084W        W51521  36.416  12.208  13.936
92085W        W51522  44.357  36.085  12.883
92086W        W51523  18.262  36.484  11.944
92087W        W51524  24.022   3.781  14.338
92088W        W51525  23.650  38.042   5.657
92089W        W51526  42.916  20.253  13.313
92090W        W51527  15.144   8.810   1.751
92091W        W51528  25.078  42.420   1.906
92092W        W51529  25.483  32.583  12.008
92093W        W51530   7.756   0.321   1.355
92094W        W51531   0.475  36.862   3.212
92095W        W51532  12.716  16.686   2.897
92096W        W51533  30.631  27.628  12.007
92097W        W51534  37.427  42.840  13.453
92098W        W51535  10.164   6.386   4.158
92099W        W51536  35.473  24.003   3.866
92100W        W51537  18.106  18.604  13.968
92101W        W51538   1.267  32.984  11.079
92102W        W51539   8.877   0.356   4.793
92103W        W51540  14.256  11.297  13.998
92104W        W51541  36.933   0.886  10.995
92105W        W51542  35.100   8.791   4.770
92106W        W51543  44.274   0.981  12.941
92107W        W51544  39.859  36.573  10.551
92108W        W51545  11.296  17.191  12.483
92109W        W51546  17.597  17.161   3.336
92110W        W51547  39.409   2.375  11.896
92111W        W51548  30.156  27.506  11.107
92112W        W51549  28.978  37.020   4.637
92113W        W51550  23.648  44.856   1.709
92114W        W51551  36.903  26.189  11.020
92115W        W51552  11.863  44.390  11.084
92116W        W51553  42.860  12.803  12.398
92117W        W51554  19.536  12.764   2.692
92118W        W51555  31.995   4.253   4.657
92119W        W51556   7.746  44.299  12.938
92120W        W51557  12.135  27.015  11.915
92121W        W51558   7.835  22.734  14.807
92122W        W51559  24.705   7.274  13.480
92123W        W51560   7.667  35.469  12.388
92124W        W51561  33.109  23.083  14.946
92125W        W51562  40.904   9.688   2.672
92126W        W51563  28.945  23.141  13.534
92127W        W51564  30.921  21.620  13.029
92128W        W51565  21.626  28.091  14.369
92129W        W51566   3.901  40.833   3.698
92130W        W51567  26.481   7.724  14.511
92131W        W51568  40.911  23.514  12.093
92132W        W51569  27.461  18.618  13.401
92133W        W51570  42.411  22.106  13.876
92134W        W51571  22.673  12.716   2.884
92135W        W51572  16.752  18.092  11.525
92136W        W51573  41.040   9.869   4.138
92137W        W51574  32.908   7.235   0.468
92138W        W51575  17.093  30.024  13.486
92139W        W51576   8.350  39.520  10.626
92140W        W51577  21.561  11.148   3.784
92141W        W51578  36.962  15.318   0.754
92142W        W51579  22.738  10.685   1.450
92143W        W51580  13.235  25.585   0.749
92144W        W51581  30.528  33.964  14.885
92145W        W51582  38.866  15.320  11.400
92146W        W51583  14.222  37.922  11.868
92147W        W51584  44.349  16.264  13.525
92148W        W51585  27.477  40.800   1.930
92149W        W51586   1.466  40.899   3.660
92150W        W51587  18.572   7.779  12.497
92151W        W51588  37.342  22.181   3.831
92152W        W51589  23.184  21.054   1.757
92153W        W51590  13.203  42.812   2.308
92154W        W51591  30.045  17.204  14.406
92155W        W51592  23.034  25.002  10.035
92156W        W51593  22.631  33.541   0.916
92157W        W51594  40.434  15.134   0.944
92158W        W51595  39.916  31.609  11.977
92159W        W51596   5.719  20.269  11.499
92160W        W51597  13.725  24.693  11.022
92161W        W51598  33.385  39.842   2.716
92162W        W51599   1.399  39.514   1.363
92163W        W51600  41.417   7.258   0.888
92164W        W51601  35.900  37.067   4.149
92165W        W51602  37.429  16.641   1.807
92166W        W51603  13.834  31.601   4.674
92167W        W51604  35.465  39.431  11.862
92168W        W51605   6.754   0.878  10.965
92169W        W51606  42.941  26.535  14.793
92170W        W51607  37.367   2.451  11.088
92171W        W51608  20.559  44.904   1.300
92172W        W51609  14.631  16.725  11.382
92173W        W51610  11.701   0.429   4.251
92174W        W51611  22.240  20.185   3.723
92175W        W51612  27.955  30.500   1.368
92176W        W51613   1.872  20.525  12.455
92177W        W51614  12.144  11.128   1.895
92178W        W51615  31.552   6.424  11.593
92179W        W51616  35.481   0.415  11.376
92180W        W51617  31.565   5.795   1.436
92181W        W51618  14.710  39.869  12.908
92182W        W51619  34.969  18.103   2.697
92183W        W51620   8.292  14.280   0.803
92184W        W51621  30.075  41.355   0.450
92185W        W51622  26.022  38.887  12.358
92186W        W51623   1.970  42.031   0.857
92187W        W51624  16.780  22.527  14.428
92188W        W51625  23.216   0.978   0.266
92189W        W51626  17.104  22.587   5.221
92190W        W51627   8.835  15.727  12.506
92191W        W51628  25.506   0.458   3.216
92192W        W51629  20.582  36.088  12.917
92193W        W51630  28.031  40.917   0.945
92194W        W51631  36.534  34.086   3.265
92195W        W51632  36.496  38.909   2.833
92196W        W51633  20.730  34.487   4.225
92197W        W51634  38.952  29.505   3.825
92198W        W51635  34.508  41.303   2.817
92199W        W51636   6.205  42.974  10.573
92200W        W51637  30.628  30.539   1.317
92201W        W51638  25.542  35.489   3.285
92202W        W51639  40.001  20.135  12.902
92203W        W51640  12.674  35.980  14.383
92204W        W51641  29.954  23.516  12.934
92205W        W51642  28.048  30.052   1.383
92206W        W51643   9.227  24.496  10.068
92207W        W51644  32.601  25.604  11.543
92208W        W51645  14.733  33.109  12.060
92209W        W51646   8.169  32.623   0.350
92210W        W51647  25.632  22.742  12.956
92211W        W51648   3.877  24.076   1.881
92212W        W51649  38.414  18.553  14.902
92213W        W51650  33.480  12.781  11.998
92214W        W51651   9.241   7.280   0.463
92215W        W51652   8.372   4.266   3.379
92216W        W51653  34.484   2.953   3.845
92217W        W51654   5.340  29.041  12.035
92218W        W51655  21.231  43.956   1.277
92219W        W51656  21.200  29.936   1.881
92220W        W51657   7.228  33.888   1.242
92221W        W51658  44.869  44.459   0.767
92222W        W51659  38.905   7.755  10.975
92223W        W51660  32.056  17.586  14.810
92224W        W51661  44.869  12.175   3.154
92225W        W51662   7.796  40.318   4.753
92226W        W51663  40.813   7.764  10.935
92227W        W51664  43.463  13.781   2.221
92228W        W51665  26.207  28.674   2.332
92229W        W51666   0.251  38.900   2.354
92230W        W51667  27.560  15.277   2.414
92231W        W51668  11.697  10.240  12.516
92232W        W51669  26.694  31.517  14.462
92233W        W51670  12.806   1.754  13.327
92234W        W51671  17.105  11.767  14.369
92235W        W51672  33.551  29.124   3.660
92236W        W51673  43.779  37.866   3.665
92237W        W51674   7.292  27.506  11.937
92238W        W51675  13.720  36.412  12.090
92239W        W51676  13.231  34.921  12.395
92240W        W51677   7.790  12.145  10.569
92241W        W51678  33.547  23.604  13.416
92242W        W51679  35.402  31.030  11.071
92243W        W51680  26.520  39.960   1.287
92244W        W51681  14.607   9.881   0.726
92245W        W51682   6.877  21.144  10.505
92246W        W51683  26.625   2.370   0.836
92247W        W51684  21.116  21.675   3.742
92248W        W51685  24.181   4.707   2.354
92249W        W51686   3.348  32.415   0.247
92250W        W51687  37.078   0.908   4.792
92251W        W51688   7.171   6.428   0.911
92252W        W51689  36.043   2.758  11.081
92253W        W51690   7.782  14.660  12.501
92254W        W51691   1.363   5.244  13.988
92255W        W51692   7.228  13.751  12.343
92256W        W51693   5.869  21.217   0.801
92257W        W51694  30.490  20.658  14.957
92258W        W51695  29.466  40.315   0.955
92259W        W51696  30.085  36.013  14.510
92260W        W51697  27.464  12.308  10.581
92261W        W51698  14.601  21.246  13.829
92262W        W51699   7.404  39.353   4.194
92263W        W51700   5.891  31.088   1.777
92264W        W51701  10.698  34.518  12.093
92265W        W51702  11.202  25.019   1.825
92266W        W51703  43.997  20.262  14.865
92267W        W51704  21.098  41.529   0.897
92268W        W51705  27.484  10.802   1.223
92269W        W51706  40.918   9.169   3.659
92270W        W51707   7.332   4.934  13.351
92271W        W51708  33.069  23.017  13.812
92272W        W51709  18.722  20.068   0.877
92273W        W51710  29.034  30.990   2.697
92274W        W51711  17.159  38.896  12.051
92275W        W51712  17.118  13.158   4.134
92276W        W51713  21.135  12.360  11.574
92277W        W51714  40.830   9.819  12.859
92278W        W51715  44.343  39.433  10.947
92279W        W51716  22.682   2.416   4.180
92280W        W51717  43.889  38.895   1.694
92281W        W51718  30.642  29.661  13.847
92282W        W51719  25.652   5.739  12.349
92283W        W51720  31.536  26.621   2.870
92284W        W51721  32.091   1.446   2.875
92285W        W51722  11.845  27.994  12.001
92286W        W51723  41.826  27.993   0.342
92287W        W51724  27.046  25.008   5.160
92288W        W51725  16.176  25.534   1.765
92289W        W51726  42.353  38.566   0.403
92290W        W51727  12.824  21.053  12.501
92291W        W51728  19.215   8.678  11.986
92292W        W51729  33.892   3.267   3.207
92293W        W51730  25.522  37.388   1.731
92294W        W51731  28.029  32.406   2.409
92295W        W51732  24.976  18.127  10.475
92296W        W51733   0.900  21.584   3.689
92297W        W51734  41.980  18.254   1.753
92298W        W51735   1.267  36.094   1.710
92299W        W51736   0.865  30.987   1.886
92300W        W51737  39.491  11.350  11.871
92301W        W51738   5.353   6.688   2.823
92302W        W51739  22.017  10.790  12.514
92303W        W51740  36.551  25.682   2.861
92304W        W51741  27.105  19.575  10.499
92305W        W51742  23.175  34.550   4.816
92306W        W51743   5.862   6.212  14.415
92307W        W51744  37.007  39.037  10.891
92308W        W51745  31.473  14.134   3.652
92309W        W51746  33.531  14.278   4.835
92310W        W51747   2.884  29.114  10.142
92311W        W51748  19.211  41.862  12.554
92312W        W51749  33.029  43.810   4.610
92313W        W51750  15.623   0.835   0.257
92314W        W51751  33.928   0.971   4.351
92315W        W51752  35.379  19.653   4.615
92316W        W51753  37.959  19.229  13.960
92317W        W51754  31.963  33.405   0.343
92318W        W51755  39.405  34.502   3.204
92319W        W51756   9.646   5.859  12.351
92320W        W51757  22.225  41.462   0.782
92321W        W51758   3.802  11.770  12.932
92322W        W51759  16.694   5.283  14.790
92323W        W51760  31.499  15.110   4.825
92324W        W51761  21.066  10.361  14.987
92325W        W51762  24.178  17.115  12.042
92326W        W51763  32.629  23.050   1.210
92327W        W51764  24.975   5.859   0.934
92328W        W51765   1.849   7.290   1.787
92329W        W51766  33.572  23.185  13.949
92330W        W51767  40.996   6.316   0.898
92331W        W51768  24.009  18.696   1.807
92332W        W51769  19.162  28.164  13.325
92333W        W51770  41.927  42.976  13.952
92334W        W51771  19.168  40.372   5.178
92335W        W51772  25.038   3.736  13.032
92336W        W51773  27.503   2.465  14.761
92337W        W51774  13.682  29.093  14.294
92338W        W51775  41.308  29.003  11.419
92339W        W51776   2.931  29.496   2.799
92340W        W51777  22.608  40.529  13.059
92341W        W51778  15.792  41.906   1.737
92342W        W51779  34.880  35.081  12.874
92343W        W51780  31.990  36.464   2.861
92344W        W51781   2.859  28.014  12.066
92345W        W51782  25.469   7.720   0.744
92346W        W51783  33.409  15.684   2.283
92347W        W51784  27.521  10.650  10.434
92348W        W51785  42.893  17.273  11.909
92349W        W51786  39.979  10.719  14.472
92350W        W51787   7.374  39.452   3.823
92351W        W51788   5.900   1.428  13.321
92352W        W51789  17.688  23.140  11.951
92353W        W51790  32.909   4.759   2.765
92354W        W51791  34.997  36.982   1.849
92355W        W51792  25.186  37.344   0.886
92356W        W51793   9.685  12.346  14.945
92357W        W51794  10.870  36.374  14.343
92358W        W51795  31.065   1.751   3.239
92359W        W51796   6.252  33.552  12.985
92360W        W51797  37.444  36.364   3.737
92361W        W51798  14.115  34.917   5.212
92362W        W51799  24.116  36.069   0.733
92363W        W51800   5.879  25.676   3.752
92364W        W51801   5.794  13.170   0.343
92365W        W51802  43.905  28.566  12.367
92366W        W51803   6.230  18.069   2.855
92367W        W51804  44.325  32.513  12.386
92368W        W51805  23.216  14.658  11.430
92369W        W51806  15.274  30.535   4.293
92370W        W51807  22.608   6.814   4.767
92371W        W51808   3.736  26.600  11.593
92372W        W51809  26.991   0.414  10.513
92373W        W51810  19.111   4.357   1.377
92374W        W51811  38.438   7.757   2.714
92375W        W51812  12.659  14.638   1.915
92376W        W51813  21.639   5.407  14.374
92377W        W51814  41.331  10.340   0.808
92378W        W51815   5.434  43.291  13.062
92379W        W51816  41.512  40.476  13.337
92380W        W51817  25.614  16.573  11.911
92381W        W51818  24.121  21.592  14.514
92382W        W51819  24.660  26.990   2.703
92383W        W51820   9.150   7.784   2.331
92384W        W51821  10.309  20.206  13.899
92385W        W51822   0.873  31.599   2.818
92386W        W51823  42.478  28.060  14.906
92387W        W51824  42.864  40.509   0.759
92388W        W51825  35.978   1.285   1.311
92389W        W51826  24.074  32.955  13.487
92390W        W51827  19.110  18.721   2.224
92391W        W51828  11.179  29.529  14.419
92392W        W51829  19.633   7.349  11.029
92393W        W51830  44.010  18.729   0.742
92394W        W51831  36.385  14.641  11.858
92395W        W51832  21.517  16.224  12.579
92396W        W51833  26.204  30.107   1.895
92397W        W51834  12.225  38.863   3.212
92398W        W51835  28.620  20.767  14.985
92399W        W51836  40.875  20.036   2.845
92400W        W51837  26.176  22.640  14.794
92401W        W51838  17.796   0.354   2.332
92402W        W51839  41.318  26.601  11.115
92403W        W51840  43.822  40.362   5.236
92404W        W51841  11.227  33.584   3.268
92405W        W51842  16.261  31.442   0.902
92406W        W51843  32.599   4.823   3.680
92407W        W51844  11.739  14.794  10.505
92408W        W51845   5.380  31.447  14.776
92409W        W51846  16.293   2.763   1.786
92410W        W51847  42.847  32.460   3.767
92411W        W51848  22.080  36.371  13.975
92412W        W51849  44.970  19.755   2.711
92413W        W51850  38.061  19.769   2.673
92414W        W51851  31.916   5.260  14.006
92415W        W51852  39.335  29.987   1.256
92416W        W51853  13.782  40.949   3.202
92417W        W51854  36.535  25.095  13.928
92418W        W51855  33.476  33.549   2.355
92419W        W51856   9.884  40.429  12.013
92420W        W51857   7.796  32.622  12.032
92421W        W51858   3.263  39.343   4.261
92422W        W51859  18.582  10.343   4.329
92423W        W51860  25.682  36.503   1.853
92424W        W51861  33.404   7.178   4.788
92425W        W51862  38.850  34.553   0.889
92426W        W51863  15.182   3.237   3.645
92427W        W51864   6.873  19.763   0.403
92428W        W51865   7.411  37.548   2.293
92429W        W51866  15.127   9.319   1.861
92430W        W51867  12.658   1.862  12.827
92431W        W51868  35.525  24.561   1.854
92432W        W51869   4.735  36.496  11.445
92433W        W51870  33.489  12.332  12.827
92434W        W51871   6.260  19.249   1.367
92435W        W51872  28.643  27.157   2.248
92436W        W51873  42.451  35.492  13.798
92437W        W51874  39.906  15.251  14.914
92438W        W51875  39.934  17.165  14.335
92439W        W51876  27.994  19.629   0.952
92440W        W51877  23.089  20.197  12.920
92441W        W51878  37.425   5.197  13.996
92442W        W51879  10.236  22.726   0.275
92443W        W51880   7.799  44.754   0.382
92444W        W51881  34.549  34.922  11.441
92445W        W51882  38.976  37.351  10.956
92446W        W51883  10.842   3.787   0.374
92447W        W51884  18.070   4.752   4.159
92448W        W51885  32.582  20.648  14.931
92449W        W51886  40.946  14.745   0.288
92450W        W51887  29.923  43.412   2.302
92451W        W51888  25.639  39.894  11.069
92452W        W51889  22.604  29.627   1.781
92453W        W51890   1.799   5.688  11.440
92454W        W51891  16.305  10.169   4.736
92455W        W51892  37.374  26.171   0.862
92456W        W51893  42.506  29.589  12.978
92457W        W51894  33.048  32.982   3.855
92458W        W51895  38.052  10.324   2.760
92459W        W51896  31.140  22.714   3.372
92460W        W51897  31.574   0.344  12.855
92461W        W51898  40.000  38.344  14.013
92462W        W51899  21.717  12.305   2.867
92463W        W51900  37.530  40.847  13.020
92464W        W51901  16.194  31.925   1.713
92465W        W51902   0.432  36.525  12.074
92466W        W51903  26.636  37.996   2.872
92467W        W51904  37.990  25.663   0.304
92468W        W51905   4.730   5.293   1.317
92469W        W51906  22.095   7.201  12.374
92470W        W51907  32.928  24.042  13.309
92471W        W51908  24.111  10.309  11.112
92472W        W51909  44.351  35.586   2.718
92473W        W51910  26.120  21.591   1.434
92474W        W51911  31.064  12.630  12.891
92475W        W51912  19.277  15.102  12.360
92476W        W51913   2.852  41.909  11.524
92477W        W51914  42.413  10.639   1.337
92478W        W51915  18.167  19.616  12.878
92479W        W51916  36.934  41.406   3.682
92480W        W51917  21.575  30.517  12.456
92481W        W51918   7.195  32.557  11.940
92482W        W51919  42.964  16.272  11.377
92483W        W51920  27.141  29.443   1.440
92484W        W51921   5.722  44.471  14.375
92485W        W51922  39.849   1.815  14.883
92486W        W51923  37.853   5.755  12.518
92487W        W51924  11.163  37.471  14.411
92488W        W51925  29.940  38.487  14.510
92489W        W51926  38.562  22.051   1.307
92490W        W51927  13.331  29.648  11.376
92491W        W51928  41.030  35.855  14.025
92492W        W51929   7.324  35.096  14.777
92493W        W51930  18.666  32.428   1.742
92494W        W51931  29.523  36.577  14.495
92495W        W51932  20.034  33.566   3.867
92496W        W51933   0.494  18.092  14.497
92497W        W51934  44.359  23.615  14.280
92498W        W51935  28.517  39.535   2.794
92499W        W51936  13.199  39.952  13.385
92500W        W51937   0.914  15.801  11.574
92501W        W51938  24.056  16.718   2.820
92502W        W51939  17.641  26.101   3.286
92503W        W51940  41.913   1.471  10.950
92504W        W51941  30.614  42.943  14.015
92505W        W51942  13.610  23.574  12.883
92506W        W51943  27.505   2.311   2.710
92507W        W51944  43.772  44.885   0.869
92508W        W51945  25.032  40.409   0.899
92509W        W51946  33.015  12.623   0.953
92510W        W51947  37.400  28.012  11.977
92511W        W51948  29.555  43.934   3.655
92512W        W51949  33.942  30.653  14.964
92513W        W51950   5.822  29.089  13.891
92514W        W51951  37.545  30.433   3.291
92515W        W51952  37.045  23.225   1.897
92516W        W51953  35.550  39.994   0.860
92517W        W51954   9.651  11.168   4.676
92518W        W51955  19.218  36.907  11.450
92519W        W51956  42.382  21.196  11.481
92520W        W51957  10.168   7.346  10.052
92521W        W51958  10.311  11.216  13.379
92522W        W51959  43.771   7.204   0.952
92523W        W51960  37.882  17.193  14.967
92524W        W51961  31.095  18.698  13.908
92525W        W51962   3.801  39.372   4.650
92526W        W51963  13.679  30.913  10.515
92527W        W51964  10.152  16.092   4.272
92528W        W51965  14.782   1.336   4.308
92529W        W51966  33.408  42.972  11.457
92530W        W51967  32.617  30.011  10.529
92531W        W51968  17.251  35.095   2.227
92532W        W51969  19.189  34.528  11.532
92533W        W51970  24.140  42.967  14.361
92534W        W51971   6.856  28.149  12.998
92535W        W51972  44.754  37.978  14.321
92536W        W51973  17.215  44.818   9.983
92537W        W51974  35.390  21.096  10.578
92538W        W51975  23.601  31.957  13.403
92539W        W51976  25.501  28.612   4.262
92540W        W51977  44.272  25.005   1.447
92541W        W51978  14.797  22.018  13.023
92542W        W51979  11.748  11.246  13.492
92543W        W51980  27.561  22.999   9.569
92544W        W51981   5.872   1.969   0.760
92545W        W51982  36.095  21.171  11.910
92546W        W51983  32.573  13.654  13.851
92547W        W51984   9.846  34.434  13.961
92548W        W51985  26.208  15.799  14.791
92549W        W51986   2.920  41.859  12.527
92550W        W51987   6.920  33.445  14.417
92551W        W51988  32.132   6.422   3.173
92552W        W51989  43.953   3.275   1.255
92553W        W51990  14.733   6.763   2.843
92554W        W51991   4.250  30.427  11.486
92555W        W51992   0.488  21.062  12.989
92556W        W51993   9.165  18.621  13.416
92557W        W51994   8.185  21.101   3.338
92558W        W51995  31.921  35.358   3.791
92559W        W51996   4.402  40.829   4.693
92560W        W51997  31.511   9.652  14.330
92561W        W51998  36.052  15.238  14.868
92562W        W51999  15.593  30.619  13.025
92563W        W52000  44.764  39.343   0.840
92564W        W52001  42.398   3.720   1.214
92565W        W52002   7.723  36.458   0.363
92566W        W52003  20.257  27.609   1.712
92567W        W52004  26.015  27.574   2.376
92568W        W52005  16.140  16.611  12.978
92569W        W52006  27.003  23.088   2.284
92570W        W52007  27.106  16.282   5.683
92571W        W52008   8.286  37.977   4.781
92572W        W52009   0.940  34.457  13.008
92573W        W52010  15.669  18.658  12.992
92574W        W52011   6.243  37.342  11.498
92575W        W52012  21.573  15.189   0.278
92576W        W52013  40.406  33.065  12.482
92577W        W52014  16.274  17.758   4.752
92578W        W52015   0.752  31.010  12.408
92579W        W52016  25.612   6.207  13.965
92580W        W52017  20.260  39.017   4.220
92581W        W52018  12.264  24.714   3.844
92582W        W52019  33.910  27.170   1.743
92583W        W52020  44.945  30.032  11.987
92584W        W52021  43.391   9.311  11.114
92585W        W52022  29.563  27.940   1.935
92586W        W52023  42.917  15.705   0.781
92587W        W52024   2.759  25.535   5.189
92588W        W52025  29.524  14.182   4.325
92589W        W52026  13.761  29.141   1.753
92590W        W52027  13.724  36.901  12.531
92591W        W52028   5.219  43.498   4.720
92592W        W52029  34.899  25.551   3.256
92593W        W52030  29.931  22.180   2.321
92594W        W52031  31.476  43.769  12.566
92595W        W52032  10.173  37.423   2.227
92596W        W52033  15.099  15.314  13.370
92597W        W52034  15.768  17.577   1.335
92598W        W52035  17.155   7.281  13.529
92599W        W52036  28.477  10.782  12.540
92600W        W52037  22.673   7.252   4.256
92601W        W52038  42.831  34.438   2.861
92602W        W52039   1.438   7.742  11.512
92603W        W52040  42.457   7.391  14.425
92604W        W52041  26.572  36.879  11.924
92605W        W52042  15.719  28.102  13.021
92606W        W52043  20.602  15.190   1.820
92607W        W52044  27.546  25.596   2.263
92608W        W52045  37.364  17.228  12.096
92609W        W52046  18.568  38.552  13.024
92610W        W52047   4.834  32.606  10.084
92611W        W52048   5.365  16.604   4.831
92612W        W52049  38.403  22.636   2.747
92613W        W52050  13.224  19.089   3.349
92614W        W52051  38.496   0.773   0.949
92615W        W52052  38.562  16.082   0.267
92616W        W52053  30.101  12.153  12.360
92617W        W52054  42.284  25.055   0.375
92618W        W52055   2.391  33.925   0.743
92619W        W52056  19.741  24.626  14.837
92620W        W52057  18.273  17.600   3.317
92621W        W52058  10.382  10.313   9.932
92622W        W52059   9.281  32.074   4.330
92623W        W52060  43.394   9.220  13.876
92624W        W52061  30.550   1.394  13.358
92625W        W52062   9.746  30.558  11.944
92626W        W52063  17.129   9.773   3.381
92627W        W52064   7.692  29.547  11.081
92628W        W52065   9.156  28.018   4.324
92629W        W52066  30.982  18.296  13.456
92630W        W52067  40.834   3.255  11.996
92631W        W52068  32.446   1.895  14.499
92632W        W52069  24.491  30.134  13.834
92633W        W52070  35.030  22.719  12.492
92634W        W52071   1.769   1.931  13.481
92635W        W52072  14.163  17.629  14.015
92636W        W52073  19.625   8.894  11.007
92637W        W52074   4.356  35.105   0.303
92638W        W52075  22.566  13.638   1.909
92639W        W52076  12.154  11.308  13.933
92640W        W52077  28.505   5.420  12.087
92641W        W52078   0.477   0.344   0.300
92642W        W52079  35.887   1.466  14.395
92643W        W52080  42.886  10.822  14.327
92644W        W52081  43.500   6.251   3.387
92645W        W52082  35.906  36.917   1.819
92646W        W52083   8.323  44.333   3.210
92647W        W52084  38.545   9.756   3.638
92648W        W52085   2.252  43.924   4.678
92649W        W52086  18.638   6.417   3.382
92650W        W52087  42.952  41.970   2.359
92651W        W52088  39.351  19.182   4.201
92652W        W52089  26.684  37.568   3.286
92653W        W52090  35.078   6.227  11.959
92654W        W52091  42.911  25.185  13.349
92655W        W52092  13.150  34.436  12.433
92656W        W52093  13.681  26.951  13.513
92657W        W52094  29.164   8.827   3.730
92658W        W52095  26.042   8.731  12.969
92659W        W52096  33.439  32.068   5.312
92660W        W52097  33.005  29.545  14.475
92661W        W52098  35.937  43.467   2.766
92662W        W52099   1.403  33.040   4.290
92663W        W52100   9.350   3.396   2.689
92664W        W52101  22.162  27.175  10.934
92665W        W52102  17.107  44.008   0.912
92666W        W52103   9.793  27.052  11.398
92667W        W52104  12.339  40.418  13.823
92668W        W52105  22.151  35.521  10.961
92669W        W52106  27.546  39.896   2.188
92670W        W52107  40.946  36.483   1.409
92671W        W52108  19.730  40.874   4.351
92672W        W52109  41.415  15.202  11.041
92673W        W52110   8.285   0.854  13.393
92674W        W52111  42.795  14.275  14.921
92675W        W52112  44.925  28.001   1.382
92676W        W52113  10.841  11.826  14.371
92677W        W52114  28.093  28.131  14.012
92678W        W52115  12.764  28.529  12.565
92679W        W52116  13.648  23.514  11.596
92680W        W52117  13.291  42.323   5.782
92681W        W52118  30.447  29.981  13.467
92682W        W52119  30.052  35.924  13.337
92683W        W52120   0.482  39.396   5.160
92684W        W52121  33.910  40.379   3.352
92685W        W52122  37.459  24.010  11.111
92686W        W52123   5.355  21.525   3.802
92687W        W52124  40.050   9.266   0.820
92688W        W52125  44.300  27.598  13.950
92689W        W52126   9.274  43.842   3.682
92690W        W52127  10.826  38.397  11.398
92691W        W52128  23.009  37.945   9.945
92692W        W52129  11.737   6.742   3.760
92693W        W52130  20.676  42.368   1.250
92694W        W52131  18.187  38.554  13.985
92695W        W52132  26.671  22.058  14.868
92696W        W52133  25.548   3.341  13.913
92697W        W52134  20.681  27.995  14.295
92698W        W52135   5.721  34.487  11.967
92699W        W52136  13.234  14.647  12.942
92700W        W52137  33.943  43.386   4.806
92701W        W52138  32.896  25.013   1.856
92702W        W52139  18.117  42.306   1.742
92703W        W52140  18.587  27.598  14.935
92704W        W52141  43.839  16.681   0.395
92705W        W52142  34.450  14.612   4.159
92706W        W52143  39.520  33.532  11.522
92707W        W52144   2.868  32.885  13.902
92708W        W52145  27.944  22.587  12.429
92709W        W52146   8.725   8.855  13.839
92710W        W52147  43.310   2.893  14.275
92711W        W52148   9.160  27.969  14.809
92712W        W52149  32.959  35.982   0.308
92713W        W52150  21.589  14.297   3.701
92714W        W52151  40.520  23.176   2.670
92715W        W52152  26.675   5.425  14.846
92716W        W52153  15.653  32.598   1.835
92717W        W52154  26.591  24.560  13.053
92718W        W52155  10.681  40.821   2.178
92719W        W52156  38.856  28.145   5.146
92720W        W52157  13.825  23.541   0.923
92721W        W52158  14.682  15.759  13.471
92722W        W52159  29.042   6.734   2.799
92723W        W52160  29.606   8.260   0.318
92724W        W52161   8.791  18.722  13.383
92725W        W52162  38.437  37.544   3.320
92726W        W52163  14.754  41.969  12.351
92727W        W52164  16.572  35.865  11.496
92728W        W52165  22.674   3.455  14.346
92729W        W52166  14.208  26.507   4.179
92730W        W52167  27.689   2.873   1.261
92731W        W52168  19.693  44.303  12.939
92732W        W52169  18.116  44.301   4.343
92733W        W52170  17.262   8.860   4.245
92734W        W52171  15.302  12.617   3.840
92735W        W52172  32.570   7.271   1.244
92736W        W52173   8.756  44.925   0.731
92737W        W52174  42.024  21.193   3.258
92738W        W52175  24.541  43.013   4.314
92739W        W52176  43.850  42.456  12.563
92740W        W52177  39.431  25.576  12.986
92741W        W52178   6.783  14.295   0.386
92742W        W52179  23.021  18.564   0.431
92743W        W52180  23.130  10.722  10.598
92744W        W52181  18.717  23.138  13.348
92745W        W52182  13.145  44.438   3.781
92746W        W52183   3.383  16.088  11.414
92747W        W52184  13.344  23.093   1.795
92748W        W52185  25.524  10.176   5.235
92749W        W52186   0.969  30.471   5.093
92750W        W52187   4.328   8.745   1.854
92751W        W52188   4.324  35.001   2.870
92752W        W52189  29.122  32.895  14.332
92753W        W52190   6.825  38.387   2.748
92754W        W52191   6.883  13.827  12.055
92755W        W52192   5.405  16.135  11.936
92756W        W52193  33.886  41.377   1.387
92757W        W52194   7.269  18.068  13.009
92758W        W52195  36.941   3.277   4.294
92759W        W52196   4.279  32.992   2.836
92760W        W52197  24.578  42.478   0.812
92761W        W52198  36.912  17.698  13.840
92762W        W52199  25.146  40.519  13.847
92763W        W52200  13.795   1.762  13.942
92764W        W52201  36.492  37.570   4.764
92765W        W52202   9.283   8.386   1.281
92766W        W52203  32.095   2.811   3.631
92767W        W52204  43.801  30.502   3.657
92768W        W52205  23.524  33.531  11.922
92769W        W52206  16.794  21.751  12.364
92770W        W52207  25.077   5.377   2.215
92771W        W52208  12.775  22.042  14.377
92772W        W52209  13.339  32.583  10.550
92773W        W52210  36.006  27.564   4.740
92774W        W52211  39.397  23.161  12.426
92775W        W52212   8.243  37.910  13.986
92776W        W52213  17.742  29.152   0.928
92777W        W52214  19.249   9.651   4.804
92778W        W52215  35.495  38.485  11.067
92779W        W52216  43.503   8.366  12.068
92780W        W52217   7.775  23.048   4.828
92781W        W52218  32.079  19.069   0.346
92782W        W52219  31.009  38.826   1.797
92783W        W52220  19.175  19.596   1.349
92784W        W52221  17.285  13.790   1.861
92785W        W52222  38.333  18.649  14.447
92786W        W52223   5.918  21.724  13.814
92787W        W52224  25.099  35.977  11.467
92788W        W52225  30.417  27.193  10.909
92789W        W52226  27.557  15.199  14.009
92790W        W52227  15.162  18.121   0.289
92791W        W52228  12.839   4.775   3.358
92792W        W52229  19.140   3.944  12.970
92793W        W52230   5.384  35.476  10.888
92794W        W52231  44.981  32.608   3.189
92795W        W52232  27.182  16.290   0.821
92796W        W52233  35.039  16.645  10.443
92797W        W52234  18.725  43.858   4.676
92798W        W52235   4.317  21.515   2.752
92799W        W52236  32.989  13.757   0.798
92800W        W52237  22.115  39.963  10.028
92801W        W52238  20.699   9.190  10.980
92802W        W52239   3.266  32.031   4.243
92803W        W52240  13.775  21.025  11.999
92804W        W52241  30.459  37.486   0.424
92805W        W52242  30.558  25.606  14.989
92806W        W52243  31.520   5.806   3.378
92807W        W52244  27.676  14.693  12.355
92808W        W52245  21.754  13.610  14.021
92809W        W52246   1.465  19.744   1.241
92810W        W52247  33.960  25.035   2.899
92811W        W52248  26.680   8.379   4.128
92812W        W52249   9.778  11.831   4.118
92813W        W52250   5.691  14.230   4.722
92814W        W52251  37.455  30.920   3.859
92815W        W52252  28.018  30.976   0.398
92816W        W52253  25.029   1.263  13.483
92817W        W52254   6.269  11.187   1.814
92818W        W52255  28.598  10.838   0.396
92819W        W52256  19.766  38.349  14.917
92820W        W52257  17.267   6.222  10.983
92821W        W52258  43.344  25.168   4.263
92822W        W52259   1.939  33.916  11.585
92823W        W52260  33.619   4.345  10.530
92824W        W52261   1.368  38.059  11.408
92825W        W52262   2.801   6.418  10.425
92826W        W52263   7.321  41.300   3.157
92827W        W52264  35.524   9.169   3.264
92828W        W52265  36.892  44.267  11.991
92829W        W52266  20.178  14.726  10.524
92830W        W52267  20.677  29.544   0.352
92831W        W52268  37.515  36.071   0.809
92832W        W52269  14.689  44.399   1.801
92833W        W52270  34.912   0.266  13.910
92834W        W52271   1.250  22.643  14.506
92835W        W52272   0.384  33.004   3.234
92836W        W52273  28.611  16.127   2.710
92837W        W52274  42.427  44.485  13.503
92838W        W52275  14.698  28.024  11.373
92839W        W52276  23.031   0.337   2.855
92840W        W52277  12.771  43.455   1.720
92841W        W52278  10.201   3.405   3.171
92842W        W52279  33.488   2.245   1.758
92843W        W52280  40.011  25.548   4.688
92844W        W52281  34.408   7.743   2.875
92845W        W52282  44.841  31.025  11.079
92846W        W52283  26.005   6.216  14.499
92847W        W52284  12.313  18.265  14.947
92848W        W52285  33.508   4.402   1.906
92849W        W52286  26.083  25.671   1.325
92850W        W52287  42.977   8.664  11.090
92851W        W52288  18.676  16.576   2.210
92852W        W52289  18.086  15.805   3.173
92853W        W52290  24.116   3.274   1.870
92854W        W52291  34.576  19.774   1.390
92855W        W52292  40.037   3.898  10.486
92856W        W52293  24.143  40.425  14.833
92857W        W52294  41.915  25.017   1.831
92858W        W52295  32.947  21.212   2.866
92859W        W52296   7.414   9.211   4.673
92860W        W52297  19.074  43.781  10.534
92861W        W52298   2.767  15.619   5.638
92862W        W52299  42.469  26.500   0.913
92863W        W52300  39.462  39.407  13.397
92864W        W52301  36.918  42.293   0.907
92865W        W52302  35.578   5.851  11.868
92866W        W52303  29.486  12.304  10.100
92867W        W52304  22.719  40.492  12.549
92868W        W52305  41.478  33.131  13.824
92869W        W52306   8.770   9.245  13.465
92870W        W52307  41.459  44.373   0.738
92871W        W52308   1.283  12.698  12.909
92872W        W52309  36.990  38.477  10.071
92873W        W52310  39.558  39.475  12.823
92874W        W52311  42.397  21.549   4.649
92875W        W52312   6.362  14.668   0.882
92876W        W52313  20.194   0.940   2.763
92877W        W52314   8.682  32.039   4.640
92878W        W52315   5.924  40.032  12.012
92879W        W52316  40.048  40.838  12.864
92880W        W52317  24.671   7.822  12.848
92881W        W52318   5.427  28.535   3.227
92882W        W52319  43.884  28.521   0.344
92883W        W52320  44.995  17.137   1.864
92884W        W52321  14.264   4.809   4.221
92885W        W52322  38.059  41.806  10.908
92886W        W52323  29.531  24.638  14.021
92887W        W52324  24.113  12.688  14.387
92888W        W52325  29.975  44.261   4.114
92889W        W52326  16.615  31.485  10.440
92890W        W52327   1.756  39.858  12.402
92891W        W52328  32.017   3.908   3.376
92892W        W52329  18.166  38.825   3.150
92893W        W52330   2.469   5.422  14.887
92894W        W52331  24.187  37.525   1.295
92895W        W52332   0.863   0.834  10.031
92896W        W52333  44.451  41.410   0.384
92897W        W52334   1.291  26.662  12.010
92898W        W52335  33.620  30.630  10.981
92899W        W52336  10.862  39.513  10.407
92900W        W52337  32.580  15.783  12.506
92901W        W52338  31.898  16.579   1.823
92902W        W52339  22.664   3.812  11.566
92903W        W52340  39.353   7.320  13.906
92904W        W52341  19.267  39.009  12.962
92905W        W52342  24.598  37.071   1.311
92906W        W52343  37.936  12.192   2.397
92907W        W52344  23.018  21.739   2.336
92908W        W52345   2.862  25.201   2.767
92909W        W52346   0.340  12.127   0.854
92910W        W52347  26.977  13.761  12.941
92911W        W52348   5.755  34.017   2.798
92912W        W52349  10.830   3.276  12.874
92913W        W52350  36.406  37.579  11.874
92914W        W52351  20.092   0.762   4.657
92915W        W52352  16.585   5.918  14.308
92916W        W52353   6.791   9.864   1.278
92917W        W52354  19.706  39.417  10.928
92918W        W52355  29.130  33.109  11.903
92919W        W52356  28.566  44.439  11.480
92920W        W52357  23.674  32.392   0.731
92921W        W52358  36.964  29.021  13.532
92922W        W52359  21.033  44.782   4.635
92923W        W52360  18.257  12.360  12.369
92924W        W52361  13.693  11.213   1.816
92925W        W52362   1.832  36.554   2.755
92926W        W52363  25.199  35.900  14.015
92927W        W52364  16.732   3.886   3.677
92928W        W52365  38.361  44.340   3.793
92929W        W52366   3.440   1.256  11.419
92930W        W52367   0.271  34.538  12.905
92931W        W52368  17.300  36.027  10.095
92932W        W52369  10.665  10.257   0.782
92933W        W52370  14.747  29.436   3.792
92934W        W52371  44.960  19.617  14.774
92935W        W52372  35.927  13.690   1.880
92936W        W52373   2.360  35.083  11.426
92937W        W52374   6.411   4.279   4.728
92938W        W52375  15.808  26.621   2.704
92939W        W52376   3.286  22.671   3.244
92940W        W52377  30.003  33.122   4.754
92941W        W52378  24.136  21.030  11.586
92942W        W52379  44.469  32.495   1.293
92943W        W52380  36.083   3.268   4.643
92944W        W52381  11.788  43.883   3.708
92945W        W52382  43.006  14.105  10.566
92946W        W52383  23.173  42.002  11.052
92947W        W52384   3.390  26.007  14.882
92948W        W52385  32.984  20.731  14.379
92949W        W52386   0.430  24.698  13.874
92950W        W52387  24.537  10.731   1.840
92951W        W52388  26.502  24.072   5.250
92952W        W52389  25.117   1.733   1.776
92953W        W52390  20.129  14.765  13.416
92954W        W52391  24.212  15.288   1.763
92955W        W52392  11.659  17.299   5.100
92956W        W52393  43.280  41.860  11.398
92957W        W52394  44.340  20.588   0.403
92958W        W52395   3.853  34.088  14.331
92959W        W52396   4.815  28.171   3.336
92960W        W52397  37.033  39.353   2.696
92961W        W52398  38.515  15.311  10.404
92962W        W52399  13.708  34.925  14.025
92963W        W52400   6.357   2.791  11.496
92964W        W52401  30.614  38.985   4.809
92965W        W52402  37.923   0.812   3.846
92966W        W52403  38.827   9.205   4.710
92967W        W52404  27.585  24.617   2.273
92968W        W52405  29.163   2.841  14.837
92969W        W52406  12.823  33.945   0.826
92970W        W52407  12.255   8.404   1.400
92971W        W52408  32.964  26.071   1.278
92972W        W52409  21.029   7.408   0.885
92973W        W52410  29.561  40.006  14.791
92974W        W52411  44.783  34.989  10.571
92975W        W52412  21.212  27.968   4.162
92976W        W52413  29.652  33.941  14.372
92977W        W52414  40.513  20.160  10.550
92978W        W52415  27.012  10.295  13.530
92979W        W52416  26.473  16.718  12.824
92980W        W52417  43.893  28.528   4.179
92981W        W52418  33.427  12.287   0.429
92982W        W52419  34.041   5.764  10.948
92983W        W52420  32.142  12.676  11.425
92984W        W52421   4.384  14.725   3.332
92985W        W52422   2.821  29.143   3.382
92986W        W52423   0.874  24.503  10.901
92987W        W52424  44.762  17.144  14.515
92988W        W52425  18.104  31.103   1.311
92989W        W52426  36.025  30.527   0.465
92990W        W52427  21.750  36.965  12.044
92991W        W52428  42.509  18.149  11.080
92992W        W52429  16.182  39.890   1.904
92993W        W52430  34.611  42.915  11.453
92994W        W52431  26.039   7.709  14.826
92995W        W52432  33.484   2.429  14.907
92996W        W52433  37.345  31.427   2.693
92997W        W52434  20.630  38.508  10.977
92998W        W52435  44.343  25.037   2.239
92999W        W52436  41.018   2.737  10.543
93000W        W52437  17.152  24.704   0.880
93001W        W52438   0.838  39.902   3.755
93002W        W52439  22.153  44.401   0.764
93003W        W52440  37.866  43.511   0.853
93004W        W52441   5.786  28.136   9.489
93005W        W52442  39.469  39.824  10.482
93006W        W52443   0.881  30.485   1.289
93007W        W52444  27.647  18.623   1.732
93008W        W52445  29.469  20.539  14.417
93009W        W52446  44.968  36.473   2.394
93010W        W52447   4.781   7.840  12.878
93011W        W52448  26.986  28.016  10.468
93012W        W52449  14.289  43.473  11.056
93013W        W52450  33.883  25.992  11.950
93014W        W52451  24.086   7.379  12.988
93015W        W52452  10.268   0.920  12.479
93016W        W52453  28.624   0.406  13.532
93017W        W52454  13.126   7.740  10.626
93018W        W52455  16.152  13.638  12.037
93019W        W52456  32.006  44.935   0.424
93020W        W52457  39.348  20.567   2.283
93021W        W52458  15.144  16.724   3.858
93022W        W52459  23.135   5.258  14.819
93023W        W52460  31.410  43.436   3.304
93024W        W52461  42.832   0.492   3.205
93025W        W52462  39.465  11.835   2.337
93026W        W52463  11.349  30.611   3.723
93027W        W52464  32.502  10.710   2.846
93028W        W52465  23.618  27.077   3.722
93029W        W52466  27.682  15.302   1.249
93030W        W52467  15.273  14.260  13.024
93031W        W52468   2.462  19.093   4.652
93032W        W52469  29.092  12.290   4.713
93033W        W52470   8.335  20.051   4.688
93034W        W52471  33.964  40.434   1.728
93035W        W52472  32.026  40.802  12.379
93036W        W52473  33.877  11.690  10.519
93037W        W52474  32.015  12.167  10.900
93038W        W52475  23.710  32.095  14.513
93039W        W52476  17.242  19.726   0.863
93040W        W52477   1.290  38.031  12.963
93041W        W52478  28.079  39.866  10.889
93042W        W52479  13.728  34.468   0.882
93043W        W52480   2.363  10.742   1.388
93044W        W52481  20.612  21.221   4.638
93045W        W52482   3.224   6.719   2.788
93046W        W52483  43.416  44.322  13.984
93047W        W52484  33.919   4.763  10.068
93048W        W52485  13.242  29.097  12.926
93049W        W52486  32.511  23.491   3.348
93050W        W52487  39.059  22.077   2.870
93051W        W52488  28.990  38.570   0.903
93052W        W52489  35.574   1.931   1.241
93053W        W52490  28.066  31.904   1.306
93054W        W52491  28.590  26.646   2.379
93055W        W52492  30.029   9.868  13.328
93056W        W52493  25.162  28.121  13.806
93057W        W52494   7.270   5.358   4.322
93058W        W52495   2.370  24.068  12.413
93059W        W52496   8.275   2.451  14.932
93060W        W52497  23.003  18.720  14.334
93061W        W52498  17.644   5.913  13.382
93062W        W52499  44.496  30.626   4.753
93063W        W52500  29.461   9.838  13.398
93064W        W52501  23.071  29.066  11.920
93065W        W52502  18.635  40.048   5.762
93066W        W52503  42.990  22.099  12.513
93067W        W52504  20.106  17.273  14.294
93068W        W52505  41.884  25.565   4.143
93069W        W52506   7.231   3.744  10.489
93070W        W52507   8.768  43.416  14.988
93071W        W52508  39.817  33.521   1.856
93072W        W52509  38.968  24.623   2.232
93073W        W52510  41.843  14.825   2.826
93074W        W52511   3.228  25.556  10.101
93075W        W52512  20.713  16.218  12.465
93076W        W52513  40.021  12.264  11.522
93077W        W52514  33.431   8.887   9.985
93078W        W52515  34.431   4.768   3.293
93079W        W52516  35.575   5.872  14.468
93080W        W52517   1.786  36.557  12.074
93081W        W52518  34.486  15.213  14.353
93082W        W52519  42.802   6.904   4.277
93083W        W52520  22.055   9.806   9.634
93084W        W52521  16.314  43.933  12.527
93085W        W52522  30.054  35.365  14.853
93086W        W52523   8.828  34.585  11.994
93087W        W52524  35.057  27.568   2.791
93088W        W52525  43.855  16.315   1.316
93089W        W52526  22.155  30.571  13.348
93090W        W52527  27.057  34.917   2.416
93091W        W52528  35.009  23.690  12.537
93092W        W52529  32.572  36.522  12.038
93093W        W52530   7.246  26.098  12.942
93094W        W52531  25.166  36.407  11.491
93095W        W52532  25.475  23.731   4.838
93096W        W52533   7.696  18.777  14.479
93097W        W52534  28.160  17.646   4.661
93098W        W52535  22.058  40.392   4.786
93099W        W52536  25.128  16.113   4.217
93100W        W52537  10.754  14.784  14.495
93101W        W52538  17.657   9.260  10.496
93102W        W52539  38.441  26.023   1.716
93103W        W52540  31.497  38.511  11.550
93104W        W52541  31.985  19.082  11.402
93105W        W52542  36.375  42.352   1.273
93106W        W52543  32.893   3.863   4.758
93107W        W52544  10.218  34.479   2.242
93108W        W52545  33.404  20.060   9.943
93109W        W52546   9.853  22.580  14.403
93110W        W52547  43.936   9.753  10.498
93111W        W52548  36.867  36.529   1.846
93112W        W52549   0.263  26.503   0.848
93113W        W52550  35.994  38.061   1.414
93114W        W52551  34.075   9.348  12.973
93115W        W52552  35.409  25.057  10.415
93116W        W52553  38.875  10.856   0.335
93117W        W52554  28.935  14.261   2.379
93118W        W52555  11.147  24.126   1.324
93119W        W52556  20.240   8.383  12.990
93120W        W52557  31.031  44.794  14.776
93121W        W52558  33.549  15.799   2.669
93122W        W52559   0.333  32.936   0.478
93123W        W52560  10.743  22.516   1.838
93124W        W52561  11.225  39.431  11.087
93125W        W52562  26.972  11.846  12.003
93126W        W52563  44.869  15.634   3.667
93127W        W52564  35.908   5.812  11.491
93128W        W52565  43.944  37.379   0.277
93129W        W52566  44.764  32.590  14.282
93130W        W52567  16.167  38.338   3.321
93131W        W52568  38.858  10.843   2.768
93132W        W52569  30.011  13.639  12.074
93133W        W52570   3.804  23.158   1.708
93134W        W52571  14.130  21.528  11.986
93135W        W52572  23.694   2.272  11.959
93136W        W52573  16.698  12.285   0.451
93137W        W52574   3.750  15.282  12.945
93138W        W52575  32.495  38.030   1.921
93139W        W52576  23.669   0.258   0.272
93140W        W52577  23.612  28.045   2.708
93141W        W52578  23.632  28.162  11.978
93142W        W52579  32.562  16.743   3.735
93143W        W52580   9.696  35.553   4.735
93144W        W52581  40.890  29.477   2.888
93145W        W52582  13.123   1.858  12.543
93146W        W52583  10.176   2.724   1.337
93147W        W52584  22.696  43.413   1.424
93148W        W52585  22.533  19.240  14.276
93149W        W52586  23.210  23.216   3.150
93150W        W52587  37.574  13.112  13.851
93151W        W52588  29.428  36.025   0.893
93152W        W52589  34.049  40.503  13.380
93153W        W52590   3.795  41.879  10.911
93154W        W52591   3.755  37.364   4.302
93155W        W52592  28.562  40.345   3.194
93156W        W52593  23.045  18.072   3.266
93157W        W52594  32.566  15.680   2.413
93158W        W52595  31.040  30.023   1.912
93159W        W52596  17.670  31.444  12.886
93160W        W52597   6.216  18.683   3.799
93161W        W52598  22.203  19.732   1.273
93162W        W52599  41.501  35.093  14.484
93163W        W52600  39.058   1.393   1.370
93164W        W52601  25.651  25.487  12.439
93165W        W52602  15.181  37.898  12.434
93166W        W52603  19.651   3.279   0.390
93167W        W52604  10.830  12.694  12.832
93168W        W52605  20.623  35.037  12.026
93169W        W52606  36.008  29.017   2.715
93170W        W52607  26.980  33.914   0.292
93171W        W52608  20.586  39.314   1.319
93172W        W52609   2.873  10.253   2.324
93173W        W52610  44.335  16.759  13.819
93174W        W52611  29.106  16.721  11.062
93175W        W52612  18.561   4.441   1.441
93176W        W52613  21.596  33.452  11.573
93177W        W52614  35.514  11.219   2.211
93178W        W52615  27.123  24.648   0.361
93179W        W52616  35.597  26.134   2.816
93180W        W52617  26.488  16.707   3.843
93181W        W52618   4.853   0.794  13.365
93182W        W52619   4.217  14.122  12.862
93183W        W52620  32.486  42.819   3.743
93184W        W52621  34.945  26.613   5.320
93185W        W52622  22.538  20.704  12.070
93186W        W52623   0.261  29.616   4.598
93187W        W52624  28.075  26.582  14.976
93188W        W52625   4.903  35.415  12.961
93189W        W52626  23.092  39.823  14.376
93190W        W52627  21.061  32.959  14.276
93191W        W52628  30.942  29.590  14.975
93192W        W52629   1.262  12.722   2.873
93193W        W52630  19.613  23.003   1.886
93194W        W52631  18.655  44.366   4.177
93195W        W52632  10.797  35.032   0.888
93196W        W52633  33.040  34.944   4.280
93197W        W52634  37.937   9.688  13.954
93198W        W52635   6.864  21.119   3.716
93199W        W52636   9.868  11.633  12.472
93200W        W52637   8.819   8.222  14.973
93201W        W52638  20.654  14.162  12.982
93202W        W52639  16.101  13.612  13.537
93203W        W52640  11.168  32.615  11.545
93204W        W52641  12.143   8.692   1.287
93205W        W52642   6.856   3.742   3.189
93206W        W52643   3.239  34.984   3.695
93207W        W52644  22.614  25.705  14.032
93208W        W52645   5.203  27.162   0.260
93209W        W52646  35.603  15.086   0.881
93210W        W52647  23.001  44.436  12.043
93211W        W52648  11.663  41.899   0.358
93212W        W52649  24.541  34.890   3.257
93213W        W52650  26.660   1.826  14.862
93214W        W52651   3.409  20.604  13.348
93215W        W52652   7.394  18.639   2.787
93216W        W52653   9.238  38.008  12.085
93217W        W52654  18.632  42.370   3.744
93218W        W52655   0.287  10.138   9.501
93219W        W52656  22.108  30.452   1.898
93220W        W52657  40.318  10.347   3.190
93221W        W52658   6.429  12.131  13.935
93222W        W52659   9.701  34.449  14.462
93223W        W52660  18.277   1.969  11.858
93224W        W52661  27.648  35.405   3.791
93225W        W52662  44.410  15.679   4.611
93226W        W52663  16.074  13.845   0.912
93227W        W52664  24.667  29.980   4.788
93228W        W52665  20.662  43.273   4.207
93229W        W52666  12.800  37.889  12.995
93230W        W52667   8.403  13.206  11.990
93231W        W52668   8.801  11.159   0.324
93232W        W52669  14.634  40.439  12.965
93233W        W52670  38.008  10.369   1.869
93234W        W52671   9.210  40.811  14.387
93235W        W52672   0.354  31.952  11.868
93236W        W52673  24.645  17.651  14.434
93237W        W52674  23.666  27.127   4.317
93238W        W52675   9.691  36.916   3.822
93239W        W52676  24.613  41.863   2.761
93240W        W52677  14.211  32.022   0.475
93241W        W52678   6.856  44.880  14.908
93242W        W52679   5.891  19.621   3.845
93243W        W52680  11.329  23.193   3.716
93244W        W52681  30.161   4.226  10.909
93245W        W52682  29.554  36.085  14.766
93246W        W52683  23.157  17.630  14.499
93247W        W52684  34.979  25.021   0.757
93248W        W52685  35.541   5.817  10.545
93249W        W52686  21.522  39.465   2.766
93250W        W52687  35.457  38.887  12.563
93251W        W52688  16.214   5.858   0.963
93252W        W52689  23.053  22.022   0.372
93253W        W52690  26.616  25.548   0.404
93254W        W52691  13.638   0.851   4.267
93255W        W52692  32.521  12.824  12.074
93256W        W52693  29.100  32.507  12.998
93257W        W52694  17.218   1.892   1.313
93258W        W52695  19.560  13.604   2.878
93259W        W52696  38.544  17.256   4.820
93260W        W52697  28.477  25.701  11.437
93261W        W52698  39.954  33.961   2.209
93262W        W52699  40.402   8.675  12.983
93263W        W52700  39.371   9.819   4.611
93264W        W52701   1.468   6.911   2.337
93265W        W52702  25.688   0.820  11.915
93266W        W52703  42.479   9.874   3.655
93267W        W52704  33.494  31.127   1.713
93268W        W52705  17.063  30.425   0.805
93269W        W52706  40.828   4.753   4.168
93270W        W52707  44.451   8.665  14.926
93271W        W52708   0.801  36.023  14.020
93272W        W52709  13.348  44.462  11.377
93273W        W52710  38.886  35.422  10.932
93274W        W52711  16.255  25.613  11.951
93275W        W52712  16.781  19.703   1.854
93276W        W52713  35.011  15.233  14.367
93277W        W52714  31.953  43.964   0.458
93278W        W52715  39.061  31.528   3.277
93279W        W52716  38.424  41.832   3.277
93280W        W52717  33.945  37.919  13.879
93281W        W52718  32.398  18.685   0.403
93282W        W52719   2.394  27.014   0.861
93283W        W52720   1.273  28.528  12.362
93284W        W52721  31.134  18.076  12.461
93285W        W52722  28.112  28.492   0.923
93286W        W52723  24.096  41.482   0.326
93287W        W52724  24.199   9.785  13.366
93288W        W52725  31.908   0.368   3.770
93289W        W52726   8.781  32.529  13.522
93290W        W52727  16.287   3.256   2.354
93291W        W52728   0.435  16.663  14.807
93292W        W52729  32.587  32.474   0.254
93293W        W52730  38.367  39.033  10.563
93294W        W52731  25.619  21.048   2.681
93295W        W52732  44.851  17.130  13.875
93296W        W52733  23.238  27.084   0.804
93297W        W52734   6.305  14.822   4.327
93298W        W52735  22.097  31.932   4.827
93299W        W52736  15.291  25.087   4.638
93300W        W52737  34.482  30.117  14.944
93301W        W52738  14.704  22.122  14.290
93302W        W52739   2.828  15.797   3.303
93303W        W52740  25.616  27.629   1.403
93304W        W52741  21.229  31.044   3.693
93305W        W52742  31.048  18.070   0.395
93306W        W52743   6.312  15.797  10.010
93307W        W52744  27.599  44.974  12.896
93308W        W52745  13.329   4.260   1.306
93309W        W52746  31.415  38.468  11.031
93310W        W52747  26.115  27.109   0.369
93311W        W52748   5.315  30.643   2.728
93312W        W52749  37.355  32.109  10.899
93313W        W52750  26.054  40.872  11.931
93314W        W52751  43.989  20.670   0.426
93315W        W52752  10.798  29.058   4.758
93316W        W52753  43.945  35.051  11.026
93317W        W52754  31.950  16.663  11.991
93318W        W52755   5.804  34.496   4.625
93319W        W52756   9.208  36.424  10.930
93320W        W52757   1.752  31.425   3.809
93321W        W52758   8.673  43.973   2.879
93322W        W52759   1.404   7.800  12.527
93323W        W52760  30.096   7.780   0.891
93324W        W52761   3.455  29.943   1.326
93325W        W52762  14.599  38.030  10.975
93326W        W52763   6.193  44.395  10.447
93327W        W52764  42.366  15.180  11.069
93328W        W52765   3.302   6.338  14.932
93329W        W52766  40.825  43.396  10.544
93330W        W52767  26.673  28.470   1.312
93331W        W52768  26.090   6.821   2.853
93332W        W52769  29.993  36.071   0.325
93333W        W52770   9.817   2.375  13.468
93334W        W52771   9.709  13.122  10.979
93335W        W52772  21.603  33.585   0.952
93336W        W52773   1.858  15.255  12.072
93337W        W52774  33.421   2.423   4.217
93338W        W52775  32.921  41.891   2.775
93339W        W52776  22.506  23.058   2.691
93340W        W52777   2.441  35.969   4.222
93341W        W52778  21.692  19.678  12.857
93342W        W52779  20.086  23.994   0.862
93343W        W52780  22.142  12.731   2.805
93344W        W52781   7.770  31.914  10.425
93345W        W52782   7.764  24.129   0.824
93346W        W52783   3.951  24.620   4.274
93347W        W52784  11.644  12.171   0.803
93348W        W52785  23.618  20.754  13.974
93349W        W52786  16.711  28.991   1.798
93350W        W52787  21.155  38.051  14.951
93351W        W52788  24.722  12.205   0.894
93352W        W52789  31.518  30.636   3.862
93353W        W52790   4.810  39.345  11.007
93354W        W52791   1.881  29.018   3.195
93355W        W52792  41.935  33.025  12.399
93356W        W52793   6.229  36.887  10.972
93357W        W52794   9.286   2.246   3.676
93358W        W52795   8.401   4.769  13.862
93359W        W52796  40.972  28.586  10.518
93360W        W52797   9.185  40.963  10.921
93361W        W52798  40.372  35.938  13.406
93362W        W52799  13.115  40.306   0.940
93363W        W52800  44.937  31.008   4.831
93364W        W52801  35.106  34.381  13.825
93365W        W52802  21.098  27.001   0.890
93366W        W52803  24.670  22.079  13.428
93367W        W52804  40.050  28.612   1.880
93368W        W52805  42.017  12.200   0.360
93369W        W52806  41.521   1.283  13.936
93370W        W52807  29.450  42.295   2.792
93371W        W52808  32.074  31.410   4.662
93372W        W52809  39.864  25.581  12.360
93373W        W52810  22.178  35.873  13.989
93374W        W52811  22.012  44.929   3.161
93375W        W52812  30.101  28.974   4.786
93376W        W52813  40.951  36.473   9.439
93377W        W52814   1.263  34.962   1.219
93378W        W52815  39.470  39.893  11.876
93379W        W52816  26.087  15.208   0.395
93380W        W52817  31.465   5.819   2.214
93381W        W52818  32.073   6.723   3.866
93382W        W52819  41.387  23.713   3.692
93383W        W52820  14.686  35.494   3.166
93384W        W52821  23.640  26.026  12.482
93385W        W52822  30.052  15.758   0.871
93386W        W52823   1.311   6.373   4.710
93387W        W52824  20.125   3.840   1.743
93388W        W52825  21.206  39.872  12.537
93389W        W52826   7.184  42.449   1.224
93390W        W52827  44.868   3.259   2.820
93391W        W52828  20.564  23.000  11.900
93392W        W52829  44.951  25.680   0.281
93393W        W52830   7.687   5.730  11.985
93394W        W52831  43.886  35.363   1.257
93395W        W52832  14.623  15.584  13.915
93396W        W52833   0.485  44.378   3.288
93397W        W52834  17.247   7.360  11.859
93398W        W52835  17.225   6.361  13.843
93399W        W52836  38.893   1.877  13.409
93400W        W52837  30.947  34.008  13.474
93401W        W52838  41.311   9.365  14.458
93402W        W52839  23.238  24.509  11.396
93403W        W52840  33.874  15.167   0.806
93404W        W52841  14.716  21.202   2.868
93405W        W52842   1.366  34.414   0.471
93406W        W52843  34.919   6.891   2.705
93407W        W52844   2.374   2.805  11.036
93408W        W52845  33.129  25.119  14.314
93409W        W52846  13.803  33.027  13.420
93410W        W52847  11.358  42.361  10.553
93411W        W52848  38.404  11.241  10.428
93412W        W52849  17.079   5.794   2.706
93413W        W52850   9.665  25.637   0.903
93414W        W52851  32.538  29.525   1.278
93415W        W52852  37.558  18.255  14.912
93416W        W52853  10.290  30.486   0.463
93417W        W52854  43.396  37.026  14.834
93418W        W52855  18.630   6.419   4.257
93419W        W52856  30.515   2.424  14.968
93420W        W52857  33.122   2.874  10.962
93421W        W52858  17.589   0.460  12.024
93422W        W52859   2.954  38.445   0.797
93423W        W52860  32.008   7.415   4.153
93424W        W52861  18.702  10.836   3.372
93425W        W52862  35.085  35.020   2.829
93426W        W52863  28.949   7.391  12.853
93427W        W52864   4.810  27.656  10.999
93428W        W52865  38.988  39.031   0.746
93429W        W52866   1.320  17.760   3.279
93430W        W52867  42.490  44.859   3.640
93431W        W52868   7.304   2.886  11.601
93432W        W52869  41.305  31.133   1.787
93433W        W52870  41.900  35.090   4.621
93434W        W52871  17.671  30.460   4.767
93435W        W52872   2.407  28.185  12.407
93436W        W52873   4.925  30.540  10.564
93437W        W52874   4.399   1.841  10.575
93438W        W52875  33.027   3.845   0.444
93439W        W52876   8.189  41.804  14.818
93440W        W52877  27.488  38.962   3.648
93441W        W52878  20.632  23.031  12.370
93442W        W52879  11.226   6.686   2.241
93443W        W52880  13.216  11.685   3.723
93444W        W52881  41.346  26.594  12.578
93445W        W52882  42.282  40.977   0.889
93446W        W52883  35.497  39.954   0.406
93447W        W52884   0.455  34.034   1.347
93448W        W52885   8.207  15.101   4.618
93449W        W52886  23.565  14.247   1.322
93450W        W52887   3.288  43.413   4.233
93451W        W52888   1.431  39.823  12.825
93452W        W52889   4.306   7.314  13.409
93453W        W52890  42.472  25.554  11.528
93454W        W52891   3.815  37.496  12.059
93455W        W52892  35.525   9.315  12.996
93456W        W52893  29.041  15.602   2.291
93457W        W52894  44.502  28.122   2.748
93458W        W52895  19.085  20.677   3.851
93459W        W52896  37.427  12.814   3.631
93460W        W52897  43.851  21.242  10.457
93461W        W52898  24.052  40.426   4.645
93462W        W52899  17.216  41.470  11.892
93463W        W52900  27.975  21.066  12.543
93464W        W52901  42.879  29.505   0.800
93465W        W52902  10.844   0.337   1.301
93466W        W52903  10.789   5.889   0.807
93467W        W52904  40.016  18.555   1.780
93468W        W52905  17.679  32.086  11.050
93469W        W52906  43.951  38.851   5.311
93470W        W52907  43.378  27.948  14.323
93471W        W52908  30.629  29.060   0.751
93472W        W52909  11.366  25.529   3.696
93473W        W52910  21.177  42.461   4.322
93474W        W52911  11.790   8.245   3.797
93475W        W52912  19.677  15.803  12.868
93476W        W52913   3.886  35.943  10.151
93477W        W52914  26.516  13.234  13.544
93478W        W52915  39.384  26.537  13.459
93479W        W52916  16.710  38.899   1.841
93480W        W52917  37.395  18.546   1.360
93481W        W52918  17.584  39.884  14.964
93482W        W52919  22.199  30.000  13.854
93483W        W52920  42.523  43.896  10.551
93484W        W52921   6.343  13.292  12.006
93485W        W52922   6.391  34.517  14.791
93486W        W52923  15.641  31.148  14.980
93487W        W52924  21.535  17.608   1.417
93488W        W52925   6.746  23.143  10.578
93489W        W52926  37.489  44.416   4.658
93490W        W52927  39.413  28.990   4.644
93491W        W52928  24.991  25.594   5.094
93492W        W52929  42.344   9.677  14.955
93493W        W52930  29.500  32.481  11.508
93494W        W52931   9.354  11.329   3.180
93495W        W52932  17.670  20.599   3.793
93496W        W52933  12.765  17.763   0.822
93497W        W52934  42.422  28.117  12.046
93498W        W52935  16.718   9.837   0.891
93499W        W52936   9.354  31.123   4.137
93500W        W52937  28.506  33.025  14.954
93501W        W52938  13.796   4.925   2.763
93502W        W52939   2.754  15.773   3.786
93503W        W52940  29.162  30.494   3.652
93504W        W52941  39.061   7.212   4.833
93505W        W52942  20.068  12.263  12.827
93506W        W52943  39.857  31.117  13.341
93507W        W52944   4.236  39.813  12.546
93508W        W52945  32.055  42.821   4.313
93509W        W52946  44.980  12.182  13.308
93510W        W52947  29.986  41.941  13.002
93511W        W52948  32.007  43.291   0.867
93512W        W52949  33.937  43.440   0.832
93513W        W52950  17.647  27.966   4.314
93514W        W52951  41.842  41.384  12.069
93515W        W52952   0.466  26.057  10.902
93516W        W52953   2.383  21.158   5.088
93517W        W52954   1.317  30.450   2.413
93518W        W52955   7.901  16.186  11.462
93519W        W52956  18.613  42.437   2.301
93520W        W52957  39.918  30.490   0.880
93521W        W52958  29.998   6.318   3.318
93522W        W52959   2.761  19.755   2.320
93523W        W52960  37.008   7.178  10.906
93524W        W52961  32.537   1.760   3.163
93525W        W52962  29.921  44.934   1.260
93526W        W52963  33.130   6.267  11.077
93527W        W52964  40.383   7.268  11.891
93528W        W52965  16.618  31.522  14.279
93529W        W52966  41.952  41.331  12.852
93530W        W52967   8.370   2.733  10.576
93531W        W52968  22.653  21.731  14.346
93532W        W52969  25.710  19.163   1.917
93533W        W52970   4.303  10.374  12.832
93534W        W52971   5.244   9.733   1.807
93535W        W52972  27.175  15.794  10.131
93536W        W52973  24.662  35.503   0.412
93537W        W52974  23.075  19.193   4.254
93538W        W52975   7.850  39.870  11.578
93539W        W52976  28.059  21.251   4.707
93540W        W52977  42.798   0.863   5.114
93541W        W52978  42.026  36.099  14.411
93542W        W52979  35.098  35.552  10.977
93543W        W52980  13.259   0.789  14.340
93544W        W52981  14.159  23.645  11.876
93545W        W52982  31.538  31.978   0.460
93546W        W52983  43.003   4.737   0.394
93547W        W52984   8.379   3.716   1.907
93548W        W52985  15.296   7.394   3.759
93549W        W52986  39.487  29.116   0.907
93550W        W52987  19.646   5.835  10.601
93551W        W52988  35.485  30.636  11.473
93552W        W52989  41.453  41.397   1.359
93553W        W52990  29.661  20.558  10.936
93554W        W52991  33.594  23.529   1.777
93555W        W52992  40.425  22.681   0.378
93556W        W52993  19.183  38.899   4.289
93557W        W52994  23.543  20.620  10.058
93558W        W52995  31.910  32.071   2.740
93559W        W52996  41.383  34.935   2.726
93560W        W52997  32.616  13.195  10.573
93561W        W52998  40.813  19.603  10.502
93562W        W52999  19.763  27.489   3.666
93563W        W53000  27.627  16.248   1.400
93564W        W53001  40.464  40.820   3.159
93565W        W53002  24.570  19.281  14.783
93566W        W53003   0.826  23.022   0.879
93567W        W53004   2.919  29.666   1.431
93568W        W53005  33.557   4.269  11.899
93569W        W53006  29.941   5.412  13.328
93570W        W53007  14.340   7.765  13.037
93571W        W53008  33.120  36.427  14.897
93572W        W53009   6.795  10.287  12.857
93573W        W53010  24.060  10.662  11.607
93574W        W53011   0.417   6.836  10.487
93575W        W53012  29.557  39.417   1.723
93576W        W53013  36.479  10.148   1.901
93577W        W53014  34.426  23.102  13.501
93578W        W53015  44.873  26.635   0.933
93579W        W53016  20.603  44.260   2.195
93580W        W53017  38.546   4.870  11.373
93581W        W53018  19.230   2.246  13.891
93582W        W53019   6.910  26.522  13.792
93583W        W53020  44.298   9.235   5.222
93584W        W53021  40.540  39.811   0.951
93585W        W53022  18.174  22.506  12.872
93586W        W53023  31.944  17.265   2.279
93587W        W53024  36.081  15.307  13.509
93588W        W53025   8.691  25.499   4.239
93589W        W53026  31.467  25.521   4.640
93590W        W53027  23.169  21.204  12.513
93591W        W53028   7.368  25.518  14.841
93592W        W53029  27.581   3.742  11.945
93593W        W53030   1.805   8.728  11.448
93594W        W53031   8.213  32.984   1.852
93595W        W53032  34.120   4.225  12.949
93596W        W53033  18.710  40.957  10.082
93597W        W53034   2.835  14.718   4.705
93598W        W53035  13.754  40.344  10.987
93599W        W53036  34.538  24.636   5.149
93600W        W53037  20.211  35.919  14.786
93601W        W53038  21.186  31.488  11.058
93602W        W53039   5.262  21.590  11.074
93603W        W53040   1.237  42.450   0.751
93604W        W53041   2.376  23.719   3.669
93605W        W53042  23.079  36.944   0.915
93606W        W53043  31.117   9.306   2.810
93607W        W53044  21.210  35.360  14.779
93608W        W53045  25.137  18.061   1.783
93609W        W53046  32.423  30.557  14.830
93610W        W53047  15.658  22.053   1.883
93611W        W53048  20.655  24.992   3.696
93612W        W53049   5.267  23.693   3.322
93613W        W53050  40.509   7.908  14.850
93614W        W53051   9.281  10.185  14.788
93615W        W53052  10.192  41.896   4.780
93616W        W53053  24.503  20.266   2.713
93617W        W53054  36.431   6.305  11.548
93618W        W53055   3.445  13.827  13.813
93619W        W53056  27.954   5.900   0.326
93620W        W53057  32.131  43.929   2.831
93621W        W53058  17.079  33.998   2.225
93622W        W53059  32.140  19.767  13.456
93623W        W53060   9.328  37.540  14.462
93624W        W53061  22.182  24.638  13.811
93625W        W53062  12.169  16.118   4.810
93626W        W53063   6.830  26.541  12.850
93627W        W53064  44.817   1.958   2.406
93628W        W53065  10.783  11.213   1.365
93629W        W53066  21.610  17.621   0.312
93630W        W53067  21.186  10.802   4.837
93631W        W53068   2.870  20.196  13.548
93632W        W53069  44.334   7.816   3.219
93633W        W53070  13.795  21.613   1.844
93634W        W53071   8.901  18.748   0.267
93635W        W53072  18.748  43.271  11.451
93636W        W53073  24.001  13.626  11.466
93637W        W53074  25.970  20.760   4.279
93638W        W53075  29.506  35.474   0.818
93639W        W53076  15.128  11.843  11.465
93640W        W53077  24.624   9.841  14.459
93641W        W53078   3.784  32.945  10.644
93642W        W53079  41.496  15.284   2.880
93643W        W53080  19.222  12.620  12.523
93644W        W53081  19.244   4.208  12.914
93645W        W53082   5.789  18.183   1.716
93646W        W53083  35.490  30.479   3.227
93647W        W53084  18.084  36.936  12.841
93648W        W53085  37.366  20.673  10.585
93649W        W53086   9.749  31.620   2.221
93650W        W53087  41.377   1.424   3.221
93651W        W53088   4.347  22.552  13.836
93652W        W53089   1.753  24.225   0.305
93653W        W53090  21.526  24.658   1.836
93654W        W53091  30.447  26.598   0.418
93655W        W53092  41.432  44.314  13.015
93656W        W53093  20.647   3.816  14.877
93657W        W53094  18.622   1.973  12.379
93658W        W53095  43.430  18.104   2.770
93659W        W53096  16.756  32.413  13.018
93660W        W53097  15.205  26.513   1.814
93661W        W53098  16.074  32.547   3.339
93662W        W53099  40.875  35.882   3.630
93663W        W53100  33.097  10.308   5.259
93664W        W53101  41.434  22.107   0.249
93665W        W53102  20.725  34.892  14.321
93666W        W53103   7.868  40.963   4.324
93667W        W53104  38.560   9.368  11.897
93668W        W53105  42.493   8.396   2.398
93669W        W53106   6.351  11.178   0.903
93670W        W53107   9.809  39.058  12.459
93671W        W53108  35.028  11.821   0.405
93672W        W53109  40.426  13.729   4.650
93673W        W53110   2.305  39.374  10.016
93674W        W53111  39.395  13.108  13.452
93675W        W53112  34.436  26.638   0.476
93676W        W53113  27.960  23.994   3.263
93677W        W53114  29.981  23.496   3.305
93678W        W53115  11.243  12.232   3.181
93679W        W53116   4.433   5.200   1.342
93680W        W53117  44.969  42.834   1.223
93681W        W53118   2.272  17.153   0.324
93682W        W53119  24.210  33.876  10.570
93683W        W53120  11.149  34.051  12.947
93684W        W53121  31.535   4.782   3.378
93685W        W53122  33.123  17.589   1.391
93686W        W53123  20.255  16.125  12.470
93687W        W53124  29.622  10.307   0.732
93688W        W53125  20.060   9.889   3.305
93689W        W53126  20.651  14.787  12.450
93690W        W53127   8.811   5.924   3.710
93691W        W53128  42.356  39.945   3.725
93692W        W53129   0.330   8.353  11.950
93693W        W53130  25.551  20.630   3.711
93694W        W53131  23.004  35.578   2.826
93695W        W53132  36.479  19.660  12.978
93696W        W53133  15.793  34.052  10.992
93697W        W53134  44.792  17.668   3.677
93698W        W53135   7.193  33.949  12.532
93699W        W53136  17.632   2.317  10.974
93700W        W53137  14.755  39.445  14.882
93701W        W53138  13.328   5.316   3.204
93702W        W53139  23.219  28.117   3.319
93703W        W53140  27.164  42.298   2.895
93704W        W53141   3.267   6.758  13.808
93705W        W53142   4.875  18.181  12.879
93706W        W53143  11.840   1.824  12.467
93707W        W53144  27.608   5.739  12.949
93708W        W53145  11.863  15.645  14.817
93709W        W53146  21.087  35.552   1.408
93710W        W53147  41.337   0.763  12.830
93711W        W53148   5.738  31.500   4.121
93712W        W53149  10.819  13.735   4.753
93713W        W53150  18.153   6.739  11.545
93714W        W53151  40.895  12.213  10.495
93715W        W53152  15.103  41.830  11.925
93716W        W53153  32.050  12.642  11.063
93717W        W53154  15.127   6.287  14.482
93718W        W53155  35.890  14.798   1.265
93719W        W53156  23.559  23.719   2.725
93720W        W53157  16.075  31.455  10.541
93721W        W53158  14.748  18.659   0.257
93722W        W53159  34.088  17.588  13.547
93723W        W53160   4.755   0.474  12.562
93724W        W53161  17.282  34.567   2.677
93725W        W53162   9.798  41.821   3.352
93726W        W53163  38.443  10.182  13.466
93727W        W53164  20.121  33.886   0.419
93728W        W53165  38.972  13.238  13.459
93729W        W53166   1.825   2.831   4.739
93730W        W53167  28.170  12.191  11.539
93731W        W53168  11.770  40.549  12.921
93732W        W53169  13.839   0.954  11.511
93733W        W53170  24.184  17.721   2.665
93734W        W53171  28.185  41.917   4.200
93735W        W53172  41.363  41.526   0.936
93736W        W53173  37.500  17.260  11.525
93737W        W53174  38.440  43.873  13.899
93738W        W53175   9.356   0.804  13.794
93739W        W53176  35.028  32.400   3.382
93740W        W53177  44.951  44.495   4.262
93741W        W53178  35.914   8.695  13.311
93742W        W53179  26.021  18.706  11.917
93743W        W53180  20.748   8.818  13.445
93744W        W53181  33.516  23.621  11.081
93745W        W53182   6.273  28.596  11.563
93746W        W53183  35.569  39.003  12.042
93747W        W53184  20.188   5.879  12.501
93748W        W53185  18.108  15.824   2.870
93749W        W53186  28.661  34.578  13.381
93750W        W53187  19.701   5.700  11.864
93751W        W53188  14.239  22.601  13.026
93752W        W53189  21.147  35.890  11.067
93753W        W53190   9.316  33.116  11.411
93754W        W53191  23.666   8.747  10.546
93755W        W53192  31.405  38.893   2.333
93756W        W53193  20.611  25.217   1.897
93757W        W53194  16.113   7.356  14.769
93758W        W53195  32.073  43.352  11.432
93759W        W53196  13.682  25.106   1.872
93760W        W53197   2.454  11.308  14.983
93761W        W53198   1.845  42.898   3.290
93762W        W53199  15.270  21.664  10.601
93763W        W53200   9.261  33.082   0.863
93764W        W53201   9.253  36.561  14.388
93765W        W53202  11.140   2.743  10.423
93766W        W53203  12.639   0.942   1.354
93767W        W53204  12.811  25.606   3.807
93768W        W53205  30.918  43.015   3.636
93769W        W53206  40.344  16.616  12.506
93770W        W53207   0.341  34.078  14.303
93771W        W53208  21.736  36.901   2.721
93772W        W53209  25.021  24.086   0.433
93773W        W53210  12.823   7.232  11.920
93774W        W53211  24.083  17.072  14.833
93775W        W53212   3.412  28.179   4.668
93776W        W53213   1.359  36.930   1.277
93777W        W53214   3.395  13.718   0.426
93778W        W53215   4.228  39.452   3.701
93779W        W53216  26.173  34.904   3.863
93780W        W53217  33.517  10.300   2.768
93781W        W53218  43.908  30.055   4.309
93782W        W53219   8.185   6.776   2.383
93783W        W53220  13.135  11.669   4.730
93784W        W53221   2.837  36.449   4.186
93785W        W53222  42.525  17.703   2.759
93786W        W53223  33.125  10.211  10.510
93787W        W53224   9.659  40.503   1.846
93788W        W53225  40.904   3.806  10.952
93789W        W53226  24.129   8.339  14.988
93790W        W53227   9.885  31.902  13.869
93791W        W53228  17.645  42.909  12.079
93792W        W53229   9.679  42.460   1.370
93793W        W53230  20.767   8.162  13.907
93794W        W53231   1.845  43.766   1.372
93795W        W53232   0.766  37.526  12.475
93796W        W53233  31.430   9.684  14.971
93797W        W53234  34.566  16.229   0.745
93798W        W53235  39.040   6.216   5.255
93799W        W53236   1.342  20.203  11.442
93800W        W53237  41.390  28.109  13.334
93801W        W53238   4.340  28.165   2.761
93802W        W53239  22.999   6.755   1.357
93803W        W53240  25.021  36.044   1.907
93804W        W53241  30.571   9.262   2.872
93805W        W53242   1.917   4.772  12.992
93806W        W53243  35.445  33.460  12.839
93807W        W53244  22.251  35.025  11.579
93808W        W53245  11.810   5.932   2.264
93809W        W53246  42.445  42.899   4.791
93810W        W53247  26.598   5.434   4.217
93811W        W53248  38.979  41.356  13.916
93812W        W53249  10.672   5.920   3.268
93813W        W53250  30.569  22.134  12.008
93814W        W53251  42.512   5.921  12.043
93815W        W53252   5.397  34.907   0.372
93816W        W53253  23.205  28.069  13.936
93817W        W53254  30.068  11.789  14.491
93818W        W53255   3.382  26.497   0.481
93819W        W53256  34.888   8.898  14.798
93820W        W53257  36.421   6.188  12.346
93821W        W53258  35.078  30.601   0.483
93822W        W53259  41.030  27.528  13.502
93823W        W53260  33.492  38.357   2.769
93824W        W53261  14.802  28.596  12.951
93825W        W53262   6.351  22.124   3.781
93826W        W53263  32.590  44.503   2.709
93827W        W53264   2.926   5.263  14.485
93828W        W53265  19.772  30.109   1.364
93829W        W53266  22.531  26.610  14.505
93830W        W53267  21.602  30.450   2.343
93831W        W53268  10.845  28.574  13.998
93832W        W53269   5.786  24.194  11.035
93833W        W53270  32.541  43.865  12.419
93834W        W53271  36.921  17.139   2.694
93835W        W53272  16.622  40.803  12.539
93836W        W53273   3.761  38.546   0.246
93837W        W53274  29.455  34.475   2.342
93838W        W53275  29.553  33.954   0.457
93839W        W53276  30.464  10.634   0.249
93840W        W53277  29.113  30.573   0.348
93841W        W53278  12.308  20.615   1.764
93842W        W53279  33.942  25.510   3.692
93843W        W53280  13.841  40.934  12.348
93844W        W53281  35.880  17.247   3.332
93845W        W53282  25.683  40.456   2.305
93846W        W53283  12.798  35.911  14.021
93847W        W53284  26.641   0.930  14.389
93848W        W53285   9.382  26.976   1.749
93849W        W53286  39.484  23.990   2.388
93850W        W53287   7.910  42.470  14.933
93851W        W53288  39.398  15.175   4.801
93852W        W53289  39.877  44.986  11.517
93853W        W53290  44.286  20.038  13.898
93854W        W53291   9.288  36.871  14.783
93855W        W53292  29.479  13.695  13.791
93856W        W53293   7.722  37.538   4.315
93857W        W53294   7.818   3.790  10.522
93858W        W53295  12.302  28.994   3.810
93859W        W53296  38.046  18.746   4.167
93860W        W53297  25.105  41.862   4.787
93861W        W53298  21.738   2.736  13.465
93862W        W53299  23.214  36.527   0.482
93863W        W53300  35.368  19.775  13.970
93864W        W53301  31.035  41.401   0.271
93865W        W53302  40.039  39.028   0.267
93866W        W53303  26.535  41.471   0.942
93867W        W53304   6.216  30.572   3.786
93868W        W53305  33.562  43.898  11.491
93869W        W53306  16.189  43.344   2.248
93870W        W53307  16.685  31.607  11.574
93871W        W53308  30.117  10.233  11.021
93872W        W53309   6.911  12.137   1.297
93873W        W53310  34.456   9.315   2.321
93874W        W53311  15.821  25.558  10.572
93875W        W53312  34.436  25.581  10.438
93876W        W53313  25.637  36.926  10.541
93877W        W53314  25.581  19.285  13.850
93878W        W53315   4.249  43.478   2.408
93879W        W53316   8.177  44.763  13.418
93880W        W53317  19.161  25.110   1.694
93881W        W53318  41.979  32.918   0.372
93882W        W53319   7.734  44.361   2.178
93883W        W53320  11.235   9.354   0.735
93884W        W53321  44.267  14.657   3.678
93885W        W53322  42.373  14.131  11.015
93886W        W53323  19.208  31.905  14.859
93887W        W53324  11.177  22.070   3.721
93888W        W53325  27.450  37.479  13.839
93889W        W53326  44.944   1.785   4.149
93890W        W53327  18.262  26.083   3.146
93891W        W53328  23.646  37.932  12.433
93892W        W53329  42.442  27.152   2.401
93893W        W53330   9.179  35.013  10.992
93894W        W53331  12.323  15.315   2.736
93895W        W53332  18.692  23.008  11.413
93896W        W53333   7.276   9.682   0.744
93897W        W53334  42.287   0.263  11.934
93898W        W53335  15.324  15.742  12.364
93899W        W53336  35.088  42.355  10.569
93900W        W53337  37.033  33.125   0.917
93901W        W53338  20.042   1.337  11.470
93902W        W53339  33.509  16.690   4.342
93903W        W53340  16.657  34.575  10.474
93904W        W53341  41.357  23.491  13.382
93905W        W53342  31.638  35.908  13.495
93906W        W53343  40.827  15.786  14.007
93907W        W53344  30.491  20.162   3.678
93908W        W53345  11.171  13.721  12.967
93909W        W53346  20.717  34.024  12.481
93910W        W53347   0.252  16.635   4.135
93911W        W53348  36.402  17.249   5.217
93912W        W53349  20.152  25.016   3.683
93913W        W53350  24.478  20.572   2.267
93914W        W53351  17.270   9.890  13.376
93915W        W53352  24.063  34.561   1.244
93916W        W53353   1.321  32.909   0.390
93917W        W53354  12.697  26.564   3.857
93918W        W53355  12.239   6.227   4.809
93919W        W53356  31.474  42.518   4.226
93920W        W53357  27.132  26.993   3.160
93921W        W53358   5.713  24.481   4.253
93922W        W53359   7.239  24.025  10.986
93923W        W53360  30.450  25.474   9.501
93924W        W53361  40.894  40.969  14.392
93925W        W53362  32.070  14.759   2.730
93926W        W53363  44.476  24.200   4.120
93927W        W53364  21.570  38.064   1.316
93928W        W53365  37.364  32.093  14.894
93929W        W53366  30.124  42.400  12.000
93930W        W53367  18.050  13.670  14.315
93931W        W53368  33.555   6.797   2.325
93932W        W53369   4.263  22.505  14.953
93933W        W53370  11.788   0.822   2.379
93934W        W53371  37.461   0.418   3.693
93935W        W53372   2.840  15.775  10.455
93936W        W53373  43.410   5.745  14.324
93937W        W53374  24.684  15.083  13.350
93938W        W53375  28.932  44.816   2.735
93939W        W53376  40.345  23.054  11.371
93940W        W53377  34.040  25.529   4.692
93941W        W53378  43.325  18.777  10.632
93942W        W53379  31.615  39.514   1.811
93943W        W53380  28.081  30.487  12.571
93944W        W53381  35.053  21.066   4.326
93945W        W53382  36.024   0.356   3.843
93946W        W53383   5.775  36.046   0.250
93947W        W53384  20.274  18.626  14.918
93948W        W53385  21.707  33.996   0.469
93949W        W53386  22.653  18.557   0.313
93950W        W53387   2.228  42.390  10.948
93951W        W53388  25.115   6.269   5.309
93952W        W53389   1.859  14.226  13.405
93953W        W53390  19.090  13.824  10.547
93954W        W53391   5.915  18.786   1.265
93955W        W53392  27.189  33.432  12.970
93956W        W53393   3.795  38.460  11.975
93957W        W53394   5.913  30.010  10.515
93958W        W53395   4.309   1.254  12.453
93959W        W53396   4.877  41.853  12.968
93960W        W53397   0.794  35.040  13.994
93961W        W53398   4.388  10.196   1.714
93962W        W53399  35.018  31.944  10.629
93963W        W53400   6.298  30.144  11.025
93964W        W53401   4.777  38.994  14.873
93965W        W53402   6.762  29.155   2.285
93966W        W53403  15.762  38.869   5.171
93967W        W53404  37.039  24.005  10.431
93968W        W53405  35.967  12.621  12.503
93969W        W53406  38.855  14.207   3.203
93970W        W53407  35.047  22.633  12.062
93971W        W53408  41.309   2.325  11.039
93972W        W53409  40.893  22.108   3.169
93973W        W53410  37.420   5.263  13.544
93974W        W53411  35.499  35.941   1.330
93975W        W53412  10.345  38.382  10.016
93976W        W53413  36.508  16.585   4.716
93977W        W53414  40.475  31.091  11.479
93978W        W53415   5.723  15.324   2.764
93979W        W53416  24.670  27.101   0.260
93980W        W53417   2.305  29.635   1.699
93981W        W53418  34.883   0.929  14.305
93982W        W53419   4.758  42.521  13.818
93983W        W53420  35.106  28.130  13.931
93984W        W53421  31.441  44.771   3.812
93985W        W53422   1.404  23.541   2.871
93986W        W53423  22.164  13.183  12.413
93987W        W53424  18.110  39.442   1.909
93988W        W53425  42.508  33.084   0.298
93989W        W53426   3.779  12.854   0.290
93990W        W53427   9.180  30.450   5.239
93991W        W53428  13.794  26.592  11.100
93992W        W53429  30.611  15.207  11.903
93993W        W53430  26.053  36.382  13.525
93994W        W53431   8.712  37.487  14.467
93995W        W53432   8.764  44.840   3.162
93996W        W53433  10.746  39.913   1.924
93997W        W53434  12.116  17.576   1.847
93998W        W53435  10.636  38.939   4.757
93999W        W53436   7.856  18.741  12.508
94000W        W53437  38.365  40.337   2.326
94001W        W53438  21.249  42.479   0.943
94002W        W53439   5.389   3.740  12.051
94003W        W53440  25.059   3.723   3.333
94004W        W53441  29.166   2.358  10.418
94005W        W53442   0.380  38.937   1.326
94006W        W53443  41.009   7.677  12.081
94007W        W53444  41.457   4.774   0.400
94008W        W53445  29.997  34.378  12.439
94009W        W53446   4.762  16.796  14.014
94010W        W53447  16.720  33.069  11.521
94011W        W53448  30.639  14.212   0.426
94012W        W53449  37.912   1.834   0.306
94013W        W53450   2.439  25.638  14.778
94014W        W53451  37.434  18.103  14.449
94015W        W53452  27.596   5.916   2.206
94016W        W53453   0.826   1.805  11.005
94017W        W53454  17.109  29.925   3.216
94018W        W53455  32.418   6.399  10.568
94019W        W53456  22.720  26.110   0.438
94020W        W53457  23.212   1.939  12.965
94021W        W53458  29.561  20.639  11.464
94022W        W53459   4.426  33.605   1.315
94023W        W53460  32.584  14.641  11.554
94024W        W53461  29.062  22.209   1.849
94025W        W53462  15.128  29.518   1.868
94026W        W53463  11.348  26.969   0.342
94027W        W53464  14.831  32.065  11.880
94028W        W53465  37.955  16.579   3.731
94029W        W53466   5.316  34.061  13.954
94030W        W53467  34.985  41.431   2.312
94031W        W53468   9.207  37.020  12.000
94032W        W53469  34.413  13.760   3.836
94033W        W53470  19.724  13.785  11.446
94034W        W53471  31.005  15.753  10.141
94035W        W53472  41.991  44.841  12.014
94036W        W53473   7.267  26.516   1.339
94037W        W53474  39.813   2.346  12.952
94038W        W53475  16.103   1.448  11.581
94039W        W53476  12.341  35.599   0.264
94040W        W53477  42.900   8.247  13.866
94041W        W53478   6.212  22.600   2.843
94042W        W53479  30.960  44.281   4.600
94043W        W53480  40.809  14.135  13.495
94044W        W53481  22.018  13.296   0.937
94045W        W53482   6.878   9.220   3.764
94046W        W53483  11.735  18.174  12.090
94047W        W53484  38.903  22.090   0.938
94048W        W53485   3.456  31.478   4.154
94049W        W53486  39.891  24.025  13.821
94050W        W53487  13.159  34.963   0.338
94051W        W53488  37.565  15.275   1.309
94052W        W53489  33.886  41.037  10.994
94053W        W53490  41.905   5.411   2.325
94054W        W53491  12.138  17.107  11.976
94055W        W53492  28.084  35.531  10.900
94056W        W53493   8.707  39.544  14.885
94057W        W53494  17.132  14.157   0.749
94058W        W53495  26.650  11.792   1.847
94059W        W53496   6.267  13.837  12.856
94060W        W53497  16.227  33.623   3.782
94061W        W53498  34.087  23.594   3.154
94062W        W53499  24.525   5.229   0.740
94063W        W53500   2.412  21.653  11.921
94064W        W53501  36.408  20.553   4.207
94065W        W53502  23.205  32.108   2.742
94066W        W53503  17.800  14.595  11.388
94067W        W53504  38.510  20.733   4.274
94068W        W53505  36.993  42.327   1.823
94069W        W53506  19.611  30.032  14.477
94070W        W53507   1.307  35.440   4.668
94071W        W53508  22.252  40.050  10.921
94072W        W53509  10.864   4.784  14.967
94073W        W53510  13.762  38.999  12.558
94074W        W53511  20.692  15.799   5.231
94075W        W53512  26.551  24.651  13.865
94076W        W53513  33.877  37.463  14.852
94077W        W53514  26.174  35.361   0.803
94078W        W53515  29.017  25.575  11.388
94079W        W53516   6.314   1.864   3.239
94080W        W53517   8.181   9.356  13.874
94081W        W53518  34.031   3.885  13.893
94082W        W53519   4.734   3.836  14.935
94083W        W53520  35.077  38.372   9.483
94084W        W53521  30.494   1.368  11.553
94085W        W53522  38.450  11.631  11.403
94086W        W53523  23.181  39.034   2.827
94087W        W53524  43.501  25.982   0.318
94088W        W53525  16.164   0.299   0.389
94089W        W53526  41.512  29.605  11.423
94090W        W53527  33.473  35.107  11.491
94091W        W53528  34.992  36.352  13.917
94092W        W53529  12.753  15.639   0.274
94093W        W53530  15.215  44.386  12.450
94094W        W53531  32.935  42.474  10.629
94095W        W53532  25.986  13.276  13.973
94096W        W53533   7.212   3.788  11.115
94097W        W53534  28.464  40.937   2.736
94098W        W53535  16.085  17.172   2.686
94099W        W53536  11.192   5.773   0.482
94100W        W53537   1.286  34.941   3.311
94101W        W53538   4.344   0.387  11.011
94102W        W53539  11.265  30.041  12.451
94103W        W53540  12.847   8.784  12.367
94104W        W53541  38.506   9.720  14.962
94105W        W53542  33.555   6.917  10.095
94106W        W53543  29.137  26.476  13.945
94107W        W53544  16.192  27.942  13.384
94108W        W53545  24.045  43.318   2.327
94109W        W53546  18.128  35.603   3.773
94110W        W53547   2.937  17.704   2.734
94111W        W53548   4.867  30.949  10.413
94112W        W53549  34.493  33.425   1.442
94113W        W53550  20.066  30.964   1.771
94114W        W53551  30.091  16.644  11.529
94115W        W53552   0.469  24.203  12.959
94116W        W53553  43.767  11.667   2.746
94117W        W53554   8.282  28.624  14.880
94118W        W53555  12.299  21.212  10.449
94119W        W53556  27.940   3.862   0.331
94120W        W53557   3.726  36.848   0.923
94121W        W53558  34.583  14.339  14.303
94122W        W53559  19.108  25.607   3.639
94123W        W53560   7.326  28.118  11.008
94124W        W53561   6.856  12.678  12.052
94125W        W53562  42.307  39.456   2.363
94126W        W53563   9.214  43.335   3.767
94127W        W53564  34.089  23.653  10.616
94128W        W53565  35.870   1.856   0.764
94129W        W53566  32.059  37.541  13.874
94130W        W53567  36.072  32.030  14.368
94131W        W53568   9.241   2.966   1.425
94132W        W53569  24.195  34.016  12.874
94133W        W53570  40.521  32.402  10.509
94134W        W53571  19.128  36.950   2.265
94135W        W53572  17.788  42.471  11.379
94136W        W53573  43.476  39.429   0.315
94137W        W53574  24.983  19.067  10.977
94138W        W53575   8.379  40.306  10.479
94139W        W53576  27.577  29.662  10.483
94140W        W53577  40.462   8.668   9.927
94141W        W53578   2.471  14.658   5.106
94142W        W53579  43.942  43.879   1.829
94143W        W53580  20.559  28.067   4.353
94144W        W53581  37.875  26.030   1.773
94145W        W53582  31.424  10.146   3.831
94146W        W53583  39.440   3.427   0.430
94147W        W53584  26.966   8.281  11.539
94148W        W53585  21.744  25.524   3.306
94149W        W53586  29.515   4.860   9.936
94150W        W53587   3.377   0.491   1.781
94151W        W53588   7.359   3.775   1.841
94152W        W53589   0.365  35.080  14.868
94153W        W53590  31.936  29.061  14.959
94154W        W53591  12.857   8.296  11.076
94155W        W53592  26.603  23.516   0.931
94156W        W53593  10.254   3.819  11.028
94157W        W53594  37.438  44.393   2.676
94158W        W53595   2.933  16.266   2.223
94159W        W53596   0.413  18.230   0.473
94160W        W53597  26.011  37.389  11.505
94161W        W53598  11.818  16.261  11.904
94162W        W53599  19.160  43.324   4.710
94163W        W53600  23.642  21.530   0.858
94164W        W53601  34.608  33.616  11.492
94165W        W53602  29.045  33.406  14.380
94166W        W53603  43.378  30.924  12.426
94167W        W53604   4.912   5.724  14.284
94168W        W53605  25.509  12.765  11.542
94169W        W53606  34.608  38.550  14.281
94170W        W53607  36.058  20.236   2.276
94171W        W53608  14.728   9.775   1.392
94172W        W53609  10.697  40.833   4.604
94173W        W53610  30.986   2.371  12.091
94174W        W53611   6.897   0.489  12.846
94175W        W53612  39.551   5.379   3.681
94176W        W53613  13.116  24.019   4.777
94177W        W53614  30.918   4.836  10.160
94178W        W53615  18.271   7.235  11.997
94179W        W53616  35.998  26.518  14.487
94180W        W53617   1.319  19.256  10.990
94181W        W53618  38.435  16.308  11.913
94182W        W53619  21.607  26.532  14.766
94183W        W53620  41.452  44.416   2.798
94184W        W53621  32.895  44.874  12.948
94185W        W53622  24.213  17.070   1.249
94186W        W53623  30.953   4.718  10.631
94187W        W53624  18.742   0.801  11.938
94188W        W53625  10.321  34.502  10.104
94189W        W53626  24.620  42.504   4.210
94190W        W53627  26.960  27.684  10.990
94191W        W53628  32.531   7.751  14.817
94192W        W53629  39.916  24.196  11.592
94193W        W53630   1.342  42.341   4.131
94194W        W53631  32.998  16.761  12.900
94195W        W53632  19.713   6.222   0.310
94196W        W53633  35.986  20.227  13.960
94197W        W53634  23.519  36.870  14.331
94198W        W53635  30.648   1.293  10.898
94199W        W53636  23.118   6.375  13.498
94200W        W53637  34.115  40.310  14.879
94201W        W53638  16.675  25.515  10.967
94202W        W53639  11.196  43.454   2.352
94203W        W53640  39.870   6.809  13.361
94204W        W53641  20.686  30.095  13.416
94205W        W53642  39.498  32.499   1.911
94206W        W53643   2.924  25.120   4.667
94207W        W53644   0.771  32.115   0.782
94208W        W53645  10.379  31.460  13.800
94209W        W53646  33.087  21.696  14.978
94210W        W53647   5.385  26.068  14.886
94211W        W53648  40.490  37.484   2.878
94212W        W53649   7.202   8.783   1.317
94213W        W53650  32.140   1.773   3.173
94214W        W53651   7.375  27.573  14.869
94215W        W53652  25.632  17.066   0.414
94216W        W53653  26.185  13.231   4.251
94217W        W53654  10.719  17.799  11.935
94218W        W53655  13.804  17.186  12.034
94219W        W53656  31.575  41.807   3.796
94220W        W53657  20.170   5.324  11.546
94221W        W53658  41.867  18.213   2.815
94222W        W53659  30.613  40.475  11.042
94223W        W53660   0.438  32.136  14.442
94224W        W53661  37.847  11.636  10.416
94225W        W53662  31.003  16.661  14.329
94226W        W53663  29.650  12.752   4.633
94227W        W53664   2.447   5.845  11.875
94228W        W53665  19.559  42.494  12.965
94229W        W53666  19.745  31.913   3.268
94230W        W53667   7.381  11.226   2.246
94231W        W53668  11.193  27.958  14.021
94232W        W53669   8.821  30.457  11.477
94233W        W53670   9.296  13.795   2.866
94234W        W53671  27.171  39.455   4.708
94235W        W53672  37.526  19.218   4.289
94236W        W53673  15.307  41.918   2.323
94237W        W53674  30.453   1.386  14.845
94238W        W53675  28.450  42.420   3.850
94239W        W53676  37.505  13.154   0.311
94240W        W53677  37.471   2.424  11.958
94241W        W53678  14.186  14.705  12.867
94242W        W53679  43.270   9.380   3.317
94243W        W53680  29.113   1.735   4.669
94244W        W53681  28.175  11.798   2.210
94245W        W53682   9.865  35.001   3.817
94246W        W53683   3.886  15.662  14.810
94247W        W53684  21.243  33.044   3.736
94248W        W53685  39.381  35.489  12.369
94249W        W53686  33.544  12.316  14.863
94250W        W53687  14.703  28.026   4.604
94251W        W53688  23.011   2.953   2.882
94252W        W53689  18.754  20.680  14.313
94253W        W53690  20.107   3.717  11.098
94254W        W53691   2.432  42.313   2.342
94255W        W53692  20.680   4.844   2.394
94256W        W53693  26.057   2.425  11.487
94257W        W53694  36.935   8.809  14.898
94258W        W53695  21.564  20.143   3.383
94259W        W53696  14.722  11.331  14.936
94260W        W53697   1.798  24.230  14.762
94261W        W53698  32.999  28.654  12.492
94262W        W53699   0.816  36.387  11.590
94263W        W53700  27.015  25.187   3.757
94264W        W53701  19.247  43.345  11.912
94265W        W53702  26.670  32.494  11.978
94266W        W53703   1.394  41.356  14.774
94267W        W53704   2.235  40.876  10.473
94268W        W53705   9.156  28.448   9.549
94269W        W53706  36.045   4.756  14.329
94270W        W53707   1.267  11.343  12.014
94271W        W53708   7.367  18.261   1.437
94272W        W53709   5.322   1.386   0.727
94273W        W53710  30.578  35.374  14.843
94274W        W53711  14.224   2.459   3.696
94275W        W53712  33.123  27.053   1.804
94276W        W53713  39.387  33.100  13.391
94277W        W53714  18.139   8.232   1.371
94278W        W53715   7.219   6.903   0.741
94279W        W53716  16.796  42.459   2.193
94280W        W53717  16.624  16.268   9.975
94281W        W53718  40.873  23.655   0.304
94282W        W53719  11.757  23.693   2.264
94283W        W53720   1.382  30.591   1.714
94284W        W53721  13.838   3.290   1.780
94285W        W53722  39.823  44.369   3.810
94286W        W53723  10.810  24.058   1.858
94287W        W53724  24.649  14.711  12.065
94288W        W53725   3.218   8.255   0.366
94289W        W53726  24.034  43.356   3.254
94290W        W53727   1.889  28.604   4.650
94291W        W53728  27.670  31.132   2.380
94292W        W53729  29.536   4.772  12.963
94293W        W53730  24.659   0.490   1.422
94294W        W53731  33.505  31.031  12.085
94295W        W53732  16.307  20.590   1.812
94296W        W53733  44.412  13.826  12.462
94297W        W53734  32.458   6.687  10.939
94298W        W53735  31.468  41.951   2.199
94299W        W53736  40.020  34.881   0.739
94300W        W53737   6.746  34.582  13.372
94301W        W53738  41.344   9.701  14.427
94302W        W53739  38.935  33.967  13.003
94303W        W53740   5.409  43.985   4.325
94304W        W53741   4.245  18.268  11.393
94305W        W53742  27.632  16.265  14.786
94306W        W53743  36.499  36.953  12.432
94307W        W53744  40.531  31.403  12.027
94308W        W53745  26.023  22.542  11.857
94309W        W53746  23.083   2.907   0.439
94310W        W53747  20.653  30.950   4.332
94311W        W53748  37.986   3.836  14.400
94312W        W53749  30.534  41.972  10.407
94313W        W53750  12.840  24.699  13.883
94314W        W53751  11.267  20.138  13.439
94315W        W53752  26.141  27.100   2.332
94316W        W53753  11.750  32.617  14.833
94317W        W53754   9.823  15.815  12.526
94318W        W53755  25.544   7.824  14.781
94319W        W53756  38.825   5.295  13.905
94320W        W53757  41.843  20.161  12.958
94321W        W53758  40.898   0.760  14.497
94322W        W53759  13.171  39.843   4.131
94323W        W53760  31.920  26.609  12.515
94324W        W53761   0.923  32.045   4.627
94325W        W53762  18.096   9.742   0.866
94326W        W53763  20.089  15.681  13.059
94327W        W53764  22.024  16.303  11.104
94328W        W53765  15.735  27.060  10.570
94329W        W53766  39.839  41.874   4.227
94330W        W53767  11.685   3.236  10.988
94331W        W53768   6.260  33.418  13.908
94332W        W53769   1.932   6.867   0.857
94333W        W53770  38.064  33.595   1.290
94334W        W53771  18.157  10.820  11.389
94335W        W53772  11.732  19.697   2.667
94336W        W53773  35.392  27.057  12.995
94337W        W53774  24.596   1.458  12.525
94338W        W53775  27.166  15.165   3.675
94339W        W53776  40.305  42.395   3.809
94340W        W53777  37.337  40.924  14.829
94341W        W53778  28.456  35.484   4.645
94342W        W53779   3.360  35.467  10.959
94343W        W53780  23.617  40.316   2.307
94344W        W53781  31.017  12.312  12.428
94345W        W53782  17.278  29.465  13.928
94346W        W53783  40.364  28.958   4.734
94347W        W53784  17.762  24.537  11.583
94348W        W53785  38.491  17.086   1.841
94349W        W53786   2.875  25.976   3.732
94350W        W53787   0.881   8.676  13.063
94351W        W53788  27.025  27.045   0.309
94352W        W53789   2.899   4.319   0.890
94353W        W53790  23.149  22.580   0.434
94354W        W53791   1.407   3.832  14.308
94355W        W53792   7.784  11.187  10.526
94356W        W53793  38.997  21.197   0.285
94357W        W53794  25.494  37.078   1.911
94358W        W53795  13.771  14.830  12.363
94359W        W53796  18.733  24.498   0.738
94360W        W53797  44.331  23.670  11.420
94361W        W53798  35.014  13.620  14.490
94362W        W53799  32.582   0.375   2.853
94363W        W53800  42.463  11.642   2.394
94364W        W53801   1.738   4.267  14.430
94365W        W53802  13.231  25.026  10.537
94366W        W53803  36.887  15.211  14.012
94367W        W53804  35.909  27.015   0.387
94368W        W53805  42.888  10.653   0.789
94369W        W53806  17.085  24.502  11.526
94370W        W53807  28.974  42.486   4.115
94371W        W53808  25.195  23.215   9.970
94372W        W53809  28.099   6.854  12.372
94373W        W53810  28.137  41.322   1.330
94374W        W53811  31.153  35.393  12.046
94375W        W53812   9.778  38.559  13.470
94376W        W53813   7.243   9.890  13.917
94377W        W53814  24.663  19.602  12.979
94378W        W53815  14.685  16.274  11.391
94379W        W53816  21.754  23.602   2.324
94380W        W53817  40.040   8.386   1.758
94381W        W53818  40.491  27.076  14.926
94382W        W53819  11.209  11.132  11.405
94383W        W53820  13.293  19.155  13.844
94384W        W53821  32.131  28.151   3.235
94385W        W53822  25.104   8.390  13.542
94386W        W53823  24.606  20.116  14.439
94387W        W53824  40.515  35.928  11.076
94388W        W53825  32.037  21.601  10.988
94389W        W53826  40.884  20.546  13.377
94390W        W53827   5.364  13.709   2.877
94391W        W53828   9.890  14.799   1.774
94392W        W53829  36.434  20.232   2.823
94393W        W53830  36.944  44.342   0.383
94394W        W53831  23.726  24.993  14.790
94395W        W53832  17.749  42.872   1.718
94396W        W53833  43.880  36.886  14.416
94397W        W53834  30.963  26.952   0.764
94398W        W53835   5.435   9.681  12.845
94399W        W53836  13.752  16.751  12.566
94400W        W53837  11.307  26.168   2.328
94401W        W53838   5.821  37.999   1.327
94402W        W53839  17.670  32.633  12.048
94403W        W53840  30.491   3.363   0.443
94404W        W53841  16.108  17.066  11.992
94405W        W53842  18.256  44.972  13.385
94406W        W53843   1.314  29.109  10.465
94407W        W53844  32.488  30.917   3.692
94408W        W53845   4.384  36.943  13.909
94409W        W53846  11.359   7.674  11.403
94410W        W53847  19.704  27.097  10.550
94411W        W53848  32.462   6.732  13.977
94412W        W53849  32.965  32.509  10.999
94413W        W53850   2.279  31.956   0.827
94414W        W53851  28.108   5.787  11.612
94415W        W53852   4.726  38.927   4.344
94416W        W53853  39.545  25.081   2.823
94417W        W53854  42.903  19.192  14.444
94418W        W53855  34.501  18.589   3.862
94419W        W53856   2.424  17.660   9.961
94420W        W53857   0.279  16.804   1.445
94421W        W53858   6.863   7.246   0.944
94422W        W53859   1.842   8.897  13.517
94423W        W53860  18.588  39.475   3.170
94424W        W53861  39.339  22.219  11.065
94425W        W53862   9.280  24.720  12.878
94426W        W53863   9.256  30.625   1.345
94427W        W53864  21.086  26.614   2.720
94428W        W53865  32.091  18.750   2.883
94429W        W53866  14.318  16.125   0.748
94430W        W53867  32.457  19.773  10.598
94431W        W53868  19.043  38.831  13.911
94432W        W53869  31.064  32.624   1.708
94433W        W53870  34.557  23.712  14.792
94434W        W53871  34.563   3.431  14.484
94435W        W53872  26.461  30.642   3.316
94436W        W53873   0.742  13.793   0.270
94437W        W53874  44.326  26.672  12.913
94438W        W53875  29.649  33.912  12.568
94439W        W53876   5.306  40.369  12.891
94440W        W53877  16.089  43.805  13.537
94441W        W53878  24.095  27.020   3.819
94442W        W53879  25.973  30.006  12.926
94443W        W53880  38.921   6.765   3.312
94444W        W53881  27.512  20.701   4.160
94445W        W53882  24.209  23.597   4.672
94446W        W53883  41.314  42.350  14.461
94447W        W53884  14.222  26.057   3.858
94448W        W53885  43.345  26.994  14.450
94449W        W53886   5.826  26.531  14.355
94450W        W53887   4.771   5.792   4.769
94451W        W53888   1.910   7.769  14.824
94452W        W53889  17.712   9.814  12.834
94453W        W53890  15.219  21.626   3.793
94454W        W53891  34.506  40.016   1.280
94455W        W53892  39.498  10.839   4.263
94456W        W53893  32.093  36.480  14.770
94457W        W53894   1.809  30.978   1.321
94458W        W53895  25.650  20.545  13.056
94459W        W53896  10.777  15.651  12.525
94460W        W53897  37.841  18.114   1.931
94461W        W53898  30.097  27.104  12.893
94462W        W53899  22.214   8.245  13.819
94463W        W53900  21.224  34.087  13.534
94464W        W53901  43.944  42.343   4.212
94465W        W53902  32.409   6.828  13.474
94466W        W53903   3.286  37.034   3.147
94467W        W53904  18.273  12.243   2.339
94468W        W53905  36.905  26.111  10.577
94469W        W53906  20.127   3.244  13.915
94470W        W53907  23.735  44.775   3.281
94471W        W53908  20.571  22.072  13.505
94472W        W53909  10.326  42.798  10.579
94473W        W53910  18.241  38.327  10.963
94474W        W53911   4.714  40.523  11.418
94475W        W53912  11.303  28.622   2.784
94476W        W53913   4.391  12.760  14.921
94477W        W53914  13.692  32.970   3.834
94478W        W53915  17.763  43.283   4.258
94479W        W53916   0.293  27.960   3.174
94480W        W53917  40.011  28.069  11.068
94481W        W53918  26.665   0.835   5.166
94482W        W53919  16.122  18.560   4.222
94483W        W53920  14.228  34.501  10.513
94484W        W53921  16.209   2.256   0.874
94485W        W53922  36.896   2.892   2.363
94486W        W53923  16.124  25.206  14.934
94487W        W53924  41.806  30.003  13.507
94488W        W53925  37.408   3.258  10.990
94489W        W53926  15.654  42.784   0.473
94490W        W53927  26.992   5.202  13.023
94491W        W53928  38.548   3.891   3.659
94492W        W53929  28.085  42.838  13.893
94493W        W53930  12.678  26.063   4.138
94494W        W53931  19.751  26.498  12.062
94495W        W53932   3.821  22.117   2.319
94496W        W53933  42.362  16.220   0.308
94497W        W53934  24.565  36.097  10.097
94498W        W53935  22.574  30.575   3.341
94499W        W53936   8.838  44.889   1.393
94500W        W53937   6.849  37.369   0.859
94501W        W53938   1.797  17.776  13.041
94502W        W53939  34.407  43.902  13.868
94503W        W53940  36.925  22.508   0.956
94504W        W53941   6.684   0.789   0.363
94505W        W53942   4.928   6.318  12.436
94506W        W53943  18.157  44.840  13.932
94507W        W53944  19.543  33.475  13.468
94508W        W53945  34.562  20.601   2.236
94509W        W53946  17.656  40.525  10.429
94510W        W53947  17.190  41.312   2.731
94511W        W53948   8.737  36.421  13.402
94512W        W53949   4.699  42.957   3.275
94513W        W53950  28.094   4.843  13.049
94514W        W53951  27.503   4.923  10.467
94515W        W53952  40.317  20.183   2.786
94516W        W53953  30.601  41.468   4.802
94517W        W53954  43.005  15.174   0.893
94518W        W53955   6.285  32.599   3.230
94519W        W53956  21.715  33.103   4.280
94520W        W53957  14.254  34.057  14.934
94521W        W53958  38.948  23.985  12.914
94522W        W53959   8.817   5.788   3.309
94523W        W53960  10.260  39.549  13.043
94524W        W53961  22.665  42.439   0.967
94525W        W53962  19.089   8.746  12.872
94526W        W53963  31.014   7.376  11.985
94527W        W53964  31.451  42.837   3.716
94528W        W53965   6.848   1.250   1.813
94529W        W53966  21.253  20.207  11.942
94530W        W53967   7.184  31.022   4.685
94531W        W53968   3.953  44.804   0.319
94532W        W53969  36.996   9.783  14.429
94533W        W53970   4.789  40.850  12.500
94534W        W53971  29.615   2.932   2.796
94535W        W53972  28.054  15.279   3.785
94536W        W53973  11.190  34.994  13.955
94537W        W53974  39.828  38.401  13.395
94538W        W53975  25.501  38.472  13.374
94539W        W53976  42.453  18.274   2.900
94540W        W53977  26.633  42.777  14.995
94541W        W53978   3.411  34.467   3.670
94542W        W53979  44.463  27.497  13.063
94543W        W53980  42.355  28.936   0.926
94544W        W53981  32.584  37.946  14.274
94545W        W53982  20.037  16.165  14.772
94546W        W53983  22.559   4.882   9.991
94547W        W53984   7.886  28.491  14.501
94548W        W53985  17.731  18.050  10.479
94549W        W53986  40.465  19.226   0.455
94550W        W53987   6.809  41.033   3.219
94551W        W53988  32.398  35.441  12.993
94552W        W53989  12.719  17.740  13.848
94553W        W53990  42.432  21.731  12.975
94554W        W53991  38.520  33.028   1.897
94555W        W53992  22.709   3.438   3.867
94556W        W53993  29.470  12.333   5.109
94557W        W53994  42.502  37.988  13.313
94558W        W53995  13.609  17.161   3.845
94559W        W53996  44.939   9.837  12.408
94560W        W53997  39.459  36.019   0.821
94561W        W53998  18.567  30.427  13.311
94562W        W53999   1.827  17.639  10.128
94563W        W54000   8.660  22.012  10.603
94564W        W54001   7.762  13.182   1.781
94565W        W54002  10.256   3.382   1.894
94566W        W54003   4.278  36.464   3.338
94567W        W54004  13.699  40.378  11.540
94568W        W54005   4.776  14.316  14.469
94569W        W54006  10.280  28.612   3.865
94570W        W54007  31.058   6.426   4.212
94571W        W54008   9.339   5.881  12.986
94572W        W54009   3.811  13.700  10.075
94573W        W54010  33.088   0.412  14.485
94574W        W54011  34.608  31.039  11.961
94575W        W54012  43.811  24.002   4.172
94576W        W54013   1.249  14.817   2.268
94577W        W54014  21.677  35.898  13.880
94578W        W54015  20.562  24.078  13.814
94579W        W54016   5.263  35.386  10.439
94580W        W54017  40.409  21.527  12.095
94581W        W54018  16.618   1.871   2.844
94582W        W54019  44.857  10.845   2.224
94583W        W54020  22.611  15.241  10.613
94584W        W54021  16.638   0.289  12.096
94585W        W54022  33.577  35.866   3.204
94586W        W54023  23.534   5.422  11.066
94587W        W54024  26.141  34.095   3.852
94588W        W54025   3.728  10.656   1.903
94589W        W54026  18.183  29.611   2.864
94590W        W54027  12.329   3.822  11.593
94591W        W54028   7.702  31.973   4.677
94592W        W54029   5.400  12.317  12.010
94593W        W54030   2.939  28.529  13.515
94594W        W54031  30.486  13.323  11.986
94595W        W54032  44.499  17.730   1.696
94596W        W54033  30.640  16.305   4.737
94597W        W54034  10.358  21.223  12.941
94598W        W54035  34.389  35.000  14.031
94599W        W54036  23.507  35.371   3.665
94600W        W54037  42.496  39.375  11.476
94601W        W54038  34.498  13.650   1.375
94602W        W54039  12.782   1.416   3.752
94603W        W54040  20.198   9.196  11.101
94604W        W54041  44.333  37.467  13.465
94605W        W54042   5.438  42.961  14.511
94606W        W54043  36.534  12.313  11.376
94607W        W54044  16.088  30.515   1.772
94608W        W54045  14.613  12.226   2.199
94609W        W54046  34.072  18.234   4.797
94610W        W54047  32.453   8.386  14.283
94611W        W54048  15.095  21.073  12.414
94612W        W54049  13.257  32.095   3.365
94613W        W54050  31.543  15.276  11.382
94614W        W54051  17.251   0.345  12.554
94615W        W54052  15.099   5.870  14.418
94616W        W54053   7.266  39.518  12.368
94617W        W54054  11.815  43.469   2.261
94618W        W54055  36.462  22.996   3.370
94619W        W54056  14.776  23.075   1.408
94620W        W54057  38.073  32.014   4.251
94621W        W54058   6.918   0.252   1.782
94622W        W54059  31.419   7.364  12.042
94623W        W54060  44.302   7.369  14.409
94624W        W54061  27.563  38.493  13.891
94625W        W54062  13.771  20.647   3.848
94626W        W54063  10.644  27.079   0.260
94627W        W54064  30.465  40.947   2.275
94628W        W54065  18.695  12.345  12.432
94629W        W54066   1.446  35.923   4.797
94630W        W54067  41.801  35.397   3.220
94631W        W54068   2.933  30.621   3.356
94632W        W54069   1.918   2.781  12.449
94633W        W54070   2.787  18.700   0.821
94634W        W54071  19.680  41.857   3.820
94635W        W54072  16.087  38.928   4.204
94636W        W54073  37.999  31.563  12.831
94637W        W54074  39.509  44.959  12.492
94638W        W54075  30.114  30.520  13.853
94639W        W54076   8.209  10.183   4.197
94640W        W54077  28.143   3.795   1.284
94641W        W54078  18.561  23.011   1.279
94642W        W54079  19.246  42.406  13.472
94643W        W54080  44.428   1.430   1.931
94644W        W54081   1.292   3.922   1.917
94645W        W54082   7.396  20.746   2.823
94646W        W54083  27.651  30.126   1.887
94647W        W54084   6.270  41.037   4.256
94648W        W54085  12.661  39.324   1.712
94649W        W54086  38.524  26.159  12.026
94650W        W54087  41.435  25.514  13.033
94651W        W54088  33.468  25.142  11.087
94652W        W54089  36.531  11.709   9.943
94653W        W54090  26.564  29.476   0.854
94654W        W54091  43.907  11.246   3.305
94655W        W54092  17.071   2.448   4.139
94656W        W54093  36.927  13.116  13.412
94657W        W54094  22.613  36.528   4.713
94658W        W54095   5.702  31.553   4.837
94659W        W54096   4.891  21.709   4.319
94660W        W54097  36.576   8.754  14.331
94661W        W54098  13.320   1.850   9.996
94662W        W54099  22.554  41.318   2.761
94663W        W54100  22.553  32.021   4.707
94664W        W54101  38.937  19.552  14.878
94665W        W54102   4.905  38.445   0.309
94666W        W54103  36.443  33.440  10.589
94667W        W54104  36.024   8.822   4.744
94668W        W54105  39.491   7.187   3.232
94669W        W54106  33.114  41.932   0.861
94670W        W54107  14.636   6.398   3.150
94671W        W54108  40.897  32.437   4.706
94672W        W54109   0.845  15.168  12.342
94673W        W54110  33.444  20.169   2.191
94674W        W54111  19.598  18.723  10.074
94675W        W54112  16.235  44.962  11.603
94676W        W54113  32.135  38.392   2.371
94677W        W54114  37.542  13.664  14.945
94678W        W54115  42.997  16.283   4.760
94679W        W54116  37.519  22.046   1.934
94680W        W54117  30.940   0.844  10.484
94681W        W54118  42.885   4.756  11.896
94682W        W54119  16.135  24.652  12.501
94683W        W54120  43.422  21.056  14.404
94684W        W54121  24.107  33.072   4.133
94685W        W54122   6.899  26.584   0.894
94686W        W54123   7.879  13.171  13.388
94687W        W54124  43.285   7.195   2.412
94688W        W54125  27.456  42.958   2.681
94689W        W54126  13.660  14.824  10.629
94690W        W54127  30.149  32.113   1.426
94691W        W54128   0.414  25.496   1.298
94692W        W54129  33.563  42.465   4.166
94693W        W54130  25.183   5.391  11.408
94694W        W54131  17.181  37.537   4.346
94695W        W54132  44.811   9.720  13.910
94696W        W54133  30.520  11.649   0.928
94697W        W54134  38.335  25.008  11.063
94698W        W54135  11.328   7.296   3.657
94699W        W54136   0.443   8.815   0.967
94700W        W54137  36.028  11.670  11.438
94701W        W54138  18.675  20.568   0.407
94702W        W54139   4.715  26.674  13.804
94703W        W54140  21.196  35.853  14.362
94704W        W54141   6.726  38.495   3.674
94705W        W54142  24.035  41.434  12.881
94706W        W54143   7.349  35.474  14.389
94707W        W54144  20.556  41.472  12.925
94708W        W54145  41.490  39.455   3.235
94709W        W54146  30.561  24.494   2.737
94710W        W54147  25.077  41.439  11.094
94711W        W54148  18.116  25.011  11.875
94712W        W54149  32.469  37.031   2.415
94713W        W54150   3.940  27.106  12.998
94714W        W54151   8.294  19.707  10.481
94715W        W54152  10.807  24.991  13.821
94716W        W54153  16.266  35.931  10.429
94717W        W54154  24.714  28.518  14.893
94718W        W54155   4.307  28.943   1.800
94719W        W54156   0.342  39.320   0.267
94720W        W54157  27.077  28.146   0.736
94721W        W54158  36.543  17.728   1.242
94722W        W54159  36.916  14.164   2.764
94723W        W54160  21.040  41.976   4.662
94724W        W54161  18.742  19.663   4.123
94725W        W54162  11.268  34.903   4.234
94726W        W54163  34.586  38.926  12.549
94727W        W54164  13.167   9.307  10.565
94728W        W54165  29.991   9.657   2.300
94729W        W54166  10.192  40.811  12.041
94730W        W54167   0.384  32.619   0.793
94731W        W54168  14.261  44.880  10.973
94732W        W54169  39.866  14.652  12.390
94733W        W54170  28.123  10.329  13.538
94734W        W54171   4.345  13.635  14.780
94735W        W54172  37.024  44.397  13.791
94736W        W54173  41.523  43.288  13.441
94737W        W54174  40.375  36.402  10.513
94738W        W54175   6.375  44.262  10.906
94739W        W54176  25.525   6.263   0.944
94740W        W54177  25.585  27.029   4.607
94741W        W54178  26.534  11.363  11.884
94742W        W54179  14.756  22.249  12.556
94743W        W54180  19.047  27.038  12.527
94744W        W54181  31.930  33.444  13.063
94745W        W54182  40.997  24.661   1.365
94746W        W54183   8.186   0.925   3.282
94747W        W54184   7.762  38.328  13.404
94748W        W54185  11.847  22.656   1.214
94749W        W54186  22.076   9.854   2.878
94750W        W54187  16.610  17.074  13.857
94751W        W54188  25.106  16.146  11.960
94752W        W54189  37.070  31.647  12.382
94753W        W54190   5.208   2.853  13.499
94754W        W54191  21.046   6.203   2.358
94755W        W54192  23.990  19.690   5.315
94756W        W54193  23.208  19.163  12.979
94757W        W54194  18.270  35.404  12.527
94758W        W54195  41.956  28.614   3.214
94759W        W54196   3.244   9.711  12.432
94760W        W54197   0.773  34.874  12.033
94761W        W54198  33.900  30.110  13.890
94762W        W54199  31.547  12.353  14.905
94763W        W54200  17.134  30.584   3.339
94764W        W54201  10.321  42.283   4.765
94765W        W54202   8.785  24.169  12.494
94766W        W54203  22.159  37.387  14.397
94767W        W54204  21.539  11.317  10.960
94768W        W54205  11.284  34.937  14.802
94769W        W54206   0.393  27.555   1.791
94770W        W54207  40.027   6.710   4.831
94771W        W54208  40.925   4.741   4.715
94772W        W54209   0.367  39.532   3.228
94773W        W54210  41.870  35.963   2.703
94774W        W54211  10.848  28.085   0.353
94775W        W54212  33.398  22.130  13.423
94776W        W54213  41.508  43.835  13.041
94777W        W54214  11.263   5.818   3.280
94778W        W54215  42.434  11.736   0.822
94779W        W54216  25.634  22.111  13.356
94780W        W54217  26.075  44.845  13.837
94781W        W54218  14.096   2.942  11.417
94782W        W54219  18.172  25.150  12.568
94783W        W54220  28.465  34.918   2.710
94784W        W54221  16.800  18.193   0.313
94785W        W54222  42.908  18.567   5.271
94786W        W54223  11.228   2.741  14.873
94787W        W54224  44.777  20.176   4.349
94788W        W54225  31.641  10.218  14.302
94789W        W54226  24.056  37.442   2.742
94790W        W54227  35.547  39.403   2.862
94791W        W54228  44.460  36.510  10.523
94792W        W54229  24.604  29.466  14.440
94793W        W54230  35.075  29.071  12.951
94794W        W54231   0.398   3.878  14.818
94795W        W54232  33.918  26.702  14.940
94796W        W54233  12.153  17.242   1.279
94797W        W54234  23.013  25.000  12.524
94798W        W54235  43.301  39.512  10.939
94799W        W54236  17.790  44.345  11.860
94800W        W54237   7.826  22.136   0.474
94801W        W54238   6.718   2.843   1.875
94802W        W54239  30.057   2.965  14.956
94803W        W54240   9.816  36.987  12.910
94804W        W54241   6.348   4.224  11.062
94805W        W54242  32.908   6.291   0.293
94806W        W54243  37.559   1.366  11.023
94807W        W54244   4.413  43.413   0.407
94808W        W54245  19.739   4.829  14.852
94809W        W54246   5.694  27.509   2.413
94810W        W54247  41.480  41.911   2.837
94811W        W54248  22.540  20.111  10.046
94812W        W54249  36.964  13.771   3.300
94813W        W54250  41.350  44.355  11.584
94814W        W54251  24.145   6.710   3.331
94815W        W54252  17.628  32.531   4.150
94816W        W54253  15.716  11.162  14.764
94817W        W54254  21.252   8.828   0.780
94818W        W54255  40.516   0.965   4.338
94819W        W54256  10.818  13.273   0.866
94820W        W54257   1.265  43.786  14.464
94821W        W54258  35.471  34.111   2.696
94822W        W54259  12.692  33.963   4.163
94823W        W54260   5.223  36.370   1.854
94824W        W54261  21.124  35.454   1.781
94825W        W54262  25.145  26.125   1.706
94826W        W54263  38.831   5.288  13.020
94827W        W54264  43.844  19.120   0.751
94828W        W54265   6.907  21.541   4.683
94829W        W54266   7.230  34.036   4.284
94830W        W54267  21.688  17.566  13.434
94831W        W54268  32.042   6.426  14.379
94832W        W54269   0.476   1.748   1.381
94833W        W54270  42.988  29.007   4.756
94834W        W54271  21.026  36.434  13.397
94835W        W54272  31.099  15.260  10.978
94836W        W54273  35.445  15.162   3.185
94837W        W54274  17.726  28.133   4.773
94838W        W54275  22.203  37.349  13.974
94839W        W54276  22.012  19.575  12.519
94840W        W54277  14.250  18.130   1.328
94841W        W54278   4.409  41.360   0.456
94842W        W54279  35.440  42.019  11.423
94843W        W54280  30.077  20.153  11.492
94844W        W54281  18.577  42.491   0.398
94845W        W54282   7.665  25.559  10.132
94846W        W54283  38.003   7.236   5.123
94847W        W54284  20.736   9.202  13.861
94848W        W54285  14.215  20.626   1.214
94849W        W54286  39.025  36.406  11.958
94850W        W54287  33.478  31.411  11.935
94851W        W54288  26.578  22.533  14.892
94852W        W54289  11.643  11.189   4.217
94853W        W54290  35.976  39.915   0.920
94854W        W54291  44.839  36.876  13.951
94855W        W54292  37.400  25.094  11.559
94856W        W54293  28.968   5.268   3.220
94857W        W54294   0.839  40.913  10.428
94858W        W54295  34.089  10.863   0.759
94859W        W54296  21.198  20.527  13.897
94860W        W54297  18.108  41.459   1.370
94861W        W54298  30.467  26.589  10.528
94862W        W54299  24.623  32.976  10.516
94863W        W54300  11.263  21.648  10.582
94864W        W54301  36.854  14.780   1.795
94865W        W54302   8.358  30.941  12.411
94866W        W54303   1.787  39.359  11.428
94867W        W54304  39.896  40.834   2.813
94868W        W54305  34.101  33.611  12.484
94869W        W54306  26.147  28.591   0.881
94870W        W54307  13.693  15.090   2.338
94871W        W54308  29.956  19.636   1.308
94872W        W54309  25.142  36.949   1.225
94873W        W54310   6.677  26.089   2.762
94874W        W54311  43.478  15.577   3.753
94875W        W54312  22.645   1.405  12.365
94876W        W54313  39.499   1.439  12.986
94877W        W54314  39.812   3.727   2.417
94878W        W54315  18.053  14.181  12.982
94879W        W54316  11.270   3.293   3.197
94880W        W54317  22.690   4.235  10.923
94881W        W54318   5.867  30.104   2.336
94882W        W54319  11.779   8.402   4.261
94883W        W54320   6.824  23.671   3.749
94884W        W54321   9.767  23.164  11.385
94885W        W54322  27.983   4.900   5.189
94886W        W54323  12.163   7.823   1.862
94887W        W54324   2.247  25.623   2.342
94888W        W54325   8.775  41.341   3.834
94889W        W54326  16.113  33.451  12.825
94890W        W54327  37.019  28.652   4.612
94891W        W54328   6.707  36.382   0.346
94892W        W54329  44.850  31.033   2.886
94893W        W54330   6.201  35.381  12.044
94894W        W54331  34.432  18.075  10.483
94895W        W54332  28.006  29.081  13.008
94896W        W54333   8.304  11.838  13.956
94897W        W54334  41.343   8.171   3.160
94898W        W54335  34.437  22.135  14.902
94899W        W54336  23.993  13.165  12.463
94900W        W54337  13.142  22.103   1.866
94901W        W54338   0.844   3.451  12.850
94902W        W54339  13.247  44.890   2.242
94903W        W54340  18.089  33.968  11.946
94904W        W54341   8.785   5.416  13.927
94905W        W54342  24.165  18.072   0.336
94906W        W54343  10.638  14.331   4.758
94907W        W54344  42.909  41.023   2.364
94908W        W54345   6.865   0.432   4.304
94909W        W54346   1.901  33.966   0.925
94910W        W54347  41.796  41.996   0.872
94911W        W54348  32.413  44.786  10.589
94912W        W54349  35.364  10.827   0.899
94913W        W54350  30.936  11.639  11.037
94914W        W54351  30.627  36.561   4.142
94915W        W54352   1.465  19.636  11.522
94916W        W54353  10.293   3.793   4.625
94917W        W54354   0.316  33.877  10.922
94918W        W54355  44.424  12.790   2.728
94919W        W54356  32.982  18.757  13.002
94920W        W54357  22.163   3.266   2.341
94921W        W54358  30.015  36.971  12.344
94922W        W54359  10.866   0.465   3.149
94923W        W54360  27.179  43.359  11.943
94924W        W54361  19.539  28.451   4.732
94925W        W54362   4.710   7.728  12.473
94926W        W54363   5.908  35.997  11.479
94927W        W54364   4.269   2.342   1.234
94928W        W54365  22.235  27.991  12.528
94929W        W54366   4.393  42.002  12.898
94930W        W54367  28.661  42.851  13.405
94931W        W54368  39.511  42.818  12.054
94932W        W54369  29.937  14.323  13.010
94933W        W54370  32.905   7.412  10.898
94934W        W54371   6.348  27.173  14.873
94935W        W54372  41.529  39.539   1.713
94936W        W54373  28.567   4.331  11.490
94937W        W54374  42.014  24.556   4.320
94938W        W54375  29.088  25.049  13.949
94939W        W54376  17.695  36.074   0.368
94940W        W54377  35.967  38.047   4.629
94941W        W54378  21.176  17.756  11.893
94942W        W54379  25.570  10.353  10.924
94943W        W54380  39.317  15.231  13.989
94944W        W54381  20.687  29.501  11.896
94945W        W54382  40.053  22.682  14.002
94946W        W54383  42.360  34.095  11.589
94947W        W54384  29.134  13.834   0.265
94948W        W54385  23.996  43.958   2.353
94949W        W54386   3.422  17.676  13.516
94950W        W54387  25.043  34.014  14.940
94951W        W54388  27.051   8.861   2.373
94952W        W54389   7.388   5.929  11.531
94953W        W54390  36.890   6.775   2.672
94954W        W54391   7.347   1.850  13.416
94955W        W54392  35.923  10.205   0.350
94956W        W54393   0.827  36.366   3.828
94957W        W54394  17.146   9.316   3.271
94958W        W54395  25.477   9.316  13.808
94959W        W54396  29.582  28.454   1.865
94960W        W54397   2.839   7.405   3.251
94961W        W54398  43.356   5.828   3.224
94962W        W54399   9.720  30.555  14.802
94963W        W54400  32.495  26.005  14.006
94964W        W54401  41.448  23.619   1.700
94965W        W54402   5.850  21.715  11.419
94966W        W54403  32.421  11.175  13.390
94967W        W54404  37.532   7.880   4.769
94968W        W54405  33.399  42.033   1.228
94969W        W54406  41.910  28.507   4.247
94970W        W54407  28.637  17.716  11.020
94971W        W54408  20.090  15.206   1.738
94972W        W54409  38.428   8.164   1.442
94973W        W54410   1.739  15.811   5.164
94974W        W54411   4.326  15.093  12.481
94975W        W54412  40.898  40.895   0.904
94976W        W54413  39.051  39.515   4.298
94977W        W54414  27.462  33.039  13.874
94978W        W54415   4.365  32.591  12.826
94979W        W54416  26.015  18.725  12.434
94980W        W54417  30.600  28.494  11.870
94981W        W54418   8.352   1.395  10.930
94982W        W54419  30.556  35.406   0.440
94983W        W54420   0.273  13.285   0.780
94984W        W54421  38.849  36.851   4.150
94985W        W54422  30.515  22.997  10.576
94986W        W54423  42.845   2.278  11.065
94987W        W54424  44.955  38.483   1.858
94988W        W54425   1.835   6.385   3.353
94989W        W54426  21.615   1.358   3.154
94990W        W54427   8.706  40.957  13.366
94991W        W54428   6.196  37.361  14.017
94992W        W54429   9.333  28.992  11.512
94993W        W54430  35.957   6.197  14.970
94994W        W54431  20.734   7.274  13.462
94995W        W54432  38.856  27.503  14.285
94996W        W54433  44.266  19.553  13.514
94997W        W54434  33.025  28.083   3.295
94998W        W54435   9.278  29.575   1.293
94999W        W54436  42.396  35.999   9.622
95000W        W54437  30.502  39.338   3.759
95001W        W54438  25.570  38.830   4.333
95002W        W54439  11.179  16.155   4.697
95003W        W54440  12.619  15.193   3.197
95004W        W54441  19.224  16.614  10.961
95005W        W54442  26.157  43.341   1.255
95006W        W54443  25.635  39.880   5.738
95007W        W54444  31.416  10.656   1.418
95008W        W54445  38.025  35.097   1.768
95009W        W54446  39.434  18.261  14.903
95010W        W54447  44.822   2.960   1.390
95011W        W54448  34.386  13.296  10.916
95012W        W54449  36.882  38.045  10.909
95013W        W54450   7.308   2.307   1.447
95014W        W54451  38.038  13.798   0.730
95015W        W54452  28.070  34.374  13.051
95016W        W54453  31.603   0.278   3.836
95017W        W54454  11.643  40.892  12.496
95018W        W54455  20.203  28.131  10.061
95019W        W54456  23.131   3.725  12.025
95020W        W54457  17.558  10.176   0.455
95021W        W54458  15.317  12.822   4.270
95022W        W54459  36.016  22.658   0.444
95023W        W54460  43.814  10.293  11.882
95024W        W54461  26.584  24.711   3.811
95025W        W54462  37.431  15.600   5.148
95026W        W54463   7.791  30.159  12.552
95027W        W54464  40.902  14.224  11.858
95028W        W54465  22.581  14.264   1.324
95029W        W54466  36.027  37.396  11.596
95030W        W54467   7.772  15.774  14.324
95031W        W54468  15.163  16.260   5.677
95032W        W54469  35.087  26.479  12.074
95033W        W54470  36.023  40.869   0.811
95034W        W54471  39.886  10.708   1.450
95035W        W54472  18.651  39.367  10.498
95036W        W54473  18.212   7.827   2.887
95037W        W54474  44.353  20.053   4.217
95038W        W54475  29.507  14.640  13.982
95039W        W54476   6.770  30.113   1.397
95040W        W54477   5.307  31.532   3.374
95041W        W54478  29.048  32.510  14.762
95042W        W54479  32.551  14.777   1.876
95043W        W54480  39.862  27.595  13.956
95044W        W54481  25.492  34.592   2.674
95045W        W54482  41.499  32.119   5.232
95046W        W54483   9.316  24.979   4.758
95047W        W54484  11.315   7.814   4.296
95048W        W54485  38.512  21.689   2.800
95049W        W54486  26.527  28.968   4.691
95050W        W54487  40.982  22.135  13.494
95051W        W54488   3.231   3.759   0.348
95052W        W54489  37.542  15.245   4.152
95053W        W54490  33.930   9.346  14.349
95054W        W54491  18.258   4.865  13.817
95055W        W54492  12.254  39.991   2.748
95056W        W54493  12.146  39.955   4.132
95057W        W54494   8.804  11.820   5.092
95058W        W54495  33.923  12.289   4.203
95059W        W54496   9.390  17.574  14.948
95060W        W54497  29.501  13.350   5.150
95061W        W54498  32.442  27.126  13.522
95062W        W54499  24.512  11.649  12.546
95063W        W54500  21.542  44.467  12.398
95064W        W54501  30.104  20.606  11.441
95065W        W54502  10.290  18.296   3.154
95066W        W54503  14.253  35.936   2.814
95067W        W54504  18.058  31.420  14.385
95068W        W54505  14.748  25.619  11.945
95069W        W54506  43.441  18.217   4.838
95070W        W54507  15.787   5.761   5.264
95071W        W54508   7.900  33.923   4.632
95072W        W54509  20.598  44.282   1.763
95073W        W54510  10.735  22.197  10.455
95074W        W54511   4.701   8.265   0.746
95075W        W54512  32.411   7.343  12.372
95076W        W54513  15.583  32.074  14.919
95077W        W54514   1.925  13.676  10.090
95078W        W54515  23.195  25.475   4.744
95079W        W54516  31.983   8.340  10.545
95080W        W54517   9.819  23.619  10.536
95081W        W54518  38.868  16.622   3.646
95082W        W54519  22.695   9.852  12.462
95083W        W54520  27.100  15.119  13.519
95084W        W54521  28.030  36.875   0.363
95085W        W54522  44.817  34.932  12.872
95086W        W54523  33.935  19.239   1.844
95087W        W54524  32.572  38.346   0.950
95088W        W54525  26.663  44.956   4.739
95089W        W54526  31.052   3.429  11.502
95090W        W54527   0.818  44.318   1.724
95091W        W54528  37.355  38.070  11.109
95092W        W54529  42.838  40.831   4.619
95093W        W54530  10.745  26.593  11.445
95094W        W54531  40.349  41.365   3.150
95095W        W54532  35.952  11.327   2.209
95096W        W54533  39.397  16.210   4.128
95097W        W54534  15.732  36.436  13.415
95098W        W54535   1.962  19.267   3.729
95099W        W54536  13.180  44.766  10.584
95100W        W54537   3.931  12.645   2.274
95101W        W54538  37.038  11.130  14.001
95102W        W54539   8.878  13.112  11.872
95103W        W54540   2.806  33.471   0.276
95104W        W54541  25.708  20.265  13.901
95105W        W54542   4.309   5.804  12.069
95106W        W54543  30.996   8.771   2.901
95107W        W54544  12.691  38.366   1.439
95108W        W54545   5.232  18.099  10.563
95109W        W54546  12.774  14.713   4.645
95110W        W54547  30.925   1.266  11.967
95111W        W54548  25.601  40.862  14.782
95112W        W54549  10.144  35.940  12.557
95113W        W54550  20.090  28.015   0.321
95114W        W54551   4.942  29.642   2.813
95115W        W54552   0.825  21.677   1.899
95116W        W54553  32.412  25.102  12.852
95117W        W54554  19.241  27.099   0.296
95118W        W54555  44.351   3.303   5.242
95119W        W54556  40.891  32.004  14.331
95120W        W54557   8.870  22.656   3.296
95121W        W54558  21.204  29.591   3.843
95122W        W54559   3.262   9.821   1.723
95123W        W54560  16.126  42.929  11.475
95124W        W54561  42.463  36.015  14.963
95125W        W54562  11.662   6.893  11.453
95126W        W54563  37.898  39.046  10.423
95127W        W54564  29.959   2.722   3.226
95128W        W54565  26.992  12.674   4.707
95129W        W54566   4.211  27.623   2.793
95130W        W54567  19.595  31.566  12.937
95131W        W54568  22.159  43.013   1.819
95132W        W54569  32.063  40.823  14.463
95133W        W54570  38.014  35.422   1.796
95134W        W54571   1.973   3.941   3.176
95135W        W54572  28.985  12.836  14.017
95136W        W54573   5.386  25.116  11.889
95137W        W54574  39.451  12.271   2.413
95138W        W54575   3.747  35.102   0.384
95139W        W54576  35.948  37.480  12.919
95140W        W54577  15.248  20.744  13.959
95141W        W54578  16.722  12.676   0.256
95142W        W54579  29.482   7.891   3.325
95143W        W54580   0.421  38.999  11.010
95144W        W54581  16.181   2.240   3.367
95145W        W54582  30.079  13.658  13.862
95146W        W54583  44.271  19.713  10.022
95147W        W54584  41.316  20.615   1.255
95148W        W54585  34.938  18.274  14.481
95149W        W54586  26.094  23.498   4.812
95150W        W54587   3.232  23.077  13.456
95151W        W54588  37.449   1.734  10.533
95152W        W54589  36.056   4.219  14.849
95153W        W54590  44.356  38.455  11.012
95154W        W54591  33.038  13.251   1.738
95155W        W54592   2.917  38.965  11.880
95156W        W54593   8.343  33.105  14.852
95157W        W54594  15.122  20.695  12.999
95158W        W54595  29.173   2.932  13.408
95159W        W54596   4.435  26.038  13.802
95160W        W54597  21.203  42.021   0.836
95161W        W54598  16.584  39.509   3.370
95162W        W54599  41.891   7.787   4.154
95163W        W54600  26.003  11.193   3.322
95164W        W54601  39.817  32.946  12.094
95165W        W54602   5.268  19.611   0.743
95166W        W54603  34.046  22.145   4.609
95167W        W54604   0.959  17.131  11.398
95168W        W54605  36.984  35.383  11.426
95169W        W54606  37.878  23.702  12.926
95170W        W54607  19.091   4.800   1.371
95171W        W54608  26.503  21.092   1.703
95172W        W54609   2.266  21.620   1.750
95173W        W54610  14.683  29.979  10.889
95174W        W54611  22.233  21.202  10.442
95175W        W54612  14.722  22.742   1.787
95176W        W54613  18.071   3.845   3.229
95177W        W54614  13.627  17.564  12.040
95178W        W54615  38.562  36.924  10.980
95179W        W54616  13.318  39.911   3.259
95180W        W54617  19.095  12.258  10.616
95181W        W54618   0.763  10.798  10.986
95182W        W54619   4.390  22.604  11.864
95183W        W54620  22.636  18.249   5.154
95184W        W54621  38.481  21.664   1.757
95185W        W54622  21.143   4.775  10.127
95186W        W54623  24.153  15.758  12.031
95187W        W54624  11.757  13.140  14.872
95188W        W54625  16.176  24.064  11.075
95189W        W54626  35.447  37.995  10.620
95190W        W54627  30.446   8.275   2.272
95191W        W54628  15.123  31.534   4.815
95192W        W54629  26.479  10.281   5.212
95193W        W54630  19.669  19.118  10.608
95194W        W54631  31.950  29.588   0.258
95195W        W54632  12.702  29.523   2.251
95196W        W54633  31.149   9.326   4.262
95197W        W54634  15.297  25.176   1.770
95198W        W54635  16.096  42.377   3.710
95199W        W54636  41.933  32.419   4.159
95200W        W54637  37.086  12.261   1.290
95201W        W54638  12.303  23.577  13.364
95202W        W54639  18.651  21.262  11.102
95203W        W54640   6.767  10.729  10.962
95204W        W54641   2.816  20.085   3.686
95205W        W54642  12.811  42.509  11.492
95206W        W54643  23.513  27.012  13.892
95207W        W54644  21.170  10.848   0.258
95208W        W54645  36.477  22.526  12.058
95209W        W54646  27.478  33.452  13.792
95210W        W54647  36.084   7.408  11.436
95211W        W54648  33.403  22.015   0.279
95212W        W54649  43.499  25.038   4.695
95213W        W54650  42.011   6.677  14.315
95214W        W54651  35.580  29.596  10.932
95215W        W54652  12.636  22.031  11.106
95216W        W54653  37.994  24.722  12.384
95217W        W54654  32.425   7.368  13.817
95218W        W54655  40.012  42.907   1.701
95219W        W54656  22.714   3.396  13.482
95220W        W54657  33.622   2.802  13.469
95221W        W54658  44.865  28.495  12.844
95222W        W54659  40.913  21.550  11.006
95223W        W54660  13.205  43.292   1.330
95224W        W54661  27.165  14.811  11.435
95225W        W54662  37.354  26.564  11.582
95226W        W54663   8.863  38.860   4.253
95227W        W54664  33.989   0.291  11.946
95228W        W54665  35.428  15.729  14.467
95229W        W54666  33.565  42.008  12.487
95230W        W54667  44.285  13.637   1.696
95231W        W54668  26.542  33.414  14.402
95232W        W54669  15.615  44.293  12.482
95233W        W54670  28.152  23.156   0.836
95234W        W54671  18.608  17.772   2.366
95235W        W54672  10.227  36.445  12.447
95236W        W54673  10.835  37.058   1.898
95237W        W54674  14.315  35.028  14.307
95238W        W54675  25.509  23.179  13.360
95239W        W54676   4.212  33.131   1.924
95240W        W54677  15.752   3.754   2.876
95241W        W54678  14.831  27.041  14.472
95242W        W54679  41.901  29.136  11.121
95243W        W54680   0.796  40.808   1.359
95244W        W54681  41.518  20.762  12.386
95245W        W54682   1.814  34.090   1.445
95246W        W54683  27.129  11.307  14.819
95247W        W54684  18.734  30.495   1.316
95248W        W54685  12.225  10.190   4.703
95249W        W54686  39.982  41.407   2.839
95250W        W54687  31.447   5.769  14.994
95251W        W54688  19.720   6.346  11.575
95252W        W54689  14.235  37.930   0.811
95253W        W54690  18.742  26.052   0.938
95254W        W54691  25.683  35.584   1.394
95255W        W54692  26.578  23.692   4.776
95256W        W54693  13.135  31.917   3.642
95257W        W54694  25.516  43.367  10.105
95258W        W54695  22.998   7.910  10.566
95259W        W54696  37.954  40.894  14.285
95260W        W54697  13.607  39.389  11.872
95261W        W54698  15.619  40.347   2.235
95262W        W54699  36.904  32.614   0.802
95263W        W54700  14.750  17.273  13.051
95264W        W54701  26.628  14.250   3.186
95265W        W54702  10.272  14.307  12.835
95266W        W54703  10.745  20.692   1.391
95267W        W54704  28.462  37.863   1.913
95268W        W54705  33.126  10.182   1.390
95269W        W54706  16.685  35.502   2.382
95270W        W54707  14.649  29.920  12.389
95271W        W54708  30.455  13.744   2.347
95272W        W54709  25.150  12.737  13.976
95273W        W54710  44.912  21.018  11.046
95274W        W54711  37.030  11.623  12.993
95275W        W54712   3.817  12.210   1.434
95276W        W54713  12.626  14.606   2.680
95277W        W54714  33.395  43.401   2.799
95278W        W54715  28.174  26.990   3.651
95279W        W54716  37.403  26.954  10.575
95280W        W54717  22.044   4.228   4.205
95281W        W54718  40.394   1.320  14.348
95282W        W54719  43.409  37.438  12.873
95283W        W54720  15.200  13.307   1.396
95284W        W54721  13.152  10.159   1.337
95285W        W54722  21.052  42.303  11.412
95286W        W54723  41.942  11.360   4.324
95287W        W54724  15.765  14.682   2.727
95288W        W54725   5.718   3.350  12.381
95289W        W54726  30.440  24.073  13.897
95290W        W54727  15.807  29.130  12.565
95291W        W54728  27.582  38.026  11.598
95292W        W54729  33.992  41.841   3.791
95293W        W54730   7.324   9.338  14.958
95294W        W54731  38.905   2.950   1.216
95295W        W54732   3.284  30.569   0.247
95296W        W54733  44.422  26.982   0.422
95297W        W54734  13.240  43.838  14.985
95298W        W54735  23.037  32.521  14.024
95299W        W54736  13.660  31.450   2.312
95300W        W54737  34.916  31.078  11.567
95301W        W54738  38.931  18.633  11.381
95302W        W54739  28.161  16.655   2.339
95303W        W54740   6.876  33.053  11.581
95304W        W54741  10.644  17.789   4.341
95305W        W54742  13.756  35.892   3.824
95306W        W54743  35.446  33.026  13.792
95307W        W54744  10.860  16.668   3.219
95308W        W54745  16.772  41.386   1.444
95309W        W54746   2.855  22.134  12.950
95310W        W54747  15.115  19.185  13.406
95311W        W54748  43.411  15.604   4.707
95312W        W54749   3.251  18.576  14.937
95313W        W54750   4.740  40.422   0.374
95314W        W54751   0.406   6.348   4.625
95315W        W54752  36.486  13.209  14.991
95316W        W54753  39.060  22.073  10.489
95317W        W54754  20.118   4.736  14.445
95318W        W54755  13.159  34.542  14.926
95319W        W54756  11.680   0.823   0.287
95320W        W54757  12.650  30.161   2.418
95321W        W54758  22.153  23.699  13.998
95322W        W54759  21.695  31.611   3.869
95323W        W54760  33.977  32.115   4.183
95324W        W54761   7.194   4.851   4.303
95325W        W54762  19.039  36.909  13.016
95326W        W54763  19.646  15.103  10.152
95327W        W54764  12.124  14.632  13.942
95328W        W54765  31.952  41.930   1.377
95329W        W54766  35.924  30.611   4.722
95330W        W54767   7.777  37.470   0.271
95331W        W54768  10.748  15.587  13.545
95332W        W54769  36.572   5.301   3.341
95333W        W54770  22.225  41.789   2.766
95334W        W54771  37.388  29.022   4.668
95335W        W54772   9.306  37.399   4.235
95336W        W54773   7.774  21.241   0.361
95337W        W54774  31.923  12.362  13.821
95338W        W54775  30.162  10.765   3.268
95339W        W54776   2.413  29.603   3.634
95340W        W54777  20.177  42.842   3.861
95341W        W54778  10.253  32.608   3.265
95342W        W54779  13.279   3.386  12.939
95343W        W54780  20.045  41.862   2.712
95344W        W54781  10.258  33.416  11.940
95345W        W54782  12.733   9.158  14.764
95346W        W54783  43.466   1.916  12.390
95347W        W54784  10.799  37.449  12.580
95348W        W54785  16.758  38.325  13.365
95349W        W54786  18.674  12.276   4.257
95350W        W54787  21.718   0.452  13.830
95351W        W54788   2.816  25.136  11.565
95352W        W54789   0.791   0.276   3.748
95353W        W54790  13.301  14.210  10.041
95354W        W54791   2.785   5.823  13.928
95355W        W54792  40.903  21.185  13.410
95356W        W54793  12.169  23.510  10.625
95357W        W54794   9.687   6.299   4.334
95358W        W54795  38.012  24.160  11.542
95359W        W54796  26.142   9.358  13.387
95360W        W54797   7.335  38.456   2.413
95361W        W54798   3.283   2.433  10.532
95362W        W54799   4.709  37.366  12.550
95363W        W54800   5.848  11.260  14.787
95364W        W54801  19.683  36.469   1.848
95365W        W54802  40.396   1.808   1.913
95366W        W54803  38.332  26.596   1.884
95367W        W54804  15.297  25.006  12.399
95368W        W54805  10.196  19.051   4.617
95369W        W54806   0.961   3.774  12.421
95370W        W54807   7.349  19.162   0.891
95371W        W54808  11.818   1.800   3.154
95372W        W54809  37.365   3.872  14.506
95373W        W54810  11.283  37.433   0.265
95374W        W54811  30.002  42.459  10.453
95375W        W54812  37.360  42.421   4.121
95376W        W54813  35.019   0.412  12.365
95377W        W54814   2.240   5.802   0.843
95378W        W54815  13.650   0.322  11.022
95379W        W54816  24.711   7.729   4.830
95380W        W54817  12.617  41.901  10.593
95381W        W54818  44.978  38.502  13.814
95382W        W54819  15.265  32.016   0.930
95383W        W54820  41.370  43.418  11.474
95384W        W54821  36.005  19.746  12.030
95385W        W54822  15.210  23.505  14.966
95386W        W54823  35.083  30.460   1.918
95387W        W54824  15.674  10.375  13.807
95388W        W54825  37.980  33.120  13.352
95389W        W54826  37.846  38.570  10.907
95390W        W54827  10.225  28.973   1.717
95391W        W54828  10.281  43.764  12.480
95392W        W54829   9.864  31.008  11.443
95393W        W54830  17.615  23.009   2.788
95394W        W54831  39.982   5.812  10.559
95395W        W54832   9.820   3.460   0.328
95396W        W54833  21.085  20.210   1.892
95397W        W54834   8.813   2.272  12.429
95398W        W54835  32.634  35.372  11.053
95399W        W54836  17.699  14.146  14.902
95400W        W54837  30.948  44.490   0.243
95401W        W54838  11.718  40.048  11.122
95402W        W54839  32.407   7.890   2.789
95403W        W54840  11.349   4.282   4.607
95404W        W54841  13.683  43.361   3.206
95405W        W54842  18.079  32.925  12.437
95406W        W54843  39.988  28.972  14.401
95407W        W54844  35.862  31.522   1.285
95408W        W54845  40.540  10.642  11.030
95409W        W54846  43.895  18.282  14.762
95410W        W54847  42.801  34.947   2.261
95411W        W54848  44.470   8.881  11.928
95412W        W54849  20.660   1.405   4.253
95413W        W54850  30.120  42.032  13.400
95414W        W54851   5.434  10.705   0.786
95415W        W54852  23.593  24.588   0.325
95416W        W54853  34.538  44.888   3.148
95417W        W54854  11.327  33.454  14.463
95418W        W54855  24.701   2.227  13.921
95419W        W54856  30.447  12.342   0.338
95420W        W54857  19.636  34.448   2.856
95421W        W54858  20.566   4.327  14.803
95422W        W54859  29.954  34.031   3.652
95423W        W54860  21.614  29.502   0.924
95424W        W54861  23.063   4.939   4.827
95425W        W54862  39.455  26.093  11.557
95426W        W54863  18.197  10.333   1.817
95427W        W54864  18.686  33.399   1.288
95428W        W54865  43.299  39.331   2.839
95429W        W54866   8.853  14.762   2.693
95430W        W54867  44.339  15.757   4.143
95431W        W54868  34.863  37.054  10.888
95432W        W54869  40.411  29.610   1.808
95433W        W54870  43.883  39.015  12.397
95434W        W54871  28.021   6.902  12.072
95435W        W54872  33.030  43.790  11.545
95436W        W54873  21.750  33.066   4.680
95437W        W54874  38.837  13.800   2.886
95438W        W54875  35.557  17.749  14.832
95439W        W54876  26.091   7.809  14.411
95440W        W54877   6.922  21.736   2.820
95441W        W54878  39.041   4.286  11.934
95442W        W54879  35.570  10.319   1.217
95443W        W54880  34.051  37.540   9.979
95444W        W54881  35.423   6.195   4.773
95445W        W54882   5.317   1.459   1.227
95446W        W54883  44.965  20.560   0.761
95447W        W54884  13.306  17.189  11.539
95448W        W54885  10.636  30.910  12.579
95449W        W54886  15.671  10.228   4.176
95450W        W54887  41.376  19.602   2.720
95451W        W54888   3.276  14.690   4.154
95452W        W54889  21.635  27.992  10.904
95453W        W54890   4.215  35.449  10.918
95454W        W54891  36.049  38.972   0.402
95455W        W54892   9.790  14.686   3.192
95456W        W54893  32.113  21.645   1.831
95457W        W54894  18.701  21.697  12.499
95458W        W54895  14.603  25.025  10.548
95459W        W54896  20.142   4.803   1.346
95460W        W54897  39.513   3.933   2.784
95461W        W54898  41.810  34.867   2.398
95462W        W54899  18.061   5.818  13.897
95463W        W54900  33.512  35.462   3.776
95464W        W54901  10.347  14.724   2.846
95465W        W54902  19.611  44.780  14.984
95466W        W54903  41.400  14.597   1.297
95467W        W54904  31.408  30.075  13.027
95468W        W54905  23.053  27.944  12.348
95469W        W54906  19.085  38.982   2.823
95470W        W54907  34.068   1.239   4.597
95471W        W54908   9.677  11.271   1.423
95472W        W54909   6.209  14.162  12.876
95473W        W54910   2.962  17.069  14.881
95474W        W54911  28.952  36.955   2.812
95475W        W54912   1.281  24.115  13.979
95476W        W54913  33.618  41.404  11.567
95477W        W54914  18.216  37.955   3.744
95478W        W54915  27.675  39.060   1.384
95479W        W54916  13.650  18.221  10.478
95480W        W54917  44.892   1.461  10.962
95481W        W54918  19.739   7.780   4.820
95482W        W54919   4.346  16.110   1.394
95483W        W54920  10.279  13.185  11.096
95484W        W54921  27.011  12.117  11.562
95485W        W54922  29.578   5.815  13.047
95486W        W54923  39.491  35.960  12.464
95487W        W54924   7.298  39.553  11.972
95488W        W54925   6.351   2.411  11.941
95489W        W54926  12.682  24.034   1.712
95490W        W54927   6.767   8.406   2.415
95491W        W54928  26.592  40.018  12.061
95492W        W54929  20.728   9.677   4.138
95493W        W54930  43.490  24.723  12.449
95494W        W54931  21.022  26.084   2.800
95495W        W54932  13.679   4.431   2.185
95496W        W54933  12.177  21.121   0.383
95497W        W54934  32.393  43.968   2.411
95498W        W54935   3.718   5.243  12.441
95499W        W54936  32.622  39.426   0.760
95500W        W54937  25.597   0.366   4.113
95501W        W54938  41.033  21.023   1.841
95502W        W54939   1.858  15.700   0.871
95503W        W54940   4.724  29.666  13.541
95504W        W54941  34.104  24.042   4.297
95505W        W54942  41.885   7.233  12.942
95506W        W54943  11.838   3.800   4.838
95507W        W54944   4.224  41.462  12.007
95508W        W54945  35.434  34.530   0.887
95509W        W54946  38.871  34.599  11.985
95510W        W54947  34.442  15.091  11.565
95511W        W54948  29.999  34.473  14.440
95512W        W54949   9.682  37.493  11.374
95513W        W54950  10.242  36.034  12.069
95514W        W54951  44.396   2.299   3.320
95515W        W54952  23.713   4.401   1.224
95516W        W54953  16.130   0.934  10.984
95517W        W54954   3.773   4.740   0.407
95518W        W54955   6.274  15.270   2.787
95519W        W54956  10.795  29.975   0.387
95520W        W54957  30.652  10.167   2.700
95521W        W54958  34.929  33.947  12.354
95522W        W54959  38.351  31.612   3.229
95523W        W54960  32.589  27.041   2.675
95524W        W54961   7.910  17.714  12.025
95525W        W54962  38.526   8.232  10.902
95526W        W54963  12.329  44.964   4.249
95527W        W54964   4.204  21.136  11.567
95528W        W54965  37.349  25.497  14.862
95529W        W54966  43.827  27.146   3.775
95530W        W54967  31.505  15.595  14.898
95531W        W54968   1.759  35.983   1.379
95532W        W54969   5.802   6.378   2.301
95533W        W54970   8.739  32.965   1.811
95534W        W54971  33.383  18.621  14.513
95535W        W54972  33.053  25.512   3.751
95536W        W54973   1.774   1.334   0.879
95537W        W54974  22.197  26.966  11.469
95538W        W54975  36.365  15.624  13.477
95539W        W54976   7.884  19.660  14.887
95540W        W54977  40.991   2.961   3.635
95541W        W54978  27.512  15.766  11.418
95542W        W54979  28.571   0.893   4.345
95543W        W54980  33.544  29.120   4.660
95544W        W54981  12.640  43.869   0.401
95545W        W54982  34.510   9.864  14.769
95546W        W54983  17.144   0.474  14.420
95547W        W54984  30.056   6.363   2.386
95548W        W54985  18.145  24.097  12.361
95549W        W54986  32.072  35.597  13.479
95550W        W54987  41.804  14.776   3.726
95551W        W54988  13.157   5.899  14.313
95552W        W54989   4.767  40.534   3.795
95553W        W54990  33.913  16.784  13.053
95554W        W54991   1.328  30.909  12.858
95555W        W54992  30.552  21.261   1.697
95556W        W54993   0.856  18.749   0.855
95557W        W54994  12.166  21.522  10.587
95558W        W54995  26.171   8.877  12.468
95559W        W54996  12.263  20.197  13.036
95560W        W54997  28.455  29.101  11.993
95561W        W54998   2.300  26.541   2.398
95562W        W54999  41.874  19.061  13.412
95563W        W55000  40.429   5.249  12.435
95564W        W55001   7.276  39.448   2.689
95565W        W55002   3.782   4.808   3.664
95566W        W55003  11.833  12.330  10.982
95567W        W55004  25.103  29.495  14.502
95568W        W55005  26.465  43.811  10.539
95569W        W55006   3.719  40.027  12.978
95570W        W55007  34.394   8.243  14.835
95571W        W55008  33.129  32.012   2.890
95572W        W55009  37.997   7.791  14.858
95573W        W55010  28.992  24.480   4.123
95574W        W55011  12.648   4.933  12.348
95575W        W55012   7.729  20.618   2.857
95576W        W55013  35.882  31.103  14.362
95577W        W55014   1.836  10.305   2.877
95578W        W55015  33.379  24.701   0.322
95579W        W55016  31.130   1.450   0.265
95580W        W55017  41.369  37.474  11.883
95581W        W55018  11.761  20.692  13.526
95582W        W55019  10.178  39.023   2.665
95583W        W55020  28.966  41.482  10.930
95584W        W55021  35.925  27.075  12.522
95585W        W55022  23.516  43.997  14.422
95586W        W55023   2.771  11.748   3.721
95587W        W55024   6.856  33.086   4.130
95588W        W55025  15.252  30.568  11.879
95589W        W55026  14.309   2.925  10.982
95590W        W55027   7.896  44.962  14.859
95591W        W55028  31.624  40.053   2.254
95592W        W55029  21.519  34.615   3.714
95593W        W55030  27.942   2.230  11.499
95594W        W55031  38.076  21.527   0.357
95595W        W55032  14.279   8.218   3.331
95596W        W55033  36.945   7.377   0.900
95597W        W55034   6.829  20.675   1.924
95598W        W55035  16.615  11.246   3.173
95599W        W55036  19.729  22.147   3.833
95600W        W55037   1.799  13.168   1.361
95601W        W55038   9.346  17.139   3.772
95602W        W55039  19.169  19.216   2.709
95603W        W55040  23.077  33.625  12.424
95604W        W55041   7.723  24.058   3.644
95605W        W55042   2.424  24.057  13.535
95606W        W55043  41.893  37.936   4.321
95607W        W55044   6.838   7.335  14.485
95608W        W55045  31.438  25.181  12.556
95609W        W55046   3.345  40.469   2.819
95610W        W55047  40.535   6.360   1.427
95611W        W55048  22.623   7.840   2.243
95612W        W55049  11.715   9.342  11.979
95613W        W55050  17.597  38.349   3.280
95614W        W55051  19.202  18.613  11.538
95615W        W55052  28.133  30.620   5.102
95616W        W55053  26.099  32.031   0.344
95617W        W55054   1.336  33.027  12.893
95618W        W55055  14.289   1.973   2.757
95619W        W55056  39.037  40.403  13.982
95620W        W55057   6.775  25.669  13.325
95621W        W55058   3.295   3.804  14.489
95622W        W55059  29.453  37.356   2.711
95623W        W55060   5.912  28.453  12.886
95624W        W55061  22.637  25.128   2.792
95625W        W55062   9.805  42.485   4.639
95626W        W55063  12.810   6.871  13.464
95627W        W55064  42.431   8.306   2.785
95628W        W55065   4.224  11.851   2.816
95629W        W55066  13.818  14.698  11.960
95630W        W55067  31.120  43.307  14.459
95631W        W55068  40.509  44.417   0.905
95632W        W55069  17.766  42.938  10.537
95633W        W55070   5.713  10.642  14.445
95634W        W55071  15.259  44.953  13.359
95635W        W55072   2.852  30.556  12.870
95636W        W55073  44.373  27.692  10.049
95637W        W55074  31.082  28.944  12.417
95638W        W55075  12.248  30.578  11.046
95639W        W55076  30.650  24.039  11.916
95640W        W55077  36.534  42.780  14.889
95641W        W55078  26.118  20.104   0.749
95642W        W55079  41.515  40.331   3.329
95643W        W55080  39.848  40.463   0.319
95644W        W55081  20.721  33.542   0.337
95645W        W55082  42.321  39.408  12.473
95646W        W55083  29.958  19.722  12.926
95647W        W55084  14.230   1.410  11.072
95648W        W55085  16.204   2.829   2.860
95649W        W55086   8.287  25.638   2.359
95650W        W55087  34.431  33.021   3.678
95651W        W55088  28.939  39.362   2.341
95652W        W55089  23.239  35.453  11.863
95653W        W55090  32.107  42.374   2.897
95654W        W55091  36.012  23.568  10.892
95655W        W55092  20.714  23.513   0.475
95656W        W55093  17.236  42.504   5.246
95657W        W55094   1.910  37.369   4.741
95658W        W55095  26.129  38.542   2.399
95659W        W55096  37.869  14.166  10.582
95660W        W55097  38.876  34.535  13.420
95661W        W55098   9.194  44.387   2.876
95662W        W55099  43.378  41.934   1.353
95663W        W55100   3.721  32.091  10.582
95664W        W55101  19.760  33.060   3.335
95665W        W55102  40.425   3.434  13.381
95666W        W55103  43.270   0.326   1.860
95667W        W55104   3.433  16.713   2.345
95668W        W55105   8.236  22.043   0.787
95669W        W55106  39.014  40.400   3.642
95670W        W55107  18.731  13.149   2.344
95671W        W55108   4.204  38.968   3.176
95672W        W55109  33.611  24.078   9.625
95673W        W55110  12.737   7.825   1.243
95674W        W55111   9.772  36.848   0.371
95675W        W55112  30.526  20.141  10.605
95676W        W55113  29.959   7.391  12.032
95677W        W55114  30.454  25.203  10.492
95678W        W55115  23.159   7.266  10.524
95679W        W55116  41.311   9.749   3.323
95680W        W55117  19.122  24.155  13.947
95681W        W55118  28.607  19.136  14.406
95682W        W55119  36.520  32.614  14.448
95683W        W55120  40.800  32.953   0.743
95684W        W55121  26.675  15.810  12.387
95685W        W55122  39.345  40.500   4.243
95686W        W55123   7.196  12.226   1.301
95687W        W55124  12.775  36.484   4.334
95688W        W55125   9.746  24.702  12.827
95689W        W55126  35.881  23.113   3.665
95690W        W55127  28.970  25.178   4.334
95691W        W55128  37.896  35.948   0.829
95692W        W55129  12.831  28.621   0.439
95693W        W55130  41.786  31.522  13.530
95694W        W55131  44.261   3.820   1.256
95695W        W55132  14.153   8.318   4.601
95696W        W55133   6.237  14.247   2.781
95697W        W55134  23.097   7.702  11.982
95698W        W55135   5.762  44.896   1.812
95699W        W55136   1.242  42.460   2.313
95700W        W55137  18.616  24.555   1.434
95701W        W55138  20.731  38.532   1.441
95702W        W55139  41.450  37.582  11.547
95703W        W55140  19.542  29.553   1.288
95704W        W55141  28.436  25.163   4.812
95705W        W55142   2.775  35.601  12.536
95706W        W55143  18.715  36.390  12.453
95707W        W55144  37.898  28.010  12.073
95708W        W55145   8.355  20.720   1.374
95709W        W55146  12.673   7.399   2.801
95710W        W55147  13.773  24.709  11.858
95711W        W55148  40.961  16.162  14.350
95712W        W55149   0.394  29.521   3.312
95713W        W55150  37.573  19.148  11.930
95714W        W55151  32.569  41.841  13.471
95715W        W55152  24.193  14.337  11.539
95716W        W55153  24.714  37.003   3.754
95717W        W55154  22.636  10.697  12.542
95718W        W55155  37.034  19.205  12.876
95719W        W55156  35.449  16.087   3.275
95720W        W55157  18.140  22.526  11.103
95721W        W55158  28.014  12.302  14.768
95722W        W55159   2.269  24.025   2.704
95723W        W55160   2.363  22.741   2.888
95724W        W55161   1.475  18.276   2.351
95725W        W55162  10.677  17.253   3.813
95726W        W55163  43.318   6.793  12.426
95727W        W55164  24.588   1.879   0.319
95728W        W55165  28.475  20.257  10.478
95729W        W55166  11.686   8.240   2.189
95730W        W55167  20.697   2.334  11.574
95731W        W55168  43.285   0.365   2.403
95732W        W55169  44.910  32.020   0.901
95733W        W55170  32.565  36.359   4.748
95734W        W55171  38.869  38.505  10.904
95735W        W55172   3.795  12.659  14.985
95736W        W55173   4.833  14.114   2.359
95737W        W55174  42.025  29.557   0.821
95738W        W55175  30.994  10.851  12.941
95739W        W55176  23.984  17.293  10.543
95740W        W55177  12.716  24.224  12.003
95741W        W55178  31.948  30.484  12.054
95742W        W55179  11.812  40.963   1.700
95743W        W55180  28.094   1.788  14.363
95744W        W55181  29.485  43.887  11.885
95745W        W55182  11.291  27.948  12.551
95746W        W55183  15.604  25.074   3.366
95747W        W55184   8.804  44.333  10.534
95748W        W55185  28.571   9.784  12.434
95749W        W55186  44.002  41.403   3.744
95750W        W55187  43.805  32.404   0.806
95751W        W55188   1.918   5.800  13.971
95752W        W55189  18.748  26.555  11.064
95753W        W55190   3.816  30.105   1.358
95754W        W55191  16.255   4.341  14.302
95755W        W55192  16.221  24.630   4.697
95756W        W55193  44.811   5.260   1.740
95757W        W55194  26.091  37.023   1.834
95758W        W55195  32.028  20.246  14.834
95759W        W55196  44.408   9.804  12.541
95760W        W55197  17.641  15.646   1.434
95761W        W55198   5.716   9.700   4.288
95762W        W55199  35.555  14.609   4.148
95763W        W55200  25.565   1.759  14.912
95764W        W55201   4.242  33.131  14.508
95765W        W55202  30.079   1.831  13.525
95766W        W55203  43.510  24.484   2.703
95767W        W55204   2.460  30.435  10.059
95768W        W55205  20.058  24.125   0.318
95769W        W55206   3.831  10.360   0.808
95770W        W55207  28.603  34.066  11.892
95771W        W55208  17.776   0.921  12.028
95772W        W55209  23.576   8.355   2.792
95773W        W55210  43.475  27.548  12.544
95774W        W55211  21.027   9.329  14.463
95775W        W55212  25.217   6.905  13.316
95776W        W55213  29.954   5.768   2.854
95777W        W55214   0.458   2.366  14.465
95778W        W55215  10.781  30.567   3.838
95779W        W55216  39.995  33.621   3.752
95780W        W55217  36.000  40.494   3.352
95781W        W55218  21.653  43.422  11.031
95782W        W55219  21.529  41.492  12.571
95783W        W55220  37.861  40.011  13.449
95784W        W55221  21.132  17.171   5.738
95785W        W55222  10.742   8.798  11.075
95786W        W55223  20.691  27.536  13.470
95787W        W55224   7.403   7.758   2.302
95788W        W55225  42.874  15.615  14.858
95789W        W55226  41.531  19.692   3.289
95790W        W55227  31.414  41.328  12.859
95791W        W55228  23.001  43.391  12.058
95792W        W55229  21.603  12.245   1.289
95793W        W55230  10.795   3.277   2.894
95794W        W55231  40.053  24.651   1.411
95795W        W55232  13.797  11.778  12.542
95796W        W55233  21.119  23.614   0.310
95797W        W55234  22.503  39.411  14.761
95798W        W55235  28.113   4.938  12.526
95799W        W55236  31.994  41.492  14.478
95800W        W55237  41.305  27.100  13.451
95801W        W55238  18.675  38.378   4.233
95802W        W55239  28.462  26.692   3.354
95803W        W55240  17.063  31.099  11.038
95804W        W55241  36.852  34.957  12.562
95805W        W55242  33.888   5.258   1.782
95806W        W55243  39.447  29.161  11.018
95807W        W55244  38.512  31.586  12.887
95808W        W55245  44.997  27.116   4.322
95809W        W55246   1.932  35.468   3.711
95810W        W55247  13.612   7.769   1.858
95811W        W55248  27.151  42.876   3.647
95812W        W55249  36.406  26.036   2.806
95813W        W55250  11.700  22.044  12.352
95814W        W55251  31.527  22.118   4.702
95815W        W55252  40.471   9.888   4.712
95816W        W55253   4.287   0.762   0.477
95817W        W55254  41.401  16.156  13.911
95818W        W55255  31.094   1.868   1.783
95819W        W55256  33.477  17.208  12.885
95820W        W55257  23.062  22.116   3.330
95821W        W55258  32.036   7.699   1.450
95822W        W55259  37.352  33.492   5.161
95823W        W55260  33.456  18.287   5.165
95824W        W55261  12.284  19.141  10.898
95825W        W55262  36.001  16.199  12.551
95826W        W55263  15.191  44.414  13.838
95827W        W55264  27.100  10.864   1.372
95828W        W55265  29.925   2.737   0.265
95829W        W55266  40.328  34.541  14.502
95830W        W55267  23.226  38.502   1.225
95831W        W55268   6.700  33.895   3.630
95832W        W55269  14.703  38.408   1.398
95833W        W55270  38.474   1.752   0.876
95834W        W55271  14.707  33.040  12.983
95835W        W55272   2.766  33.550  11.975
95836W        W55273  19.087   2.788  13.799
95837W        W55274  38.368   7.836  10.475
95838W        W55275   4.323  14.223  12.482
95839W        W55276  14.222  22.041   2.733
95840W        W55277  14.223  40.802   2.754
95841W        W55278  14.617   9.749  11.542
95842W        W55279  38.999  33.621   1.310
95843W        W55280  12.759  36.060   0.242
95844W        W55281  29.565   3.235  14.867
95845W        W55282  36.530   8.701   1.224
95846W        W55283  13.666  35.999  12.043
95847W        W55284  35.545   4.722   4.300
95848W        W55285  44.497   6.349   2.900
95849W        W55286   8.256  42.491   4.661
95850W        W55287  11.275  13.648  14.820
95851W        W55288  19.171  44.008   5.236
95852W        W55289  27.603  34.018  11.989
95853W        W55290  31.908  10.363   4.215
95854W        W55291  31.563   5.412   3.729
95855W        W55292  40.893  34.517  10.925
95856W        W55293  20.269  19.104   2.319
95857W        W55294  14.188  13.105  11.372
95858W        W55295  20.256   7.253  10.638
95859W        W55296   8.728  28.165   1.892
95860W        W55297  21.138   1.369  10.526
95861W        W55298  36.427  39.340  11.871
95862W        W55299  12.213  15.280   4.114
95863W        W55300  17.655  38.364  12.921
95864W        W55301  34.864  16.244   0.875
95865W        W55302  10.312   1.344   4.631
95866W        W55303  20.645  18.062  14.477
95867W        W55304  19.236  24.651   0.275
95868W        W55305  25.008   2.304  14.433
95869W        W55306  10.380  15.112  10.977
95870W        W55307   9.304  20.195   0.946
95871W        W55308  14.184   9.835   3.349
95872W        W55309  37.501  20.768  12.362
95873W        W55310  19.656  44.336   4.333
95874W        W55311  40.474   9.314  10.912
95875W        W55312  21.072  28.072   1.826
95876W        W55313  41.809  32.633  13.880
95877W        W55314  24.132  43.965   0.929
95878W        W55315  17.232  19.740  13.981
95879W        W55316   4.810  14.206  13.036
95880W        W55317  39.334   6.257  12.444
95881W        W55318  19.128  44.474  13.848
95882W        W55319  33.621  34.377   1.303
95883W        W55320  37.540   0.957  12.427
95884W        W55321  43.472   5.808  10.898
95885W        W55322  24.600   2.449  13.343
95886W        W55323  32.927  28.048  10.548
95887W        W55324  38.370  24.671   2.272
95888W        W55325   8.837   1.336   0.849
95889W        W55326  31.132  13.239  11.560
95890W        W55327  38.903  14.624   3.348
95891W        W55328  22.692  42.296   4.185
95892W        W55329   6.190  40.494  13.391
95893W        W55330  36.524  27.683  11.540
95894W        W55331   1.336  44.415  12.049
95895W        W55332  18.547  21.147   2.226
95896W        W55333  12.346   5.813   3.317
95897W        W55334  13.651  32.890  11.919
95898W        W55335  15.298  25.058   0.335
95899W        W55336  25.963  30.946   3.262
95900W        W55337  39.046  27.985  13.035
95901W        W55338  24.543  13.165   3.766
95902W        W55339  27.689   8.780   3.693
95903W        W55340  17.588  25.167  14.364
95904W        W55341  28.078  39.335   1.325
95905W        W55342  40.498   4.869   0.940
95906W        W55343  40.914  22.520   0.882
95907W        W55344  40.826  19.109  10.572
95908W        W55345  14.198  20.697  14.764
95909W        W55346   2.242  43.311  10.543
95910W        W55347  41.979  11.748   5.281
95911W        W55348  13.319   9.709  13.840
95912W        W55349  21.682  15.145  14.899
95913W        W55350  25.067  37.429   4.697
95914W        W55351  13.321   0.880  12.502
95915W        W55352   5.293  11.284   0.794
95916W        W55353  20.120  10.158   1.245
95917W        W55354  12.170  29.534  12.903
95918W        W55355  15.294  15.620   0.898
95919W        W55356  40.956   1.410   4.224
95920W        W55357  15.114   5.302   1.816
95921W        W55358  40.401  18.172   1.800
95922W        W55359  31.409  17.222  13.802
95923W        W55360  31.085  13.301   1.444
95924W        W55361  17.764  35.497  14.772
95925W        W55362  31.963  41.879   0.369
95926W        W55363  24.625   2.247  11.556
95927W        W55364  14.600  36.434  12.379
95928W        W55365   9.343  41.374  11.895
95929W        W55366  18.651  23.613   1.740
95930W        W55367  41.298  30.548   1.420
95931W        W55368  35.517  28.040   4.226
95932W        W55369  19.048  17.103  11.048
95933W        W55370  17.624   8.686   3.740
95934W        W55371  33.114  33.977  12.876
95935W        W55372  26.557   2.229   3.823
95936W        W55373  39.953  35.098   2.394
95937W        W55374  22.538  15.196   1.257
95938W        W55375   7.812   4.827   4.696
95939W        W55376  15.810  20.089   4.299
95940W        W55377  41.836  22.551  11.884
95941W        W55378  24.213  26.047   3.294
95942W        W55379  23.520  22.186  14.814
95943W        W55380  41.787  13.748   0.454
95944W        W55381   8.185  17.701  13.812
95945W        W55382  29.969  38.917  10.588
95946W        W55383  34.448  27.174   2.787
95947W        W55384  25.566  37.001   4.795
95948W        W55385  16.293  30.085   4.657
95949W        W55386  32.594  27.138  12.354
95950W        W55387  16.705  33.120  10.508
95951W        W55388  39.860  25.494  11.031
95952W        W55389  42.472  29.162   4.750
95953W        W55390  22.189  38.044   2.842
95954W        W55391  37.055  16.710  10.527
95955W        W55392   9.204  25.027  13.464
95956W        W55393   2.248  42.305   1.416
95957W        W55394   9.799  18.294   0.747
95958W        W55395  26.111  37.406  12.484
95959W        W55396  27.998  13.836   1.915
95960W        W55397  21.741  40.515  13.948
95961W        W55398  30.463  12.267  14.383
95962W        W55399  33.048   1.821  13.310
95963W        W55400   6.325  36.406   1.287
95964W        W55401  31.521   4.246   4.663
95965W        W55402  43.362  16.317  13.945
95966W        W55403  35.381   7.403   3.752
95967W        W55404  33.983  11.801   3.866
95968W        W55405  37.976   4.320  12.829
95969W        W55406   1.934   3.952  11.987
95970W        W55407   0.341  15.730   0.751
95971W        W55408   2.798   9.868  11.433
95972W        W55409  13.671  16.618   4.232
95973W        W55410  19.708  38.566   1.376
95974W        W55411   6.874  32.395   1.714
95975W        W55412   6.847  19.594   0.946
95976W        W55413  35.964  21.604  14.483
95977W        W55414  42.500   7.765  13.940
95978W        W55415  28.039  39.509  11.916
95979W        W55416  25.657   3.834   0.733
95980W        W55417  35.884  33.924  13.447
95981W        W55418  21.220  14.140  11.076
95982W        W55419  35.586  23.165   4.309
95983W        W55420  18.078  25.036  14.325
95984W        W55421  40.891  28.619   1.815
95985W        W55422  20.031  25.523  13.338
95986W        W55423   8.296  39.813   2.837
95987W        W55424  15.160  23.236  11.041
95988W        W55425  19.739  30.036  12.082
95989W        W55426  18.213  31.932   2.674
95990W        W55427   9.684  18.571   3.817
95991W        W55428  35.019  28.075   5.321
95992W        W55429  16.608   2.886  12.512
95993W        W55430  34.014  25.143   3.686
95994W        W55431   4.780  35.948  12.415
95995W        W55432  20.204   4.908   0.359
95996W        W55433  18.173  18.061  14.969
95997W        W55434   9.195  15.703   1.716
95998W        W55435   3.793  40.314   0.785
95999W        W55436  44.388  10.250   0.944
96000W        W55437  42.789  25.126   2.295
96001W        W55438   0.491   7.189   2.213
96002W        W55439   1.420  12.219  13.442
96003W        W55440  11.726  14.613   4.236
96004W        W55441  17.255   3.840   2.836
96005W        W55442  17.270  30.911   0.481
96006W        W55443   9.693  23.601   3.169
96007W        W55444  39.060  43.843   0.871
96008W        W55445   4.369  22.651   3.261
96009W        W55446  39.533  43.480   3.275
96010W        W55447  22.554   3.307  13.877
96011W        W55448   1.362  44.445  14.017
96012W        W55449  25.049  27.036  10.952
96013W        W55450   8.686  14.214   0.756
96014W        W55451  31.908  36.438   1.222
96015W        W55452  37.905  31.952  11.470
96016W        W55453  38.352  38.877  14.319
96017W        W55454   8.899   7.298   1.702
96018W        W55455  16.617  14.691  10.470
96019W        W55456  19.044   0.851  14.514
96020W        W55457  34.421   0.284  13.059
96021W        W55458  36.063  20.696   3.302
96022W        W55459  32.419  18.088   5.232
96023W        W55460  26.656  23.583  10.092
96024W        W55461  37.043  35.374  14.935
96025W        W55462   8.172  13.605  12.843
96026W        W55463  22.590  37.929   0.848
96027W        W55464  25.216  26.160  13.988
96028W        W55465  18.227  22.543  13.957
96029W        W55466   3.412  10.312  13.976
96030W        W55467  10.141   3.245  10.042
96031W        W55468  29.051  11.149  13.941
96032W        W55469  42.987   0.927  14.012
96033W        W55470  31.015  43.276   1.267
96034W        W55471   0.492   7.806   2.278
96035W        W55472  38.561   1.240  14.379
96036W        W55473  33.048  11.840   3.229
96037W        W55474  41.432  15.723   4.222
96038W        W55475  27.067  17.642  12.865
96039W        W55476  12.626  32.611   2.806
96040W        W55477  39.393  37.959  12.896
96041W        W55478   4.244  15.691   4.323
96042W        W55479   0.801   2.392   0.403
96043W        W55480  10.682  11.194  10.923
96044W        W55481  42.315  27.095  14.350
96045W        W55482  28.526  13.684  14.784
96046W        W55483  43.998  44.941  13.506
96047W        W55484  28.046  27.599  10.438
96048W        W55485  24.638  25.185  13.968
96049W        W55486   2.422  41.928  12.883
96050W        W55487  26.165  20.241   0.308
96051W        W55488  40.528  21.157  11.413
96052W        W55489  40.504   2.385  11.576
96053W        W55490  41.449  31.032   2.195
96054W        W55491  38.353  27.014  13.508
96055W        W55492   9.244  27.630  10.534
96056W        W55493  31.456   0.830   4.817
96057W        W55494  22.687  24.640  11.547
96058W        W55495   9.238   6.887  13.459
96059W        W55496  26.138  31.979   1.295
96060W        W55497  20.269   2.888  12.031
96061W        W55498  37.470  14.277   3.247
96062W        W55499   0.757  20.680  12.990
96063W        W55500  44.354  30.569   2.385
96064W        W55501  36.931  42.519  12.343
96065W        W55502  33.391  32.045   3.674
96066W        W55503  10.157  33.535   4.704
96067W        W55504  11.854  34.527   1.406
96068W        W55505  33.932  43.865  10.510
96069W        W55506  42.873  13.653   1.717
96070W        W55507   0.473   1.381   2.386
96071W        W55508  12.726  27.689  12.504
96072W        W55509  21.599  30.104  12.943
96073W        W55510  44.371  18.125   1.235
96074W        W55511  26.128  19.640  11.988
96075W        W55512  38.425  35.905   3.794
96076W        W55513  25.469  28.604   1.225
96077W        W55514  43.288  32.441   3.158
96078W        W55515  36.581  14.710  12.419
96079W        W55516  17.271  29.437   1.313
96080W        W55517  18.720  29.476   2.726
96081W        W55518  37.958  11.220   2.383
96082W        W55519  20.602  39.377   2.378
96083W        W55520  42.829   9.306  13.873
96084W        W55521  35.089  43.481  10.073
96085W        W55522  41.401  27.947   1.397
96086W        W55523  11.334  25.499   3.382
96087W        W55524  18.688  41.897   0.304
96088W        W55525  39.367  40.921  10.581
96089W        W55526  19.157   4.254   1.935
96090W        W55527  37.487  17.207   1.873
96091W        W55528   1.846   7.821   2.235
96092W        W55529  28.480  42.348  11.512
96093W        W55530  35.439   2.407   0.778
96094W        W55531   2.349  16.729   5.106
96095W        W55532  37.907  42.820   4.162
96096W        W55533  37.575   5.746   3.233
96097W        W55534  27.665  32.090   3.812
96098W        W55535  12.240  44.991   2.282
96099W        W55536  13.663  31.440  14.441
96100W        W55537  43.404   0.868   0.765
96101W        W55538   1.965  27.974  12.576
96102W        W55539  27.455   7.910  12.854
96103W        W55540  30.027   2.465   3.665
96104W        W55541  40.520  37.831  11.962
96105W        W55542  17.267  10.655  14.392
96106W        W55543  28.071   6.919  11.611
96107W        W55544  23.129  13.137  11.050
96108W        W55545  36.905  35.927  14.366
96109W        W55546   4.222   1.463   1.838
96110W        W55547  30.533  35.392  12.868
96111W        W55548  12.226  37.384  14.964
96112W        W55549  40.374  18.203  10.983
96113W        W55550   4.324  43.805   1.298
96114W        W55551  27.149  23.079  14.466
96115W        W55552  33.946  13.641  12.862
96116W        W55553  26.988  30.630   4.137
96117W        W55554  39.521  27.005   2.757
96118W        W55555  38.023  37.072   1.257
96119W        W55556  39.549  43.493   3.734
96120W        W55557  37.080   1.347  14.924
96121W        W55558   6.772  14.260   4.236
96122W        W55559  22.081  44.276   1.375
96123W        W55560  12.801  14.197  12.857
96124W        W55561  41.901   5.269   2.786
96125W        W55562  21.534  37.048   2.243
96126W        W55563  13.147   0.785   0.798
96127W        W55564  18.582  28.464  12.481
96128W        W55565  22.067   7.206   2.277
96129W        W55566  32.888  21.200   3.730
96130W        W55567  13.207  20.541   2.674
96131W        W55568  13.187  19.631   9.966
96132W        W55569  23.149   7.407   2.412
96133W        W55570  34.465   5.390   1.450
96134W        W55571  29.033  41.041  14.487
96135W        W55572  36.002  41.312  11.463
96136W        W55573  44.440  31.997  11.097
96137W        W55574  32.519  38.564   1.779
96138W        W55575  33.042  22.206   1.716
96139W        W55576   9.851  27.634   4.216
96140W        W55577  15.229  40.520  14.495
96141W        W55578  26.634  32.519   3.145
96142W        W55579   0.927  15.744   2.788
96143W        W55580  22.083  41.408  14.452
96144W        W55581  35.455  10.847  14.785
96145W        W55582  40.900  33.386  10.901
96146W        W55583  24.618  34.986   0.398
96147W        W55584  42.492  17.272   2.416
96148W        W55585  13.732  43.905  12.364
96149W        W55586  38.357   5.321   1.443
96150W        W55587   5.901  20.766   0.403
96151W        W55588   5.241  39.323  10.468
96152W        W55589  15.796   4.880  14.378
96153W        W55590  40.441  37.456   3.642
96154W        W55591  33.950  18.687  12.014
96155W        W55592  25.131  29.162   1.243
96156W        W55593  21.532   1.239   0.935
96157W        W55594   5.908  20.549   1.730
96158W        W55595   8.668  35.467  13.379
96159W        W55596   7.345  34.448  12.890
96160W        W55597  19.698  39.981   1.447
96161W        W55598  12.311  35.986   3.689
96162W        W55599  31.916  11.710  14.795
96163W        W55600  29.983   4.291   0.246
96164W        W55601   2.327  23.194  11.883
96165W        W55602  40.369  31.601   4.125
96166W        W55603  35.467  37.974   0.805
96167W        W55604  36.000  12.728   4.691
96168W        W55605  28.579  15.668  10.999
96169W        W55606  26.020  29.025  14.515
96170W        W55607   9.818  23.984  12.405
96171W        W55608  24.196  36.070   9.943
96172W        W55609  20.183   1.334   4.316
96173W        W55610  27.659  32.068  11.955
96174W        W55611  19.764  16.113  11.566
96175W        W55612  22.047  19.584  14.905
96176W        W55613   9.353  25.698   4.697
96177W        W55614  24.188  29.131   3.217
96178W        W55615  23.994   2.746  12.075
96179W        W55616  13.285  15.703   3.739
96180W        W55617  25.591  21.078   0.791
96181W        W55618  21.645  42.391   2.216
96182W        W55619  39.033  27.087  10.433
96183W        W55620  22.718  37.031  12.878
96184W        W55621  14.318   6.401   2.860
96185W        W55622  30.422   5.230   1.283
96186W        W55623  37.907  15.786  11.513
96187W        W55624  18.675   2.903  12.977
96188W        W55625  19.583   2.962   0.868
96189W        W55626   5.213   3.890   4.128
96190W        W55627  44.773  16.709   1.448
96191W        W55628   3.944  39.435  10.965
96192W        W55629  17.724   3.406  14.482
96193W        W55630  40.477  16.089  11.078
96194W        W55631  44.865  37.004  14.936
96195W        W55632   4.312  44.360   2.198
96196W        W55633  43.861   0.872   3.207
96197W        W55634  42.961  25.564   2.336
96198W        W55635  23.653  12.719   3.738
96199W        W55636  33.460  11.361  11.000
96200W        W55637  38.833   6.365   2.879
96201W        W55638  28.487  25.976  11.460
96202W        W55639   0.385  27.495  13.498
96203W        W55640   6.788  42.809   4.711
96204W        W55641  22.055  39.927  13.793
96205W        W55642  36.098  23.680   1.443
96206W        W55643  31.013   4.858   0.442
96207W        W55644  22.593  37.438   4.325
96208W        W55645  10.813  37.915   0.784
96209W        W55646  10.788   8.288  11.373
96210W        W55647  18.776   5.904   1.705
96211W        W55648  29.038  15.102   4.616
96212W        W55649  39.519  17.084  11.895
96213W        W55650  43.351  29.157  14.763
96214W        W55651  36.449  30.566   1.880
96215W        W55652  12.211  37.061   1.339
96216W        W55653   0.747  27.182   2.373
96217W        W55654  35.407  33.623  13.515
96218W        W55655  41.844  41.522  14.989
96219W        W55656  18.558  30.957  11.878
96220W        W55657  27.994  27.522  10.132
96221W        W55658  36.509  15.091   2.257
96222W        W55659  28.180  22.143  10.597
96223W        W55660  20.543   6.244   1.905
96224W        W55661  20.098  29.528  14.970
96225W        W55662  19.134  21.109   5.622
96226W        W55663  40.054  20.142  14.797
96227W        W55664  12.660  43.490  11.416
96228W        W55665  22.639  10.764   3.328
96229W        W55666  39.853  39.809  14.515
96230W        W55667  32.135  23.663   0.911
96231W        W55668   0.745  36.947  14.481
96232W        W55669   8.800   7.672   4.727
96233W        W55670  38.023  38.027  12.564
96234W        W55671  23.154  44.889   4.199
96235W        W55672   9.391   6.787   2.759
96236W        W55673  21.050   6.885   0.742
96237W        W55674  30.557  17.780  12.565
96238W        W55675  13.677  20.149   1.753
96239W        W55676   6.266  39.051  10.943
96240W        W55677  10.264  35.592  12.409
96241W        W55678  25.996  10.665   0.306
96242W        W55679  32.917   4.368   4.153
96243W        W55680  12.179   5.197   4.214
96244W        W55681  36.559  15.144   1.776
96245W        W55682  44.844   4.808  11.958
96246W        W55683  13.705  23.605  13.520
96247W        W55684  41.348  35.497  13.988
96248W        W55685  44.321  21.679   0.269
96249W        W55686  42.005  17.223  11.426
96250W        W55687  31.603   9.710   1.865
96251W        W55688  44.782  21.529   1.439
96252W        W55689  36.524   6.253  10.412
96253W        W55690  40.537  19.686   0.268
96254W        W55691  19.129  14.612   3.635
96255W        W55692  22.250  27.692   4.597
96256W        W55693   9.272   8.834  14.841
96257W        W55694  42.834  40.993   1.359
96258W        W55695  23.650   9.773  11.073
96259W        W55696   2.252  38.920   4.242
96260W        W55697  13.241  38.465   4.313
96261W        W55698  11.294  30.047   0.791
96262W        W55699  10.155  41.831   3.826
96263W        W55700   4.277  11.699  10.421
96264W        W55701  33.973   6.330  14.948
96265W        W55702  27.126  23.696   4.301
96266W        W55703  37.476  34.894  13.540
96267W        W55704  41.496  21.649  11.374
96268W        W55705   6.735  39.455  11.901
96269W        W55706  27.509  37.460   0.268
96270W        W55707  22.507  29.654   0.368
96271W        W55708  42.929  24.641   4.597
96272W        W55709  16.566   3.936   2.208
96273W        W55710  35.477  24.575  11.111
96274W        W55711  14.730   4.872   9.940
96275W        W55712  44.368  21.693  14.974
96276W        W55713  44.260  26.206  14.844
96277W        W55714  32.536  37.577  12.038
96278W        W55715  16.212  32.402  14.452
96279W        W55716   0.463  11.336   0.886
96280W        W55717  39.937  28.498  14.830
96281W        W55718  30.092  41.453   4.192
96282W        W55719  11.689   0.387  10.096
96283W        W55720  44.443   4.752   0.433
96284W        W55721  10.862   4.351   4.299
96285W        W55722  37.065  12.797  10.461
96286W        W55723  30.015  36.531  12.899
96287W        W55724  39.976  40.836  13.527
96288W        W55725  15.754  14.260  12.062
96289W        W55726  29.065  29.076  12.998
96290W        W55727  15.749  18.639   0.479
96291W        W55728   0.279  24.605   1.342
96292W        W55729   2.891  14.169  14.005
96293W        W55730  36.051  26.496  12.403
96294W        W55731  24.038  37.041   2.812
96295W        W55732   0.844  30.501   1.744
96296W        W55733  21.622  27.518  12.876
96297W        W55734  35.946   8.286   4.195
96298W        W55735  11.216   9.798  10.535
96299W        W55736   9.863  22.689  10.613
96300W        W55737  28.512  19.168  12.049
96301W        W55738  33.035  11.138   0.375
96302W        W55739  15.284   9.787   2.762
96303W        W55740  26.529  20.761  10.158
96304W        W55741  37.930  40.523   0.392
96305W        W55742  42.835  32.527   0.294
96306W        W55743   4.333  13.329  11.971
96307W        W55744  18.744  26.152  10.450
96308W        W55745  29.969  43.794   3.819
96309W        W55746   5.695  17.595  14.407
96310W        W55747   9.833  32.122  13.324
96311W        W55748  10.665  12.306  14.512
96312W        W55749  28.051  26.150   3.157
96313W        W55750  24.988   1.790   0.449
96314W        W55751  39.036  20.643  11.472
96315W        W55752  40.373  22.613   3.821
96316W        W55753  38.549  22.186   3.186
96317W        W55754   2.784  43.500  13.336
96318W        W55755   3.809  10.656   3.202
96319W        W55756  28.179  39.892   0.868
96320W        W55757  43.898   9.261  14.794
96321W        W55758  12.261  19.239   1.849
96322W        W55759  15.266  28.128   1.256
96323W        W55760  36.857   2.966  13.479
96324W        W55761  37.082  27.572  12.939
96325W        W55762  25.705   2.928   3.639
96326W        W55763  31.522  13.107   1.445
96327W        W55764  44.964  30.044  13.522
96328W        W55765   4.702  23.703   1.327
96329W        W55766  44.278  11.340  13.540
96330W        W55767  43.884  15.639  14.987
96331W        W55768  35.003  37.363  14.851
96332W        W55769  39.335  21.600  13.982
96333W        W55770   1.480   2.738  14.412
96334W        W55771  21.147  20.608   2.753
96335W        W55772  18.764  37.393   0.429
96336W        W55773  42.517   9.806  10.997
96337W        W55774  21.017  37.397  10.935
96338W        W55775  39.437  14.297   0.420
96339W        W55776  41.937  24.986   3.856
96340W        W55777  11.145  10.246  11.390
96341W        W55778  15.274  24.020   0.384
96342W        W55779  40.490  20.201   3.165
96343W        W55780  30.000  38.378  12.899
96344W        W55781  33.881  36.857  13.373
96345W        W55782  22.622  11.343   9.646
96346W        W55783  25.104  40.303   3.641
96347W        W55784  39.914  14.653   3.847
96348W        W55785  25.659  42.779   3.633
96349W        W55786  36.882  18.560   0.918
96350W        W55787  31.022  41.995   4.334
96351W        W55788   6.223  39.854  14.021
96352W        W55789  15.702  21.568  13.039
96353W        W55790  43.364  42.813   0.439
96354W        W55791  28.116   2.772  13.001
96355W        W55792  17.698  29.639  13.860
96356W        W55793  21.584   8.680   4.766
96357W        W55794  34.473  30.615  14.904
96358W        W55795  37.442  22.618  14.029
96359W        W55796  22.249  36.006   0.432
96360W        W55797  37.394  23.646   3.806
96361W        W55798  26.664  23.041  11.556
96362W        W55799  41.336  13.174  12.091
96363W        W55800   0.743  32.575   0.326
96364W        W55801  32.613  10.666   0.930
96365W        W55802  24.682  28.144  14.855
96366W        W55803  30.086  37.863  12.911
96367W        W55804  38.866  34.501   2.237
96368W        W55805  19.720  43.818  12.504
96369W        W55806  14.127  16.634   4.796
96370W        W55807  10.198   6.237  13.015
96371W        W55808  14.672  29.990   3.199
96372W        W55809  29.585   1.246   0.890
96373W        W55810  35.411   2.735  11.074
96374W        W55811  11.208  16.256  10.423
96375W        W55812   2.792   5.914   0.309
96376W        W55813  26.547  17.306  12.928
96377W        W55814  17.178  44.939   4.613
96378W        W55815  11.199  42.978   4.815
96379W        W55816  21.657  40.014   0.310
96380W        W55817  37.543  22.517   3.753
96381W        W55818  41.041  18.078   2.186
96382W        W55819   4.423  19.564  13.330
96383W        W55820  10.359  20.534  10.549
96384W        W55821  19.109   5.357   1.705
96385W        W55822   3.724  44.413  11.860
96386W        W55823  26.005  32.606  13.470
96387W        W55824  11.742  16.109  12.969
96388W        W55825  18.689  24.488   4.303
96389W        W55826  35.894  40.959   4.695
96390W        W55827  38.848   9.859  11.372
96391W        W55828  28.537  23.547   3.382
96392W        W55829   3.729  13.117   5.123
96393W        W55830  32.045  27.190  11.431
96394W        W55831  12.327  33.618   3.258
96395W        W55832  42.951  27.545  11.018
96396W        W55833  29.617  21.085   5.311
96397W        W55834  24.993  20.212   2.750
96398W        W55835  17.750  37.903   1.854
96399W        W55836  38.920  24.651  14.476
96400W        W55837  36.349  24.587  11.412
96401W        W55838  25.994  13.819  10.081
96402W        W55839  13.132  16.307  13.312
96403W        W55840  32.079  35.954  10.556
96404W        W55841  43.404  43.906  13.049
96405W        W55842  34.080  37.937   5.665
96406W        W55843   3.228  44.489  11.424
96407W        W55844  11.177  14.312  13.441
96408W        W55845   8.896  23.086   4.156
96409W        W55846  27.059   2.272  12.862
96410W        W55847  22.573  28.106  12.084
96411W        W55848  25.608  27.682   3.740
96412W        W55849  35.941   9.711  12.529
96413W        W55850  14.680  38.534  11.025
96414W        W55851   5.718  12.147   4.705
96415W        W55852   1.794  29.051   0.902
96416W        W55853  29.017  33.586   4.219
96417W        W55854  24.230  30.643   3.269
96418W        W55855   0.742  13.809  12.885
96419W        W55856  22.743  12.132   1.256
96420W        W55857  17.597  32.041   3.664
96421W        W55858  33.906  42.910   3.862
96422W        W55859  23.080  21.575  11.510
96423W        W55860  19.604  22.509  10.997
96424W        W55861  17.262   5.349   4.802
96425W        W55862  16.649  14.137   0.301
96426W        W55863  39.865  13.619   3.232
96427W        W55864  39.901  23.499   4.612
96428W        W55865   2.277   3.741  13.374
96429W        W55866  42.433  32.957   4.246
96430W        W55867   6.694   7.694  13.514
96431W        W55868  32.452  29.627  10.477
96432W        W55869  41.471  40.392  11.436
96433W        W55870  12.853   7.679   1.749
96434W        W55871  28.445  19.073   0.450
96435W        W55872   1.866  36.914  12.938
96436W        W55873  28.526   9.790   1.929
96437W        W55874  30.658  11.351  11.401
96438W        W55875  33.407  22.020  10.569
96439W        W55876   5.423  27.062  10.548
96440W        W55877  13.303  44.348   0.349
96441W        W55878   8.778  13.821  12.449
96442W        W55879  33.571   0.272  13.880
96443W        W55880  34.387   1.425  14.426
96444W        W55881  11.867   8.179   3.365
96445W        W55882  28.028   2.825   4.282
96446W        W55883  40.460   7.195  13.521
96447W        W55884  33.070  37.512   1.308
96448W        W55885  44.859  38.898   2.687
96449W        W55886  38.343  20.096   1.871
96450W        W55887  22.202  21.263   5.619
96451W        W55888   9.646  14.241   1.873
96452W        W55889  20.620  17.736  14.781
96453W        W55890  11.689  37.045  13.966
96454W        W55891  32.002  10.258   1.331
96455W        W55892   5.693  20.727  12.056
96456W        W55893  28.977  14.327  12.496
96457W        W55894  27.025  14.323   9.500
96458W        W55895   5.202  13.198   3.842
96459W        W55896  16.688  36.880  13.966
96460W        W55897   2.945  36.438   0.903
96461W        W55898  32.956  12.670   3.198
96462W        W55899   7.802  10.855   2.323
96463W        W55900  29.990  15.196  13.905
96464W        W55901   4.294   2.273  11.544
96465W        W55902   2.298  42.830   1.878
96466W        W55903  24.683  35.895   0.868
96467W        W55904  13.165  34.523   3.351
96468W        W55905  13.617   6.253   3.273
96469W        W55906  12.749  38.898   2.408
96470W        W55907  35.546  20.615  10.426
96471W        W55908  12.116  39.968   2.254
96472W        W55909  27.544  24.065  11.002
96473W        W55910  27.680  37.348   4.607
96474W        W55911   7.194   6.221  14.410
96475W        W55912   1.318  14.216   4.122
96476W        W55913  10.335   5.428  10.430
96477W        W55914  32.998  21.670  13.316
96478W        W55915   2.841  17.613   1.769
96479W        W55916  14.187   9.874  13.983
96480W        W55917  41.868  34.547  14.845
96481W        W55918  24.012  15.165  12.563
96482W        W55919   3.724   1.736  12.540
96483W        W55920   1.904   2.298   4.654
96484W        W55921  31.086   3.410   0.787
96485W        W55922  14.260  29.147   2.243
96486W        W55923  36.406  28.100   0.403
96487W        W55924  30.986  26.054  14.924
96488W        W55925  18.740  24.521  14.979
96489W        W55926  40.388   9.790  11.899
96490W        W55927  30.634  12.284  13.950
96491W        W55928  12.233  26.142   4.232
96492W        W55929  17.216   8.202  14.853
96493W        W55930  39.387  42.986   0.319
96494W        W55931  11.217  33.939   4.215
96495W        W55932  43.021  27.147   0.753
96496W        W55933  17.175  26.053  13.347
96497W        W55934  37.455  41.422   3.264
96498W        W55935  30.065  32.966   0.463
96499W        W55936  21.589  28.681   1.304
96500W        W55937  36.918  42.480  12.823
96501W        W55938  41.963  37.425   4.673
96502W        W55939   7.797  20.095   1.895
96503W        W55940  19.630  26.162   2.807
96504W        W55941   8.195  18.075   2.808
96505W        W55942  28.948  15.305   3.350
96506W        W55943  33.984   5.197  13.331
96507W        W55944  43.971   2.855  12.455
96508W        W55945  36.579  18.548  12.503
96509W        W55946   8.697  11.316   1.713
96510W        W55947   5.811  12.856   1.801
96511W        W55948   7.784  27.671  13.541
96512W        W55949  37.397   5.296   2.328
96513W        W55950  38.524  44.344  13.517
96514W        W55951  27.105  41.393  11.553
96515W        W55952  38.855  19.049  14.933
96516W        W55953  28.655   0.358   4.127
96517W        W55954  42.374   7.704  12.879
96518W        W55955  18.643  33.023  11.909
96519W        W55956  35.536   3.712   4.292
96520W        W55957  26.038  25.114  10.951
96521W        W55958  37.339  22.018   1.227
96522W        W55959  24.004   6.707  13.396
96523W        W55960  17.783   2.767   0.248
96524W        W55961  41.928   2.860  12.354
96525W        W55962  19.692  12.316   2.191
96526W        W55963  16.732  24.992   0.438
96527W        W55964  40.037  27.062  12.561
96528W        W55965  11.174  11.245  14.497
96529W        W55966  41.851  18.104  14.392
96530W        W55967  27.607   7.303   0.349
96531W        W55968  16.760   4.281  12.509
96532W        W55969  44.406  43.304  12.963
96533W        W55970  20.077   5.418   4.222
96534W        W55971   6.373  14.591   4.721
96535W        W55972   5.421  27.177   3.813
96536W        W55973  44.802   5.871   1.748
96537W        W55974  29.608   7.407  13.485
96538W        W55975  22.644  16.300   1.249
96539W        W55976   2.384  20.766   2.276
96540W        W55977  33.580  11.867  11.488
96541W        W55978  36.405  39.932  11.512
96542W        W55979  30.511  16.634  12.342
96543W        W55980  43.859  10.279  13.898
96544W        W55981   1.855  34.383  10.466
96545W        W55982  31.130  31.020  11.605
96546W        W55983  42.325   5.318   1.218
96547W        W55984   8.860  25.699  11.058
96548W        W55985  10.323  40.532  12.580
96549W        W55986  41.793  16.637   0.341
96550W        W55987   7.764  39.442   3.653
96551W        W55988  35.925  11.744   2.196
96552W        W55989  12.617  25.486  12.864
96553W        W55990  16.645  15.096   0.953
96554W        W55991  35.878  26.167  12.837
96555W        W55992   9.325  21.541  13.997
96556W        W55993  14.601  36.392  14.861
96557W        W55994   0.318   3.728  10.508
96558W        W55995  44.411  35.026  10.411
96559W        W55996  27.454  22.647  14.988
96560W        W55997  26.465  14.666  11.499
96561W        W55998  34.467  27.067   4.633
96562W        W55999  15.663  24.986  14.316
96563W        W56000   7.848  35.965   1.858
96564W        W56001  35.485  11.267   0.427
96565W        W56002  10.162  31.433   2.787
96566W        W56003  26.201  43.875  10.643
96567W        W56004  29.149   2.912   2.723
96568W        W56005  28.503   2.352   1.377
96569W        W56006   4.377  21.569  11.590
96570W        W56007   2.325  31.592  12.836
96571W        W56008  13.829  18.581  12.564
96572W        W56009   8.704   1.769   1.886
96573W        W56010   4.848  41.388  11.434
96574W        W56011  26.566  10.309   1.815
96575W        W56012  31.451  30.005   3.637
96576W        W56013  43.433  33.430   4.600
96577W        W56014  22.038  36.907   2.365
96578W        W56015  25.622  11.283   3.771
96579W        W56016   8.674  40.521  14.500
96580W        W56017  44.884   4.305  11.895
96581W        W56018   8.236  13.337  13.422
96582W        W56019  25.704  10.854  11.500
96583W        W56020  21.258  29.587   3.275
96584W        W56021  13.311   7.733   2.217
96585W        W56022  28.137  23.988   0.783
96586W        W56023  38.544  21.164   4.691
96587W        W56024  36.938  25.039   2.386
96588W        W56025  15.194  34.460  11.575
96589W        W56026  10.739   5.313   1.820
96590W        W56027  25.628  10.256   0.742
96591W        W56028   8.236   3.416  14.011
96592W        W56029  37.352   2.359   3.180
96593W        W56030  20.117  20.028  11.970
96594W        W56031  33.494  43.279  10.448
96595W        W56032  27.622  43.347   4.659
96596W        W56033   3.787  16.584   2.257
96597W        W56034  35.985   9.310  14.030
96598W        W56035  30.636   7.855   4.608
96599W        W56036  24.975  29.919  11.596
96600W        W56037  32.041  32.573  14.975
96601W        W56038   9.723   0.485  12.932
96602W        W56039   9.171  37.076   0.907
96603W        W56040  33.112  20.767  14.023
96604W        W56041  37.419  38.474   1.905
96605W        W56042  28.603  33.974  12.479
96606W        W56043   8.699  26.085  12.020
96607W        W56044  10.296  11.290   2.822
96608W        W56045  42.466  33.591  13.428
96609W        W56046  40.369  12.253  13.356
96610W        W56047  11.706   9.338  10.517
96611W        W56048  18.570  17.074  14.497
96612W        W56049  28.454   1.410  11.906
96613W        W56050  22.153  43.008  13.873
96614W        W56051   9.684  43.312   2.346
96615W        W56052   5.222   6.246  12.019
96616W        W56053   1.443  26.463  14.381
96617W        W56054   7.407   8.231  11.088
96618W        W56055  43.463  28.130   3.766
96619W        W56056  22.692  25.568   2.292
96620W        W56057  11.625  44.382   5.244
96621W        W56058  23.654  43.950   1.737
96622W        W56059  28.093   5.851  14.768
96623W        W56060   0.400  27.053  13.391
96624W        W56061  20.227  22.675  12.415
96625W        W56062  23.523  18.569  10.484
96626W        W56063  44.464  13.812   1.327
96627W        W56064   7.300  22.198  11.969
96628W        W56065  43.463   1.966  11.447
96629W        W56066   2.277  38.969   4.762
96630W        W56067  43.845  40.830  12.396
96631W        W56068  20.082  40.974  11.485
96632W        W56069  14.698  23.994  11.579
96633W        W56070  33.941   5.417  11.383
96634W        W56071  30.560  23.501  11.373
96635W        W56072  25.041  12.794   1.237
96636W        W56073  35.109  36.068  11.100
96637W        W56074  43.783  27.030   0.379
96638W        W56075   8.795  39.017   0.400
96639W        W56076   6.802  16.709  14.324
96640W        W56077  39.550  32.478  14.985
96641W        W56078  24.033   6.275   1.897
96642W        W56079   1.936  14.304   2.249
96643W        W56080   2.286  43.893   3.811
96644W        W56081  22.095  27.573   2.386
96645W        W56082  33.904   7.735  14.276
96646W        W56083  29.936  20.171  10.454
96647W        W56084  28.597  21.719  14.300
96648W        W56085  38.008  34.025   3.211
96649W        W56086  23.593  35.048  14.906
96650W        W56087  23.021  24.029  10.433
96651W        W56088  17.270  28.594  12.357
96652W        W56089  30.447   4.851  14.924
96653W        W56090   0.957  23.070   0.421
96654W        W56091  42.027  40.819  13.439
96655W        W56092  40.872  34.093  13.437
96656W        W56093  23.730  41.974  11.537
96657W        W56094   0.932  20.127   3.338
96658W        W56095  23.589  42.505  14.392
96659W        W56096  11.717  32.054  11.453
96660W        W56097  17.236  39.952   0.356
96661W        W56098   9.207  30.558  11.871
96662W        W56099   3.218  36.002  11.961
96663W        W56100  19.060  17.652  12.031
96664W        W56101  12.766  35.410  14.445
96665W        W56102  40.466   0.927  14.308
96666W        W56103   3.246   9.836   2.397
96667W        W56104   5.756  28.987   4.262
96668W        W56105  12.146  28.676  10.425
96669W        W56106  35.478  25.194   2.363
96670W        W56107  32.534  41.423  13.346
96671W        W56108  37.062  33.079   2.700
96672W        W56109  13.806   2.324   2.276
96673W        W56110  35.478  14.255  13.010
96674W        W56111  24.026   9.232  12.526
96675W        W56112  31.485  21.659   2.786
96676W        W56113  12.121  16.238   1.788
96677W        W56114  21.737   1.320   4.800
96678W        W56115   8.752   1.792  11.014
96679W        W56116  29.630  29.666  12.387
96680W        W56117  15.807  30.151  10.999
96681W        W56118  37.551  40.870  10.014
96682W        W56119  33.126  37.863   0.417
96683W        W56120  13.107  34.051  12.559
96684W        W56121  42.781  14.752  13.387
96685W        W56122  39.049  18.785   3.693
96686W        W56123  25.518  25.976  14.433
96687W        W56124   3.447  37.377   0.960
96688W        W56125  18.730  34.434  12.981
96689W        W56126   6.892   5.270  12.550
96690W        W56127  28.974  23.137  13.917
96691W        W56128  28.511  22.568   5.709
96692W        W56129  24.594  16.649  14.766
96693W        W56130  23.146  24.497  10.618
96694W        W56131   4.409  17.571  12.843
96695W        W56132  40.529   5.773  12.361
96696W        W56133   0.292  23.550   1.810
96697W        W56134  10.167   7.317  12.875
96698W        W56135  16.701  40.964   3.677
96699W        W56136  42.361  29.443  14.014
96700W        W56137  44.825  10.218  11.001
96701W        W56138  36.450  40.317   4.121
96702W        W56139  43.358  40.885  11.909
96703W        W56140   8.756  28.164  10.979
96704W        W56141  31.455  27.571   1.361
96705W        W56142  19.713  24.678  10.432
96706W        W56143  38.478  37.908  14.356
96707W        W56144  17.572  43.295   0.910
96708W        W56145  26.657  25.033   4.634
96709W        W56146  29.925  27.118  11.435
96710W        W56147  22.597  37.449  14.391
96711W        W56148  34.000  41.410   2.670
96712W        W56149  41.809  21.704  11.549
96713W        W56150  22.519  10.742  14.362
96714W        W56151  24.157  20.226  11.064
96715W        W56152  23.574   1.838  12.986
96716W        W56153  19.643   5.403  13.831
96717W        W56154  35.439  25.190  13.833
96718W        W56155  44.277  31.058  13.924
96719W        W56156  33.076  10.680  11.008
96720W        W56157  23.563  24.207   1.723
96721W        W56158  40.420  37.522  13.329
96722W        W56159  14.278  25.552   3.867
96723W        W56160  13.699  42.380   9.492
96724W        W56161  27.038  11.836   0.385
96725W        W56162  12.649  37.971  13.437
96726W        W56163  28.652  28.443   1.346
96727W        W56164  11.148   4.817  14.988
96728W        W56165  32.529  23.689  13.358
96729W        W56166  32.916  14.817  13.431
96730W        W56167  12.324   8.660  13.046
96731W        W56168  32.084  15.115  11.937
96732W        W56169  18.265  26.170  11.085
96733W        W56170  11.239  17.715   1.334
96734W        W56171  21.048  11.190   4.659
96735W        W56172  22.996  20.214  12.545
96736W        W56173  14.744  21.215  13.028
96737W        W56174   0.933  19.762  14.814
96738W        W56175  15.787  16.631  11.512
96739W        W56176   2.816  39.532  14.348
96740W        W56177  12.823  14.292  10.966
96741W        W56178  13.813  14.217   3.364
96742W        W56179  18.656  44.809  13.523
96743W        W56180  25.058  44.796   0.335
96744W        W56181   3.934  39.341  12.935
96745W        W56182  34.043  18.766  14.983
96746W        W56183  42.284  19.608   1.934
96747W        W56184  16.134  23.101   0.354
96748W        W56185   2.377   2.948   3.247
96749W        W56186  41.847  11.631   2.767
96750W        W56187   7.834  36.873  12.520
96751W        W56188  39.859  17.171   0.284
96752W        W56189  28.517  34.394   4.686
96753W        W56190  42.471   2.462   0.243
96754W        W56191  40.547  23.039  10.451
96755W        W56192  43.921  42.525   1.346
96756W        W56193   9.341  17.093  12.435
96757W        W56194  42.985  32.633  13.034
96758W        W56195   8.699   2.747  10.415
96759W        W56196  28.112  26.019  13.429
96760W        W56197   3.403   2.325   3.773
96761W        W56198  26.964  36.969  11.879
96762W        W56199  33.934  28.439  10.909
96763W        W56200  24.212  30.429  13.983
96764W        W56201   7.694  31.424   1.434
96765W        W56202  29.566  38.352  13.026
96766W        W56203  12.301  35.396   2.325
96767W        W56204   2.880  27.136   3.167
96768W        W56205  11.720  19.225  14.962
96769W        W56206  15.088  36.852   1.881
96770W        W56207  27.639   4.406  13.018
96771W        W56208   2.387  38.862  14.466
96772W        W56209  36.406   2.310   4.691
96773W        W56210  22.634   4.937  12.972
96774W        W56211  19.137  41.358   3.171
96775W        W56212   5.709  39.422  12.053
96776W        W56213  20.040  11.763   2.409
96777W        W56214  42.366  15.814  13.315
96778W        W56215   0.836   2.244   5.271
96779W        W56216  31.147  38.013  13.979
96780W        W56217  40.455   7.705   3.676
96781W        W56218  24.122  26.018  12.543
96782W        W56219  11.622  33.584   0.962
96783W        W56220  29.998  41.486  14.467
96784W        W56221   6.827   0.287   1.295
96785W        W56222   0.958  14.680   1.884
96786W        W56223  38.437  13.718  12.378
96787W        W56224  15.203  31.018   3.813
96788W        W56225   2.775  21.134  14.944
96789W        W56226  37.484  18.739   4.347
96790W        W56227  25.084  31.556   2.673
96791W        W56228   4.701  43.328   4.688
96792W        W56229  33.532  22.206  13.838
96793W        W56230  14.815  28.584   3.658
96794W        W56231  36.854  22.160  14.463
96795W        W56232   2.285  10.682  14.027
96796W        W56233   7.681  11.140  10.953
96797W        W56234  23.212  29.531   4.614
96798W        W56235  34.025  33.045   3.719
96799W        W56236  12.757   3.239   1.279
96800W        W56237  26.547  42.875   0.389
96801W        W56238  25.569  29.076   0.283
96802W        W56239  13.328  32.419  14.380
96803W        W56240  15.639  36.962  13.375
96804W        W56241  41.365  13.744  11.985
96805W        W56242   6.911  20.698   2.414
96806W        W56243  41.794  29.662  10.492
96807W        W56244  23.165  32.914  13.467
96808W        W56245  35.043  14.126  10.035
96809W        W56246  22.179  38.971   0.872
96810W        W56247   6.285   4.910  13.853
96811W        W56248  23.690  32.995   4.222
96812W        W56249   7.374  42.965  13.001
96813W        W56250  39.860  43.786  14.895
96814W        W56251  29.047   6.292   0.274
96815W        W56252   9.883   5.858   4.317
96816W        W56253  43.796   8.740   4.301
96817W        W56254  35.462   4.258   4.315
96818W        W56255  42.295  11.781  13.817
96819W        W56256  14.620  42.969   3.787
96820W        W56257  20.649  36.069  12.417
96821W        W56258   9.788  19.577   4.339
96822W        W56259  29.150  20.627   1.435
96823W        W56260   6.852   3.731  14.803
96824W        W56261  39.868  39.413   1.374
96825W        W56262  44.995  10.280  11.483
96826W        W56263  28.182  24.123   4.697
96827W        W56264   9.838  12.207  14.433
96828W        W56265   4.374  26.609  14.963
96829W        W56266  43.386  24.082   3.368
96830W        W56267  20.079  43.913   4.636
96831W        W56268  27.606  26.600   3.359
96832W        W56269  19.265  39.876  12.991
96833W        W56270  19.774   8.785  10.441
96834W        W56271  36.524   4.721  10.073
96835W        W56272  41.355  17.139   1.429
96836W        W56273  14.600  19.252  13.534
96837W        W56274  33.418  22.999   2.712
96838W        W56275  43.005  35.413  13.493
96839W        W56276   1.923   3.262   2.776
96840W        W56277  37.951  17.711  14.277
96841W        W56278   7.685  27.592  13.961
96842W        W56279  33.500  29.593  10.997
96843W        W56280  43.869   4.931  14.877
96844W        W56281  13.198   6.197  12.961
96845W        W56282  43.000  30.541  11.998
96846W        W56283  32.437  37.539  12.435
96847W        W56284  38.456  42.514  10.895
96848W        W56285   7.326  19.079  14.803
96849W        W56286  38.957  41.417   9.924
96850W        W56287   8.266   6.204  12.871
96851W        W56288  31.096  25.097  14.354
96852W        W56289  43.814   5.706  13.885
96853W        W56290  36.471  42.521  12.048
96854W        W56291  12.824  31.128   1.401
96855W        W56292  30.632  24.609   3.744
96856W        W56293  44.757  32.467  12.461
96857W        W56294  42.378  39.517   0.349
96858W        W56295  13.271  36.997  14.951
96859W        W56296  40.480  11.279   0.919
96860W        W56297  34.513  25.511  11.498
96861W        W56298  28.982  12.640   1.211
96862W        W56299  19.283  27.113   3.334
96863W        W56300  43.297  18.134  14.763
96864W        W56301  16.707  11.726  11.597
96865W        W56302  24.022  26.643   3.354
96866W        W56303  38.921  30.125   1.255
96867W        W56304  25.699  43.369  11.488
96868W        W56305  41.912  39.357  13.028
96869W        W56306  34.491  11.365  13.023
96870W        W56307  31.953  19.619  10.925
96871W        W56308  43.778   6.902   3.227
96872W        W56309  19.757  35.012  11.056
96873W        W56310   4.857  29.054  13.391
96874W        W56311  39.401   1.930   0.414
96875W        W56312  40.476   6.243   0.760
96876W        W56313   5.780   1.447   0.360
96877W        W56314   8.396   3.241   1.720
96878W        W56315   7.357   4.864   1.855
96879W        W56316   9.270  14.747  10.913
96880W        W56317  23.489  31.419   3.786
96881W        W56318  22.996  29.094   4.301
96882W        W56319   5.437  23.643   4.270
96883W        W56320  29.476  30.426  10.978
96884W        W56321  36.574  28.089  10.923
96885W        W56322  41.471   3.927   2.412
96886W        W56323  20.095  30.086  11.918
96887W        W56324   0.379  35.971   0.848
96888W        W56325  33.901  25.205   3.295
96889W        W56326  22.708  28.436   3.145
96890W        W56327   9.797  18.241  12.506
96891W        W56328  15.760  35.859  10.980
96892W        W56329  14.140   3.857  13.536
96893W        W56330  24.070  28.641  13.379
96894W        W56331  16.123  31.480   1.247
96895W        W56332  15.744   9.177  11.081
96896W        W56333  14.259  34.021  10.439
96897W        W56334  24.584  14.662   0.369
96898W        W56335  31.574   2.925   2.410
96899W        W56336   2.316  28.568  11.376
96900W        W56337  39.508  34.028  12.522
96901W        W56338  17.692  33.049   0.267
96902W        W56339  29.530  21.153   4.115
96903W        W56340  13.620  23.988   1.745
96904W        W56341  15.790  15.242  11.442
96905W        W56342  12.739  34.017  14.469
96906W        W56343  34.590  11.331  12.483
96907W        W56344  31.027  38.955  12.440
96908W        W56345  12.226  24.121   3.701
96909W        W56346  11.774  14.276   0.429
96910W        W56347  44.401  32.494  11.610
96911W        W56348  15.616  43.371   5.788
96912W        W56349  13.713  29.499  10.953
96913W        W56350   6.704  13.215  12.373
96914W        W56351   7.270  40.955  11.062
96915W        W56352   5.790  27.088   0.254
96916W        W56353  43.516  11.169  13.005
96917W        W56354   3.780  38.537   3.173
96918W        W56355  44.471  24.634  13.446
96919W        W56356  35.362   2.420  10.449
96920W        W56357  29.439  41.421   5.129
96921W        W56358  11.793  24.049   2.789
96922W        W56359  43.002  25.104   1.757
96923W        W56360  37.898  41.468  13.359
96924W        W56361  35.571  25.483   3.823
96925W        W56362  22.531  12.157  11.527
96926W        W56363  16.240  13.225  11.386
96927W        W56364  24.636  17.701   1.232
96928W        W56365  12.847  24.054  11.392
96929W        W56366  40.837  14.339   2.723
96930W        W56367  38.559   1.320  13.801
96931W        W56368  23.656  28.088   0.483
96932W        W56369  35.000  40.362   3.167
96933W        W56370   3.746  10.203   0.404
96934W        W56371  18.638  21.037   0.348
96935W        W56372  34.480  31.515   4.134
96936W        W56373  20.639  30.162  10.955
96937W        W56374  16.119  34.491  13.862
96938W        W56375   1.338   8.397  14.506
96939W        W56376   6.854  22.510   4.672
96940W        W56377  41.894  34.589   5.233
96941W        W56378  39.321  42.968  14.853
96942W        W56379  28.132  38.372  11.517
96943W        W56380  22.591  26.148  10.498
96944W        W56381  12.763  11.729  14.990
96945W        W56382  21.248   0.815  12.424
96946W        W56383  34.021  31.639   2.808
96947W        W56384  26.477  12.291  11.508
96948W        W56385   2.851   7.246  14.844
96949W        W56386  20.706  33.076   0.409
96950W        W56387  11.707  13.763   4.131
96951W        W56388  15.711  17.621   2.283
96952W        W56389  29.005  17.203  14.284
96953W        W56390   9.214   2.429   0.770
96954W        W56391  18.680  11.693  12.896
96955W        W56392  35.386  32.098  14.991
96956W        W56393  39.361  33.382  12.515
96957W        W56394  34.874   3.768   0.435
96958W        W56395  12.226   1.785   3.836
96959W        W56396  17.103  14.769   0.331
96960W        W56397  12.199   9.691  14.983
96961W        W56398  15.807  43.850   2.400
96962W        W56399  21.738  20.733  12.049
96963W        W56400  12.678   7.178  11.125
96964W        W56401  31.927  35.941   1.298
96965W        W56402  35.978   2.331   2.343
96966W        W56403  19.628  22.738   4.756
96967W        W56404   6.853  21.572   1.863
96968W        W56405  16.611  32.989  13.527
96969W        W56406  44.803  10.828  11.419
96970W        W56407  34.886  30.944  12.464
96971W        W56408  34.992  28.504   1.695
96972W        W56409  21.238  29.493  12.006
96973W        W56410  22.156   7.195   3.723
96974W        W56411  34.891   6.422  10.530
96975W        W56412   5.893  19.538   1.921
96976W        W56413  15.314  37.051   1.231
96977W        W56414  41.013  24.498   4.133
96978W        W56415  41.318  21.610   0.805
96979W        W56416   6.387  37.849  12.858
96980W        W56417  17.217  36.376   2.706
96981W        W56418  18.152  38.409  14.856
96982W        W56419  13.307  44.332   9.939
96983W        W56420  44.835  16.726   4.623
96984W        W56421  14.251  10.302   3.815
96985W        W56422  38.899  15.224   4.662
96986W        W56423  31.636  19.222  13.528
96987W        W56424  23.215  20.041   5.605
96988W        W56425  35.023  36.037   0.956
96989W        W56426  13.611   8.324  13.858
96990W        W56427   6.744  36.465   3.156
96991W        W56428   1.348  39.473  14.324
96992W        W56429  15.703   5.219  12.576
96993W        W56430  31.074  34.591   4.641
96994W        W56431  44.837  12.275   2.342
96995W        W56432  26.008  14.737  14.304
96996W        W56433  20.752  13.194  11.408
96997W        W56434  18.563  39.848  13.307
96998W        W56435  32.050  13.329   2.769
96999W        W56436  10.853  36.963   2.279
97000W        W56437  15.235  28.983  13.917
97001W        W56438  18.264  37.861   1.252
97002W        W56439  24.633  37.871   2.824
97003W        W56440  29.119  27.038   4.325
97004W        W56441  37.891  18.109  13.971
97005W        W56442  39.369  40.037  11.401
97006W        W56443  23.056   7.755   0.830
97007W        W56444  22.540  24.169  12.525
97008W        W56445   2.368  34.972   0.464
97009W        W56446  15.313   5.229   3.301
97010W        W56447  16.577  32.433   2.255
97011W        W56448  25.077  19.710   0.859
97012W        W56449  35.528   5.279  12.853
97013W        W56450  37.848  33.924   1.834
97014W        W56451   5.815  24.997  13.895
97015W        W56452  27.691   8.308  14.975
97016W        W56453   5.855  29.435   0.836
97017W        W56454  43.957  13.159  12.494
97018W        W56455  32.573  40.880   4.797
97019W        W56456  20.688  36.525  11.505
97020W        W56457  39.031  28.482  12.845
97021W        W56458  21.679  24.060  11.877
97022W        W56459  27.117   6.848  13.905
97023W        W56460  40.958  38.070  11.441
97024W        W56461  33.123  29.012   3.844
97025W        W56462  11.638  22.583  12.415
97026W        W56463   5.767  10.747  10.608
97027W        W56464   0.393   5.693   2.416
97028W        W56465  10.198   1.266   3.174
97029W        W56466  44.315  11.664  14.372
97030W        W56467  22.999  36.974  12.451
97031W        W56468   4.902  41.044  12.901
97032W        W56469  42.891  22.696   2.222
97033W        W56470  12.266   8.830  13.960
97034W        W56471  18.062  35.463   4.627
97035W        W56472  25.008   9.383   0.930
97036W        W56473  14.645   9.357   3.185
97037W        W56474  34.527  28.972   3.651
97038W        W56475  16.197  26.508  11.126
97039W        W56476  14.631  37.407  12.481
97040W        W56477  21.235  15.803  14.337
97041W        W56478  17.606   6.260  11.084
97042W        W56479  19.582  12.614   0.451
97043W        W56480  33.014  27.471  13.022
97044W        W56481   6.270  16.134   3.356
97045W        W56482  41.325  31.641  14.344
97046W        W56483  28.025  25.115   0.904
97047W        W56484  22.067  14.609  14.842
97048W        W56485  24.008  28.511   3.703
97049W        W56486  11.279   2.464   4.149
97050W        W56487  12.685  41.438  14.468
97051W        W56488   5.782  17.245   4.621
97052W        W56489  34.102  35.049  12.339
97053W        W56490   2.329  11.194   0.892
97054W        W56491  42.795  31.405   1.429
97055W        W56492  22.736  17.226  12.554
97056W        W56493   7.819  14.166   4.233
97057W        W56494   1.786  24.203   1.246
97058W        W56495  29.579   6.214   3.341
97059W        W56496  36.854  20.195   1.870
97060W        W56497   1.758  22.219  11.894
97061W        W56498  38.416  41.306  13.961
97062W        W56499   3.372  19.130   0.729
97063W        W56500   4.416  34.873  14.958
97064W        W56501   6.238  10.638   1.904
97065W        W56502  37.340  24.132  10.585
97066W        W56503  12.798  41.921  13.063
97067W        W56504  20.705   7.787   4.699
97068W        W56505   6.302  43.833   1.381
97069W        W56506  38.838  14.734  10.630
97070W        W56507  36.479   0.392   0.950
97071W        W56508  43.917   2.960   0.389
97072W        W56509  24.489  15.192  12.882
97073W        W56510  13.272  30.084  10.499
97074W        W56511  13.295  36.866  13.926
97075W        W56512  33.981  26.007  14.759
97076W        W56513  17.254  36.919   1.227
97077W        W56514  35.400  18.691  11.102
97078W        W56515   1.801   4.894  14.349
97079W        W56516  38.970  36.569  12.449
97080W        W56517  32.002  39.466   2.205
97081W        W56518  41.813   5.786  10.608
97082W        W56519  36.576  13.833   3.228
97083W        W56520  37.982  20.267   4.704
97084W        W56521  17.103  39.399   3.386
97085W        W56522  38.389  40.311   0.950
97086W        W56523  29.165  18.788   2.387
97087W        W56524  10.358  26.112  11.572
97088W        W56525  38.915  28.584  10.414
97089W        W56526  11.793  36.566  14.027
97090W        W56527  31.946  20.043  13.044
97091W        W56528  44.359  37.449  12.401
97092W        W56529  19.758  19.258  13.397
97093W        W56530  40.325   7.217   4.779
97094W        W56531   1.446   9.826  12.371
97095W        W56532  36.538  28.143  13.875
97096W        W56533  35.952   0.370   0.358
97097W        W56534  30.552  18.720  10.528
97098W        W56535  37.929   2.897  14.923
97099W        W56536  37.936  42.883   2.901
97100W        W56537  12.830   1.288  14.512
97101W        W56538  25.028   0.409  11.062
97102W        W56539  41.875  26.124  13.020
97103W        W56540   7.258  10.239   0.360
97104W        W56541   3.729  15.760  12.091
97105W        W56542  28.566  14.741   5.222
97106W        W56543  12.237  14.142   4.332
97107W        W56544   2.277  17.243  10.924
97108W        W56545  34.919  31.109   0.816
97109W        W56546  44.445  28.575   0.397
97110W        W56547   6.877  14.102   3.381
97111W        W56548  11.142  14.719  14.860
97112W        W56549  26.565  22.182   1.330
97113W        W56550  11.672  35.059   2.823
97114W        W56551  23.557  28.047   4.270
97115W        W56552  30.941   3.924   2.859
97116W        W56553  29.441  28.438  13.938
97117W        W56554  38.325  17.107  14.825
97118W        W56555  22.541  38.404  12.444
97119W        W56556  16.602   0.950   4.348
97120W        W56557   5.709  43.794  10.536
97121W        W56558  37.898  26.672  11.476
97122W        W56559  18.102   4.751  12.551
97123W        W56560  14.188  30.069  13.024
97124W        W56561   4.741  19.714   5.245
97125W        W56562   7.328  24.220   3.161
97126W        W56563  12.705   7.177   4.184
97127W        W56564  40.804   7.336  14.863
97128W        W56565  34.967   8.270   1.436
97129W        W56566  14.109  26.088  14.946
97130W        W56567   6.901  30.474   1.306
97131W        W56568  11.669   4.227  10.948
97132W        W56569  26.157  39.348  13.799
97133W        W56570   7.797  44.982  13.440
97134W        W56571  23.561  20.067  12.971
97135W        W56572  35.931  27.574   2.790
97136W        W56573  11.372  21.538  11.519
97137W        W56574  19.713  20.146  14.358
97138W        W56575  15.694  43.338   1.409
97139W        W56576  38.528  38.960   0.270
97140W        W56577  39.453  30.606   0.761
97141W        W56578  30.430  22.548   4.635
97142W        W56579   3.865  39.335  12.451
97143W        W56580  35.007  22.156  13.937
97144W        W56581  13.650  16.104  11.392
97145W        W56582  10.363  20.066  14.383
97146W        W56583  32.543  32.891  14.422
97147W        W56584   1.885   3.853   1.809
97148W        W56585  32.108  26.679   0.409
97149W        W56586  34.456  13.175  12.996
97150W        W56587  26.544  34.421  14.372
97151W        W56588  34.582  28.662   0.921
97152W        W56589  11.767  10.379  14.016
97153W        W56590  44.757   1.964  11.507
97154W        W56591  44.429  32.112  13.903
97155W        W56592  23.048  22.209   3.686
97156W        W56593  34.567  10.141   0.897
97157W        W56594  30.522  32.896  11.985
97158W        W56595   0.948  12.353  13.892
97159W        W56596  14.280  36.380  12.956
97160W        W56597   3.738  31.606  13.373
97161W        W56598  25.129  24.057  12.432
97162W        W56599  28.161   8.362   0.288
97163W        W56600  15.590  21.028   1.293
97164W        W56601   9.263  18.259  13.837
97165W        W56602  12.636   9.324  13.950
97166W        W56603  13.641   4.940   4.222
97167W        W56604  42.326  14.767   4.734
97168W        W56605  20.094  10.318   0.261
97169W        W56606  41.522  43.866   4.256
97170W        W56607  38.411  10.169   1.914
97171W        W56608  44.833  18.597  12.982
97172W        W56609  43.459  29.079  13.913
97173W        W56610  34.452   5.274   3.692
97174W        W56611  18.692  18.178   3.768
97175W        W56612  29.441  13.679  12.359
97176W        W56613  27.619  27.583  10.522
97177W        W56614  39.339  36.885   0.450
97178W        W56615  25.479   1.342   1.874
97179W        W56616   3.233  31.972  11.578
97180W        W56617   8.169  24.973   4.805
97181W        W56618  34.585  41.505  11.450
97182W        W56619  44.381  35.464   5.285
97183W        W56620  12.207  29.448  14.368
97184W        W56621  38.847   2.756   0.245
97185W        W56622  13.751  32.996  10.455
97186W        W56623  17.193  44.846   3.215
97187W        W56624  43.957  31.986   2.830
97188W        W56625  17.631   9.793   2.214
97189W        W56626  34.426  27.969  13.979
97190W        W56627  42.479  17.574   3.690
97191W        W56628  36.532  43.387   1.881
97192W        W56629  34.478  16.092  14.838
97193W        W56630   5.828   7.876   0.902
97194W        W56631  16.213  16.153   5.163
97195W        W56632   1.365  44.328  10.913
97196W        W56633  22.656   0.938  11.930
97197W        W56634  14.139  27.944  14.003
97198W        W56635   9.181  40.044  11.521
97199W        W56636   5.262  40.432   2.776
97200W        W56637  14.149   6.188  10.621
97201W        W56638  19.775  27.106   1.368
97202W        W56639  26.983  32.130  12.846
97203W        W56640  19.179  40.893   1.351
97204W        W56641  31.614  42.813   0.765
97205W        W56642  17.187   5.244  12.054
97206W        W56643  27.030  31.985  11.046
97207W        W56644  42.320  10.641  14.491
97208W        W56645  34.428  30.615   0.753
97209W        W56646  12.713   3.821  12.935
97210W        W56647  44.966  24.082  14.466
97211W        W56648   4.318  33.080   3.196
97212W        W56649  23.995  12.674   4.313
97213W        W56650  11.323  24.207  11.485
97214W        W56651  27.522  29.129  14.818
97215W        W56652  43.289  35.591   5.591
97216W        W56653  31.988   0.794  13.972
97217W        W56654   4.933  23.026  14.913
97218W        W56655  14.595  10.809   0.319
97219W        W56656  44.913   7.801  11.527
97220W        W56657   2.847  44.441  10.909
97221W        W56658  31.591   4.242  12.341
97222W        W56659   4.291   0.967  10.446
97223W        W56660  15.677   6.213  13.982
97224W        W56661  11.791   7.705  11.049
97225W        W56662  30.490  38.875   1.772
97226W        W56663  23.626  25.962   0.895
97227W        W56664  19.211  16.585  10.441
97228W        W56665  13.138   9.253  12.925
97229W        W56666   6.182  11.805  13.459
97230W        W56667   7.331  41.515   0.386
97231W        W56668  32.398  20.680  13.806
97232W        W56669   2.861   8.821   0.449
97233W        W56670  16.095  19.272   4.346
97234W        W56671  41.325  21.666  12.918
97235W        W56672  18.196   0.788  10.531
97236W        W56673  33.389  34.443   4.721
97237W        W56674  26.978  21.168   3.831
97238W        W56675  38.549   2.796  12.912
97239W        W56676  11.659  37.850  10.421
97240W        W56677  43.778  44.966   3.340
97241W        W56678  17.211  39.495  12.480
97242W        W56679  43.371   4.433  11.014
97243W        W56680  11.844   1.426  13.519
97244W        W56681  32.886  33.965  14.454
97245W        W56682  40.465   2.360   0.743
97246W        W56683  16.100  34.486   2.680
97247W        W56684  35.991  33.976   2.701
97248W        W56685   9.782  16.760   2.868
97249W        W56686  32.043   5.837  12.437
97250W        W56687  11.854  44.366  10.555
97251W        W56688  39.536  25.640   1.925
97252W        W56689   3.323  42.342  11.005
97253W        W56690   9.689  31.124   0.290
97254W        W56691  21.522  36.417  14.911
97255W        W56692   4.207   6.380   2.308
97256W        W56693  24.600   0.973   1.289
97257W        W56694   8.675  35.049  12.501
97258W        W56695  15.682  10.816   0.845
97259W        W56696   3.922  15.692  12.374
97260W        W56697  40.931  25.589  12.442
97261W        W56698  32.530   3.928   4.654
97262W        W56699  43.009  41.525  13.915
97263W        W56700  35.379  17.589  12.391
97264W        W56701   8.226   5.888   4.244
97265W        W56702  16.785  35.079   1.781
97266W        W56703  43.996  28.529   4.600
97267W        W56704  32.559  21.680  12.988
97268W        W56705  37.469  14.284  10.628
97269W        W56706   5.846   5.765   2.857
97270W        W56707  23.158  40.422  12.947
97271W        W56708  34.972  10.203  13.533
97272W        W56709   1.278   5.889  10.412
97273W        W56710  20.167  35.854   2.844
97274W        W56711  20.109   5.205  14.795
97275W        W56712  40.315   2.228  13.425
97276W        W56713  30.641  17.769  11.399
97277W        W56714  41.364  36.094   5.743
97278W        W56715  30.157   6.763   3.774
97279W        W56716  20.253  10.230  14.908
97280W        W56717  12.169   7.816   0.350
97281W        W56718  35.534   3.430  11.876
97282W        W56719   3.816  43.969  11.086
97283W        W56720  20.169  26.161   0.284
97284W        W56721   9.643   7.301  14.009
97285W        W56722  30.518  33.895  14.410
97286W        W56723  34.909   4.284  11.061
97287W        W56724  28.638   8.391   4.692
97288W        W56725   1.350   5.900  12.497
97289W        W56726  13.745   5.392  12.055
97290W        W56727  36.503  12.701  11.125
97291W        W56728  10.348  15.789   4.752
97292W        W56729  38.474  10.315  13.893
97293W        W56730   8.774  25.219   4.198
97294W        W56731  33.421  16.798  14.365
97295W        W56732  43.365  26.045  13.970
97296W        W56733  40.320   9.387  11.472
97297W        W56734   3.734  18.712  11.377
97298W        W56735  16.076  14.130   4.708
97299W        W56736   3.251   2.421  14.014
97300W        W56737  16.200  12.647  10.629
97301W        W56738   3.409  21.520   0.757
97302W        W56739  10.174  17.289  11.121
97303W        W56740   7.905  38.385  13.016
97304W        W56741  21.237  12.168   0.407
97305W        W56742  30.143  15.231  11.016
97306W        W56743   9.277  14.234   3.723
97307W        W56744  24.545  33.915   2.375
97308W        W56745  42.423  35.920   3.840
97309W        W56746  11.287  13.842  12.404
97310W        W56747  39.005  19.714   2.789
97311W        W56748  41.870   9.659   4.306
97312W        W56749  18.079  39.012   0.390
97313W        W56750  34.863  33.546  10.954
97314W        W56751  41.019  19.640  11.566
97315W        W56752   4.333  13.144   3.776
97316W        W56753  31.120  32.546  11.567
97317W        W56754   7.675  25.519   5.652
97318W        W56755  44.949   5.365   0.877
97319W        W56756   8.303  16.805   4.336
97320W        W56757  12.196   3.745  13.345
97321W        W56758   1.748  30.962  11.867
97322W        W56759  32.140  20.226   2.263
97323W        W56760  21.729   1.915   3.322
97324W        W56761  35.574  36.918   2.217
97325W        W56762   4.845   9.390   2.409
97326W        W56763   4.235   8.183   4.132
97327W        W56764   4.449  33.460  14.296
97328W        W56765   7.877  41.363   4.270
97329W        W56766  41.924  24.190   0.777
97330W        W56767  42.807  34.026  10.093
97331W        W56768   4.876   2.287  10.112
97332W        W56769   9.880  27.536   0.436
97333W        W56770  37.524  26.049   3.860
97334W        W56771   8.844   1.311   2.256
97335W        W56772  30.937  25.195   3.366
97336W        W56773  18.664  14.187  11.016
97337W        W56774  13.632  14.669  13.374
97338W        W56775  30.637   8.334   0.892
97339W        W56776   2.798  22.032   2.788
97340W        W56777   0.952  21.019  10.631
97341W        W56778  31.919  10.290  14.379
97342W        W56779  31.459  32.476  10.528
97343W        W56780  13.766  37.380   2.755
97344W        W56781  17.656   2.287  11.508
97345W        W56782  29.120  21.677   4.139
97346W        W56783  10.815  30.115  11.119
97347W        W56784   2.894   7.779  12.845
97348W        W56785   5.806  35.525   0.867
97349W        W56786  20.047  23.180   1.833
97350W        W56787  35.978  20.600   0.281
97351W        W56788  33.953  23.143   1.925
97352W        W56789  17.599  28.020  13.823
97353W        W56790  27.643  24.182  14.397
97354W        W56791  26.644   1.855   3.179
97355W        W56792  23.212   2.408  12.034
97356W        W56793  39.338  14.589   2.186
97357W        W56794  40.371  35.433   3.778
97358W        W56795  31.140  13.753  14.318
97359W        W56796  32.960  32.439   3.637
97360W        W56797  44.900  24.994  11.544
97361W        W56798  34.582  22.070   9.477
97362W        W56799   9.743  17.139   2.770
97363W        W56800  41.786  38.034   2.747
97364W        W56801  36.593  24.660   0.391
97365W        W56802  22.744  14.187  12.975
97366W        W56803  25.133  25.024   2.839
97367W        W56804   5.407  27.468  12.993
97368W        W56805  44.493  24.602   1.268
97369W        W56806  25.169  15.751   4.700
97370W        W56807  43.860  28.936  14.500
97371W        W56808  21.241   8.883  14.834
97372W        W56809   0.486  28.128  14.463
97373W        W56810  20.686   2.819   4.299
97374W        W56811  31.581  17.715   0.766
97375W        W56812  38.552  37.489  13.925
97376W        W56813   8.368  13.312  12.943
97377W        W56814   9.350  34.578  11.551
97378W        W56815  18.204  19.653  11.017
97379W        W56816  34.873  10.656  14.944
97380W        W56817   9.749  41.505   2.707
97381W        W56818  33.875  30.607   2.852
97382W        W56819  27.029   3.444  11.444
97383W        W56820  40.914   4.419  11.924
97384W        W56821  13.182  33.115  12.947
97385W        W56822  14.115  14.129  13.004
97386W        W56823   6.718  17.215  11.106
97387W        W56824  14.723  21.692   0.842
97388W        W56825  40.548  23.515   0.446
97389W        W56826  40.465  27.536   2.799
97390W        W56827  14.729  40.833  10.538
97391W        W56828   2.882  33.411   4.762
97392W        W56829   5.336  42.307   4.698
97393W        W56830   5.742  12.728   0.865
97394W        W56831  15.751  38.924   4.724
97395W        W56832  17.598  34.941  14.329
97396W        W56833  33.602  17.175   3.287
97397W        W56834  36.430  10.798  14.448
97398W        W56835   3.833  22.653  14.962
97399W        W56836  43.388  30.074  11.985
97400W        W56837  35.081  33.521  12.086
97401W        W56838  30.987  40.516   5.283
97402W        W56839  36.896  12.759  11.874
97403W        W56840   7.700   5.286   3.795
97404W        W56841  14.110  27.618  13.999
97405W        W56842  22.137  40.908   4.264
97406W        W56843  12.169   9.206   0.453
97407W        W56844  13.238  34.039   4.668
97408W        W56845  26.137  30.094   3.356
97409W        W56846   0.455  17.555   2.313
97410W        W56847  16.204  31.932  12.361
97411W        W56848  10.787  17.139  11.546
97412W        W56849  12.692  28.931  11.058
97413W        W56850   4.760  26.134   2.236
97414W        W56851  41.405  10.214  13.801
97415W        W56852  20.693  17.299   0.447
97416W        W56853  25.544  10.833   5.711
97417W        W56854  31.118  32.463   3.336
97418W        W56855   1.943  14.299  13.931
97419W        W56856  21.042  19.075   2.849
97420W        W56857  13.794   6.348  11.589
97421W        W56858  30.465   1.850   1.896
97422W        W56859  26.998  34.011   2.281
97423W        W56860  15.257  35.041  13.969
97424W        W56861  17.060  31.939   5.083
97425W        W56862   5.266   6.189   0.402
97426W        W56863  29.644  18.762  10.610
97427W        W56864  34.915  19.101   3.788
97428W        W56865  16.699  37.469   2.777
97429W        W56866  20.123   7.394  13.413
97430W        W56867  14.286  16.706  12.441
97431W        W56868   5.340  41.881   4.660
97432W        W56869  36.513  37.370  11.011
97433W        W56870   9.208   2.912   2.277
97434W        W56871  36.875  11.360   1.865
97435W        W56872  14.626  12.330   4.607
97436W        W56873  15.208  32.990  10.985
97437W        W56874  25.546  37.986  14.908
97438W        W56875  42.316   2.891  13.882
97439W        W56876  42.364  40.435  12.825
97440W        W56877  21.207  15.297  12.455
97441W        W56878  16.581  13.769  11.457
97442W        W56879   9.707   2.421  14.481
97443W        W56880   2.894  39.818   4.598
97444W        W56881  33.511   9.296  13.523
97445W        W56882  17.217  19.666  14.815
97446W        W56883  41.900   1.468  12.371
97447W        W56884  39.472  40.414   3.178
97448W        W56885  32.113   4.843   3.652
97449W        W56886   2.306  43.273   1.281
97450W        W56887   5.431  15.091  11.888
97451W        W56888   6.697  31.638   4.308
97452W        W56889  24.997  10.197  10.090
97453W        W56890  40.493  25.584   2.777
97454W        W56891  43.448  33.439  11.976
97455W        W56892  44.809  27.502  11.431
97456W        W56893  16.239  41.996  13.837
97457W        W56894   8.784  39.014   2.283
97458W        W56895  20.089   4.814   4.268
97459W        W56896  11.726  37.491   9.995
97460W        W56897  42.800  13.798  14.950
97461W        W56898  25.479   0.800   4.273
97462W        W56899   3.418  17.105  11.488
97463W        W56900   5.415   9.385  14.362
97464W        W56901  22.059  23.705   2.701
97465W        W56902  24.988  34.099   4.308
97466W        W56903   9.739  34.893  14.916
97467W        W56904  16.666  15.655   2.777
97468W        W56905  40.455  38.346   0.279
97469W        W56906  13.119  23.545  13.835
97470W        W56907  38.382  15.177   2.325
97471W        W56908  29.536  13.706  10.444
97472W        W56909   5.687   9.169   2.404
97473W        W56910  10.280  18.588  10.416
97474W        W56911   4.813   0.841   0.476
97475W        W56912  21.615  12.173   3.795
97476W        W56913   4.278   1.818  12.361
97477W        W56914   8.801  17.589  10.483
97478W        W56915   4.369  21.186  12.515
97479W        W56916  32.586  11.311   1.706
97480W        W56917  42.846  41.915   0.305
97481W        W56918  34.864  12.241  11.094
97482W        W56919  15.286  31.513  13.375
97483W        W56920  27.570   4.731   2.361
97484W        W56921  17.626  18.616   1.834
97485W        W56922   0.404  17.646  12.982
97486W        W56923  12.639  40.329  12.826
97487W        W56924  43.279  12.653   0.793
97488W        W56925  15.246  30.516   3.186
97489W        W56926  42.903  42.508   2.265
97490W        W56927  19.155  12.841   1.873
97491W        W56928  22.545   1.375   2.898
97492W        W56929  22.504  16.191   5.137
97493W        W56930  25.615   4.867  14.965
97494W        W56931  44.946  13.790   1.275
97495W        W56932   5.926  30.970  14.863
97496W        W56933  19.756   9.347   2.844
97497W        W56934   9.754  38.392   0.283
97498W        W56935  22.543   4.263  14.337
97499W        W56936   3.917  34.448  14.375
97500W        W56937  22.092   3.317  12.038
97501W        W56938  21.669  19.676   2.765
97502W        W56939   5.919  44.809  10.522
97503W        W56940  21.032  23.174   0.296
97504W        W56941  26.080  29.659   2.788
97505W        W56942  36.009  36.911   2.802
97506W        W56943  26.546  12.817   5.593
97507W        W56944  16.765  38.477   3.212
97508W        W56945   4.775  17.156   0.251
97509W        W56946  39.420  33.901  14.905
97510W        W56947  41.395  43.443   2.297
97511W        W56948  43.484  36.466  12.932
97512W        W56949  15.271  18.675  12.414
97513W        W56950  41.808  40.048  13.543
97514W        W56951  15.603  30.931   5.258
97515W        W56952   3.360  39.967   1.892
97516W        W56953   4.833  41.534   3.764
97517W        W56954  31.039  21.101  11.054
97518W        W56955  10.873  14.683   1.435
97519W        W56956  26.967  15.617   2.689
97520W        W56957  21.123  39.325   3.644
97521W        W56958   6.897   9.340  10.422
97522W        W56959  23.671  17.561   2.314
97523W        W56960  12.119  19.142  11.498
97524W        W56961  24.540  40.337  12.475
97525W        W56962  30.931   5.822  14.883
97526W        W56963  39.009  12.141   4.735
97527W        W56964   8.207  38.857  10.974
97528W        W56965  21.261   4.359   0.466
97529W        W56966   6.190  23.017  11.903
97530W        W56967   4.701   5.357   4.309
97531W        W56968  26.511  42.485  14.871
97532W        W56969  12.668   5.288   4.288
97533W        W56970  44.414  20.057  11.520
97534W        W56971   8.734   8.265   0.893
97535W        W56972   3.308  13.723   5.254
97536W        W56973  12.257  10.812  10.947
97537W        W56974  18.096   9.281   2.774
97538W        W56975  30.976  33.052   2.777
97539W        W56976  21.671   2.426  14.833
97540W        W56977  31.145  33.983  11.084
97541W        W56978   1.318  13.745  14.831
97542W        W56979  13.284  43.874  10.547
97543W        W56980  39.452   1.950  14.007
97544W        W56981   2.261  37.936  13.791
97545W        W56982  42.781  22.085   3.662
97546W        W56983  21.633   0.320   3.645
97547W        W56984  32.908   3.713  10.412
97548W        W56985  38.862   4.917   4.343
97549W        W56986  28.121   8.811   5.295
97550W        W56987  21.656  44.917  11.551
97551W        W56988  11.623  38.917   3.630
97552W        W56989  16.766  13.112   4.181
97553W        W56990  38.005  23.986   2.785
97554W        W56991  25.542  23.597   3.756
97555W        W56992   2.355  29.458   0.906
97556W        W56993  38.539  28.981  11.608
97557W        W56994  40.323  19.199  10.968
97558W        W56995  17.230  41.816  11.405
97559W        W56996  12.653   8.678   3.342
97560W        W56997   9.307   1.248  13.434
97561W        W56998   5.221  34.978   2.679
97562W        W56999   8.326  43.423   0.752
97563W        W57000   7.314   0.980  10.595
97564W        W57001  41.512  27.516  12.390
97565W        W57002  22.081   3.774  11.993
97566W        W57003  40.470  36.884   2.343
97567W        W57004  44.002   8.167   2.765
97568W        W57005  40.798   4.295  10.904
97569W        W57006  44.360  43.816  14.962
97570W        W57007  35.103  34.945  14.404
97571W        W57008  34.376  32.572  12.063
97572W        W57009  18.158   5.206   1.745
97573W        W57010   7.389   3.273   2.873
97574W        W57011  19.130  32.583   3.206
97575W        W57012   3.788  21.600  10.937
97576W        W57013  17.113  13.262  11.482
97577W        W57014  20.648  24.494   2.402
97578W        W57015   9.815   5.789  11.022
97579W        W57016   4.266   3.723  14.386
97580W        W57017  32.532  34.066  12.416
97581W        W57018  12.326  31.997  10.564
97582W        W57019  31.536  10.758  11.461
97583W        W57020  22.716  21.542   3.321
97584W        W57021   3.325  17.671   1.305
97585W        W57022  27.002  42.376   4.799
97586W        W57023  31.983  36.466  14.372
97587W        W57024  16.810  16.176   2.891
97588W        W57025  14.213  26.543  10.485
97589W        W57026  27.158  24.138   9.566
97590W        W57027  30.152  40.528  13.495
97591W        W57028   2.793  41.035   1.709
97592W        W57029  30.475  33.066   4.832
97593W        W57030   8.678  12.262   1.222
97594W        W57031  34.376  41.451  12.467
97595W        W57032  18.270  36.002  14.812
97596W        W57033   4.818   9.278   0.736
97597W        W57034   4.915  23.041  13.450
97598W        W57035   7.259  14.194  12.885
97599W        W57036  26.493  40.817   4.668
97600W        W57037  30.984   2.814  10.975
97601W        W57038   5.706   8.309   4.755
97602W        W57039   9.774  15.689   0.253
97603W        W57040  31.637  16.216  13.799
97604W        W57041   7.257  29.142  14.800
97605W        W57042  13.264  11.781   0.902
97606W        W57043   0.262  31.407   0.353
97607W        W57044  21.219  22.559   3.353
97608W        W57045  44.485  17.722  13.456
97609W        W57046  12.148  39.536  12.474
97610W        W57047  31.547  43.376   0.466
97611W        W57048  19.738   6.319   3.675
97612W        W57049   1.286  18.189   2.767
97613W        W57050  10.762   7.370  10.979
97614W        W57051  16.682  27.171  14.927
97615W        W57052  26.634  42.876  11.468
97616W        W57053   9.280  22.162   0.845
97617W        W57054   2.808  24.568  14.950
97618W        W57055  34.075  27.570   3.305
97619W        W57056   3.338  22.678  13.426
97620W        W57057  35.038  28.626   3.709
97621W        W57058   4.336   0.488   1.376
97622W        W57059  28.934  26.554  10.894
97623W        W57060  20.155  39.383   2.328
97624W        W57061  20.552   7.877   1.866
97625W        W57062  37.067  25.983   0.252
97626W        W57063  16.626  39.554   0.292
97627W        W57064  10.345   6.798   4.314
97628W        W57065   3.299  17.123  13.981
97629W        W57066  34.947  25.164  14.889
97630W        W57067   5.223   4.767  11.029
97631W        W57068  44.937  31.056  14.341
97632W        W57069  24.570   7.694  12.029
97633W        W57070   1.236  44.855   3.295
97634W        W57071  34.995  40.960   4.806
97635W        W57072   9.377   4.942  12.472
97636W        W57073   3.450   3.330   4.798
97637W        W57074  21.194  14.252  14.281
97638W        W57075  29.123  15.778   3.749
97639W        W57076  27.949   7.795  10.949
97640W        W57077  16.746  17.775  13.899
97641W        W57078  22.252   7.890   1.795
97642W        W57079   9.710  21.701   4.120
97643W        W57080  38.390  36.371   0.415
97644W        W57081  21.074   5.780  11.572
97645W        W57082   3.874  38.915  10.983
97646W        W57083  44.850  27.048  13.497
97647W        W57084  19.215   3.362   1.388
97648W        W57085   5.282  21.181   1.729
97649W        W57086  23.175   4.254  10.510
97650W        W57087   1.754  15.180   3.856
97651W        W57088   6.742  43.271   2.317
97652W        W57089  23.189  11.345   3.232
97653W        W57090  44.385  29.079   0.923
97654W        W57091   6.856   3.451  12.851
97655W        W57092  23.155   4.377  14.838
97656W        W57093   6.728  35.578   3.266
97657W        W57094  23.718  26.030  14.399
97658W        W57095  29.058  29.166  10.896
97659W        W57096   1.333  14.619   0.466
97660W        W57097   2.836   7.210   1.803
97661W        W57098  19.703   5.702  14.298
97662W        W57099  25.074   4.334  11.464
97663W        W57100  17.576  17.656   1.887
97664W        W57101  36.348  34.567  12.546
97665W        W57102   0.348  28.171   4.331
97666W        W57103  11.818  44.993  10.444
97667W        W57104   9.288  36.888   3.771
97668W        W57105   9.744  15.731  13.046
97669W        W57106   2.328  15.309   4.700
97670W        W57107  11.714  24.135   1.415
97671W        W57108  20.189  42.848   0.911
97672W        W57109   6.841  29.501   5.265
97673W        W57110  43.316   4.414  10.554
97674W        W57111  14.238  42.923  10.041
97675W        W57112   2.750  10.858   0.463
97676W        W57113  25.101  28.639  10.565
97677W        W57114  35.922   7.877   0.937
97678W        W57115  13.282   6.894  11.875
97679W        W57116  15.815  18.172  10.468
97680W        W57117  36.906  32.915  10.984
97681W        W57118  13.722  21.709   2.786
97682W        W57119  34.097  30.023   2.893
97683W        W57120  17.735  22.623   1.356
97684W        W57121  35.902  26.543  12.857
97685W        W57122  37.977  10.856  11.877
97686W        W57123   2.804  44.890  13.930
97687W        W57124  26.459  22.536   3.373
97688W        W57125  28.118   9.828  14.868
97689W        W57126  37.878  39.388  12.992
97690W        W57127   4.741  35.878   4.260
97691W        W57128  15.200  31.051  11.116
97692W        W57129  17.664  20.722   4.730
97693W        W57130   2.397  16.285  13.839
97694W        W57131  39.953  30.644   3.240
97695W        W57132   3.458  20.741   2.792
97696W        W57133  22.684  31.065  12.018
97697W        W57134  32.894  40.007  14.918
97698W        W57135  19.767  22.608   2.280
97699W        W57136  33.914  29.480  10.560
97700W        W57137  33.574  37.364   1.231
97701W        W57138   9.236  29.998  13.377
97702W        W57139   5.735  38.440   1.337
97703W        W57140  24.670  32.441  10.962
97704W        W57141   9.295   1.782   0.940
97705W        W57142  27.066  26.068   2.746
97706W        W57143   7.208  32.572  14.303
97707W        W57144  34.921   8.871  14.389
97708W        W57145  30.479  11.815  11.485
97709W        W57146   3.803  44.428   0.335
97710W        W57147  11.832   6.347   4.127
97711W        W57148  34.442  39.534  14.916
97712W        W57149  18.233  27.651  11.107
97713W        W57150  44.806  41.850   0.734
97714W        W57151  39.329  25.662   3.282
97715W        W57152  27.942  23.545   2.889
97716W        W57153  12.726  29.018   2.375
97717W        W57154  27.566  42.422  14.814
97718W        W57155   9.364  28.969  12.904
97719W        W57156  43.766  12.204  10.407
97720W        W57157   5.280  44.997   2.666
97721W        W57158  18.283  21.096   2.885
97722W        W57159   9.767   5.388   4.772
97723W        W57160   1.249  43.007   0.261
97724W        W57161  38.441  26.047   2.864
97725W        W57162  33.952  25.530  14.847
97726W        W57163   4.357  12.202  13.522
97727W        W57164  34.007  32.960  12.902
97728W        W57165  13.128   7.292   4.652
97729W        W57166  37.381   8.744  10.425
97730W        W57167  25.607  27.672   0.734
97731W        W57168  28.619  41.469  14.512
97732W        W57169  15.673  24.214  11.903
97733W        W57170  26.075   3.856  12.368
97734W        W57171  41.474  18.640  14.922
97735W        W57172   5.276  12.186  12.578
97736W        W57173  44.002  15.225  11.951
97737W        W57174  30.515  19.267  13.882
97738W        W57175  11.284   1.483   0.868
97739W        W57176   9.312  20.702  10.538
97740W        W57177  12.253   2.724   3.187
97741W        W57178   2.937  44.964  10.476
97742W        W57179  17.248   7.232   3.196
97743W        W57180   8.277  29.513  13.962
97744W        W57181   9.717  43.778  13.447
97745W        W57182  40.952   6.777   0.835
97746W        W57183  28.110  30.128   3.701
97747W        W57184   6.339  41.494   1.434
97748W        W57185  16.160  13.236  11.033
97749W        W57186  32.030  44.488   3.250
97750W        W57187  40.328   3.275   1.423
97751W        W57188  27.534   4.842   1.780
97752W        W57189  41.010  10.381  14.295
97753W        W57190  30.000  31.469  10.639
97754W        W57191  35.862  10.203  12.049
97755W        W57192  15.767   3.927  12.045
97756W        W57193  14.750  42.432   3.698
97757W        W57194  41.813   3.293   9.995
97758W        W57195  44.772  44.867   4.244
97759W        W57196   7.730  11.273  12.430
97760W        W57197  13.293  27.130   4.269
97761W        W57198  13.681   1.461  10.433
97762W        W57199  21.229  35.432   2.298
97763W        W57200   0.333  20.035   3.679
97764W        W57201  36.367  30.028  13.861
97765W        W57202   4.897  42.028   0.751
97766W        W57203   2.933   0.398   2.758
97767W        W57204  31.149  11.661   4.717
97768W        W57205  25.143  27.129  12.474
97769W        W57206  12.615  26.114  14.988
97770W        W57207   4.805  38.552   2.330
97771W        W57208  26.974  12.139  10.101
97772W        W57209  28.060  41.824   0.242
97773W        W57210  36.991  25.975   0.866
97774W        W57211   7.285  42.485  14.345
97775W        W57212  18.169  39.041  14.770
97776W        W57213  14.664  29.991   2.894
97777W        W57214   9.873  15.272  10.521
97778W        W57215  41.296   7.695  11.899
97779W        W57216  13.825  12.660   2.857
97780W        W57217  12.747   6.289   2.368
97781W        W57218  30.597  30.428   3.337
97782W        W57219   1.865  18.191  13.020
97783W        W57220  22.246  39.827  11.934
97784W        W57221  36.942  15.695  11.490
97785W        W57222  15.601  23.496  11.597
97786W        W57223  10.274  18.083  14.419
97787W        W57224   6.762  19.684  13.366
97788W        W57225  12.622  34.497   3.819
97789W        W57226  27.614  16.661  12.046
97790W        W57227  22.997  13.147  13.039
97791W        W57228  13.249   0.786   4.668
97792W        W57229   4.213  21.031  13.809
97793W        W57230  25.063  31.972  12.892
97794W        W57231   1.470  26.665   2.379
97795W        W57232  16.703  29.603  11.598
97796W        W57233   5.753  24.053   4.752
97797W        W57234  40.508   5.895  14.889
97798W        W57235  22.588  35.022  12.022
97799W        W57236  42.956  26.182   2.411
97800W        W57237   1.402  26.125   3.715
97801W        W57238  37.072  29.028  10.467
97802W        W57239  42.307   4.700   4.619
97803W        W57240   1.386  23.630   0.778
97804W        W57241  11.218   3.737  11.909
97805W        W57242  16.300  20.525  12.857
97806W        W57243  19.269   9.834  13.372
97807W        W57244  35.439  28.171   3.308
97808W        W57245  13.217  27.977   2.189
97809W        W57246  43.879  22.641   4.169
97810W        W57247  31.637  42.497  12.385
97811W        W57248  40.393  26.111  14.787
97812W        W57249  23.168  12.735  13.457
97813W        W57250  44.959  25.548  10.564
97814W        W57251  16.714  35.078   2.705
97815W        W57252  39.410   6.702  14.866
97816W        W57253  41.379  21.249  13.028
97817W        W57254  11.372  36.039   3.343
97818W        W57255   3.820  14.104   1.720
97819W        W57256  13.810  43.835   1.301
97820W        W57257  39.032   7.868  14.499
97821W        W57258  38.354  11.241  14.029
97822W        W57259  13.254  22.044   3.262
97823W        W57260  29.511  29.471  10.422
97824W        W57261  16.099  16.586   2.744
97825W        W57262  36.936  21.156   4.306
97826W        W57263  41.345  33.489   4.217
97827W        W57264  22.593  34.413  12.958
97828W        W57265  18.581  13.715  12.360
97829W        W57266  11.370  24.592  12.082
97830W        W57267  35.885  25.986  13.791
97831W        W57268   7.315  25.032  14.889
97832W        W57269  36.399   3.909   4.300
97833W        W57270  10.319  19.610  11.407
97834W        W57271  12.255  41.809  11.405
97835W        W57272  37.917   3.388   0.952
97836W        W57273   2.856   4.792   3.855
97837W        W57274   1.817  21.148  10.549
97838W        W57275   5.321  38.881   3.294
97839W        W57276   5.201  17.710   1.918
97840W        W57277   0.874  30.620  10.561
97841W        W57278   4.420  13.247  13.519
97842W        W57279  28.072  26.475   4.797
97843W        W57280  15.718  13.323   1.373
97844W        W57281  43.459  22.187  13.845
97845W        W57282   8.872  33.455  12.363
97846W        W57283  34.470  20.152   1.769
97847W        W57284  14.170  27.518   3.201
97848W        W57285   5.806  20.722  14.888
97849W        W57286  23.238  10.808   3.804
97850W        W57287  18.578  31.486   3.381
97851W        W57288  17.206  18.222   0.936
97852W        W57289   1.402  20.690   1.299
97853W        W57290  28.591  34.428  11.380
97854W        W57291  24.997  43.490   1.276
97855W        W57292  19.591  20.722   0.879
97856W        W57293  12.282  31.028  11.864
97857W        W57294  15.188  19.211   0.729
97858W        W57295  14.283  13.792  11.968
97859W        W57296   3.807   2.371  10.613
97860W        W57297  12.777  27.446  13.312
97861W        W57298  15.178  32.485   3.739
97862W        W57299   0.307  29.149   3.799
97863W        W57300   2.434  19.730   4.258
97864W        W57301   8.837  20.639  12.492
97865W        W57302  21.746   7.363  13.943
97866W        W57303  17.157   9.327  13.937
97867W        W57304  38.399   9.358   1.300
97868W        W57305  19.687   4.293  10.487
97869W        W57306  41.490  20.265   0.816
97870W        W57307   0.292  42.816   0.900
97871W        W57308  29.075  40.952   0.460
97872W        W57309  43.271  36.071   2.333
97873W        W57310  24.149  34.942   4.139
97874W        W57311  40.464  18.748  10.565
97875W        W57312   9.281  31.050   0.770
97876W        W57313  23.177  30.593  13.974
97877W        W57314  22.700  37.497   2.853
97878W        W57315  28.659  30.501  13.995
97879W        W57316   3.716   8.886  13.973
97880W        W57317  12.627   2.232  11.583
97881W        W57318  25.196  40.943   9.445
97882W        W57319  11.296  14.115  11.004
97883W        W57320  28.952  32.513  11.935
97884W        W57321  12.786   6.366  13.920
97885W        W57322  16.085  31.589  13.837
97886W        W57323  30.132  16.798  14.357
97887W        W57324   9.166  44.841  11.452
97888W        W57325  43.415   1.914  14.432
97889W        W57326  40.543   8.876  12.356
97890W        W57327   0.743  39.907  14.964
97891W        W57328  24.568  38.874  14.820
97892W        W57329  31.928  40.836  14.013
97893W        W57330  14.735   3.232  11.886
97894W        W57331  13.782  26.525  12.546
97895W        W57332  12.140  25.992   3.636
97896W        W57333   3.937  25.193  10.411
97897W        W57334  18.762   7.902  10.936
97898W        W57335  26.118   0.370  12.471
97899W        W57336  20.714  44.848   1.738
97900W        W57337  37.834  12.834   2.416
97901W        W57338  13.214  19.608   4.169
97902W        W57339  28.038   2.872  13.857
97903W        W57340  31.118  44.492   2.331
97904W        W57341   0.370   9.389  10.948
97905W        W57342  13.772  15.148   4.123
97906W        W57343  42.966  12.276   4.313
97907W        W57344   6.690  38.406   0.322
97908W        W57345  26.520  19.780  11.470
97909W        W57346  14.331   4.900   0.830
97910W        W57347   4.926  30.438  11.971
97911W        W57348  30.073  21.081   2.230
97912W        W57349  18.066  35.910   4.735
97913W        W57350  11.671  32.075  13.837
97914W        W57351  12.116  29.117  14.933
97915W        W57352  31.580  34.020   2.309
97916W        W57353  31.985  27.133   0.383
97917W        W57354  33.118   1.362   3.148
97918W        W57355  40.828   5.911   4.621
97919W        W57356  21.113  13.608   1.748
97920W        W57357   4.391  14.630  12.508
97921W        W57358  27.454   9.687  14.373
97922W        W57359  27.091  36.502  11.017
97923W        W57360  35.870   7.381  14.446
97924W        W57361  38.424  34.420  14.999
97925W        W57362  16.660  17.264   1.794
97926W        W57363  11.688  33.527  11.401
97927W        W57364  14.268  35.073   1.775
97928W        W57365  33.427  11.755   1.768
97929W        W57366  22.042   2.280  12.365
97930W        W57367  30.425  10.849  14.484
97931W        W57368  36.909   7.870   4.667
97932W        W57369  19.581  37.557   0.364
97933W        W57370  25.483  39.043   2.237
97934W        W57371   4.762  12.198   4.137
97935W        W57372  23.522  14.670  12.877
97936W        W57373   7.834  18.780   0.866
97937W        W57374  28.974  15.329   1.353
97938W        W57375   8.392   5.700   2.328
97939W        W57376   8.862  12.802   2.677
97940W        W57377  21.232  12.303  12.377
97941W        W57378  28.669  38.549  11.052
97942W        W57379  33.443  29.647  13.545
97943W        W57380  26.205   6.773   4.197
97944W        W57381   4.303  17.623  10.618
97945W        W57382  33.451   1.403  12.487
97946W        W57383  29.656  35.473   1.225
97947W        W57384  22.085   6.857  10.570
97948W        W57385  20.708  12.206   3.345
97949W        W57386   6.205  26.061   2.186
97950W        W57387  20.144   6.335  14.860
97951W        W57388  39.820   8.849   3.853
97952W        W57389   1.967  28.937  10.603
97953W        W57390  10.365  35.473   2.816
97954W        W57391  15.308  28.035   3.213
97955W        W57392  13.206  15.744   0.925
97956W        W57393  25.668  15.099   0.410
97957W        W57394  28.502  26.148  14.939
97958W        W57395  44.442   1.467   5.268
97959W        W57396  42.825   2.894   0.267
97960W        W57397  31.424   7.689   4.771
97961W        W57398  21.662  11.681   0.416
97962W        W57399   0.487  14.114   9.937
97963W        W57400  25.137  29.652  11.087
97964W        W57401  34.997  11.808  14.438
97965W        W57402  12.160   2.886  12.010
97966W        W57403   7.369  10.210  12.927
97967W        W57404  32.496  29.141   1.352
97968W        W57405  26.600   5.255  13.321
97969W        W57406  35.484  10.709  13.970
97970W        W57407  39.545  26.066  13.953
97971W        W57408  40.839  35.109   3.851
97972W        W57409  41.420  20.746  11.530
97973W        W57410  39.877   0.321  13.342
97974W        W57411  44.438  10.289  13.894
97975W        W57412  27.001  14.711   1.917
97976W        W57413  38.998  38.529   1.276
97977W        W57414  17.159  37.936  10.026
97978W        W57415   8.898   7.825  12.375
97979W        W57416   1.774  41.456  11.435
97980W        W57417  10.788  34.996  13.949
97981W        W57418  36.841   7.883  12.506
97982W        W57419  21.108   8.317   3.172
97983W        W57420  34.374  27.469   3.839
97984W        W57421  22.199   4.866  13.027
97985W        W57422  14.730  25.090  13.922
97986W        W57423  39.536   2.727   2.817
97987W        W57424  43.886  43.895   2.187
97988W        W57425   6.320  19.704  14.893
97989W        W57426   8.388  37.496   2.261
97990W        W57427  20.643  44.877   0.837
97991W        W57428   1.453  12.615   0.829
97992W        W57429  38.867  17.247   4.292
97993W        W57430  27.093  25.049  12.534
97994W        W57431  24.576  38.922   2.687
97995W        W57432   4.813   4.219   0.388
97996W        W57433   9.356  23.187  14.446
97997W        W57434  35.529  31.545  13.972
97998W        W57435  14.698  15.658   1.224
97999W        W57436  39.385  43.825  13.002
98000W        W57437   7.751   0.255   2.743
98001W        W57438  35.388  13.720  12.412
98002W        W57439  39.461  25.670   1.225
98003W        W57440  21.183   3.461   1.388
98004W        W57441  13.229  33.959  13.928
98005W        W57442  14.734  32.113   4.301
98006W        W57443   1.966  17.569  13.957
98007W        W57444  12.344   2.946  13.982
98008W        W57445  29.956   7.893   1.401
98009W        W57446  21.530  31.926   0.352
98010W        W57447  25.480  41.375   4.724
98011W        W57448  37.958   1.954  14.302
98012W        W57449  17.266  16.124   3.168
98013W        W57450  31.585   1.254   3.704
98014W        W57451  13.661  40.913  11.043
98015W        W57452  40.017  32.402   2.870
98016W        W57453  15.198  36.863  11.866
98017W        W57454  37.354   6.285   2.717
98018W        W57455  44.382  22.679  11.034
98019W        W57456  26.204  38.848  12.022
98020W        W57457  25.199  20.227   3.848
98021W        W57458  32.114  27.171  14.910
98022W        W57459  27.090  42.411   0.878
98023W        W57460   4.716  39.875   0.781
98024W        W57461  33.990   7.699   2.262
98025W        W57462  44.007   0.866   1.403
98026W        W57463  22.584  26.169  12.380
98027W        W57464  28.049  30.464   2.788
98028W        W57465  40.418  14.835   0.447
98029W        W57466  15.329  14.094   2.363
98030W        W57467  42.338  25.587   2.808
98031W        W57468  20.576  36.587   3.857
98032W        W57469  24.501  14.290   3.696
98033W        W57470  34.506  12.149   3.273
98034W        W57471  36.530  44.338   9.934
98035W        W57472  28.965  10.846   9.671
98036W        W57473  39.836  43.764   1.276
98037W        W57474  10.693   0.890  11.398
98038W        W57475   7.235  36.898  11.069
98039W        W57476   8.272  10.365  13.430
98040W        W57477  40.975  14.606   3.328
98041W        W57478  42.945  40.812  14.799
98042W        W57479  23.208  37.945   1.380
98043W        W57480  43.301   3.428  11.563
98044W        W57481  29.455  17.215   3.195
98045W        W57482  15.295   5.824   3.182
98046W        W57483   9.196   6.829  12.569
98047W        W57484   1.929  10.217  13.454
98048W        W57485  43.454   1.968   0.271
98049W        W57486  16.202  15.765  10.602
98050W        W57487  36.853  30.456   2.348
98051W        W57488   3.458  20.262   1.387
98052W        W57489  30.015  37.408   3.869
98053W        W57490   7.863   0.493   0.771
98054W        W57491  35.600  42.955  11.499
98055W        W57492  39.976  31.925   0.797
98056W        W57493  44.904   1.442   4.316
98057W        W57494  29.547  31.427   4.167
98058W        W57495  44.772  25.092  11.932
98059W        W57496   3.790  13.786   0.824
98060W        W57497  42.785  43.283  10.537
98061W        W57498  23.026  11.130  10.001
98062W        W57499  41.484  24.652   0.472
98063W        W57500  18.575   4.255   3.838
98064W        W57501  21.605  30.120   3.382
98065W        W57502   9.320   3.309  13.500
98066W        W57503  34.543  19.284  12.051
98067W        W57504  27.681  34.055  14.769
98068W        W57505  10.339  36.846   4.782
98069W        W57506  31.970   1.447  14.953
98070W        W57507   9.358   6.874   0.470
98071W        W57508  34.475   8.668   4.683
98072W        W57509  25.547  23.228   0.929
98073W        W57510  36.573   6.361   2.236
98074W        W57511  40.920   6.361  10.579
98075W        W57512  43.936  40.521   1.272
98076W        W57513  15.254  31.037   4.796
98077W        W57514  24.023  23.016   5.691
98078W        W57515  44.803  28.176   4.277
98079W        W57516  27.611  18.050   1.433
98080W        W57517  29.019  16.087  11.102
98081W        W57518  19.207  36.975  13.392
98082W        W57519  26.015  35.912  14.896
98083W        W57520  29.042  40.423   1.855
98084W        W57521   8.220  30.555   0.760
98085W        W57522  41.408  33.617  13.814
98086W        W57523  20.152  16.723   1.837
98087W        W57524   2.820  14.727  11.883
98088W        W57525  38.045  18.730   2.803
98089W        W57526   2.805  38.570  14.980
98090W        W57527  10.653  38.006   1.849
98091W        W57528   6.843  17.697  11.042
98092W        W57529   5.273  24.047   2.186
98093W        W57530  22.644  24.510  11.092
98094W        W57531  42.403  41.974  14.794
98095W        W57532  22.725   0.397   4.319
98096W        W57533   7.211   7.350  11.526
98097W        W57534   8.848  15.745  10.539
98098W        W57535  42.986   3.232   0.745
98099W        W57536   3.362  14.180   4.812
98100W        W57537   7.391  14.656   1.914
98101W        W57538   8.669  14.669  12.561
98102W        W57539   4.854  39.010  13.354
98103W        W57540  20.565   1.812   0.794
98104W        W57541  29.621  11.182   4.722
98105W        W57542  25.677   4.752  12.042
98106W        W57543   2.388  17.182  11.518
98107W        W57544  36.454  31.096  14.815
98108W        W57545  13.794  30.027   1.244
98109W        W57546   2.927  21.221  13.430
98110W        W57547  14.649  16.127  14.341
98111W        W57548  20.688  10.729  14.352
98112W        W57549   1.737   4.395  12.401
98113W        W57550  23.535   3.729  12.093
98114W        W57551   0.375  40.855  12.457
98115W        W57552  28.061  40.485  13.937
98116W        W57553  30.147  12.681   3.316
98117W        W57554   6.423  23.544  13.311
98118W        W57555  29.529  34.049  12.899
98119W        W57556  17.307  35.379  13.337
98120W        W57557  21.665  29.555  14.807
98121W        W57558  25.062  35.549  11.485
98122W        W57559  19.544   4.335   2.299
98123W        W57560  23.597  18.789   2.366
98124W        W57561   2.839   2.270  10.524
98125W        W57562  35.039  18.211  13.348
98126W        W57563  12.631   0.919   0.961
98127W        W57564  41.922  24.597   1.935
98128W        W57565  35.410  22.150  11.606
98129W        W57566  15.791  19.100   2.372
98130W        W57567  19.257  28.948   0.795
98131W        W57568  23.218  22.162  10.638
98132W        W57569  20.637  23.585   3.319
98133W        W57570  22.551   8.892  14.852
98134W        W57571  13.720  30.649  10.533
98135W        W57572  21.610  18.694  12.394
98136W        W57573  31.141   1.329  12.387
98137W        W57574   2.777  15.093   3.706
98138W        W57575  42.842  39.986  13.528
98139W        W57576  30.443  31.153  11.015
98140W        W57577  43.883   4.308  11.039
98141W        W57578  24.592  29.628  13.914
98142W        W57579  23.187  31.951   2.400
98143W        W57580  33.546  43.003  13.322
98144W        W57581  29.581  41.365   3.353
98145W        W57582  24.195  28.041   2.335
98146W        W57583  15.638  19.282   3.737
98147W        W57584  16.203   4.372  12.878
98148W        W57585  14.228  42.778   0.962
98149W        W57586   8.368   8.779   3.685
98150W        W57587   8.386   1.876  10.615
98151W        W57588  31.061  35.871   9.942
98152W        W57589  32.552  35.581  12.438
98153W        W57590  10.803  10.764  12.884
98154W        W57591  31.492  30.537  11.878
98155W        W57592  35.944  30.477  11.497
98156W        W57593  29.090   6.384  14.877
98157W        W57594  37.477  19.246   1.275
98158W        W57595  40.399  44.296   2.711
98159W        W57596  39.809  26.562  11.500
98160W        W57597  11.218  42.995   2.739
98161W        W57598  29.614   0.745   4.171
98162W        W57599  22.627  41.298  10.507
98163W        W57600  28.937  32.907   1.284
98164W        W57601  39.965  35.870   0.809
98165W        W57602  37.917  39.336   1.261
98166W        W57603  29.580  19.672  13.824
98167W        W57604  28.933  13.128  11.924
98168W        W57605   8.270  13.197  14.012
98169W        W57606   6.722  32.532   0.887
98170W        W57607   2.893  15.606   4.818
98171W        W57608   2.436  12.227   1.773
98172W        W57609  21.164  43.408  12.982
98173W        W57610   4.875   2.934   4.132
98174W        W57611  23.184   3.257  13.987
98175W        W57612   5.906   5.903  14.997
98176W        W57613  11.827   8.865  12.414
98177W        W57614  35.969  36.489  10.466
98178W        W57615   1.902  21.756  11.407
98179W        W57616  41.343  21.607   4.812
98180W        W57617  27.093  19.065   2.783
98181W        W57618  38.869  26.062  14.780
98182W        W57619   6.881  13.124  14.285
98183W        W57620   6.687  38.353  10.629
98184W        W57621  44.872  17.792   2.391
98185W        W57622   6.695  10.207  13.485
98186W        W57623   2.274  11.802   3.817
98187W        W57624   8.261  42.882   3.688
98188W        W57625  41.293  27.595   4.710
98189W        W57626  31.070  30.994   3.225
98190W        W57627   4.894  41.312   4.624
98191W        W57628   3.793  14.183   3.331
98192W        W57629  27.071  39.938   4.731
98193W        W57630  17.165  21.642  13.853
98194W        W57631  36.088  41.043  11.120
98195W        W57632  11.135  19.120   2.819
98196W        W57633  11.279  26.552   5.180
98197W        W57634  42.801  20.212   0.406
98198W        W57635  11.672  28.562   2.303
98199W        W57636  27.580   3.303  11.553
98200W        W57637   9.796   9.698   4.182
98201W        W57638  27.592  15.731  14.355
98202W        W57639   8.351  31.638  13.906
98203W        W57640   0.898   2.401  13.443
98204W        W57641  16.611  20.073   2.233
98205W        W57642  27.097  35.497   3.723
98206W        W57643  39.444  24.151   3.293
98207W        W57644  25.127  19.042   3.827
98208W        W57645  20.626  29.619   1.311
98209W        W57646  19.068  29.925   0.300
98210W        W57647   2.741  24.577  11.505
98211W        W57648  33.061  20.688   3.648
98212W        W57649  14.589  44.388  13.545
98213W        W57650   8.182   6.224   3.208
98214W        W57651  23.034   7.242   3.185
98215W        W57652  15.729  39.539  12.951
98216W        W57653  19.605  30.982  13.507
98217W        W57654  43.855  32.951  12.401
98218W        W57655  31.987  36.902  11.861
98219W        W57656   0.347  30.994  14.883
98220W        W57657  21.591  13.780   4.677
98221W        W57658  10.839  27.529  13.061
98222W        W57659  40.917  19.136  11.894
98223W        W57660  31.995  11.829   4.278
98224W        W57661  31.148  44.813   0.875
98225W        W57662  22.173  28.094   1.424
98226W        W57663   8.710   5.313   3.718
98227W        W57664  41.518  29.946  11.966
98228W        W57665  30.954  37.837  12.574
98229W        W57666  35.999  21.754   2.316
98230W        W57667   1.451   0.476   4.739
98231W        W57668  42.894   0.348  13.021
98232W        W57669  34.952  40.851   0.831
98233W        W57670  23.506  26.491  12.884
98234W        W57671  12.301   4.746  10.509
98235W        W57672  26.069  36.981   9.927
98236W        W57673  35.475   0.393   1.751
98237W        W57674  36.911   7.712  13.512
98238W        W57675  34.382   0.298  10.417
98239W        W57676  41.360   7.181  10.917
98240W        W57677  26.096  38.858  14.981
98241W        W57678  27.118   4.699  12.514
98242W        W57679   5.759  30.527   2.798
98243W        W57680  31.576  14.258   1.910
98244W        W57681  22.124  41.848  10.626
98245W        W57682  43.882  30.472   3.235
98246W        W57683   6.881  15.823  10.496
98247W        W57684  11.171  26.602  13.353
98248W        W57685  28.061   3.804  14.768
98249W        W57686  29.919  43.780  14.963
98250W        W57687   5.400  21.179   1.405
98251W        W57688  43.799  27.562   3.643
98252W        W57689  35.504   3.734   1.843
98253W        W57690   3.268  23.989   3.642
98254W        W57691  10.234  18.171   0.382
98255W        W57692  28.593   9.155  13.415
98256W        W57693  26.009  29.477  13.847
98257W        W57694   3.400   1.911  11.534
98258W        W57695  20.524   8.263  14.415
98259W        W57696  27.172   9.710  14.765
98260W        W57697  29.116  28.522  13.051
98261W        W57698  39.386  17.725   4.771
98262W        W57699  22.142  30.651  10.462
98263W        W57700  40.926  37.835  13.925
98264W        W57701  21.158  38.843  14.893
98265W        W57702   2.727  38.908  14.422
98266W        W57703   3.377   8.392   3.851
98267W        W57704  35.889   5.688   1.869
98268W        W57705  18.235  19.707   2.230
98269W        W57706  24.500  36.385   2.210
98270W        W57707  42.031  26.130   0.435
98271W        W57708  19.537  10.693   4.284
98272W        W57709  17.189  15.662   5.232
98273W        W57710  35.076  30.575   9.996
98274W        W57711  21.160  28.457  11.544
98275W        W57712  26.579  42.359   3.661
98276W        W57713  27.979  19.114   4.316
98277W        W57714  32.018  40.923   0.797
98278W        W57715   3.340  40.317  12.498
98279W        W57716   7.330   4.799  11.926
98280W        W57717  22.189   8.269  11.547
98281W        W57718  44.450  10.304   2.230
98282W        W57719  17.303   2.243   3.867
98283W        W57720  38.547   4.907  12.374
98284W        W57721  22.655  38.518  12.005
98285W        W57722  16.625  31.906  12.880
98286W        W57723   2.797   1.354  10.575
98287W        W57724  28.106  40.025   3.762
98288W        W57725   3.946  16.706   1.334
98289W        W57726  19.590  16.162  13.922
98290W        W57727  20.224  24.989  14.396
98291W        W57728   0.917  31.642  12.076
98292W        W57729  41.845  32.610   3.684
98293W        W57730  35.944  44.431  10.593
98294W        W57731  30.159  24.612   2.350
98295W        W57732  43.289  19.153  14.952
98296W        W57733   2.921  20.199  12.455
98297W        W57734  35.578  26.201   3.363
98298W        W57735  25.582  28.129   4.251
98299W        W57736  14.737  10.662  12.963
98300W        W57737  40.526  36.995  13.021
98301W        W57738  27.155  33.624  14.480
98302W        W57739  19.753  17.618  13.861
98303W        W57740  38.343  20.714   3.663
98304W        W57741  37.569  39.875   2.887
98305W        W57742  16.782  31.591   3.198
98306W        W57743  17.143  25.490  13.874
98307W        W57744  33.575  31.626   1.338
98308W        W57745  16.698   3.785  13.548
98309W        W57746  38.992  42.871  14.812
98310W        W57747  19.551  25.683   4.629
98311W        W57748  20.739  12.343   4.815
98312W        W57749  18.249  40.825   2.752
98313W        W57750   4.339   7.737   4.263
98314W        W57751   6.685  25.497   5.767
98315W        W57752  27.647  12.721   5.321
98316W        W57753  38.986  10.684  12.850
98317W        W57754   1.443  43.330  13.872
98318W        W57755  10.242  21.591  13.904
98319W        W57756   7.305  19.246  12.490
98320W        W57757  20.539   3.872  11.379
98321W        W57758  12.716  27.613  14.376
98322W        W57759  30.925  21.531   4.762
98323W        W57760  13.825  32.625  14.794
98324W        W57761  19.738  44.267   5.193
98325W        W57762  21.226   8.298   4.132
98326W        W57763  34.046  42.315   0.747
98327W        W57764  30.567   1.783   1.242
98328W        W57765  35.600  37.914  10.080
98329W        W57766   9.824  35.518   3.741
98330W        W57767   1.784  38.933  14.430
98331W        W57768  15.135  18.660   3.798
98332W        W57769  10.750  14.264   2.780
98333W        W57770  26.629   6.270  13.871
98334W        W57771   7.406  33.593   0.908
98335W        W57772  17.269   3.215  12.092
98336W        W57773  44.282  32.969  13.433
98337W        W57774   7.239   9.171  14.465
98338W        W57775   4.852  11.698  10.995
98339W        W57776  39.543  34.447  10.600
98340W        W57777  20.184  21.257   2.231
98341W        W57778  22.700   1.773   0.326
98342W        W57779  23.096   9.275  10.930
98343W        W57780  33.981  21.657  14.426
98344W        W57781  22.070  12.150   4.239
98345W        W57782  24.632  40.013  14.428
98346W        W57783  36.972  13.283   4.637
98347W        W57784  14.631   0.788   4.748
98348W        W57785   9.180  40.949   4.323
98349W        W57786  29.529  10.684  11.053
98350W        W57787   3.365  24.998   0.909
98351W        W57788   5.744  11.745   1.843
98352W        W57789  39.345  19.133   3.807
98353W        W57790  14.218   1.768   1.705
98354W        W57791   8.392  24.640  11.542
98355W        W57792  29.498  29.555  13.000
98356W        W57793   4.828  38.076  14.771
98357W        W57794  10.697   9.747   3.769
98358W        W57795   0.984  29.162   4.690
98359W        W57796  29.961  31.093   4.180
98360W        W57797   2.838   7.901  10.485
98361W        W57798  38.836  19.561  12.561
98362W        W57799  10.351  11.711   0.450
98363W        W57800  39.924  19.101  14.347
98364W        W57801  31.624  26.977   1.695
98365W        W57802  16.725  23.524  12.823
98366W        W57803  36.982   9.347   4.710
98367W        W57804  35.402  13.163  14.854
98368W        W57805  37.388  34.030  14.918
98369W        W57806   6.391  34.896  11.928
98370W        W57807  16.581  38.910  13.055
98371W        W57808  26.497  34.119   3.268
98372W        W57809  12.673  39.425   4.707
98373W        W57810  21.099   8.740   1.370
98374W        W57811  26.589  25.679  13.407
98375W        W57812   2.382   1.949   2.737
98376W        W57813   2.843  43.022  13.828
98377W        W57814   6.199  17.215  14.976
98378W        W57815  22.511  42.953   1.303
98379W        W57816  37.470  19.573  13.502
98380W        W57817  11.243  32.396  14.827
98381W        W57818  39.971   0.487  13.828
98382W        W57819  29.170  31.044   3.831
98383W        W57820  25.131   8.759   2.316
98384W        W57821  23.724   4.225   4.608
98385W        W57822  18.708  17.648   0.363
98386W        W57823  39.930  35.414  10.536
98387W        W57824  20.094  41.895  10.625
98388W        W57825  16.297  21.551   3.153
98389W        W57826  24.497  28.940   2.706
98390W        W57827  35.970  18.058  12.435
98391W        W57828  32.078   4.788  12.442
98392W        W57829  24.545  41.338  13.044
98393W        W57830   0.347  14.815   3.326
98394W        W57831  14.126  20.040   0.927
98395W        W57832  36.015  30.594   1.313
98396W        W57833   4.310  36.008  14.849
98397W        W57834  20.138  23.130  12.962
98398W        W57835  16.692  42.850  10.022
98399W        W57836  15.713  35.404  11.569
98400W        W57837  39.489  33.068   3.634
98401W        W57838  20.258  18.633  11.429
98402W        W57839   4.701  15.233   3.156
98403W        W57840  33.383   0.935   5.265
98404W        W57841  12.353  38.422   2.854
98405W        W57842   1.296  24.482  11.552
98406W        W57843   8.824  37.477  10.518
98407W        W57844  18.282  12.324   3.631
98408W        W57845  25.506   0.313   3.701
98409W        W57846   2.894  18.098  13.506
98410W        W57847  31.142   6.817  13.523
98411W        W57848  22.665  23.048   3.744
98412W        W57849  38.927  43.313   5.142
98413W        W57850  19.048   7.773  10.524
98414W        W57851  41.502  10.641  14.419
98415W        W57852  24.671  38.534  13.000
98416W        W57853  23.711  13.654  12.028
98417W        W57854  43.342  39.524   5.283
98418W        W57855  37.382  20.035  14.029
98419W        W57856  31.425  19.569  11.978
98420W        W57857  43.858  21.038  13.916
98421W        W57858  42.372  18.695   3.772
98422W        W57859  33.878  25.554   0.363
98423W        W57860  21.206   0.934   2.683
98424W        W57861  33.523  28.985   2.243
98425W        W57862  20.694  27.069  14.325
98426W        W57863  13.174  14.761  10.470
98427W        W57864  24.163  15.608  11.392
98428W        W57865  30.502  23.727   2.792
98429W        W57866  18.642  18.677  14.419
98430W        W57867  36.588   0.952   0.890
98431W        W57868  13.214  38.539  13.391
98432W        W57869  25.488  25.492   1.415
98433W        W57870  15.665  29.088  13.979
98434W        W57871  13.846  34.093   0.341
98435W        W57872   8.402   1.461   2.278
98436W        W57873  25.538  37.033   2.302
98437W        W57874  18.137   7.863   3.193
98438W        W57875  35.445  44.353  13.860
98439W        W57876   6.281  29.446   3.167
98440W        W57877  33.881  33.969  11.404
98441W        W57878  22.069  30.947   0.804
98442W        W57879  43.902  39.937  10.106
98443W        W57880  40.526   7.790  11.485
98444W        W57881  28.050  38.842   0.268
98445W        W57882  16.694  30.427   2.713
98446W        W57883  44.281  19.717  12.080
98447W        W57884  39.000  18.627  13.359
98448W        W57885  43.929  20.547   0.789
98449W        W57886  19.085  18.728  11.111
98450W        W57887  34.962  24.525   4.131
98451W        W57888  23.187  42.993  10.916
98452W        W57889   4.855  41.383  12.923
98453W        W57890  23.015  36.849   0.431
98454W        W57891  10.277  35.374   5.315
98455W        W57892  35.596  18.725  12.907
98456W        W57893  23.111  22.569   4.623
98457W        W57894   1.441  41.829  11.581
98458W        W57895   3.940   1.756   3.351
98459W        W57896  32.506  32.079  12.454
98460W        W57897  24.176   6.858  12.460
98461W        W57898  12.639  42.367  14.812
98462W        W57899  27.689  18.209  13.958
98463W        W57900  38.548  17.297   2.865
98464W        W57901   5.723  13.160  13.348
98465W        W57902  23.078  35.058  12.432
98466W        W57903  20.250  39.388   0.377
98467W        W57904   7.676  24.073   4.601
98468W        W57905  38.914   3.294  13.061
98469W        W57906  14.137   7.699   4.827
98470W        W57907   3.220  39.873  14.899
98471W        W57908  22.094   2.967   0.773
98472W        W57909   0.742  32.492  13.482
98473W        W57910   7.374  33.433   2.226
98474W        W57911   6.285  34.106   0.484
98475W        W57912  30.594  42.909  14.397
98476W        W57913   9.728  33.037   0.862
98477W        W57914  16.275  32.012   0.823
98478W        W57915   8.895  24.708  14.992
98479W        W57916  17.672  35.994   3.182
98480W        W57917   7.178  37.460  10.137
98481W        W57918  25.511  38.471  14.989
98482W        W57919   2.398  17.584  12.031
98483W        W57920  42.815  31.929  10.531
98484W        W57921  25.120  37.345   0.359
98485W        W57922  15.240  35.553   4.688
98486W        W57923  34.581  14.779   0.402
98487W        W57924  37.059  43.339  12.576
98488W        W57925  19.654  24.169  11.465
98489W        W57926  27.157  21.252  11.398
98490W        W57927  33.575  23.138   0.469
98491W        W57928  38.982  33.949   2.334
98492W        W57929  11.748  16.227  13.480
98493W        W57930  24.609   8.752   3.271
98494W        W57931  12.133  29.011   3.334
98495W        W57932  26.201  28.124   0.374
98496W        W57933  20.572  27.108  13.877
98497W        W57934  39.050  43.374  11.568
98498W        W57935  27.546  41.813   4.667
98499W        W57936  44.954  24.065   1.793
98500W        W57937   6.216  41.496   4.217
98501W        W57938  37.404  18.212   0.878
98502W        W57939  21.688  41.786   3.234
98503W        W57940   1.432   9.716  13.034
98504W        W57941  21.647  33.564  11.915
98505W        W57942  43.865   5.714  12.922
98506W        W57943  43.925   2.769  11.013
98507W        W57944   3.849   4.273   1.273
98508W        W57945  19.131  13.641   4.832
98509W        W57946  17.147  19.725  12.921
98510W        W57947  16.262  22.708   3.306
98511W        W57948   7.716  36.888  12.826
98512W        W57949  21.129  29.958  14.005
98513W        W57950  23.116  11.801  10.140
98514W        W57951  11.636  24.985  11.457
98515W        W57952  18.270  20.609   2.262
98516W        W57953  16.264  39.049   3.289
98517W        W57954  21.022  44.331   2.843
98518W        W57955  20.075   3.881   2.899
98519W        W57956  28.620  35.098  11.377
98520W        W57957  33.911  30.987   3.802
98521W        W57958  20.658  14.250   4.125
98522W        W57959  33.969  17.705  12.896
98523W        W57960  42.982   2.418  14.281
98524W        W57961   5.396  29.522   2.311
98525W        W57962  36.000  27.527  14.794
98526W        W57963  14.816  38.886  12.351
98527W        W57964  28.461  13.768  14.430
98528W        W57965   5.825  18.672  12.835
98529W        W57966   4.774  22.132  11.995
98530W        W57967  10.254  28.567  11.476
98531W        W57968  20.604  36.986   2.681
98532W        W57969   6.713  10.220   2.714
98533W        W57970  18.780   2.364  13.052
98534W        W57971  40.814  39.539   9.974
98535W        W57972   6.902  36.006  13.914
98536W        W57973  30.092  44.465   0.844
98537W        W57974   4.297   7.207   1.885
98538W        W57975   4.926  41.333  14.889
98539W        W57976  11.794  13.602   3.385
98540W        W57977   6.881  37.941  14.773
98541W        W57978  14.756  36.453   4.137
98542W        W57979  20.258  13.774   0.456
98543W        W57980   7.734  37.507   3.232
98544W        W57981  23.095   1.943   4.132
98545W        W57982   0.892  24.688   2.765
98546W        W57983  23.696  26.044  10.992
98547W        W57984   0.807  17.127  13.491
98548W        W57985  37.046  37.484   1.754
98549W        W57986  27.145   2.465  10.643
98550W        W57987  20.536  25.575   4.261
98551W        W57988  22.184  11.849  10.536
98552W        W57989  39.866  12.193  10.529
98553W        W57990  14.118  35.945  10.947
98554W        W57991  21.599  25.991  11.954
98555W        W57992  24.585   1.825   2.317
98556W        W57993  25.500  29.127  12.931
98557W        W57994  42.957  27.445   0.295
98558W        W57995  35.467  25.470  10.899
98559W        W57996  19.098  37.536  12.375
98560W        W57997  18.055  36.501  13.975
98561W        W57998  17.785  17.283   1.246
98562W        W57999  27.118  31.525  10.581
98563W        W58000  30.067  43.982  12.464
98564W        W58001   0.795  19.693   2.722
98565W        W58002  38.351  24.664   4.186
98566W        W58003  13.107  27.532   2.234
98567W        W58004  20.642  44.456   0.253
98568W        W58005  13.771   5.819  12.904
98569W        W58006  39.379   8.781  13.910
98570W        W58007  44.271  23.096   1.292
98571W        W58008  25.183  39.349   0.483
98572W        W58009   7.242  28.591   2.893
98573W        W58010   0.955  21.021  12.983
98574W        W58011  31.451   5.360  11.946
98575W        W58012  42.460  40.817   4.176
98576W        W58013  14.231  20.668  13.449
98577W        W58014  23.033  44.477  10.525
98578W        W58015  22.746  12.783   3.640
98579W        W58016   8.368  41.476   1.731
98580W        W58017   3.447  33.493   2.774
98581W        W58018  27.644  37.441  14.409
98582W        W58019   2.245  34.408   4.208
98583W        W58020  32.977  42.500   2.318
98584W        W58021  33.547   2.262   0.915
98585W        W58022  13.742  16.306   3.646
98586W        W58023  14.330   2.278   1.789
98587W        W58024  17.635  34.041   2.358
98588W        W58025   6.406  30.000   1.314
98589W        W58026  43.014   0.348  12.351
98590W        W58027  13.787   4.267   1.306
98591W        W58028  11.675  30.958   2.268
98592W        W58029   1.809  30.424  14.827
98593W        W58030   7.748   2.731  11.989
98594W        W58031  32.486  21.709  12.375
98595W        W58032  21.610  16.240   0.816
98596W        W58033  19.136  41.013   1.916
98597W        W58034  14.231   5.430  14.495
98598W        W58035  28.982  28.575   2.324
98599W        W58036  44.927  41.358  12.965
98600W        W58037  21.108  38.460   9.941
98601W        W58038  42.379   1.893   3.656
98602W        W58039   9.839  17.700   3.263
98603W        W58040  41.028   4.880   1.753
98604W        W58041  22.591  17.720   0.824
98605W        W58042  13.289  44.894  14.319
98606W        W58043  23.162  33.999   4.330
98607W        W58044   7.806  31.424   4.745
98608W        W58045  18.154  18.205  12.420
98609W        W58046   0.384  44.831  14.990
98610W        W58047   3.909  27.142   0.383
98611W        W58048  38.540  12.139   2.275
98612W        W58049  29.147  22.655  14.968
98613W        W58050  20.543  24.071   0.291
98614W        W58051   3.458  31.065   4.234
98615W        W58052  24.992  38.956   0.798
98616W        W58053  15.193  35.026  12.908
98617W        W58054  39.915  38.403   2.725
98618W        W58055  35.938   2.457  14.278
98619W        W58056   4.916  37.444   4.665
98620W        W58057   0.339  39.528  11.980
98621W        W58058  29.974  18.556  11.107
98622W        W58059  24.660  15.289   1.277
98623W        W58060   3.335   2.767  13.474
98624W        W58061  18.775  34.892  12.910
98625W        W58062   0.980   3.446   1.831
98626W        W58063  12.748  35.537  14.771
98627W        W58064   1.929  31.605   3.279
98628W        W58065  11.778  33.026   2.882
98629W        W58066  10.727  22.674   1.380
98630W        W58067  38.443   3.393  13.499
98631W        W58068  37.444  28.109   3.254
98632W        W58069   8.792  32.969   4.350
98633W        W58070  27.161  15.759   0.460
98634W        W58071  11.336  33.020   4.249
98635W        W58072   7.896  12.631  13.431
98636W        W58073  37.507  20.566   4.314
98637W        W58074  26.023   6.398  12.384
98638W        W58075   2.853   4.348  13.814
98639W        W58076  18.160  24.528  14.868
98640W        W58077  24.990  20.069   1.709
98641W        W58078  25.150  23.175   1.843
98642W        W58079   4.301  27.553  10.541
98643W        W58080  18.083  38.005  12.976
98644W        W58081  13.191  29.976   4.711
98645W        W58082  16.267  25.144   2.378
98646W        W58083  23.733  28.967  11.968
98647W        W58084  32.976   0.780  14.976
98648W        W58085  29.112  37.875  11.516
98649W        W58086   7.821  24.999   1.266
98650W        W58087  36.503  19.075  14.317
98651W        W58088  19.749  29.107   1.889
98652W        W58089  44.799   5.266  14.418
98653W        W58090  24.170   2.374   4.779
98654W        W58091  44.380  21.087   4.804
98655W        W58092  21.721  22.736   0.911
98656W        W58093  13.305  36.969  14.507
98657W        W58094   7.876  24.216  13.881
98658W        W58095  41.446  38.370   1.259
98659W        W58096  17.731  32.577  14.452
98660W        W58097  19.696  10.250  11.606
98661W        W58098  41.530  30.591   4.251
98662W        W58099  39.863  22.088  10.520
98663W        W58100  22.728  32.527   1.720
98664W        W58101  41.490   9.346  14.945
98665W        W58102   1.412  32.052  12.048
98666W        W58103  42.494  10.665  13.547
98667W        W58104  27.689  25.705  10.430
98668W        W58105  39.065  12.262  13.983
98669W        W58106   4.290  29.969   3.847
98670W        W58107  18.655  14.592   9.952
98671W        W58108  32.971  39.429  14.959
98672W        W58109   6.269  30.122  13.007
98673W        W58110  31.411  34.437  14.360
98674W        W58111  37.078   4.753   1.812
98675W        W58112  17.733  43.434  13.327
98676W        W58113  42.430  32.122   0.848
98677W        W58114   9.181   6.783  11.940
98678W        W58115  22.014  35.998  13.465
98679W        W58116  29.112  31.115  13.876
98680W        W58117  38.038  25.065   4.115
98681W        W58118  39.511  24.173  11.905
98682W        W58119  44.991  39.422   2.243
98683W        W58120   0.379  41.967  13.319
98684W        W58121  18.717   0.325  13.896
98685W        W58122  38.380  22.172  11.077
98686W        W58123   8.318  21.059  12.066
98687W        W58124  44.958   9.667   3.778
98688W        W58125  29.076  34.056   1.700
98689W        W58126   2.918   2.918  13.889
98690W        W58127  22.622  41.390  13.794
98691W        W58128  21.757  40.473  10.944
98692W        W58129  20.527  36.907   1.324
98693W        W58130  14.124  11.668   2.286
98694W        W58131   7.219  26.573  14.786
98695W        W58132  16.226  28.126   1.355
98696W        W58133  14.144  11.342  11.868
98697W        W58134  18.583  11.185  12.975
98698W        W58135  37.879  17.191  12.435
98699W        W58136  38.829  24.724   1.436
98700W        W58137  44.280  13.128   2.267
98701W        W58138  33.028  13.339  11.024
98702W        W58139   9.769  31.595  13.049
98703W        W58140  21.120   4.279   1.408
98704W        W58141   5.779  16.204   0.830
98705W        W58142  26.600  16.168  11.582
98706W        W58143  24.031  18.767  13.921
98707W        W58144   0.465  16.682  10.896
98708W        W58145   0.890   9.823   4.153
98709W        W58146  21.595  34.955   3.186
98710W        W58147  26.567  10.656  14.345
98711W        W58148   8.236  27.677   4.148
98712W        W58149  19.689  28.153  13.442
98713W        W58150   5.324  29.436  13.415
98714W        W58151  23.021   9.173   5.189
98715W        W58152  23.620  21.636   1.771
98716W        W58153  13.784   5.902   2.392
98717W        W58154   0.456  43.983  14.980
98718W        W58155  21.183  23.505   3.797
98719W        W58156  25.693   3.728   4.207
98720W        W58157  24.097  24.223   0.931
98721W        W58158  23.559  25.643  13.842
98722W        W58159  29.482  12.821   1.367
98723W        W58160  16.653  33.882  14.969
98724W        W58161  37.363  10.162   5.176
98725W        W58162  21.583  17.246   2.393
98726W        W58163  14.209  20.075  11.532
98727W        W58164  19.065  33.124   0.449
98728W        W58165  30.149  30.584  12.838
98729W        W58166   1.269  44.402   0.847
98730W        W58167  37.984  39.472  13.475
98731W        W58168  17.096   8.311   0.412
98732W        W58169  42.026  29.644  12.879
98733W        W58170   5.334  24.656   1.250
98734W        W58171   7.174  26.977  12.044
98735W        W58172  44.809  29.097  12.392
98736W        W58173  29.579  43.909   1.279
98737W        W58174  30.929  15.271  13.924
98738W        W58175  44.320  28.510   2.194
98739W        W58176  12.833  27.610   3.192
98740W        W58177  14.832  36.552  11.024
98741W        W58178  40.418  24.495  10.412
98742W        W58179   3.390   3.454  12.051
98743W        W58180  38.044   8.357   0.910
98744W        W58181   3.447  21.022  13.514
98745W        W58182  18.231  14.245   0.852
98746W        W58183  16.174  18.643  11.089
98747W        W58184  29.173  18.087  11.579
98748W        W58185  10.801   7.197  12.952
98749W        W58186  25.677  14.101   3.184
98750W        W58187  17.701  41.980   2.857
98751W        W58188  33.487   5.273  14.471
98752W        W58189  15.779  41.864  12.542
98753W        W58190  22.723  31.978   5.082
98754W        W58191  25.173  41.433   3.751
98755W        W58192   9.845  29.107  12.914
98756W        W58193  21.704  33.574   1.794
98757W        W58194   0.463  18.235   2.810
98758W        W58195  40.892  24.092  14.021
98759W        W58196  21.734  32.003  14.446
98760W        W58197  27.639  44.849   1.260
98761W        W58198  17.142  17.654  14.838
98762W        W58199  26.114  28.502  10.641
98763W        W58200  29.072  43.007   2.357
98764W        W58201  16.786  21.026   2.371
98765W        W58202  16.581  11.326  13.423
98766W        W58203  18.061   2.327   3.340
98767W        W58204   1.796  28.482  13.869
98768W        W58205   4.936  24.216   5.681
98769W        W58206   1.466  44.385  11.560
98770W        W58207  15.698  27.062  14.018
98771W        W58208  30.975  25.100  11.972
98772W        W58209  34.960   1.435  14.951
98773W        W58210  40.339   1.896   3.151
98774W        W58211  27.463  17.190  12.827
98775W        W58212  12.703  44.850  12.384
98776W        W58213   6.881  25.492  14.927
98777W        W58214   0.347  19.536  14.771
98778W        W58215  21.020   3.439   2.328
98779W        W58216  39.548  27.644   0.934
98780W        W58217  44.913   0.811   4.694
98781W        W58218  37.916   3.945  12.567
98782W        W58219  31.492  21.744  11.037
98783W        W58220  12.330  37.368   1.335
98784W        W58221  12.741  44.311  12.832
98785W        W58222  37.899  30.466  13.847
98786W        W58223  28.025  28.172  12.404
98787W        W58224  27.144  34.930   2.710
98788W        W58225  29.428  35.462   1.812
98789W        W58226  40.533  36.991  11.580
98790W        W58227  40.885  19.690   0.278
98791W        W58228  30.556  22.077  10.571
98792W        W58229   2.247   3.378   5.137
98793W        W58230  27.533   2.268  14.013
98794W        W58231   7.712  24.147   5.209
98795W        W58232  30.039  22.745  13.033
98796W        W58233   4.262  15.156  14.514
98797W        W58234  31.603  43.878   2.250
98798W        W58235  38.999   8.896  13.473
98799W        W58236  20.135   1.754   5.202
98800W        W58237  31.447  35.481  10.641
98801W        W58238  25.682  26.537   2.228
98802W        W58239  12.241  18.210   1.212
98803W        W58240   8.718  14.772  12.036
98804W        W58241  41.859  32.474  12.081
98805W        W58242  28.481   9.654  11.058
98806W        W58243   9.856  31.917   1.874
98807W        W58244  17.091  36.583  10.574
98808W        W58245  10.219  31.111  11.484
98809W        W58246  26.562  23.618   5.193
98810W        W58247  24.627  41.908  12.992
98811W        W58248  15.113  10.705  10.643
98812W        W58249  23.521   3.792   4.185
98813W        W58250  39.371  17.269   1.284
98814W        W58251  25.200  13.117  10.640
98815W        W58252  29.582  30.058   2.756
98816W        W58253  37.889  33.004   2.791
98817W        W58254   6.321   1.798  10.533
98818W        W58255   1.846   0.441  10.426
98819W        W58256   3.369  19.078  14.993
98820W        W58257  35.886  25.117  14.281
98821W        W58258   7.833  19.717  13.050
98822W        W58259  22.174  35.007  13.021
98823W        W58260  10.733  35.602   2.185
98824W        W58261   8.349   4.205   4.215
98825W        W58262   5.211  32.482  12.467
98826W        W58263  35.096  36.079   1.323
98827W        W58264  28.147   3.805  12.979
98828W        W58265   5.812  15.582   0.415
98829W        W58266   3.855  19.623   1.365
98830W        W58267  20.709  23.521   2.855
98831W        W58268  39.939  43.295   2.702
98832W        W58269  18.715  11.740  11.395
98833W        W58270   4.275  22.024  10.528
98834W        W58271  23.206  13.236   2.802
98835W        W58272   6.704   6.818   0.250
98836W        W58273  20.066  37.028   4.714
98837W        W58274  13.115  31.954  11.970
98838W        W58275  13.192  28.609  13.892
98839W        W58276  39.546   1.241  11.018
98840W        W58277   8.703   6.679  14.007
98841W        W58278   1.309   4.344   3.867
98842W        W58279  42.977  15.229  10.111
98843W        W58280  26.638  43.993  12.574
98844W        W58281  17.580   3.839   4.600
98845W        W58282  34.524   0.982  11.925
98846W        W58283  19.227   7.809  12.074
98847W        W58284  10.168  23.677   3.166
98848W        W58285   7.186   3.336  10.624
98849W        W58286  28.565  13.291   2.798
98850W        W58287  25.145  29.094  14.894
98851W        W58288  20.747  26.689   2.334
98852W        W58289   7.717   4.804   1.310
98853W        W58290  10.686  37.877  11.449
98854W        W58291  39.996  21.222  11.542
98855W        W58292  11.265  43.818   3.178
98856W        W58293  43.385   0.781   1.904
98857W        W58294  41.842   3.253  14.395
98858W        W58295  32.457   7.246   4.238
98859W        W58296  42.457  43.966  14.758
98860W        W58297   6.709   6.831  10.953
98861W        W58298  36.455  34.561   1.909
98862W        W58299  19.049  43.996   0.753
98863W        W58300   7.713   3.390   1.421
98864W        W58301  27.461   4.834  13.013
98865W        W58302  26.521   5.930   4.644
98866W        W58303   5.237  24.143  14.766
98867W        W58304  34.594  26.610  14.480
98868W        W58305  24.542  38.919  11.612
98869W        W58306  37.961  18.114   4.269
98870W        W58307  33.073   8.805  11.478
98871W        W58308  15.279  12.294   1.424
98872W        W58309  30.644  10.359  14.919
98873W        W58310   1.422   4.877  13.034
98874W        W58311   5.347   3.799  12.979
98875W        W58312   6.791   7.737   3.649
98876W        W58313  38.027   1.438  13.823
98877W        W58314  43.368  23.201   2.894
98878W        W58315  30.049  24.692  14.923
98879W        W58316  30.501  14.241   4.611
98880W        W58317  24.159  41.927   1.805
98881W        W58318  28.080  20.563   3.725
98882W        W58319  24.084   8.399  13.891
98883W        W58320  32.533  40.334  12.469
98884W        W58321  13.176  28.471  14.974
98885W        W58322   3.757  13.145   3.219
98886W        W58323  14.328  37.862  14.939
98887W        W58324  40.923  15.581  14.974
98888W        W58325   1.341   6.700  12.348
98889W        W58326  25.150   8.373   0.359
98890W        W58327   8.378  34.895  13.369
98891W        W58328  37.907   1.927   3.277
98892W        W58329   0.771   8.258  10.902
98893W        W58330  18.204  20.540  11.919
98894W        W58331  14.597   1.476  11.100
98895W        W58332   3.924  23.680   0.777
98896W        W58333  24.562  24.125  12.401
98897W        W58334   0.935  25.128  13.461
98898W        W58335   7.216  39.365  11.422
98899W        W58336   6.400  15.634   0.812
98900W        W58337  12.360   3.382  11.480
98901W        W58338  14.170  13.823   0.754
98902W        W58339  15.194   1.908   4.675
98903W        W58340  24.058  36.863   0.367
98904W        W58341  41.462  36.965  13.425
98905W        W58342  44.858  38.555  10.964
98906W        W58343  24.638  12.214   1.315
98907W        W58344   6.787  36.847   2.899
98908W        W58345  33.939  17.065   3.326
98909W        W58346  22.053  26.121   2.887
98910W        W58347   0.784  22.620  13.936
98911W        W58348  12.673  10.736  12.945
98912W        W58349   0.466   2.389  14.843
98913W        W58350  26.098   7.358  14.507
98914W        W58351   2.924  44.840   1.436
98915W        W58352  11.757  29.543  10.946
98916W        W58353  32.106  26.527  14.345
98917W        W58354  38.567  14.609  14.797
98918W        W58355  31.068  23.660   1.752
98919W        W58356  18.704  26.662   2.663
98920W        W58357  30.517  43.827   2.890
98921W        W58358  32.475  18.115   2.689
98922W        W58359  33.061  29.633   1.386
98923W        W58360  26.178   6.708  11.892
98924W        W58361  17.282  43.430  13.355
98925W        W58362  39.999  32.007  14.765
98926W        W58363  37.077  21.149   2.355
98927W        W58364   6.211   6.880   0.864
98928W        W58365   0.344  14.821   0.940
98929W        W58366   4.288  16.078  11.484
98930W        W58367  34.561  16.780   3.741
98931W        W58368  32.572  27.580  11.373
98932W        W58369   0.962  32.544  13.882
98933W        W58370  40.361  12.185   0.842
98934W        W58371  11.227  18.071  13.509
98935W        W58372  35.873  26.573  14.783
98936W        W58373  23.668  13.762   2.815
98937W        W58374  37.912  37.364  10.450
98938W        W58375  22.636  28.149  12.570
98939W        W58376   4.907   7.771   2.775
98940W        W58377  19.078  15.196  11.084
98941W        W58378   2.460  17.173  10.533
98942W        W58379  20.201   4.315  12.094
98943W        W58380   0.933  19.185  13.478
98944W        W58381  12.661   1.242   3.269
98945W        W58382  14.694   6.376  11.458
98946W        W58383  15.138  12.161   3.704
98947W        W58384  25.178  10.830  12.045
98948W        W58385  39.831  33.522   2.333
98949W        W58386  11.789  42.338  10.415
98950W        W58387  15.119  42.889   0.345
98951W        W58388  23.507  31.543   4.291
98952W        W58389  41.815  32.572   1.819
98953W        W58390  15.772  18.563  12.029
98954W        W58391  24.566  41.913   0.754
98955W        W58392  32.031  27.447  14.296
98956W        W58393  29.148  42.795   3.279
98957W        W58394  22.720  13.165  12.043
98958W        W58395  41.347  17.080   3.636
98959W        W58396  40.520  21.100   0.413
98960W        W58397  42.824  38.913  14.486
98961W        W58398  38.876  26.145  12.090
98962W        W58399   3.819  34.042   1.737
98963W        W58400   0.970   8.239   2.767
98964W        W58401  31.438  29.638   1.369
98965W        W58402  40.847  41.009  11.374
98966W        W58403  32.965  32.008  14.833
98967W        W58404  20.151  26.012  13.928
98968W        W58405   1.776  31.996   4.743
98969W        W58406  18.653  32.512  14.485
98970W        W58407  36.095  28.584  13.866
98971W        W58408  40.967  33.011   3.174
98972W        W58409  31.522  23.614  14.863
98973W        W58410  30.964   7.871   1.388
98974W        W58411  16.695  23.095   2.698
98975W        W58412   0.898   8.755  11.385
98976W        W58413   6.718   8.247  12.389
98977W        W58414   2.395   6.213  11.959
98978W        W58415  17.063  41.954   1.851
98979W        W58416  10.236   7.765   1.237
98980W        W58417  41.416  41.426  10.969
98981W        W58418   2.826  30.130  10.948
98982W        W58419  10.812  17.701   3.673
98983W        W58420  14.193   4.267   0.883
98984W        W58421  25.550  36.090   3.216
98985W        W58422  19.722  29.088  13.006
98986W        W58423  10.346  39.897  14.290
98987W        W58424  29.640  12.303   0.801
98988W        W58425  22.703  33.930   0.744
98989W        W58426  14.721   2.833  11.398
98990W        W58427  21.088   3.900   5.314
98991W        W58428  42.381  43.457  14.890
98992W        W58429  20.712  17.254   4.739
98993W        W58430  32.087  44.772   2.209
98994W        W58431  31.452  26.996   4.621
98995W        W58432  27.585   7.395   0.745
98996W        W58433  26.538  41.457   1.314
98997W        W58434  12.248   9.828  13.546
98998W        W58435  11.744   4.439  12.880
98999W        W58436   0.271  14.233   0.443
99000W        W58437   6.794   2.941   4.176
99001W        W58438  15.716  37.945  12.976
99002W        W58439  28.560  25.093  12.095
99003W        W58440  42.479  30.473   3.642
99004W        W58441  43.969   1.451  13.996
99005W        W58442  26.597  13.739   0.785
99006W        W58443  29.523  24.172   1.696
99007W        W58444  16.808  11.266  13.998
99008W        W58445   8.826  39.951   1.807
99009W        W58446  25.566  19.180  11.436
99010W        W58447   2.754  26.982  13.540
99011W        W58448   8.808  16.146  12.900
99012W        W58449  41.462  27.120  14.354
99013W        W58450  38.342  44.906  11.432
99014W        W58451  44.953   6.200   2.776
99015W        W58452  11.764   5.694  12.369
99016W        W58453  27.121  23.579   0.464
99017W        W58454  27.556   8.236   4.741
99018W        W58455  25.175  33.505  12.490
99019W        W58456   3.804  23.138   0.791
99020W        W58457  25.481   0.892   3.207
99021W        W58458  44.796  29.670  14.450
99022W        W58459   8.705  38.004   0.939
99023W        W58460  41.786  29.018   4.355
99024W        W58461   3.863  20.218   3.367
99025W        W58462  42.344  41.870   0.749
99026W        W58463  35.490  22.119   1.329
99027W        W58464  18.592  44.470  11.512
99028W        W58465  43.480  14.648   2.673
99029W        W58466  29.548  23.500   1.307
99030W        W58467   6.346  31.065   4.729
99031W        W58468   1.898   8.176  10.959
99032W        W58469   8.264   5.419   0.944
99033W        W58470  12.625  39.521  10.524
99034W        W58471  11.729  27.523  12.096
99035W        W58472  29.453  33.520   5.135
99036W        W58473  44.375   0.791  11.053
99037W        W58474  27.489  21.688   3.196
99038W        W58475  26.060   1.742   1.285
99039W        W58476  27.019  39.354   3.153
99040W        W58477   7.850  13.231   1.261
99041W        W58478  22.084  43.911   1.306
99042W        W58479  15.218  13.277  14.330
99043W        W58480  11.258  24.719  13.384
99044W        W58481  41.504  42.823   4.143
99045W        W58482  43.820   5.379   4.632
99046W        W58483   5.391  12.699  13.031
99047W        W58484  35.405  11.181  13.942
99048W        W58485  33.381  16.572  14.920
99049W        W58486  29.026   9.784   9.578
99050W        W58487   0.488  10.201   0.263
99051W        W58488  31.968   9.349   3.662
99052W        W58489   7.732   6.267   3.318
99053W        W58490   7.739  10.842  11.554
99054W        W58491  35.073  35.858  13.377
99055W        W58492   4.934  25.126   4.284
99056W        W58493  12.624  19.566  12.012
99057W        W58494  29.465  37.477   4.344
99058W        W58495  32.064  18.669  12.453
99059W        W58496   8.322   9.189   3.227
99060W        W58497  35.558  33.538   2.196
99061W        W58498   7.219  24.676   1.420
99062W        W58499  18.269  11.310   2.257
99063W        W58500  15.272  20.564   3.301
99064W        W58501  23.204  23.581  12.483
99065W        W58502   0.913  16.718   4.819
99066W        W58503  34.582  34.594   1.699
99067W        W58504   7.872  14.626   4.747
99068W        W58505   7.203  21.540  12.448
99069W        W58506  28.156  12.322   3.699
99070W        W58507  25.694   5.387  14.353
99071W        W58508  27.490  18.060  11.542
99072W        W58509  27.605  44.959  14.276
99073W        W58510  34.476  15.583  11.123
99074W        W58511  13.305  38.517  12.444
99075W        W58512  27.464  17.595   3.783
99076W        W58513  44.831  30.977   4.347
99077W        W58514  25.604  18.264  14.761
99078W        W58515  24.662  28.005  10.926
99079W        W58516   0.364  19.536  11.952
99080W        W58517  44.373  13.648  12.847
99081W        W58518  26.679  10.790   0.728
99082W        W58519  12.836  17.789   1.307
99083W        W58520  15.237  23.011  14.509
99084W        W58521  43.896  18.651  14.955
99085W        W58522  44.995  13.173   1.321
99086W        W58523  20.691  44.426  13.793
99087W        W58524  37.003  25.582  14.898
99088W        W58525  14.802  44.302   3.167
99089W        W58526   8.310  38.483   2.836
99090W        W58527   3.870  32.109   4.273
99091W        W58528  30.953   2.771   0.777
99092W        W58529  42.317   3.886  10.550
99093W        W58530  44.845  17.604  11.414
99094W        W58531   2.963   7.338   4.156
99095W        W58532   0.444   3.342  12.543
99096W        W58533  30.152  10.699  13.472
99097W        W58534  26.525  26.603  14.898
99098W        W58535  16.140  17.249  13.393
99099W        W58536  42.336  22.662  14.914
99100W        W58537  40.933   5.316   3.759
99101W        W58538  28.602  20.647   3.298
99102W        W58539  35.924  32.937   0.373
99103W        W58540  35.574  14.238   5.299
99104W        W58541  36.516  20.689  13.379
99105W        W58542   1.312  35.998   3.166
99106W        W58543  41.425   5.416   1.799
99107W        W58544  22.663  28.173   1.897
99108W        W58545  20.105  29.514  13.524
99109W        W58546  19.711   6.327  12.567
99110W        W58547  28.679   0.392   4.803
99111W        W58548  39.955  39.329  13.354
99112W        W58549  13.726  22.618   0.468
99113W        W58550  29.084  33.011   2.245
99114W        W58551   1.849  27.172   3.863
99115W        W58552  18.726  22.706  14.340
99116W        W58553   3.921   9.228  14.402
99117W        W58554  18.786   9.370  10.628
99118W        W58555  16.220  37.494   4.670
99119W        W58556  14.242  40.443  11.947
99120W        W58557  20.148  43.405  13.976
99121W        W58558  16.667  21.162   0.830
99122W        W58559  34.891  31.454   4.202
99123W        W58560   7.290  17.233  10.516
99124W        W58561  15.589   3.234  12.493
99125W        W58562   4.303  12.630   0.451
99126W        W58563  43.361  42.944   4.258
99127W        W58564   5.898  32.009  14.292
99128W        W58565  16.201  40.539  12.967
99129W        W58566   4.447  26.671  13.044
99130W        W58567  41.877   9.344  11.470
99131W        W58568  23.204  26.063   4.210
99132W        W58569   8.871  17.131  14.497
99133W        W58570  41.867  31.136  12.970
99134W        W58571  34.115   6.307   4.213
99135W        W58572  37.443  37.391   3.356
99136W        W58573  29.932   6.402  11.496
99137W        W58574   3.406  34.613  12.993
99138W        W58575  44.960   1.375  14.921
99139W        W58576  14.681  24.219   4.208
99140W        W58577   3.921  10.678  13.894
99141W        W58578  12.210  28.657   0.323
99142W        W58579  20.606  36.031   1.808
99143W        W58580  15.135  39.314  14.949
99144W        W58581  18.220  26.959  11.011
99145W        W58582   1.356   0.396   1.254
99146W        W58583  17.686   6.199  12.544
99147W        W58584  33.623  42.470   0.749
99148W        W58585   5.910  38.880   2.325
99149W        W58586  44.417  40.384   1.420
99150W        W58587  19.667  18.650   3.211
99151W        W58588  35.978  29.536   1.369
99152W        W58589  10.227  40.053   2.663
99153W        W58590   6.340  13.251   0.905
99154W        W58591   9.657  36.973   2.697
99155W        W58592  39.871  12.297   3.220
99156W        W58593  11.836  23.631  14.377
99157W        W58594  39.352  35.549   0.365
99158W        W58595  22.176  19.274  13.332
99159W        W58596  38.854  11.637   5.095
99160W        W58597  38.352  15.586  11.598
99161W        W58598  42.826  30.441  13.329
99162W        W58599  25.500   4.440   2.252
99163W        W58600  24.518  36.556   0.747
99164W        W58601  10.828  18.727   3.802
99165W        W58602  13.178  33.462  12.936
99166W        W58603  37.489  36.887   3.714
99167W        W58604   7.751  32.517  13.541
99168W        W58605  27.601  23.572  12.367
99169W        W58606   4.370  13.611   0.777
99170W        W58607  40.331   9.770   3.771
99171W        W58608  17.132  26.090   4.719
99172W        W58609   7.377   3.812   4.738
99173W        W58610  36.006  43.015   0.953
99174W        W58611  31.085  27.079  13.472
99175W        W58612  35.489  36.400   3.222
99176W        W58613  13.171  32.954   3.836
99177W        W58614  38.971  42.968   5.285
99178W        W58615  19.704   9.197   3.211
99179W        W58616  23.158  15.761  11.076
99180W        W58617  10.678  23.062   4.246
99181W        W58618  39.464  11.242   2.209
99182W        W58619  32.940   0.336   2.854
99183W        W58620  18.696  39.907   3.323
99184W        W58621  24.708  39.956  14.813
99185W        W58622   1.370  23.002   0.309
99186W        W58623  31.897  33.889  10.474
99187W        W58624  23.676   6.399  14.281
99188W        W58625  33.517  22.690  14.978
99189W        W58626  42.376   9.254   1.323
99190W        W58627   3.900  34.910   1.417
99191W        W58628  28.937  37.973  13.456
99192W        W58629  18.738  26.003  13.871
99193W        W58630  43.394   4.359   1.281
99194W        W58631  43.351  44.487   4.177
99195W        W58632   1.924  28.961  14.315
99196W        W58633  32.616   7.271   4.673
99197W        W58634   4.418  11.638  12.013
99198W        W58635  19.616  12.332   3.653
99199W        W58636  35.899  32.132   1.412
99200W        W58637  38.338  34.423   1.805
99201W        W58638  42.930  44.981  12.369
99202W        W58639   5.875   9.217  10.958
99203W        W58640  27.559   9.656   3.269
99204W        W58641  14.774  36.905  12.378
99205W        W58642  15.620  24.011   5.144
99206W        W58643  17.278  28.000  13.989
99207W        W58644   8.174  26.489   2.899
99208W        W58645  19.212   5.690   4.122
99209W        W58646  36.026  36.900  12.364
99210W        W58647  37.001   7.838  10.454
99211W        W58648  39.559  33.557   0.470
99212W        W58649  41.409  25.546  13.906
99213W        W58650  18.667   0.922   3.831
99214W        W58651  25.994  19.284  11.124
99215W        W58652  17.177  21.693  12.956
99216W        W58653  43.796   3.920  10.897
99217W        W58654  17.796  34.409   3.774
99218W        W58655  18.115   3.874   1.819
99219W        W58656  18.109  33.564   4.273
99220W        W58657   6.330  40.942  14.805
99221W        W58658   4.285  31.627  12.928
99222W        W58659  28.153   8.886  14.380
99223W        W58660  40.426  17.606  14.002
99224W        W58661  14.667  17.085   3.840
99225W        W58662   1.265  25.984  11.446
99226W        W58663  37.526  43.516  12.096
99227W        W58664  40.527  41.968  12.842
99228W        W58665  19.725  15.591   3.668
99229W        W58666   0.878  20.626  12.485
99230W        W58667  27.092  30.652   2.357
99231W        W58668  26.561  34.557  14.823
99232W        W58669   2.336  20.241   3.170
99233W        W58670  37.903   9.848   3.786
99234W        W58671  35.989  13.819  12.560
99235W        W58672  22.514   0.462  13.884
99236W        W58673  40.900  16.305  12.925
99237W        W58674  11.783  10.760  11.098
99238W        W58675  37.980  36.051  13.834
99239W        W58676  31.490  26.115  11.437
99240W        W58677  15.706  40.323   1.790
99241W        W58678  36.906  17.099   2.365
99242W        W58679  30.969  15.111  12.454
99243W        W58680  38.877   0.405   2.773
99244W        W58681  15.799   2.282  10.940
99245W        W58682   3.348  27.009  12.498
99246W        W58683   7.759  32.068  13.335
99247W        W58684  32.011  30.083  11.100
99248W        W58685   1.793  31.080  12.844
99249W        W58686  28.041  14.195  14.380
99250W        W58687  27.603  25.563  10.973
99251W        W58688  29.577   7.352  10.925
99252W        W58689   9.876  25.165  12.392
99253W        W58690  26.637  28.181   1.326
99254W        W58691  37.035  35.077  11.553
99255W        W58692  31.426  16.650  11.426
99256W        W58693  32.131   7.311  11.375
99257W        W58694  18.138  44.434   2.183
99258W        W58695  23.503  33.060  12.379
99259W        W58696  27.560   1.471   0.765
99260W        W58697  22.165  44.420   2.682
99261W        W58698  34.047   7.734   0.383
99262W        W58699   0.979  31.511  13.008
99263W        W58700  36.412  13.226   2.330
99264W        W58701  21.262   1.975   3.327
99265W        W58702  39.328   4.700   0.859
99266W        W58703   3.224  10.359   3.383
99267W        W58704   7.275   4.729  11.547
99268W        W58705  37.940  11.241  10.491
99269W        W58706   4.738  26.052  12.096
99270W        W58707   9.787  15.297   2.900
99271W        W58708  11.822  30.472   0.478
99272W        W58709  16.071  38.505   2.735
99273W        W58710  37.362  41.824   4.708
99274W        W58711  10.789  28.643  10.640
99275W        W58712  19.125   5.704   0.457
99276W        W58713  30.470   2.229   2.206
99277W        W58714  33.567  42.365   2.834
99278W        W58715  30.147  20.175   0.773
99279W        W58716  28.612   5.819   4.745
99280W        W58717  34.582   0.936  12.966
99281W        W58718  19.760   4.775  12.391
99282W        W58719  42.945  39.816   3.643
99283W        W58720  19.568  33.037   2.234
99284W        W58721  36.531  33.963   1.426
99285W        W58722  11.680  25.964  11.940
99286W        W58723   2.357  43.340  13.469
99287W        W58724  19.175  20.699  11.465
99288W        W58725  40.385  39.040  11.003
99289W        W58726  21.218  40.929   1.279
99290W        W58727  10.763  44.430  11.958
99291W        W58728  36.417  42.792  12.412
99292W        W58729   2.294   9.248  11.420
99293W        W58730  33.605  40.820   1.226
99294W        W58731   1.897  13.653  13.445
99295W        W58732  41.319  31.533  13.834
99296W        W58733  10.743  23.609  10.911
99297W        W58734  12.197  41.412  14.823
99298W        W58735  36.961  17.247  14.492
99299W        W58736  30.941  16.623   4.826
99300W        W58737  24.693  23.652  12.895
99301W        W58738  27.546   2.841  11.459
99302W        W58739  44.968   2.915  14.296
99303W        W58740   6.206  44.479   5.187
99304W        W58741  11.170  10.778  11.489
99305W        W58742  24.612  18.681   0.855
99306W        W58743   4.397  23.124   0.887
99307W        W58744   0.300  31.620   1.416
99308W        W58745   4.791   7.343  12.564
99309W        W58746  30.034  42.901   2.797
99310W        W58747  26.667  43.318   1.268
99311W        W58748   6.302  14.603   2.388
99312W        W58749  13.115   7.259   2.701
99313W        W58750   5.811  39.475   0.957
99314W        W58751  13.141   1.273  14.917
99315W        W58752  36.520  22.687  10.112
99316W        W58753  24.638  17.777   0.393
99317W        W58754  33.004  16.175   4.205
99318W        W58755   0.299  17.104  10.559
99319W        W58756   8.811  35.872  10.914
99320W        W58757   0.330  19.219  10.463
99321W        W58758  18.596  41.318  12.986
99322W        W58759  22.033   6.336  11.866
99323W        W58760  11.260  32.559  14.436
99324W        W58761  22.160   1.956  10.477
99325W        W58762   4.815  36.556  12.950
99326W        W58763  38.570   7.287   3.160
99327W        W58764   0.891   1.349  11.980
99328W        W58765  16.691  39.537   4.189
99329W        W58766   8.732  13.633  14.400
99330W        W58767  34.409  21.526   4.677
99331W        W58768  32.509  17.148  11.599
99332W        W58769  19.557   8.737   3.202
99333W        W58770   8.284  15.133   3.350
99334W        W58771   1.341   4.762   2.664
99335W        W58772  21.688   7.269   1.391
99336W        W58773   2.286  25.628  13.008
99337W        W58774  44.944   4.249  10.575
99338W        W58775   7.818  37.858   0.832
99339W        W58776   4.280  41.797  11.523
99340W        W58777   3.931  42.963  14.778
99341W        W58778  41.340   2.311   0.751
99342W        W58779  17.759  37.418  13.335
99343W        W58780   2.293  11.681  13.408
99344W        W58781  37.898  23.140   1.413
99345W        W58782  31.991  29.978   4.729
99346W        W58783  32.442   2.965  11.405
99347W        W58784  22.629  36.563  12.944
99348W        W58785  20.249  25.208  10.923
99349W        W58786  28.124  10.277  14.351
99350W        W58787  31.610  37.416  11.440
99351W        W58788  33.116  17.289   2.364
99352W        W58789  23.721  13.645  13.315
99353W        W58790  18.073  13.232  13.366
99354W        W58791  22.513   1.829  11.449
99355W        W58792   2.882  13.299  13.892
99356W        W58793  25.551  21.123  11.429
99357W        W58794  32.416  39.435   1.288
99358W        W58795  40.375  26.175  13.012
99359W        W58796  32.627   4.910   4.715
99360W        W58797  38.483  33.007   4.616
99361W        W58798  19.711  20.219  14.876
99362W        W58799  25.023  39.018  10.896
99363W        W58800  44.000  22.197  11.103
99364W        W58801  17.596  41.375   4.325
99365W        W58802  15.596   6.922  10.592
99366W        W58803   2.443  22.177  12.863
99367W        W58804   7.783  30.505   1.385
99368W        W58805  14.254  22.517   0.943
99369W        W58806   2.380  30.650  12.088
99370W        W58807  15.279   1.404   2.674
99371W        W58808   6.363  13.608  10.548
99372W        W58809  13.822  42.402   1.712
99373W        W58810  15.799  31.127  13.797
99374W        W58811  44.400  19.617   3.322
99375W        W58812  35.951  20.632   3.698
99376W        W58813  40.386  12.780  11.081
99377W        W58814   1.744  12.735   1.299
99378W        W58815  23.634  13.328  10.973
99379W        W58816   4.803  32.481   1.836
99380W        W58817  16.727  38.559   9.448
99381W        W58818  43.903  40.050  11.548
99382W        W58819  36.350   8.850  10.983
99383W        W58820   4.874  43.408   3.651
99384W        W58821  17.244  18.782  13.971
99385W        W58822  40.958  37.479   4.706
99386W        W58823   0.933   8.319   1.736
99387W        W58824  23.592  25.190   1.912
99388W        W58825   4.339   2.452  11.900
99389W        W58826  16.076  19.150   9.514
99390W        W58827  41.431  13.213   0.798
99391W        W58828   4.421  28.090   4.693
99392W        W58829  40.890  32.465   3.321
99393W        W58830   6.409  36.923  13.517
99394W        W58831  37.879   1.421   3.668
99395W        W58832  39.019   9.849   0.776
99396W        W58833  34.377  15.227   0.889
99397W        W58834   9.843  12.790   0.446
99398W        W58835  25.623  33.085  14.009
99399W        W58836  13.609  12.245  13.015
99400W        W58837   0.831  17.276   5.117
99401W        W58838  43.392  38.346   2.378
99402W        W58839  23.532  17.642  11.901
99403W        W58840   1.795  29.611   1.719
99404W        W58841  17.131   2.779  13.894
99405W        W58842  32.560   2.429   1.366
99406W        W58843  16.656  20.639  12.501
99407W        W58844  18.278  24.652  10.936
99408W        W58845   6.184   3.884  10.992
99409W        W58846  42.936  21.084   2.356
99410W        W58847  23.556  33.512   2.302
99411W        W58848  30.572  42.434  12.936
99412W        W58849  21.661  25.214   4.258
99413W        W58850   4.407  22.572   2.335
99414W        W58851  11.319  12.791   2.251
99415W        W58852  17.640  26.569  12.074
99416W        W58853  35.857  41.990   2.416
99417W        W58854  38.037  15.203   4.777
99418W        W58855   3.273  25.519  14.290
99419W        W58856  26.515  36.900  13.480
99420W        W58857  27.079  43.396   3.691
99421W        W58858  25.032  24.635   0.958
99422W        W58859  11.656  14.602   0.751
99423W        W58860  11.624  43.879  11.010
99424W        W58861  31.942  10.242   1.792
99425W        W58862  25.600  18.122   3.708
99426W        W58863   2.934  36.870  14.926
99427W        W58864  27.570   5.432   1.716
99428W        W58865  35.578  19.258  11.963
99429W        W58866   6.811  43.960   2.264
99430W        W58867  23.516  42.935  12.864
99431W        W58868  24.573  15.109  13.992
99432W        W58869  12.223  38.402   2.232
99433W        W58870  11.250  39.428  14.931
99434W        W58871   2.888  28.466  11.008
99435W        W58872  18.080  17.302  12.828
99436W        W58873   6.882  16.196  13.842
99437W        W58874  43.463   8.688   1.758
99438W        W58875  43.959  42.961  13.818
99439W        W58876  20.633  25.032  14.871
99440W        W58877   9.852  20.186   2.821
99441W        W58878   2.959  11.810  14.501
99442W        W58879  12.150  32.931  13.810
99443W        W58880  26.152  31.522  11.540
99444W        W58881  28.584  12.211  14.820
99445W        W58882  41.881  13.169  12.857
99446W        W58883  40.494  41.400   3.730
99447W        W58884   8.802  40.973   2.791
99448W        W58885  36.883  36.588  14.417
99449W        W58886  42.848  14.115  12.881
99450W        W58887  10.298  33.995  12.029
99451W        W58888  40.369  17.117   2.867
99452W        W58889  44.397  13.667  14.918
99453W        W58890   3.342  32.619  10.437
99454W        W58891  14.597  44.926   0.466
99455W        W58892  29.986   4.240  10.623
99456W        W58893  29.025   5.695   1.782
99457W        W58894  31.523   4.894  10.455
99458W        W58895  40.860  35.104  12.827
99459W        W58896  19.136  19.118  12.956
99460W        W58897  34.529  21.139   1.767
99461W        W58898  19.629   4.214   2.840
99462W        W58899  22.173  39.389  12.499
99463W        W58900  23.005   4.910   4.128
99464W        W58901  32.909  31.060  12.971
99465W        W58902  13.224  19.567  13.470
99466W        W58903  37.958  28.552  11.987
99467W        W58904  20.086  18.050   1.888
99468W        W58905  22.570  11.680   4.316
99469W        W58906  21.628  29.099  10.539
99470W        W58907  36.077  30.907  12.088
99471W        W58908  35.600   9.274  13.936
99472W        W58909  21.725  10.374   0.748
99473W        W58910  13.764  21.752   1.434
99474W        W58911  25.068  37.990  11.005
99475W        W58912  28.460  33.088  14.381
99476W        W58913  33.968  37.041  11.986
99477W        W58914   9.803  38.353   1.220
99478W        W58915   1.737  42.457  12.875
99479W        W58916  23.595  19.084  13.964
99480W        W58917  15.274  31.144  13.032
99481W        W58918  43.868  32.098   9.922
99482W        W58919   2.406  21.613  11.558
99483W        W58920  43.869   0.985   4.597
99484W        W58921  23.705  42.438  12.415
99485W        W58922  25.075  17.124  10.966
99486W        W58923   6.692  25.095   3.686
99487W        W58924  29.545  40.328   3.690
99488W        W58925  41.891   6.300   0.900
99489W        W58926  35.480  37.872  12.565
99490W        W58927  22.026  36.044   2.781
99491W        W58928  32.141  10.300   3.714
99492W        W58929   8.675  15.747   1.440
99493W        W58930  40.323  27.658   0.890
99494W        W58931  42.874  21.059   3.213
99495W        W58932  29.126  43.433   4.672
99496W        W58933  15.725  15.600   4.158
99497W        W58934  18.094  42.944  11.434
99498W        W58935   3.796  15.579   3.854
99499W        W58936   9.379  39.849  13.443
99500W        W58937   2.790  19.599   1.713
99501W        W58938   8.380  21.597  12.025
99502W        W58939  26.534  36.443  12.516
99503W        W58940  30.943  13.270  13.490
99504W        W58941  13.790  31.004  12.976
99505W        W58942  17.082   6.345   1.789
99506W        W58943   1.423  41.809   1.702
99507W        W58944  18.292  31.587  14.982
99508W        W58945  16.157  33.425   4.238
99509W        W58946  25.562  37.918  12.370
99510W        W58947  33.117  34.110  12.381
99511W        W58948  27.989  44.840  11.402
99512W        W58949  23.548  27.089   3.325
99513W        W58950  11.192  20.127  12.982
99514W        W58951  40.394  30.941   2.715
99515W        W58952  27.505  40.047  14.499
99516W        W58953  35.530  18.558  14.864
99517W        W58954   3.897  20.646   4.602
99518W        W58955   6.836   0.315  12.352
99519W        W58956   4.372  33.044  13.838
99520W        W58957  38.333  40.341   1.279
99521W        W58958  36.457  16.731  12.931
99522W        W58959  24.494  39.345   1.313
99523W        W58960  41.960  33.569   5.255
99524W        W58961  44.957   8.795   0.435
99525W        W58962  37.859  22.102  11.604
99526W        W58963  41.479  40.945   0.863
99527W        W58964  31.512  31.052   0.314
99528W        W58965  20.756   5.787   1.725
99529W        W58966  41.802  41.524   1.250
99530W        W58967   4.837  18.686  14.773
99531W        W58968  24.572  30.113  14.762
99532W        W58969  35.888  41.437  14.334
99533W        W58970   8.321  38.917  14.857
99534W        W58971  23.115  34.986  11.568
99535W        W58972  20.185  12.122   1.845
99536W        W58973  14.596   4.804  10.920
99537W        W58974  19.554   8.297  11.532
99538W        W58975  26.012  41.862  14.510
99539W        W58976   8.869  15.767   1.821
99540W        W58977  39.944  22.050   2.220
99541W        W58978  27.562   4.234  14.489
99542W        W58979   0.476  27.602   4.670
99543W        W58980  42.429  26.993  12.434
99544W        W58981  44.340  19.239  14.462
99545W        W58982  25.120  14.705   0.431
99546W        W58983  28.628  23.218   0.832
99547W        W58984  14.787  33.096   3.379
99548W        W58985   3.350  27.983  12.825
99549W        W58986  39.370  10.741   1.333
99550W        W58987  39.950   1.752   4.170
99551W        W58988  14.113  39.811  12.384
99552W        W58989  25.146   0.955   0.910
99553W        W58990  28.061  44.826  12.563
99554W        W58991  34.464  44.844  14.943
99555W        W58992  16.289  10.658  12.997
99556W        W58993  24.662  27.525   2.392
99557W        W58994  24.074  44.984  12.401
99558W        W58995  32.486   5.803   2.340
99559W        W58996  21.163  40.519   0.727
99560W        W58997  37.909  44.003  13.840
99561W        W58998   0.488  21.618  11.410
99562W        W58999  19.589  28.613  14.508
99563W        W59000  33.621  37.881  13.339
99564W        W59001  36.523  37.030   5.114
99565W        W59002  41.032  15.768   4.197
99566W        W59003  40.408  33.899  12.069
99567W        W59004  10.721  36.386   1.816
99568W        W59005  12.182  24.561   0.407
99569W        W59006  38.040  42.463  10.992
99570W        W59007  23.134   7.254  13.439
99571W        W59008  30.090   6.205   0.260
99572W        W59009  21.544   9.218  14.993
99573W        W59010  30.644   6.195  13.392
99574W        W59011  35.480  25.575  11.418
99575W        W59012  41.801   1.243   1.431
99576W        W59013  26.974  39.026   2.830
99577W        W59014  16.681  17.231  10.544
99578W        W59015  28.680  10.324   4.780
99579W        W59016   5.831  25.985  12.082
99580W        W59017  26.503   9.846  14.372
99581W        W59018  22.217  12.840  12.344
99582W        W59019  40.319  38.398  14.023
99583W        W59020  16.263  40.986   2.881
99584W        W59021  17.116  32.896  14.441
99585W        W59022  14.762  38.936   1.755
99586W        W59023  27.191  31.435   4.304
99587W        W59024  29.460  34.068   2.410
99588W        W59025  20.663   2.286  10.553
99589W        W59026  12.302  18.179  13.054
99590W        W59027  21.227  12.338   4.153
99591W        W59028  20.270  17.756  13.057
99592W        W59029  11.357  39.492  10.411
99593W        W59030  37.993  19.709  11.571
99594W        W59031  12.615  31.527   0.932
99595W        W59032   0.280   7.884  11.923
99596W        W59033   4.750  18.281   4.317
99597W        W59034  36.980  16.759  11.451
99598W        W59035  43.880  10.224  12.974
99599W        W59036  38.024   9.757  13.318
99600W        W59037  19.565  31.940  14.940
99601W        W59038  22.702  34.591   4.352
99602W        W59039  21.021  32.009  13.048
99603W        W59040  31.142  32.112   0.284
99604W        W59041  33.388  36.014  11.941
99605W        W59042  14.687  36.446   1.909
99606W        W59043   1.808  21.633   2.847
99607W        W59044  16.198  34.055   2.706
99608W        W59045  22.574   0.338  13.356
99609W        W59046  21.734  20.113  14.818
99610W        W59047   5.933  33.421  13.327
99611W        W59048   4.724  21.229  14.961
99612W        W59049   5.721  36.588  12.490
99613W        W59050   7.757  24.164  10.022
99614W        W59051  40.925  33.081  11.106
99615W        W59052   6.823   1.436   3.234
99616W        W59053  38.069  27.449  14.017
99617W        W59054  18.170   7.354  14.830
99618W        W59055  27.482  14.328  13.895
99619W        W59056   3.727  35.382  12.879
99620W        W59057  43.497  29.607  13.535
99621W        W59058  10.155  38.363   2.355
99622W        W59059  23.998   6.920   2.378
99623W        W59060  41.985  30.654   0.836
99624W        W59061  21.214   3.791  13.817
99625W        W59062  16.796  44.839   2.294
99626W        W59063  42.786   8.300   1.809
99627W        W59064  25.995   7.894  13.359
99628W        W59065   7.693  15.215   4.342
99629W        W59066  39.065  10.383   1.838
99630W        W59067   9.739  32.053  14.784
99631W        W59068  18.786   7.673   3.856
99632W        W59069  23.088   3.367  12.483
99633W        W59070  36.037  34.545   4.308
99634W        W59071   5.342  40.803  12.568
99635W        W59072  43.477  18.729   3.847
99636W        W59073  38.820  10.638  14.907
99637W        W59074  12.706   2.855   3.782
99638W        W59075  27.972   4.321  13.972
99639W        W59076  38.068  40.356   2.760
99640W        W59077   5.820  40.507  13.017
99641W        W59078  42.342  29.514  11.906
99642W        W59079  14.114  33.514  13.846
99643W        W59080  30.521  16.686  13.915
99644W        W59081  28.510   4.854   2.416
99645W        W59082  18.135  33.923  14.432
99646W        W59083  32.132  30.926  14.985
99647W        W59084   8.867   2.387  13.546
99648W        W59085  23.035  33.944  11.529
99649W        W59086   7.908  44.375  14.979
99650W        W59087  17.089  41.793  12.494
99651W        W59088  17.215   2.811   2.756
99652W        W59089  14.589   5.830   0.446
99653W        W59090  38.970  19.673  14.463
99654W        W59091  31.507  24.567   3.246
99655W        W59092  40.305  39.390   4.126
99656W        W59093  16.726   6.186   0.954
99657W        W59094  32.392   2.451   0.794
99658W        W59095  11.271  37.351   2.755
99659W        W59096  35.584  11.651   1.313
99660W        W59097  31.618  41.303  13.400
99661W        W59098  24.181  44.917  11.581
99662W        W59099  43.417  35.436  14.424
99663W        W59100  23.653  39.882   4.678
99664W        W59101  37.898  32.492  11.018
99665W        W59102  22.124  16.572  14.818
99666W        W59103   7.395   5.265   3.795
99667W        W59104  27.123  29.987  14.441
99668W        W59105  10.340  34.091   3.814
99669W        W59106  44.428  32.040  11.541
99670W        W59107  24.974  34.584   2.210
99671W        W59108   4.273  18.067   3.832
99672W        W59109  22.132  22.666  13.884
99673W        W59110  33.604  37.879   4.276
99674W        W59111  33.086   5.835   4.803
99675W        W59112  11.644  30.147   2.876
99676W        W59113  35.996  36.908   0.875
99677W        W59114  35.478  17.120  10.437
99678W        W59115  20.092   7.899  12.935
99679W        W59116  44.446  23.121  13.039
99680W        W59117   2.938  34.516   2.881
99681W        W59118  41.837  11.332  13.472
99682W        W59119  41.343  37.835   9.642
99683W        W59120  34.093   5.397  14.486
99684W        W59121  27.047  41.816   2.767
99685W        W59122  24.676  41.443   0.315
99686W        W59123  18.617  27.967   3.696
99687W        W59124   9.289   8.827  12.000
99688W        W59125   6.345  38.546  14.860
99689W        W59126  41.448  33.462   4.821
99690W        W59127  31.021   3.444   1.813
99691W        W59128  43.475  39.339  12.953
99692W        W59129  26.983  14.810   9.659
99693W        W59130  16.740  31.916   4.173
99694W        W59131  38.962   3.350   1.386
99695W        W59132  13.710  39.447   4.270
99696W        W59133  30.072  21.074  14.481
99697W        W59134   0.752  16.736  14.306
99698W        W59135  24.142  20.245  13.957
99699W        W59136   1.945  29.625  14.838
99700W        W59137   6.236   0.492  11.932
99701W        W59138  39.482  14.146   4.710
99702W        W59139  40.304   3.439  11.033
99703W        W59140  41.793   0.288   3.254
99704W        W59141  36.044   9.305  12.086
99705W        W59142   8.381   0.289   2.756
99706W        W59143   1.244  17.151  10.035
99707W        W59144  37.512  21.604   0.741
99708W        W59145  35.384  23.715  11.897
99709W        W59146  11.686  11.647  11.940
99710W        W59147   8.746  39.884  14.935
99711W        W59148  16.664  16.221  10.977
99712W        W59149  41.503   6.281  13.856
99713W        W59150  22.146  41.015  14.313
99714W        W59151  34.614  32.433  12.887
99715W        W59152  16.807  26.616  12.426
99716W        W59153   7.238  31.592  12.345
99717W        W59154   6.734  31.611  14.808
99718W        W59155  23.226  30.970   2.824
99719W        W59156  37.841  15.722   9.993
99720W        W59157   4.939  31.541  12.993
99721W        W59158  35.059  14.781  11.107
99722W        W59159   9.751  26.569  13.036
99723W        W59160  14.170  24.504  11.572
99724W        W59161  34.088  27.969  14.772
99725W        W59162   0.399  23.661  10.557
99726W        W59163   7.213  31.446   2.806
99727W        W59164   3.232  37.424  12.441
99728W        W59165  35.901   6.249   0.375
99729W        W59166  19.669  39.362  12.549
99730W        W59167  30.021  26.507   5.170
99731W        W59168  21.094  20.697   0.773
99732W        W59169  20.100  26.052  14.338
99733W        W59170  23.614  32.919  11.874
99734W        W59171  34.588  18.121   1.903
99735W        W59172  15.227  17.680  12.556
99736W        W59173  36.574  23.538  13.385
99737W        W59174   1.790   9.246  12.994
99738W        W59175  41.886  35.403  12.424
99739W        W59176  37.395   3.955   3.357
99740W        W59177  17.677  24.668  10.417
99741W        W59178  13.624  31.939   4.761
99742W        W59179  32.954   1.354   2.890
99743W        W59180   1.378  10.793   4.659
99744W        W59181  27.054  13.774   1.785
99745W        W59182  19.066  29.504  12.441
99746W        W59183  38.553  36.515  13.913
99747W        W59184   9.816  39.365   0.826
99748W        W59185   5.864   7.202  12.535
99749W        W59186  24.722  20.202   0.281
99750W        W59187   0.296  30.946   0.775
99751W        W59188   5.703  29.621   1.769
99752W        W59189  41.824  44.959  11.056
99753W        W59190  18.608  36.064  10.993
99754W        W59191  36.450  16.772   0.961
99755W        W59192  33.947  14.600   4.323
99756W        W59193  17.286  27.007  11.868
99757W        W59194  28.949  40.881  10.000
99758W        W59195  16.792  37.493   4.775
99759W        W59196  42.353  11.312  11.873
99760W        W59197  40.317   1.746  10.631
99761W        W59198  12.699  40.912  13.377
99762W        W59199  21.700   3.261   2.662
99763W        W59200   2.911  36.978  12.913
99764W        W59201  18.550   0.438  12.436
99765W        W59202  34.529  43.020   2.267
99766W        W59203  31.897  43.871  13.820
99767W        W59204  28.090  36.903  13.896
99768W        W59205  19.708   4.400  13.825
99769W        W59206  24.666  36.940   9.588
99770W        W59207  11.621  12.249  14.876
99771W        W59208  34.404  15.620   0.795
99772W        W59209  39.046  15.163  13.928
99773W        W59210   6.897   6.243   0.763
99774W        W59211  11.651  33.928  10.602
99775W        W59212  39.879  13.244   3.310
99776W        W59213   1.414  10.690  11.483
99777W        W59214  18.142   2.227  14.870
99778W        W59215   9.204  39.478   1.332
99779W        W59216  18.617  13.761   3.216
99780W        W59217  30.621  14.141  12.049
99781W        W59218  17.284  41.978   0.273
99782W        W59219  12.695  26.125  12.985
99783W        W59220  37.867  12.259   1.783
99784W        W59221  41.887  24.064  10.944
99785W        W59222  21.746  44.829   1.746
99786W        W59223  36.585  24.173  14.864
99787W        W59224  10.703   1.792   0.792
99788W        W59225  38.336  24.479  10.577
99789W        W59226  20.539  42.408   2.823
99790W        W59227  18.662   8.898   1.324
99791W        W59228  31.013  41.933  10.938
99792W        W59229   5.739   9.311  13.020
99793W        W59230  11.682  26.544   5.138
99794W        W59231  38.488   4.292   1.859
99795W        W59232  43.289   3.227   0.481
99796W        W59233  31.426  43.937   3.334
99797W        W59234   3.814  11.840   1.814
99798W        W59235  40.514   2.246  14.968
99799W        W59236  31.088  15.204   2.777
99800W        W59237  34.985   9.804  13.816
99801W        W59238   0.868   9.323  12.988
99802W        W59239  10.250  40.832   2.341
99803W        W59240  16.240  38.876  11.961
99804W        W59241  37.062   4.436   0.905
99805W        W59242   0.767  31.995  13.903
99806W        W59243  39.877  11.737  11.075
99807W        W59244  37.856  29.513  10.645
99808W        W59245  37.525  38.505  14.443
99809W        W59246  44.847   1.483  12.980
99810W        W59247  14.185  40.907   0.470
99811W        W59248  37.017  16.735   1.322
99812W        W59249  41.842  32.526  12.399
99813W        W59250  18.280   8.754   1.795
99814W        W59251  29.120  32.453  12.487
99815W        W59252  25.654   2.944   3.357
99816W        W59253  13.275  18.133   0.326
99817W        W59254  17.092  21.075  12.561
99818W        W59255  12.672  16.110  10.986
99819W        W59256   9.345  40.400   0.312
99820W        W59257   4.861  29.969  11.419
99821W        W59258  19.242  19.261  11.914
99822W        W59259  38.441  27.088   3.674
99823W        W59260  34.968   6.249  14.399
99824W        W59261  24.035  43.996  12.085
99825W        W59262  11.766  21.127  14.972
99826W        W59263   7.210  15.143   3.868
99827W        W59264  12.269  21.626  13.384
99828W        W59265  29.517   0.871  13.876
99829W        W59266  40.896  37.971   2.393
99830W        W59267  15.626  41.326  14.882
99831W        W59268  29.930  13.146   3.270
99832W        W59269  35.948   2.314  11.989
99833W        W59270  30.109  15.275   3.747
99834W        W59271  30.140  20.165   2.380
99835W        W59272  38.929  28.978   1.301
99836W        W59273  44.945  28.969  10.567
99837W        W59274   0.485   5.892   4.219
99838W        W59275  19.610   5.234  14.861
99839W        W59276   4.296  34.068   4.734
99840W        W59277  40.885  19.573   2.753
99841W        W59278  15.737  42.394   3.327
99842W        W59279  39.484  11.666   3.274
99843W        W59280   1.427  38.352   1.771
99844W        W59281  20.029  35.857   1.415
99845W        W59282  36.983  38.066   2.895
99846W        W59283  14.254  26.703   0.364
99847W        W59284  32.603  26.622  10.984
99848W        W59285  10.348  37.075   2.232
99849W        W59286  36.437  19.081  11.113
99850W        W59287  25.084  17.224   4.173
99851W        W59288   0.402  18.663  13.324
99852W        W59289  43.435  40.015  13.923
99853W        W59290  30.422   8.819   4.283
99854W        W59291  29.169  33.001   0.403
99855W        W59292  43.488  43.379   3.201
99856W        W59293  44.346   3.796   2.362
99857W        W59294  34.614  44.307   1.390
99858W        W59295  33.888  28.463   2.731
99859W        W59296  19.186   4.303   2.878
99860W        W59297  32.909  44.287   3.221
99861W        W59298   4.219   8.670  13.353
99862W        W59299  24.156  25.047   0.323
99863W        W59300   6.827  34.614   0.841
99864W        W59301  14.630  18.109   4.816
99865W        W59302  22.035  14.775   4.131
99866W        W59303  42.956  23.152   1.272
99867W        W59304  29.604   2.724  11.476
99868W        W59305  20.593  18.732  14.888
99869W        W59306  27.180  14.155   0.904
99870W        W59307  41.791  39.488  11.445
99871W        W59308  32.894  18.791  13.391
99872W        W59309  17.583  24.210  10.520
99873W        W59310  10.311   4.231   0.306
99874W        W59311  26.703   9.816  12.858
99875W        W59312   7.680   3.418  10.039
99876W        W59313   0.922  21.157  14.409
99877W        W59314  38.903  34.058  12.371
99878W        W59315  18.674   8.327   3.314
99879W        W59316  12.787   0.475   0.820
99880W        W59317  23.556  14.322  14.013
99881W        W59318  43.796   1.937  13.004
99882W        W59319  34.118  28.564  12.436
99883W        W59320  13.211  40.541  11.952
99884W        W59321  22.052  24.552  12.474
99885W        W59322  32.535  35.077   3.730
99886W        W59323  29.128  17.577   3.246
99887W        W59324  31.416  43.803  12.060
99888W        W59325   2.961   6.395  12.458
99889W        W59326  18.762  22.996   4.349
99890W        W59327  12.119  26.600   3.227
99891W        W59328  35.453   2.876   1.448
99892W        W59329  29.584  29.043   0.474
99893W        W59330  15.217   7.174  11.443
99894W        W59331  34.029  14.689   1.823
99895W        W59332  29.068   2.745   1.702
99896W        W59333  19.551  24.563  11.447
99897W        W59334   3.813  29.967   4.801
99898W        W59335  29.995  16.577  13.040
99899W        W59336  31.452  39.502   5.139
99900W        W59337  11.334   2.292   4.714
99901W        W59338  42.912  26.074  10.625
99902W        W59339  30.959  35.549   0.361
99903W        W59340  43.421  32.571  13.935
99904W        W59341  14.782  29.662  11.032
99905W        W59342  42.444  10.289   3.730
99906W        W59343  10.697  22.662  11.442
99907W        W59344  41.368  32.545   0.333
99908W        W59345  23.587  28.057  14.448
99909W        W59346  35.595  19.230  13.510
99910W        W59347  12.648   1.452   1.447
99911W        W59348   4.305  39.372   2.694
99912W        W59349  13.705  43.306   3.855
99913W        W59350   7.326  43.958  14.371
99914W        W59351  43.280   1.308  11.527
99915W        W59352  16.087  24.199   1.848
99916W        W59353   4.430  10.154   1.443
99917W        W59354  34.908  10.227   5.263
99918W        W59355   8.863  33.577   0.951
99919W        W59356   3.349  34.509   4.208
99920W        W59357  35.905  43.884   2.312
99921W        W59358  19.670  37.476   1.792
99922W        W59359  14.626  19.680  11.451
99923W        W59360   9.655  14.788   2.313
99924W        W59361  17.628  13.617   3.841
99925W        W59362  15.739  30.044   2.662
99926W        W59363  24.480  26.507  12.377
99927W        W59364  43.378  15.267  14.956
99928W        W59365  32.542   8.211   4.655
99929W        W59366  35.510  41.446  12.570
99930W        W59367  44.875  35.511   1.918
99931W        W59368  12.327  36.489  11.954
99932W        W59369   5.700  12.322   0.448
99933W        W59370  37.832  41.352   2.822
99934W        W59371  40.546   4.344   1.723
99935W        W59372  32.014  21.530  12.019
99936W        W59373   6.907   3.256  14.479
99937W        W59374  24.131  29.148   4.757
99938W        W59375   5.807  21.674   4.131
99939W        W59376  11.369  31.613  11.007
99940W        W59377  19.079  35.922  11.074
99941W        W59378  43.321   3.239  14.819
99942W        W59379  40.437   2.958   2.755
99943W        W59380  12.295  18.261   3.667
99944W        W59381  18.643  20.615  12.503
99945W        W59382  16.159  17.165   4.729
99946W        W59383  40.530  12.167   1.340
99947W        W59384  39.317  31.545   1.449
99948W        W59385  39.829  41.914  14.373
99949W        W59386  18.552   6.875  10.572
99950W        W59387  22.078  26.620   1.828
99951W        W59388  44.274  16.267   0.374
99952W        W59389  15.227  29.005   3.195
99953W        W59390   8.824  18.175   2.294
99954W        W59391  35.580  25.633   1.811
99955W        W59392  14.241   8.700  12.495
99956W        W59393   9.203   3.458  14.848
99957W        W59394  29.112  16.173  13.465
99958W        W59395   1.317  27.004   3.672
99959W        W59396  33.474  35.410   0.313
99960W        W59397  30.154  25.057   1.894
99961W        W59398  11.730  44.785  13.421
99962W        W59399  15.641  27.522  11.954
99963W        W59400   3.393  27.508  14.446
99964W        W59401  44.008   5.924   1.849
99965W        W59402  15.083  17.261  10.531
99966W        W59403   5.737  17.581   2.381
99967W        W59404  15.726  38.041   2.408
99968W        W59405  39.523  11.729  10.949
99969W        W59406  36.396   1.377   0.412
99970W        W59407  13.731  44.974   4.791
99971W        W59408  12.202  27.672   3.709
99972W        W59409  20.722  37.384   0.279
99973W        W59410  10.341   9.204   1.824
99974W        W59411  43.371  30.060   2.834
99975W        W59412  34.483  26.970  14.866
99976W        W59413  12.825  18.279   1.847
99977W        W59414  21.057  31.954   2.706
99978W        W59415  28.174  44.471   1.715
99979W        W59416  22.593   5.213   4.647
99980W        W59417  33.878   9.292   0.359
99981W        W59418  41.462  12.184   3.741
99982W        W59419  22.587  40.492   3.197
99983W        W59420   2.811  23.661  14.305
99984W        W59421   7.354  27.145  14.478
99985W        W59422  38.396  41.963   3.818
99986W        W59423  20.617  30.097   3.280
99987W        W59424  29.497  32.075  13.023
99988W        W59425   6.345  11.188   3.855
99989W        W59426  43.440   5.860   2.379
99990W        W59427   4.241  40.489  12.438
99991W        W59428  42.837  43.276   2.822
99992W        W59429  43.325  27.550  11.916
99993W        W59430  27.153  27.946  12.932
99994W        W59431  22.083  16.131   2.759
99995W        W59432  20.211  43.849  14.778
99996W        W59433   3.918   2.961  10.945
99997W        W59434  35.435  14.761   3.295
99998W        W59435  32.618   8.698   4.176
99999W        W59436  14.140  37.427  12.504
    0W        W59437  35.576  44.938  13.499
    1W        W59438  11.155  28.073  12.837
    2W        W59439  42.326   2.300  11.918
    3W        W59440  37.410  20.075   0.319
    4W        W59441  13.341  35.597  12.034
    5W        W59442  43.382  17.285   4.805
    6W        W59443  29.038  16.653  11.474
    7W        W59444  16.585   7.392   3.809
    8W        W59445   5.216  27.481   4.228
    9W        W59446  35.046  22.067  12.847
   10W        W59447   4.803  28.095   0.860
   11W        W59448   6.375  43.400  13.418
   12W        W59449  37.895  16.099  14.778
   13W        W59450  26.022  41.470   3.370
   14W        W59451  37.495  35.555  14.932
   15W        W59452  17.249  29.458   3.205
   16W        W59453  40.495  43.833   3.281
   17W        W59454  39.917  33.413   4.120
   18W        W59455   4.357  28.663   1.863
   19W        W59456   7.885  11.767   4.175
   20W        W59457   4.749  33.010   3.635
   21W        W59458  27.985  11.714   1.235
   22W        W59459  21.590   1.830   0.375
   23W        W59460  43.957  20.552   1.279
   24W        W59461   8.318  27.136  13.502
   25W        W59462  37.426  25.712  11.550
   26W        W59463   8.272  24.990   2.358
   27W        W59464  14.815  19.046   3.355
   28W        W59465  34.390  33.907  12.496
   29W        W59466  21.087  37.545  14.809
   30W        W59467  39.866  15.599  11.404
   31W        W59468  21.755  41.889  12.358
   32W        W59469  32.013  28.163   1.440
   33W        W59470  37.958  42.328   0.391
   34W        W59471  11.365  34.055  14.785
   35W        W59472  31.088  28.676  14.982
   36W        W59473  11.629  23.708  13.516
   37W        W59474  29.022  14.744   2.663
   38W        W59475   0.357   3.742  13.901
   39W        W59476  33.956  30.494  12.408
   40W        W59477  24.047  14.704  13.872
   41W        W59478  33.474  17.136  14.914
   42W        W59479  13.149  26.074   3.237
   43W        W59480   6.248   7.356  14.907
   44W        W59481  10.799  30.974  11.376
   45W        W59482  31.593  40.447   2.400
   46W        W59483  12.358  27.151  14.978
   47W        W59484  30.909  22.105  14.493
   48W        W59485  11.822  26.115  12.508
   49W        W59486  39.366  43.359  11.476
   50W        W59487   1.820  21.529   0.322
   51W        W59488  38.850  38.919   2.335
   52W        W59489   0.390   4.810  14.897
   53W        W59490  23.172  30.648   2.194
   54W        W59491  25.997   9.191   4.233
   55W        W59492   8.698  36.538  11.579
   56W        W59493  28.043  28.005  11.404
   57W        W59494  31.082  17.695  11.386
   58W        W59495  24.133   2.765   1.746
   59W        W59496  12.727   4.387  13.983
   60W        W59497  10.763  19.233   0.392
   61W        W59498   3.340   0.464  14.790
   62W        W59499  18.280  15.209   5.257
   63W        W59500  17.654  11.255   3.721
   64W        W59501  44.946  33.052  10.410
   65W        W59502  42.451  43.854   2.194
   66W        W59503  22.558   7.758  12.885
   67W        W59504  20.188  39.889  14.486
   68W        W59505  21.069  14.695  11.961
   69W        W59506  15.709  10.195  11.498
   70W        W59507  19.124  41.939   1.223
   71W        W59508   8.361   2.435   1.247
   72W        W59509  20.050  39.903  12.997
   73W        W59510  15.321  30.165   4.277
   74W        W59511   4.803   7.334   3.240
   75W        W59512  34.083  22.029   3.649
   76W        W59513  34.052   6.885  12.360
   77W        W59514  37.064  17.618   4.601
   78W        W59515  20.674   6.751   0.747
   79W        W59516  15.243  16.239  12.996
   80W        W59517  24.045   4.320  14.396
   81W        W59518  17.117  29.981   2.403
   82W        W59519  21.636  35.519  13.051
   83W        W59520  42.338  35.527   2.755
   84W        W59521   1.869  31.002  13.829
   85W        W59522  37.512  21.248   0.265
   86W        W59523  20.556  34.915  11.380
   87W        W59524  28.083  30.960  13.872
   88W        W59525  10.250  23.011   0.478
   89W        W59526   2.339   3.430  11.883
   90W        W59527  27.043  34.103  14.971
   91W        W59528  19.659  24.711   0.267
   92W        W59529  15.634  31.438   4.147
   93W        W59530  16.103  10.341   3.725
   94W        W59531   5.324  18.548   3.362
   95W        W59532  24.063   9.676   1.719
   96W        W59533   2.374  20.207  12.913
   97W        W59534   4.372  36.487  12.450
   98W        W59535  12.242  20.697  11.949
   99W        W59536   9.844  44.404  10.956
  100W        W59537  38.004  32.423  12.546
  101W        W59538  28.044  10.680  13.434
  102W        W59539  35.532  22.189  12.522
  103W        W59540  23.572  38.402   0.326
  104W        W59541  37.904  30.445   2.828
  105W        W59542  35.424  13.311  13.977
  106W        W59543  18.140  28.118   2.896
  107W        W59544  44.477   8.381   4.213
  108W        W59545  15.590  18.093  10.062
  109W        W59546  14.143  38.512  12.367
  110W        W59547  33.104   7.760   0.346
  111W        W59548  22.220  44.326   1.750
  112W        W59549  31.525  15.138  13.926
  113W        W59550   8.744  44.963   4.692
  114W        W59551  34.985  22.201   0.385
  115W        W59552  37.046  17.564  14.933
  116W        W59553  21.543  19.550   2.391
  117W        W59554  22.077  11.131   1.757
  118W        W59555  36.356  38.470   0.434
  119W        W59556  41.958  18.638  14.339
  120W        W59557  32.092  42.393  12.059
  121W        W59558  36.964  12.819  13.800
  122W        W59559  13.672   9.714  12.956
  123W        W59560  11.141  21.623   3.300
  124W        W59561  16.636  20.530  12.915
  125W        W59562   8.679  34.063  12.374
  126W        W59563   9.682  30.450   1.292
  127W        W59564  32.028   4.808   0.382
  128W        W59565  25.158  19.278   0.820
  129W        W59566  27.134  24.721  11.014
  130W        W59567  43.510  25.659  13.934
  131W        W59568  12.128  34.984  12.893
  132W        W59569  28.642  31.947   4.293
  133W        W59570  38.877  14.622   2.359
  134W        W59571  29.943   7.836   0.407
  135W        W59572  11.765  33.499   4.134
  136W        W59573  17.112  22.582  10.606
  137W        W59574  42.844  39.324   1.891
  138W        W59575  18.721   9.806  14.856
  139W        W59576  21.018   6.259  14.819
  140W        W59577  34.071   8.843   2.263
  141W        W59578  26.139  34.517   1.758
  142W        W59579   1.947  14.664   4.764
  143W        W59580   3.270  28.138   1.385
  144W        W59581  24.676  25.170  12.952
  145W        W59582  26.686  17.078  14.932
  146W        W59583  13.692  13.777  13.060
  147W        W59584  31.542   3.717   4.196
  148W        W59585  28.957  26.978  13.980
  149W        W59586  26.032  25.529  11.391
  150W        W59587  17.146  25.016   0.256
  151W        W59588  33.117  21.714   2.739
  152W        W59589  17.751   1.894   2.220
  153W        W59590   7.205   9.281   1.444
  154W        W59591  18.070   9.201   0.390
  155W        W59592  12.270  21.195   4.636
  156W        W59593  19.101  14.603  13.362
  157W        W59594  24.577   6.767  12.492
  158W        W59595   7.202  13.245   3.175
  159W        W59596  26.994   8.349  13.424
  160W        W59597  32.512  11.845   4.811
  161W        W59598   0.248  37.916  13.873
  162W        W59599   7.907   7.333   3.687
  163W        W59600  16.100  19.270   2.265
  164W        W59601  24.223  29.646   1.750
  165W        W59602  10.708  23.212   1.349
  166W        W59603  32.609   4.368  12.535
  167W        W59604  25.189  41.942  12.087
  168W        W59605  34.401  19.197  13.378
  169W        W59606  28.017  28.069   4.699
  170W        W59607  12.832  41.398  11.105
  171W        W59608  32.116  27.629   0.448
  172W        W59609   0.783  15.187  14.463
  173W        W59610   2.880  29.612   4.744
  174W        W59611  14.225  16.705   2.768
  175W        W59612   2.744  42.776   1.424
  176W        W59613  25.196  29.158   4.801
  177W        W59614   7.906   1.856   4.814
  178W        W59615  15.167  12.361   4.822
  179W        W59616   6.270  43.852  12.020
  180W        W59617  13.125  30.446   0.443
  181W        W59618  23.005  20.555   3.214
  182W        W59619  40.896   1.929   1.907
  183W        W59620  22.737  43.841   3.807
  184W        W59621  20.194  26.072   1.381
  185W        W59622  24.497  32.027  11.915
  186W        W59623  13.319   0.805   5.280
  187W        W59624   8.733  32.122  14.324
  188W        W59625  24.692  28.007   3.346
  189W        W59626  17.085  26.000  13.012
  190W        W59627  36.422   4.748   0.312
  191W        W59628  32.426  18.062   3.329
  192W        W59629  27.042  39.494  14.995
  193W        W59630  21.133  30.039  10.934
  194W        W59631  29.645   9.182  12.084
  195W        W59632  13.131  34.874  13.367
  196W        W59633  26.554  30.060   4.164
  197W        W59634  33.916   9.670   3.342
  198W        W59635  34.012   7.283   3.166
  199W        W59636  30.923  37.436   2.733
  200W        W59637  36.475  22.585   3.244
  201W        W59638  39.534   4.801  11.403
  202W        W59639  34.595  22.027   0.837
  203W        W59640  31.026  18.605  11.000
  204W        W59641  39.371  35.992  12.080
  205W        W59642  15.185  17.603  13.958
  206W        W59643  17.157   4.340   3.326
  207W        W59644  29.434  14.120  11.403
  208W        W59645  26.529  17.753  10.962
  209W        W59646  41.019   8.846  11.866
  210W        W59647  18.583  27.973   3.203
  211W        W59648  21.554   5.705  13.822
  212W        W59649   1.929  23.115  12.092
  213W        W59650  29.945  31.965  12.407
  214W        W59651  13.746  41.438   2.672
  215W        W59652  21.241  35.017  12.423
  216W        W59653  41.799  37.392  12.531
  217W        W59654  43.490  30.073   0.341
  218W        W59655   8.757  16.667   4.777
  219W        W59656  21.247  25.072   3.660
  220W        W59657  26.472  44.375  14.469
  221W        W59658  19.779   4.419   4.206
  222W        W59659  11.207  35.942   0.920
  223W        W59660   8.788  14.678   1.839
  224W        W59661  10.826  23.688  14.460
  225W        W59662   9.753   9.701  14.760
  226W        W59663  44.473  15.285   0.277
  227W        W59664   4.418  11.188   3.639
  228W        W59665  29.926  43.987  10.990
  229W        W59666   7.831  29.954   0.269
  230W        W59667  19.040  32.474  13.827
  231W        W59668  30.099  40.992  13.855
  232W        W59669  16.153  41.314   1.902
  233W        W59670  40.398  28.526   3.315
  234W        W59671   6.867  37.518   2.841
  235W        W59672  10.235  20.727   3.181
  236W        W59673   8.392  30.573  12.909
  237W        W59674  34.058  22.189   2.398
  238W        W59675  36.979  19.258   1.836
  239W        W59676   2.249   7.283   2.839
  240W        W59677  11.245  16.250   3.170
  241W        W59678  26.005  34.520  11.544
  242W        W59679  42.493  39.396  10.086
  243W        W59680  24.073   9.865   1.246
  244W        W59681  30.162   0.336  11.410
  245W        W59682  44.453   1.338  14.826
  246W        W59683   7.230   7.803  12.401
  247W        W59684   8.741  40.857  14.363
  248W        W59685   3.243  20.619  11.499
  249W        W59686   8.387  37.885  13.510
  250W        W59687  24.139   7.738   4.818
  251W        W59688  20.665   0.378  13.951
  252W        W59689  29.536  18.592  14.996
  253W        W59690  25.574   7.213  11.043
  254W        W59691  36.521  28.517  14.914
  255W        W59692  11.798  19.587  14.791
  256W        W59693   5.747  22.102   2.724
  257W        W59694  11.198  22.725  12.825
  258W        W59695   8.266  16.695  14.296
  259W        W59696  11.181   3.868  13.007
  260W        W59697  18.696  22.217   1.819
  261W        W59698  34.119   3.325   3.671
  262W        W59699  16.153  12.326   4.666
  263W        W59700  24.103  20.059   0.914
  264W        W59701  22.553  21.684   1.748
  265W        W59702  23.095  21.746  14.398
  266W        W59703  23.059   3.907   0.462
  267W        W59704  34.922   8.355   3.202
  268W        W59705  10.329   2.272  13.446
  269W        W59706  18.771  17.265  14.923
  270W        W59707   1.895   8.192  11.414
  271W        W59708  14.106  22.175   4.340
  272W        W59709  44.897  37.468  14.300
  273W        W59710  19.200  11.231  13.050
  274W        W59711  10.855  13.175  14.463
  275W        W59712  20.033  27.522  13.839
  276W        W59713  41.383  44.927   4.157
  277W        W59714  25.676  26.042   1.804
  278W        W59715  41.878  27.482  11.536
  279W        W59716  12.814  37.528  11.482
  280W        W59717  28.587   1.806  10.620
  281W        W59718   6.736  32.495  14.451
  282W        W59719  42.998  27.055  12.022
  283W        W59720  16.196  28.142  11.431
  284W        W59721  24.491  18.124   1.268
  285W        W59722  14.794  12.794  14.865
  286W        W59723  43.009  44.995  14.357
  287W        W59724  21.226   6.220  12.913
  288W        W59725  19.104  30.049  14.340
  289W        W59726   5.277  35.038   4.661
  290W        W59727   4.929  24.186  14.812
  291W        W59728   5.861  24.552   4.599
  292W        W59729   2.950  25.586   5.652
  293W        W59730  42.853  10.875   2.771
  294W        W59731  11.816  11.716  13.406
  295W        W59732   6.891   4.401   2.411
  296W        W59733  18.654  35.417  10.892
  297W        W59734  31.902  41.012   4.128
  298W        W59735  11.754  23.736   4.720
  299W        W59736  41.488  19.595   4.235
  300W        W59737  40.369  42.031   3.231
  301W        W59738  32.126  32.568  12.945
  302W        W59739   0.368  21.223  12.402
  303W        W59740   7.250  19.709  14.924
  304W        W59741  17.199  28.184   1.840
  305W        W59742  21.130  41.452   0.307
  306W        W59743  33.523   3.854  10.070
  307W        W59744  14.144  43.356  14.506
  308W        W59745   3.383  16.311   0.376
  309W        W59746  19.090  44.770  11.435
  310W        W59747  16.239  21.750  14.861
  311W        W59748  31.487  19.594   0.402
  312W        W59749  17.227   5.332  10.489
  313W        W59750  24.127  30.563   1.887
  314W        W59751  31.440  14.803   4.347
  315W        W59752  23.193  39.456   4.633
  316W        W59753  43.862   1.847  12.493
  317W        W59754  34.902  44.457   2.668
  318W        W59755  32.415  24.109  10.098
  319W        W59756  37.938  38.426   9.651
  320W        W59757   6.343  28.046   2.680
  321W        W59758  12.294  44.896   0.436
  322W        W59759  44.277  34.006  10.970
  323W        W59760  19.265   5.766  13.986
  324W        W59761   1.774   6.707   0.368
  325W        W59762  19.274   2.268   3.214
  326W        W59763  25.064  18.630  11.926
  327W        W59764  13.183  36.947   1.830
  328W        W59765  23.571  35.074  10.950
  329W        W59766  42.514  37.455  13.381
  330W        W59767  38.888  10.251   0.390
  331W        W59768  41.398  10.182  13.339
  332W        W59769  36.349  32.937  11.453
  333W        W59770  18.579  11.806  13.508
  334W        W59771   3.337   3.864  11.507
  335W        W59772   5.429   5.310  12.929
  336W        W59773  32.604  16.229   2.682
  337W        W59774  42.464   7.253   3.380
  338W        W59775  12.619  13.818   2.332
  339W        W59776  17.256  37.067  13.355
  340W        W59777  17.561  44.849  11.870
  341W        W59778   2.290  20.051   2.360
  342W        W59779  29.443   1.439  14.358
  343W        W59780  37.504  23.145  12.563
  344W        W59781   5.270  18.630   1.756
  345W        W59782  43.881  11.299   0.798
  346W        W59783   4.762  24.599   3.828
  347W        W59784  44.387  24.215   3.276
  348W        W59785  33.553  44.792   1.831
  349W        W59786   9.782  12.616  11.613
  350W        W59787  16.109   5.927   3.243
  351W        W59788  42.390  15.752  12.494
  352W        W59789  39.963  28.483  12.055
  353W        W59790  28.069  40.967   3.224
  354W        W59791   3.885   7.675   1.311
  355W        W59792  41.922  11.261  13.064
  356W        W59793  22.592  11.334  14.775
  357W        W59794  28.616  28.453   2.232
  358W        W59795  40.804  18.626   4.275
  359W        W59796  14.694   1.351  12.066
  360W        W59797  32.932  43.928  13.415
  361W        W59798  31.506  29.646  11.426
  362W        W59799  19.149  29.591  14.849
  363W        W59800  15.606  17.304  12.530
  364W        W59801  18.651   4.719   2.352
  365W        W59802  31.150  28.477   0.298
  366W        W59803  19.580  20.646  13.973
  367W        W59804  23.598  30.602  14.924
  368W        W59805  34.099  36.480   2.415
  369W        W59806   3.941  31.490   3.865
  370W        W59807   5.723  20.630   1.281
  371W        W59808  29.611   3.907  13.403
  372W        W59809  34.943  24.666   0.752
  373W        W59810  44.831  27.580   1.861
  374W        W59811   4.358  15.586   1.866
  375W        W59812  30.103   7.231   3.238
  376W        W59813   5.791  20.097  14.850
  377W        W59814  29.020  43.289   2.331
  378W        W59815  16.803  29.440   2.783
  379W        W59816  33.088  36.401   2.372
  380W        W59817  21.229  20.054  11.001
  381W        W59818   1.407  22.234  12.445
  382W        W59819  25.022  28.670   4.702
  383W        W59820   2.464  33.452  14.423
  384W        W59821  11.797  27.510   4.738
  385W        W59822  21.134  18.549   1.367
  386W        W59823  27.056  23.235   2.843
  387W        W59824  24.035  41.864   9.966
  388W        W59825  16.603  31.149  14.400
  389W        W59826  27.448  43.507   1.707
  390W        W59827   1.390  12.656   1.231
  391W        W59828  44.753  35.949   2.398
  392W        W59829  40.388  13.306   4.151
  393W        W59830   5.753  32.495   1.262
  394W        W59831   2.280  29.586   2.299
  395W        W59832   7.870   8.315   3.181
  396W        W59833  21.523  38.561  11.945
  397W        W59834  35.919  25.518  13.441
  398W        W59835  10.311  41.807   0.795
  399W        W59836  30.568  42.350   0.732
  400W        W59837   2.869  31.609  14.850
  401W        W59838  31.150  14.193  11.109
  402W        W59839  22.136   0.805   4.195
  403W        W59840  26.537  12.262   2.801
  404W        W59841  16.783   5.435  12.893
  405W        W59842   3.328  30.582   0.799
  406W        W59843  20.755  43.963   0.307
  407W        W59844  41.464  41.384  13.388
  408W        W59845  19.261  44.347  13.370
  409W        W59846   9.286  16.098  11.875
  410W        W59847  23.535   1.796  11.591
  411W        W59848  34.965  25.027   4.772
  412W        W59849   1.794  39.385   0.825
  413W        W59850   2.335  41.009   0.256
  414W        W59851  15.793   0.285   0.807
  415W        W59852  18.077   0.983   2.833
  416W        W59853  29.565   4.812   4.829
  417W        W59854  24.514  34.089  14.442
  418W        W59855  23.214  34.438   1.339
  419W        W59856  13.624  43.958  13.457
  420W        W59857  33.552  38.023   0.474
  421W        W59858  42.857  26.205   4.597
  422W        W59859  39.928   7.216   1.254
  423W        W59860  25.087  34.977   1.383
  424W        W59861  41.035  17.645  10.979
  425W        W59862  27.483  19.115  14.992
  426W        W59863   2.469  12.852   0.886
  427W        W59864  32.525   9.313  10.422
  428W        W59865  10.242  13.292  10.609
  429W        W59866  30.625   3.278  10.571
  430W        W59867  41.008   3.812   0.295
  431W        W59868  29.104  37.349   0.916
  432W        W59869  25.481  14.731   0.837
  433W        W59870  33.424  41.319  10.509
  434W        W59871   2.737  32.037  12.510
  435W        W59872  26.957  32.496  12.897
  436W        W59873  14.255  20.236  13.931
  437W        W59874  15.326   2.852  12.962
  438W        W59875  32.917   0.390  13.960
  439W        W59876  20.577   3.817   1.390
  440W        W59877   5.348  16.311  10.550
  441W        W59878  12.615  39.928   4.729
  442W        W59879  11.730   0.325  12.495
  443W        W59880   5.366  22.706   1.303
  444W        W59881  32.961  40.502   4.692
  445W        W59882  14.724  40.402  14.913
  446W        W59883   1.959   4.248  11.955
  447W        W59884  33.477  19.644  11.552
  448W        W59885  33.074  22.069  12.489
  449W        W59886  14.157  42.468  13.447
  450W        W59887   8.855  12.662   4.347
  451W        W59888  43.916  32.949  10.496
  452W        W59889  27.116  29.940  11.449
  453W        W59890  11.795  35.855   4.717
  454W        W59891  11.218  22.587   4.157
  455W        W59892  34.984  14.242   4.216
  456W        W59893  41.802  43.425  14.306
  457W        W59894   4.414   1.450   0.333
  458W        W59895   9.293  17.729  11.900
  459W        W59896  23.031   5.815  12.447
  460W        W59897  41.935  24.502   2.691
  461W        W59898  30.138  21.642  11.925
  462W        W59899  17.158   5.734  14.965
  463W        W59900  10.363  23.712  12.032
  464W        W59901  10.721   8.784   4.249
  465W        W59902  43.844   6.269   0.787
  466W        W59903  35.481  42.456   0.906
  467W        W59904  25.012   5.885  11.552
  468W        W59905  28.014   9.369   0.788
  469W        W59906  29.930  39.318   2.885
  470W        W59907  40.909   0.805  10.969
  471W        W59908  17.246   9.152  12.406
  472W        W59909   6.427   7.897   4.133
  473W        W59910  39.042  19.554   5.246
  474W        W59911  25.478  23.189   0.322
  475W        W59912  28.129  43.321   0.858
  476W        W59913  31.598   8.839   2.877
  477W        W59914  14.335  25.147  10.587
  478W        W59915  17.667   7.695   4.170
  479W        W59916   2.910  16.580   4.312
  480W        W59917  37.357  39.042  10.501
  481W        W59918  16.694  26.672   4.652
  482W        W59919  40.477  12.239   2.406
  483W        W59920   1.892   2.728   0.277
  484W        W59921  24.209  26.114  11.928
  485W        W59922  32.960  30.032   1.854
  486W        W59923   2.262  26.487   9.990
  487W        W59924  27.000  22.144  10.096
  488W        W59925  19.136  15.621   3.702
  489W        W59926  38.418  13.297   1.757
  490W        W59927  41.863  31.058  14.359
  491W        W59928  18.650  37.576  12.855
  492W        W59929  17.157  19.123   0.942
  493W        W59930   6.752  34.102   3.337
  494W        W59931   3.312  14.636  11.087
  495W        W59932  44.311  44.893  10.142
  496W        W59933  43.996  40.022  10.580
  497W        W59934  33.904  14.742  11.116
  498W        W59935  33.558  15.204   4.343
  499W        W59936  24.993  42.805   5.082
  500W        W59937   4.210  42.412   0.252
  501W        W59938   5.389  20.706   4.183
  502W        W59939  26.073  23.217   9.646
  503W        W59940  43.777  21.593   3.777
  504W        W59941  42.817  26.005   3.158
  505W        W59942  43.860  34.968  12.415
  506W        W59943  18.083  20.164   0.345
  507W        W59944  28.013  41.431   2.681
  508W        W59945  30.922  24.724  11.432
  509W        W59946   7.729  31.403  11.899
  510W        W59947   3.220  20.664  11.110
  511W        W59948  21.575  23.201   2.835
  512W        W59949  42.802  12.116   0.802
  513W        W59950  11.278   8.762  13.548
  514W        W59951  26.022   0.292   3.862
  515W        W59952  16.305  10.855  10.955
  516W        W59953   1.354  33.617  11.538
  517W        W59954  24.230  39.428  13.841
  518W        W59955  10.713  28.533   0.478
  519W        W59956  26.684  44.955  13.872
  520W        W59957  15.103  28.674  14.378
  521W        W59958   0.370  38.995  11.415
  522W        W59959  13.219   1.339  11.128
  523W        W59960  12.782   7.250  12.984
  524W        W59961  32.467  12.303   4.289
  525W        W59962  32.563  10.334  10.059
  526W        W59963  39.863  10.793  11.424
  527W        W59964  27.637   4.438  13.384
  528W        W59965   3.236  19.211  12.400
  529W        W59966  13.154  25.650  12.343
  530W        W59967  28.608   6.742  11.046
  531W        W59968  15.257  44.283  13.061
  532W        W59969  14.148  13.137  10.909
  533W        W59970  20.075   8.680   1.799
  534W        W59971  20.242   7.257  14.977
  535W        W59972  38.414   1.874   0.449
  536W        W59973  34.565  10.699   0.372
  537W        W59974  29.508  38.860   0.781
  538W        W59975  44.922  41.019  14.935
  539W        W59976   3.930  19.282  14.397
  540W        W59977  28.998  27.689  11.092
  541W        W59978  22.201  26.122   3.693
  542W        W59979   4.364  38.438   0.353
  543W        W59980  11.301  21.120   3.715
  544W        W59981  25.491  23.637   2.866
  545W        W59982   2.943   5.306  14.773
  546W        W59983  31.508  16.202   3.671
  547W        W59984  35.967  20.174  14.992
  548W        W59985  14.768   7.240   2.220
  549W        W59986  12.754  31.020   3.313
  550W        W59987  20.151  12.723   0.287
  551W        W59988  43.904   3.306   4.795
  552W        W59989  24.500  27.487  12.445
  553W        W59990  13.740  38.892   2.197
  554W        W59991   1.343  12.265   9.970
  555W        W59992  33.128   0.357   0.857
  556W        W59993  21.754  34.899  11.496
  557W        W59994   2.736   3.392  12.465
  558W        W59995  40.974  21.022   2.804
  559W        W59996  20.213  22.517  10.033
  560W        W59997  14.211  38.333   0.289
  561W        W59998  38.949  44.826  12.096
  562W        W59999  19.070  30.488   0.299
  563W        W60000  30.016   5.930  12.560
  564W        W60001  29.522  19.253  14.379
  565W        W60002   8.784   8.275  11.580
  566W        W60003  35.603  27.064   2.868
  567W        W60004  22.509  16.738  14.970
  568W        W60005  44.836  34.866  11.469
  569W        W60006   5.776   6.370   3.862
  570W        W60007  32.014  12.820  12.884
  571W        W60008  11.782   1.430  11.870
  572W        W60009  41.296  36.002   4.298
  573W        W60010  29.087  40.959   2.401
  574W        W60011  42.777  28.137   0.766
  575W        W60012  38.006  44.957  12.360
  576W        W60013  25.485  37.470  14.492
  577W        W60014  35.407   0.917   4.318
  578W        W60015   8.378  23.135   2.232
  579W        W60016  21.541  13.322  10.909
  580W        W60017  21.025  25.485   4.706
  581W        W60018   0.917   5.365   1.755
  582W        W60019  13.209   5.311  10.917
  583W        W60020  16.578  28.135  14.831
  584W        W60021  26.027  28.142   3.203
  585W        W60022   7.909   6.684   3.709
  586W        W60023  20.263  12.198   4.694
  587W        W60024  12.788  20.138   3.699
  588W        W60025   5.932   9.765   3.199
  589W        W60026   3.955   4.808  14.415
  590W        W60027  34.938   3.388  12.448
  591W        W60028  20.557  33.968  10.529
  592W        W60029  25.033  28.073   1.873
  593W        W60030  22.546  10.181  11.111
  594W        W60031  22.010  36.528   0.298
  595W        W60032  23.112  41.840   3.641
  596W        W60033  14.747  32.064   3.776
  597W        W60034  26.074  20.209  10.405
  598W        W60035  32.454   4.772  12.995
  599W        W60036   9.757  18.643   4.663
  600W        W60037  34.959  29.046   4.674
  601W        W60038   2.910   6.229   0.931
  602W        W60039  28.089  41.937  14.458
  603W        W60040  19.236   7.809   0.948
  604W        W60041   7.287  20.190  12.094
  605W        W60042   0.978   1.912  13.377
  606W        W60043  29.021  30.039  11.562
  607W        W60044  22.011  41.007   3.759
  608W        W60045  21.519  39.991  14.029
  609W        W60046   9.217   3.443  10.523
  610W        W60047   7.714  23.610  14.509
  611W        W60048   0.793  36.095  11.100
  612W        W60049  43.814  36.524   1.930
  613W        W60050   9.684  44.438   4.120
  614W        W60051  12.295   7.803   4.325
  615W        W60052   4.773  33.070   2.802
  616W        W60053   6.894  11.687  10.524
  617W        W60054  33.951  24.200  10.622
  618W        W60055  37.959  33.961  12.518
  619W        W60056   4.405  11.839  14.287
  620W        W60057   4.836  19.642   9.955
  621W        W60058  11.773  16.096   4.162
  622W        W60059  23.225  38.921   0.464
  623W        W60060  36.912  30.415   0.798
  624W        W60061  35.534  36.552  11.445
  625W        W60062  16.239  29.030  14.936
  626W        W60063  14.714  18.766  11.477
  627W        W60064  42.329  25.161   4.132
  628W        W60065  13.636  29.529   2.901
  629W        W60066  28.185  33.603  11.595
  630W        W60067  29.629   7.212   4.161
  631W        W60068   9.377  35.934   5.289
  632W        W60069  37.518  28.063   0.325
  633W        W60070  30.078  34.396   0.254
  634W        W60071  24.496  43.932  12.413
  635W        W60072  27.029  11.828  11.106
  636W        W60073   1.891  10.832  12.568
  637W        W60074  31.632  26.125   5.275
  638W        W60075  20.188  38.056  12.390
  639W        W60076  28.637  10.290  11.944
  640W        W60077  11.736  12.718  14.284
  641W        W60078  42.850  27.556  14.397
  642W        W60079  12.261  17.730   2.781
  643W        W60080  29.174  24.201   2.766
  644W        W60081  35.888  32.491   3.739
  645W        W60082  18.625  25.088  11.591
  646W        W60083  32.911  43.819   0.889
  647W        W60084  43.486  43.780   1.241
  648W        W60085   7.853  22.726   2.661
  649W        W60086  28.071  16.800  14.407
  650W        W60087  24.613  15.723   0.464
  651W        W60088  35.563  41.471  11.503
  652W        W60089  16.121  16.794  14.865
  653W        W60090  13.715  44.462   2.872
  654W        W60091  13.265  42.459   0.849
  655W        W60092  15.639  10.236  12.085
  656W        W60093  12.306  25.469  14.775
  657W        W60094  17.265  15.815  12.901
  658W        W60095  26.549  16.126   4.794
  659W        W60096  38.553  32.391   1.729
  660W        W60097  27.522  36.363   1.430
  661W        W60098   8.691  13.148  13.353
  662W        W60099  14.677  20.087  12.879
  663W        W60100  13.338  31.413   0.738
  664W        W60101  21.576  30.049   3.691
  665W        W60102  27.620  18.144   2.690
  666W        W60103  28.052  27.080  13.914
  667W        W60104   3.348  12.808   3.213
  668W        W60105  20.225  34.612   2.413
  669W        W60106  37.983  39.968  13.049
  670W        W60107  30.918   3.916  10.543
  671W        W60108  22.221  15.120   4.600
  672W        W60109   2.273  12.725  12.903
  673W        W60110  24.204   0.289   5.313
  674W        W60111  41.990  34.037   4.302
  675W        W60112  41.420  14.719  10.466
  676W        W60113  12.826   4.916   2.186
  677W        W60114  32.572  26.965   0.822
  678W        W60115   2.864  26.553  10.469
  679W        W60116  11.288  30.979   1.855
  680W        W60117  14.628   9.803  12.560
  681W        W60118  23.238  36.356   2.785
  682W        W60119  43.899  30.125  11.449
  683W        W60120  33.009   7.323  10.530
  684W        W60121   7.782  22.023  13.515
  685W        W60122  43.879  25.212   0.851
  686W        W60123  39.548   7.738  11.491
  687W        W60124   1.939   8.305   2.871
  688W        W60125  25.066  19.142   2.383
  689W        W60126  16.800   6.778  14.943
  690W        W60127  12.803   4.853  11.004
  691W        W60128   8.374  26.581  13.372
  692W        W60129  33.041  28.487  10.593
  693W        W60130  43.348  26.532  11.008
  694W        W60131  22.500  28.597   0.797
  695W        W60132   6.895  12.168   1.724
  696W        W60133  38.427  16.707   0.763
  697W        W60134  10.776  24.128   2.300
  698W        W60135  14.292  32.417  14.019
  699W        W60136   6.198  24.002  13.322
  700W        W60137   2.843  27.479  11.476
  701W        W60138   4.353  44.299  11.078
  702W        W60139  35.019  42.395  10.956
  703W        W60140  30.521  16.669  12.974
  704W        W60141  27.524   5.366   3.256
  705W        W60142  35.600  27.031   4.345
  706W        W60143  37.985  16.219   3.783
  707W        W60144  37.505   9.788   4.122
  708W        W60145   2.333   6.201   3.315
  709W        W60146  19.265  27.095   4.146
  710W        W60147   6.914  27.073  12.480
  711W        W60148  37.364  36.513  13.375
  712W        W60149  28.658   9.395   3.864
  713W        W60150   7.323  33.565   4.269
  714W        W60151  29.062  19.076   2.880
  715W        W60152  24.028  19.682  13.009
  716W        W60153   0.419  38.838  13.352
  717W        W60154  13.657  28.080  11.408
  718W        W60155   6.788  39.977   1.878
  719W        W60156  13.635  11.241   2.694
  720W        W60157  44.005  40.466  14.966
  721W        W60158  44.772  17.685  13.475
  722W        W60159  17.116  28.980   0.957
  723W        W60160  35.427  10.341   4.757
  724W        W60161  23.118  20.529  14.805
  725W        W60162  27.179  30.605  13.978
  726W        W60163   8.242  39.428  11.860
  727W        W60164  33.498  20.091   0.314
  728W        W60165   1.784  26.467  14.407
  729W        W60166  31.992  29.505  14.432
  730W        W60167  10.658  40.015   0.310
  731W        W60168  38.899  23.985  14.480
  732W        W60169  30.506   7.245   0.342
  733W        W60170  17.213  26.069  14.892
  734W        W60171  14.701  44.786   3.700
  735W        W60172  35.081  10.216  11.943
  736W        W60173  32.133  37.413  11.523
  737W        W60174  17.744  36.544  14.841
  738W        W60175  23.600  20.043  11.940
  739W        W60176   6.209  24.690  12.062
  740W        W60177   2.440  43.459   3.780
  741W        W60178  30.576  21.512  12.441
  742W        W60179  44.487   6.315  12.416
  743W        W60180  35.552   0.325   3.817
  744W        W60181  13.626  21.602  11.989
  745W        W60182   0.929  17.706   3.177
  746W        W60183  11.805  34.889  13.448
  747W        W60184  12.307   7.323  12.922
  748W        W60185  34.093   6.225   2.340
  749W        W60186  19.563  44.875  11.508
  750W        W60187  11.835   8.692   0.862
  751W        W60188  41.025  43.860   4.342
  752W        W60189  43.767  10.151   0.847
  753W        W60190  18.091   3.409   4.336
  754W        W60191  25.962  26.685   0.811
  755W        W60192  27.537   2.294   0.793
  756W        W60193  31.149   8.726  11.122
  757W        W60194  16.256  40.331  13.939
  758W        W60195  15.215  13.313   2.402
  759W        W60196  44.331   9.166  14.339
  760W        W60197  23.184  27.452   3.204
  761W        W60198   3.382   3.755  11.919
  762W        W60199  21.251  29.630  13.314
  763W        W60200  21.035  23.093  14.848
  764W        W60201  36.428   7.909   2.842
  765W        W60202  15.212  14.284   4.243
  766W        W60203   8.713   2.405   2.694
  767W        W60204  39.361  10.839  11.076
  768W        W60205  17.071  38.375   2.201
  769W        W60206  25.110  14.634   1.801
  770W        W60207  41.839  11.765   4.738
  771W        W60208  27.066   9.347  12.881
  772W        W60209   3.455  19.123   1.758
  773W        W60210  23.220  35.981   3.150
  774W        W60211  21.173   9.881  11.925
  775W        W60212   2.372  40.931  14.842
  776W        W60213  13.830  18.579  13.937
  777W        W60214  15.180  43.891   3.172
  778W        W60215  23.049  18.163   0.467
  779W        W60216   9.218  19.556   3.659
  780W        W60217  36.936  36.881   4.328
  781W        W60218   7.814  44.466  11.966
  782W        W60219  28.641   4.362   2.686
  783W        W60220  28.187  24.112  11.426
  784W        W60221   1.378  15.579   0.375
  785W        W60222  14.818  16.761   1.919
  786W        W60223   0.415  21.027   2.219
  787W        W60224  33.040  14.206  12.034
  788W        W60225  35.409  36.872  12.511
  789W        W60226   5.794  35.387  12.987
  790W        W60227  29.030  32.452   0.358
  791W        W60228   0.760  42.422  12.474
  792W        W60229  31.451  33.463   1.342
  793W        W60230   8.236  17.236   0.737
  794W        W60231  10.769  20.061  13.536
  795W        W60232   1.897   4.449   0.858
  796W        W60233  17.689  17.249  13.962
  797W        W60234   3.325   7.816  11.978
  798W        W60235  31.950  22.627  13.454
  799W        W60236  38.528   1.841   2.205
  800W        W60237   0.989   1.307   4.173
  801W        W60238  42.334   5.865   4.141
  802W        W60239  42.777  11.259  12.928
  803W        W60240  27.181   9.745  14.442
  804W        W60241   2.897  15.629   0.728
  805W        W60242  28.627  29.607  13.512
  806W        W60243  20.677   1.786   1.363
  807W        W60244  30.422   4.212  14.834
  808W        W60245  28.639  34.096   4.252
  809W        W60246  38.005  10.339   4.264
  810W        W60247  23.684  44.892   2.256
  811W        W60248  34.003  25.100  10.404
  812W        W60249  43.980  17.170   0.762
  813W        W60250   0.876  32.921   3.327
  814W        W60251  11.846   2.927  14.805
  815W        W60252   6.755  43.283  14.854
  816W        W60253  10.295  28.610  13.494
  817W        W60254  17.563   0.458   4.125
  818W        W60255   4.380  40.907   2.755
  819W        W60256   5.891  36.369  13.322
  820W        W60257  17.253   6.336  14.374
  821W        W60258  36.844  25.120  13.880
  822W        W60259  32.403  28.067  12.929
  823W        W60260  24.528  36.098   1.391
  824W        W60261  15.656  35.020  11.102
  825W        W60262  36.495  22.069  13.372
  826W        W60263  25.635  13.611   5.168
  827W        W60264  28.043  14.637   2.761
  828W        W60265  29.089  14.230   0.869
  829W        W60266   5.714  38.483   4.699
  830W        W60267  32.527  13.825  10.512
  831W        W60268   6.309  41.846  14.824
  832W        W60269   3.231  17.628  10.907
  833W        W60270  16.267  30.498   5.244
  834W        W60271  37.575  41.941  10.513
  835W        W60272  21.171  15.211  10.933
  836W        W60273   7.740  33.383  11.466
  837W        W60274  36.983  39.914   5.157
  838W        W60275  25.568  11.131  13.469
  839W        W60276  23.157  35.945   2.272
  840W        W60277  37.885  25.963  11.974
  841W        W60278  24.693   9.269   2.324
  842W        W60279  15.098  31.456  14.508
  843W        W60280   7.230  23.992  13.351
  844W        W60281  22.235  17.572   2.332
  845W        W60282  31.021  34.472  12.452
  846W        W60283   0.314   8.264  13.063
  847W        W60284  17.219  33.595   3.671
  848W        W60285  32.904  11.865  10.945
  849W        W60286  27.021   0.421   1.836
  850W        W60287  25.971   4.902  14.434
  851W        W60288   1.244  25.165  11.129
  852W        W60289   6.279  38.845   3.200
  853W        W60290  27.481   0.940   0.448
  854W        W60291   2.304  31.048   3.287
  855W        W60292  20.744  35.079  12.993
  856W        W60293   6.426   6.869  13.343
  857W        W60294  42.969  19.569   2.356
  858W        W60295  13.344  25.687   3.676
  859W        W60296  31.106  41.973  11.946
  860W        W60297  36.381   2.952   3.830
  861W        W60298  29.036   3.390   1.707
  862W        W60299  14.106  33.514  14.341
  863W        W60300   8.860   9.806   4.275
  864W        W60301  38.839   3.807   3.312
  865W        W60302  20.639  33.100   4.125
  866W        W60303  20.247  26.062   1.862
  867W        W60304  11.783  33.440  14.955
  868W        W60305  24.172  36.849  14.448
  869W        W60306  37.451  31.411  10.629
  870W        W60307  25.081   7.289  13.342
  871W        W60308  26.474  23.988  10.614
  872W        W60309  35.857   6.195   3.357
  873W        W60310  31.979  10.270  13.422
  874W        W60311  24.508  10.781   5.752
  875W        W60312  44.329   8.254   2.270
  876W        W60313  23.016  36.378  10.038
  877W        W60314  24.552   2.805  13.902
  878W        W60315  40.829  37.939  12.507
  879W        W60316  43.297   1.885   1.841
  880W        W60317  14.715  17.601   1.869
  881W        W60318  20.161  11.749   1.311
  882W        W60319  44.987  16.796   2.831
  883W        W60320  13.206   6.182  14.967
  884W        W60321  42.817  39.486  14.399
  885W        W60322  29.548  13.614  14.837
  886W        W60323   7.199  40.847   2.858
  887W        W60324  39.907  20.245   1.751
  888W        W60325  35.878  17.218  11.472
  889W        W60326  21.051   7.250   0.257
  890W        W60327  15.802  27.510   2.366
  891W        W60328  11.349  27.012   1.396
  892W        W60329  34.955  19.249   4.702
  893W        W60330  44.821  30.462  12.342
  894W        W60331  32.088  43.871  10.955
  895W        W60332  32.978  25.632   2.374
  896W        W60333  34.897  23.533   1.373
  897W        W60334   2.326  38.887  10.556
  898W        W60335  36.573  35.445   0.883
  899W        W60336   0.492  24.592  14.403
  900W        W60337  44.809  16.694   0.761
  901W        W60338  33.408  41.934   3.687
  902W        W60339  13.740  36.961   1.741
  903W        W60340  30.625  38.372  10.074
  904W        W60341  19.270  25.510   2.892
  905W        W60342  25.124  24.227   1.362
  906W        W60343  35.427  41.492   2.833
  907W        W60344   2.332  36.403   2.831
  908W        W60345  41.003  13.300  13.382
  909W        W60346  31.560  23.021   1.285
  910W        W60347  19.669  42.330  14.795
  911W        W60348   2.854  33.042   4.311
  912W        W60349  11.221  32.042   1.727
  913W        W60350  12.851  22.726  12.082
  914W        W60351  38.990   0.480   3.285
  915W        W60352  24.088  16.654  12.939
  916W        W60353  41.870  23.073   2.789
  917W        W60354  25.119  28.460   1.278
  918W        W60355   7.378  36.391  13.948
  919W        W60356  44.338  40.498  14.764
  920W        W60357   3.249  37.440  10.419
  921W        W60358   5.404  37.508  12.428
  922W        W60359   3.829  41.874  13.857
  923W        W60360   9.161   5.337   0.781
  924W        W60361  21.051   8.255  12.899
  925W        W60362  40.355  18.270  14.860
  926W        W60363  23.217  20.110   3.765
  927W        W60364  37.543  44.799   1.916
  928W        W60365  15.113  37.482  11.947
  929W        W60366  36.527  16.136   4.218
  930W        W60367  44.863  42.425   3.851
  931W        W60368  39.873   1.327   2.194
  932W        W60369  17.634  43.323   3.204
  933W        W60370  18.638  30.643   5.206
  934W        W60371  23.025  14.689   1.779
  935W        W60372  14.219   4.785   0.296
  936W        W60373  19.093  42.353  10.977
  937W        W60374  18.715  39.855   1.740
  938W        W60375  26.470   4.849  12.858
  939W        W60376  27.594  11.371   0.848
  940W        W60377  23.696  19.608   0.373
  941W        W60378  33.517  16.684   1.331
  942W        W60379  27.572   3.335   0.823
  943W        W60380  35.440  17.250   3.724
  944W        W60381  37.976  39.408   1.754
  945W        W60382  28.116  38.535   4.710
  946W        W60383  32.447  24.216  12.847
  947W        W60384  22.046  44.343  11.908
  948W        W60385  14.638  24.049  12.945
  949W        W60386  30.104  42.856  12.064
  950W        W60387  28.478  20.085  12.998
  951W        W60388  34.555  36.385   3.850
  952W        W60389  42.415  36.476  11.862
  953W        W60390  17.240  40.362   1.762
  954W        W60391  15.274  38.522   2.270
  955W        W60392  18.668   2.752   4.778
  956W        W60393  29.927  21.083   1.893
  957W        W60394   9.164  41.041  11.474
  958W        W60395  18.287   5.252   1.300
  959W        W60396   9.781  35.096  12.578
  960W        W60397  24.539  12.823   1.298
  961W        W60398  28.500  18.237  12.838
  962W        W60399  15.169   3.955   3.368
  963W        W60400  39.929  40.859  12.341
  964W        W60401  29.069  14.196  14.455
  965W        W60402  31.125   9.276   0.279
  966W        W60403  32.000  15.311   1.420
  967W        W60404   5.388   8.270   2.725
  968W        W60405  25.110  23.576   2.251
  969W        W60406  37.567  39.363  11.404
  970W        W60407  31.467  35.869   2.875
  971W        W60408  12.321  31.478   3.719
  972W        W60409  40.406  22.161  13.826
  973W        W60410  39.548  29.010   2.896
  974W        W60411  23.131  22.234  12.857
  975W        W60412   6.293  22.636   3.687
  976W        W60413  37.025  34.373   0.733
  977W        W60414   8.330  27.533   4.810
  978W        W60415   5.865  31.478   2.667
  979W        W60416   2.420  12.698   1.797
  980W        W60417  26.103  41.024   2.754
  981W        W60418  43.311   0.296   4.355
  982W        W60419  40.874  32.142   4.711
  983W        W60420  13.765  19.596   3.294
  984W        W60421  37.547  10.190  13.860
  985W        W60422   9.277  33.947   4.316
  986W        W60423  34.889  24.098  12.982
  987W        W60424   2.450  16.716   0.473
  988W        W60425   6.900  42.330  11.438
  989W        W60426  43.419   0.336  11.409
  990W        W60427  15.744  37.478   2.884
  991W        W60428   4.289   8.673  14.882
  992W        W60429  36.060   2.952   2.788
  993W        W60430   4.411  10.755   1.243
  994W        W60431   5.235  39.869  10.432
  995W        W60432  19.644  16.811   0.900
  996W        W60433  21.613   6.890  10.622
  997W        W60434  11.148   9.169  14.000
  998W        W60435   9.643  10.638  12.444
  999W        W60436   3.931  23.183   3.634
 1000W        W60437  25.180   1.840  13.321
 1001W        W60438  24.102  44.499   1.900
 1002W        W60439  15.222   0.407  12.544
 1003W        W60440   4.837   2.740  12.879
 1004W        W60441  34.401  26.037   1.290
 1005W        W60442  10.196  42.455   1.891
 1006W        W60443  18.186  40.993   5.139
 1007W        W60444   2.740   0.846  11.379
 1008W        W60445  27.551  42.888   0.390
 1009W        W60446  18.082  42.487  14.797
 1010W        W60447   7.868  11.763   9.952
 1011W        W60448  33.899  35.961   3.828
 1012W        W60449  32.570  22.236   1.702
 1013W        W60450  13.647  24.509   2.222
 1014W        W60451  18.686   1.745   1.425
 1015W        W60452  15.761  40.902   1.358
 1016W        W60453  26.177  23.595  11.568
 1017W        W60454   3.290  27.484  10.517
 1018W        W60455   3.306   6.825   0.932
 1019W        W60456  37.546  23.616  10.023
 1020W        W60457  26.548  26.508   4.163
 1021W        W60458  18.084  16.129   2.882
 1022W        W60459  44.325  41.437  12.561
 1023W        W60460  34.573  37.389  12.480
 1024W        W60461  37.833  22.539   4.693
 1025W        W60462  39.030  38.358  14.316
 1026W        W60463  22.538  44.441   1.346
 1027W        W60464  40.543  19.719  13.348
 1028W        W60465   5.414  39.514   4.186
 1029W        W60466  13.275  21.681   3.765
 1030W        W60467  12.327   5.329   0.439
 1031W        W60468  11.230  40.002  12.862
 1032W        W60469  36.086   6.920   3.862
 1033W        W60470   6.289  28.958  11.449
 1034W        W60471  20.228   0.276   2.775
 1035W        W60472  29.567  28.954  13.063
 1036W        W60473  17.280  22.158  13.952
 1037W        W60474   9.169  37.029  10.452
 1038W        W60475  36.570   7.220   4.625
 1039W        W60476  16.090  34.087   2.390
 1040W        W60477  29.605  10.204   4.183
 1041W        W60478   5.381  12.318  14.792
 1042W        W60479  29.132   0.776  10.471
 1043W        W60480  22.191  23.197   5.240
 1044W        W60481  42.348  14.110  12.996
 1045W        W60482  41.356  23.611   3.285
 1046W        W60483  20.268  18.661   3.743
 1047W        W60484   2.788  31.626   3.294
 1048W        W60485  12.297  12.263   2.281
 1049W        W60486  35.946  33.536  13.919
 1050W        W60487  12.151   3.731  13.824
 1051W        W60488  22.720  10.344   3.329
 1052W        W60489  28.075  23.010   1.278
 1053W        W60490  30.602  25.067   1.733
 1054W        W60491   9.150  23.594   0.934
 1055W        W60492   5.212   1.798  12.411
 1056W        W60493  40.937  23.677   1.383
 1057W        W60494  12.325  27.479   0.762
 1058W        W60495  39.335  41.537  12.009
 1059W        W60496  25.130   7.197   4.311
 1060W        W60497  35.065  33.989   3.776
 1061W        W60498  44.454  16.115   2.761
 1062W        W60499  39.005   6.679  13.856
 1063W        W60500  28.645   9.276  14.928
 1064W        W60501  31.037  42.466   9.457
 1065W        W60502  26.016  10.271   4.599
 1066W        W60503  28.999  37.450  10.416
 1067W        W60504  38.437  38.946   3.160
 1068W        W60505  40.850  25.046  13.010
 1069W        W60506   1.262  26.660   0.316
 1070W        W60507  39.942  28.019   0.281
 1071W        W60508  25.643   0.252   1.343
 1072W        W60509   9.788   0.800   0.344
 1073W        W60510  33.582   5.199  13.019
 1074W        W60511  36.590  30.012   3.316
 1075W        W60512  27.112  15.782   0.965
 1076W        W60513  25.632  33.611  14.476
 1077W        W60514  32.496   6.272  13.528
 1078W        W60515   5.822   6.212  14.937
 1079W        W60516  32.117   4.865   3.231
 1080W        W60517   4.369  33.616   2.790
 1081W        W60518  13.233   4.902   1.241
 1082W        W60519  15.196  42.399  14.447
 1083W        W60520  41.802  42.356  12.560
 1084W        W60521  16.262  31.416   4.215
 1085W        W60522  36.397  32.575   3.695
 1086W        W60523  25.711   4.769  10.013
 1087W        W60524   6.803  25.985   3.276
 1088W        W60525  22.740  41.308  11.119
 1089W        W60526  43.366   4.928  10.600
 1090W        W60527  35.918   6.823  12.516
 1091W        W60528  35.912  31.067   3.682
 1092W        W60529   5.784  19.145  12.441
 1093W        W60530  10.749  22.718  10.098
 1094W        W60531  11.768  12.829  10.471
 1095W        W60532   5.897   2.791  11.006
 1096W        W60533  26.191  33.407   4.700
 1097W        W60534  34.901   6.749   3.380
 1098W        W60535  17.116   0.804   5.219
 1099W        W60536  12.791  23.174   1.746
 1100W        W60537   6.413  38.462   0.748
 1101W        W60538  20.607   6.866   1.248
 1102W        W60539  11.631  26.461  13.510
 1103W        W60540  39.381  15.725  11.899
 1104W        W60541  13.766  22.151  10.628
 1105W        W60542  34.435  29.503  11.511
 1106W        W60543  17.112   0.755   0.369
 1107W        W60544  25.670  12.684  14.285
 1108W        W60545  22.502  31.563   1.746
 1109W        W60546  30.645  12.732  12.850
 1110W        W60547  12.119   3.886   1.407
 1111W        W60548  31.024  26.077   2.375
 1112W        W60549  13.763  28.948   4.249
 1113W        W60550  35.471   5.230   4.261
 1114W        W60551  19.691  11.710   1.875
 1115W        W60552  11.853  26.956   4.767
 1116W        W60553   0.428   0.253  12.931
 1117W        W60554  23.050   0.292  12.550
 1118W        W60555  13.654  39.355   3.673
 1119W        W60556  44.893  37.953  13.410
 1120W        W60557  43.455  17.757   1.354
 1121W        W60558  34.481   0.753   1.893
 1122W        W60559  32.104  42.322  11.374
 1123W        W60560  39.828  31.955  11.991
 1124W        W60561  27.522  17.758   4.286
 1125W        W60562  39.463  21.026  14.337
 1126W        W60563  36.896   3.331  14.015
 1127W        W60564  30.565   4.897   5.110
 1128W        W60565  20.717  39.383  12.982
 1129W        W60566  37.021  11.359   4.163
 1130W        W60567  10.363  14.280  10.142
 1131W        W60568  11.668  19.270  13.936
 1132W        W60569  27.174  18.615  12.448
 1133W        W60570   4.904  19.280  13.351
 1134W        W60571  15.781  36.461   1.752
 1135W        W60572   5.868  33.098  10.603
 1136W        W60573  42.780  23.644   3.692
 1137W        W60574  27.094  39.853  14.483
 1138W        W60575  28.039  25.513   1.239
 1139W        W60576  19.039  22.680   0.443
 1140W        W60577  41.907  40.351   3.317
 1141W        W60578  23.137   4.407  14.426
 1142W        W60579  18.632   8.284  10.645
 1143W        W60580  34.434   7.360  14.784
 1144W        W60581  27.587  12.229  11.450
 1145W        W60582  38.519  20.637  13.871
 1146W        W60583   2.388  32.030   0.352
 1147W        W60584   8.772   6.244  12.501
 1148W        W60585  23.009  20.254  10.949
 1149W        W60586  38.541  30.955  11.550
 1150W        W60587  39.826  33.524   3.174
 1151W        W60588  36.033   4.221   1.870
 1152W        W60589  18.079  14.159   5.110
 1153W        W60590   4.890  22.166   0.844
 1154W        W60591  42.924   0.903  12.973
 1155W        W60592  21.723  24.485   2.697
 1156W        W60593   7.267  24.651   2.343
 1157W        W60594   7.683  42.876   0.443
 1158W        W60595  20.042   8.217   1.313
 1159W        W60596  21.659  25.544  10.922
 1160W        W60597   2.813  25.530  11.915
 1161W        W60598   5.867  34.095  11.971
 1162W        W60599  30.002   8.658   3.340
 1163W        W60600   6.317   1.339   4.700
 1164W        W60601  43.393  25.160   5.294
 1165W        W60602  44.488  37.497  10.964
 1166W        W60603  44.898  18.619  14.845
 1167W        W60604   2.427  31.477  11.031
 1168W        W60605  17.735   7.806  13.008
 1169W        W60606  28.637  10.782   5.222
 1170W        W60607  19.745  25.659  11.599
 1171W        W60608  22.228  15.797   3.213
 1172W        W60609  35.875  30.123   0.333
 1173W        W60610  38.407  30.570  14.003
 1174W        W60611   5.790  14.286   4.206
 1175W        W60612  17.696  12.279  10.581
 1176W        W60613  34.043  34.468   1.251
 1177W        W60614  19.564  14.187  13.855
 1178W        W60615   9.352  24.030   0.934
 1179W        W60616  41.841  17.690  12.548
 1180W        W60617  25.104  31.439   4.190
 1181W        W60618   5.386  42.460   4.238
 1182W        W60619  37.884   9.373  10.530
 1183W        W60620  44.447  11.738   3.181
 1184W        W60621  42.879  43.965  10.916
 1185W        W60622  19.541  34.402  13.476
 1186W        W60623  14.319  39.328   2.211
 1187W        W60624  21.178  20.588  14.298
 1188W        W60625  13.718  43.816  12.015
 1189W        W60626  15.220  27.082   4.794
 1190W        W60627  44.385   3.437   2.355
 1191W        W60628   8.699  18.566  12.000
 1192W        W60629  42.833  15.772  12.364
 1193W        W60630  17.587  18.663   2.857
 1194W        W60631  12.685   4.880  13.998
 1195W        W60632   0.349  10.171   1.744
 1196W        W60633  22.632  27.592   3.334
 1197W        W60634  33.442  24.587   0.839
 1198W        W60635   3.412   6.362  12.418
 1199W        W60636   8.346  38.494   0.832
 1200W        W60637   4.265  15.772   2.294
 1201W        W60638  42.442  14.206  12.091
 1202W        W60639  11.648  16.797   2.780
 1203W        W60640  34.924  44.860   2.291
 1204W        W60641  25.143  23.712  13.401
 1205W        W60642   4.799  25.586  14.813
 1206W        W60643   5.411  30.558   0.370
 1207W        W60644  33.925  32.012  14.304
 1208W        W60645  27.176   1.869  13.028
 1209W        W60646  35.427  11.834  10.948
 1210W        W60647  41.868  23.503  14.028
 1211W        W60648   2.307  15.208   2.334
 1212W        W60649  44.998  22.051  13.062
 1213W        W60650   6.393  38.877   0.802
 1214W        W60651  28.115  10.877   2.375
 1215W        W60652  27.952  13.230   3.857
 1216W        W60653  28.941  19.205  11.860
 1217W        W60654  19.722  11.777   3.714
 1218W        W60655   5.779  17.278  12.572
 1219W        W60656  14.794   6.247   1.448
 1220W        W60657  39.932  17.627   4.633
 1221W        W60658  29.037  30.089  10.932
 1222W        W60659  41.442  30.136   0.911
 1223W        W60660  44.979  27.101   0.736
 1224W        W60661  16.632  43.500  13.909
 1225W        W60662  22.135   2.400  11.104
 1226W        W60663   9.755  13.298  12.539
 1227W        W60664   3.861  15.316   4.821
 1228W        W60665  43.500   2.964  13.504
 1229W        W60666  30.630   2.384   4.739
 1230W        W60667  10.306  18.262   0.943
 1231W        W60668  10.303  18.262  10.438
 1232W        W60669   9.377   4.878  11.004
 1233W        W60670  27.088  33.053  10.531
 1234W        W60671  37.365   0.381  14.966
 1235W        W60672   9.171   9.168   3.820
 1236W        W60673  19.097  19.586   1.728
 1237W        W60674   0.309  11.746   4.668
 1238W        W60675  32.528  30.941   0.750
 1239W        W60676   6.204  19.588  11.030
 1240W        W60677  39.444  30.420   1.365
 1241W        W60678  13.180  42.864  10.029
 1242W        W60679  16.808  32.021   0.397
 1243W        W60680  36.938  26.669   0.881
 1244W        W60681  19.744  28.971   0.418
 1245W        W60682   2.820  43.275   0.740
 1246W        W60683  23.060  34.050   2.849
 1247W        W60684  17.650  27.462  11.513
 1248W        W60685  17.181  20.080  10.934
 1249W        W60686  35.586  42.798  14.911
 1250W        W60687   5.861  40.832  11.421
 1251W        W60688  25.539   6.830   1.859
 1252W        W60689   0.390   4.705   4.837
 1253W        W60690  35.047  40.956   2.314
 1254W        W60691  39.942  30.962  14.323
 1255W        W60692  16.089  28.675   2.218
 1256W        W60693  29.546   5.740   2.191
 1257W        W60694  28.982  28.488   4.312
 1258W        W60695   6.223  32.953   3.213
 1259W        W60696   4.921  24.196   3.273
 1260W        W60697   4.739   3.824  10.632
 1261W        W60698   9.303  27.126  11.070
 1262W        W60699  34.100  30.542  10.922
 1263W        W60700  34.030   9.674  14.296
 1264W        W60701  29.584  41.353   1.783
 1265W        W60702  30.112   8.777  10.969
 1266W        W60703   9.828   8.331  11.097
 1267W        W60704  36.057  21.145   3.867
 1268W        W60705  31.117  42.919  10.423
 1269W        W60706  21.064  32.097  11.867
 1270W        W60707   2.949   8.300  12.939
 1271W        W60708   0.885   5.303   1.299
 1272W        W60709  44.406  26.986  14.337
 1273W        W60710  20.548  42.418  11.382
 1274W        W60711  28.486  29.082  13.908
 1275W        W60712  40.867  37.936  10.910
 1276W        W60713  40.489  29.593   3.231
 1277W        W60714  40.799  26.163  14.932
 1278W        W60715  29.982   7.408   4.781
 1279W        W60716  30.515  26.651   1.376
 1280W        W60717  11.806   1.316   3.756
 1281W        W60718  17.129  44.762  11.019
 1282W        W60719  26.478  29.442   3.173
 1283W        W60720  12.332  15.599   0.782
 1284W        W60721  35.900  22.621   4.115
 1285W        W60722  35.061   0.452   4.784
 1286W        W60723  38.855   0.882   5.172
 1287W        W60724  18.211  12.354  11.538
 1288W        W60725   6.413  38.864  12.839
 1289W        W60726  27.966   7.306   1.901
 1290W        W60727  25.005  20.744   4.293
 1291W        W60728  22.087  24.191  11.410
 1292W        W60729  13.272  36.935  10.506
 1293W        W60730  43.356  15.117   3.684
 1294W        W60731  38.984  40.463  13.044
 1295W        W60732  20.068  37.567   3.360
 1296W        W60733  14.109  34.526  13.326
 1297W        W60734  18.091   7.278  10.941
 1298W        W60735  19.053   1.963  10.577
 1299W        W60736  28.658  17.641  10.525
 1300W        W60737  17.241  42.472  12.562
 1301W        W60738  41.805  31.124  14.866
 1302W        W60739  38.382  25.969  14.379
 1303W        W60740   5.882   9.163  12.566
 1304W        W60741   3.908  35.599   1.227
 1305W        W60742  43.972  41.425  12.008
 1306W        W60743  25.605  43.903  12.356
 1307W        W60744  24.661  34.421   2.688
 1308W        W60745  32.921  37.353   9.981
 1309W        W60746  27.149  15.303   4.661
 1310W        W60747  13.789  22.682  14.881
 1311W        W60748  39.043  37.899   1.236
 1312W        W60749   9.761   3.426   3.854
 1313W        W60750   5.383  29.552  10.547
 1314W        W60751  20.735  10.649  12.922
 1315W        W60752  28.131  22.018   1.803
 1316W        W60753   9.347  25.177   1.772
 1317W        W60754  44.929  30.508  11.514
 1318W        W60755  16.609  40.807   2.294
 1319W        W60756   9.354   8.799   0.878
 1320W        W60757  23.563  41.507  11.032
 1321W        W60758  34.119  40.389   0.800
 1322W        W60759   3.720  21.149  12.858
 1323W        W60760   9.185  13.244  14.964
 1324W        W60761  30.923  13.670  12.343
 1325W        W60762  43.291  21.103  12.084
 1326W        W60763  21.246  26.025  14.448
 1327W        W60764  27.959  24.177   1.369
 1328W        W60765   3.330  40.009  12.383
 1329W        W60766  17.663   1.928   1.849
 1330W        W60767  32.441   5.814  14.788
 1331W        W60768   7.836  13.751   1.414
 1332W        W60769  18.736  12.778  11.581
 1333W        W60770  30.067  31.962   0.785
 1334W        W60771   7.752  26.036  12.340
 1335W        W60772  23.716  29.580   4.690
 1336W        W60773  18.671   4.223  12.954
 1337W        W60774  44.760  29.654  11.921
 1338W        W60775  36.964  21.540   2.812
 1339W        W60776  24.590  14.115   2.316
 1340W        W60777  21.618  32.097   0.899
 1341W        W60778  28.522  26.170   1.418
 1342W        W60779  25.079  41.792  11.433
 1343W        W60780   1.421  42.874   1.303
 1344W        W60781  18.158   7.768   4.690
 1345W        W60782   5.737  10.358  14.443
 1346W        W60783  44.420   8.246   3.147
 1347W        W60784  25.061  40.328  10.625
 1348W        W60785  21.635  18.170  13.546
 1349W        W60786  38.823  13.773   2.292
 1350W        W60787  38.971   4.720  13.980
 1351W        W60788  30.585  30.094  11.381
 1352W        W60789  28.539  17.190  10.504
 1353W        W60790  10.371  42.826   2.718
 1354W        W60791  11.232   1.886  13.379
 1355W        W60792   8.766   7.795   3.755
 1356W        W60793  40.455  11.731   3.312
 1357W        W60794  14.714  41.418   1.380
 1358W        W60795  17.266  43.330  14.898
 1359W        W60796   5.239   8.368  13.978
 1360W        W60797  10.811  19.770  11.446
 1361W        W60798  24.638  21.254   2.795
 1362W        W60799  12.685  20.175   3.352
 1363W        W60800  10.632  41.959   2.850
 1364W        W60801  22.731  10.753  12.012
 1365W        W60802  29.158  35.996   2.286
 1366W        W60803  25.539   7.880   4.128
 1367W        W60804  21.738   1.268  14.417
 1368W        W60805  38.888  23.035  12.984
 1369W        W60806   8.831   3.795  10.471
 1370W        W60807  22.546   5.838   2.386
 1371W        W60808  28.550  22.695   0.849
 1372W        W60809  13.180   8.663  14.508
 1373W        W60810  32.435  22.559   1.935
 1374W        W60811  17.066   5.327  11.387
 1375W        W60812  33.034  27.022  12.066
 1376W        W60813  22.744   0.401   1.425
 1377W        W60814  10.634   6.691  12.933
 1378W        W60815   4.394  20.135   1.776
 1379W        W60816  28.577  22.698  10.947
 1380W        W60817  31.038   7.378  13.965
 1381W        W60818  29.649  26.632   4.166
 1382W        W60819  40.369  17.587  12.031
 1383W        W60820  26.203  18.127   3.285
 1384W        W60821  30.037   3.286   3.377
 1385W        W60822  39.982  17.123   4.781
 1386W        W60823  29.060  28.124   2.337
 1387W        W60824  38.983   1.862  11.061
 1388W        W60825  19.707   5.347  10.888
 1389W        W60826  38.516   5.265  14.460
 1390W        W60827  40.428   2.887   1.321
 1391W        W60828  39.809  26.534  13.430
 1392W        W60829  18.559  13.234   1.892
 1393W        W60830  20.733  21.539  13.851
 1394W        W60831  36.910  42.899  11.484
 1395W        W60832  43.442  36.896   1.348
 1396W        W60833  31.904  27.603   4.719
 1397W        W60834  30.583  26.689   5.177
 1398W        W60835  26.533   2.273  13.476
 1399W        W60836  39.910  33.115  12.530
 1400W        W60837  14.592   2.875  14.342
 1401W        W60838  14.800  39.876   3.725
 1402W        W60839  36.386  34.046  10.958
 1403W        W60840  18.626   4.855  14.843
 1404W        W60841   4.421  34.110   1.344
 1405W        W60842   5.345  24.503  14.427
 1406W        W60843   7.193  19.071   4.768
 1407W        W60844  12.321  17.124  12.836
 1408W        W60845  15.186   7.735  10.596
 1409W        W60846  17.215   4.248  12.848
 1410W        W60847   6.235  26.679   1.362
 1411W        W60848   7.305  25.555   1.302
 1412W        W60849  13.706  40.527   4.661
 1413W        W60850   5.416   1.886   4.292
 1414W        W60851  42.366  17.735  11.877
 1415W        W60852  29.667  14.268   2.219
 1416W        W60853  37.509  14.217  10.914
 1417W        W60854  13.775  42.496  11.495
 1418W        W60855   1.857  24.218   2.400
 1419W        W60856  27.093  31.900  11.898
 1420W        W60857  37.442   3.931   3.696
 1421W        W60858  43.509  11.295  11.894
 1422W        W60859  31.434   5.383  13.875
 1423W        W60860  16.712  10.835   2.396
 1424W        W60861   7.863  22.062  11.474
 1425W        W60862  19.667  40.939  13.448
 1426W        W60863   1.952  26.992  13.040
 1427W        W60864  11.828   7.171  10.536
 1428W        W60865   5.403  23.165  14.473
 1429W        W60866  33.912  37.481   9.535
 1430W        W60867   5.334  34.937  13.541
 1431W        W60868  43.461  23.635  14.881
 1432W        W60869  21.259  36.566   4.280
 1433W        W60870   0.302  42.498   3.223
 1434W        W60871  10.335  25.563  12.459
 1435W        W60872  25.555  25.108   3.269
 1436W        W60873  44.383  43.343  11.391
 1437W        W60874  29.079   5.809  11.603
 1438W        W60875  41.320  33.965   2.717
 1439W        W60876  40.970  11.815  12.966
 1440W        W60877  33.114  29.530  10.993
 1441W        W60878   7.366  31.403  12.979
 1442W        W60879  41.326  18.634   3.294
 1443W        W60880  16.079  30.978  14.417
 1444W        W60881  43.388  11.831   3.220
 1445W        W60882  20.540  42.939  10.942
 1446W        W60883   2.458  15.312   3.781
 1447W        W60884  39.963  17.593  14.443
 1448W        W60885  43.321  33.035   9.550
 1449W        W60886  21.184  14.723  12.409
 1450W        W60887  30.423  11.778   4.735
 1451W        W60888  42.803  15.703   2.696
 1452W        W60889   9.224  14.185   0.838
 1453W        W60890  22.041  39.525  13.838
 1454W        W60891  16.787  24.216  13.798
 1455W        W60892  43.285  24.058   2.407
 1456W        W60893   1.482   6.350   2.857
 1457W        W60894  39.832  17.199   1.319
 1458W        W60895   5.394   3.848  11.405
 1459W        W60896   6.838   8.798  12.518
 1460W        W60897  23.636  18.698  12.380
 1461W        W60898  11.698  17.725  11.604
 1462W        W60899  26.530  27.170   4.702
 1463W        W60900  29.084   0.372   2.756
 1464W        W60901  44.485  39.331  14.877
 1465W        W60902  26.622  24.126  12.510
 1466W        W60903  35.953  42.394   0.859
 1467W        W60904  18.104  30.142   4.150
 1468W        W60905   1.749   2.870  10.508
 1469W        W60906   1.271  28.112  11.987
 1470W        W60907   6.253   0.921   3.203
 1471W        W60908  10.646  28.451   1.712
 1472W        W60909  41.961  41.432   1.927
 1473W        W60910  41.923  39.021   2.258
 1474W        W60911  18.578  11.267   4.644
 1475W        W60912  22.006  15.138  14.285
 1476W        W60913  26.607  18.587   2.746
 1477W        W60914  38.967  38.959  10.000
 1478W        W60915  10.732   6.188  12.372
 1479W        W60916   5.272  28.508   4.699
 1480W        W60917  13.130  43.948  13.506
 1481W        W60918  27.602  10.708   0.456
 1482W        W60919  38.844  20.135   0.334
 1483W        W60920  20.534  24.505   9.568
 1484W        W60921  40.491  28.058  13.970
 1485W        W60922  33.526  18.716   2.306
 1486W        W60923   9.730  15.146  13.307
 1487W        W60924  37.449  13.798  12.490
 1488W        W60925  33.971  28.981   2.901
 1489W        W60926  12.174  35.409   1.323
 1490W        W60927  44.430  29.050  11.889
 1491W        W60928   7.276  27.592   0.348
 1492W        W60929  44.835  11.334  12.873
 1493W        W60930  27.197  23.631  11.424
 1494W        W60931  43.272  42.322  10.642
 1495W        W60932  30.018  34.558  13.473
 1496W        W60933   6.380   0.867   2.873
 1497W        W60934  23.636   0.341  13.814
 1498W        W60935  33.488  18.234   1.775
 1499W        W60936  24.614  10.685  12.913
 1500W        W60937  12.854  13.314   2.821
 1501W        W60938  29.075  30.113   0.450
 1502W        W60939   7.879  42.942  10.903
 1503W        W60940  29.518   9.871   3.721
 1504W        W60941  36.450  37.348   3.365
 1505W        W60942  35.866  25.962   3.357
 1506W        W60943  26.639  27.522   1.244
 1507W        W60944  17.123  42.303   1.264
 1508W        W60945  30.596  44.265  12.012
 1509W        W60946  42.341  29.995  13.955
 1510W        W60947  14.595  28.098  14.325
 1511W        W60948  18.174  14.804   1.299
 1512W        W60949  30.978  34.962   9.974
 1513W        W60950  38.056  44.361  11.064
 1514W        W60951  15.319   6.186  11.935
 1515W        W60952   6.827  43.920   3.867
 1516W        W60953  37.391  34.985  11.555
 1517W        W60954  10.870  35.373  14.997
 1518W        W60955   0.755  26.191   3.252
 1519W        W60956   5.323  23.565  11.568
 1520W        W60957  37.405  44.427  14.835
 1521W        W60958   9.683  10.382  12.504
 1522W        W60959  35.570  42.458  12.399
 1523W        W60960  16.198   8.185  14.796
 1524W        W60961   4.269  17.117  14.327
 1525W        W60962   7.874  18.285  11.411
 1526W        W60963  11.725  25.096   0.875
 1527W        W60964  39.063   7.682  14.020
 1528W        W60965  17.081  35.084  12.371
 1529W        W60966  43.454  29.457   3.724
 1530W        W60967  25.510  29.571   1.217
 1531W        W60968  31.615  23.733   3.371
 1532W        W60969  10.377  10.647  12.885
 1533W        W60970   8.400  35.479   2.719
 1534W        W60971  16.106  35.405   2.278
 1535W        W60972  10.707  38.889   3.221
 1536W        W60973   1.747  11.772   2.754
 1537W        W60974  13.606  13.783  14.445
 1538W        W60975  27.486  25.176   1.366
 1539W        W60976  39.844  33.876  12.428
 1540W        W60977  13.841  33.529  13.413
 1541W        W60978   9.755  22.135   2.805
 1542W        W60979  44.760  29.082   1.708
 1543W        W60980   5.259  27.634   2.393
 1544W        W60981  37.348  39.043   3.743
 1545W        W60982  13.267   0.409   1.830
 1546W        W60983  35.009  17.632   1.356
 1547W        W60984  27.628  22.541  11.440
 1548W        W60985  38.994   3.940   4.626
 1549W        W60986  27.500  33.959   3.748
 1550W        W60987   3.742  13.646   5.175
 1551W        W60988  21.154  12.674   4.328
 1552W        W60989  20.700  11.767   3.798
 1553W        W60990   4.338  25.199   1.226
 1554W        W60991  16.706  36.568  11.025
 1555W        W60992  31.023   9.868  11.471
 1556W        W60993  38.923  16.626  12.890
 1557W        W60994   4.355  11.817   0.889
 1558W        W60995  10.788  29.041   0.300
 1559W        W60996  30.618  11.304   4.671
 1560W        W60997  29.130  21.561  12.411
 1561W        W60998   0.273   9.810   5.768
 1562W        W60999  19.777  28.612  13.488
 1563W        W61000  14.294  33.615  12.390
 1564W        W61001  13.110  18.253  12.973
 1565W        W61002  16.630  15.217  11.596
 1566W        W61003  37.505   8.399  10.963
 1567W        W61004  13.663  22.091   2.220
 1568W        W61005  30.103  12.335   0.953
 1569W        W61006  22.060  10.873  10.628
 1570W        W61007  28.578  39.388   0.463
 1571W        W61008  38.527  37.444   1.213
 1572W        W61009   1.874   9.712   4.226
 1573W        W61010  42.853  13.794   0.479
 1574W        W61011  38.487  34.434  12.031
 1575W        W61012  27.073   7.728   0.884
 1576W        W61013  14.296   8.854   0.359
 1577W        W61014   4.821  42.387  14.913
 1578W        W61015  37.063  26.096  14.800
 1579W        W61016   8.682   3.784   2.829
 1580W        W61017  25.649  44.881  11.435
 1581W        W61018  21.751  26.460  14.309
 1582W        W61019  17.138   4.765  13.467
 1583W        W61020  30.572  19.084   4.178
 1584W        W61021   4.863  10.780  12.052
 1585W        W61022  26.574  26.156   2.208
 1586W        W61023   9.205  18.072   2.686
 1587W        W61024   9.690  13.345  11.600
 1588W        W61025   5.785  18.595   1.714
 1589W        W61026  12.758  35.033   3.859
 1590W        W61027  37.938  31.145  10.982
 1591W        W61028   0.899  18.138  11.940
 1592W        W61029  10.651  44.964  12.463
 1593W        W61030   6.304  12.749   1.315
 1594W        W61031  36.402  42.853  14.396
 1595W        W61032   7.227  21.659  10.979
 1596W        W61033   9.861  34.088  12.384
 1597W        W61034  18.169   8.818  13.936
 1598W        W61035  40.481  36.503   1.261
 1599W        W61036  33.400   9.884  13.469
 1600W        W61037  35.902  38.497   0.826
 1601W        W61038  12.320   2.448   3.293
 1602W        W61039  39.891  36.098   3.683
 1603W        W61040   2.226  36.068  10.614
 1604W        W61041  21.691   3.373   2.391
 1605W        W61042  23.529  13.197   3.781
 1606W        W61043  33.418  13.208   2.883
 1607W        W61044  35.864  29.139  11.907
 1608W        W61045  24.687  24.078   2.406
 1609W        W61046  39.975   8.825   2.689
 1610W        W61047  42.881  17.062   1.244
 1611W        W61048   2.763   7.726  14.937
 1612W        W61049  35.469  43.815  11.553
 1613W        W61050  40.544   3.711  10.611
 1614W        W61051  26.159  24.106  11.044
 1615W        W61052   6.301  44.989  11.982
 1616W        W61053   9.706  31.124   2.709
 1617W        W61054  41.430  37.074   2.766
 1618W        W61055  33.913  27.552   1.793
 1619W        W61056  28.530  37.880   0.824
 1620W        W61057  37.928   9.382   3.696
 1621W        W61058   8.766  21.133   0.376
 1622W        W61059  19.065  24.584   4.613
 1623W        W61060  41.952  36.513  12.860
 1624W        W61061  31.988  23.673  12.027
 1625W        W61062   7.698  43.412  13.955
 1626W        W61063  10.187   0.465  11.413
 1627W        W61064  35.934  27.451  11.374
 1628W        W61065  39.412  18.769  12.400
 1629W        W61066  34.509   2.919  11.095
 1630W        W61067  35.006  21.707   4.273
 1631W        W61068  35.543  24.722  12.093
 1632W        W61069  31.489  22.196   4.181
 1633W        W61070  33.948   6.832  10.562
 1634W        W61071  32.399  42.913  10.558
 1635W        W61072  12.663  13.831   3.696
 1636W        W61073  31.965  20.058   1.820
 1637W        W61074  11.806   2.337  14.368
 1638W        W61075   7.322  44.341  13.973
 1639W        W61076  27.688  15.250  14.313
 1640W        W61077  29.971   3.804  13.394
 1641W        W61078  39.936  32.994  14.759
 1642W        W61079  27.994  22.524  11.893
 1643W        W61080  44.914  20.524   4.656
 1644W        W61081  34.450   8.274   1.828
 1645W        W61082  11.244  27.528  10.507
 1646W        W61083  39.852  19.690   4.162
 1647W        W61084  16.147  28.931   1.831
 1648W        W61085  10.311  25.033  11.037
 1649W        W61086  22.139  24.681  14.939
 1650W        W61087   2.376  21.212   0.390
 1651W        W61088   4.400   5.693  12.407
 1652W        W61089  43.837  37.556   5.219
 1653W        W61090  39.394  10.768  13.966
 1654W        W61091   2.404  38.423  13.516
 1655W        W61092  34.039  41.907   9.983
 1656W        W61093  42.971  36.486   2.180
 1657W        W61094   8.856  14.673   4.289
 1658W        W61095   7.787  41.037   0.843
 1659W        W61096  40.823   6.423   0.348
 1660W        W61097   2.806  19.202   3.191
 1661W        W61098  41.911  21.161   0.917
 1662W        W61099  28.574  39.445  14.934
 1663W        W61100  31.529  19.772   4.756
 1664W        W61101  33.898  23.722   3.660
 1665W        W61102   2.367  38.863   0.752
 1666W        W61103  29.962  26.182  13.380
 1667W        W61104  27.122  35.983   5.316
 1668W        W61105  17.599  20.266  12.521
 1669W        W61106  26.619  33.055  10.504
 1670W        W61107  36.374  25.556   3.189
 1671W        W61108  15.215  41.031   2.891
 1672W        W61109  33.023  36.889  12.545
 1673W        W61110  21.244  43.358  11.405
 1674W        W61111   5.331  34.955  11.417
 1675W        W61112  26.621  25.148  10.440
 1676W        W61113  14.616   0.449   4.299
 1677W        W61114  20.644  10.859  13.448
 1678W        W61115  22.228  10.743  10.983
 1679W        W61116  31.484  23.721   0.806
 1680W        W61117  40.921  33.550  13.372
 1681W        W61118  29.049  32.024   2.218
 1682W        W61119  40.822  34.449   0.484
 1683W        W61120  11.801  10.862  10.495
 1684W        W61121  28.623  35.586  13.472
 1685W        W61122  36.884   4.834   2.279
 1686W        W61123   1.850  13.263   3.162
 1687W        W61124  17.105   0.269   2.727
 1688W        W61125  43.321  32.541  10.927
 1689W        W61126  37.080  28.445   1.243
 1690W        W61127  14.608  44.401   9.994
 1691W        W61128  42.983   0.836   4.736
 1692W        W61129   5.756  43.354  14.424
 1693W        W61130   6.346  10.807  10.585
 1694W        W61131  22.216   8.746  12.364
 1695W        W61132   8.709   6.387   3.240
 1696W        W61133  26.481  18.740  11.868
 1697W        W61134  29.954  12.359   3.762
 1698W        W61135  41.876   1.751  14.868
 1699W        W61136   5.298  38.357   3.812
 1700W        W61137  29.597  25.474   0.906
 1701W        W61138  22.233  15.652  11.111
 1702W        W61139  42.395  20.540  13.871
 1703W        W61140   5.758   4.319  10.440
 1704W        W61141  12.250  26.133  14.917
 1705W        W61142  31.923  22.108  14.007
 1706W        W61143  16.113  27.066  13.010
 1707W        W61144  22.161  18.235  11.046
 1708W        W61145   6.840  43.501   1.375
 1709W        W61146   7.837  10.231  13.437
 1710W        W61147  35.370   4.896   2.687
 1711W        W61148  25.488  18.630   2.236
 1712W        W61149  42.031  11.710  12.060
 1713W        W61150  37.533  18.755  10.505
 1714W        W61151  18.584  13.133   3.311
 1715W        W61152   6.358  17.139   3.652
 1716W        W61153  27.638   7.305   1.422
 1717W        W61154  14.637  24.665   4.600
 1718W        W61155   5.304   8.265   3.815
 1719W        W61156   4.355  15.192  13.878
 1720W        W61157   2.309  39.472  13.040
 1721W        W61158  26.656   6.340   1.225
 1722W        W61159  12.175  25.117   4.158
 1723W        W61160  31.045  31.635  13.916
 1724W        W61161  43.952   2.402  10.620
 1725W        W61162   1.796  34.889   1.314
 1726W        W61163  13.223  16.126   2.357
 1727W        W61164  34.060   7.911  13.470
 1728W        W61165  14.752  10.154   1.852
 1729W        W61166   3.407  38.029   1.440
 1730W        W61167  37.540  37.045  12.463
 1731W        W61168  31.968  17.166   5.269
 1732W        W61169  23.686  44.936  13.005
 1733W        W61170  23.049  34.411  12.372
 1734W        W61171   4.404   6.905  13.482
 1735W        W61172  40.414  12.770  14.288
 1736W        W61173  25.044  34.057  12.983
 1737W        W61174  42.511   8.862  11.028
 1738W        W61175  37.461  31.984  12.059
 1739W        W61176   8.748  40.884  13.953
 1740W        W61177  23.577  32.089  13.991
 1741W        W61178  19.582  36.495   4.780
 1742W        W61179   3.375  34.558   3.272
 1743W        W61180   4.871   8.861   4.131
 1744W        W61181  15.218  40.989  13.018
 1745W        W61182  29.940  22.603  13.332
 1746W        W61183   8.203  21.656   4.664
 1747W        W61184  43.369  33.486   0.300
 1748W        W61185  26.461   1.873  10.562
 1749W        W61186   9.833  23.492   3.774
 1750W        W61187  37.409  44.786  13.797
 1751W        W61188   1.434  33.973   0.788
 1752W        W61189   6.262  31.985  11.032
 1753W        W61190  16.092  22.625   0.757
 1754W        W61191  37.849  33.520  14.343
 1755W        W61192   1.479  27.113   0.456
 1756W        W61193  30.470  29.001  11.945
 1757W        W61194  33.561  18.550  13.809
 1758W        W61195  28.575  17.630  14.496
 1759W        W61196  28.517   6.183  14.991
 1760W        W61197   3.954   6.816   2.838
 1761W        W61198   2.896   2.859   0.310
 1762W        W61199  28.507  12.699   1.312
 1763W        W61200  15.625   8.394   1.229
 1764W        W61201  23.644  32.038   4.821
 1765W        W61202  44.470  25.704  13.451
 1766W        W61203  13.794   5.927   3.633
 1767W        W61204  24.563  30.636  13.456
 1768W        W61205  44.440  32.987   2.205
 1769W        W61206  21.244  18.769  13.535
 1770W        W61207   1.735  15.292  11.499
 1771W        W61208  25.217  38.427  12.559
 1772W        W61209  40.010   5.236  10.484
 1773W        W61210  40.894  17.248   0.468
 1774W        W61211  41.501  34.428   0.277
 1775W        W61212  14.101  38.962  14.952
 1776W        W61213  15.310  16.090   2.290
 1777W        W61214  23.157  12.123   1.349
 1778W        W61215  12.361  32.596  12.001
 1779W        W61216   8.739   0.389   0.338
 1780W        W61217  31.999  19.221  13.485
 1781W        W61218  38.869  24.175   3.676
 1782W        W61219  25.568   0.758   1.895
 1783W        W61220  34.897  13.239  11.946
 1784W        W61221   6.761  16.306  14.961
 1785W        W61222  14.747   2.775   0.781
 1786W        W61223  30.977  21.676   5.760
 1787W        W61224  11.780  19.611  10.037
 1788W        W61225  32.597  10.353  14.283
 1789W        W61226  36.995  30.587   4.664
 1790W        W61227  42.402  41.395   2.198
 1791W        W61228  44.289   6.395  14.851
 1792W        W61229   0.747   1.370   2.674
 1793W        W61230  29.051  14.329   5.109
 1794W        W61231  29.495  13.806  14.499
 1795W        W61232  19.239  25.186   4.700
 1796W        W61233   1.821   6.754  10.982
 1797W        W61234   8.176  29.079  13.841
 1798W        W61235  24.570  25.676  10.543
 1799W        W61236  33.501  26.677   3.372
 1800W        W61237  29.617  16.805   4.218
 1801W        W61238  17.082  18.204   4.168
 1802W        W61239  34.109  15.109   3.363
 1803W        W61240   6.791  40.521  10.891
 1804W        W61241  19.586   9.303  11.568
 1805W        W61242  42.329  19.584  14.503
 1806W        W61243  23.222  38.496  14.848
 1807W        W61244   1.836   1.811  11.527
 1808W        W61245  21.204  41.013   3.744
 1809W        W61246  12.243  21.094   0.729
 1810W        W61247  23.491  38.560  11.965
 1811W        W61248  34.882   2.278   3.334
 1812W        W61249  42.402  40.407  11.583
 1813W        W61250  30.576  22.159   0.269
 1814W        W61251  21.584  41.405   5.286
 1815W        W61252   3.900   4.832  11.482
 1816W        W61253  35.533  38.381  14.031
 1817W        W61254  28.442   2.893   1.880
 1818W        W61255  25.082  24.097  10.519
 1819W        W61256  30.641  22.595  14.323
 1820W        W61257  22.699  26.511   5.217
 1821W        W61258  41.011  36.951  13.471
 1822W        W61259  17.582  31.960   1.367
 1823W        W61260  27.495  30.102  12.361
 1824W        W61261  21.090  22.018  14.363
 1825W        W61262  24.170  25.104   3.673
 1826W        W61263  33.086  34.989  10.562
 1827W        W61264   6.255  42.791   3.645
 1828W        W61265  34.008  23.660   2.239
 1829W        W61266   3.229  43.459  12.895
 1830W        W61267  10.750  11.222  12.361
 1831W        W61268  24.549   0.432  13.910
 1832W        W61269   6.358   6.360   2.197
 1833W        W61270  14.194  26.145  12.006
 1834W        W61271  17.711   0.859   4.138
 1835W        W61272  41.968  13.269   4.351
 1836W        W61273  15.766  12.270  12.937
 1837W        W61274  29.137  39.962  11.604
 1838W        W61275  22.087   2.859   3.659
 1839W        W61276  16.599  33.419  12.518
 1840W        W61277  11.865  43.327  13.943
 1841W        W61278   1.378  25.981  12.517
 1842W        W61279   2.885   1.263   3.349
 1843W        W61280  19.746   1.830  12.504
 1844W        W61281  33.401  20.759   3.818
 1845W        W61282   4.278  21.711   0.428
 1846W        W61283  16.715  41.921   4.692
 1847W        W61284  27.171  31.916   0.804
 1848W        W61285   0.275  30.075  14.424
 1849W        W61286   2.389  36.860   3.344
 1850W        W61287  15.299  14.765  13.851
 1851W        W61288   3.440   4.421   3.822
 1852W        W61289   5.271  39.869  12.566
 1853W        W61290  41.512  28.639  10.902
 1854W        W61291  29.480  26.690  13.463
 1855W        W61292   4.840  16.812   1.254
 1856W        W61293  30.516  15.125   4.264
 1857W        W61294  27.513  24.139  11.393
 1858W        W61295  41.960  13.265  12.377
 1859W        W61296  10.739  27.511   1.903
 1860W        W61297   7.289  22.737   0.949
 1861W        W61298  28.991  13.230  13.043
 1862W        W61299  22.075  29.994  12.463
 1863W        W61300  13.214  39.041   1.728
 1864W        W61301  20.682  22.604  12.859
 1865W        W61302  12.689  32.010  12.571
 1866W        W61303  33.973   9.842  12.857
 1867W        W61304  43.861   0.254   3.769
 1868W        W61305  21.669  30.653   5.172
 1869W        W61306  17.573  12.783   2.717
 1870W        W61307  34.426  12.809   3.792
 1871W        W61308  33.421  17.794   1.811
 1872W        W61309  10.696  32.132   2.696
 1873W        W61310  41.460  25.621  12.413
 1874W        W61311  23.090  30.954  14.442
 1875W        W61312  25.537  38.517  12.018
 1876W        W61313  31.534  30.145  13.339
 1877W        W61314  32.895  12.635  12.090
 1878W        W61315  43.278  25.537  10.445
 1879W        W61316  21.098   2.823  12.041
 1880W        W61317   9.665   1.758  14.403
 1881W        W61318  42.516   7.401   3.754
 1882W        W61319   1.876  40.940   2.370
 1883W        W61320  16.676  17.564   1.331
 1884W        W61321  18.286   9.776  14.394
 1885W        W61322   9.705  35.561  10.625
 1886W        W61323  31.526   7.347  11.119
 1887W        W61324  28.650  16.733   3.353
 1888W        W61325   6.749  40.042   3.806
 1889W        W61326  12.305   3.241  12.890
 1890W        W61327  18.208   0.418  14.786
 1891W        W61328  16.256   2.446   2.773
 1892W        W61329   1.394  32.901   1.269
 1893W        W61330  17.594   1.973  14.396
 1894W        W61331  32.139  24.069   0.923
 1895W        W61332  43.920  38.897  10.891
 1896W        W61333  30.653   9.842  13.391
 1897W        W61334  44.825   6.841   2.840
 1898W        W61335   4.403   3.375   4.273
 1899W        W61336  35.989  23.531  12.867
 1900W        W61337   5.211  23.072  10.409
 1901W        W61338  14.330  41.926  11.077
 1902W        W61339  19.643  13.277  12.878
 1903W        W61340  13.788   2.425   1.285
 1904W        W61341  10.160  23.136  11.587
 1905W        W61342  35.082  18.641   1.415
 1906W        W61343  41.847  44.761  13.365
 1907W        W61344  38.053   5.320   0.846
 1908W        W61345  20.714  18.713   0.303
 1909W        W61346  44.835  24.133  12.493
 1910W        W61347  21.586  39.370  12.477
 1911W        W61348   7.883  29.609   0.350
 1912W        W61349   1.819   3.847   0.393
 1913W        W61350  32.606  35.936  13.326
 1914W        W61351  17.266  17.084   3.796
 1915W        W61352  25.185  29.618   3.286
 1916W        W61353  24.576   0.272  13.487
 1917W        W61354  44.281  25.152   1.834
 1918W        W61355  20.597  13.622  11.574
 1919W        W61356   6.384  14.158  10.085
 1920W        W61357  30.428   3.933  11.469
 1921W        W61358   6.224  42.348  10.525
 1922W        W61359  38.981  30.043  10.909
 1923W        W61360   2.723  39.423   1.272
 1924W        W61361  31.575  29.148  11.017
 1925W        W61362   2.290   5.398   4.822
 1926W        W61363   7.699   3.853  12.485
 1927W        W61364  32.045  31.903  14.972
 1928W        W61365  38.544   3.378   2.787
 1929W        W61366  11.867  39.914  10.451
 1930W        W61367   5.402  36.510  12.944
 1931W        W61368  32.556  38.455   5.607
 1932W        W61369  23.026   3.248   1.773
 1933W        W61370  41.381  13.180  11.008
 1934W        W61371   2.850  39.051   2.777
 1935W        W61372  11.137  26.517   1.922
 1936W        W61373   6.792  34.988   4.120
 1937W        W61374  35.492  13.248  11.064
 1938W        W61375  12.828  42.334  10.403
 1939W        W61376  35.057  30.657   4.347
 1940W        W61377  10.708  26.098  14.338
 1941W        W61378  39.318   8.671  14.506
 1942W        W61379  33.561  14.331  11.071
 1943W        W61380  24.679  19.222   1.802
 1944W        W61381  16.602  41.922  10.595
 1945W        W61382  13.163   9.669   3.731
 1946W        W61383   8.355  16.202  13.914
 1947W        W61384   7.717   2.278   0.897
 1948W        W61385  35.499  35.048   0.764
 1949W        W61386   8.251  20.185  12.391
 1950W        W61387  42.807   1.476  13.791
 1951W        W61388   1.466  18.222  11.597
 1952W        W61389  12.151  20.156   4.626
 1953W        W61390  20.059  24.682  11.496
 1954W        W61391  27.004  17.243  12.560
 1955W        W61392  30.112  13.332  12.375
 1956W        W61393   4.308  24.097  14.355
 1957W        W61394   5.704   1.268  12.459
 1958W        W61395   1.377   4.282   4.836
 1959W        W61396   5.790   7.781  13.915
 1960W        W61397  23.731  44.356  10.907
 1961W        W61398  18.115  13.622  12.985
 1962W        W61399  42.448  42.523   3.743
 1963W        W61400   2.784  36.950   0.387
 1964W        W61401  17.144  24.085   2.749
 1965W        W61402  11.353   3.879  10.629
 1966W        W61403  23.130   8.399   4.199
 1967W        W61404  23.087  33.080   4.150
 1968W        W61405  34.526  38.348   0.938
 1969W        W61406  11.774  16.084  12.454
 1970W        W61407  44.427  34.453   4.240
 1971W        W61408  42.017  31.535   0.447
 1972W        W61409  26.098   8.698   4.243
 1973W        W61410  30.959   5.203  11.373
 1974W        W61411   7.403  19.740   3.274
 1975W        W61412  18.637  22.129  13.498
 1976W        W61413  40.317  28.576  13.820
 1977W        W61414   7.686  31.409  10.470
 1978W        W61415  34.874   2.376   1.341
 1979W        W61416  13.340  23.198   0.333
 1980W        W61417  36.590   4.762  11.610
 1981W        W61418  27.590  44.779  12.546
 1982W        W61419  21.221   4.832  14.824
 1983W        W61420   3.853  41.393   3.809
 1984W        W61421   1.839  35.051   4.329
 1985W        W61422  41.935   9.295   0.936
 1986W        W61423   6.717  14.715  13.796
 1987W        W61424  16.654  13.204   3.667
 1988W        W61425  25.009   3.931  14.410
 1989W        W61426  30.953  29.477   0.438
 1990W        W61427  24.694  31.517  14.382
 1991W        W61428   7.686  32.966  12.394
 1992W        W61429   9.266   9.719   3.279
 1993W        W61430  18.055  21.566   1.786
 1994W        W61431   5.403  41.533   3.187
 1995W        W61432  43.909   5.781   3.863
 1996W        W61433  38.568  12.338  10.953
 1997W        W61434  25.065  27.008  14.949
 1998W        W61435  29.143  42.525   3.642
 1999W        W61436   7.218  25.481   4.694
 2000W        W61437   0.362  17.749  11.549
 2001W        W61438  33.896  34.901   1.379
 2002W        W61439  38.568  32.586  10.947
 2003W        W61440  27.531  24.589  12.839
 2004W        W61441  25.675  29.524   3.297
 2005W        W61442  15.585  21.649   0.940
 2006W        W61443  13.166   6.217   4.342
 2007W        W61444  33.090  32.568   2.885
 2008W        W61445  18.178  11.263  11.974
 2009W        W61446  25.517  25.966   3.195
 2010W        W61447  10.303   8.181  12.508
 2011W        W61448  17.644  17.203  14.351
 2012W        W61449   5.696  21.178  14.879
 2013W        W61450  41.536  42.302  12.063
 2014W        W61451  32.416  24.559  14.467
 2015W        W61452  21.106  19.102   4.250
 2016W        W61453   2.425   9.711   0.899
 2017W        W61454   1.292   9.825   4.837
 2018W        W61455   2.823   4.757  11.474
 2019W        W61456  11.753  23.668   3.857
 2020W        W61457   2.821  31.960   4.821
 2021W        W61458   6.914  22.996   1.809
 2022W        W61459   6.333   4.352  10.465
 2023W        W61460   5.385   4.419  14.838
 2024W        W61461   6.772   6.374  13.956
 2025W        W61462  32.617  25.963   2.844
 2026W        W61463  24.595  39.545  14.507
 2027W        W61464   5.288  10.791   4.242
 2028W        W61465  10.701  23.551  10.609
 2029W        W61466  23.653   5.328  14.505
 2030W        W61467  17.665  12.276  11.117
 2031W        W61468  29.552  38.416  11.883
 2032W        W61469  18.208  39.450  12.498
 2033W        W61470   8.716  26.172   1.829
 2034W        W61471  35.417  12.166  10.912
 2035W        W61472  13.164  16.301  14.320
 2036W        W61473  10.306  29.595   2.702
 2037W        W61474  27.505  31.060  11.118
 2038W        W61475  11.671  41.888  12.070
 2039W        W61476  37.018  29.045   1.701
 2040W        W61477  38.962   9.854  14.890
 2041W        W61478  36.493   1.443  14.808
 2042W        W61479  37.070  12.360  11.113
 2043W        W61480  23.491  37.445   3.338
 2044W        W61481  19.107  20.090   2.218
 2045W        W61482  21.150   4.721   4.795
 2046W        W61483  28.044   1.454   0.319
 2047W        W61484  16.610   4.900  13.447
 2048W        W61485  10.206  33.406   3.320
 2049W        W61486  42.839  12.214   2.684
 2050W        W61487  39.319  24.101   2.852
 2051W        W61488   1.945  16.795   0.484
 2052W        W61489   3.717   7.849   0.889
 2053W        W61490   5.220  19.120  13.848
 2054W        W61491  33.017  33.614  13.055
 2055W        W61492  21.524  17.237   9.963
 2056W        W61493  41.009   6.689   1.232
 2057W        W61494  24.981   5.878  14.338
 2058W        W61495  40.338  16.142   2.382
 2059W        W61496  12.121  17.652   4.209
 2060W        W61497  39.912  13.672   3.819
 2061W        W61498  20.658  16.640   0.922
 2062W        W61499  22.560  14.662  12.097
 2063W        W61500  44.465  44.866  10.552
 2064W        W61501   4.287  33.905  12.969
 2065W        W61502  34.118  35.485  13.345
 2066W        W61503   6.422  26.186   1.876
 2067W        W61504   5.919  13.165  12.477
 2068W        W61505  25.637  32.894  11.599
 2069W        W61506   0.455  23.159   4.683
 2070W        W61507   9.214  13.225  13.849
 2071W        W61508  38.867  20.627   4.332
 2072W        W61509  26.540  35.554   4.324
 2073W        W61510  38.885  17.118   2.801
 2074W        W61511   2.403  12.199  11.454
 2075W        W61512  16.646   2.319   4.745
 2076W        W61513  41.446  41.883   1.265
 2077W        W61514   4.282  20.762   4.772
 2078W        W61515   8.745  38.382   1.258
 2079W        W61516  19.271  19.201   0.423
 2080W        W61517  15.202   1.434  14.443
 2081W        W61518  41.458  28.133   3.190
 2082W        W61519  23.575  36.966   2.377
 2083W        W61520   4.406  43.794  13.819
 2084W        W61521   6.821  19.590  12.460
 2085W        W61522  22.643   2.398  13.453
 2086W        W61523  29.155   7.707   2.228
 2087W        W61524  12.248  30.578   2.829
 2088W        W61525  32.131   0.855  12.941
 2089W        W61526  37.461   4.818   5.234
 2090W        W61527  34.576  35.940   2.689
 2091W        W61528   3.908  38.855  11.562
 2092W        W61529  31.607  19.228  13.917
 2093W        W61530  18.730   8.369  11.056
 2094W        W61531  12.806  27.958  14.958
 2095W        W61532  11.767   4.739  10.523
 2096W        W61533   7.328  37.961  12.984
 2097W        W61534   9.301  22.557   2.808
 2098W        W61535  26.056  20.604  12.420
 2099W        W61536  19.254  29.477   2.753
 2100W        W61537  14.706  38.568   1.721
 2101W        W61538  27.599  28.608  12.917
 2102W        W61539  28.624  23.178   1.810
 2103W        W61540  26.971  40.987  12.069
 2104W        W61541   2.377  42.782   4.186
 2105W        W61542  20.190   2.746   0.448
 2106W        W61543  44.820  23.183   1.366
 2107W        W61544   8.764   4.780  11.013
 2108W        W61545  10.379  10.310   4.296
 2109W        W61546  37.005  21.128  10.595
 2110W        W61547   4.430   2.927   0.353
 2111W        W61548   3.313  21.750  12.448
 2112W        W61549   2.776   4.879  13.022
 2113W        W61550  30.543  18.642   3.347
 2114W        W61551  39.873  22.614   0.769
 2115W        W61552   2.723  13.778   1.854
 2116W        W61553   6.721  22.153  14.324
 2117W        W61554  17.121   2.955   3.306
 2118W        W61555  26.009  23.500  13.810
 2119W        W61556  41.526  25.651  10.462
 2120W        W61557  34.864   4.746   2.888
 2121W        W61558  20.716  25.573  10.518
 2122W        W61559  42.432   0.364   2.182
 2123W        W61560  28.071  29.983  14.387
 2124W        W61561   6.786  36.556  11.431
 2125W        W61562  24.517  30.599  11.861
 2126W        W61563   5.402  42.363   2.812
 2127W        W61564  11.222  43.964  12.083
 2128W        W61565  26.095  18.284   1.359
 2129W        W61566  35.588   5.388   0.735
 2130W        W61567   7.196  19.582   4.169
 2131W        W61568  14.233  31.134   4.769
 2132W        W61569   3.299   5.422   1.803
 2133W        W61570  10.215  29.966  12.908
 2134W        W61571  38.383  18.275  13.402
 2135W        W61572  34.556  12.718   2.334
 2136W        W61573  17.588  44.380   4.697
 2137W        W61574  38.998  20.701   1.222
 2138W        W61575  33.546   5.751  12.467
 2139W        W61576  39.364  20.589  12.492
 2140W        W61577   2.893  26.516   3.238
 2141W        W61578   6.900   9.853  12.847
 2142W        W61579   4.764   3.825  10.916
 2143W        W61580   3.877  14.619   2.684
 2144W        W61581  25.585   9.165  14.906
 2145W        W61582   9.363   8.254   3.818
 2146W        W61583  42.297  10.374  13.340
 2147W        W61584   3.920  22.596  10.136
 2148W        W61585   1.919  23.113   2.828
 2149W        W61586  23.106  19.543  12.848
 2150W        W61587  36.967   0.935   2.370
 2151W        W61588   5.722  43.937   1.893
 2152W        W61589  30.456  15.104   1.763
 2153W        W61590  36.503  41.860   4.212
 2154W        W61591  40.408  16.107   0.769
 2155W        W61592  35.434  36.511   1.864
 2156W        W61593  18.787   0.396   2.799
 2157W        W61594  43.374  34.377  11.916
 2158W        W61595   6.743  25.028  10.146
 2159W        W61596  43.776  35.854  13.038
 2160W        W61597  34.368  36.572  12.575
 2161W        W61598  19.269  20.715   3.216
 2162W        W61599  13.837  21.201   1.366
 2163W        W61600  17.688   3.855   1.447
 2164W        W61601  20.196  33.510   2.228
 2165W        W61602  44.429  25.691   3.385
 2166W        W61603   4.870   7.697   3.252
 2167W        W61604  44.503  11.670  12.927
 2168W        W61605  24.594  25.498   1.376
 2169W        W61606   4.386  37.411   2.351
 2170W        W61607  33.120  22.186  14.865
 2171W        W61608   3.295  30.544   3.798
 2172W        W61609  36.030  37.910  13.039
 2173W        W61610  37.882   4.320  14.411
 2174W        W61611  38.450   7.342  14.782
 2175W        W61612  37.364  23.656  14.338
 2176W        W61613  26.975  34.426  11.978
 2177W        W61614  16.668   6.375   3.293
 2178W        W61615  25.045  43.773   4.692
 2179W        W61616   3.831  24.619  13.815
 2180W        W61617  39.470  41.419  10.450
 2181W        W61618   8.209  35.014   4.667
 2182W        W61619  21.129  10.325   2.231
 2183W        W61620  38.006  39.449   4.332
 2184W        W61621  43.769   9.210   3.836
 2185W        W61622  23.142  26.484  12.925
 2186W        W61623  17.680  28.618   3.824
 2187W        W61624   7.757  41.368   4.716
 2188W        W61625  43.909  25.631  13.804
 2189W        W61626   5.411   4.268  11.089
 2190W        W61627  26.643  39.936   5.226
 2191W        W61628  17.613  29.643  12.445
 2192W        W61629  21.581  26.032  13.407
 2193W        W61630   8.218  11.132  13.520
 2194W        W61631   6.315  32.132   2.841
 2195W        W61632  22.740  39.853   9.963
 2196W        W61633   3.373  23.989  12.412
 2197W        W61634   6.228  22.024   2.722
 2198W        W61635   6.756  14.807   3.690
 2199W        W61636  41.808  10.744   2.302
 2200W        W61637   1.884  16.302  13.429
 2201W        W61638  23.047  43.780  14.362
 2202W        W61639  42.286  14.788   2.203
 2203W        W61640  33.084  21.262  11.881
 2204W        W61641   2.909  25.595  13.488
 2205W        W61642  12.177  30.943  14.408
 2206W        W61643  42.369  44.936  14.410
 2207W        W61644  14.753  34.041   3.332
 2208W        W61645  15.179  21.029  11.461
 2209W        W61646  25.146   5.915  13.960
 2210W        W61647  33.613  40.907  10.997
 2211W        W61648  33.480   1.458   2.291
 2212W        W61649  23.647  42.418  13.975
 2213W        W61650  26.050  30.918   1.275
 2214W        W61651  23.005   5.690   2.384
 2215W        W61652  29.036  11.134   4.343
 2216W        W61653  30.570   6.806  10.412
 2217W        W61654  21.603   9.826   1.701
 2218W        W61655  29.473  10.178  12.907
 2219W        W61656  40.930  35.471   4.665
 2220W        W61657   2.394  29.954  13.985
 2221W        W61658  12.358  18.190   3.344
 2222W        W61659  35.994  11.181   3.848
 2223W        W61660  43.275  27.953   0.467
 2224W        W61661  17.212   8.332   1.822
 2225W        W61662  18.167   3.808  13.376
 2226W        W61663  39.830   9.237   4.760
 2227W        W61664   6.833  28.491  14.322
 2228W        W61665   9.282   4.713   0.751
 2229W        W61666  12.162  32.903  11.910
 2230W        W61667  40.044  43.284  13.519
 2231W        W61668   2.245  42.807   4.664
 2232W        W61669  27.452  16.162   2.879
 2233W        W61670  14.774  12.778  11.507
 2234W        W61671  26.019  16.783   4.194
 2235W        W61672  28.056  15.793  13.514
 2236W        W61673  40.388  42.898   2.382
 2237W        W61674  14.789  42.937   3.259
 2238W        W61675  17.782  13.610  12.360
 2239W        W61676  37.460  37.566   5.137
 2240W        W61677  41.880   2.857   0.802
 2241W        W61678  21.568  23.608   2.798
 2242W        W61679  38.970  30.442  14.304
 2243W        W61680  31.437  37.380  12.938
 2244W        W61681   1.931   1.810   3.707
 2245W        W61682  16.602  26.526   2.259
 2246W        W61683  21.063  38.995   3.223
 2247W        W61684  43.897  44.996  10.996
 2248W        W61685   9.225  10.752   2.246
 2249W        W61686   7.774  32.136   1.352
 2250W        W61687  18.253  34.484   3.344
 2251W        W61688  42.371  15.710  10.428
 2252W        W61689  39.558  42.851  12.540
 2253W        W61690  28.028  22.125   2.733
 2254W        W61691  36.894  13.785  12.444
 2255W        W61692  11.162  42.921  12.023
 2256W        W61693  43.484  22.183   4.234
 2257W        W61694   5.369  10.332   4.132
 2258W        W61695  44.297  32.576   3.713
 2259W        W61696  38.970  41.407   4.258
 2260W        W61697  32.435  34.999   4.777
 2261W        W61698  36.366  37.085   1.919
 2262W        W61699  23.100  25.206  12.866
 2263W        W61700  42.863   6.747   2.287
 2264W        W61701  30.059  31.519   4.756
 2265W        W61702  17.170   4.698   0.808
 2266W        W61703   0.270  12.641  12.088
 2267W        W61704   8.762  29.141   0.302
 2268W        W61705  40.472  17.120  10.601
 2269W        W61706  39.892   2.302  11.486
 2270W        W61707  26.141  43.016  10.934
 2271W        W61708   0.268  38.504   0.364
 2272W        W61709  28.162   3.933  10.568
 2273W        W61710  30.032  10.706  13.889
 2274W        W61711   6.872  35.572   1.216
 2275W        W61712  28.062   0.855   1.714
 2276W        W61713  34.560   0.448  13.810
 2277W        W61714  28.114  16.167   4.127
 2278W        W61715  32.460  19.534   4.671
 2279W        W61716  26.482  38.345  11.939
 2280W        W61717  28.992  15.782   2.839
 2281W        W61718  27.992  34.529  10.140
 2282W        W61719  12.706  18.283  13.028
 2283W        W61720  14.690  20.701   0.397
 2284W        W61721  21.210  18.271  14.985
 2285W        W61722  36.527  39.339   4.642
 2286W        W61723  25.012  22.683  13.401
 2287W        W61724  42.001  29.457   2.392
 2288W        W61725  19.633  11.790  11.868
 2289W        W61726  42.933  19.557  10.149
 2290W        W61727  26.105  34.909  14.763
 2291W        W61728   6.852  14.186   0.833
 2292W        W61729   7.809  14.194   2.802
 2293W        W61730  20.110   3.294   1.775
 2294W        W61731  20.055   6.236   1.759
 2295W        W61732  24.059  20.759  11.373
 2296W        W61733  12.317  27.564  11.991
 2297W        W61734  10.153  15.614  11.010
 2298W        W61735  31.603  23.608   1.300
 2299W        W61736  23.061  13.348   3.207
 2300W        W61737  10.632  20.760   0.448
 2301W        W61738  31.616  27.127   0.821
 2302W        W61739  11.624   7.237  11.062
 2303W        W61740  42.896  43.001   1.266
 2304W        W61741  36.566  26.989  10.975
 2305W        W61742  21.613  39.499   0.893
 2306W        W61743  25.149  29.974   4.349
 2307W        W61744  39.540  40.368  14.950
 2308W        W61745  20.698  22.684   3.857
 2309W        W61746  34.486  34.430   0.429
 2310W        W61747  37.575  25.083  12.550
 2311W        W61748  12.152  33.546   4.160
 2312W        W61749  32.607  37.949   5.285
 2313W        W61750  36.550  37.969  14.327
 2314W        W61751  27.025  26.665   4.259
 2315W        W61752  14.783   7.735   1.312
 2316W        W61753  30.133  41.340   3.808
 2317W        W61754  30.436   4.322   3.363
 2318W        W61755  27.018  39.987   2.837
 2319W        W61756  17.212  26.564  12.343
 2320W        W61757  11.279  18.577  10.404
 2321W        W61758  30.427   0.420   2.223
 2322W        W61759  32.409  14.830   2.234
 2323W        W61760  11.774   1.251   2.816
 2324W        W61761  16.252  38.872   9.483
 2325W        W61762   7.703  44.425  10.960
 2326W        W61763  23.088   2.352  13.398
 2327W        W61764  21.604  33.481  13.892
 2328W        W61765   9.838   6.829  14.331
 2329W        W61766  31.901  42.856  11.942
 2330W        W61767   3.882   3.258   3.736
 2331W        W61768  21.743  15.789   3.279
 2332W        W61769  29.474  40.055   3.791
 2333W        W61770  22.249  20.066   0.825
 2334W        W61771  37.412  13.326   0.735
 2335W        W61772   9.707   8.706   2.781
 2336W        W61773  16.262  34.927   1.700
 2337W        W61774   9.198  38.440  13.846
 2338W        W61775  12.265  43.381  14.309
 2339W        W61776  20.638  20.731   1.830
 2340W        W61777  41.491   1.473  11.949
 2341W        W61778  15.253   1.330  11.878
 2342W        W61779   2.240  17.629  11.387
 2343W        W61780  34.085   1.816  10.463
 2344W        W61781   0.831  30.912  12.987
 2345W        W61782  20.553  13.780   1.784
 2346W        W61783  11.757   3.450   3.361
 2347W        W61784  31.415  15.729   0.947
 2348W        W61785  23.185  10.776  13.875
 2349W        W61786   0.754  28.460  13.850
 2350W        W61787  36.520  40.464   5.164
 2351W        W61788   4.931   3.897   4.137
 2352W        W61789  37.445   2.376   2.666
 2353W        W61790  36.589   4.815   3.266
 2354W        W61791  38.530  26.638   2.390
 2355W        W61792  25.642   3.767  13.542
 2356W        W61793   7.211  21.065  11.950
 2357W        W61794  17.577  12.328  11.470
 2358W        W61795  42.850  10.711   4.174
 2359W        W61796  12.302   0.969   0.475
 2360W        W61797   0.764  20.169  10.075
 2361W        W61798  25.680  29.986   2.308
 2362W        W61799  10.305  17.091   4.140
 2363W        W61800  32.996  37.020   0.812
 2364W        W61801  14.829  29.502   0.300
 2365W        W61802  22.088  36.365  13.425
 2366W        W61803   1.826  42.883  12.533
 2367W        W61804  43.805  24.496   1.935
 2368W        W61805   6.883  10.281  10.533
 2369W        W61806  11.744  37.456   5.154
 2370W        W61807  19.537  19.742   1.758
 2371W        W61808  25.556  20.576  12.455
 2372W        W61809  38.388  20.735  11.069
 2373W        W61810  27.972  40.338  12.384
 2374W        W61811  40.310   0.965   1.779
 2375W        W61812  43.333  19.059   4.804
 2376W        W61813  30.449  43.358  13.002
 2377W        W61814  28.088   6.247  14.829
 2378W        W61815   9.332  11.753  11.959
 2379W        W61816  12.293  36.461   0.242
 2380W        W61817   3.817  12.652   1.719
 2381W        W61818  43.914  15.244  13.415
 2382W        W61819  30.120  21.676  11.517
 2383W        W61820  16.797  26.997   2.808
 2384W        W61821  31.058  19.057  13.418
 2385W        W61822  17.778  30.040  13.794
 2386W        W61823  23.237  38.002  14.385
 2387W        W61824  11.137  18.595  11.457
 2388W        W61825   2.428  43.469   4.674
 2389W        W61826   1.844  32.481   3.869
 2390W        W61827  17.677  13.191   0.409
 2391W        W61828  26.083  19.197   2.699
 2392W        W61829  26.077  41.853   4.179
 2393W        W61830   6.296  35.542  11.518
 2394W        W61831  17.106  10.698   4.210
 2395W        W61832  34.611  40.910   0.388
 2396W        W61833  22.094  20.587   9.953
 2397W        W61834  36.066  38.422  12.378
 2398W        W61835   4.270   9.756   0.935
 2399W        W61836  27.616   9.709  14.792
 2400W        W61837  36.569  16.788   4.186
 2401W        W61838  42.982  37.545  14.410
 2402W        W61839  18.232  29.041  12.406
 2403W        W61840  12.729  31.575   4.295
 2404W        W61841  44.769  33.528  10.622
 2405W        W61842  17.613  17.752  12.937
 2406W        W61843  22.542  16.182   9.942
 2407W        W61844  43.371  40.835   0.789
 2408W        W61845  26.547  13.148   4.322
 2409W        W61846  42.325  28.025   2.745
 2410W        W61847   1.744  43.954   0.406
 2411W        W61848  30.006  43.839   4.683
 2412W        W61849  17.787   5.367   2.180
 2413W        W61850  42.399  19.254  10.988
 2414W        W61851  26.502  14.720   1.375
 2415W        W61852  20.061  17.155   2.744
 2416W        W61853  11.675  22.539   5.268
 2417W        W61854  27.515   8.820  14.441
 2418W        W61855  38.333  30.606  12.969
 2419W        W61856   6.859  18.168  13.535
 2420W        W61857   6.359   7.717  13.964
 2421W        W61858  41.895  21.037  14.464
 2422W        W61859  11.696  28.072  13.937
 2423W        W61860  35.934  26.638   1.884
 2424W        W61861  36.408  36.004  11.603
 2425W        W61862  43.824  44.003  14.366
 2426W        W61863  15.615  27.122  12.384
 2427W        W61864   9.832  14.305  10.962
 2428W        W61865  37.062   5.724   2.767
 2429W        W61866  38.568   3.933  14.285
 2430W        W61867  14.177   9.240  12.463
 2431W        W61868  20.049  34.485   4.301
 2432W        W61869  38.823  15.802   4.214
 2433W        W61870   9.754   8.681  12.941
 2434W        W61871   3.224  17.061   0.733
 2435W        W61872   0.275  20.745   1.246
 2436W        W61873  18.213   1.370   3.262
 2437W        W61874   5.761  27.065  14.867
 2438W        W61875  14.308  23.644   4.698
 2439W        W61876  38.875  40.407  12.470
 2440W        W61877   4.442  38.407  14.362
 2441W        W61878  41.433  41.799  10.644
 2442W        W61879  36.585  15.628  12.994
 2443W        W61880  18.209   7.239   3.213
 2444W        W61881  23.502  42.796  11.055
 2445W        W61882  40.442  38.327   2.263
 2446W        W61883  40.855  11.347  12.901
 2447W        W61884  20.245  27.948   3.855
 2448W        W61885  30.069  18.094  10.484
 2449W        W61886  44.888   0.846   3.209
 2450W        W61887  20.249  28.096  12.370
 2451W        W61888  22.159  17.582  10.081
 2452W        W61889  21.740   9.150   0.732
 2453W        W61890  37.835  35.388   2.674
 2454W        W61891  23.583   9.221  11.598
 2455W        W61892   7.222   1.433  12.879
 2456W        W61893  14.707  22.215  11.938
 2457W        W61894  22.727  33.502  12.049
 2458W        W61895  19.605  42.483  13.944
 2459W        W61896   4.288  35.386   0.901
 2460W        W61897  10.772   2.391  12.830
 2461W        W61898  12.183   3.405   0.262
 2462W        W61899   0.780  24.649  12.047
 2463W        W61900  17.128   0.250  10.527
 2464W        W61901  36.001   5.277   4.649
 2465W        W61902  43.896  42.912   1.388
 2466W        W61903  25.610  30.049   4.693
 2467W        W61904  17.592   8.309  14.281
 2468W        W61905   9.216  26.547  11.062
 2469W        W61906  27.995  24.194   2.742
 2470W        W61907   1.921  11.742   3.767
 2471W        W61908  30.547  42.854   4.345
 2472W        W61909  18.725  41.877  11.929
 2473W        W61910  26.094  27.639  14.321
 2474W        W61911  20.639  35.531  11.875
 2475W        W61912  33.915   0.288   4.782
 2476W        W61913  43.814  33.529   0.889
 2477W        W61914  39.442   1.405  14.869
 2478W        W61915  13.709   1.744  11.553
 2479W        W61916  10.838  43.362   2.834
 2480W        W61917  42.501  32.016   1.447
 2481W        W61918  16.704  38.894  10.944
 2482W        W61919  24.568  36.455   1.825
 2483W        W61920  37.939  23.217  11.521
 2484W        W61921  11.679  19.540   3.208
 2485W        W61922   2.250  44.980  11.913
 2486W        W61923   7.236  39.986  11.914
 2487W        W61924  38.390  39.500  14.278
 2488W        W61925   2.455  23.204  10.956
 2489W        W61926  21.258  21.612  14.839
 2490W        W61927  29.531  39.829   5.290
 2491W        W61928   6.816   3.741   4.700
 2492W        W61929  25.476   3.786  11.886
 2493W        W61930  17.236  18.597  11.897
 2494W        W61931   6.685  20.066  11.911
 2495W        W61932  27.570  44.433  14.311
 2496W        W61933  34.556  13.705  11.917
 2497W        W61934  16.646  28.041  10.915
 2498W        W61935   8.197  33.554   2.409
 2499W        W61936  37.443   9.655  13.493
 2500W        W61937  28.462   5.396   0.263
 2501W        W61938  19.232  17.178   4.792
 2502W        W61939  39.510   2.451   0.906
 2503W        W61940  13.166  26.558  13.355
 2504W        W61941  10.635  40.026   2.278
 2505W        W61942  24.672  18.737   1.905
 2506W        W61943  14.607  40.862   1.846
 2507W        W61944  41.870   1.917   0.342
 2508W        W61945  24.229  26.197   3.849
 2509W        W61946   7.847  16.729   2.378
 2510W        W61947  13.286  18.594  14.782
 2511W        W61948   1.787   3.252  11.508
 2512W        W61949   2.339   0.472  13.323
 2513W        W61950  14.206  28.938   3.745
 2514W        W61951  22.076  41.304  14.882
 2515W        W61952  15.090  17.275  10.939
 2516W        W61953  23.204  14.660   4.707
 2517W        W61954  22.637   2.432   3.312
 2518W        W61955  24.013  32.909  12.894
 2519W        W61956  36.488  20.737  14.475
 2520W        W61957  29.949  36.448  10.904
 2521W        W61958   7.723  40.933  11.982
 2522W        W61959  31.984  43.458   3.745
 2523W        W61960  24.092  14.733  13.520
 2524W        W61961  24.111  41.499   2.820
 2525W        W61962  19.103  42.463   2.768
 2526W        W61963  24.082  37.425   3.373
 2527W        W61964  24.722  12.857   3.375
 2528W        W61965   3.838   3.730   2.318
 2529W        W61966  25.099  28.972   0.801
 2530W        W61967  38.388   6.219  12.831
 2531W        W61968  11.370  30.541  11.526
 2532W        W61969   3.359  26.027   9.451
 2533W        W61970  36.359   6.398   3.360
 2534W        W61971  16.620  14.173  14.847
 2535W        W61972  18.231  18.147   2.677
 2536W        W61973  19.538  10.825  11.987
 2537W        W61974  20.668  35.559  11.458
 2538W        W61975  35.527   9.784   3.774
 2539W        W61976  25.056  28.098   0.482
 2540W        W61977  16.140  13.299   0.781
 2541W        W61978  29.166   3.355  11.568
 2542W        W61979  11.795   0.904  12.870
 2543W        W61980  39.063  20.710   2.308
 2544W        W61981  39.046   2.735  11.011
 2545W        W61982   6.211   1.937  14.513
 2546W        W61983  35.463  24.568   4.713
 2547W        W61984  17.599   2.465   2.200
 2548W        W61985   2.461   1.437   3.355
 2549W        W61986  39.329  23.021   0.425
 2550W        W61987  29.095  21.612   1.319
 2551W        W61988  14.120  18.727   3.796
 2552W        W61989  14.717  23.056  12.829
 2553W        W61990  30.627  36.477  13.896
 2554W        W61991  38.492  19.773  12.352
 2555W        W61992  37.846   6.248   2.731
 2556W        W61993   5.751   2.466   2.213
 2557W        W61994  35.078  38.474  13.504
 2558W        W61995   8.234  44.317  14.897
 2559W        W61996  26.517  32.445  12.410
 2560W        W61997   5.226   0.752   2.341
 2561W        W61998  36.068  32.954   2.894
 2562W        W61999  23.017   9.395  13.885
 2563W        W62000  26.187  34.373  12.472
 2564W        W62001  22.028  43.929   2.295
 2565W        W62002  23.056  16.158   2.286
 2566W        W62003  37.439  27.034  13.387
 2567W        W62004   2.726   5.797  11.417
 2568W        W62005   5.709   9.194  13.803
 2569W        W62006   9.768  18.601  12.531
 2570W        W62007  37.038  22.094   3.679
 2571W        W62008  19.590  20.629  13.046
 2572W        W62009  38.419  33.425   2.374
 2573W        W62010   5.424  32.571   1.386
 2574W        W62011  43.873  22.236   0.899
 2575W        W62012  34.981  28.505  14.467
 2576W        W62013   7.687   7.398  14.985
 2577W        W62014   4.217  24.714   1.846
 2578W        W62015  30.583  40.818  11.954
 2579W        W62016  44.841  40.458  11.892
 2580W        W62017  19.060  25.083  11.540
 2581W        W62018  39.051  32.065   4.763
 2582W        W62019  32.043  20.756   2.255
 2583W        W62020  33.882  24.492   5.211
 2584W        W62021   6.340  15.704  13.999
 2585W        W62022  27.024  20.626  14.500
 2586W        W62023  13.149  40.386   2.689
 2587W        W62024  27.592  10.335   1.841
 2588W        W62025  24.618  26.029   3.851
 2589W        W62026  28.440  41.398  10.990
 2590W        W62027  27.069  10.215   2.731
 2591W        W62028  21.666   4.423   1.430
 2592W        W62029  38.016  34.544   4.676
 2593W        W62030   8.803  28.469   1.246
 2594W        W62031  15.101  16.697   1.796
 2595W        W62032  21.728  11.320   1.767
 2596W        W62033  19.640  30.564  12.095
 2597W        W62034  19.178  42.030   0.753
 2598W        W62035  20.043  18.744  13.885
 2599W        W62036  14.182  38.067  14.477
 2600W        W62037  21.560   7.191   5.107
 2601W        W62038  12.708   7.218   3.719
 2602W        W62039  17.150  14.201   9.923
 2603W        W62040  18.223  29.126  10.464
 2604W        W62041  10.834  14.205   3.209
 2605W        W62042  39.893  20.119  13.989
 2606W        W62043  14.136  19.279   4.838
 2607W        W62044   8.793   7.399  14.779
 2608W        W62045  21.720  20.720   1.738
 2609W        W62046  34.105  12.716   0.250
 2610W        W62047  20.051  38.917  10.008
 2611W        W62048  13.602  23.037   3.701
 2612W        W62049   9.835  25.169   1.402
 2613W        W62050   3.277  23.122   1.772
 2614W        W62051  31.431  35.981   1.828
 2615W        W62052   0.795  42.993  13.993
 2616W        W62053  24.525   3.391  11.129
 2617W        W62054  43.385  27.521   3.335
 2618W        W62055  36.430  36.513   1.211
 2619W        W62056  24.597   0.968   2.761
 2620W        W62057  14.692   4.266  13.957
 2621W        W62058  44.322  41.018   3.337
 2622W        W62059  30.103   4.811   1.437
 2623W        W62060  24.035  40.926  12.073
 2624W        W62061  25.639  20.146  11.572
 2625W        W62062  25.020  25.150   4.221
 2626W        W62063  27.175  23.580   5.132
 2627W        W62064  13.342  34.099   3.339
 2628W        W62065  42.287  39.046  11.381
 2629W        W62066  12.361  32.045   2.201
 2630W        W62067  26.657  39.811   2.750
 2631W        W62068  18.563  26.032  14.342
 2632W        W62069  40.930  29.991   4.193
 2633W        W62070  40.404   2.274  11.051
 2634W        W62071   7.319   0.479   3.636
 2635W        W62072   4.242  43.870   0.910
 2636W        W62073  42.280  14.333   0.935
 2637W        W62074   0.836  25.043   4.625
 2638W        W62075  18.729  40.915  10.937
 2639W        W62076  16.736  31.502   1.860
 2640W        W62077  22.521  32.087  13.051
 2641W        W62078  32.954  24.035   3.657
 2642W        W62079  37.060   9.885   4.725
 2643W        W62080   3.310  44.283   2.890
 2644W        W62081  27.617  10.355  10.638
 2645W        W62082  23.196   9.777   2.250
 2646W        W62083   8.193  26.954   9.533
 2647W        W62084  13.770  13.275  12.934
 2648W        W62085  24.064  19.048  14.783
 2649W        W62086  23.670  37.867   0.251
 2650W        W62087   1.945  33.538   0.440
 2651W        W62088   1.312  12.718   1.924
 2652W        W62089  43.351  11.646  14.992
 2653W        W62090  16.289   6.770   4.652
 2654W        W62091  23.527   7.255  11.022
 2655W        W62092  42.480  26.477  13.962
 2656W        W62093  14.136   8.285  14.466
 2657W        W62094  17.270  30.607  14.328
 2658W        W62095  36.587  43.811  11.412
 2659W        W62096  38.918  10.220   5.107
 2660W        W62097  12.227  19.626  11.428
 2661W        W62098   9.381  25.053   0.420
 2662W        W62099   6.234   2.378   3.226
 2663W        W62100  13.340  16.566  12.394
 2664W        W62101  35.035   7.268  13.800
 2665W        W62102  29.081   3.884   1.778
 2666W        W62103  25.149  30.052  11.999
 2667W        W62104  12.775  42.364  13.440
 2668W        W62105   1.299  21.212  11.995
 2669W        W62106  11.667  27.579   0.391
 2670W        W62107  37.471  12.266   2.391
 2671W        W62108  17.165  25.516  11.915
 2672W        W62109  30.596   5.896   1.273
 2673W        W62110  14.635  29.620   4.815
 2674W        W62111  44.010  35.082   9.674
 2675W        W62112   9.734  31.133  13.527
 2676W        W62113  34.466  32.069  10.522
 2677W        W62114  34.596  22.694   0.780
 2678W        W62115   9.825   7.881  13.813
 2679W        W62116   4.401  35.572   3.381
 2680W        W62117   2.807  39.496   2.353
 2681W        W62118  14.819  40.944  14.452
 2682W        W62119  38.521   6.681   3.734
 2683W        W62120   2.838  38.494  10.552
 2684W        W62121  42.470  22.532  10.977
 2685W        W62122  12.841   0.911   0.285
 2686W        W62123  37.441  25.208  12.990
 2687W        W62124  12.147  17.235   2.316
 2688W        W62125  33.527  26.069   4.618
 2689W        W62126  28.554  38.562  12.568
 2690W        W62127  41.422  31.435   0.258
 2691W        W62128  22.562  12.717  10.632
 2692W        W62129  38.976  11.710  11.602
 2693W        W62130   9.661   5.353   1.211
 2694W        W62131  15.141   8.845   5.237
 2695W        W62132  21.561  39.832  12.903
 2696W        W62133  40.460   8.283  13.329
 2697W        W62134  33.127  27.944   4.643
 2698W        W62135  12.630  35.079  10.589
 2699W        W62136  17.109  42.908   2.829
 2700W        W62137  23.616  19.777  14.914
 2701W        W62138  11.800  36.424   1.266
 2702W        W62139   9.152  42.882   3.778
 2703W        W62140  27.136  27.482  11.581
 2704W        W62141  42.341   6.826   1.444
 2705W        W62142   7.369  22.612  10.419
 2706W        W62143  36.516   7.906  13.869
 2707W        W62144  39.527  39.886   3.216
 2708W        W62145  24.628  42.360  14.807
 2709W        W62146  27.161   2.249   1.244
 2710W        W62147  22.506   3.384  11.435
 2711W        W62148   3.919  18.571  11.051
 2712W        W62149   9.171  30.979  11.576
 2713W        W62150  35.520  32.991  10.995
 2714W        W62151  37.499   9.674   3.346
 2715W        W62152  36.923  12.649   2.188
 2716W        W62153  13.842  16.653   2.279
 2717W        W62154  24.070   1.409  11.446
 2718W        W62155  38.882  37.341  13.441
 2719W        W62156  17.123  42.332  11.406
 2720W        W62157   4.911  23.510  12.547
 2721W        W62158  36.500   2.957  10.972
 2722W        W62159  22.663  24.717  12.440
 2723W        W62160  31.085  38.437   1.709
 2724W        W62161  43.502  21.183   0.372
 2725W        W62162  14.241  25.122   2.256
 2726W        W62163  21.576  34.608  13.944
 2727W        W62164  26.628  21.183  11.410
 2728W        W62165  44.859  23.063   1.896
 2729W        W62166  40.971  37.439   5.253
 2730W        W62167  29.937  15.675  13.307
 2731W        W62168  41.380  12.629  11.520
 2732W        W62169   8.238  14.710  14.870
 2733W        W62170  15.659  22.171   0.867
 2734W        W62171  33.980  40.517   2.742
 2735W        W62172  25.204   9.680  12.529
 2736W        W62173  13.310   1.760  11.931
 2737W        W62174  37.832  10.322  11.434
 2738W        W62175   8.203  43.917  12.552
 2739W        W62176  34.871  35.574  10.606
 2740W        W62177   8.209  41.437  12.391
 2741W        W62178  28.635  32.905  12.830
 2742W        W62179  23.172  13.805   0.369
 2743W        W62180  22.034  30.139  13.023
 2744W        W62181  16.088  15.806  11.938
 2745W        W62182  18.243  41.812  12.488
 2746W        W62183  32.139  11.140  11.568
 2747W        W62184  29.617  19.705  11.067
 2748W        W62185  11.347  36.981   4.699
 2749W        W62186   7.289  41.953   4.694
 2750W        W62187  20.029   6.704   3.753
 2751W        W62188  12.711  19.285  11.859
 2752W        W62189  12.325  20.729  13.381
 2753W        W62190  14.797  10.162  13.924
 2754W        W62191   8.270   0.852   2.238
 2755W        W62192   1.308  40.511  13.496
 2756W        W62193   1.735  31.547  10.643
 2757W        W62194  38.532  22.195  14.349
 2758W        W62195  43.484   5.752   1.348
 2759W        W62196  10.685  38.939   2.692
 2760W        W62197  11.851  26.586   2.853
 2761W        W62198  10.859  30.980   3.862
 2762W        W62199  22.038  37.035   0.341
 2763W        W62200   4.876  18.664   0.391
 2764W        W62201  12.125  40.826   3.775
 2765W        W62202  14.789  14.109   2.665
 2766W        W62203   2.452  28.562   2.345
 2767W        W62204  21.592  40.547   1.331
 2768W        W62205   2.387   2.746  10.569
 2769W        W62206  40.415  23.147  13.907
 2770W        W62207  35.424  27.480   1.227
 2771W        W62208  44.970  31.059  11.486
 2772W        W62209  15.692  27.003   3.639
 2773W        W62210   3.931  34.566   2.877
 2774W        W62211  28.083  35.059   2.680
 2775W        W62212   3.888   1.741  11.023
 2776W        W62213  24.658  29.043  10.484
 2777W        W62214  14.323  19.070  10.974
 2778W        W62215  35.957  12.214  14.352
 2779W        W62216   8.216  13.256   4.236
 2780W        W62217  17.636   8.285   1.333
 2781W        W62218   6.369  16.670   3.148
 2782W        W62219   3.745   4.907  11.944
 2783W        W62220  34.443  26.033   1.919
 2784W        W62221  17.211   4.888   1.767
 2785W        W62222  42.001  34.902   1.801
 2786W        W62223  13.225  41.881  12.823
 2787W        W62224  26.167  28.959   1.220
 2788W        W62225  10.813   4.800  12.485
 2789W        W62226   2.449  37.455  14.875
 2790W        W62227   0.802  19.096   0.806
 2791W        W62228  27.000  22.541  11.952
 2792W        W62229  29.933  43.359   0.863
 2793W        W62230   3.234   2.463   4.613
 2794W        W62231  21.557  32.448   3.380
 2795W        W62232   4.442  32.055   3.324
 2796W        W62233  25.096  32.525   2.678
 2797W        W62234  39.056  23.556   9.928
 2798W        W62235  37.379  25.679   1.700
 2799W        W62236   8.176  35.024   1.719
 2800W        W62237  12.250  20.173  13.355
 2801W        W62238  28.998  16.225   1.896
 2802W        W62239  30.001  43.896   1.791
 2803W        W62240  18.608  12.217   2.826
 2804W        W62241  25.704  29.560  11.921
 2805W        W62242  23.025  21.237  10.921
 2806W        W62243  23.713   7.804   1.881
 2807W        W62244   2.746  41.851   0.798
 2808W        W62245  35.373  34.959   1.856
 2809W        W62246  25.481  17.065  13.974
 2810W        W62247  31.044  22.040   2.329
 2811W        W62248  39.972   5.389   1.297
 2812W        W62249  24.498  42.862  10.887
 2813W        W62250   7.339  36.093  13.409
 2814W        W62251  19.172  24.046  10.123
 2815W        W62252   0.474  34.909  11.443
 2816W        W62253  19.127  17.613  13.463
 2817W        W62254   0.982   3.459  11.506
 2818W        W62255   7.227  30.032   3.245
 2819W        W62256  38.347  32.562  13.492
 2820W        W62257  28.486   6.788   0.831
 2821W        W62258   5.367  13.158  14.327
 2822W        W62259  25.048  35.568   4.242
 2823W        W62260  19.159  43.429  13.333
 2824W        W62261   3.760  27.531   2.806
 2825W        W62262  10.196  25.601  11.086
 2826W        W62263   1.320  27.605   3.218
 2827W        W62264  10.289   4.719  11.559
 2828W        W62265  24.095  29.459  11.047
 2829W        W62266  38.867  14.146  12.528
 2830W        W62267  31.020  32.947   4.332
 2831W        W62268  35.882   6.919  13.820
 2832W        W62269  32.128  18.252   1.878
 2833W        W62270   6.754   3.837   4.201
 2834W        W62271   3.268  23.537   4.733
 2835W        W62272  31.098  34.517   3.815
 2836W        W62273  38.009   1.818   3.796
 2837W        W62274  35.882  22.232  11.529
 2838W        W62275  39.470  21.147  10.421
 2839W        W62276   9.811   6.281   1.427
 2840W        W62277  28.941  32.483   3.821
 2841W        W62278   8.327  34.110   2.398
 2842W        W62279  30.156   0.746  12.554
 2843W        W62280  11.719  32.470   3.739
 2844W        W62281  26.987  40.828  14.401
 2845W        W62282  19.154  27.112   1.803
 2846W        W62283  20.589   3.239  13.407
 2847W        W62284  14.222  10.271  12.947
 2848W        W62285  22.043   5.895  10.493
 2849W        W62286  40.975   9.879   4.808
 2850W        W62287  11.661  30.973  11.090
 2851W        W62288  29.953  16.606   2.764
 2852W        W62289  36.871  43.411  13.433
 2853W        W62290  44.405  18.648  14.340
 2854W        W62291  43.886  19.043  14.432
 2855W        W62292   8.675   3.893   3.176
 2856W        W62293   0.458   0.345  10.640
 2857W        W62294  32.582  32.016   2.346
 2858W        W62295  13.121   4.237  13.415
 2859W        W62296  13.701  19.090  10.940
 2860W        W62297   3.272  24.676  14.816
 2861W        W62298  22.108  42.806  10.965
 2862W        W62299   2.273  40.486  11.482
 2863W        W62300   0.748  34.059   1.867
 2864W        W62301  34.537  29.586  12.577
 2865W        W62302  13.147  40.865  14.444
 2866W        W62303  23.620  38.027  11.613
 2867W        W62304   6.241  40.873   4.724
 2868W        W62305   3.252  28.605   3.296
 2869W        W62306  43.481  43.909  11.063
 2870W        W62307   1.289  29.027   1.701
 2871W        W62308  23.219  42.306  10.415
 2872W        W62309  38.514  15.221  14.342
 2873W        W62310   7.672  14.706   3.313
 2874W        W62311  39.439  17.114   0.814
 2875W        W62312  12.183  33.563   0.917
 2876W        W62313  24.227   6.263   1.403
 2877W        W62314   1.424  12.156  13.002
 2878W        W62315  20.044  25.021   4.754
 2879W        W62316  12.729  32.442  13.313
 2880W        W62317  23.241  14.738  10.945
 2881W        W62318  32.918  38.533  12.861
 2882W        W62319  35.394  12.766  11.887
 2883W        W62320  40.852  29.591  11.612
 2884W        W62321  28.003  36.536  14.292
 2885W        W62322  42.313  27.144  13.478
 2886W        W62323   9.686  17.292   0.451
 2887W        W62324  27.152  25.586   2.356
 2888W        W62325   4.301   4.300   4.299
 2889W        W62326  17.196   9.392   0.297
 2890W        W62327  33.005  17.171  13.807
 2891W        W62328   7.868  37.357   5.301
 2892W        W62329  17.762  26.035  10.615
 2893W        W62330  33.420  32.023   2.185
 2894W        W62331  23.010  29.586   1.230
 2895W        W62332  23.178   8.197   4.835
 2896W        W62333  19.063  19.641   4.165
 2897W        W62334  12.764  39.876   5.103
 2898W        W62335  29.048  21.626   0.470
 2899W        W62336   1.854  19.702   3.161
 2900W        W62337  38.891  29.621   1.254
 2901W        W62338  32.622  12.698  13.396
 2902W        W62339  38.938  36.357   3.770
 2903W        W62340  37.370  18.791  13.974
 2904W        W62341  37.888  18.582  12.866
 2905W        W62342  37.843  30.116   0.742
 2906W        W62343  18.150  32.927   2.804
 2907W        W62344  29.588  37.450   0.419
 2908W        W62345  16.153  10.793   3.231
 2909W        W62346  12.661  11.233   2.228
 2910W        W62347   0.951  27.469   0.434
 2911W        W62348   5.843  43.323   3.320
 2912W        W62349  39.956  28.093  13.509
 2913W        W62350  34.542  28.048   0.427
 2914W        W62351   3.335  24.635  12.523
 2915W        W62352   7.780  17.273   3.719
 2916W        W62353  31.975  30.475  12.357
 2917W        W62354  42.519  22.737   2.198
 2918W        W62355  16.177  43.434   4.635
 2919W        W62356  30.606  39.998  12.873
 2920W        W62357  22.605  18.150   4.746
 2921W        W62358  28.938   8.300  14.351
 2922W        W62359   8.821   0.864   1.717
 2923W        W62360  19.598  16.807  11.885
 2924W        W62361  25.525  44.307  13.353
 2925W        W62362   8.251  13.743   2.718
 2926W        W62363   0.388  24.216   1.788
 2927W        W62364  36.072   3.948  13.848
 2928W        W62365  26.088  20.691   2.774
 2929W        W62366  33.900  14.313   4.306
 2930W        W62367  12.276  15.207  12.000
 2931W        W62368  40.824  25.012   0.891
 2932W        W62369  16.683  17.254  14.777
 2933W        W62370   9.744  42.287  12.540
 2934W        W62371  13.122  15.278   3.326
 2935W        W62372   1.837  37.937  11.001
 2936W        W62373   7.683   0.295  10.430
 2937W        W62374  41.444  33.577   1.449
 2938W        W62375  13.722  40.949   1.826
 2939W        W62376  16.643  37.084   3.327
 2940W        W62377  13.214  19.142  11.581
 2941W        W62378   5.858  36.386  10.526
 2942W        W62379  14.255   5.414   3.660
 2943W        W62380  42.781  15.587  13.499
 2944W        W62381   8.794   9.347   2.761
 2945W        W62382  38.362  16.673   2.869
 2946W        W62383  11.229  24.199  13.834
 2947W        W62384  20.747  18.283  10.461
 2948W        W62385  32.122  29.648  14.022
 2949W        W62386  20.703  40.306   3.759
 2950W        W62387   5.373  31.096  14.362
 2951W        W62388  44.305  22.062  13.057
 2952W        W62389  10.838  20.522  12.407
 2953W        W62390  25.962  35.042   0.782
 2954W        W62391   3.916   4.212   2.825
 2955W        W62392  23.700  37.542   4.350
 2956W        W62393  35.107  29.135   3.638
 2957W        W62394   8.847  16.747   3.749
 2958W        W62395  18.239  35.052   0.249
 2959W        W62396  42.363   1.468   2.289
 2960W        W62397  25.489  42.349   4.716
 2961W        W62398   5.910  42.511  12.558
 2962W        W62399   4.895  41.419   0.252
 2963W        W62400  16.752  37.911   2.364
 2964W        W62401  10.173  43.947  12.905
 2965W        W62402  22.670  11.686  13.045
 2966W        W62403  28.955  25.155  12.071
 2967W        W62404  28.673   6.211  12.923
 2968W        W62405  41.356  22.212   4.324
 2969W        W62406  22.112  20.183   5.139
 2970W        W62407  40.404  19.074   2.357
 2971W        W62408   8.724   9.324   2.244
 2972W        W62409  43.957  35.594  13.883
 2973W        W62410  30.086  16.612  11.017
 2974W        W62411  32.429   3.833   1.416
 2975W        W62412   5.388  35.472  11.409
 2976W        W62413  12.625  26.051  13.819
 2977W        W62414  27.634   1.916   3.240
 2978W        W62415   6.891  13.195   0.781
 2979W        W62416  30.436   2.886   4.166
 2980W        W62417  28.497   4.843  13.030
 2981W        W62418  24.579   7.233   1.410
 2982W        W62419  13.793  40.853  13.860
 2983W        W62420  40.336  23.183   4.275
 2984W        W62421  29.953  24.056   2.741
 2985W        W62422   1.468   3.240   1.828
 2986W        W62423  25.639  20.271   0.386
 2987W        W62424  18.217  37.569   4.296
 2988W        W62425  23.020  27.175   4.635
 2989W        W62426  30.006  44.890  13.880
 2990W        W62427  16.734   6.298  13.521
 2991W        W62428  22.722   5.297   0.382
 2992W        W62429  13.759  15.655   0.947
 2993W        W62430  20.069  27.548   3.263
 2994W        W62431  43.929  11.215   1.832
 2995W        W62432  18.059   4.785   0.473
 2996W        W62433  43.289  18.178   0.442
 2997W        W62434  38.977  11.207   1.232
 2998W        W62435  12.308  37.462  12.411
 2999W        W62436   2.299  42.481  12.367
 3000W        W62437  38.490   3.803   1.844
 3001W        W62438  39.480  20.123  11.939
 3002W        W62439  41.424   9.752   2.411
 3003W        W62440  26.191  16.717  14.440
 3004W        W62441  37.396  20.236   3.783
 3005W        W62442  39.889  23.106  14.970
 3006W        W62443  40.389  43.949   2.813
 3007W        W62444  43.439   9.330  12.012
 3008W        W62445  25.218  22.689  14.793
 3009W        W62446  24.989   0.281   1.921
 3010W        W62447  35.994  38.832  10.511
 3011W        W62448   9.726  31.098   0.956
 3012W        W62449   0.955  10.194  13.038
 3013W        W62450  22.075  29.066  13.465
 3014W        W62451  10.691  27.129   2.343
 3015W        W62452  41.319  13.256   3.649
 3016W        W62453  35.456  17.736  10.929
 3017W        W62454  17.763  20.762   1.708
 3018W        W62455  25.001   1.752   4.662
 3019W        W62456  26.104  29.988   0.901
 3020W        W62457  39.416  22.173  13.527
 3021W        W62458  44.298  10.278  12.569
 3022W        W62459  39.532   0.280  14.324
 3023W        W62460   7.897  26.494  12.949
 3024W        W62461  33.623  16.152  13.896
 3025W        W62462  28.617  39.942   9.566
 3026W        W62463  29.517  44.884   1.850
 3027W        W62464  38.874  44.271  12.396
 3028W        W62465   3.402  35.927   0.832
 3029W        W62466  15.101  33.554   3.241
 3030W        W62467   9.863   2.729   0.274
 3031W        W62468  37.474  27.024   2.272
 3032W        W62469   3.736  19.699   3.335
 3033W        W62470  33.019  27.499   1.247
 3034W        W62471  16.267  42.999  13.462
 3035W        W62472  25.137  12.272  11.856
 3036W        W62473   6.903   9.706   0.925
 3037W        W62474  34.891  21.601  15.000
 3038W        W62475  23.209   5.688  13.487
 3039W        W62476  42.359  20.239   1.423
 3040W        W62477   4.935   4.244  14.917
 3041W        W62478  32.131  31.642   0.871
 3042W        W62479  36.576  16.616   1.256
 3043W        W62480   6.280  19.065   0.739
 3044W        W62481  19.134  15.765   9.982
 3045W        W62482  38.903  31.035   4.821
 3046W        W62483   3.286  35.983  12.472
 3047W        W62484   0.493   7.304  11.007
 3048W        W62485  13.335  35.555   0.383
 3049W        W62486  16.114  21.667   1.868
 3050W        W62487  41.537  26.187  14.443
 3051W        W62488  12.244   2.751  14.374
 3052W        W62489  40.383  22.026  14.449
 3053W        W62490  30.424  40.325  12.009
 3054W        W62491  39.913   3.293   4.682
 3055W        W62492  24.553   7.852  12.461
 3056W        W62493  13.753   4.829   1.349
 3057W        W62494  25.675   6.304   1.829
 3058W        W62495   4.875  12.746  12.001
 3059W        W62496  25.600  29.161   1.216
 3060W        W62497  31.130  44.360   0.801
 3061W        W62498  23.196  24.560  12.549
 3062W        W62499  40.933  13.746  13.534
 3063W        W62500  26.026  11.333   2.852
 3064W        W62501  40.864  25.002   1.287
 3065W        W62502  11.722  42.780  13.857
 3066W        W62503  40.339  24.081  13.384
 3067W        W62504  16.155   2.803   4.128
 3068W        W62505  27.516  42.294   0.857
 3069W        W62506  26.592  40.421   1.342
 3070W        W62507  22.588   2.804  11.527
 3071W        W62508   3.934  25.061  14.821
 3072W        W62509  15.315  29.924   3.727
 3073W        W62510   2.404  41.842   1.730
 3074W        W62511  27.478  12.192   4.689
 3075W        W62512  35.499  24.995   1.861
 3076W        W62513  34.386  11.183  13.479
 3077W        W62514  26.669  31.583   2.303
 3078W        W62515  10.662  18.764   2.666
 3079W        W62516  41.318   6.292  14.792
 3080W        W62517  35.500  19.159   0.327
 3081W        W62518   7.346  27.532   3.702
 3082W        W62519  30.928   5.894   4.238
 3083W        W62520   6.685  28.536  12.561
 3084W        W62521  26.473  15.206   0.307
 3085W        W62522   0.882  21.693  14.933
 3086W        W62523  28.552  27.666   4.830
 3087W        W62524  14.721  19.243   0.887
 3088W        W62525  33.480  12.346   0.952
 3089W        W62526  12.145  13.295  12.948
 3090W        W62527  17.716  21.586   3.323
 3091W        W62528   8.406  21.602  14.793
 3092W        W62529  26.637   9.187   2.675
 3093W        W62530  17.192   0.989  12.463
 3094W        W62531  11.354   6.785  10.908
 3095W        W62532  28.561  36.959  14.888
 3096W        W62533   6.412  15.608  12.080
 3097W        W62534  22.731  20.601   5.710
 3098W        W62535  38.876   8.707   2.280
 3099W        W62536  18.619  13.827  11.468
 3100W        W62537  23.593  22.125   0.474
 3101W        W62538  34.885   4.788   4.746
 3102W        W62539   4.813  29.430  11.009
 3103W        W62540   3.458  44.271  14.890
 3104W        W62541  35.022  39.517  14.280
 3105W        W62542  19.186  30.632  12.861
 3106W        W62543  17.621  17.123   2.665
 3107W        W62544  35.442  43.861  14.455
 3108W        W62545  12.655  18.743  12.533
 3109W        W62546  44.967   2.784  13.463
 3110W        W62547  14.241  42.311   1.857
 3111W        W62548  33.534   1.828  13.859
 3112W        W62549  21.193  21.228   2.850
 3113W        W62550  15.194   0.399   4.741
 3114W        W62551   7.215  42.783   2.410
 3115W        W62552  35.525  22.555   2.224
 3116W        W62553  41.331  18.255  11.977
 3117W        W62554  16.761  30.651   2.340
 3118W        W62555   8.336  39.014   2.368
 3119W        W62556  30.976  29.973  12.952
 3120W        W62557  38.970  39.361   2.324
 3121W        W62558  35.563   3.430   1.838
 3122W        W62559  29.105  20.705   4.167
 3123W        W62560  40.401  32.463  14.865
 3124W        W62561  16.759  29.640   0.878
 3125W        W62562  41.018  34.532  12.398
 3126W        W62563  15.192  14.236   1.397
 3127W        W62564  13.664   9.278   3.683
 3128W        W62565  20.712  19.697  14.759
 3129W        W62566  28.445   9.348   4.837
 3130W        W62567  23.542  14.767  11.468
 3131W        W62568   9.866   0.343  12.528
 3132W        W62569  19.265  25.496  11.109
 3133W        W62570  43.445  17.164  10.964
 3134W        W62571  32.636  30.075   2.190
 3135W        W62572  28.935  36.523   4.279
 3136W        W62573  39.926  14.749  14.922
 3137W        W62574  30.134   0.763  14.979
 3138W        W62575   8.217  27.168  12.888
 3139W        W62576  13.744  38.529   0.825
 3140W        W62577  21.684   9.382  12.405
 3141W        W62578   1.415  31.526   0.268
 3142W        W62579  43.326  40.355  11.523
 3143W        W62580  33.408  34.437  11.380
 3144W        W62581   4.410  24.577  14.831
 3145W        W62582  38.461   3.455  11.995
 3146W        W62583  44.447   6.798   1.733
 3147W        W62584   9.666  39.809  12.924
 3148W        W62585  40.411  22.660   4.802
 3149W        W62586  34.886  17.584  11.439
 3150W        W62587  32.054  44.284  12.883
 3151W        W62588  12.127  40.444   3.183
 3152W        W62589  28.616  30.947   2.888
 3153W        W62590  18.729   1.253   4.701
 3154W        W62591  16.733  37.061  13.031
 3155W        W62592  43.999   6.334   2.360
 3156W        W62593  11.818  44.463  11.484
 3157W        W62594  28.131  43.355  12.426
 3158W        W62595  34.970   1.282  11.082
 3159W        W62596  34.913  10.753  12.061
 3160W        W62597   9.726  39.351   4.344
 3161W        W62598  34.540  14.715  14.970
 3162W        W62599  41.304  30.516  12.554
 3163W        W62600  40.405  33.012   1.210
 3164W        W62601   6.196  24.049   2.729
 3165W        W62602   7.671  25.156   4.646
 3166W        W62603  15.197  19.617  12.360
 3167W        W62604   7.734  43.297   0.912
 3168W        W62605  29.522  30.977   3.151
 3169W        W62606  41.014  26.127  12.011
 3170W        W62607   8.365   6.323  14.335
 3171W        W62608  26.555   2.723   4.314
 3172W        W62609  33.993  34.990   0.858
 3173W        W62610  19.100  25.158   3.258
 3174W        W62611  31.071   2.930   4.298
 3175W        W62612  33.100   1.774  13.022
 3176W        W62613  11.268   6.197  13.832
 3177W        W62614  39.059  40.835   2.313
 3178W        W62615  25.027   8.282   2.895
 3179W        W62616  36.563  42.926  10.920
 3180W        W62617  30.093  33.992   4.651
 3181W        W62618   6.832  44.995   2.767
 3182W        W62619   3.245   4.712  12.045
 3183W        W62620  27.663   1.237   3.257
 3184W        W62621  19.742  15.641  14.981
 3185W        W62622  15.765  35.453   3.828
 3186W        W62623  12.236  13.130  12.525
 3187W        W62624  39.389  28.083  14.934
 3188W        W62625  31.440  26.957   4.326
 3189W        W62626  42.884  44.419   0.287
 3190W        W62627  24.017   7.211   1.290
 3191W        W62628   1.846  33.889  11.088
 3192W        W62629  40.540  40.402   5.119
 3193W        W62630   1.460   3.788   1.382
 3194W        W62631   3.454  28.585  14.430
 3195W        W62632  39.045  37.440   2.366
 3196W        W62633  43.478  39.555  11.961
 3197W        W62634  39.314   6.769  10.489
 3198W        W62635   9.176  32.476  10.406
 3199W        W62636  41.836  24.530   0.932
 3200W        W62637   6.331  18.201  11.565
 3201W        W62638  31.983  41.015   1.382
 3202W        W62639  31.585  42.426   2.709
 3203W        W62640   8.252  34.944  11.399
 3204W        W62641  19.565  10.811  14.844
 3205W        W62642  23.015  32.586   3.333
 3206W        W62643   7.705   0.331   1.889
 3207W        W62644  27.463   1.760  10.911
 3208W        W62645  40.933  13.704  10.408
 3209W        W62646  41.015   5.816  11.942
 3210W        W62647  42.516  10.654  10.434
 3211W        W62648  12.773  30.129   4.162
 3212W        W62649  16.644  29.450  12.446
 3213W        W62650  38.515  41.381   1.902
 3214W        W62651   7.751   3.299  11.387
 3215W        W62652  42.398  43.795   1.410
 3216W        W62653  16.692  17.608   2.179
 3217W        W62654  26.652  35.963   0.261
 3218W        W62655   3.333  33.417   3.638
 3219W        W62656   1.311  34.064   3.245
 3220W        W62657  40.965  24.068  12.472
 3221W        W62658   4.884  12.754  13.899
 3222W        W62659  17.093  33.430   5.163
 3223W        W62660  33.101  23.195  11.879
 3224W        W62661   4.770  39.350  13.956
 3225W        W62662  36.438  35.895   0.403
 3226W        W62663  16.576   0.452   4.652
 3227W        W62664  18.735   1.944  10.407
 3228W        W62665  30.461  14.234  13.811
 3229W        W62666  23.073  22.696  13.005
 3230W        W62667   9.756   5.434   2.310
 3231W        W62668  27.559   6.191   0.843
 3232W        W62669  29.978  12.849   0.935
 3233W        W62670   6.684  10.805   1.230
 3234W        W62671  26.622   8.255   2.662
 3235W        W62672  32.537  19.563   0.268
 3236W        W62673  21.217   0.317  12.373
 3237W        W62674  39.337  37.454   3.318
 3238W        W62675  15.285  27.563   1.827
 3239W        W62676   7.253  22.107  12.569
 3240W        W62677  26.133  26.063  14.933
 3241W        W62678  19.720  44.946   0.917
 3242W        W62679   9.867  16.587  12.529
 3243W        W62680  20.547  40.906   3.636
 3244W        W62681  20.204  26.030  12.561
 3245W        W62682  11.319  38.956   3.351
 3246W        W62683  32.604  36.019  12.897
 3247W        W62684  17.730   3.336  10.425
 3248W        W62685  35.986  36.890   3.798
 3249W        W62686   6.720  12.361  13.533
 3250W        W62687  43.316   9.762   3.198
 3251W        W62688  36.964  29.605  12.353
 3252W        W62689  31.472  28.610   0.371
 3253W        W62690  32.523   5.719  13.796
 3254W        W62691  21.082  32.941   4.194
 3255W        W62692   5.914  16.590  11.056
 3256W        W62693   6.892  39.824  10.547
 3257W        W62694  28.095  40.355  11.942
 3258W        W62695  34.562  23.501  13.366
 3259W        W62696  14.293  36.514  11.951
 3260W        W62697  28.653   6.730  14.856
 3261W        W62698  35.558   6.731   0.733
 3262W        W62699  27.129  34.500  12.937
 3263W        W62700   0.279  22.190   1.282
 3264W        W62701  36.929   1.302   3.814
 3265W        W62702  35.380  32.427  13.930
 3266W        W62703  19.199  39.471  10.600
 3267W        W62704  22.702  42.987   2.195
 3268W        W62705   9.860   4.770  14.321
 3269W        W62706  19.142   2.758   0.352
 3270W        W62707  27.179  32.593   2.296
 3271W        W62708   5.331  30.147   1.329
 3272W        W62709  39.813   8.268  14.465
 3273W        W62710  13.817  19.658   0.916
 3274W        W62711  37.376  21.263   4.145
 3275W        W62712  13.152  44.428  10.410
 3276W        W62713  26.517  44.367   1.411
 3277W        W62714  21.064   4.355   4.789
 3278W        W62715  43.322   2.302   2.783
 3279W        W62716  11.173  15.813  14.362
 3280W        W62717  44.756  40.509   1.833
 3281W        W62718   9.358  29.030   2.366
 3282W        W62719  32.482   7.223  10.558
 3283W        W62720  22.717   7.387   2.369
 3284W        W62721   8.784  18.102  11.590
 3285W        W62722   9.735  36.854  13.824
 3286W        W62723  40.358   5.932  12.091
 3287W        W62724  35.443  39.932  14.393
 3288W        W62725  31.958  37.501  14.332
 3289W        W62726  33.466  44.472   0.812
 3290W        W62727  36.868  16.703  12.014
 3291W        W62728  29.601   0.448  14.447
 3292W        W62729  12.120  13.803   3.647
 3293W        W62730  21.529  26.080   3.314
 3294W        W62731  34.548  25.680  12.398
 3295W        W62732   4.892  11.659   2.737
 3296W        W62733  18.606   8.184   1.289
 3297W        W62734  20.656  44.420  10.631
 3298W        W62735   2.956  30.635   4.256
 3299W        W62736  28.641   7.390   0.733
 3300W        W62737  13.292  11.348  11.978
 3301W        W62738  10.138  11.163  10.520
 3302W        W62739  34.924  37.060  14.500
 3303W        W62740  38.358   6.247   2.240
 3304W        W62741  25.050   4.823  14.777
 3305W        W62742   3.793   7.181   4.621
 3306W        W62743  41.788  10.351  11.985
 3307W        W62744   8.385   9.260   0.447
 3308W        W62745  41.019  36.407  13.830
 3309W        W62746  43.841  11.170   2.798
 3310W        W62747  32.138  23.221   1.728
 3311W        W62748  37.846   4.367   4.204
 3312W        W62749  40.939  26.105   1.889
 3313W        W62750  37.344   2.925  14.846
 3314W        W62751  32.593  11.780  13.346
 3315W        W62752   7.265  27.100   2.350
 3316W        W62753   5.731  36.012  10.606
 3317W        W62754  11.344  10.688  14.797
 3318W        W62755  41.496  14.799   3.822
 3319W        W62756   0.316   2.750   3.282
 3320W        W62757   4.448   2.361   1.929
 3321W        W62758  10.349  27.097   3.203
 3322W        W62759  20.051  40.055  13.307
 3323W        W62760   0.745  19.679  11.067
 3324W        W62761  17.619  22.648   0.822
 3325W        W62762  27.648   5.359  14.791
 3326W        W62763  29.516   5.688  14.336
 3327W        W62764  19.124   0.929  14.839
 3328W        W62765  30.928  34.582  11.914
 3329W        W62766  31.108  27.038   2.418
 3330W        W62767  44.439   8.735   4.335
 3331W        W62768  16.144   7.226   2.200
 3332W        W62769  26.041  11.270  12.095
 3333W        W62770  37.030  16.200  11.603
 3334W        W62771  23.091  11.625   0.774
 3335W        W62772  23.523   9.838   0.771
 3336W        W62773  32.024  18.155   3.663
 3337W        W62774   0.960  20.138  10.898
 3338W        W62775  12.251  13.323   2.325
 3339W        W62776   2.748  16.150   4.182
 3340W        W62777  23.611  30.039   3.365
 3341W        W62778  28.439   5.834   1.863
 3342W        W62779  17.211   0.288   0.330
 3343W        W62780  13.202  19.622  14.502
 3344W        W62781  27.142   5.204  11.923
 3345W        W62782  18.206  38.928  10.544
 3346W        W62783  42.977  26.098  12.015
 3347W        W62784  12.182   4.449  12.433
 3348W        W62785  31.617  33.017  13.392
 3349W        W62786  37.012  38.395   3.271
 3350W        W62787  35.872  26.552   3.362
 3351W        W62788  19.278  30.645   3.689
 3352W        W62789  39.872  31.951   4.282
 3353W        W62790  14.753  25.201   9.974
 3354W        W62791  36.089  34.952  13.811
 3355W        W62792   7.353  36.448  12.932
 3356W        W62793  44.927   0.350  14.955
 3357W        W62794  26.597  34.058   4.759
 3358W        W62795  19.070  18.695  14.867
 3359W        W62796  10.244  40.037   9.945
 3360W        W62797  37.830  39.066  13.837
 3361W        W62798  12.786  19.136  14.924
 3362W        W62799   2.443  42.953   0.867
 3363W        W62800  35.059  38.894  13.471
 3364W        W62801   2.830  17.286   2.713
 3365W        W62802  36.960   7.899  11.443
 3366W        W62803  28.104  35.462  14.458
 3367W        W62804   6.920   7.887  11.445
 3368W        W62805  37.481   5.689  11.583
 3369W        W62806  41.418  14.756  11.857
 3370W        W62807  37.024  18.704  13.389
 3371W        W62808   9.722  24.657  11.084
 3372W        W62809  40.326   3.765  14.444
 3373W        W62810  39.053  30.604  13.826
 3374W        W62811  34.482   1.349  10.930
 3375W        W62812  16.597  18.054   2.899
 3376W        W62813  38.485  33.979  11.126
 3377W        W62814  38.566  13.845   0.836
 3378W        W62815  14.739   8.669   3.335
 3379W        W62816  43.842  21.187  14.881
 3380W        W62817  41.018  39.347   1.255
 3381W        W62818  31.629  40.989   2.359
 3382W        W62819  18.286  31.971   0.907
 3383W        W62820  26.032   7.395   1.272
 3384W        W62821  13.268  31.577  13.351
 3385W        W62822  40.372  18.741  14.499
 3386W        W62823  42.807   6.752  13.808
 3387W        W62824  36.559  38.997  10.989
 3388W        W62825  28.632   9.169   4.118
 3389W        W62826  41.940   5.209  10.620
 3390W        W62827  27.487   0.977   4.190
 3391W        W62828  43.425   8.710   0.824
 3392W        W62829  11.153  15.652  11.394
 3393W        W62830  22.090  34.877  12.514
 3394W        W62831  29.605  38.914   9.997
 3395W        W62832  13.128   7.383   1.757
 3396W        W62833  40.469  33.085  14.868
 3397W        W62834  18.149   8.407  11.903
 3398W        W62835  38.530  19.145  11.490
 3399W        W62836  34.571  34.080  11.010
 3400W        W62837  36.529  21.605   4.135
 3401W        W62838   0.354  29.647   0.889
 3402W        W62839  44.496  38.539   4.790
 3403W        W62840  11.305   0.836  10.963
 3404W        W62841  39.510   8.894   2.232
 3405W        W62842  12.296  38.944  11.535
 3406W        W62843   6.305  27.023   0.391
 3407W        W62844  23.558  40.524  11.926
 3408W        W62845  40.013  29.999   1.241
 3409W        W62846  44.993  18.102  11.517
 3410W        W62847  16.640  19.209   1.288
 3411W        W62848  16.207  20.562   0.450
 3412W        W62849  19.083  23.010  10.992
 3413W        W62850  19.565  42.838  10.942
 3414W        W62851  32.470  20.135   1.237
 3415W        W62852  28.174   2.336   4.308
 3416W        W62853  20.106   0.325  14.812
 3417W        W62854  28.498  42.416  12.942
 3418W        W62855  42.474  30.971   2.761
 3419W        W62856  10.191  33.496  10.532
 3420W        W62857  31.459  40.333   4.183
 3421W        W62858   5.398  35.423  13.497
 3422W        W62859  32.393  33.591  14.834
 3423W        W62860  24.975  28.585   2.229
 3424W        W62861   5.414   6.381   1.290
 3425W        W62862  42.519  35.861   1.746
 3426W        W62863  25.985  31.905   0.748
 3427W        W62864   6.411  37.490   3.799
 3428W        W62865  11.634  42.342   1.235
 3429W        W62866  41.873   2.720   4.704
 3430W        W62867  15.268  34.370   2.740
 3431W        W62868  40.513  31.491   2.849
 3432W        W62869  18.577   8.706   1.916
 3433W        W62870  21.171   9.179   1.379
 3434W        W62871  11.722  31.523  13.042
 3435W        W62872  42.862  22.599   0.302
 3436W        W62873  35.475  43.329   3.252
 3437W        W62874  26.688  32.457  14.941
 3438W        W62875  19.692  17.278  11.510
 3439W        W62876  25.136   4.315   4.347
 3440W        W62877  19.717  15.235  11.128
 3441W        W62878  22.103   5.228  13.948
 3442W        W62879   1.773  20.609  11.906
 3443W        W62880  21.048  24.491  12.053
 3444W        W62881   4.367   7.723  10.568
 3445W        W62882   7.737  14.827  14.003
 3446W        W62883  11.257  41.452   1.857
 3447W        W62884  18.220  23.027  10.950
 3448W        W62885  31.481  31.081  13.801
 3449W        W62886  15.728  43.012   1.413
 3450W        W62887   8.802  41.812  12.890
 3451W        W62888  40.871  13.329  11.374
 3452W        W62889  40.477  44.325  11.011
 3453W        W62890  20.663  22.076   2.343
 3454W        W62891  14.103  11.291  12.471
 3455W        W62892  35.435   4.347   3.194
 3456W        W62893  33.933   7.258   1.703
 3457W        W62894  10.177  36.037  13.392
 3458W        W62895  43.819  21.134   4.804
 3459W        W62896  21.034  36.464  11.422
 3460W        W62897  44.499  12.354   9.986
 3461W        W62898  15.137  15.581   2.842
 3462W        W62899  36.546  14.811   1.329
 3463W        W62900   8.688   5.813   0.247
 3464W        W62901  32.125  10.848  13.946
 3465W        W62902   4.251  41.906   1.328
 3466W        W62903  39.381   2.431   3.630
 3467W        W62904   0.284  41.297  13.873
 3468W        W62905   5.806  22.155  12.348
 3469W        W62906  20.760  24.056   2.823
 3470W        W62907   0.760   7.875  13.056
 3471W        W62908  41.924  27.174  12.019
 3472W        W62909  14.340  37.930   4.753
 3473W        W62910   8.732  10.658  12.032
 3474W        W62911  15.272  13.601   4.275
 3475W        W62912  10.811  10.273  10.078
 3476W        W62913  38.937  37.516  11.441
 3477W        W62914  11.218  30.591   4.341
 3478W        W62915  17.236  44.826  14.435
 3479W        W62916  20.180  17.215  14.935
 3480W        W62917  30.997  37.930   4.674
 3481W        W62918  32.628  36.351   4.299
 3482W        W62919  15.120  14.242  10.455
 3483W        W62920  22.666  42.408  14.933
 3484W        W62921   0.304  35.484   3.862
 3485W        W62922  40.834  11.309  12.389
 3486W        W62923  16.708  33.021  14.781
 3487W        W62924   1.421  17.263   4.222
 3488W        W62925   7.276   8.219   1.853
 3489W        W62926  31.908  13.762   5.190
 3490W        W62927   4.743  19.631  10.451
 3491W        W62928  30.005  18.161   1.391
 3492W        W62929  12.611  40.050   1.309
 3493W        W62930  15.221  35.551  12.548
 3494W        W62931  36.433  21.206   3.384
 3495W        W62932  39.331  42.868   4.600
 3496W        W62933   6.774  24.593   3.256
 3497W        W62934  39.980   2.864   1.772
 3498W        W62935   4.933  28.663   0.475
 3499W        W62936  22.622   2.265   3.867
 3500W        W62937   9.671  37.395   1.411
 3501W        W62938  20.125  14.768   1.827
 3502W        W62939  28.585  44.872   4.656
 3503W        W62940  20.162  29.517  12.526
 3504W        W62941  31.423   3.389   1.930
 3505W        W62942  17.677  44.415   5.289
 3506W        W62943  23.493   0.338  10.460
 3507W        W62944  41.976   7.216   3.313
 3508W        W62945   0.827  32.462  10.515
 3509W        W62946   4.306   1.401  14.999
 3510W        W62947  21.631  27.060  13.867
 3511W        W62948  32.026  40.455  14.986
 3512W        W62949  15.663  39.969   0.858
 3513W        W62950   6.214   3.744   9.994
 3514W        W62951  41.340   2.408   3.747
 3515W        W62952  44.815   3.293  13.858
 3516W        W62953  37.046  27.065  14.414
 3517W        W62954   4.430   8.830  12.975
 3518W        W62955   8.278  29.947  11.438
 3519W        W62956   1.372  44.410   4.277
 3520W        W62957  44.416  37.570  13.005
 3521W        W62958   3.769   7.894   0.460
 3522W        W62959  23.134  12.771  10.501
 3523W        W62960  16.679  26.083  11.509
 3524W        W62961  36.367   1.736  10.501
 3525W        W62962  17.292  10.362   0.401
 3526W        W62963  33.449  23.187  11.122
 3527W        W62964  26.673  17.715  12.531
 3528W        W62965  27.155  31.091   0.911
 3529W        W62966  14.278  44.461  11.558
 3530W        W62967  12.299  18.604  12.555
 3531W        W62968  23.143  18.779  12.525
 3532W        W62969   7.697  32.583  12.839
 3533W        W62970  44.316  40.495  14.340
 3534W        W62971   9.883  23.132   2.246
 3535W        W62972  39.835  41.519   0.839
 3536W        W62973  23.113  36.998   5.658
 3537W        W62974  15.728  26.038   3.190
 3538W        W62975   5.906   7.283   1.447
 3539W        W62976   0.407  40.851  11.480
 3540W        W62977   6.786  23.998  13.982
 3541W        W62978  34.055   8.267  11.391
 3542W        W62979  16.211  27.978   1.730
 3543W        W62980  41.451  31.053  11.450
 3544W        W62981   4.333  44.897  10.994
 3545W        W62982  15.620  34.576  11.921
 3546W        W62983  37.399  15.614   4.637
 3547W        W62984  40.308  37.949   1.799
 3548W        W62985  41.530  19.041   0.932
 3549W        W62986  38.472   8.701  10.966
 3550W        W62987  12.852   3.857  11.110
 3551W        W62988  38.062  29.920   4.273
 3552W        W62989  42.978  24.102   4.700
 3553W        W62990  26.675  17.304  12.020
 3554W        W62991  17.625  38.544  12.489
 3555W        W62992  20.263  15.312  14.460
 3556W        W62993  27.642  32.080   4.219
 3557W        W62994   5.842  19.673   0.305
 3558W        W62995  39.501  17.153  13.936
 3559W        W62996  21.236  30.048   2.402
 3560W        W62997  39.501  39.852   1.255
 3561W        W62998  24.028  26.616  13.511
 3562W        W62999   4.209   5.268  14.944
 3563W        W63000  40.048  37.423   2.739
 3564W        W63001  43.903  18.693   1.220
 3565W        W63002  16.099  27.668   2.767
 3566W        W63003  44.785  28.044  13.991
 3567W        W63004  18.750  15.267   0.820
 3568W        W63005  11.256  36.591  11.003
 3569W        W63006  39.344  42.901   1.907
 3570W        W63007  18.720  44.890  14.843
 3571W        W63008  34.570  32.513  14.341
 3572W        W63009  23.604  10.283  10.968
 3573W        W63010  22.045  25.148   4.210
 3574W        W63011  12.362  28.627  14.900
 3575W        W63012   9.720  27.498  11.428
 3576W        W63013  44.358  20.556  11.498
 3577W        W63014  26.152  42.396  10.934
 3578W        W63015   6.218   7.271   0.364
 3579W        W63016  22.699  25.991   3.373
 3580W        W63017  29.602  43.847   0.788
 3581W        W63018  36.488   3.900   3.731
 3582W        W63019  24.167  30.591   1.337
 3583W        W63020  29.060  23.200   2.728
 3584W        W63021   0.986   3.716   1.838
 3585W        W63022  34.041  14.290  10.430
 3586W        W63023  12.271  10.853  10.515
 3587W        W63024  14.145  30.459   0.309
 3588W        W63025  27.445  16.161   0.742
 3589W        W63026  42.388  13.760   2.745
 3590W        W63027   5.331  12.745  13.872
 3591W        W63028  24.213   4.846   4.792
 3592W        W63029  41.876   2.364  11.001
 3593W        W63030  31.943  24.132   5.284
 3594W        W63031  32.516  22.159  14.380
 3595W        W63032  41.302  34.870  12.995
 3596W        W63033  29.142  25.600   0.820
 3597W        W63034   3.752  41.492   2.185
 3598W        W63035  18.195   3.280  12.059
 3599W        W63036  41.472  31.571   3.202
 3600W        W63037  14.244  26.549  10.995
 3601W        W63038   9.184  17.271   2.861
 3602W        W63039  37.364  20.592   0.810
 3603W        W63040  22.518   9.232  11.997
 3604W        W63041  37.856   6.208   3.680
 3605W        W63042  21.524  26.667  13.029
 3606W        W63043  42.912  23.708  14.858
 3607W        W63044  39.542   3.871   4.723
 3608W        W63045  29.479  25.563  11.387
 3609W        W63046  39.064  18.148  11.935
 3610W        W63047  20.209  20.671   4.299
 3611W        W63048  36.588  32.889   0.962
 3612W        W63049  35.853  24.099  13.416
 3613W        W63050  29.635  10.306   9.651
 3614W        W63051  38.827  40.448   1.852
 3615W        W63052   0.904  44.808  13.485
 3616W        W63053  24.975  36.477  14.939
 3617W        W63054  22.008   1.916  11.382
 3618W        W63055  33.955   4.446  11.376
 3619W        W63056  16.670   0.858  14.943
 3620W        W63057  33.555  27.549   4.351
 3621W        W63058  24.076   5.196  11.980
 3622W        W63059  27.091  39.318   0.730
 3623W        W63060  44.964  44.430   2.846
 3624W        W63061   5.751  39.547  11.010
 3625W        W63062  43.464  15.222   1.261
 3626W        W63063  36.585  14.253  12.421
 3627W        W63064  32.420  28.035   3.148
 3628W        W63065  38.064   0.373   1.326
 3629W        W63066   1.249  25.682  13.433
 3630W        W63067  20.201  36.399   1.766
 3631W        W63068  37.374  27.650  13.905
 3632W        W63069  20.209  25.006   1.412
 3633W        W63070  26.008  41.012   1.280
 3634W        W63071  39.518  12.281  11.414
 3635W        W63072  33.875  10.697   4.171
 3636W        W63073  33.038  10.316  10.936
 3637W        W63074  24.185  23.494   3.257
 3638W        W63075  44.764  18.745   2.325
 3639W        W63076   5.275  39.493   4.783
 3640W        W63077  31.619  11.160   0.811
 3641W        W63078  24.983   3.749   4.228
 3642W        W63079  10.251  43.766  10.528
 3643W        W63080  17.668  35.021   2.256
 3644W        W63081   5.228  40.441   0.859
 3645W        W63082   0.289   5.827   3.693
 3646W        W63083  33.960  21.697  13.386
 3647W        W63084  35.531  39.506   2.262
 3648W        W63085  28.454  44.288   1.419
 3649W        W63086  13.740   4.706  12.493
 3650W        W63087   7.235  23.589  10.487
 3651W        W63088  37.404  33.122  14.359
 3652W        W63089  44.814  30.492  11.013
 3653W        W63090  14.727  18.233   0.819
 3654W        W63091   6.305  41.943   3.680
 3655W        W63092  30.163  19.668  13.425
 3656W        W63093  17.278  36.928  11.930
 3657W        W63094   1.388   9.821   4.154
 3658W        W63095  10.747  16.308  14.383
 3659W        W63096  24.625  35.519   4.284
 3660W        W63097  21.125  32.551  10.604
 3661W        W63098  15.323   7.280   2.726
 3662W        W63099   9.301  39.864   1.449
 3663W        W63100   1.363  24.035  10.607
 3664W        W63101  19.150   9.882  10.635
 3665W        W63102  28.630  29.598  14.923
 3666W        W63103  12.340  27.476  11.572
 3667W        W63104  41.467   7.859   3.173
 3668W        W63105  16.645   1.367   4.272
 3669W        W63106   4.217  10.167   4.334
 3670W        W63107   2.962  10.287   3.801
 3671W        W63108  20.601  35.429   0.807
 3672W        W63109  22.611  16.086   2.899
 3673W        W63110  21.543   0.757  11.585
 3674W        W63111  18.659  20.562   4.813
 3675W        W63112  13.775   3.349   1.398
 3676W        W63113  42.815  43.993   0.942
 3677W        W63114   4.738   4.397  10.622
 3678W        W63115  23.542  42.403   3.696
 3679W        W63116   3.341  39.328   3.188
 3680W        W63117  20.134  40.338  14.923
 3681W        W63118  36.077  26.000  10.414
 3682W        W63119  30.956  10.822  13.868
 3683W        W63120  21.214  30.061   0.760
 3684W        W63121  43.818  29.639   2.798
 3685W        W63122  41.307  15.733  13.502
 3686W        W63123  38.875  18.146  11.556
 3687W        W63124   9.722  43.894   4.141
 3688W        W63125   9.871   3.897   1.262
 3689W        W63126  44.473   3.715  12.457
 3690W        W63127   1.377   0.325   0.952
 3691W        W63128  32.009  30.015   0.953
 3692W        W63129  37.862   7.682  10.956
 3693W        W63130  28.503  12.847  11.501
 3694W        W63131  32.409  24.676  10.123
 3695W        W63132  37.484  27.029  14.378
 3696W        W63133   5.225  38.903   4.349
 3697W        W63134   7.269  31.065  12.011
 3698W        W63135  40.458  35.869  14.305
 3699W        W63136   2.801  19.553   0.930
 3700W        W63137   1.823  16.614  12.466
 3701W        W63138   4.860  28.080   2.873
 3702W        W63139  13.181  33.042   1.723
 3703W        W63140   4.874  38.837  12.083
 3704W        W63141   0.396   4.864   1.843
 3705W        W63142  37.574  36.386   4.209
 3706W        W63143  33.525   4.883   3.836
 3707W        W63144  28.161  24.994   2.852
 3708W        W63145  32.983  20.649   1.878
 3709W        W63146  43.495  18.700   2.273
 3710W        W63147  20.224   1.368  12.499
 3711W        W63148  23.705  17.581  14.790
 3712W        W63149  33.444  10.746   4.769
 3713W        W63150  14.643  29.063  12.349
 3714W        W63151  13.133   5.238   2.406
 3715W        W63152  15.280  35.395   1.805
 3716W        W63153   6.684  31.459   3.153
 3717W        W63154  19.760  43.378   1.329
 3718W        W63155   4.310  12.148  14.024
 3719W        W63156  27.037  17.289   1.919
 3720W        W63157  33.393  35.405  14.473
 3721W        W63158  14.304  42.367  11.379
 3722W        W63159  36.025   8.801  14.399
 3723W        W63160  18.102  34.587   3.794
 3724W        W63161  15.748  11.231   9.959
 3725W        W63162  42.942  13.137   4.726
 3726W        W63163  27.630  12.635   2.362
 3727W        W63164  33.999  16.155   0.267
 3728W        W63165  22.028  31.983  11.078
 3729W        W63166  24.701   2.948  11.438
 3730W        W63167  31.407  14.294   0.484
 3731W        W63168  38.952  25.632   0.731
 3732W        W63169   4.793  41.907   4.633
 3733W        W63170  28.552  11.283   3.191
 3734W        W63171  23.993   2.860  10.521
 3735W        W63172  21.126  26.569  13.064
 3736W        W63173  25.620  10.817   1.297
 3737W        W63174  13.146  24.692   0.258
 3738W        W63175  29.563  28.091  12.474
 3739W        W63176  41.429  40.966   4.839
 3740W        W63177  32.606  20.169  11.919
 3741W        W63178   5.887  35.390   0.481
 3742W        W63179  41.409  21.728   2.792
 3743W        W63180   1.908  41.389  10.941
 3744W        W63181  27.105   4.895  13.821
 3745W        W63182  16.717  37.843  14.371
 3746W        W63183  36.988  32.003  12.089
 3747W        W63184  41.865   5.407  11.516
 3748W        W63185  39.929  12.315  11.005
 3749W        W63186  42.360  43.400  12.943
 3750W        W63187  14.141  40.326   1.795
 3751W        W63188  33.979  23.703   5.293
 3752W        W63189   0.974  15.600  14.824
 3753W        W63190  40.372   1.392   2.202
 3754W        W63191   9.288  34.036   3.846
 3755W        W63192   1.845   6.712  11.444
 3756W        W63193   5.346  42.802   1.831
 3757W        W63194  17.249  33.611   1.242
 3758W        W63195  17.200  40.970  14.343
 3759W        W63196  29.017  37.476  10.140
 3760W        W63197  39.423  39.554  14.928
 3761W        W63198  40.925  35.923   0.285
 3762W        W63199  19.563  12.263   0.948
 3763W        W63200   5.711  33.383   4.215
 3764W        W63201  12.680  20.166  12.556
 3765W        W63202  16.672   9.726   4.742
 3766W        W63203  39.483  16.101  13.055
 3767W        W63204   1.744  39.466  14.005
 3768W        W63205  37.389  13.212   2.250
 3769W        W63206  24.157  35.531  13.012
 3770W        W63207  19.174  37.997   4.766
 3771W        W63208  27.062  44.898  11.918
 3772W        W63209  23.241  21.261  13.842
 3773W        W63210   3.436  24.552  10.633
 3774W        W63211  29.451  31.913   2.253
 3775W        W63212  39.947  36.408  11.066
 3776W        W63213  40.984   4.765  11.511
 3777W        W63214  36.089  15.606   3.685
 3778W        W63215   8.693  31.920   1.356
 3779W        W63216  22.080  12.702   1.843
 3780W        W63217   3.956   5.332  11.100
 3781W        W63218   0.445   8.189   1.248
 3782W        W63219  14.695  11.239   1.247
 3783W        W63220  42.385  14.697  14.419
 3784W        W63221   9.281   7.779  13.926
 3785W        W63222  24.068  32.903  11.445
 3786W        W63223  25.705  37.431  12.425
 3787W        W63224  16.267  24.581   1.256
 3788W        W63225  17.195  44.956   1.885
 3789W        W63226   9.289  43.412   2.787
 3790W        W63227  30.918   8.684  13.434
 3791W        W63228  10.748   4.713   3.688
 3792W        W63229  20.035  31.078   4.115
 3793W        W63230  43.457  30.512  14.334
 3794W        W63231  16.743  26.069   4.602
 3795W        W63232  31.039  43.381   4.203
 3796W        W63233  38.361  31.984  14.486
 3797W        W63234  19.266   2.855   0.770
 3798W        W63235  12.738  34.979   1.300
 3799W        W63236  15.689  10.750   3.641
 3800W        W63237  19.737   9.700  14.345
 3801W        W63238  22.686   2.459   1.406
 3802W        W63239  15.271   5.237  10.992
 3803W        W63240  24.015  32.467   0.905
 3804W        W63241  13.276  21.167   2.766
 3805W        W63242  39.493  36.075  14.353
 3806W        W63243   3.901  16.312  13.861
 3807W        W63244   4.929  34.564  12.005
 3808W        W63245  31.136  32.505  10.980
 3809W        W63246  21.261   3.926   1.925
 3810W        W63247   8.194  38.983  13.911
 3811W        W63248  16.692  44.795   2.750
 3812W        W63249  41.904   9.383  13.959
 3813W        W63250  33.614  29.516  12.975
 3814W        W63251   0.857  16.803   1.436
 3815W        W63252  35.963  11.373  13.469
 3816W        W63253  27.127   9.763   2.769
 3817W        W63254  16.218  34.463  13.491
 3818W        W63255  40.305  28.586   4.349
 3819W        W63256  28.618   0.869   3.774
 3820W        W63257   3.239  26.697  13.366
 3821W        W63258  35.961  15.689  11.999
 3822W        W63259  41.408  17.601   0.805
 3823W        W63260  32.988  36.400   9.986
 3824W        W63261   4.809  36.504  14.937
 3825W        W63262  14.706  38.478   0.830
 3826W        W63263  38.018   9.780   1.338
 3827W        W63264  40.505  26.101  14.487
 3828W        W63265   3.937  22.142   4.642
 3829W        W63266  15.788  17.577   5.120
 3830W        W63267  42.321  18.560   1.923
 3831W        W63268   4.388  23.218   5.752
 3832W        W63269  14.811  29.018  11.921
 3833W        W63270  20.159  42.311  11.939
 3834W        W63271  17.750   2.831  14.998
 3835W        W63272  27.508  21.261  14.877
 3836W        W63273  41.512   9.380  10.908
 3837W        W63274  14.734  25.564  10.929
 3838W        W63275  11.770   2.243   4.787
 3839W        W63276  20.108  32.482  14.965
 3840W        W63277  10.694  11.262   3.827
 3841W        W63278  10.845  44.319   4.648
 3842W        W63279  18.104  12.289   2.862
 3843W        W63280   4.240  15.710   1.425
 3844W        W63281   4.328   7.278   4.681
 3845W        W63282  35.382  11.194   2.815
 3846W        W63283  27.637  12.782   3.752
 3847W        W63284  18.632  37.049  11.382
 3848W        W63285  29.050  19.779  13.805
 3849W        W63286  33.884  44.011  13.900
 3850W        W63287   5.709  11.166   1.836
 3851W        W63288  32.438  34.900   0.731
 3852W        W63289  38.469   5.334  11.555
 3853W        W63290   1.460  32.925  14.958
 3854W        W63291  21.164   8.333  14.013
 3855W        W63292  15.298  21.103   3.252
 3856W        W63293  31.456  42.945   1.357
 3857W        W63294  21.732  28.679  10.581
 3858W        W63295   2.849  39.826   1.276
 3859W        W63296  10.816   7.397  13.332
 3860W        W63297  13.348  27.982   3.666
 3861W        W63298  13.686  29.653   4.327
 3862W        W63299   1.812  12.140   4.192
 3863W        W63300  36.869  18.756   4.648
 3864W        W63301  23.690   6.204  12.566
 3865W        W63302  14.595  28.066   2.178
 3866W        W63303  24.016  12.158  13.880
 3867W        W63304  22.747   3.932  11.879
 3868W        W63305  20.216  30.137   0.761
 3869W        W63306  38.351  19.191  12.523
 3870W        W63307  21.662  32.143  11.066
 3871W        W63308  44.407  29.616  14.375
 3872W        W63309  38.494  29.044  11.005
 3873W        W63310  42.374  37.953   0.354
 3874W        W63311   6.279  30.083   4.646
 3875W        W63312   6.416   7.896   4.722
 3876W        W63313   0.957  13.233   1.261
 3877W        W63314   0.391  21.691  12.973
 3878W        W63315  22.694  32.028   1.339
 3879W        W63316  35.104  36.565  13.432
 3880W        W63317  23.676  12.730   1.293
 3881W        W63318  36.088  29.526  10.429
 3882W        W63319  17.123  40.377   9.974
 3883W        W63320  16.644  44.439  10.088
 3884W        W63321  23.214   1.851   0.335
 3885W        W63322   1.938  27.643  14.004
 3886W        W63323  32.119  34.488   4.291
 3887W        W63324  13.193  17.300  14.018
 3888W        W63325   7.215  26.060   1.421
 3889W        W63326  43.843  37.387  11.430
 3890W        W63327  20.088  23.560  12.408
 3891W        W63328  43.933  43.381   0.415
 3892W        W63329  14.701   3.296   1.447
 3893W        W63330   2.383  15.121  13.943
 3894W        W63331  35.855  25.132  12.015
 3895W        W63332  26.625  27.687   0.422
 3896W        W63333  30.020  18.545  14.319
 3897W        W63334   5.289   6.273   3.266
 3898W        W63335  32.391  23.537  14.960
 3899W        W63336  14.136  21.251   1.772
 3900W        W63337  14.672   8.680  10.520
 3901W        W63338  31.072  32.140  14.372
 3902W        W63339  17.235  16.216   4.285
 3903W        W63340  35.072  42.825  13.383
 3904W        W63341  32.964   4.448   1.364
 3905W        W63342  33.966  20.191  12.918
 3906W        W63343  42.416  44.862  10.925
 3907W        W63344  19.659   2.273   3.167
 3908W        W63345  17.285  10.254   4.247
 3909W        W63346  15.678  12.173   4.741
 3910W        W63347  14.668  30.425  11.938
 3911W        W63348   3.837  43.010  11.989
 3912W        W63349  32.598  22.722  14.908
 3913W        W63350   7.706  10.365  11.865
 3914W        W63351  23.617  24.209  13.809
 3915W        W63352   3.407   4.427  14.359
 3916W        W63353  17.732  25.210  11.417
 3917W        W63354   3.335  22.573  12.978
 3918W        W63355  19.738  26.497   3.217
 3919W        W63356  36.918  43.352   1.793
 3920W        W63357  25.968  11.160   0.300
 3921W        W63358  35.879   3.765   4.666
 3922W        W63359  16.749  26.199  12.942
 3923W        W63360  11.708  17.697   3.319
 3924W        W63361  12.232   3.904  12.567
 3925W        W63362   8.892  43.500   0.910
 3926W        W63363  11.825  37.498   3.278
 3927W        W63364  28.011  24.694  14.832
 3928W        W63365  12.662  32.597  12.444
 3929W        W63366   2.754  28.611   3.800
 3930W        W63367  16.301  18.622   2.364
 3931W        W63368   0.404  35.390  10.010
 3932W        W63369  38.448   1.332  12.880
 3933W        W63370  21.201  31.911  14.387
 3934W        W63371  37.861   9.181  11.051
 3935W        W63372  30.473  44.775  13.851
 3936W        W63373  15.093  13.804   0.742
 3937W        W63374  29.596   9.378   2.328
 3938W        W63375   6.238  18.566  11.020
 3939W        W63376  26.080   0.805   2.752
 3940W        W63377  28.435   7.702  12.053
 3941W        W63378  23.533  36.513   1.342
 3942W        W63379  39.825  10.199  10.415
 3943W        W63380   5.759   1.821  10.558
 3944W        W63381   4.346  29.107  14.332
 3945W        W63382  22.698   9.680   2.690
 3946W        W63383  16.784  11.861  14.772
 3947W        W63384  30.529   6.206   2.845
 3948W        W63385   4.815  13.112  10.630
 3949W        W63386  30.477   1.242   1.839
 3950W        W63387  30.089   3.217  11.115
 3951W        W63388   2.814  32.045  11.126
 3952W        W63389  10.342  29.104  11.394
 3953W        W63390   2.879  30.063   0.273
 3954W        W63391  41.455  23.218  13.867
 3955W        W63392  10.698  26.089   2.254
 3956W        W63393  17.268  21.537  12.425
 3957W        W63394   1.796   3.790  10.641
 3958W        W63395  42.492   6.359   1.317
 3959W        W63396  35.487  14.683   3.777
 3960W        W63397   9.251   7.286  14.834
 3961W        W63398  13.789   6.249  11.017
 3962W        W63399  39.506  21.096   3.745
 3963W        W63400  30.654  29.953   4.714
 3964W        W63401  17.192  21.683  13.340
 3965W        W63402  37.421   0.867  13.061
 3966W        W63403  30.640  13.314   0.943
 3967W        W63404  41.536  26.665   3.795
 3968W        W63405  25.533   4.209   1.925
 3969W        W63406  26.496  21.153  10.948
 3970W        W63407  17.598  15.739   2.250
 3971W        W63408  36.050  33.562   1.308
 3972W        W63409  34.096  37.887   5.242
 3973W        W63410   1.903  23.038   1.824
 3974W        W63411  24.185  40.918  14.393
 3975W        W63412   2.347  26.532  14.827
 3976W        W63413  33.515  11.706  14.461
 3977W        W63414  41.342  18.700  13.914
 3978W        W63415   2.920   3.250   0.385
 3979W        W63416  13.636  38.496   4.234
 3980W        W63417  16.156   4.299   2.674
 3981W        W63418  16.312  10.809  13.400
 3982W        W63419   8.889  32.526   0.780
 3983W        W63420  33.461  41.948  13.956
 3984W        W63421  34.382  11.322   2.790
 3985W        W63422   0.935  11.210   1.354
 3986W        W63423  12.136  25.548  12.999
 3987W        W63424  37.009  20.631   3.156
 3988W        W63425   7.878  24.645  14.940
 3989W        W63426  29.053  44.499   1.215
 3990W        W63427  10.719  32.453   2.331
 3991W        W63428   9.353  33.570   1.378
 3992W        W63429   4.436   6.309  13.033
 3993W        W63430  38.047  27.960  11.066
 3994W        W63431  43.938  12.173   3.841
 3995W        W63432  18.725  44.916  11.581
 3996W        W63433  36.939  43.385  14.013
 3997W        W63434  17.084   7.862   0.911
 3998W        W63435  17.067  38.854  11.393
 3999W        W63436  24.034  35.428  13.371
 4000W        W63437   3.321  20.728   9.963
 4001W        W63438  14.609  13.739  12.569
 4002W        W63439  26.474  21.186   2.274
 4003W        W63440  21.036  32.467   2.896
 4004W        W63441  39.841  31.631  13.438
 4005W        W63442  20.096   0.901  13.524
 4006W        W63443  21.154  16.659   5.625
 4007W        W63444  35.493  23.634  14.982
 4008W        W63445  40.026  33.923   0.473
 4009W        W63446   4.705  40.858  14.415
 4010W        W63447   6.842  16.574  12.989
 4011W        W63448  34.408  25.198   1.367
 4012W        W63449  11.798   3.348  10.410
 4013W        W63450  43.826   4.378   0.807
 4014W        W63451  26.133  19.739  14.877
 4015W        W63452   7.868   8.317  14.993
 4016W        W63453  34.497  15.111   1.319
 4017W        W63454  20.049  29.037  13.826
 4018W        W63455   4.930  28.120   3.846
 4019W        W63456   1.944   6.718  13.344
 4020W        W63457  33.424  39.818  12.482
 4021W        W63458  43.894  31.431  11.056
 4022W        W63459  11.824  17.122   4.764
 4023W        W63460  27.671  31.456  14.956
 4024W        W63461  33.544  16.269   0.312
 4025W        W63462  25.215  31.951  10.523
 4026W        W63463  29.526  12.294   1.334
 4027W        W63464  23.576  33.109  10.913
 4028W        W63465  23.589  19.732  11.050
 4029W        W63466  44.900   9.687  11.934
 4030W        W63467  11.288  17.736  12.064
 4031W        W63468   5.422  28.154   4.252
 4032W        W63469  16.719  37.034  11.468
 4033W        W63470  44.289  43.939  12.445
 4034W        W63471  10.741   4.210   4.727
 4035W        W63472   3.764  21.031   0.926
 4036W        W63473  20.738  39.064   2.298
 4037W        W63474  17.074  14.794   1.373
 4038W        W63475  34.893  43.417   2.880
 4039W        W63476  31.062  11.786  10.426
 4040W        W63477  38.447   3.401  13.836
 4041W        W63478  40.416  40.041   1.254
 4042W        W63479  19.662   3.309  12.523
 4043W        W63480  30.085  28.614  10.467
 4044W        W63481  39.894  14.726   4.725
 4045W        W63482  42.811   3.777   4.749
 4046W        W63483  34.052  21.108  10.637
 4047W        W63484  15.694   8.784   9.926
 4048W        W63485  31.006  34.110   3.305
 4049W        W63486   1.285  38.021   3.824
 4050W        W63487  41.381  12.842  10.490
 4051W        W63488   4.369  20.754  14.804
 4052W        W63489  44.505  29.141   4.632
 4053W        W63490   0.390   5.387   2.246
 4054W        W63491  42.523  43.946  13.840
 4055W        W63492  22.612   2.913  13.894
 4056W        W63493  19.137  32.561  13.475
 4057W        W63494   0.804  36.560   3.352
 4058W        W63495  37.041  37.883   4.702
 4059W        W63496  35.398  12.665  10.411
 4060W        W63497  23.635  17.286   3.828
 4061W        W63498   8.318   6.836  11.997
 4062W        W63499  27.956  23.584   4.238
 4063W        W63500  29.618  15.671   5.162
 4064W        W63501   5.351  11.213  12.993
 4065W        W63502  21.697  27.043  11.443
 4066W        W63503  31.600  33.461   4.608
 4067W        W63504  36.505   0.983  14.389
 4068W        W63505   4.217  12.679   2.796
 4069W        W63506   9.789  28.651  12.348
 4070W        W63507  37.550  26.564   0.468
 4071W        W63508  10.714  42.386   1.361
 4072W        W63509  18.640  44.972  12.378
 4073W        W63510  30.117  25.555   1.268
 4074W        W63511  31.933  17.064  10.944
 4075W        W63512  42.820  11.212   4.761
 4076W        W63513  43.965   2.775   3.338
 4077W        W63514   0.286  15.150  11.478
 4078W        W63515   5.301  38.966   2.882
 4079W        W63516   5.728   4.404  14.355
 4080W        W63517  44.355  18.079  13.378
 4081W        W63518  25.055   1.793   1.375
 4082W        W63519   3.915  35.025   3.151
 4083W        W63520  29.082   6.912   3.176
 4084W        W63521  10.873  42.343   3.694
 4085W        W63522  29.534  11.291  13.319
 4086W        W63523  24.676  20.127   1.736
 4087W        W63524   1.782  34.073   2.417
 4088W        W63525   4.940  27.078   0.768
 4089W        W63526  21.554  12.676  12.845
 4090W        W63527   2.842  40.507  12.896
 4091W        W63528  40.940   6.257  11.945
 4092W        W63529  33.561  13.154  12.577
 4093W        W63530  37.342  32.410   1.354
 4094W        W63531  16.670  40.545  10.640
 4095W        W63532  27.049  22.623   9.937
 4096W        W63533  31.006  43.437  11.612
 4097W        W63534  40.455  40.045  13.807
 4098W        W63535  44.463  26.186   1.392
 4099W        W63536   5.920   0.809   3.214
 4100W        W63537  14.202  18.569   3.183
 4101W        W63538  12.696  31.415  13.469
 4102W        W63539   4.379  38.418   3.687
 4103W        W63540  35.599  29.923  13.319
 4104W        W63541  42.937   2.454   5.198
 4105W        W63542  16.587   4.437   2.231
 4106W        W63543  39.443   4.926  12.463
 4107W        W63544  13.830  19.548  14.421
 4108W        W63545  19.251  31.025   3.363
 4109W        W63546  28.506   3.306   1.300
 4110W        W63547  29.485  26.512  13.831
 4111W        W63548   8.656  31.934   5.133
 4112W        W63549  19.684  39.938   5.137
 4113W        W63550  42.354  26.068   3.709
 4114W        W63551   8.343   8.819  12.345
 4115W        W63552  21.163  18.165   3.275
 4116W        W63553  28.047  22.685   3.682
 4117W        W63554   1.479  18.630   1.907
 4118W        W63555  10.831  26.983   1.246
 4119W        W63556  36.087  11.825   1.253
 4120W        W63557  35.381  21.126   5.310
 4121W        W63558   3.800  32.990  10.931
 4122W        W63559  39.359   8.200  14.356
 4123W        W63560   0.973  14.696   3.384
 4124W        W63561  36.454  17.676  13.504
 4125W        W63562  15.693  44.275  11.099
 4126W        W63563   6.391  14.153  11.418
 4127W        W63564  16.742  17.076   2.415
 4128W        W63565  29.521   4.721  11.954
 4129W        W63566   2.896   5.231  12.389
 4130W        W63567  11.255  15.711  14.980
 4131W        W63568  20.768  12.233   4.244
 4132W        W63569  10.774  36.017  12.860
 4133W        W63570   3.954   1.756  13.524
 4134W        W63571  39.514  42.485  12.369
 4135W        W63572  13.305  30.040  11.445
 4136W        W63573  13.298   4.412   2.325
 4137W        W63574  27.155  19.538   2.712
 4138W        W63575  36.525   6.335   3.793
 4139W        W63576  16.596  28.681  11.396
 4140W        W63577  21.261   7.879  12.951
 4141W        W63578  13.803  25.595   2.678
 4142W        W63579  14.178  27.991   5.178
 4143W        W63580  41.968  37.962   2.267
 4144W        W63581   8.394  10.383  13.924
 4145W        W63582  42.860  21.639   1.918
 4146W        W63583  40.384  17.688  12.366
 4147W        W63584  35.872   7.336  13.928
 4148W        W63585  31.480  11.159  10.583
 4149W        W63586  35.872   8.731   4.329
 4150W        W63587  33.417   8.761  10.621
 4151W        W63588  20.214  40.306   2.690
 4152W        W63589  11.183  28.144   4.639
 4153W        W63590   5.215  16.606  11.054
 4154W        W63591  41.472  26.519  14.927
 4155W        W63592   3.267  31.421   4.787
 4156W        W63593  31.970  23.593   1.852
 4157W        W63594   2.268  25.552  10.536
 4158W        W63595  24.658  43.415  10.483
 4159W        W63596  42.820  31.940   0.408
 4160W        W63597  16.581  28.596   2.310
 4161W        W63598  13.792  22.031  14.332
 4162W        W63599  25.105  38.420   2.840
 4163W        W63600   4.217  30.119  14.970
 4164W        W63601  26.483  20.562   5.192
 4165W        W63602  17.561  21.673  10.498
 4166W        W63603   4.919  12.178  12.937
 4167W        W63604  29.509  28.978  14.355
 4168W        W63605  23.178  10.295   3.700
 4169W        W63606  10.237  43.869   2.866
 4170W        W63607  18.765  42.370  11.497
 4171W        W63608  12.674  30.980  13.990
 4172W        W63609   5.885   0.751   0.415
 4173W        W63610  23.014  16.078   2.877
 4174W        W63611  19.543  35.977   2.240
 4175W        W63612   4.377  43.394  14.951
 4176W        W63613  32.437   3.375  11.453
 4177W        W63614   2.729  18.222  13.048
 4178W        W63615   7.907  16.187   3.655
 4179W        W63616  37.858  11.257   2.667
 4180W        W63617  30.512   9.713  14.393
 4181W        W63618  35.087  43.272   0.933
 4182W        W63619  21.704  27.973  10.540
 4183W        W63620  20.061  29.644   1.761
 4184W        W63621  34.094  36.465  12.530
 4185W        W63622  44.346  37.499   0.767
 4186W        W63623   0.307  39.324  11.514
 4187W        W63624  29.959  11.270   0.394
 4188W        W63625  32.582  19.052  12.504
 4189W        W63626  44.278  29.934  14.340
 4190W        W63627  24.107  41.992  14.481
 4191W        W63628   8.180  24.634  10.997
 4192W        W63629  10.765  26.680  10.627
 4193W        W63630  14.806  22.225   2.823
 4194W        W63631   1.347  20.572   3.296
 4195W        W63632  37.359   9.218   1.367
 4196W        W63633  11.128  34.451   4.313
 4197W        W63634  24.005   5.869   2.684
 4198W        W63635  35.045  32.596  10.617
 4199W        W63636  30.114  35.086  11.430
 4200W        W63637  18.050  14.804   3.208
 4201W        W63638  43.318  14.121   2.284
 4202W        W63639  17.756  15.158  12.343
 4203W        W63640  26.687   8.268   1.711
 4204W        W63641  34.557  40.973  12.414
 4205W        W63642  38.462   1.962  12.568
 4206W        W63643   1.395  42.787  13.800
 4207W        W63644  11.315  35.943  11.474
 4208W        W63645  10.681  24.642   1.329
 4209W        W63646  41.023   2.782   0.734
 4210W        W63647  26.487  39.467  11.959
 4211W        W63648  18.266  43.464  14.949
 4212W        W63649  29.621  23.235   2.323
 4213W        W63650  18.689  29.094   4.717
 4214W        W63651   7.822  22.111   2.777
 4215W        W63652  18.218   1.860   1.410
 4216W        W63653   7.214   6.330  14.978
 4217W        W63654  28.490  36.563  10.481
 4218W        W63655  37.087  40.429  11.950
 4219W        W63656  44.393   1.882   3.747
 4220W        W63657  40.889  18.241   2.689
 4221W        W63658  15.162   9.736   3.383
 4222W        W63659  11.728   3.712   2.835
 4223W        W63660  42.328  36.503   3.371
 4224W        W63661   0.758  40.544  12.550
 4225W        W63662  17.294  15.621  13.958
 4226W        W63663  15.277   3.721   1.426
 4227W        W63664  20.222   6.293   4.204
 4228W        W63665   9.321  12.834   0.329
 4229W        W63666  21.198   1.899   0.336
 4230W        W63667  36.901  43.340   3.747
 4231W        W63668  24.698  43.387   3.855
 4232W        W63669  10.713  40.821  11.880
 4233W        W63670  19.082   8.770  10.483
 4234W        W63671  25.630  21.522   3.864
 4235W        W63672   2.395   2.900  12.037
 4236W        W63673  20.711  36.489  12.486
 4237W        W63674  27.614  37.052   2.194
 4238W        W63675  32.111   8.754   1.263
 4239W        W63676  40.006  11.182   2.741
 4240W        W63677  17.107  25.168  11.074
 4241W        W63678  44.800  19.735  11.376
 4242W        W63679  39.375  44.856   3.182
 4243W        W63680  16.697  13.681   2.758
 4244W        W63681  37.981  42.316   4.788
 4245W        W63682  31.007  37.986  13.416
 4246W        W63683  29.069  12.294   1.935
 4247W        W63684  35.022  44.991  13.386
 4248W        W63685  41.970  16.673   0.840
 4249W        W63686  22.653  38.016  11.601
 4250W        W63687   6.227  14.135  12.373
 4251W        W63688  15.308  19.242   1.423
 4252W        W63689   4.383  36.935   2.186
 4253W        W63690  21.579  24.023  10.954
 4254W        W63691  29.602  41.008  13.801
 4255W        W63692  44.496  44.371  13.841
 4256W        W63693  32.617  29.156  14.403
 4257W        W63694  12.811   1.860  14.305
 4258W        W63695  33.105   1.911   1.308
 4259W        W63696  39.457  16.784   1.363
 4260W        W63697   0.431  20.536   2.798
 4261W        W63698  28.453  25.482   2.359
 4262W        W63699  40.015  40.045  11.021
 4263W        W63700  40.039  42.309  10.926
 4264W        W63701  21.713  31.526  14.477
 4265W        W63702  28.071  13.686  14.808
 4266W        W63703  13.684  16.310  13.315
 4267W        W63704  11.780  24.203   0.924
 4268W        W63705   5.815   0.806  13.437
 4269W        W63706  20.617   4.860   0.476
 4270W        W63707  37.965  40.409  10.026
 4271W        W63708  12.662   3.286  10.511
 4272W        W63709  24.710  21.177  11.089
 4273W        W63710  13.317   6.299   1.251
 4274W        W63711  12.131  13.242   3.288
 4275W        W63712  40.431  30.916   0.899
 4276W        W63713  44.260  33.123  12.392
 4277W        W63714  12.845   3.279   2.725
 4278W        W63715  27.505  17.228   4.349
 4279W        W63716  37.863  18.205   0.355
 4280W        W63717  21.544   9.721   0.899
 4281W        W63718  33.410   0.282  12.041
 4282W        W63719  20.647  18.634  11.480
 4283W        W63720  27.608  19.634  11.497
 4284W        W63721   9.261  11.866  11.120
 4285W        W63722   9.729   7.850   0.883
 4286W        W63723  17.133  15.126   3.694
 4287W        W63724   9.343  11.627   2.833
 4288W        W63725   6.253  20.620   2.191
 4289W        W63726  34.065  30.984  14.943
 4290W        W63727  22.559  33.887   4.294
 4291W        W63728   3.233  44.321  13.000
 4292W        W63729  42.410  35.500   1.881
 4293W        W63730   9.825  25.602   4.637
 4294W        W63731  40.998  20.659   4.164
 4295W        W63732  28.008  19.192  12.839
 4296W        W63733  30.440  25.644   2.751
 4297W        W63734  12.707  12.729  12.912
 4298W        W63735   1.910   0.352   4.691
 4299W        W63736  39.355  42.919   3.706
 4300W        W63737  33.496  30.435  14.389
 4301W        W63738  30.087   9.660  11.938
 4302W        W63739  27.585  33.996   2.260
 4303W        W63740  29.017  17.274   3.867
 4304W        W63741  43.337  11.841  10.564
 4305W        W63742   7.874  16.774   3.817
 4306W        W63743  19.749  41.879  13.824
 4307W        W63744   7.753  22.682  10.032
 4308W        W63745   5.909   9.194  10.478
 4309W        W63746  39.446  43.825   3.857
 4310W        W63747  14.319  30.038   1.836
 4311W        W63748  35.917  36.004   2.344
 4312W        W63749  40.041  42.493  14.963
 4313W        W63750  37.456   3.841   1.270
 4314W        W63751  43.400  29.032   2.817
 4315W        W63752  39.002   4.371   2.783
 4316W        W63753  28.982  40.854   3.829
 4317W        W63754  29.490  19.161  14.933
 4318W        W63755  25.703  43.873  13.931
 4319W        W63756   5.360  32.070  14.964
 4320W        W63757  30.494  23.132   4.685
 4321W        W63758   3.399  35.015  10.555
 4322W        W63759  18.724  37.402   1.827
 4323W        W63760  40.934  17.215   1.874
 4324W        W63761  38.820  39.054   1.340
 4325W        W63762  24.093  28.576   2.694
 4326W        W63763  15.663  10.875  13.320
 4327W        W63764  23.736   2.460   3.264
 4328W        W63765   1.369  36.443  14.323
 4329W        W63766  40.832  32.141  12.419
 4330W        W63767  41.840  24.493  13.992
 4331W        W63768   9.702  11.292   4.220
 4332W        W63769   5.860  22.731   1.253
 4333W        W63770  21.742  12.192   2.233
 4334W        W63771  12.179  12.809  12.033
 4335W        W63772  34.888  28.097   2.323
 4336W        W63773  38.040  43.768   4.783
 4337W        W63774  17.801  24.158   2.412
 4338W        W63775  19.252  10.259   0.838
 4339W        W63776   8.231  37.448  12.871
 4340W        W63777  43.271  26.459  11.884
 4341W        W63778  21.021   9.754   2.391
 4342W        W63779  33.081  32.051   1.392
 4343W        W63780  13.603   7.795  11.558
 4344W        W63781  37.402  43.809  14.886
 4345W        W63782   7.274  18.629  14.318
 4346W        W63783   0.975  10.657   3.772
 4347W        W63784   3.777  14.268  10.568
 4348W        W63785  44.805  20.586  12.345
 4349W        W63786  36.592  29.615   2.220
 4350W        W63787  18.706  39.944   9.540
 4351W        W63788  39.542  36.952  12.947
 4352W        W63789  32.487   3.439  12.488
 4353W        W63790  31.456  27.487   4.234
 4354W        W63791  41.307   6.686   1.833
 4355W        W63792   4.925  31.958   0.260
 4356W        W63793  41.434   4.802   5.255
 4357W        W63794  15.727  24.712  12.085
 4358W        W63795  19.688  34.902   4.130
 4359W        W63796  25.121  37.841   0.472
 4360W        W63797   2.751  12.264   0.362
 4361W        W63798   4.439  24.567  14.388
 4362W        W63799  14.763  18.759  11.119
 4363W        W63800  29.549  26.978  14.430
 4364W        W63801  39.976   9.861  10.587
 4365W        W63802  16.667  10.737  13.346
 4366W        W63803   5.822   9.697   0.956
 4367W        W63804  22.510  23.670   0.321
 4368W        W63805  25.532  11.802   3.840
 4369W        W63806   2.271  14.756   4.254
 4370W        W63807  42.519   5.923  13.542
 4371W        W63808  11.737  24.645  14.384
 4372W        W63809  30.011  15.577   0.319
 4373W        W63810  13.752  32.615  11.025
 4374W        W63811  15.145  19.675   1.252
 4375W        W63812  41.372  32.607   4.778
 4376W        W63813  33.554  10.854  11.509
 4377W        W63814  43.955  23.191  10.576
 4378W        W63815   5.902  22.606  11.085
 4379W        W63816  21.129  22.126  11.423
 4380W        W63817  15.577  24.646  12.844
 4381W        W63818  19.770  12.272   2.818
 4382W        W63819   5.738  42.885  10.966
 4383W        W63820   7.273  37.067   4.659
 4384W        W63821  32.919  27.634   4.234
 4385W        W63822  24.007  32.427  13.941
 4386W        W63823  33.896  33.582   0.870
 4387W        W63824   1.781  19.089  14.476
 4388W        W63825  37.446  28.974   2.209
 4389W        W63826  13.820  14.174   5.235
 4390W        W63827  44.946  41.952  12.899
 4391W        W63828  29.497   7.228   9.935
 4392W        W63829  24.664  31.086  12.927
 4393W        W63830  34.458  10.312   3.285
 4394W        W63831  21.129  25.565   9.990
 4395W        W63832   6.411  19.132   4.246
 4396W        W63833  37.037  20.186   0.447
 4397W        W63834  41.815  26.482  13.447
 4398W        W63835  28.175  17.074  11.533
 4399W        W63836  24.535  34.429   3.823
 4400W        W63837  20.208  24.189  12.911
 4401W        W63838  31.412  35.015  13.353
 4402W        W63839  21.643  41.318  13.403
 4403W        W63840  11.211  21.073  11.036
 4404W        W63841  29.596  11.174   1.373
 4405W        W63842  24.712  28.983  14.794
 4406W        W63843  14.692   5.707   3.848
 4407W        W63844  23.660  29.962   4.621
 4408W        W63845  43.894   5.745  11.943
 4409W        W63846  22.613  19.167   4.642
 4410W        W63847  10.865  10.820   2.776
 4411W        W63848   2.370   5.427  11.007
 4412W        W63849  19.647   5.854  13.383
 4413W        W63850  18.615  41.477   3.704
 4414W        W63851  19.618  36.939   1.290
 4415W        W63852  41.796  23.705   2.717
 4416W        W63853  19.603  23.727  11.399
 4417W        W63854  32.486  13.786   2.366
 4418W        W63855   1.272  28.157  10.620
 4419W        W63856  19.138  43.343  10.427
 4420W        W63857  41.467  42.909  12.056
 4421W        W63858   9.810  11.822  14.828
 4422W        W63859  35.880  14.127   3.177
 4423W        W63860  18.719  36.866   4.812
 4424W        W63861  31.020  40.974  12.849
 4425W        W63862  14.683  16.295  12.560
 4426W        W63863  20.189  14.142   3.280
 4427W        W63864  24.219  38.533  11.885
 4428W        W63865   3.229  18.269   0.757
 4429W        W63866  39.929  42.414   1.228
 4430W        W63867  42.306  30.041   3.194
 4431W        W63868  16.275  44.457  12.839
 4432W        W63869  29.100   4.209  12.533
 4433W        W63870  14.303  17.748   4.644
 4434W        W63871  14.108  32.044  10.426
 4435W        W63872   0.385  30.476  12.408
 4436W        W63873  36.948   7.669  13.817
 4437W        W63874  30.606  16.676   1.877
 4438W        W63875   1.319  42.823  12.005
 4439W        W63876  44.957   6.764  14.515
 4440W        W63877  32.625  43.845   0.805
 4441W        W63878  18.757   7.256   0.274
 4442W        W63879  25.532  10.636  10.467
 4443W        W63880  28.948  12.188  10.429
 4444W        W63881  27.600  43.957  14.921
 4445W        W63882  36.867  41.827  14.888
 4446W        W63883  22.558  40.362  13.805
 4447W        W63884  40.380  33.065  13.001
 4448W        W63885  26.506  32.044   3.215
 4449W        W63886  44.893  41.503   1.429
 4450W        W63887  23.114   6.358  12.085
 4451W        W63888  38.953  34.429   3.328
 4452W        W63889  32.038  16.201   2.366
 4453W        W63890   6.712   5.334   0.751
 4454W        W63891  44.384   6.774  10.562
 4455W        W63892  21.690   5.772  12.569
 4456W        W63893  24.502  30.998  14.928
 4457W        W63894  10.643   6.358   2.736
 4458W        W63895   1.749  27.524  14.994
 4459W        W63896  39.818  27.191  14.789
 4460W        W63897  22.730  14.639  13.320
 4461W        W63898  37.517  21.664   3.804
 4462W        W63899  23.633  17.171   0.449
 4463W        W63900  26.590  44.465  12.396
 4464W        W63901  18.085  36.889  14.914
 4465W        W63902  28.947  12.184  13.898
 4466W        W63903  16.582   3.729   2.751
 4467W        W63904  34.530   4.826  10.928
 4468W        W63905  29.546  31.615  10.477
 4469W        W63906  27.629  39.059  12.407
 4470W        W63907  43.285  28.982  12.343
 4471W        W63908  35.564  35.592  11.061
 4472W        W63909  26.493  18.612   4.608
 4473W        W63910  25.072  33.886   3.809
 4474W        W63911   1.860   5.905   0.790
 4475W        W63912  14.203  18.077   2.809
 4476W        W63913  28.540   1.419   3.297
 4477W        W63914  27.162  15.601   5.729
 4478W        W63915  16.174   6.303  12.527
 4479W        W63916   6.686  12.663   1.263
 4480W        W63917  39.047   1.380   4.318
 4481W        W63918  27.621  11.675   3.846
 4482W        W63919  14.809  13.733   0.467
 4483W        W63920  30.990  34.575  13.548
 4484W        W63921  31.558  26.028  11.912
 4485W        W63922  16.609   5.748   1.862
 4486W        W63923  25.676  42.891   2.223
 4487W        W63924  27.459  11.861   2.231
 4488W        W63925   6.310  31.133   2.294
 4489W        W63926  40.948   0.311  11.439
 4490W        W63927  36.991  15.684   0.277
 4491W        W63928  12.678  24.029   0.741
 4492W        W63929  44.281  27.614  12.356
 4493W        W63930  18.174  29.919  11.421
 4494W        W63931   7.399  17.209  14.887
 4495W        W63932  26.080   3.446   2.800
 4496W        W63933  25.503  15.221  13.953
 4497W        W63934  15.710   2.783   4.639
 4498W        W63935  12.276  19.050   0.464
 4499W        W63936  23.198  44.365  14.013
 4500W        W63937  30.590  37.558  13.900
 4501W        W63938  23.069  22.553  11.507
 4502W        W63939  16.250  12.315   2.840
 4503W        W63940   2.814  25.647  14.319
 4504W        W63941  26.492   9.695  14.961
 4505W        W63942  34.605  41.884  10.569
 4506W        W63943  41.402  39.972  14.879
 4507W        W63944  38.564  44.371   4.146
 4508W        W63945  27.057  39.058  13.839
 4509W        W63946  32.985  43.790   2.858
 4510W        W63947  29.047  31.521   0.270
 4511W        W63948  29.148   5.428   4.704
 4512W        W63949  37.390   7.808   4.231
 4513W        W63950  32.435  43.503   3.724
 4514W        W63951  43.469  34.497   2.204
 4515W        W63952  39.442  37.869   4.652
 4516W        W63953  21.746  16.573  13.453
 4517W        W63954  31.611  25.989  10.991
 4518W        W63955  17.295  22.141  10.113
 4519W        W63956  18.257  15.192  14.473
 4520W        W63957  40.340  42.337   1.890
 4521W        W63958  15.718  17.719   4.746
 4522W        W63959  44.940   5.900   4.214
 4523W        W63960  43.502   1.353   1.694
 4524W        W63961  13.296  18.050   0.731
 4525W        W63962   3.853  30.505   0.849
 4526W        W63963  30.443  42.311   1.839
 4527W        W63964  14.280  12.694   4.241
 4528W        W63965  33.554  14.807   3.240
 4529W        W63966  31.571  17.669  10.480
 4530W        W63967  27.966  11.344   1.244
 4531W        W63968  39.400  13.680   3.157
 4532W        W63969  40.843  32.927   4.352
 4533W        W63970  11.725  12.208  12.434
 4534W        W63971  32.558  21.646  13.921
 4535W        W63972   0.444  41.923   4.199
 4536W        W63973   5.933  40.546  13.541
 4537W        W63974  33.575  42.985   3.836
 4538W        W63975  39.404   6.315   3.825
 4539W        W63976  33.954   3.408  14.398
 4540W        W63977  12.831  38.056   1.928
 4541W        W63978  31.564   4.296  14.357
 4542W        W63979  42.343  32.490  13.427
 4543W        W63980   5.258  17.126   4.176
 4544W        W63981  42.800  15.172  14.761
 4545W        W63982  34.547  43.417   5.617
 4546W        W63983  35.545  23.631   3.792
 4547W        W63984  29.949  15.264  11.603
 4548W        W63985   4.323  43.836  11.868
 4549W        W63986  21.688  37.899  14.336
 4550W        W63987  18.742   0.750  12.425
 4551W        W63988  16.782  33.512   4.707
 4552W        W63989  21.727  39.433  14.875
 4553W        W63990  30.600  14.195   2.802
 4554W        W63991   8.291  25.469  12.054
 4555W        W63992  36.847  20.684   2.800
 4556W        W63993   5.403  19.190   0.967
 4557W        W63994  10.324  34.094  10.956
 4558W        W63995  29.145   8.695  11.883
 4559W        W63996  11.206   8.288   4.598
 4560W        W63997  17.076   3.890  12.907
 4561W        W63998  38.562  43.476  12.351
 4562W        W63999   4.276  12.732  12.943
 4563W        W64000   2.811  38.563   9.626
 4564W        W64001  28.548  14.666   2.244
 4565W        W64002  20.187  44.869  14.472
 4566W        W64003  22.198   5.736   4.223
 4567W        W64004  29.554  29.049  12.044
 4568W        W64005  44.916  30.519   2.891
 4569W        W64006  25.694  28.564  12.845
 4570W        W64007  13.305  17.078  12.831
 4571W        W64008  14.729  24.102   0.963
 4572W        W64009  25.540  17.676   1.451
 4573W        W64010   3.797  13.708  12.959
 4574W        W64011  18.139   9.386  14.287
 4575W        W64012  27.482  44.903  13.858
 4576W        W64013  18.760  16.157   2.316
 4577W        W64014  27.499   9.698   1.841
 4578W        W64015  41.916   9.668   4.788
 4579W        W64016  28.529  14.597  12.902
 4580W        W64017   8.297  38.934   3.789
 4581W        W64018  23.644   4.224   3.721
 4582W        W64019  22.063  38.390  12.919
 4583W        W64020  30.925   2.468   2.371
 4584W        W64021  31.964  33.568  12.452
 4585W        W64022  35.049   1.369  10.622
 4586W        W64023  23.568  18.768   2.703
 4587W        W64024  20.630  20.607  12.388
 4588W        W64025  15.758  40.967   2.230
 4589W        W64026   6.694  14.198  11.865
 4590W        W64027  21.542  13.690  11.942
 4591W        W64028  34.522  38.351   1.352
 4592W        W64029  12.684  13.675   0.958
 4593W        W64030  28.580  38.015  10.074
 4594W        W64031  13.753  20.071  14.377
 4595W        W64032  41.955  12.782  12.448
 4596W        W64033  32.469  11.659   9.980
 4597W        W64034   8.845  16.812   0.766
 4598W        W64035  15.806  34.974  13.796
 4599W        W64036  28.059  37.899   0.259
 4600W        W64037  19.154  24.700   3.321
 4601W        W64038  34.119   2.442   2.261
 4602W        W64039  43.863  19.742  14.455
 4603W        W64040   8.225  23.079  11.998
 4604W        W64041  22.563   7.756  10.452
 4605W        W64042  21.065   0.759   0.746
 4606W        W64043  13.106  29.563  14.924
 4607W        W64044  12.731  21.586  12.868
 4608W        W64045  36.031  32.603  14.452
 4609W        W64046  10.663  20.175  12.475
 4610W        W64047   9.171   0.383  10.496
 4611W        W64048  21.254   6.906   2.754
 4612W        W64049  10.732  38.428   3.237
 4613W        W64050  31.512  12.825   3.208
 4614W        W64051  19.632  40.943   2.694
 4615W        W64052  22.156   7.328   0.860
 4616W        W64053   9.342  17.688   1.695
 4617W        W64054  24.001   8.871   1.752
 4618W        W64055   6.226  19.627  14.291
 4619W        W64056  19.634   4.346  14.334
 4620W        W64057  33.894   9.689   1.850
 4621W        W64058  31.440   8.798   2.349
 4622W        W64059   0.849  27.565  13.509
 4623W        W64060  33.515  34.068  13.996
 4624W        W64061  26.690  12.260  14.836
 4625W        W64062  39.915  19.171   3.835
 4626W        W64063  12.816   6.348   3.784
 4627W        W64064   2.262  32.045  13.404
 4628W        W64065  42.003   0.871   4.746
 4629W        W64066   4.367  22.111  12.417
 4630W        W64067   3.218  26.002   1.867
 4631W        W64068  36.384  42.912   3.148
 4632W        W64069   0.864  24.131  13.060
 4633W        W64070  36.475  10.269  10.572
 4634W        W64071   8.254  11.774  14.347
 4635W        W64072  35.590  40.394   2.787
 4636W        W64073  11.832   5.344   2.334
 4637W        W64074  39.322  11.345  11.103
 4638W        W64075  42.857  15.184   4.268
 4639W        W64076  29.648  26.048  12.463
 4640W        W64077  12.654  24.497  10.442
 4641W        W64078  28.540  23.229   0.336
 4642W        W64079  37.380   2.468   0.244
 4643W        W64080  10.644  16.263  13.352
 4644W        W64081  19.042  40.051   0.357
 4645W        W64082  24.034  44.854  14.790
 4646W        W64083  27.995  37.546  14.795
 4647W        W64084  26.042  15.181  12.548
 4648W        W64085  11.246  34.068  11.510
 4649W        W64086  23.073  23.710   1.244
 4650W        W64087  12.319  15.591   1.884
 4651W        W64088  41.510  24.633  11.106
 4652W        W64089  28.581  26.524   4.647
 4653W        W64090   8.230   0.989  13.799
 4654W        W64091  32.125  30.163   1.357
 4655W        W64092  13.342  35.885  13.547
 4656W        W64093   2.285  17.145   3.782
 4657W        W64094  30.997  38.891  11.947
 4658W        W64095  22.085   9.743  13.457
 4659W        W64096  18.786  43.291  11.102
 4660W        W64097  35.088  32.050  13.816
 4661W        W64098  36.393   3.390  13.490
 4662W        W64099  14.751  20.191  11.610
 4663W        W64100   2.235  24.642   3.840
 4664W        W64101  43.348  11.235   0.812
 4665W        W64102  27.130   7.828  14.322
 4666W        W64103  23.591  16.181   0.866
 4667W        W64104  42.367   1.389   3.679
 4668W        W64105  20.720  31.638  10.642
 4669W        W64106  42.934  41.411   4.628
 4670W        W64107   2.804  39.411   2.736
 4671W        W64108  31.993  42.919   3.203
 4672W        W64109  19.250  27.047  12.887
 4673W        W64110  26.463  14.633   2.290
 4674W        W64111   2.460  24.596   0.467
 4675W        W64112   5.292   0.796  11.411
 4676W        W64113  32.964   9.225  13.060
 4677W        W64114  11.308   0.395  14.022
 4678W        W64115  12.141   8.171  10.640
 4679W        W64116  20.670  27.180   3.846
 4680W        W64117  39.456  29.142   3.866
 4681W        W64118  22.118   9.369  11.927
 4682W        W64119  14.332  40.912   4.750
 4683W        W64120  10.734  19.162  11.050
 4684W        W64121   7.739  15.176  14.437
 4685W        W64122  33.958  34.916  11.542
 4686W        W64123  15.162  17.614  12.974
 4687W        W64124  24.012  30.136  11.114
 4688W        W64125  29.167  26.111  12.876
 4689W        W64126  21.212  33.983  12.366
 4690W        W64127  16.240  26.025   4.812
 4691W        W64128  39.437  17.595  13.009
 4692W        W64129  37.433  33.889   4.719
 4693W        W64130   6.296  39.411   2.397
 4694W        W64131  16.602  28.002  12.829
 4695W        W64132   7.696  42.986   3.369
 4696W        W64133  13.240  22.014   2.213
 4697W        W64134  14.833  29.520   2.779
 4698W        W64135  39.888  23.155   3.298
 4699W        W64136  33.511  38.535   4.344
 4700W        W64137  28.950   1.842   0.870
 4701W        W64138  38.005  22.046   4.736
 4702W        W64139  10.854  42.393   0.958
 4703W        W64140   1.845  44.384   2.850
 4704W        W64141   1.290  34.930   2.772
 4705W        W64142   3.421  44.844  11.465
 4706W        W64143  28.629  24.107   1.865
 4707W        W64144  24.590  30.995   4.294
 4708W        W64145   9.765  30.554   2.244
 4709W        W64146  18.577  13.837   2.721
 4710W        W64147  39.998  17.747  12.915
 4711W        W64148  11.258  23.566   4.130
 4712W        W64149  40.890  10.200  12.825
 4713W        W64150  31.533   4.205   2.666
 4714W        W64151  30.971  41.919  13.062
 4715W        W64152  21.544  44.462  14.870
 4716W        W64153  35.022  21.704  13.459
 4717W        W64154  33.942  11.373  14.856
 4718W        W64155  22.090  40.430  10.095
 4719W        W64156  35.870  17.650  12.359
 4720W        W64157  11.786  20.161   0.354
 4721W        W64158  23.155  29.044   3.826
 4722W        W64159  43.936  30.564  13.060
 4723W        W64160  39.550  19.602  11.515
 4724W        W64161  15.580  30.566   4.313
 4725W        W64162  44.839  23.647  13.043
 4726W        W64163  11.807   3.405   2.811
 4727W        W64164   5.769   8.736  10.572
 4728W        W64165   7.701  15.317  14.796
 4729W        W64166  35.853  19.757  11.101
 4730W        W64167  33.100  26.676   3.382
 4731W        W64168  35.586  42.293   1.895
 4732W        W64169  30.998  42.992   0.965
 4733W        W64170  29.590  11.783  10.489
 4734W        W64171  16.588  35.906   3.360
 4735W        W64172   9.235  13.314  13.544
 4736W        W64173   9.672  41.869   0.947
 4737W        W64174   4.388  42.475   0.866
 4738W        W64175  43.917   1.477   1.425
 4739W        W64176  24.709  18.770  12.496
 4740W        W64177  37.551   3.908  11.899
 4741W        W64178  25.988  24.529  12.025
 4742W        W64179   0.383   4.767  10.623
 4743W        W64180   6.875  18.616  10.486
 4744W        W64181  43.929  32.118   0.781
 4745W        W64182   8.731  16.576  14.927
 4746W        W64183   7.737  10.742   3.757
 4747W        W64184   2.253  22.249   2.182
 4748W        W64185  41.954   8.321  11.996
 4749W        W64186  35.889  13.622  10.618
 4750W        W64187  40.528  12.814   5.228
 4751W        W64188  29.054  31.404  14.965
 4752W        W64189  26.596  39.998   0.817
 4753W        W64190  17.667  34.507   3.295
 4754W        W64191  13.235  30.576  13.012
 4755W        W64192  39.011   6.733   4.225
 4756W        W64193  36.095   8.397   3.157
 4757W        W64194   1.975  43.807   1.860
 4758W        W64195  28.143  31.551   4.787
 4759W        W64196  32.083  17.612  12.083
 4760W        W64197  39.055  43.019  11.901
 4761W        W64198  15.159  43.985  10.063
 4762W        W64199  25.061  26.500   1.833
 4763W        W64200  39.885  44.902   3.833
 4764W        W64201  38.853  15.106   4.172
 4765W        W64202  40.461   4.893   3.747
 4766W        W64203  32.079  22.149   2.287
 4767W        W64204  25.688  33.608   0.371
 4768W        W64205   0.400   7.665  13.410
 4769W        W64206  16.636  14.754   4.254
 4770W        W64207  29.666  12.304   4.729
 4771W        W64208   3.826  25.707  11.894
 4772W        W64209  14.289  29.956  14.945
 4773W        W64210   1.789  37.425   3.641
 4774W        W64211  33.506  36.387   4.157
 4775W        W64212   9.168  33.472   2.857
 4776W        W64213   5.272  36.441   3.230
 4777W        W64214  14.185  13.263   3.694
 4778W        W64215  25.087  43.765  13.360
 4779W        W64216  26.010  32.469   1.929
 4780W        W64217   6.227  21.750   4.206
 4781W        W64218  32.978  11.160  11.036
 4782W        W64219  14.207  35.404  12.825
 4783W        W64220  44.413  40.379  12.011
 4784W        W64221  28.068  37.578   2.412
 4785W        W64222  43.288   9.175  12.413
 4786W        W64223  27.987  28.968  13.946
 4787W        W64224  14.802  21.736  11.929
 4788W        W64225  42.001   1.281   3.818
 4789W        W64226   6.864   4.911  10.591
 4790W        W64227  32.561   3.849   2.223
 4791W        W64228  17.713  22.173  14.305
 4792W        W64229  37.841  13.620  12.926
 4793W        W64230  12.657  30.957  10.452
 4794W        W64231  24.660   6.754   2.385
 4795W        W64232  17.073  40.446  11.884
 4796W        W64233  15.245  36.095   4.204
 4797W        W64234   3.415  20.541  10.407
 4798W        W64235  24.681  37.337  11.977
 4799W        W64236  19.757  17.206  12.062
 4800W        W64237  32.477  44.949  13.440
 4801W        W64238  13.342  22.023   2.726
 4802W        W64239  40.874  31.568   4.351
 4803W        W64240   5.322  10.246   3.799
 4804W        W64241   0.447  41.474   3.339
 4805W        W64242  40.385  26.173   0.424
 4806W        W64243  44.755  16.203   2.682
 4807W        W64244  13.671  32.525   2.819
 4808W        W64245  33.388  32.417  11.491
 4809W        W64246  37.841  27.053  13.346
 4810W        W64247  21.198  31.081   1.748
 4811W        W64248  12.348  35.054  13.373
 4812W        W64249  22.620  13.318   3.379
 4813W        W64250  39.815   6.848  13.883
 4814W        W64251  29.956  11.170   1.844
 4815W        W64252  38.414   8.394  12.476
 4816W        W64253   1.753  11.813   5.231
 4817W        W64254  44.754  33.601  11.124
 4818W        W64255   4.330  28.550   1.297
 4819W        W64256   6.800  35.524  13.880
 4820W        W64257   4.411  22.187   1.233
 4821W        W64258  20.760   6.872  14.914
 4822W        W64259  19.646  24.157  13.919
 4823W        W64260   1.477   6.747  13.006
 4824W        W64261  37.536   5.748  12.398
 4825W        W64262  25.081   3.341   1.838
 4826W        W64263   8.324  11.680   1.276
 4827W        W64264  13.257  26.081  14.830
 4828W        W64265  24.132  36.034   2.354
 4829W        W64266  35.970  23.046   2.372
 4830W        W64267  44.417  32.918  13.839
 4831W        W64268  31.558  37.063   2.354
 4832W        W64269  12.652  36.054   3.256
 4833W        W64270  15.306   6.216  10.531
 4834W        W64271  41.336  38.888  12.505
 4835W        W64272  26.075  11.168  14.347
 4836W        W64273   8.840  12.232   2.790
 4837W        W64274  35.932   2.932   3.661
 4838W        W64275   7.277   9.692   2.227
 4839W        W64276  28.540  23.121  13.472
 4840W        W64277   9.286  24.515   3.238
 4841W        W64278  18.728  16.202  12.368
 4842W        W64279  28.119  23.554   1.894
 4843W        W64280  22.146   5.709  12.069
 4844W        W64281  13.167  44.940   1.244
 4845W        W64282   5.910  39.446   1.319
 4846W        W64283   8.818  16.737  13.049
 4847W        W64284  18.624  43.787   3.631
 4848W        W64285  22.126  10.693  13.948
 4849W        W64286  10.864  36.018   3.213
 4850W        W64287  36.470  37.375  12.530
 4851W        W64288  20.225  15.755   1.410
 4852W        W64289   4.812  18.558   3.339
 4853W        W64290  44.424  31.073   1.319
 4854W        W64291   5.706  11.803  14.865
 4855W        W64292  44.399  37.381   4.710
 4856W        W64293  40.924  24.502   4.676
 4857W        W64294  11.310  31.545  14.971
 4858W        W64295   0.952  24.116   3.796
 4859W        W64296  35.926  12.335   3.827
 4860W        W64297  43.917  41.789   3.745
 4861W        W64298  24.678  38.561   0.738
 4862W        W64299  11.194  29.942   1.451
 4863W        W64300  26.035  23.160   2.815
 4864W        W64301   9.188  15.144   4.241
 4865W        W64302  39.065  27.675   4.231
 4866W        W64303  25.161   2.875   4.774
 4867W        W64304  15.631   2.745  13.839
 4868W        W64305  35.861  16.289  11.968
 4869W        W64306   1.784  40.495   0.847
 4870W        W64307   0.281  25.590   1.884
 4871W        W64308  36.871  27.548   0.818
 4872W        W64309  37.910  39.330   2.678
 4873W        W64310  24.984  33.129  13.006
 4874W        W64311  44.967  37.916   3.837
 4875W        W64312  43.501  36.051  12.967
 4876W        W64313  33.995  15.097   0.374
 4877W        W64314  44.836  15.279   1.856
 4878W        W64315  43.338  20.538  11.611
 4879W        W64316  38.487  12.727  12.402
 4880W        W64317   9.845  20.066   1.274
 4881W        W64318  11.827  29.147  13.823
 4882W        W64319  26.052   9.246   0.316
 4883W        W64320  26.686  23.071   3.650
 4884W        W64321  16.746  15.219  14.004
 4885W        W64322   8.809  35.600   4.823
 4886W        W64323  12.810  34.113   0.346
 4887W        W64324  27.076  32.486   1.729
 4888W        W64325  43.920  17.745   3.233
 4889W        W64326  19.173  19.689  10.508
 4890W        W64327  30.649  38.833  10.473
 4891W        W64328  13.688  13.716   1.919
 4892W        W64329   8.824  26.545   2.870
 4893W        W64330  43.485  16.266   4.273
 4894W        W64331  10.665   7.710   0.811
 4895W        W64332  41.808  37.871  13.410
 4896W        W64333  26.459  30.014   0.848
 4897W        W64334  16.218  28.992  13.491
 4898W        W64335  18.202   7.191  12.381
 4899W        W64336  17.088  30.963   1.256
 4900W        W64337  35.885  37.973   0.340
 4901W        W64338  26.552  19.092  13.432
 4902W        W64339  35.501  17.561   0.439
 4903W        W64340  29.155  40.508   0.434
 4904W        W64341  19.229   7.373   1.222
 4905W        W64342   3.954  30.489   1.294
 4906W        W64343  29.109  41.952  11.546
 4907W        W64344  30.551  42.806  12.436
 4908W        W64345  38.013   4.830   3.766
 4909W        W64346  24.610  29.456   2.722
 4910W        W64347  18.737  27.000   1.755
 4911W        W64348  24.672  14.114  13.819
 4912W        W64349  43.003   9.704  11.886
 4913W        W64350  22.237   4.745  11.595
 4914W        W64351  36.980   1.467  14.407
 4915W        W64352  38.819  10.235   4.334
 4916W        W64353  18.601  30.163  14.398
 4917W        W64354   9.392  39.479  13.933
 4918W        W64355   0.855  40.938   3.828
 4919W        W64356  39.943  19.545   1.705
 4920W        W64357  39.383  43.832   4.604
 4921W        W64358   8.236   1.793  12.346
 4922W        W64359  32.117   1.775   4.817
 4923W        W64360   9.723   5.838   1.856
 4924W        W64361  26.600  43.868   1.791
 4925W        W64362  36.934  19.125   0.964
 4926W        W64363  43.484  18.109   1.289
 4927W        W64364  16.269  18.169   0.776
 4928W        W64365   4.735  40.985   0.482
 4929W        W64366  35.074  44.007  13.546
 4930W        W64367  19.760  32.542  10.994
 4931W        W64368  19.651  38.820  12.842
 4932W        W64369  24.598  42.910  12.945
 4933W        W64370   5.318  40.543  11.610
 4934W        W64371   2.747  17.230  13.404
 4935W        W64372  17.624  36.860   0.802
 4936W        W64373  24.540  30.934   0.833
 4937W        W64374  39.408   2.906  11.518
 4938W        W64375  33.002   9.779  13.950
 4939W        W64376   2.258  39.387  13.361
 4940W        W64377  40.869  36.014   1.907
 4941W        W64378  37.554  41.521  12.946
 4942W        W64379  35.521   2.267  11.440
 4943W        W64380  28.001  23.721  12.887
 4944W        W64381   7.827  32.892   4.198
 4945W        W64382  13.837  32.002  10.481
 4946W        W64383   9.357  40.426   4.804
 4947W        W64384  33.915   6.235   2.784
 4948W        W64385   3.393   1.911  12.933
 4949W        W64386  17.215  38.336   4.691
 4950W        W64387  27.670   6.263   3.676
 4951W        W64388  27.078   0.798   0.951
 4952W        W64389  17.629  17.198   5.788
 4953W        W64390  35.427   3.793   1.383
 4954W        W64391  26.119  38.451   1.300
 4955W        W64392  40.430  40.411  11.884
 4956W        W64393  43.424  28.989  11.478
 4957W        W64394  23.048  40.051  13.063
 4958W        W64395   5.264  38.055   1.316
 4959W        W64396   1.264  32.083  10.034
 4960W        W64397  26.154   0.772  13.472
 4961W        W64398  38.390  28.457  14.396
 4962W        W64399  11.794  29.459  14.820
 4963W        W64400  42.938  17.183   4.706
 4964W        W64401   6.730  13.207   0.360
 4965W        W64402  32.929  44.292  11.448
 4966W        W64403  22.019  41.026   0.298
 4967W        W64404  19.230  16.248  10.959
 4968W        W64405   9.356  36.935   2.683
 4969W        W64406  27.651  33.076  10.576
 4970W        W64407  41.499  33.390  11.446
 4971W        W64408  38.925  20.577  13.838
 4972W        W64409  26.643  17.296   1.861
 4973W        W64410  13.172  35.023  10.996
 4974W        W64411  13.707   0.956  13.798
 4975W        W64412  43.333  27.594  13.450
 4976W        W64413  34.112  18.117   1.432
 4977W        W64414   4.845  17.797  14.872
 4978W        W64415  18.291  33.417  14.883
 4979W        W64416  31.486  39.903  11.603
 4980W        W64417  36.001  39.453  12.431
 4981W        W64418   4.831   6.678   9.965
 4982W        W64419  33.424  20.759   2.418
 4983W        W64420  22.221  36.071  12.381
 4984W        W64421  18.141   9.346  14.790
 4985W        W64422  16.117  41.950   1.266
 4986W        W64423  33.042  26.553   4.822
 4987W        W64424  41.444  29.089   0.328
 4988W        W64425  27.197  20.523  11.393
 4989W        W64426  32.098  42.310   1.415
 4990W        W64427  41.882   7.670   2.260
 4991W        W64428  34.876  29.479  10.954
 4992W        W64429   8.260  19.738  11.497
 4993W        W64430  10.279   3.344   0.423
 4994W        W64431  25.138  38.858   0.363
 4995W        W64432  15.304  10.211   0.344
 4996W        W64433  38.045  17.145   2.739
 4997W        W64434   9.234  14.108  12.898
 4998W        W64435  32.900  26.142   4.181
 4999W        W64436   5.903  26.954  13.883
 5000W        W64437  36.462   1.878   3.192
 5001W        W64438  24.597   5.211  10.513
 5002W        W64439  14.755  16.152   0.792
 5003W        W64440  12.803  15.580   2.701
 5004W        W64441  41.476  21.216  10.490
 5005W        W64442  26.538  10.278  14.799
 5006W        W64443  31.975   8.657  14.314
 5007W        W64444  22.188  18.565   2.188
 5008W        W64445  14.760   5.358  10.633
 5009W        W64446  31.638  11.207  14.973
 5010W        W64447  37.434  34.501   4.198
 5011W        W64448  31.600   0.809   0.352
 5012W        W64449  27.104   8.262   0.448
 5013W        W64450   4.833   1.258   3.245
 5014W        W64451   4.849  14.124  10.069
 5015W        W64452  28.488  13.824   2.209
 5016W        W64453  22.085  42.001  12.941
 5017W        W64454  31.056  39.915   3.731
 5018W        W64455  40.403  21.657   3.637
 5019W        W64456   4.406   8.271   4.713
 5020W        W64457  34.906   7.753  11.461
 5021W        W64458  33.626  17.164  11.492
 5022W        W64459  33.112   7.324   4.119
 5023W        W64460  21.184  13.682  12.461
 5024W        W64461  26.570  43.433  14.276
 5025W        W64462   4.733  40.545   2.739
 5026W        W64463  16.154  13.342   4.723
 5027W        W64464   0.792  17.219   1.210
 5028W        W64465  16.628  13.831   4.248
 5029W        W64466  12.179  40.534   4.836
 5030W        W64467   1.245  18.159  13.453
 5031W        W64468  26.003  24.220  13.482
 5032W        W64469  26.574  10.369  11.067
 5033W        W64470  20.248  13.171   5.217
 5034W        W64471  43.491   2.241  12.943
 5035W        W64472   4.823  42.398   2.661
 5036W        W64473  36.029   9.284   0.303
 5037W        W64474  24.159   0.922   3.819
 5038W        W64475  14.336  28.073  10.913
 5039W        W64476  30.951   6.395  10.095
 5040W        W64477  25.502   7.725   2.273
 5041W        W64478   4.906   4.765  11.517
 5042W        W64479  15.788  17.099  11.593
 5043W        W64480  44.424  31.049  13.512
 5044W        W64481  38.004  38.955  11.605
 5045W        W64482   1.320  22.207  14.022
 5046W        W64483  26.953  29.986  10.988
 5047W        W64484  26.672  41.034   3.326
 5048W        W64485  33.926  33.463   3.326
 5049W        W64486   5.876  44.905  12.991
 5050W        W64487  24.554  19.699   1.312
 5051W        W64488  34.054  21.039   0.345
 5052W        W64489  31.006  38.988  14.031
 5053W        W64490  39.523  38.571  13.315
 5054W        W64491   4.786   7.759   1.428
 5055W        W64492  33.019  40.489  14.404
 5056W        W64493  25.983  42.993  13.950
 5057W        W64494  27.596  32.616  10.539
 5058W        W64495  34.069   8.769   5.137
 5059W        W64496   5.881   6.875  14.327
 5060W        W64497  37.427  29.073  10.904
 5061W        W64498  37.438  27.638   0.762
 5062W        W64499  30.460  36.987   4.692
 5063W        W64500  14.613  20.681   1.292
 5064W        W64501  24.537  41.361   2.273
 5065W        W64502  41.365  27.951  14.886
 5066W        W64503   8.315  29.952   2.683
 5067W        W64504  16.757   0.289   1.926
 5068W        W64505   9.870   0.764  14.783
 5069W        W64506  11.754  18.068  11.453
 5070W        W64507   5.426  40.527  13.481
 5071W        W64508  28.610  12.149  13.042
 5072W        W64509   9.159  22.592  11.079
 5073W        W64510  29.048  12.848  11.070
 5074W        W64511  27.964   4.741  11.488
 5075W        W64512  23.077  38.559  13.520
 5076W        W64513  11.205  21.610  13.004
 5077W        W64514  31.640  42.995   0.294
 5078W        W64515  43.922  26.053  14.353
 5079W        W64516   7.834   1.956   1.812
 5080W        W64517  27.519  12.629  12.978
 5081W        W64518  34.077  24.495  11.046
 5082W        W64519   6.706  44.504   0.344
 5083W        W64520  19.182  26.103   3.640
 5084W        W64521   6.783  12.678  10.968
 5085W        W64522   6.896  18.295   0.965
 5086W        W64523  33.429  36.945  13.811
 5087W        W64524  28.022  43.270  13.914
 5088W        W64525  33.454  32.044   0.954
 5089W        W64526  35.503   1.883  11.014
 5090W        W64527  17.743  34.516   4.681
 5091W        W64528  37.081  26.627   3.339
 5092W        W64529   3.362  43.880  12.919
 5093W        W64530  36.538  36.368   1.748
 5094W        W64531  31.956  11.788  11.583
 5095W        W64532  16.295  19.103  11.944
 5096W        W64533  15.168   3.803   4.687
 5097W        W64534  34.884  19.046   1.293
 5098W        W64535   2.230  14.277  12.987
 5099W        W64536  42.904  32.962   0.463
 5100W        W64537  30.544  28.474  13.503
 5101W        W64538   1.237  31.580   4.746
 5102W        W64539  41.449   0.837  11.605
 5103W        W64540  30.018  21.756   1.814
 5104W        W64541  22.533   4.919  14.907
 5105W        W64542  36.406  11.288  11.958
 5106W        W64543  43.308  20.589  14.868
 5107W        W64544  20.176  26.611   3.329
 5108W        W64545  19.690  32.075  13.518
 5109W        W64546  25.183  44.411  10.159
 5110W        W64547   2.414  36.053   0.327
 5111W        W64548  40.982   4.928  13.488
 5112W        W64549  14.602  14.101   3.158
 5113W        W64550  25.028  44.963   4.664
 5114W        W64551  16.299  13.715  10.905
 5115W        W64552  15.133  37.501   1.433
 5116W        W64553  41.530  23.506  11.385
 5117W        W64554  11.696  28.596   4.249
 5118W        W64555   0.957  29.981  12.938
 5119W        W64556  24.494  37.453  13.333
 5120W        W64557  44.414  23.497   4.195
 5121W        W64558  44.377  36.944  12.975
 5122W        W64559  24.672   8.353   1.368
 5123W        W64560  30.079  27.023   3.176
 5124W        W64561   4.811  44.974  11.609
 5125W        W64562   2.333  22.645   1.263
 5126W        W64563   6.732   1.962  12.361
 5127W        W64564  40.458  27.580   4.662
 5128W        W64565  10.826  36.976   2.692
 5129W        W64566  38.352  39.833   0.906
 5130W        W64567  14.615   7.260   4.151
 5131W        W64568  30.011  12.795   4.214
 5132W        W64569  20.544  20.210   1.814
 5133W        W64570  23.619  26.078  11.915
 5134W        W64571  40.302  25.648   3.821
 5135W        W64572  11.866  29.458   3.686
 5136W        W64573  26.029  26.534   4.265
 5137W        W64574  31.139   4.382  10.488
 5138W        W64575  35.870  26.172   1.338
 5139W        W64576  30.048   8.193  13.028
 5140W        W64577  20.707  12.837  14.781
 5141W        W64578  37.347  25.080  14.999
 5142W        W64579  24.691  40.926  14.414
 5143W        W64580  36.521   0.268  11.907
 5144W        W64581  29.160  43.792  13.318
 5145W        W64582  39.346  31.066  10.968
 5146W        W64583  43.931  35.932  11.005
 5147W        W64584  26.592  42.413  11.457
 5148W        W64585  26.571  19.608  13.961
 5149W        W64586  23.183  34.609   0.768
 5150W        W64587   2.249   2.421   3.268
 5151W        W64588  38.046  43.984   3.797
 5152W        W64589  44.470  32.397  10.448
 5153W        W64590   8.751   9.821   3.643
 5154W        W64591   5.927  44.912  14.865
 5155W        W64592  34.577  32.102   4.764
 5156W        W64593  15.321  18.743  13.480
 5157W        W64594  19.730  42.788  13.510
 5158W        W64595  37.054  34.407  12.072
 5159W        W64596  29.550  27.673   0.346
 5160W        W64597  35.069  35.378  11.482
 5161W        W64598  29.505  34.596  11.010
 5162W        W64599  15.801   3.380  10.081
 5163W        W64600  18.717  13.824  12.911
 5164W        W64601  20.217  22.109   1.379
 5165W        W64602   1.246   3.259   2.305
 5166W        W64603  23.603   8.718   4.209
 5167W        W64604  26.576  31.016  10.633
 5168W        W64605  19.131   4.927   9.982
 5169W        W64606   3.799   0.846  11.868
 5170W        W64607  12.279  29.086  11.942
 5171W        W64608  29.088  11.128   4.772
 5172W        W64609  34.540  31.136   3.244
 5173W        W64610  23.631  41.796   4.232
 5174W        W64611  32.601  17.566   3.210
 5175W        W64612   7.392   5.379  13.904
 5176W        W64613  13.706  33.455  14.011
 5177W        W64614  25.495   1.837  14.394
 5178W        W64615  29.430  26.014   2.403
 5179W        W64616  14.290  25.655   2.861
 5180W        W64617  18.132  35.910  12.840
 5181W        W64618  30.118   3.923  13.047
 5182W        W64619  13.351  25.125   0.801
 5183W        W64620  31.897  13.615   0.826
 5184W        W64621  23.669  10.174   2.399
 5185W        W64622  42.002  20.137  11.055
 5186W        W64623   5.719  31.521   0.340
 5187W        W64624   0.953   9.714  10.915
 5188W        W64625  17.192  33.619  11.395
 5189W        W64626  30.577  40.903  14.761
 5190W        W64627  32.929  16.184  11.986
 5191W        W64628  32.911  30.098   2.218
 5192W        W64629  23.153  40.872   3.857
 5193W        W64630  14.120   5.760   3.841
 5194W        W64631   6.352   7.779  13.032
 5195W        W64632  41.871  33.411  11.103
 5196W        W64633  30.616  11.358  14.942
 5197W        W64634  21.165  43.468   0.269
 5198W        W64635  31.498   2.314   0.311
 5199W        W64636  16.309  17.697  13.968
 5200W        W64637  37.048  34.898   3.811
 5201W        W64638   0.392  19.062  11.059
 5202W        W64639  31.964  34.931   4.253
 5203W        W64640   9.237  37.555   0.431
 5204W        W64641  29.034  22.652  11.526
 5205W        W64642   9.772   8.375   1.247
 5206W        W64643  23.175  21.601  13.535
 5207W        W64644  37.899  17.233   1.272
 5208W        W64645  14.811  21.244   4.710
 5209W        W64646   1.403  20.055  12.481
 5210W        W64647  19.622   3.271   2.901
 5211W        W64648  36.547  40.882  10.562
 5212W        W64649   0.484  19.055  14.003
 5213W        W64650  21.723  22.681   3.309
 5214W        W64651   9.821  18.631   3.191
 5215W        W64652  31.944  31.540  13.824
 5216W        W64653  34.073  16.254   3.201
 5217W        W64654   5.370  18.754  10.629
 5218W        W64655  19.206  38.980   0.864
 5219W        W64656  23.083   9.248   4.759
 5220W        W64657  11.839  11.723  10.994
 5221W        W64658  13.617  25.120  14.443
 5222W        W64659  18.636  12.695   9.950
 5223W        W64660  17.169   9.868  14.909
 5224W        W64661  22.576   7.825  13.541
 5225W        W64662  36.361  22.527  11.042
 5226W        W64663  21.240  33.984  11.572
 5227W        W64664  28.604  31.484   2.713
 5228W        W64665   7.769  20.038   4.138
 5229W        W64666  13.253  15.103   1.713
 5230W        W64667   5.692  15.602  14.927
 5231W        W64668  43.303  37.881   2.211
 5232W        W64669  40.487  34.059   1.239
 5233W        W64670   3.861  39.985   3.869
 5234W        W64671   4.410  25.121  11.917
 5235W        W64672  24.689  18.182  14.311
 5236W        W64673   8.304  41.958  11.968
 5237W        W64674  16.764  39.948  13.923
 5238W        W64675  11.832  24.213  11.120
 5239W        W64676  17.292  10.195   0.776
 5240W        W64677  30.007   9.309  11.112
 5241W        W64678   9.305  40.514   2.379
 5242W        W64679  31.067  26.197   4.640
 5243W        W64680   5.733  14.178   2.693
 5244W        W64681   3.407  23.236  14.469
 5245W        W64682  27.115   7.870  11.862
 5246W        W64683  36.427  24.069  12.006
 5247W        W64684   3.808   3.376   2.706
 5248W        W64685  36.577  33.384   0.942
 5249W        W64686  19.596   6.811  11.856
 5250W        W64687  28.171  36.872   1.745
 5251W        W64688  36.936  29.101  12.914
 5252W        W64689  33.985  39.428   4.249
 5253W        W64690  40.441  24.529   4.126
 5254W        W64691  28.004  23.075  12.397
 5255W        W64692   9.744  24.170  11.563
 5256W        W64693  36.433  44.360  14.423
 5257W        W64694  38.499   6.794   1.738
 5258W        W64695   0.794  24.606   1.386
 5259W        W64696   0.752  19.728  10.563
 5260W        W64697   4.427  16.231   1.775
 5261W        W64698  20.680   1.311  13.056
 5262W        W64699  10.167  29.134   0.414
 5263W        W64700  24.611  44.782   4.285
 5264W        W64701  20.050  19.274  14.492
 5265W        W64702  23.212   5.295   3.687
 5266W        W64703  40.365  30.415   0.911
 5267W        W64704   2.460  25.008  13.412
 5268W        W64705  38.039  31.626   1.271
 5269W        W64706  33.484   5.774   1.880
 5270W        W64707   8.199   0.910  10.472
 5271W        W64708  39.905   2.816  13.504
 5272W        W64709   5.917   6.727  13.917
 5273W        W64710  44.800  18.104  14.003
 5274W        W64711   6.245  41.364   2.804
 5275W        W64712   7.173   4.331  11.403
 5276W        W64713  27.162  16.265   5.223
 5277W        W64714  15.700  32.122  11.572
 5278W        W64715   6.203  18.689  11.404
 5279W        W64716  17.683  21.617   0.400
 5280W        W64717   3.274  43.901   4.690
 5281W        W64718  28.508  44.316  11.922
 5282W        W64719  32.919  23.175   5.752
 5283W        W64720  26.118  39.952  14.437
 5284W        W64721  30.942   6.189   1.911
 5285W        W64722  32.450   8.247   2.258
 5286W        W64723   2.788  30.119   4.669
 5287W        W64724  19.622  29.039  11.501
 5288W        W64725   1.380  39.523  12.006
 5289W        W64726  33.547   4.356  14.860
 5290W        W64727  40.523  39.850   2.821
 5291W        W64728   7.704  32.921  14.889
 5292W        W64729  18.199   3.441   1.261
 5293W        W64730  41.445  32.419   4.159
 5294W        W64731   1.766   7.293  14.357
 5295W        W64732  21.113   6.218   1.439
 5296W        W64733  24.100   6.263   3.810
 5297W        W64734  23.191  42.005  12.967
 5298W        W64735  27.124  31.997   4.168
 5299W        W64736   2.314  27.963   0.822
 5300W        W64737  40.493  32.090   2.721
 5301W        W64738  32.939  28.059  14.894
 5302W        W64739   7.722  14.742   3.752
 5303W        W64740  39.376  21.053  10.947
 5304W        W64741  29.545  18.256   5.209
 5305W        W64742   1.415  21.537  10.992
 5306W        W64743   5.239  37.832  12.425
 5307W        W64744  26.472   1.807  11.857
 5308W        W64745  36.024   1.732  11.372
 5309W        W64746  42.953  25.198  11.963
 5310W        W64747  16.721  34.603  12.445
 5311W        W64748  26.960  39.513   2.714
 5312W        W64749  14.203   4.772  13.333
 5313W        W64750   7.757  14.226   0.372
 5314W        W64751  42.848  36.094  14.835
 5315W        W64752  39.010  35.497   1.321
 5316W        W64753  33.086  23.985  14.910
 5317W        W64754  15.197   6.409   4.344
 5318W        W64755   7.200   7.195  11.033
 5319W        W64756  27.662  11.179  13.935
 5320W        W64757  24.544  22.722  13.793
 5321W        W64758  35.416  13.772   3.694
 5322W        W64759  38.861  28.939   0.409
 5323W        W64760  30.432  22.564   0.404
 5324W        W64761  14.771  31.646   3.645
 5325W        W64762   6.187  24.228   3.694
 5326W        W64763  12.292  21.116   2.402
 5327W        W64764   4.803   2.410  14.790
 5328W        W64765  31.940   3.304  10.417
 5329W        W64766  38.368  36.864  14.299
 5330W        W64767   3.856   0.484   3.382
 5331W        W64768  13.278  21.556  14.413
 5332W        W64769  42.518  13.660   4.266
 5333W        W64770   3.342  18.113   1.391
 5334W        W64771  31.584  35.890   1.247
 5335W        W64772   5.289  15.227  13.526
 5336W        W64773  43.936  38.991   4.350
 5337W        W64774   3.724  16.605  12.023
 5338W        W64775  27.007  10.644  12.091
 5339W        W64776   5.844  40.380   0.305
 5340W        W64777   3.323   2.802   4.286
 5341W        W64778   9.173  16.201  10.963
 5342W        W64779  31.606  12.726   0.885
 5343W        W64780   0.295  42.321  13.824
 5344W        W64781  30.023  16.756  14.935
 5345W        W64782  30.967  32.111   1.704
 5346W        W64783  21.189  39.834  11.422
 5347W        W64784  30.097   7.234  12.958
 5348W        W64785   8.286  17.243  12.523
 5349W        W64786   7.776  23.556   5.102
 5350W        W64787  35.023   5.270  12.953
 5351W        W64788  42.941  28.672   0.751
 5352W        W64789  19.219   6.880  13.934
 5353W        W64790   4.332   7.716  11.434
 5354W        W64791  11.313   8.272  11.008
 5355W        W64792  22.692  41.521   1.417
 5356W        W64793   5.345  22.112   1.862
 5357W        W64794  25.622  33.086  14.369
 5358W        W64795  12.228  20.142   1.339
 5359W        W64796  29.087  33.881  10.595
 5360W        W64797  43.437  38.824  13.425
 5361W        W64798  40.401  14.136  14.760
 5362W        W64799   7.737   8.675   3.202
 5363W        W64800   2.937  40.525   2.728
 5364W        W64801  35.546  12.280  14.501
 5365W        W64802  35.392   5.277  11.012
 5366W        W64803   9.849  22.222  10.916
 5367W        W64804   3.291   7.402  12.556
 5368W        W64805  23.505  41.418   3.270
 5369W        W64806   5.757   3.860  13.429
 5370W        W64807  26.617  20.764  14.506
 5371W        W64808  34.940  21.656   1.858
 5372W        W64809  41.503   3.342   2.836
 5373W        W64810  37.887  19.669   1.309
 5374W        W64811  23.579  26.070   3.205
 5375W        W64812  35.565  39.531   1.782
 5376W        W64813  16.122  20.235   4.147
 5377W        W64814  29.047  25.155   1.925
 5378W        W64815  13.223  21.733  13.858
 5379W        W64816  32.985  19.112  11.014
 5380W        W64817  17.114  34.975   3.854
 5381W        W64818  36.392  29.629  13.858
 5382W        W64819  27.074   3.711  12.366
 5383W        W64820  22.221  17.610  13.317
 5384W        W64821   2.816  18.745   1.778
 5385W        W64822  31.553  39.872   1.697
 5386W        W64823  11.148   5.239   3.190
 5387W        W64824   0.479   6.203   0.348
 5388W        W64825  44.884  32.078   1.811
 5389W        W64826  42.327  18.698  11.501
 5390W        W64827  34.006  15.791  10.474
 5391W        W64828   6.368   1.851   4.322
 5392W        W64829  18.188  21.666  12.937
 5393W        W64830  17.256   8.234   4.838
 5394W        W64831  41.810  30.439   1.225
 5395W        W64832  17.071  35.404  11.901
 5396W        W64833  41.972   6.365   3.636
 5397W        W64834  29.629  11.253  11.595
 5398W        W64835   2.890   9.327   3.686
 5399W        W64836   5.305  21.215   0.436
 5400W        W64837   0.378  43.454   2.818
 5401W        W64838  26.064  22.057  12.004
 5402W        W64839  40.363  21.257   4.151
 5403W        W64840  40.991  29.023  11.430
 5404W        W64841  28.062  12.686  10.522
 5405W        W64842  21.262  24.187  10.553
 5406W        W64843  43.417  26.162  14.865
 5407W        W64844  21.665  13.346   0.352
 5408W        W64845   7.709  43.795  12.529
 5409W        W64846  44.871   6.907   0.440
 5410W        W64847  38.463  38.332   3.702
 5411W        W64848  34.515  37.862   1.930
 5412W        W64849  42.355  40.463   3.213
 5413W        W64850  29.037  11.837   1.379
 5414W        W64851  40.330  34.900  14.905
 5415W        W64852   0.492   4.212   3.870
 5416W        W64853  42.308  21.187  11.017
 5417W        W64854   2.944   5.238  11.593
 5418W        W64855   7.285  32.981  13.369
 5419W        W64856  36.843  19.767  11.086
 5420W        W64857  16.573  35.969   3.856
 5421W        W64858   3.215  33.880   4.739
 5422W        W64859   4.862  37.994   4.818
 5423W        W64860  43.939   9.157   2.285
 5424W        W64861  14.688  41.012   0.391
 5425W        W64862   0.470  36.363   2.839
 5426W        W64863  19.626   2.288   5.271
 5427W        W64864  37.460  44.417  10.502
 5428W        W64865  25.087  38.439  11.489
 5429W        W64866  42.402  25.496  13.497
 5430W        W64867  37.451   7.777  14.807
 5431W        W64868  38.945  11.639   4.745
 5432W        W64869  17.606  22.191   2.798
 5433W        W64870  28.475   6.788  10.600
 5434W        W64871  21.553  23.109   5.084
 5435W        W64872   8.287  16.225   3.300
 5436W        W64873   9.834  26.060  14.441
 5437W        W64874  13.342  33.565   2.717
 5438W        W64875   0.474  19.071   0.471
 5439W        W64876  10.167  35.584   1.908
 5440W        W64877  40.822  34.951   2.667
 5441W        W64878  12.232  18.147   4.217
 5442W        W64879  25.102  36.971   1.711
 5443W        W64880   3.251  15.225  13.379
 5444W        W64881  22.616   0.269   3.635
 5445W        W64882  16.578  13.609  12.364
 5446W        W64883  27.000  13.137   1.282
 5447W        W64884  12.761  11.701  14.005
 5448W        W64885  41.461   7.212  13.502
 5449W        W64886  12.709  24.010  14.303
 5450W        W64887   8.739  13.829  11.372
 5451W        W64888  29.012  16.793   1.772
 5452W        W64889   2.752  19.251   4.777
 5453W        W64890  25.001  26.542   5.114
 5454W        W64891  13.163  39.398  13.025
 5455W        W64892   6.388  33.414  11.934
 5456W        W64893  18.276   3.825   0.942
 5457W        W64894   7.250  32.606   4.725
 5458W        W64895  17.647   8.765  10.082
 5459W        W64896   4.834  14.708   3.173
 5460W        W64897  39.843  22.132  14.492
 5461W        W64898  24.504   6.333   3.829
 5462W        W64899  11.730  16.277   0.413
 5463W        W64900   6.730  42.960   1.440
 5464W        W64901  23.240  24.701   5.195
 5465W        W64902  13.290  24.568  14.776
 5466W        W64903  37.873  41.836   2.754
 5467W        W64904  17.777   4.293  13.968
 5468W        W64905  11.776  15.650  12.470
 5469W        W64906  16.690  24.018  11.908
 5470W        W64907  12.235  42.927  11.539
 5471W        W64908   5.262  34.026   0.243
 5472W        W64909  16.135   2.451  10.934
 5473W        W64910  33.897   2.400  10.424
 5474W        W64911  29.148   5.705   0.790
 5475W        W64912  33.569   1.941  14.793
 5476W        W64913  44.984  17.575   1.830
 5477W        W64914  14.805  34.943  12.844
 5478W        W64915  26.952  15.817   5.108
 5479W        W64916  16.281  25.620  13.418
 5480W        W64917  10.664  41.378   0.381
 5481W        W64918   6.857  14.094  10.540
 5482W        W64919  14.783   8.827   4.185
 5483W        W64920  36.564  17.065  11.511
 5484W        W64921  20.074   6.241   3.633
 5485W        W64922  23.994  25.076   2.356
 5486W        W64923  20.180  26.008   2.830
 5487W        W64924  15.677  44.431  11.378
 5488W        W64925  23.202  34.913  14.359
 5489W        W64926   8.793  36.438  12.357
 5490W        W64927  17.589  12.857  12.893
 5491W        W64928  43.471  37.416   3.222
 5492W        W64929   2.356   8.707  12.005
 5493W        W64930  13.240   7.199  10.530
 5494W        W64931   6.258  39.829   1.790
 5495W        W64932  38.365  12.750  13.056
 5496W        W64933  40.054  21.692   2.292
 5497W        W64934  42.900  18.086  13.063
 5498W        W64935  25.071   6.770  12.400
 5499W        W64936  10.856  12.687   2.662
 5500W        W64937  16.118  44.311   0.755
 5501W        W64938  28.484  40.323   4.685
 5502W        W64939   5.421  41.948   3.321
 5503W        W64940  31.407  11.272   0.333
 5504W        W64941  20.539  42.385  14.507
 5505W        W64942  16.161  42.840   2.863
 5506W        W64943  36.498  24.544  11.904
 5507W        W64944  34.886  34.401  12.353
 5508W        W64945  29.962  26.145  11.390
 5509W        W64946  26.169  18.791  11.504
 5510W        W64947  37.395  24.216   2.795
 5511W        W64948  21.075  27.075   3.338
 5512W        W64949  28.550  31.112  13.983
 5513W        W64950   3.950  26.084   2.306
 5514W        W64951  22.524   7.880  10.067
 5515W        W64952  37.936  14.689  10.496
 5516W        W64953  15.111   7.307  10.425
 5517W        W64954   1.969  20.046   5.142
 5518W        W64955   7.283   7.360   2.302
 5519W        W64956  13.841  31.136   3.740
 5520W        W64957  34.544   3.332   3.199
 5521W        W64958  30.657  34.047   2.711
 5522W        W64959  12.193  43.469   0.395
 5523W        W64960  12.280  23.603   0.433
 5524W        W64961  38.891  43.489   4.620
 5525W        W64962  36.457  18.268   0.785
 5526W        W64963  22.185  19.636  11.945
 5527W        W64964  14.272   5.254   2.323
 5528W        W64965  11.847  35.080  12.848
 5529W        W64966  28.452  21.603  11.539
 5530W        W64967  33.010   3.721  12.833
 5531W        W64968  11.133  33.937  10.482
 5532W        W64969  34.608  41.796   3.818
 5533W        W64970  26.505  36.560  11.426
 5534W        W64971  26.061  17.646  11.060
 5535W        W64972  34.472  21.737   1.238
 5536W        W64973  14.165  39.544  14.889
 5537W        W64974  41.329  27.483  10.531
 5538W        W64975  23.204  36.490   4.142
 5539W        W64976  27.577  12.644  10.005
 5540W        W64977  41.028  41.873  10.473
 5541W        W64978  41.327  16.690  14.482
 5542W        W64979  41.352  29.431   2.896
 5543W        W64980  25.585  14.161   4.628
 5544W        W64981  14.196  29.633  10.634
 5545W        W64982  31.975   6.236  11.596
 5546W        W64983  25.644  12.796   3.650
 5547W        W64984  20.540  31.419  13.811
 5548W        W64985   9.700  15.741   2.756
 5549W        W64986  33.936   0.911  10.960
 5550W        W64987  19.278  38.452   2.844
 5551W        W64988  15.187  13.269  11.439
 5552W        W64989  19.672  41.333  11.003
 5553W        W64990  42.825  30.940  11.601
 5554W        W64991  32.637   1.280  10.410
 5555W        W64992  32.005  21.246   3.683
 5556W        W64993  31.583  31.468  10.931
 5557W        W64994   3.461  43.922  12.548
 5558W        W64995  31.999  44.777   3.352
 5559W        W64996  42.357  34.993  11.062
 5560W        W64997  30.047   9.644  10.966
 5561W        W64998  30.565   1.443  13.873
 5562W        W64999  42.938  11.678  14.342
 5563W        W65000  27.657  25.512   4.176
 5564W        W65001  33.427  19.736  13.832
 5565W        W65002   9.643  38.000  11.462
 5566W        W65003  23.705   7.802   0.398
 5567W        W65004  44.492  24.097  10.087
 5568W        W65005   3.414  13.214   0.268
 5569W        W65006  22.176  13.645   2.258
 5570W        W65007  26.517  17.299   2.237
 5571W        W65008  43.339  41.423  11.520
 5572W        W65009  23.053  24.227  10.124
 5573W        W65010  26.160  19.714   0.351
 5574W        W65011  44.004   1.862  14.931
 5575W        W65012   7.902  42.829   2.299
 5576W        W65013  10.728   9.744   2.399
 5577W        W65014  24.561  39.335  13.923
 5578W        W65015  11.137  41.479   2.745
 5579W        W65016  18.179  36.856  13.407
 5580W        W65017  35.079  35.878  14.909
 5581W        W65018  17.706  27.459   0.818
 5582W        W65019  20.751  19.754   1.263
 5583W        W65020   1.789  39.920  10.615
 5584W        W65021  29.983  42.884   0.877
 5585W        W65022  39.818  25.478  13.401
 5586W        W65023  11.357  16.634  11.090
 5587W        W65024   8.376  21.116   2.702
 5588W        W65025  13.801  19.130   4.137
 5589W        W65026  43.462  36.901   0.772
 5590W        W65027  10.227  30.454   1.385
 5591W        W65028  41.034  37.339  12.520
 5592W        W65029  28.566  17.636   0.915
 5593W        W65030  30.462  13.143   3.827
 5594W        W65031  21.702  16.134   0.401
 5595W        W65032  20.204   6.215   0.758
 5596W        W65033  12.218  36.985  13.404
 5597W        W65034  40.829  38.561  14.360
 5598W        W65035  32.625  15.647  12.856
 5599W        W65036  34.983  39.394   1.767
 5600W        W65037  37.529  31.538   3.642
 5601W        W65038  42.934  31.134   2.403
 5602W        W65039  36.370  18.739   1.763
 5603W        W65040  34.469  21.565   1.717
 5604W        W65041  43.447  37.858   0.454
 5605W        W65042  38.519  12.124   3.177
 5606W        W65043  35.869   2.320  14.833
 5607W        W65044  33.485   9.879   3.357
 5608W        W65045  38.858  36.042   3.854
 5609W        W65046   8.319  12.780  13.472
 5610W        W65047  25.208   9.689   3.288
 5611W        W65048  21.028  36.023  10.137
 5612W        W65049  18.210  38.333   0.842
 5613W        W65050  27.142  18.138  10.407
 5614W        W65051  43.412  36.508   1.769
 5615W        W65052  11.302  28.962  13.867
 5616W        W65053   1.313  29.987   1.809
 5617W        W65054  31.153  31.108   3.774
 5618W        W65055  37.412   0.791   2.694
 5619W        W65056  32.015   4.258  14.804
 5620W        W65057  35.911  26.112   1.792
 5621W        W65058   7.400  11.364  11.888
 5622W        W65059   8.220   4.857   4.156
 5623W        W65060   9.338  15.297  11.063
 5624W        W65061  40.921  39.018   1.443
 5625W        W65062  35.014  41.852   3.242
 5626W        W65063   9.228   9.711  12.499
 5627W        W65064   6.279  33.409   3.694
 5628W        W65065  23.058  27.061   1.230
 5629W        W65066   2.344  43.801  14.773
 5630W        W65067  15.126  39.379   9.585
 5631W        W65068  24.663   8.842   2.761
 5632W        W65069  10.699   3.271  14.010
 5633W        W65070   6.677   6.695   4.114
 5634W        W65071  21.203  41.492  11.025
 5635W        W65072  29.098  29.026   0.870
 5636W        W65073  33.614  22.011   0.894
 5637W        W65074  22.676  39.021  10.594
 5638W        W65075   1.874  12.679   0.401
 5639W        W65076  17.069  12.130   4.248
 5640W        W65077  10.327  16.734   1.743
 5641W        W65078   5.816   8.225  11.572
 5642W        W65079  41.467  41.293  11.869
 5643W        W65080  15.138  19.118  10.483
 5644W        W65081  41.398  38.468   0.849
 5645W        W65082   5.910  26.637  10.609
 5646W        W65083  14.141  14.797  14.348
 5647W        W65084   1.898  20.128  12.414
 5648W        W65085  17.637  38.908  13.013
 5649W        W65086  15.203  21.055  13.935
 5650W        W65087  38.403  34.973   0.439
 5651W        W65088  38.947  36.079   2.872
 5652W        W65089  10.679  18.627  14.848
 5653W        W65090   0.900  31.629  11.466
 5654W        W65091  42.426  24.992  13.460
 5655W        W65092  11.331   9.820   3.751
 5656W        W65093  38.566   8.777   4.808
 5657W        W65094  28.172  17.623   0.317
 5658W        W65095   1.335  38.939   0.848
 5659W        W65096   3.410  39.537  12.486
 5660W        W65097  17.193  28.530   4.681
 5661W        W65098  39.980  40.948  14.029
 5662W        W65099  36.965   8.238   2.668
 5663W        W65100   6.714  43.937   1.872
 5664W        W65101  30.517  41.939   0.882
 5665W        W65102  40.307  42.452  11.107
 5666W        W65103   5.229  34.048   2.856
 5667W        W65104  35.406  43.345   1.874
 5668W        W65105  24.077  31.943  11.968
 5669W        W65106  11.829  42.375  11.042
 5670W        W65107  44.394  16.661  14.772
 5671W        W65108  14.726  21.257  14.369
 5672W        W65109  41.788  13.694   3.843
 5673W        W65110  39.323   9.876  12.365
 5674W        W65111  41.448   6.308  12.438
 5675W        W65112  32.419  27.553  13.380
 5676W        W65113  11.272  22.678  10.974
 5677W        W65114  43.442  26.502  11.406
 5678W        W65115   9.230   6.419   1.835
 5679W        W65116  43.304  44.909   1.287
 5680W        W65117   9.176  33.450   4.611
 5681W        W65118  18.130  37.378  12.925
 5682W        W65119  26.189  43.776   2.400
 5683W        W65120   0.873   4.315  10.612
 5684W        W65121  34.094  12.802  10.441
 5685W        W65122   4.744   2.765  12.373
 5686W        W65123  28.951  38.985  14.015
 5687W        W65124  10.366  18.091  11.926
 5688W        W65125  21.061  26.993  12.022
 5689W        W65126  36.975   2.857   0.333
 5690W        W65127  33.407  36.347  12.907
 5691W        W65128  39.966   2.351  10.617
 5692W        W65129   1.740  32.939  13.919
 5693W        W65130  34.520   7.808  12.965
 5694W        W65131  29.426  25.087   4.310
 5695W        W65132  37.027  11.223  11.556
 5696W        W65133  16.152  23.563  11.951
 5697W        W65134  36.996  42.456   4.270
 5698W        W65135  21.698  11.699   2.240
 5699W        W65136   1.819  35.424   0.727
 5700W        W65137  22.078  18.580   1.363
 5701W        W65138  12.820  22.074   0.785
 5702W        W65139   8.242  37.050  12.495
 5703W        W65140   1.943  41.335   0.313
 5704W        W65141  26.639   9.692  10.957
 5705W        W65142  37.529   9.351  10.993
 5706W        W65143  29.655  33.613   3.172
 5707W        W65144  28.515  27.991   0.733
 5708W        W65145  13.720   8.355  14.392
 5709W        W65146   2.439   4.238  11.542
 5710W        W65147  41.041  26.195   3.272
 5711W        W65148  23.156  12.356  11.569
 5712W        W65149  27.037   2.905   0.964
 5713W        W65150  25.706  17.622  12.565
 5714W        W65151   9.372  22.704  13.311
 5715W        W65152  23.715   4.354  14.479
 5716W        W65153  13.133   4.810  13.337
 5717W        W65154  11.171  11.642   4.742
 5718W        W65155  44.770  43.515   3.271
 5719W        W65156  27.654  14.619  10.933
 5720W        W65157  22.034  43.968  14.833
 5721W        W65158   1.761   7.822  11.080
 5722W        W65159   7.236   5.898  12.359
 5723W        W65160  18.144  13.332   2.232
 5724W        W65161  20.095  32.965  14.936
 5725W        W65162  40.799  37.385  13.821
 5726W        W65163  27.069  44.313  11.585
 5727W        W65164  10.161  33.385  10.959
 5728W        W65165  35.497  43.014   0.800
 5729W        W65166  19.710  40.423  10.485
 5730W        W65167  30.917  32.410   1.299
 5731W        W65168  41.508   1.894   0.770
 5732W        W65169  21.695  41.484  14.829
 5733W        W65170  14.318  20.235   2.861
 5734W        W65171  10.773  29.132  14.407
 5735W        W65172  33.026  10.773  12.838
 5736W        W65173  33.502  42.016   4.250
 5737W        W65174   2.452  44.366   0.340
 5738W        W65175  27.465  12.776  10.441
 5739W        W65176  22.153   3.241   1.362
 5740W        W65177  31.915  26.169  14.875
 5741W        W65178   7.763  13.744  12.856
 5742W        W65179   9.312  24.019  11.457
 5743W        W65180   8.354  14.247   4.803
 5744W        W65181  42.474  11.343   4.670
 5745W        W65182  17.084  39.394  14.485
 5746W        W65183  27.594  10.329  10.904
 5747W        W65184   7.346  10.799  13.885
 5748W        W65185  13.346   5.378   2.846
 5749W        W65186  12.620  35.389   4.610
 5750W        W65187  10.155  16.166   3.650
 5751W        W65188  17.736  33.042   4.693
 5752W        W65189  25.213  24.681  14.462
 5753W        W65190  38.339   3.815   0.848
 5754W        W65191  35.985  23.633  14.903
 5755W        W65192  20.707  24.685   4.758
 5756W        W65193  24.090  40.381  11.080
 5757W        W65194  12.770  38.503   2.235
 5758W        W65195  32.586  38.465  12.075
 5759W        W65196  12.304  35.925  14.884
 5760W        W65197  41.932  32.414   2.733
 5761W        W65198  36.943  26.199   2.364
 5762W        W65199  13.224  28.628  11.573
 5763W        W65200   5.784  40.491   2.880
 5764W        W65201  31.959  11.352   2.372
 5765W        W65202  12.117  11.629  12.021
 5766W        W65203  18.758  11.645   0.838
 5767W        W65204  10.172  19.158   3.705
 5768W        W65205  26.055   7.363  11.471
 5769W        W65206  24.214  33.474   3.213
 5770W        W65207  32.118   8.301   0.339
 5771W        W65208   7.736  27.557  12.493
 5772W        W65209  25.684  18.666   0.303
 5773W        W65210  36.045  11.369   4.307
 5774W        W65211  12.798  20.605   0.403
 5775W        W65212  17.654  10.165  13.505
 5776W        W65213  21.541  14.592   2.240
 5777W        W65214  19.114  11.856  13.503
 5778W        W65215  41.319   6.400  13.331
 5779W        W65216  29.437  42.316  11.602
 5780W        W65217  15.129  13.178   3.726
 5781W        W65218  36.453  41.355   4.724
 5782W        W65219  42.968  11.704  10.910
 5783W        W65220  10.841  15.178  13.952
 5784W        W65221  12.654  27.535  11.582
 5785W        W65222  24.525   0.357   3.769
 5786W        W65223  25.711  24.559   2.826
 5787W        W65224  30.998  20.202   1.927
 5788W        W65225  37.521  14.813   2.664
 5789W        W65226  14.733  16.710  14.775
 5790W        W65227  16.095  15.100  14.962
 5791W        W65228  15.171  33.127   0.366
 5792W        W65229  17.659  22.634   0.447
 5793W        W65230  31.985  29.431   4.247
 5794W        W65231  30.616  24.619  12.839
 5795W        W65232   2.338  41.805  12.389
 5796W        W65233  15.231  44.442   2.197
 5797W        W65234  14.639  43.962  14.362
 5798W        W65235   8.713  17.196   0.408
 5799W        W65236  39.904  32.116   2.836
 5800W        W65237  11.232  39.335   3.163
 5801W        W65238  16.704  15.742   4.350
 5802W        W65239   3.791  33.583  14.825
 5803W        W65240  12.304   1.886  12.841
 5804W        W65241  15.313   1.936   1.435
 5805W        W65242   5.234  20.748   0.307
 5806W        W65243  12.803  17.223   2.740
 5807W        W65244   2.284  27.580  14.953
 5808W        W65245  28.999  12.632   1.882
 5809W        W65246   1.813  40.884  10.536
 5810W        W65247  15.719  19.654   4.708
 5811W        W65248  13.758  34.993   1.910
 5812W        W65249  14.733  10.314   9.968
 5813W        W65250  13.153  27.078  11.056
 5814W        W65251  12.696  36.918   0.903
 5815W        W65252   5.294  39.015  10.968
 5816W        W65253  11.231  30.480   3.350
 5817W        W65254  16.633  44.008   4.327
 5818W        W65255  35.513  28.046   0.461
 5819W        W65256  10.300   0.785  12.084
 5820W        W65257  21.066  38.991  12.014
 5821W        W65258  11.837  18.057   4.745
 5822W        W65259   4.440  29.477  12.066
 5823W        W65260  31.951  35.511   2.279
 5824W        W65261  15.677  36.464   2.801
 5825W        W65262  30.948  25.580  13.999
 5826W        W65263  40.884  33.067  13.534
 5827W        W65264   2.326  35.511   0.952
 5828W        W65265  44.905  43.347  12.551
 5829W        W65266  17.643  23.677   2.858
 5830W        W65267  35.976  22.692  13.339
 5831W        W65268   9.299  31.525  10.483
 5832W        W65269  26.123  28.578   4.141
 5833W        W65270  16.792  25.981  12.078
 5834W        W65271  20.557  11.272   2.846
 5835W        W65272  36.539  19.657  14.340
 5836W        W65273  15.115   1.309   0.873
 5837W        W65274  10.353  42.447  14.893
 5838W        W65275  41.039  29.578   2.271
 5839W        W65276   1.262  12.845  13.901
 5840W        W65277   0.437  22.743  12.057
 5841W        W65278  11.766  16.757  10.406
 5842W        W65279   5.435  10.293   2.741
 5843W        W65280  20.129  26.997  11.508
 5844W        W65281  25.482  39.822  12.532
 5845W        W65282  36.394  39.515  13.893
 5846W        W65283  39.381  27.488   0.399
 5847W        W65284  11.262  43.924  13.049
 5848W        W65285  21.037   6.354   1.825
 5849W        W65286  17.794   5.931  14.789
 5850W        W65287  41.490   3.801  14.783
 5851W        W65288  42.904  12.705  14.954
 5852W        W65289  36.546   3.228   4.238
 5853W        W65290  10.736  12.693  11.548
 5854W        W65291   7.299  18.694  14.860
 5855W        W65292   4.402   2.829  11.877
 5856W        W65293  26.487  28.662  14.454
 5857W        W65294  17.080  27.446   1.389
 5858W        W65295   6.266  37.428  14.923
 5859W        W65296  33.026  25.528   4.813
 5860W        W65297  26.685  21.246  13.473
 5861W        W65298   8.794  44.917   2.244
 5862W        W65299  31.607  23.999   0.751
 5863W        W65300  22.150  32.056  11.553
 5864W        W65301  24.530   4.437   2.749
 5865W        W65302  41.370  26.598   1.734
 5866W        W65303  41.294   1.279   3.763
 5867W        W65304   9.299   5.727   4.743
 5868W        W65305  10.709   0.875  13.396
 5869W        W65306  43.446  41.377   3.730
 5870W        W65307  41.978   7.825  14.874
 5871W        W65308  35.951   5.776  14.403
 5872W        W65309   9.733  10.220  13.500
 5873W        W65310  22.694  29.040   1.411
 5874W        W65311  25.099  14.338  13.873
 5875W        W65312  41.357  12.264   1.323
 5876W        W65313   4.768   3.375   2.858
 5877W        W65314  40.929  26.157   4.352
 5878W        W65315   2.471   4.918  11.984
 5879W        W65316   5.271  15.312  12.909
 5880W        W65317  22.658  13.118   5.242
 5881W        W65318   2.891  13.835   0.894
 5882W        W65319  44.399  43.476   3.724
 5883W        W65320  38.384  12.846   3.286
 5884W        W65321  37.381   2.793   2.708
 5885W        W65322  33.509  29.175  13.487
 5886W        W65323  29.021  17.618  13.459
 5887W        W65324  35.987  25.088  12.567
 5888W        W65325   2.418  30.537   3.331
 5889W        W65326  22.244  32.424   1.260
 5890W        W65327   2.244  13.821  10.058
 5891W        W65328  35.379   9.735   2.190
 5892W        W65329  25.016  32.142  14.825
 5893W        W65330  34.998  22.051   2.776
 5894W        W65331   5.882  43.321   4.123
 5895W        W65332  39.560   3.234   4.301
 5896W        W65333  34.514   0.900   4.655
 5897W        W65334  14.659   4.850  12.499
 5898W        W65335  24.573  11.834   0.950
 5899W        W65336  33.105  24.997   2.828
 5900W        W65337  32.931  35.992   2.408
 5901W        W65338  27.468  10.690   2.700
 5902W        W65339  42.421  27.640  14.425
 5903W        W65340   3.790  37.017   4.341
 5904W        W65341  26.192  30.001  14.996
 5905W        W65342  37.510   7.817  13.038
 5906W        W65343   4.441   8.341  12.432
 5907W        W65344  37.366  42.897  12.463
 5908W        W65345  32.037   1.468  10.458
 5909W        W65346  39.016  32.410  14.318
 5910W        W65347  29.491  15.294   4.265
 5911W        W65348  19.110  19.713   3.323
 5912W        W65349  26.059   9.213  14.301
 5913W        W65350   2.780  19.766  10.459
 5914W        W65351  42.937  40.324  10.641
 5915W        W65352  39.316  20.721   3.230
 5916W        W65353  36.506  13.244   3.678
 5917W        W65354  28.653  24.511   2.745
 5918W        W65355  43.013   8.301   1.298
 5919W        W65356  43.968  18.721   4.209
 5920W        W65357  22.524  41.431  12.041
 5921W        W65358  29.082   9.644  13.481
 5922W        W65359  17.276  29.642  14.883
 5923W        W65360   6.729  20.621  13.059
 5924W        W65361  31.594  35.853   4.792
 5925W        W65362  35.098   2.261   2.413
 5926W        W65363  15.111  20.734  14.311
 5927W        W65364  21.738   3.445   0.728
 5928W        W65365  31.010  29.581  13.937
 5929W        W65366  42.456   2.235   3.337
 5930W        W65367   8.820  14.655   0.346
 5931W        W65368  10.280  30.036  10.643
 5932W        W65369  24.511  38.017  14.874
 5933W        W65370  12.131   8.264   0.775
 5934W        W65371  39.420   4.781   3.218
 5935W        W65372  19.090  32.491   1.402
 5936W        W65373  41.899  14.287  11.542
 5937W        W65374   0.280  28.578   4.616
 5938W        W65375  26.974  21.738  11.948
 5939W        W65376   2.428  35.463  11.050
 5940W        W65377  31.030  42.995   4.211
 5941W        W65378  15.765  31.018  11.044
 5942W        W65379  30.041  37.900  14.999
 5943W        W65380  34.385   0.780   0.733
 5944W        W65381  10.367  39.383   2.771
 5945W        W65382   3.294  19.211   3.632
 5946W        W65383  22.251  27.945  10.510
 5947W        W65384  15.788  44.967   4.650
 5948W        W65385   3.785   6.355   0.319
 5949W        W65386  43.280  40.483  14.860
 5950W        W65387   9.750   3.460  10.900
 5951W        W65388  32.904   7.405   0.734
 5952W        W65389   1.886  40.842  14.434
 5953W        W65390  44.457  13.665  14.380
 5954W        W65391   2.832   1.266  14.020
 5955W        W65392  40.449   9.714  11.391
 5956W        W65393  39.922  21.706  13.517
 5957W        W65394  23.707  26.186  10.537
 5958W        W65395  37.912  13.664  14.430
 5959W        W65396  32.926  36.931  14.953
 5960W        W65397  12.672  33.024  13.540
 5961W        W65398  39.893  41.035   0.398
 5962W        W65399  23.150  16.181   1.427
 5963W        W65400  13.724  21.667  10.977
 5964W        W65401   3.796  29.481   4.249
 5965W        W65402  23.240  35.945   4.117
 5966W        W65403   3.733  36.846   2.740
 5967W        W65404  41.994  38.002  12.567
 5968W        W65405  15.709  13.791   4.266
 5969W        W65406  42.843  34.051   3.813
 5970W        W65407  39.348   1.844   2.313
 5971W        W65408   5.266  42.453  12.853
 5972W        W65409  28.592  39.880  14.290
 5973W        W65410  39.356   2.854  13.327
 5974W        W65411  16.243  37.440   1.720
 5975W        W65412  19.079   7.791   2.257
 5976W        W65413  13.351  42.486  14.976
 5977W        W65414   2.831  27.065  10.473
 5978W        W65415  15.234  31.634  13.033
 5979W        W65416  26.981  12.225  14.431
 5980W        W65417   3.442  29.544   9.923
 5981W        W65418  43.932  30.582   1.905
 5982W        W65419  27.489  21.678  12.469
 5983W        W65420  40.912  14.605   0.780
 5984W        W65421  17.248  34.027   9.992
 5985W        W65422   2.855  16.237  11.408
 5986W        W65423  24.590  34.586  13.909
 5987W        W65424   7.892  23.642   0.353
 5988W        W65425  31.943   6.881   2.765
 5989W        W65426   1.240  15.765   1.703
 5990W        W65427  37.373  25.020   2.419
 5991W        W65428  37.883  21.216   3.301
 5992W        W65429  14.242  43.303   4.256
 5993W        W65430  21.253  12.744  13.506
 5994W        W65431  11.193  34.547   2.775
 5995W        W65432  33.935  14.172   3.854
 5996W        W65433  16.143  20.643   4.701
 5997W        W65434   5.771  19.075  14.326
 5998W        W65435   0.318  25.141   2.738
 5999W        W65436  22.612  36.870  14.440
 6000W        W65437  41.042   5.700  11.518
 6001W        W65438  25.160  23.218   0.936
 6002W        W65439  32.594  31.967  14.888
 6003W        W65440  43.020   9.691   3.862
 6004W        W65441  17.267  38.934  10.465
 6005W        W65442  32.977  18.197   1.415
 6006W        W65443   1.964  24.610  12.550
 6007W        W65444  32.495  10.703   1.735
 6008W        W65445  28.519  30.975   4.717
 6009W        W65446  11.850  35.488  12.882
 6010W        W65447  38.359  41.851   1.902
 6011W        W65448  28.460  31.593  13.826
 6012W        W65449   6.705  31.058   4.315
 6013W        W65450  38.407  12.797  13.485
 6014W        W65451  25.168  17.202  14.808
 6015W        W65452  30.460  37.914   3.368
 6016W        W65453  35.958  39.059  11.380
 6017W        W65454  10.802  29.479  11.096
 6018W        W65455  25.993  37.873  14.485
 6019W        W65456  31.074  26.695   4.783
 6020W        W65457  41.471  12.148   4.787
 6021W        W65458  31.509   5.200  13.410
 6022W        W65459  20.554   1.366   3.150
 6023W        W65460  29.176  36.554  10.512
 6024W        W65461  18.129  36.474   3.644
 6025W        W65462  39.372  14.316   0.813
 6026W        W65463  11.661  29.029  13.032
 6027W        W65464   7.237  32.105   4.289
 6028W        W65465   4.710  36.897   4.641
 6029W        W65466  15.142  29.086  10.404
 6030W        W65467   1.811  25.970   1.726
 6031W        W65468   3.955   7.796   4.114
 6032W        W65469  11.164  36.878   3.746
 6033W        W65470  32.088  11.651   3.669
 6034W        W65471   3.232  30.646   4.801
 6035W        W65472  15.208  17.566   3.844
 6036W        W65473  41.829   4.939   1.219
 6037W        W65474  37.973  34.467   0.889
 6038W        W65475  43.973  34.915  13.476
 6039W        W65476  22.207   0.380   3.320
 6040W        W65477  43.413  34.005  14.394
 6041W        W65478  43.898   7.908   2.785
 6042W        W65479  36.085  35.570  14.986
 6043W        W65480  28.584  32.023  11.120
 6044W        W65481  39.378   6.200   4.785
 6045W        W65482  15.749  29.138  13.438
 6046W        W65483  43.401  33.528  10.046
 6047W        W65484  32.981  12.252   4.155
 6048W        W65485   1.760   5.335   0.859
 6049W        W65486  39.513  10.784   1.717
 6050W        W65487  29.531   3.885  14.374
 6051W        W65488   6.701  43.277  13.039
 6052W        W65489  36.075  43.770   4.237
 6053W        W65490  29.106   6.310  14.446
 6054W        W65491  29.663  38.820  11.481
 6055W        W65492  26.972  32.542  11.595
 6056W        W65493  22.604   5.310  12.976
 6057W        W65494  21.132   7.826  10.962
 6058W        W65495  14.649  32.583  12.420
 6059W        W65496  13.171  30.051   4.213
 6060W        W65497  28.123  36.847   4.265
 6061W        W65498  25.609  15.268  11.438
 6062W        W65499   7.368   5.214   2.375
 6063W        W65500   3.924   5.820  10.562
 6064W        W65501  22.665  35.945  10.989
 6065W        W65502  30.552   5.261   0.782
 6066W        W65503  28.975  28.628  14.383
 6067W        W65504  30.930  39.947   4.828
 6068W        W65505  15.624  15.232   4.705
 6069W        W65506   0.272  33.442  13.849
 6070W        W65507  32.614   7.406   2.701
 6071W        W65508  27.508  41.515   1.712
 6072W        W65509  15.120  11.354  12.350
 6073W        W65510  17.564   1.753   4.738
 6074W        W65511   5.747   0.970  13.965
 6075W        W65512  43.961  29.449  13.501
 6076W        W65513  36.413  23.035  12.578
 6077W        W65514  43.463  30.145  13.796
 6078W        W65515  15.294  34.433  14.467
 6079W        W65516  21.081  25.062  14.336
 6080W        W65517  31.914   1.778  14.893
 6081W        W65518   0.380  34.562   2.767
 6082W        W65519   0.946  22.100  13.444
 6083W        W65520   1.922   0.414   4.192
 6084W        W65521  30.954  31.046  13.358
 6085W        W65522  41.450  20.681   0.292
 6086W        W65523  28.962  44.386  14.359
 6087W        W65524  33.936  27.451   2.362
 6088W        W65525  37.866   8.899   3.357
 6089W        W65526  11.291  35.495  10.450
 6090W        W65527   5.800   0.975   2.213
 6091W        W65528  34.450  44.474  13.322
 6092W        W65529  13.300   8.185  13.890
 6093W        W65530  21.621   8.160  10.629
 6094W        W65531  22.521  24.644  12.954
 6095W        W65532  11.360  30.559   0.483
 6096W        W65533  34.496   3.422   0.935
 6097W        W65534   0.759  29.490  10.463
 6098W        W65535  31.560  41.336   1.353
 6099W        W65536   8.860  28.510  13.053
 6100W        W65537  11.780  19.568  11.410
 6101W        W65538  28.507   7.409  11.950
 6102W        W65539  15.748  26.192   4.260
 6103W        W65540  42.481  43.821  12.965
 6104W        W65541  18.740   7.220  14.365
 6105W        W65542  28.542  28.103   2.705
 6106W        W65543  20.569  35.035  10.419
 6107W        W65544  23.035   3.342   4.752
 6108W        W65545  28.945  22.210   0.397
 6109W        W65546  10.676  29.948  10.472
 6110W        W65547  27.183  21.617   5.794
 6111W        W65548  11.192  37.995  10.978
 6112W        W65549  36.072  36.844   1.429
 6113W        W65550  24.542  28.101  12.010
 6114W        W65551  38.331   9.328   3.796
 6115W        W65552  15.240  21.169  12.902
 6116W        W65553  21.661  38.386   0.945
 6117W        W65554  36.424  15.643   2.742
 6118W        W65555   8.184  10.367  10.032
 6119W        W65556  11.706  18.134   4.298
 6120W        W65557  16.740  17.757  14.974
 6121W        W65558   8.377  40.823   1.908
 6122W        W65559   7.770  12.215  12.835
 6123W        W65560  40.907   3.767   0.786
 6124W        W65561  28.183  26.460  14.408
 6125W        W65562   2.762   8.276   3.152
 6126W        W65563  39.036  11.696   0.303
 6127W        W65564  16.723   4.939   2.743
 6128W        W65565  26.504  18.120   4.146
 6129W        W65566  18.143  40.309  12.077
 6130W        W65567  42.968   4.885  11.093
 6131W        W65568  36.552  24.577   3.663
 6132W        W65569  44.339  28.065   4.178
 6133W        W65570  40.046  42.521  14.462
 6134W        W65571  14.129  10.758  11.078
 6135W        W65572  43.439   3.347   4.296
 6136W        W65573  43.361  35.453  12.554
 6137W        W65574   5.690  31.128  13.353
 6138W        W65575  25.475  37.543   4.744
 6139W        W65576  31.412  41.488   3.315
 6140W        W65577  31.475   3.856  13.409
 6141W        W65578  23.696  17.233   2.357
 6142W        W65579  13.614  41.479  12.511
 6143W        W65580   9.158  33.574  10.550
 6144W        W65581  14.654   1.762   4.264
 6145W        W65582  28.655   3.222  11.934
 6146W        W65583   3.387   1.779  14.920
 6147W        W65584  23.105  10.652   3.296
 6148W        W65585   4.417  24.548   2.900
 6149W        W65586   6.914  17.114  13.864
 6150W        W65587  12.287  29.121  14.464
 6151W        W65588  39.904   2.930   4.807
 6152W        W65589  26.086   7.743  13.815
 6153W        W65590   6.688   6.282   1.845
 6154W        W65591  37.503  33.458  12.863
 6155W        W65592   9.740  34.064   0.825
 6156W        W65593  27.160  23.116  13.471
 6157W        W65594   6.723  33.900   2.329
 6158W        W65595  17.089  16.109   9.588
 6159W        W65596  22.612  16.149  11.459
 6160W        W65597  36.875  21.035  12.507
 6161W        W65598  10.636  10.796   0.321
 6162W        W65599  35.933  31.512   2.884
 6163W        W65600  38.055  41.813   1.926
 6164W        W65601  26.057   8.360  12.046
 6165W        W65602  16.102  18.125   4.326
 6166W        W65603   3.300  18.590   3.676
 6167W        W65604   4.713  33.525   4.218
 6168W        W65605  12.257  22.720  14.875
 6169W        W65606  11.628  14.146   5.223
 6170W        W65607  38.513  13.173  12.410
 6171W        W65608  22.204  17.747   4.763
 6172W        W65609  32.505  32.068   4.209
 6173W        W65610  13.266  30.539  11.432
 6174W        W65611   7.744  44.264   1.279
 6175W        W65612   0.749  37.399  13.407
 6176W        W65613  10.717  43.005   3.739
 6177W        W65614  14.239  21.053  10.033
 6178W        W65615  19.277  39.347  13.929
 6179W        W65616  16.688  13.801   3.757
 6180W        W65617  40.390  16.127  14.824
 6181W        W65618   1.750  19.613  10.421
 6182W        W65619  30.013  17.066  13.038
 6183W        W65620  40.518  29.525   4.652
 6184W        W65621  29.553  14.172   3.245
 6185W        W65622  44.984   4.935   1.312
 6186W        W65623  32.450   8.688   0.749
 6187W        W65624  13.707  11.251   1.443
 6188W        W65625  26.014  16.762   3.181
 6189W        W65626  33.107  29.137   2.345
 6190W        W65627   3.829  40.040   4.355
 6191W        W65628  42.869  27.126   2.827
 6192W        W65629  42.493  30.094  14.931
 6193W        W65630   5.844  13.743  10.953
 6194W        W65631  36.555   6.916  10.582
 6195W        W65632   9.669  33.598  10.891
 6196W        W65633  21.599  32.549  11.592
 6197W        W65634  38.899  21.258  11.063
 6198W        W65635  16.593  41.897  14.469
 6199W        W65636  11.223  44.010  13.537
 6200W        W65637  32.928  37.539  13.367
 6201W        W65638  28.939  28.150   0.876
 6202W        W65639  43.347  12.803  13.543
 6203W        W65640   2.839   4.709   1.933
 6204W        W65641  30.995  37.944  12.089
 6205W        W65642  41.510  36.049   1.762
 6206W        W65643  29.503  33.384  13.536
 6207W        W65644  40.429  15.225   1.412
 6208W        W65645  35.595  26.575   2.250
 6209W        W65646  36.883   5.235  14.888
 6210W        W65647  38.044  10.364   9.989
 6211W        W65648  38.325  36.016   3.376
 6212W        W65649   9.644   0.345   3.155
 6213W        W65650  13.686  41.877  12.536
 6214W        W65651  17.747  43.955  12.835
 6215W        W65652  41.823   5.216   0.336
 6216W        W65653  13.708  23.728   4.760
 6217W        W65654  23.197  32.403   3.849
 6218W        W65655  10.827  22.161  14.872
 6219W        W65656  10.350  28.463  12.956
 6220W        W65657   9.340   2.729  11.498
 6221W        W65658  32.006  40.455  10.555
 6222W        W65659  12.143  22.107   4.629
 6223W        W65660  15.674  30.516   2.880
 6224W        W65661  15.217  29.490   3.329
 6225W        W65662  44.292  10.197   1.795
 6226W        W65663  27.134   7.326  13.888
 6227W        W65664   0.314   9.351   0.768
 6228W        W65665  21.580   6.722   0.383
 6229W        W65666   7.752  21.256  14.360
 6230W        W65667  22.201  42.781   4.308
 6231W        W65668  22.222  14.593  11.505
 6232W        W65669  31.023  25.582  12.562
 6233W        W65670  32.921  14.691   4.752
 6234W        W65671  39.958  44.474  12.015
 6235W        W65672  16.236  34.938  14.451
 6236W        W65673  29.495  21.259  11.463
 6237W        W65674  34.443  37.470  11.455
 6238W        W65675  10.355   1.873  10.518
 6239W        W65676   7.844  28.537   1.264
 6240W        W65677  31.601  38.507  13.388
 6241W        W65678  39.043   4.903   0.484
 6242W        W65679   5.863   3.354  12.875
 6243W        W65680  20.071  37.383  12.423
 6244W        W65681   3.457  16.706  14.979
 6245W        W65682  25.201  21.071   4.774
 6246W        W65683  42.335  15.117  12.529
 6247W        W65684  40.509  11.241   3.223
 6248W        W65685  39.940   0.963   2.667
 6249W        W65686  25.972  24.985   3.312
 6250W        W65687  13.329   2.730  11.408
 6251W        W65688  24.616  32.100   3.342
 6252W        W65689  22.687   2.928  14.859
 6253W        W65690  28.110  43.423  12.095
 6254W        W65691  25.059  26.082  12.070
 6255W        W65692  26.178   3.360  11.119
 6256W        W65693  22.006  38.003  14.802
 6257W        W65694  39.456  28.107   3.753
 6258W        W65695  16.735  26.688   0.810
 6259W        W65696  12.744   3.341  13.391
 6260W        W65697   6.258  15.106   1.873
 6261W        W65698   7.339   0.931  10.949
 6262W        W65699   6.896  20.624  14.828
 6263W        W65700  17.597  43.875   1.701
 6264W        W65701  29.505  41.818  12.963
 6265W        W65702  23.130  25.218  14.308
 6266W        W65703  14.666  19.166  13.991
 6267W        W65704   1.338  14.757   1.750
 6268W        W65705  19.185  28.463  13.485
 6269W        W65706   3.751   3.780   1.717
 6270W        W65707  32.098   7.260  12.957
 6271W        W65708  35.065  10.722  10.639
 6272W        W65709  18.659  28.074  12.837
 6273W        W65710  40.439  16.317  13.020
 6274W        W65711  28.525  20.735  13.476
 6275W        W65712   4.208  36.854  14.329
 6276W        W65713   9.213  42.923   4.136
 6277W        W65714  25.008  18.173  13.358
 6278W        W65715  34.063  38.381   4.316
 6279W        W65716  21.679  23.695  14.820
 6280W        W65717  18.068   8.901  14.864
 6281W        W65718  17.281  28.018   0.894
 6282W        W65719   3.431  18.225  10.454
 6283W        W65720  38.458  44.760  12.362
 6284W        W65721  38.931  20.174  13.940
 6285W        W65722  27.038  32.103   2.824
 6286W        W65723   6.405  33.116  14.777
 6287W        W65724  33.957  28.035  11.884
 6288W        W65725   4.935   7.908  12.095
 6289W        W65726  10.154  32.977  12.445
 6290W        W65727  37.374  25.700   2.667
 6291W        W65728  38.445  35.860  10.420
 6292W        W65729  26.959   1.815  14.783
 6293W        W65730   3.926  18.234  10.939
 6294W        W65731  28.647  27.095  12.407
 6295W        W65732  20.193  34.455   3.773
 6296W        W65733  38.074  44.456   0.937
 6297W        W65734   5.828  34.901  11.528
 6298W        W65735   9.201  39.055  12.375
 6299W        W65736  40.544  27.123   4.624
 6300W        W65737  33.598  20.116  12.552
 6301W        W65738  44.899  31.617  12.381
 6302W        W65739  41.851   6.371  12.948
 6303W        W65740  23.687   8.184   3.796
 6304W        W65741   5.278  17.727  10.561
 6305W        W65742  22.009  32.016  12.998
 6306W        W65743  25.211   3.428   2.868
 6307W        W65744  11.327   3.826   1.409
 6308W        W65745  13.840  38.501  14.974
 6309W        W65746   4.889  13.612  13.463
 6310W        W65747  41.331  11.808  13.507
 6311W        W65748  37.847   3.753   0.859
 6312W        W65749  11.721  22.604   4.803
 6313W        W65750  15.779   4.707  12.940
 6314W        W65751   0.390  43.341  11.099
 6315W        W65752  10.713   2.256   4.159
 6316W        W65753   4.834  39.019   2.783
 6317W        W65754  18.287  44.753   0.277
 6318W        W65755  25.692  41.938   2.212
 6319W        W65756   6.285   7.842   2.692
 6320W        W65757  24.685  11.231   2.261
 6321W        W65758  24.178  35.491   3.216
 6322W        W65759  30.580  34.604  14.832
 6323W        W65760   1.365  32.970   0.777
 6324W        W65761   2.933  40.404  14.341
 6325W        W65762  32.954   0.802   2.378
 6326W        W65763  10.654  31.489   0.276
 6327W        W65764  20.695  10.860   0.750
 6328W        W65765  11.692  27.663  12.482
 6329W        W65766  22.170  39.021   0.322
 6330W        W65767   3.264  31.504   2.752
 6331W        W65768  11.192   9.704  12.566
 6332W        W65769  38.509  41.791  11.530
 6333W        W65770  28.950  12.848   3.288
 6334W        W65771   4.942  22.677   1.294
 6335W        W65772  33.606  35.083   5.178
 6336W        W65773  19.769  36.499  13.935
 6337W        W65774  39.406  42.890  14.006
 6338W        W65775  14.647  43.850  10.161
 6339W        W65776  34.906  25.990  10.937
 6340W        W65777  13.660  22.593   3.714
 6341W        W65778  40.307   3.952   2.825
 6342W        W65779  18.791  39.932   3.759
 6343W        W65780   2.303  25.607  10.959
 6344W        W65781  21.567  13.653  13.468
 6345W        W65782   8.325  43.284  10.956
 6346W        W65783   0.825  41.937   0.299
 6347W        W65784  43.311  18.233  12.534
 6348W        W65785  16.152  36.983  14.383
 6349W        W65786  39.829  24.527  14.356
 6350W        W65787  41.301  33.979  13.816
 6351W        W65788  21.255  35.496  14.340
 6352W        W65789  27.990  41.987   0.768
 6353W        W65790  41.484  35.999   2.200
 6354W        W65791  20.200  25.108  10.602
 6355W        W65792  37.543   0.478  10.568
 6356W        W65793  34.117  44.469   3.257
 6357W        W65794  43.797   0.845   2.901
 6358W        W65795   4.262  29.154   4.302
 6359W        W65796   3.331  19.240   2.294
 6360W        W65797  25.116  29.173  11.544
 6361W        W65798  35.399  39.411  12.526
 6362W        W65799  41.919  18.105  12.028
 6363W        W65800  23.232   6.829   4.114
 6364W        W65801  24.104  31.086  10.473
 6365W        W65802  38.820  43.427   3.303
 6366W        W65803  15.283  15.283  14.451
 6367W        W65804  35.504  13.282  14.463
 6368W        W65805  12.283  38.045  10.909
 6369W        W65806  28.974  11.152  14.461
 6370W        W65807   0.752  40.446   3.779
 6371W        W65808  42.859  23.174  11.129
 6372W        W65809  35.922   7.688  13.491
 6373W        W65810  10.841  21.519   4.635
 6374W        W65811  21.527  37.578  14.435
 6375W        W65812  32.476  31.133  14.838
 6376W        W65813  26.518  24.151   2.676
 6377W        W65814   5.754  40.395  10.636
 6378W        W65815  38.998  33.888  14.821
 6379W        W65816  22.589  15.658  10.029
 6380W        W65817  44.469   3.767  10.453
 6381W        W65818  23.037  22.166  14.830
 6382W        W65819  22.219  14.675  12.445
 6383W        W65820  17.117  41.433  12.342
 6384W        W65821   2.348  10.337  12.908
 6385W        W65822  41.384  17.620   4.641
 6386W        W65823  11.261  42.955  12.464
 6387W        W65824  22.728  23.689  13.311
 6388W        W65825  21.651  25.622  12.567
 6389W        W65826   2.872   8.320  12.484
 6390W        W65827  30.637  41.320   3.230
 6391W        W65828   2.438  30.619   2.267
 6392W        W65829  25.107  43.506   2.400
 6393W        W65830  38.972  39.816  13.520
 6394W        W65831  43.893   8.699  11.971
 6395W        W65832  23.540  34.503   3.363
 6396W        W65833  36.406  21.164   1.397
 6397W        W65834   1.947  17.298  11.858
 6398W        W65835  41.342  41.480   1.897
 6399W        W65836  35.985   4.300   2.899
 6400W        W65837  21.200  30.030  14.511
 6401W        W65838  30.162  35.108   1.279
 6402W        W65839  37.416   9.859  10.075
 6403W        W65840  12.353  24.208  13.842
 6404W        W65841  20.732  39.823  10.570
 6405W        W65842   9.757  14.661   0.748
 6406W        W65843  43.298   7.224   4.815
 6407W        W65844  14.821  17.617   4.789
 6408W        W65845   0.343   7.306   1.791
 6409W        W65846  13.237  32.893  11.877
 6410W        W65847   4.808  44.982  12.990
 6411W        W65848  43.897  23.049  11.992
 6412W        W65849  44.782  15.128   3.790
 6413W        W65850  23.709  42.927  14.301
 6414W        W65851   9.829  31.645   4.242
 6415W        W65852   3.858  12.158  14.987
 6416W        W65853  28.042  43.427  10.963
 6417W        W65854  13.105   5.932   1.359
 6418W        W65855  31.577  11.347   1.232
 6419W        W65856  29.117  36.989   3.756
 6420W        W65857  28.113  21.263  10.499
 6421W        W65858  38.542  25.066  12.086
 6422W        W65859  18.733  26.201  14.945
 6423W        W65860  33.579  33.101  10.596
 6424W        W65861  41.035  19.141  11.004
 6425W        W65862  32.585  10.300   0.484
 6426W        W65863  26.019  41.418  10.602
 6427W        W65864  17.655  40.535  12.428
 6428W        W65865   1.431  34.375  11.876
 6429W        W65866  31.135  40.391   3.837
 6430W        W65867  25.668   8.894   2.339
 6431W        W65868  21.086  33.028  11.035
 6432W        W65869  34.887  33.580   1.235
 6433W        W65870  21.202  28.523   5.229
 6434W        W65871   4.741  27.968   4.183
 6435W        W65872  38.471  17.137  13.541
 6436W        W65873  28.109  20.206  12.525
 6437W        W65874   7.889   7.883   0.375
 6438W        W65875  30.024  31.466  13.454
 6439W        W65876  38.869  43.400   3.730
 6440W        W65877   4.325   7.213   2.667
 6441W        W65878   2.825  14.675   3.331
 6442W        W65879  18.733   4.822   1.308
 6443W        W65880  29.145   5.897  10.509
 6444W        W65881  19.101   4.300  13.470
 6445W        W65882  39.057  22.531  12.953
 6446W        W65883  11.157  19.572  13.419
 6447W        W65884   2.741  42.812  12.378
 6448W        W65885  32.455   5.392   1.295
 6449W        W65886  40.333  31.428   4.785
 6450W        W65887   9.264  27.182  11.520
 6451W        W65888  36.541   0.870   2.251
 6452W        W65889  13.342   8.186  12.569
 6453W        W65890  38.900  42.022  12.041
 6454W        W65891  23.493  23.026   5.713
 6455W        W65892  13.776   7.175  13.008
 6456W        W65893   4.252  33.505  14.859
 6457W        W65894  31.635  13.221  11.999
 6458W        W65895  14.590  38.846  12.006
 6459W        W65896  26.645  31.007  11.068
 6460W        W65897  22.530  37.907  10.551
 6461W        W65898  24.482  18.201  10.528
 6462W        W65899  20.532   1.419   4.651
 6463W        W65900  24.129  31.620  11.405
 6464W        W65901  20.257  41.514  13.056
 6465W        W65902  14.299  21.029   3.735
 6466W        W65903  38.384   4.448   3.287
 6467W        W65904  39.344  24.228  11.598
 6468W        W65905  31.403   9.795   2.342
 6469W        W65906   8.364  12.768  11.061
 6470W        W65907   1.441  24.514  12.827
 6471W        W65908  20.698  42.346   2.308
 6472W        W65909  16.766  41.412  12.971
 6473W        W65910  15.722  21.160   2.197
 6474W        W65911   8.270   3.376  11.127
 6475W        W65912  30.556  20.107  12.379
 6476W        W65913  42.459   7.884   1.306
 6477W        W65914  23.109  38.044  11.393
 6478W        W65915   3.891  13.157  12.062
 6479W        W65916  30.033  44.411  14.925
 6480W        W65917   3.412   5.312  10.634
 6481W        W65918  44.874   6.223   3.278
 6482W        W65919  29.547   3.723   3.698
 6483W        W65920  12.760  21.639   2.218
 6484W        W65921   3.922  20.117  14.367
 6485W        W65922  19.716  21.728  12.876
 6486W        W65923  38.923   3.898  11.994
 6487W        W65924   9.395  38.486   2.896
 6488W        W65925  34.589  32.602   0.251
 6489W        W65926   3.734  25.975   2.853
 6490W        W65927   3.762  22.621  11.125
 6491W        W65928  11.813   3.417   9.970
 6492W        W65929  38.551  29.623  14.850
 6493W        W65930  41.965  20.537   4.139
 6494W        W65931  35.380  17.611  14.426
 6495W        W65932   8.758  29.620  14.905
 6496W        W65933   0.860  40.416   3.150
 6497W        W65934  31.086  32.099   1.288
 6498W        W65935  31.149  39.525   2.698
 6499W        W65936  28.186  25.640  12.341
 6500W        W65937  41.850   5.909  11.583
 6501W        W65938  33.418  26.597  11.594
 6502W        W65939   6.323   6.761  12.535
 6503W        W65940  24.653  23.151   0.848
 6504W        W65941   7.242  23.138   0.909
 6505W        W65942   7.797  22.096   3.204
 6506W        W65943   7.170  10.242  13.839
 6507W        W65944  17.590  40.879  13.310
 6508W        W65945  23.214  14.113   4.611
 6509W        W65946  23.693  13.626   3.216
 6510W        W65947   1.744  39.377  10.476
 6511W        W65948  11.799  36.024  13.370
 6512W        W65949  17.110  23.729  12.048
 6513W        W65950   8.770  35.582  11.575
 6514W        W65951  24.983   1.431   0.902
 6515W        W65952  20.136   0.314  14.340
 6516W        W65953  22.172  19.179  11.870
 6517W        W65954  39.471  15.681  13.362
 6518W        W65955  35.998  11.373   2.821
 6519W        W65956  27.053  21.172  13.834
 6520W        W65957   8.300  13.245  14.494
 6521W        W65958   0.430  44.384   2.693
 6522W        W65959   0.751  11.629  12.011
 6523W        W65960   5.292   3.398   3.310
 6524W        W65961  13.192  20.579  10.405
 6525W        W65962  25.645  10.778  14.426
 6526W        W65963  28.055  25.603   2.366
 6527W        W65964  12.659  41.400  13.484
 6528W        W65965  42.011  12.658  13.530
 6529W        W65966  42.984  27.152  13.450
 6530W        W65967  13.136  22.744  10.118
 6531W        W65968  30.471  39.907   4.283
 6532W        W65969  14.772  34.103  13.404
 6533W        W65970  40.859  25.985   2.257
 6534W        W65971  35.461   6.302  13.945
 6535W        W65972   4.751   9.715  10.504
 6536W        W65973  27.034   8.252  10.562
 6537W        W65974  32.545   6.814   4.660
 6538W        W65975  26.102  39.820  11.901
 6539W        W65976  39.821  42.820   2.886
 6540W        W65977  33.483  22.628   4.798
 6541W        W65978  16.277   3.444   0.281
 6542W        W65979  17.144   3.777   4.750
 6543W        W65980  23.080   0.342   0.822
 6544W        W65981  10.791  17.160  11.112
 6545W        W65982  28.453   1.237   0.439
 6546W        W65983  44.331  40.430   4.264
 6547W        W65984  20.533  18.664  12.887
 6548W        W65985  33.906  38.984   4.265
 6549W        W65986  15.792   8.183   3.272
 6550W        W65987  30.479  25.577  10.106
 6551W        W65988  31.415  31.118   4.675
 6552W        W65989  25.691   6.825  14.771
 6553W        W65990   8.700  17.585   1.792
 6554W        W65991  14.278  18.096  12.381
 6555W        W65992  43.378  11.849  14.425
 6556W        W65993  38.522  36.378   2.319
 6557W        W65994  12.654  42.474   4.634
 6558W        W65995  18.784  24.648  13.916
 6559W        W65996  38.457  18.551  12.549
 6560W        W65997   3.388  36.859  12.925
 6561W        W65998   6.703  44.363   4.345
 6562W        W65999  34.968  24.560  10.562
 6563W        W66000   7.891  20.768  11.539
 6564W        W66001   5.252  43.781  11.542
 6565W        W66002  44.958  13.800   2.718
 6566W        W66003   7.875  40.951  12.867
 6567W        W66004  32.938  39.512   2.294
 6568W        W66005  23.724  25.135   0.258
 6569W        W66006  44.423   8.187   1.314
 6570W        W66007   6.878  43.420   1.807
 6571W        W66008  18.554  42.778  12.836
 6572W        W66009  14.652  34.516   1.329
 6573W        W66010  19.702  40.320   5.144
 6574W        W66011  34.909  12.689  11.051
 6575W        W66012  19.078  24.610   0.773
 6576W        W66013  10.789  29.564  14.997
 6577W        W66014   2.755  13.277   3.187
 6578W        W66015  11.754  35.458  13.921
 6579W        W66016  26.005   8.695  13.472
 6580W        W66017  15.740  37.853   3.360
 6581W        W66018   4.750  35.950   1.801
 6582W        W66019  17.799  20.752   0.426
 6583W        W66020  10.815  43.974  12.020
 6584W        W66021   6.214   5.829  10.616
 6585W        W66022   8.162  10.858   3.763
 6586W        W66023  27.514  14.294   2.684
 6587W        W66024  17.275   2.905  10.593
 6588W        W66025   0.987  18.706   4.766
 6589W        W66026  33.085  33.622   2.404
 6590W        W66027  11.868  41.939  12.984
 6591W        W66028  44.918   8.697   4.809
 6592W        W66029   9.309   5.211  13.012
 6593W        W66030   1.801  24.695  12.885
 6594W        W66031  30.935  12.351  14.027
 6595W        W66032  40.383   9.644   0.765
 6596W        W66033   4.847   8.817  11.968
 6597W        W66034  44.339  17.241  10.532
 6598W        W66035  14.133  15.813  13.504
 6599W        W66036  34.596  14.685  13.459
 6600W        W66037  14.153   0.775   2.727
 6601W        W66038  13.303  19.605  14.811
 6602W        W66039  14.676  35.374  12.913
 6603W        W66040  24.525   8.862   1.905
 6604W        W66041   8.337   8.862  11.572
 6605W        W66042   6.919  16.165  11.945
 6606W        W66043  40.842   7.708  14.444
 6607W        W66044  42.872  38.452  10.917
 6608W        W66045  43.820   6.779   1.836
 6609W        W66046   0.763  39.055   3.338
 6610W        W66047   9.386  20.201   3.160
 6611W        W66048   7.385  40.935   3.793
 6612W        W66049  17.242  21.194  13.376
 6613W        W66050  39.037  30.995  10.955
 6614W        W66051   6.905  38.044  13.834
 6615W        W66052   1.893  42.815   4.748
 6616W        W66053  26.199  19.539   3.768
 6617W        W66054  16.086   8.771  11.387
 6618W        W66055  38.001   5.252   3.789
 6619W        W66056   9.886  19.748   0.823
 6620W        W66057  30.017  34.449  11.032
 6621W        W66058   8.761  27.182  14.758
 6622W        W66059  24.551  21.594   0.446
 6623W        W66060  38.373   6.890  12.921
 6624W        W66061  21.189  29.643  10.483
 6625W        W66062  10.320  27.570  11.890
 6626W        W66063   1.766  44.937  14.339
 6627W        W66064  24.077  17.735   0.816
 6628W        W66065  38.853  42.384  12.466
 6629W        W66066  34.453  29.148   4.764
 6630W        W66067  24.040  40.007  12.356
 6631W        W66068  28.940  12.337  14.873
 6632W        W66069  42.502  26.633   4.117
 6633W        W66070  25.162  21.736   1.708
 6634W        W66071  37.909  10.161   0.270
 6635W        W66072  44.494  23.167   5.185
 6636W        W66073  25.701   4.228   3.767
 6637W        W66074   4.868  20.149  12.412
 6638W        W66075  30.996  12.230   4.140
 6639W        W66076   7.751  19.656   2.731
 6640W        W66077  29.547   0.249  14.801
 6641W        W66078  18.756  31.095  11.529
 6642W        W66079  26.066  35.003   2.880
 6643W        W66080  20.247   2.927   2.842
 6644W        W66081  30.645  17.641  13.917
 6645W        W66082  38.879  22.074  13.418
 6646W        W66083  34.879   4.802   2.196
 6647W        W66084  26.595   3.885   0.476
 6648W        W66085  43.863  27.480   0.804
 6649W        W66086   4.244  42.487  13.402
 6650W        W66087  21.628   3.302   4.136
 6651W        W66088  28.977   5.756  14.865
 6652W        W66089  20.200  20.254   2.856
 6653W        W66090  35.380  36.506   3.706
 6654W        W66091  16.780   0.384  13.989
 6655W        W66092  35.437  22.135   4.814
 6656W        W66093  36.972   5.345   1.258
 6657W        W66094  17.273  24.612  10.417
 6658W        W66095  41.374  41.822  12.041
 6659W        W66096  21.216  12.178   1.282
 6660W        W66097  24.160  25.522  10.574
 6661W        W66098  28.092  31.957   3.684
 6662W        W66099  34.592  17.126   2.767
 6663W        W66100   3.736  26.043   0.835
 6664W        W66101  33.885  32.535  14.866
 6665W        W66102  13.310  28.034  12.876
 6666W        W66103  43.509   2.952   4.697
 6667W        W66104  37.455  25.624   4.295
 6668W        W66105   0.345   3.799   2.796
 6669W        W66106   9.240  41.455   2.389
 6670W        W66107  40.483   0.912  10.962
 6671W        W66108  20.743  41.385  14.283
 6672W        W66109  23.694   8.278   1.908
 6673W        W66110  37.348  34.915   1.871
 6674W        W66111  34.046   3.311   1.807
 6675W        W66112  23.090  10.238   4.693
 6676W        W66113  12.172  39.016   1.791
 6677W        W66114   1.756  27.608   3.840
 6678W        W66115   0.415  34.596   0.955
 6679W        W66116   8.792  23.128  14.887
 6680W        W66117   8.767  25.591   1.807
 6681W        W66118   2.388  14.637   1.360
 6682W        W66119  15.295  10.716  14.392
 6683W        W66120  16.727  37.895   9.954
 6684W        W66121  38.043  33.478   3.382
 6685W        W66122  15.691  33.513  13.022
 6686W        W66123   6.810  11.779  11.396
 6687W        W66124  30.134  27.158  10.577
 6688W        W66125  44.848  12.256   1.292
 6689W        W66126  26.109  30.090   2.299
 6690W        W66127   7.900   2.232   0.347
 6691W        W66128  19.276  21.143  11.582
 6692W        W66129   1.931   7.907   2.696
 6693W        W66130   1.794  15.706   4.148
 6694W        W66131  33.106  10.189  12.031
 6695W        W66132  13.806  15.212   0.832
 6696W        W66133  18.747   3.421   1.216
 6697W        W66134   9.274  26.665  11.493
 6698W        W66135  21.174  25.686  10.900
 6699W        W66136  25.665  16.223   5.294
 6700W        W66137  22.153  16.246  14.481
 6701W        W66138   5.359  11.189   9.565
 6702W        W66139  21.737  27.151   2.266
 6703W        W66140  35.064  26.519   1.720
 6704W        W66141  31.105   7.172  14.488
 6705W        W66142  15.616  18.161  14.287
 6706W        W66143  10.862   4.272  10.954
 6707W        W66144   4.822   6.428   3.721
 6708W        W66145  24.218  13.695   2.725
 6709W        W66146   5.280  23.996  12.464
 6710W        W66147  19.206  40.984  12.418
 6711W        W66148  29.629  16.610   4.616
 6712W        W66149  24.137  22.608   3.307
 6713W        W66150  15.139  22.533  14.453
 6714W        W66151   3.916   7.792  11.887
 6715W        W66152  12.253  31.037  12.497
 6716W        W66153  26.568   8.839   3.334
 6717W        W66154  17.249  21.723   2.895
 6718W        W66155  30.038   6.815  11.100
 6719W        W66156   6.263  10.231  11.392
 6720W        W66157   0.777  17.699  13.508
 6721W        W66158  28.082   6.414   3.727
 6722W        W66159  21.168  17.101  13.459
 6723W        W66160  32.919  14.831   3.795
 6724W        W66161  16.692  13.128   1.773
 6725W        W66162  20.085  35.391  13.359
 6726W        W66163   8.728  10.866  13.444
 6727W        W66164   7.863  28.141  10.580
 6728W        W66165  44.484  41.304  12.051
 6729W        W66166  36.001  10.186  14.361
 6730W        W66167  41.518  42.423   0.290
 6731W        W66168  38.030  14.771  11.545
 6732W        W66169  21.216  42.025  12.980
 6733W        W66170  28.499  33.039  10.569
 6734W        W66171  44.470   1.847  12.063
 6735W        W66172  32.475  19.236  12.982
 6736W        W66173  11.739   1.962  10.505
 6737W        W66174   5.197  34.560  10.921
 6738W        W66175  16.750  33.500  13.834
 6739W        W66176  42.365   3.279   3.722
 6740W        W66177   7.221   3.294  14.900
 6741W        W66178   2.810   0.471   4.745
 6742W        W66179  12.704  35.597  10.517
 6743W        W66180   3.421  19.582   3.312
 6744W        W66181  23.650  15.106  11.395
 6745W        W66182   0.427   7.818  12.341
 6746W        W66183  32.019  16.129   4.266
 6747W        W66184  43.508  43.345  10.591
 6748W        W66185  40.549   6.216  10.951
 6749W        W66186  10.322  10.188   3.675
 6750W        W66187  11.713  40.444  11.079
 6751W        W66188  20.085  29.506   4.275
 6752W        W66189  43.447  11.235   1.310
 6753W        W66190  31.608   2.835  11.524
 6754W        W66191  41.478  26.470  13.791
 6755W        W66192  25.563  21.602   1.215
 6756W        W66193  31.146  38.335   0.754
 6757W        W66194  24.118  24.081   3.705
 6758W        W66195   7.701  14.114   0.781
 6759W        W66196   5.333   2.834  14.395
 6760W        W66197  30.596  26.043  12.049
 6761W        W66198   3.918  30.493  11.420
 6762W        W66199  40.348  28.132  13.524
 6763W        W66200  32.987  37.955  10.960
 6764W        W66201   1.843  31.946  14.862
 6765W        W66202  17.760  16.643   3.684
 6766W        W66203   9.232   8.290  14.322
 6767W        W66204  32.056  21.615  14.974
 6768W        W66205  42.518  20.687  11.453
 6769W        W66206   2.314  29.636   1.434
 6770W        W66207  22.530  29.156   3.245
 6771W        W66208  15.695  16.267   3.815
 6772W        W66209  40.317  40.540   0.444
 6773W        W66210  17.066  40.025   1.848
 6774W        W66211  28.612  11.316   1.410
 6775W        W66212  10.295  17.147  11.573
 6776W        W66213  20.580  34.976  14.940
 6777W        W66214  28.469  40.480  13.858
 6778W        W66215   7.179   7.273  14.788
 6779W        W66216  18.714  44.454   0.823
 6780W        W66217  41.909  37.361  13.064
 6781W        W66218  16.761   9.802  13.059
 6782W        W66219  43.342   0.933  10.889
 6783W        W66220  11.688  13.687  11.914
 6784W        W66221  32.404  33.521  11.055
 6785W        W66222   6.254   6.776  13.918
 6786W        W66223  38.570  18.109  14.333
 6787W        W66224  23.553  19.254   4.204
 6788W        W66225  14.265  44.289   0.916
 6789W        W66226  27.185  33.000   4.200
 6790W        W66227  41.341  35.484   2.687
 6791W        W66228  10.313  32.107  11.381
 6792W        W66229   5.713  10.294  10.591
 6793W        W66230  32.503   1.374   3.302
 6794W        W66231   1.811  14.827   2.713
 6795W        W66232   5.280  38.390   1.920
 6796W        W66233  21.043  23.065  10.159
 6797W        W66234  30.412  30.651   4.165
 6798W        W66235  41.878  43.859  13.311
 6799W        W66236  19.621  25.514  14.997
 6800W        W66237  31.550  30.612  11.595
 6801W        W66238   9.777  11.291   3.347
 6802W        W66239  23.019  27.123  12.905
 6803W        W66240  17.693  12.360  11.990
 6804W        W66241  14.119  34.940   0.857
 6805W        W66242  26.626  31.556   2.873
 6806W        W66243  29.639   7.797  13.511
 6807W        W66244  43.018  44.305   5.287
 6808W        W66245  22.641   5.923   3.714
 6809W        W66246  13.344   6.324   4.709
 6810W        W66247   3.330  23.556  10.414
 6811W        W66248  41.818  43.795   3.768
 6812W        W66249  19.626  20.596   1.895
 6813W        W66250   8.894   9.192   1.713
 6814W        W66251  11.708  20.178  13.886
 6815W        W66252  31.414   2.833   0.910
 6816W        W66253  37.391  31.510   4.343
 6817W        W66254   6.214  25.602   0.367
 6818W        W66255  16.708   9.332   2.872
 6819W        W66256  28.130  30.979  10.947
 6820W        W66257  29.935  13.635  13.491
 6821W        W66258   8.302  31.495   3.200
 6822W        W66259  23.101  39.966   3.833
 6823W        W66260  43.850  33.000   0.451
 6824W        W66261  11.278   4.360   3.668
 6825W        W66262  43.486  24.520   3.629
 6826W        W66263  41.943  33.393   1.802
 6827W        W66264  18.275  44.841   3.824
 6828W        W66265  39.915  14.634  12.930
 6829W        W66266  15.786   7.817   4.351
 6830W        W66267   1.303  42.941  10.067
 6831W        W66268  21.089  35.982   3.861
 6832W        W66269  22.110  37.022  14.964
 6833W        W66270  18.664  35.993   5.186
 6834W        W66271   4.757  16.148   1.798
 6835W        W66272  28.076   0.795  12.554
 6836W        W66273   4.292  40.839  11.571
 6837W        W66274  10.208  44.265   4.815
 6838W        W66275  14.624  43.429  10.980
 6839W        W66276  40.882  24.203   2.839
 6840W        W66277  14.601   4.410   1.784
 6841W        W66278  44.334  38.948  14.410
 6842W        W66279  39.470   4.226   3.306
 6843W        W66280  24.496   7.263   3.678
 6844W        W66281  44.382   1.282   4.117
 6845W        W66282   2.391  19.588   0.774
 6846W        W66283  41.943   7.866   0.726
 6847W        W66284  24.078  40.976   1.844
 6848W        W66285  15.768  16.596   2.362
 6849W        W66286  24.517  44.485  11.920
 6850W        W66287  39.445  38.967  11.103
 6851W        W66288  27.459  37.531   1.429
 6852W        W66289  33.046  16.299  11.432
 6853W        W66290  34.986  16.129  12.559
 6854W        W66291  14.103  28.565   3.674
 6855W        W66292  38.901   0.966   2.817
 6856W        W66293  17.213  17.689   5.159
 6857W        W66294  14.252  43.446  13.410
 6858W        W66295  14.751  16.223  13.438
 6859W        W66296  11.793  16.293  10.551
 6860W        W66297  41.462  40.010   1.877
 6861W        W66298  20.154   9.349  11.971
 6862W        W66299   6.676  24.060  11.917
 6863W        W66300  31.990   0.277   3.250
 6864W        W66301  15.793  19.699  13.009
 6865W        W66302   0.447  44.841   0.957
 6866W        W66303  34.451  22.500   4.695
 6867W        W66304  21.646  23.610   0.384
 6868W        W66305  15.202  36.577  13.372
 6869W        W66306  32.985  29.010   1.738
 6870W        W66307  41.365  16.278  12.958
 6871W        W66308   4.754  44.789  14.484
 6872W        W66309  30.974   2.300  11.462
 6873W        W66310  28.108  41.043  13.950
 6874W        W66311  19.284  34.926  14.841
 6875W        W66312  38.986  32.435  14.017
 6876W        W66313  29.943  40.835   3.358
 6877W        W66314   6.287   6.306   2.668
 6878W        W66315   2.896   0.353  13.375
 6879W        W66316   2.742  38.954   4.330
 6880W        W66317  43.020  17.563  11.975
 6881W        W66318  28.516  30.036   3.707
 6882W        W66319  16.262   6.400  13.469
 6883W        W66320  22.996  30.982  10.636
 6884W        W66321  42.353  17.127  12.991
 6885W        W66322   6.741  23.090  11.983
 6886W        W66323   7.366  29.618  11.969
 6887W        W66324   2.250  17.270   2.773
 6888W        W66325  27.053  15.271  12.968
 6889W        W66326  43.427   2.293   0.404
 6890W        W66327  10.739  24.100  14.501
 6891W        W66328  33.444   0.758  14.454
 6892W        W66329  14.317  35.076  13.381
 6893W        W66330  40.024  32.054  12.526
 6894W        W66331  16.772  33.432  12.886
 6895W        W66332  42.823  30.108  13.846
 6896W        W66333  10.362  26.109  12.952
 6897W        W66334   3.808  20.273  11.401
 6898W        W66335  10.869  13.781  14.424
 6899W        W66336  11.737  42.865  14.443
 6900W        W66337  38.515  29.124   1.921
 6901W        W66338  37.870  15.591   1.777
 6902W        W66339  22.174  35.372   3.725
 6903W        W66340   1.846   8.725   3.851
 6904W        W66341  12.844  44.451  13.359
 6905W        W66342  31.634  33.107   0.260
 6906W        W66343  20.157  31.981  13.532
 6907W        W66344   1.778   5.869  10.454
 6908W        W66345   2.227  43.351  12.396
 6909W        W66346  35.930  19.664  14.948
 6910W        W66347  44.830   7.761  12.571
 6911W        W66348  21.246  39.353   4.640
 6912W        W66349  13.109  10.283  10.468
 6913W        W66350  31.435  36.478  12.905
 6914W        W66351  11.278   2.235   3.661
 6915W        W66352  20.175  37.482  10.413
 6916W        W66353  25.107  23.570  10.432
 6917W        W66354  44.956  11.738   2.869
 6918W        W66355  35.907  23.691   2.385
 6919W        W66356  44.348  40.045  14.931
 6920W        W66357  33.481   4.334  13.364
 6921W        W66358  31.112   6.807  11.962
 6922W        W66359  17.676  24.137  13.479
 6923W        W66360   0.766  20.144  11.591
 6924W        W66361  27.519  33.877   4.685
 6925W        W66362  16.746   4.300   1.340
 6926W        W66363  38.961  30.548  12.356
 6927W        W66364  23.505  29.084   2.827
 6928W        W66365  34.475  16.168  11.014
 6929W        W66366  17.281   1.817   1.750
 6930W        W66367  20.659   4.341  14.000
 6931W        W66368   3.752  10.792   0.286
 6932W        W66369   8.238  44.793  14.455
 6933W        W66370  18.102   8.306  13.032
 6934W        W66371  42.847  37.027  14.363
 6935W        W66372  22.240   7.268   1.844
 6936W        W66373  27.655   7.295   3.790
 6937W        W66374  15.602   6.423   3.242
 6938W        W66375  29.633  31.428   2.784
 6939W        W66376  29.529  26.014   4.169
 6940W        W66377   9.804  15.098   2.417
 6941W        W66378  29.015  32.892  14.962
 6942W        W66379  42.360   7.290   0.250
 6943W        W66380  13.169  33.501   3.704
 6944W        W66381  27.171  28.435  13.944
 6945W        W66382  18.671   9.884  13.516
 6946W        W66383  38.032   1.448   0.260
 6947W        W66384   9.256  30.024  13.806
 6948W        W66385  22.023  44.906  14.891
 6949W        W66386  24.516  12.145  12.403
 6950W        W66387  35.464  42.002  12.489
 6951W        W66388  20.174   6.305  11.908
 6952W        W66389  16.244   5.915  14.016
 6953W        W66390  42.971  15.263   2.736
 6954W        W66391  23.088  35.564  12.949
 6955W        W66392   9.856  44.488  13.448
 6956W        W66393  38.955   8.737   3.324
 6957W        W66394  12.656  16.604   3.287
 6958W        W66395  12.311  33.091  11.422
 6959W        W66396  22.075  22.027  12.844
 6960W        W66397  31.096  11.364   1.933
 6961W        W66398  28.063  33.544  11.016
 6962W        W66399   0.359   5.727  13.324
 6963W        W66400  40.962  12.132  13.514
 6964W        W66401  26.027  10.167   3.185
 6965W        W66402  17.292  25.050  10.104
 6966W        W66403  13.776   5.737  12.028
 6967W        W66404  26.526   3.733   3.781
 6968W        W66405  10.305  23.203  14.926
 6969W        W66406  12.801  10.143   3.276
 6970W        W66407  37.551  14.598  11.099
 6971W        W66408  39.931  20.201   1.436
 6972W        W66409  37.067  42.329  12.072
 6973W        W66410   0.466  14.182   1.381
 6974W        W66411  13.137   6.394   0.348
 6975W        W66412  12.309   2.879  12.829
 6976W        W66413  10.226  11.691   4.196
 6977W        W66414  25.570  33.019   0.271
 6978W        W66415  37.962  18.203  12.014
 6979W        W66416   0.794  25.085  12.000
 6980W        W66417  16.076   7.210   5.084
 6981W        W66418   8.819  22.746   0.331
 6982W        W66419   7.869  37.566  11.990
 6983W        W66420   2.432   2.409  12.515
 6984W        W66421  20.158  35.967   3.278
 6985W        W66422   5.807  20.052   0.382
 6986W        W66423  30.150  32.011  12.964
 6987W        W66424  38.060   2.311  14.789
 6988W        W66425   2.849  27.582   5.099
 6989W        W66426  14.590  30.160  14.822
 6990W        W66427  27.500  42.829  12.040
 6991W        W66428  23.036  20.752   5.782
 6992W        W66429  10.374   4.279   3.677
 6993W        W66430  15.781  32.885  12.887
 6994W        W66431   5.852   4.437   4.216
 6995W        W66432   6.914  31.131   1.438
 6996W        W66433   3.888  22.558  11.906
 6997W        W66434   1.817  14.292   4.156
 6998W        W66435  33.113  15.754   1.336
 6999W        W66436   8.820  31.084  13.031
 7000W        W66437   0.444   0.891  14.494
 7001W        W66438  37.919   5.415  14.318
 7002W        W66439  25.665  43.384  12.397
 7003W        W66440   1.429  21.051  14.979
 7004W        W66441  37.523  41.301  14.289
 7005W        W66442  13.643  40.400  14.391
 7006W        W66443  18.557  19.254  11.578
 7007W        W66444  42.784  32.899   1.826
 7008W        W66445   9.654  20.257  11.904
 7009W        W66446  32.530   2.904   4.615
 7010W        W66447  40.029  41.802   1.378
 7011W        W66448   1.479   7.194  10.910
 7012W        W66449  17.727  37.524  14.988
 7013W        W66450   8.890  34.404  13.003
 7014W        W66451  21.048  11.742  13.959
 7015W        W66452  34.898  22.747   5.305
 7016W        W66453  39.532  41.016   3.777
 7017W        W66454   8.404  36.521   3.328
 7018W        W66455  19.643  10.825   4.795
 7019W        W66456  28.590  36.070  11.474
 7020W        W66457   5.327  23.637   4.771
 7021W        W66458  20.054  25.585  10.491
 7022W        W66459  24.047   5.273   4.218
 7023W        W66460  23.515  42.930   2.692
 7024W        W66461  33.513   1.901  12.537
 7025W        W66462  27.019  40.850  13.930
 7026W        W66463   7.892   8.307  11.966
 7027W        W66464  19.062  16.308   2.842
 7028W        W66465  14.651  13.177   3.834
 7029W        W66466  10.334   4.823  11.997
 7030W        W66467   2.877  38.996   1.448
 7031W        W66468  18.571  13.768   0.333
 7032W        W66469  29.584  35.586  12.938
 7033W        W66470  40.524  10.305   5.193
 7034W        W66471  44.819  43.365   2.229
 7035W        W66472  13.309  15.715   2.854
 7036W        W66473  24.132  24.657  10.426
 7037W        W66474  28.600  13.186   2.196
 7038W        W66475   5.739  33.612  11.032
 7039W        W66476  42.857   9.239   2.310
 7040W        W66477  40.381  32.112  13.373
 7041W        W66478  35.976   2.280  11.461
 7042W        W66479  21.161  33.032   3.169
 7043W        W66480  42.857  27.161  14.794
 7044W        W66481  17.145   6.912   2.342
 7045W        W66482  21.555  29.487   0.427
 7046W        W66483  28.594   5.265  13.444
 7047W        W66484  24.055   0.367   4.185
 7048W        W66485  27.118  32.637   2.832
 7049W        W66486  13.278  21.100  12.996
 7050W        W66487  36.083  44.398   4.785
 7051W        W66488  28.068  41.422   2.313
 7052W        W66489  31.946  38.988   1.934
 7053W        W66490   0.415  33.413   2.845
 7054W        W66491  20.757   0.940  12.420
 7055W        W66492  10.851  44.946   2.215
 7056W        W66493  43.362  24.613  11.485
 7057W        W66494  17.198  21.049  11.372
 7058W        W66495  29.642  40.944  10.593
 7059W        W66496  19.105   4.826   2.233
 7060W        W66497   2.443  26.506   0.789
 7061W        W66498  19.679  37.362  11.095
 7062W        W66499  18.569  13.233   5.095
 7063W        W66500   0.264  34.873   2.188
 7064W        W66501  43.514  26.456  10.492
 7065W        W66502  11.344  34.927   0.847
 7066W        W66503  32.083   2.432  11.017
 7067W        W66504   6.280  40.498  11.875
 7068W        W66505  22.606   9.270  14.946
 7069W        W66506  18.162  42.371  13.009
 7070W        W66507  38.901  19.584  11.965
 7071W        W66508  24.574  15.723  14.019
 7072W        W66509   4.372   4.840   0.758
 7073W        W66510  16.306  16.296  10.957
 7074W        W66511  15.686  28.178  11.528
 7075W        W66512   7.884   3.327  13.484
 7076W        W66513  32.117  28.495  14.008
 7077W        W66514  39.813  37.964   0.402
 7078W        W66515   5.823   7.314   0.920
 7079W        W66516  34.435   5.294  13.330
 7080W        W66517  27.124   0.383  13.828
 7081W        W66518   6.845  30.475  12.526
 7082W        W66519  11.674  38.994  14.394
 7083W        W66520  41.952  30.983   4.219
 7084W        W66521  24.104  20.629   1.872
 7085W        W66522  44.771  34.577   3.270
 7086W        W66523   2.358   1.879   3.307
 7087W        W66524   5.742  20.096  13.513
 7088W        W66525   3.246   7.254   1.345
 7089W        W66526   1.295   4.417  13.979
 7090W        W66527  41.905  33.425  10.595
 7091W        W66528   5.263  25.086   2.812
 7092W        W66529  21.109  41.788  14.970
 7093W        W66530  34.877  11.150   2.831
 7094W        W66531  20.766   9.170  12.082
 7095W        W66532   2.810  20.097  11.987
 7096W        W66533   1.474  34.449  11.553
 7097W        W66534  39.444  28.668   3.648
 7098W        W66535   6.760  18.758   1.287
 7099W        W66536  11.633  13.188   0.466
 7100W        W66537  39.433  19.618  12.909
 7101W        W66538   4.702   0.488   2.223
 7102W        W66539   6.910  23.594  12.461
 7103W        W66540  17.706  40.439  11.948
 7104W        W66541  42.883  29.942  10.440
 7105W        W66542  43.909  32.124  11.383
 7106W        W66543  39.468  13.828   0.408
 7107W        W66544  13.230  43.359  13.867
 7108W        W66545   7.240   8.668   2.736
 7109W        W66546  28.003  26.019   0.952
 7110W        W66547  42.948   5.273  11.442
 7111W        W66548  28.057  31.525   3.329
 7112W        W66549  43.443  24.143  10.590
 7113W        W66550  41.518  27.572  11.487
 7114W        W66551  15.127  34.370   0.920
 7115W        W66552  24.672  30.990   4.769
 7116W        W66553  10.751   9.194  13.015
 7117W        W66554   1.869  35.364  10.585
 7118W        W66555  35.856  30.148   1.911
 7119W        W66556  29.538  21.189  14.419
 7120W        W66557  23.050  16.141  10.106
 7121W        W66558   9.698  35.545   3.243
 7122W        W66559   0.842   7.687  12.499
 7123W        W66560   4.899  39.502  13.548
 7124W        W66561  19.659  20.543   4.691
 7125W        W66562  27.945  10.674  10.453
 7126W        W66563   6.183  42.489  12.873
 7127W        W66564  11.631  38.944   1.449
 7128W        W66565  33.474  10.747   0.379
 7129W        W66566  36.528  38.467  12.405
 7130W        W66567  39.402  10.704   0.729
 7131W        W66568  39.558  38.453   2.784
 7132W        W66569  44.442  14.788  13.929
 7133W        W66570  34.478   9.760   4.312
 7134W        W66571  22.132  30.069  13.403
 7135W        W66572  11.193  20.166   0.733
 7136W        W66573  28.011  43.857  12.896
 7137W        W66574  25.145  40.987   4.702
 7138W        W66575  10.232  36.482   2.283
 7139W        W66576  27.159  33.119  11.979
 7140W        W66577  16.265  44.997  10.467
 7141W        W66578  11.293   1.380   1.448
 7142W        W66579  24.147  30.610   4.613
 7143W        W66580  41.375  21.072   4.799
 7144W        W66581   8.344   1.742   4.681
 7145W        W66582  13.668  40.501  10.095
 7146W        W66583  39.971  29.164   1.738
 7147W        W66584  31.030  38.831  10.912
 7148W        W66585  33.051   1.423  10.521
 7149W        W66586  21.686   3.852   1.922
 7150W        W66587   5.296  41.964   1.384
 7151W        W66588  23.529  15.579  11.025
 7152W        W66589  27.662  30.106   2.770
 7153W        W66590  28.984  37.084  13.334
 7154W        W66591  19.266  10.641  10.929
 7155W        W66592  19.184  39.870   3.274
 7156W        W66593  14.780  22.023  13.878
 7157W        W66594  33.118  28.022   0.472
 7158W        W66595   5.325   2.868  10.631
 7159W        W66596  44.958  14.227   4.148
 7160W        W66597  36.922   3.288  10.532
 7161W        W66598  12.281   8.359  12.482
 7162W        W66599  30.575  21.260   3.223
 7163W        W66600  32.137   8.758  11.970
 7164W        W66601   9.768  37.430   1.829
 7165W        W66602  21.565  30.445  13.885
 7166W        W66603  38.954  19.170   1.904
 7167W        W66604  42.859  10.248   4.152
 7168W        W66605  27.024   0.824   2.891
 7169W        W66606  11.823  16.183  10.154
 7170W        W66607  27.959  10.648  14.019
 7171W        W66608  15.094  31.489  12.571
 7172W        W66609   4.280  32.544  13.423
 7173W        W66610  12.335  19.186   3.716
 7174W        W66611  40.898  28.058   1.216
 7175W        W66612  28.144  35.866  10.021
 7176W        W66613  24.481   2.948   2.891
 7177W        W66614  26.002   9.849   3.195
 7178W        W66615  24.021  31.592  13.538
 7179W        W66616  35.986   6.332   4.812
 7180W        W66617  10.837  20.682  11.998
 7181W        W66618  11.700  14.591   1.933
 7182W        W66619  32.102   1.281   3.163
 7183W        W66620   7.743   9.801   1.290
 7184W        W66621  12.126   8.659  13.541
 7185W        W66622  24.693  14.787   1.751
 7186W        W66623   9.351  33.988  14.311
 7187W        W66624  26.965   4.903   3.166
 7188W        W66625  44.443  39.328   4.707
 7189W        W66626   6.417  17.306  13.409
 7190W        W66627   8.305  42.982   0.476
 7191W        W66628   6.247  34.098  11.493
 7192W        W66629  29.559  22.073  14.415
 7193W        W66630  29.523  34.914   2.792
 7194W        W66631   4.897  11.827  12.521
 7195W        W66632  28.972  30.659   4.134
 7196W        W66633  28.469   5.394  14.917
 7197W        W66634   6.746  13.200  10.419
 7198W        W66635  31.482  42.022  13.313
 7199W        W66636   9.726  13.825   1.910
 7200W        W66637  35.415  28.983  11.073
 7201W        W66638  42.439   4.386  13.386
 7202W        W66639  15.678  39.820   2.683
 7203W        W66640  36.974   2.807  11.994
 7204W        W66641  42.952  35.367   2.885
 7205W        W66642  27.965  26.055  12.569
 7206W        W66643  16.185   8.371  12.041
 7207W        W66644  15.787  28.648   0.435
 7208W        W66645  20.557  31.591  11.433
 7209W        W66646   6.281  33.581   4.261
 7210W        W66647  24.601  14.792  13.483
 7211W        W66648  37.087   9.728   3.292
 7212W        W66649  39.473  35.867   3.379
 7213W        W66650   2.363  42.818  12.403
 7214W        W66651  16.584  43.436   0.849
 7215W        W66652  39.413  44.404  12.966
 7216W        W66653  23.680   7.415  14.310
 7217W        W66654  16.652  38.372   4.637
 7218W        W66655  42.442  17.290   2.696
 7219W        W66656  17.141  33.051  13.426
 7220W        W66657  38.415  21.044   2.340
 7221W        W66658  37.386  23.501  11.878
 7222W        W66659  12.766  18.613   4.684
 7223W        W66660  44.460   0.327  14.368
 7224W        W66661  10.295  31.013  12.477
 7225W        W66662   2.271  26.537  14.404
 7226W        W66663  42.301  41.901   4.316
 7227W        W66664  15.584   4.701  13.792
 7228W        W66665  36.910  19.192   3.763
 7229W        W66666   1.438  42.503   3.331
 7230W        W66667  33.021  16.776  12.353
 7231W        W66668  42.911  42.912  14.007
 7232W        W66669  44.440  26.548   3.664
 7233W        W66670  28.014  37.996   1.924
 7234W        W66671  40.900  26.482  10.404
 7235W        W66672  33.482  32.942   0.428
 7236W        W66673  32.502   8.782  12.406
 7237W        W66674  42.946   5.428   2.355
 7238W        W66675  36.418  31.459  12.936
 7239W        W66676  34.036  39.484   4.812
 7240W        W66677  29.446  15.778   0.483
 7241W        W66678  38.980   4.741   1.810
 7242W        W66679   7.765  11.716   3.680
 7243W        W66680  17.570  36.382   1.368
 7244W        W66681  26.961  26.145   3.224
 7245W        W66682   5.892   2.465  14.505
 7246W        W66683   8.847   0.268  12.432
 7247W        W66684   1.238  35.442   1.934
 7248W        W66685  13.841  38.362   0.333
 7249W        W66686   4.338  44.848   0.764
 7250W        W66687  39.395  30.148  11.969
 7251W        W66688  36.569  26.953   1.234
 7252W        W66689   9.697  37.974   0.426
 7253W        W66690   1.971  43.961  12.528
 7254W        W66691  21.097  44.435  10.904
 7255W        W66692  44.942  16.137  14.912
 7256W        W66693  37.060  15.665  13.909
 7257W        W66694  34.007  28.595   4.181
 7258W        W66695  16.285  16.234   3.207
 7259W        W66696  18.275  29.598   1.842
 7260W        W66697  29.087  19.146   0.410
 7261W        W66698  10.693  34.613   4.642
 7262W        W66699  12.642  33.993  11.915
 7263W        W66700  14.721  26.622  12.540
 7264W        W66701  42.976  33.036   2.264
 7265W        W66702   0.847   3.840  11.938
 7266W        W66703  19.078  28.055   0.278
 7267W        W66704  20.033  22.185   2.377
 7268W        W66705  31.515   0.450   3.336
 7269W        W66706  10.704  15.777   2.394
 7270W        W66707  43.484   7.308  13.843
 7271W        W66708  12.159  21.567   0.461
 7272W        W66709  25.979  34.062   3.259
 7273W        W66710  37.946  30.136   1.814
 7274W        W66711  24.708  15.133  11.450
 7275W        W66712   6.353  10.854  13.835
 7276W        W66713   7.858  25.546   0.475
 7277W        W66714  33.106  16.235   4.719
 7278W        W66715   7.311  22.715  11.391
 7279W        W66716  12.259  33.039   1.838
 7280W        W66717   1.271  23.599  13.311
 7281W        W66718  39.929   2.228   1.221
 7282W        W66719  25.126  43.953  12.434
 7283W        W66720  38.928   3.796  11.003
 7284W        W66721  10.732  21.257   2.781
 7285W        W66722  33.602  11.662  10.433
 7286W        W66723   8.715  43.820  10.089
 7287W        W66724  18.595  20.733   1.248
 7288W        W66725  40.025  23.507  14.990
 7289W        W66726  25.999  43.421   5.090
 7290W        W66727  31.528  29.042   0.409
 7291W        W66728  40.835   0.979   3.761
 7292W        W66729  23.654  21.551   1.406
 7293W        W66730  20.263  40.410  12.389
 7294W        W66731  25.599  41.364   4.269
 7295W        W66732  17.122   8.386  10.426
 7296W        W66733  25.172   6.327  14.937
 7297W        W66734  33.966   4.210   1.283
 7298W        W66735   7.753  23.660  11.978
 7299W        W66736  23.731  27.943   3.180
 7300W        W66737  25.984  32.615  12.900
 7301W        W66738  15.624  34.463  10.520
 7302W        W66739  12.732  18.133   4.310
 7303W        W66740  18.564   7.832  12.889
 7304W        W66741   2.953  36.406  10.956
 7305W        W66742  19.762   8.368  14.840
 7306W        W66743   9.326  31.013  13.345
 7307W        W66744  40.000  10.873  12.507
 7308W        W66745  31.961  20.708  14.330
 7309W        W66746   6.807  34.910   4.771
 7310W        W66747   4.842  40.007  13.032
 7311W        W66748  24.002  13.772  11.120
 7312W        W66749  40.435  19.099   3.249
 7313W        W66750  18.700   6.257   5.089
 7314W        W66751  38.822  29.503  11.586
 7315W        W66752   1.885  30.454  14.424
 7316W        W66753  33.577  14.281   2.346
 7317W        W66754  28.638  23.118   3.175
 7318W        W66755  15.779  21.684   3.745
 7319W        W66756  27.010  26.568  14.452
 7320W        W66757  43.483  39.334   9.464
 7321W        W66758  43.511  15.793  12.832
 7322W        W66759  12.195   4.882  10.027
 7323W        W66760  38.912  21.195   2.216
 7324W        W66761   1.355  15.693  14.282
 7325W        W66762  24.091  38.930   3.691
 7326W        W66763  21.055  17.637   4.266
 7327W        W66764  20.638   7.266   3.276
 7328W        W66765  25.034  34.975   4.626
 7329W        W66766  32.943   1.895  11.084
 7330W        W66767  12.204   1.321  13.964
 7331W        W66768  29.122  44.841  11.601
 7332W        W66769   5.712  30.567  10.935
 7333W        W66770  13.765  42.946   4.271
 7334W        W66771  17.142  21.165   0.857
 7335W        W66772  32.589   1.959   1.424
 7336W        W66773   3.443  41.961  10.526
 7337W        W66774  29.569  25.710   1.420
 7338W        W66775   2.333  30.505  12.370
 7339W        W66776  11.351  21.566  11.952
 7340W        W66777  38.832  28.654  14.784
 7341W        W66778   4.394  19.180  14.496
 7342W        W66779  43.292  21.187   4.749
 7343W        W66780  31.457  20.125  13.545
 7344W        W66781   2.346   4.315  12.050
 7345W        W66782  37.981  23.521  10.552
 7346W        W66783  27.543  35.370  11.447
 7347W        W66784  29.491  39.885  13.828
 7348W        W66785  11.263  17.278  12.928
 7349W        W66786   1.242  10.836  10.478
 7350W        W66787  18.679  42.900   0.739
 7351W        W66788   2.737  32.052   2.291
 7352W        W66789  11.778  22.599  10.921
 7353W        W66790  17.135  29.168   4.295
 7354W        W66791  17.800   7.738  11.573
 7355W        W66792  23.628  36.484   0.404
 7356W        W66793  23.692   7.785  10.962
 7357W        W66794  44.866  18.070   1.394
 7358W        W66795  44.766  32.586   4.694
 7359W        W66796  36.520  34.493   0.906
 7360W        W66797  37.578  29.517  10.575
 7361W        W66798  39.809  12.215   0.464
 7362W        W66799   7.333  43.516  12.037
 7363W        W66800   6.280  25.512   0.906
 7364W        W66801  27.449   7.787   2.402
 7365W        W66802  16.203  26.179  12.380
 7366W        W66803  29.011  18.730   1.834
 7367W        W66804  43.452  12.666  12.014
 7368W        W66805  31.642   3.271  12.552
 7369W        W66806  15.134   7.279  13.313
 7370W        W66807  25.650   2.743   4.225
 7371W        W66808  39.390  11.634   3.662
 7372W        W66809   1.260  35.595   3.824
 7373W        W66810  40.042  20.220   3.325
 7374W        W66811   3.950  36.039   3.185
 7375W        W66812  11.170  29.957  10.622
 7376W        W66813  17.635  18.188   0.300
 7377W        W66814  33.992  12.675   1.224
 7378W        W66815  23.490   9.212  11.864
 7379W        W66816  33.608  36.975   3.327
 7380W        W66817   5.234  29.019   1.395
 7381W        W66818   8.688  17.737   2.829
 7382W        W66819   8.368   5.337   4.719
 7383W        W66820  34.372  43.827  10.979
 7384W        W66821  30.917  17.786   1.389
 7385W        W66822  12.249   6.886  13.027
 7386W        W66823  36.562  13.238  13.881
 7387W        W66824  33.124  36.902   5.306
 7388W        W66825  36.860  33.935   2.761
 7389W        W66826   9.667  14.787   4.147
 7390W        W66827  14.773  28.533  14.383
 7391W        W66828  27.000  27.983  14.830
 7392W        W66829  25.691  32.623  11.532
 7393W        W66830   9.223  15.282  13.821
 7394W        W66831  31.152  14.760   0.468
 7395W        W66832   4.264  22.081  11.461
 7396W        W66833  42.881  25.141  13.852
 7397W        W66834  25.662  40.051  11.977
 7398W        W66835   2.740  43.893   1.250
 7399W        W66836  15.768  19.048  11.378
 7400W        W66837   6.830  22.216  12.932
 7401W        W66838  28.115  19.283   1.439
 7402W        W66839  31.903   9.875   4.246
 7403W        W66840   2.301   9.165   0.769
 7404W        W66841  14.170  26.976  11.526
 7405W        W66842   3.760  10.243  10.933
 7406W        W66843  17.675  41.336  14.000
 7407W        W66844   5.924  10.194   1.878
 7408W        W66845   4.825  18.730   5.305
 7409W        W66846  43.780   1.318   0.874
 7410W        W66847  23.073  43.345   1.860
 7411W        W66848   6.713   4.938  11.123
 7412W        W66849  11.215  20.694  14.973
 7413W        W66850  38.454  32.468   0.831
 7414W        W66851   9.324  19.156  13.899
 7415W        W66852  11.338  24.708  13.928
 7416W        W66853  18.208   4.778   3.653
 7417W        W66854  39.448  36.483  13.531
 7418W        W66855   6.271  23.180  11.544
 7419W        W66856   5.372   9.287  12.465
 7420W        W66857  27.630  28.997  12.342
 7421W        W66858  10.691  22.118   0.296
 7422W        W66859  35.536  17.293   1.255
 7423W        W66860   2.817  31.584   0.305
 7424W        W66861  40.547  21.122  13.796
 7425W        W66862  39.825  44.492  14.935
 7426W        W66863   4.328  39.339  14.948
 7427W        W66864  11.754  27.513  13.904
 7428W        W66865   8.321   1.807   1.727
 7429W        W66866  11.313  25.990   1.849
 7430W        W66867  33.930  17.239   0.320
 7431W        W66868   5.379  21.643  11.477
 7432W        W66869  40.395  13.136   0.731
 7433W        W66870  34.044  43.018  11.120
 7434W        W66871  43.983   4.890  14.421
 7435W        W66872  32.470  16.228   1.241
 7436W        W66873   2.301  15.135  11.910
 7437W        W66874   2.852  26.679   1.222
 7438W        W66875  10.309  38.381  14.367
 7439W        W66876  39.956  18.666  12.397
 7440W        W66877  39.953   7.910   3.238
 7441W        W66878  23.701  10.145   5.146
 7442W        W66879  10.321  14.698   4.199
 7443W        W66880   0.763  37.998  12.888
 7444W        W66881  10.200  12.291  11.982
 7445W        W66882   6.392   0.489   3.310
 7446W        W66883  20.265   3.411  14.306
 7447W        W66884   2.963  14.673   0.849
 7448W        W66885  29.489   0.338  13.037
 7449W        W66886  32.469  35.904  13.801
 7450W        W66887   4.765  19.107   4.244
 7451W        W66888   0.321  34.477  13.508
 7452W        W66889  44.896  15.181  14.357
 7453W        W66890  32.634  14.638  14.326
 7454W        W66891   2.267  16.596  14.404
 7455W        W66892   9.243  33.407  11.560
 7456W        W66893   6.193  37.410  11.067
 7457W        W66894  27.146  21.743   1.231
 7458W        W66895  26.593  20.145  13.308
 7459W        W66896  25.677  32.909   1.421
 7460W        W66897  24.566   3.836   4.759
 7461W        W66898   3.744  19.109  14.013
 7462W        W66899  37.458  32.033  10.450
 7463W        W66900   3.394  13.634  11.538
 7464W        W66901  11.366   6.917  14.858
 7465W        W66902  27.129   5.260  11.031
 7466W        W66903  43.822  39.537   4.152
 7467W        W66904   3.722  37.425  13.515
 7468W        W66905  39.950  43.017   2.210
 7469W        W66906  40.909  36.933  14.416
 7470W        W66907   8.672  41.910   1.252
 7471W        W66908  37.947  18.291  10.965
 7472W        W66909  44.930  21.619   4.157
 7473W        W66910  34.549   9.807   0.402
 7474W        W66911  39.539  41.834   0.851
 7475W        W66912   5.306  43.011  12.539
 7476W        W66913  13.651  43.501   4.608
 7477W        W66914  35.908  24.108   4.152
 7478W        W66915  23.207  44.915  13.414
 7479W        W66916  36.461  15.110   4.129
 7480W        W66917  17.173  22.249   2.321
 7481W        W66918  15.305  38.489   1.720
 7482W        W66919  30.635  16.794  14.363
 7483W        W66920   5.219   9.850  10.552
 7484W        W66921   5.361  32.024  10.609
 7485W        W66922  10.698  31.546  13.530
 7486W        W66923  33.101  26.184   2.897
 7487W        W66924  24.219  10.338   4.685
 7488W        W66925  10.771  24.552  12.846
 7489W        W66926  22.632  19.055   1.434
 7490W        W66927  36.934  21.591  14.422
 7491W        W66928  22.088  16.677  12.896
 7492W        W66929  42.975  21.229  12.347
 7493W        W66930  34.031   0.275   2.824
 7494W        W66931   3.836  41.300  13.423
 7495W        W66932  42.394   1.794   4.279
 7496W        W66933  20.637  39.918   4.158
 7497W        W66934  25.992  23.656   4.207
 7498W        W66935  35.482   9.865  13.439
 7499W        W66936  44.951  31.965  10.152
 7500W        W66937   0.385  28.464  11.978
 7501W        W66938  20.042  28.621   4.205
 7502W        W66939  17.203  45.000  10.622
 7503W        W66940  37.406  35.958  10.425
 7504W        W66941   8.265  28.504  13.005
 7505W        W66942  27.642  31.578   3.337
 7506W        W66943  18.171   2.227  10.901
 7507W        W66944   2.412   6.389   4.171
 7508W        W66945  44.332  33.395   3.863
 7509W        W66946   2.318  38.872   3.787
 7510W        W66947  16.157  25.965  12.870
 7511W        W66948  33.890  10.746   3.308
 7512W        W66949  32.595  26.665   2.297
 7513W        W66950  14.259  27.600  10.972
 7514W        W66951  17.608  33.485  12.899
 7515W        W66952   5.752  41.474   0.948
 7516W        W66953  20.572  25.965  11.107
 7517W        W66954  18.113  18.227  11.589
 7518W        W66955  35.037  32.044   5.110
 7519W        W66956  37.879  20.596   1.335
 7520W        W66957  37.996  41.995  11.415
 7521W        W66958  28.090  23.233  10.527
 7522W        W66959   9.884  34.110  10.515
 7523W        W66960  28.137  40.964   1.717
 7524W        W66961  20.728  36.423  13.438
 7525W        W66962  40.851  36.575  14.320
 7526W        W66963   5.919  28.168   5.754
 7527W        W66964  37.437  13.336  11.411
 7528W        W66965  24.120   5.832   0.930
 7529W        W66966   2.386  34.532   1.884
 7530W        W66967  29.475  44.407  11.415
 7531W        W66968  40.053  28.598  13.401
 7532W        W66969  22.128  29.148  13.878
 7533W        W66970   5.231  39.939  14.506
 7534W        W66971  15.112  14.259  11.901
 7535W        W66972  13.639  16.205   0.838
 7536W        W66973  28.987  33.452  13.363
 7537W        W66974  32.622   5.385   0.806
 7538W        W66975  29.931  32.454  12.413
 7539W        W66976   6.897   4.426  14.935
 7540W        W66977   8.889   2.416   1.911
 7541W        W66978   0.394  32.489  11.906
 7542W        W66979  24.148  30.453   2.722
 7543W        W66980  15.650  42.956   2.396
 7544W        W66981  37.898  35.556  14.321
 7545W        W66982  20.652  14.222   2.272
 7546W        W66983  31.102   4.937   3.387
 7547W        W66984   0.281   6.861  13.985
 7548W        W66985  40.481  25.120  11.933
 7549W        W66986   6.903  11.867   1.385
 7550W        W66987  12.209   6.267  11.490
 7551W        W66988   8.402  36.981  10.409
 7552W        W66989   2.403  17.265   9.946
 7553W        W66990  20.047  29.661  12.965
 7554W        W66991  34.613  15.305  10.565
 7555W        W66992  37.578  35.493  13.984
 7556W        W66993  42.924  34.017   1.376
 7557W        W66994  17.779  31.922   2.823
 7558W        W66995   4.450  31.523   0.860
 7559W        W66996  44.489  13.846  11.509
 7560W        W66997  18.759  14.229  10.510
 7561W        W66998  11.627  13.726  12.880
 7562W        W66999  26.067   5.238   3.722
 7563W        W67000  20.159  11.363   3.635
 7564W        W67001   4.367  30.011  14.430
 7565W        W67002  41.331  24.163  12.855
 7566W        W67003  38.969  40.474   4.613
 7567W        W67004  33.877  40.942  14.300
 7568W        W67005  27.046  19.106   2.328
 7569W        W67006   6.724  35.967   3.732
 7570W        W67007  27.017  22.105   4.188
 7571W        W67008  12.810  23.128   3.666
 7572W        W67009  30.573  38.846   3.700
 7573W        W67010  25.661  34.489   2.239
 7574W        W67011   8.687  44.818   2.766
 7575W        W67012  26.523  44.468  14.779
 7576W        W67013  34.990   7.178   4.634
 7577W        W67014  32.522  18.673  12.049
 7578W        W67015  32.624  40.940   0.820
 7579W        W67016   6.195  17.665  10.475
 7580W        W67017  28.086  12.242  13.500
 7581W        W67018  30.950   3.437  10.507
 7582W        W67019   9.857  20.234  13.820
 7583W        W67020  22.996   2.425   4.786
 7584W        W67021  12.189  26.698  10.470
 7585W        W67022   8.784   1.466  10.934
 7586W        W67023  15.246  28.675   0.867
 7587W        W67024  24.060  39.011  13.934
 7588W        W67025   1.858  28.483  14.302
 7589W        W67026  29.021  13.822   0.822
 7590W        W67027  17.651  38.913   4.640
 7591W        W67028  30.492  28.609   2.324
 7592W        W67029   7.728  24.672  14.507
 7593W        W67030   5.250  22.103  11.916
 7594W        W67031  31.024  43.350   2.195
 7595W        W67032   2.881  20.159   3.227
 7596W        W67033   5.308   1.879   2.352
 7597W        W67034  38.552  28.933  14.438
 7598W        W67035  13.780  32.507   4.817
 7599W        W67036  43.292  19.663  13.368
 7600W        W67037   5.879  42.413   1.307
 7601W        W67038  34.587  42.450  14.928
 7602W        W67039  41.495  44.011   1.716
 7603W        W67040  34.069  37.011   5.311
 7604W        W67041  10.870  21.192  11.415
 7605W        W67042  16.616  12.679  13.515
 7606W        W67043  24.725  40.460   2.691
 7607W        W67044   6.290   4.834  10.505
 7608W        W67045   1.460  21.721  13.882
 7609W        W67046  39.887   3.272   3.343
 7610W        W67047   1.332  16.585  12.954
 7611W        W67048  13.742  21.023   3.766
 7612W        W67049  12.775  33.105  10.966
 7613W        W67050  31.423  34.912  12.551
 7614W        W67051  35.585  37.977  12.001
 7615W        W67052  25.660  26.960  13.017
 7616W        W67053  22.544  15.251   4.613
 7617W        W67054  11.329  15.148  14.283
 7618W        W67055  14.608   4.774   1.220
 7619W        W67056  14.273   8.810  14.409
 7620W        W67057  33.432  17.108   0.327
 7621W        W67058  34.562   8.870  11.954
 7622W        W67059  18.712  14.822  11.593
 7623W        W67060  20.206   8.838  14.857
 7624W        W67061  26.470  15.329  10.507
 7625W        W67062  31.516  12.321  12.842
 7626W        W67063  28.508   6.383   2.817
 7627W        W67064  34.502  24.568   4.242
 7628W        W67065   8.395   0.391  11.453
 7629W        W67066  15.696  34.094   3.768
 7630W        W67067  26.158   8.839   5.104
 7631W        W67068  12.745  18.727   0.854
 7632W        W67069  27.630  21.540   1.902
 7633W        W67070  16.218   5.688  10.919
 7634W        W67071   8.870  33.949   4.824
 7635W        W67072  28.662  37.496   2.337
 7636W        W67073  35.594  35.536   3.319
 7637W        W67074  31.959  35.383  12.457
 7638W        W67075   9.820  32.469   2.689
 7639W        W67076  23.642  10.750   9.970
 7640W        W67077  29.458   8.684  10.417
 7641W        W67078  36.955   8.229  12.472
 7642W        W67079  38.019  11.692   1.348
 7643W        W67080  14.736   7.668  13.871
 7644W        W67081  18.769  32.443   1.243
 7645W        W67082   9.853   6.185  14.939
 7646W        W67083  43.414  30.593   0.808
 7647W        W67084  17.125  36.903  14.361
 7648W        W67085  24.633  12.764  12.540
 7649W        W67086  44.982  29.984   1.835
 7650W        W67087  35.437  22.567  14.769
 7651W        W67088  40.327  22.130  12.046
 7652W        W67089  44.287  22.995   0.406
 7653W        W67090  12.770   9.667   4.146
 7654W        W67091  35.379  11.747  13.330
 7655W        W67092   5.265  31.643  11.984
 7656W        W67093   0.414  30.156   2.865
 7657W        W67094  24.149   9.864   2.390
 7658W        W67095  10.232  28.549   1.878
 7659W        W67096  12.229  25.572   4.639
 7660W        W67097  15.259  26.645   2.218
 7661W        W67098  30.498  19.552   3.703
 7662W        W67099  35.077   2.277  13.021
 7663W        W67100  34.001   0.893  14.398
 7664W        W67101  31.128  30.654  12.917
 7665W        W67102  13.223  25.205  12.468
 7666W        W67103  18.586  22.228  14.857
 7667W        W67104  39.053  19.735  12.931
 7668W        W67105   2.818  41.920   2.744
 7669W        W67106  21.149  41.019  10.505
 7670W        W67107  20.199  19.639   3.798
 7671W        W67108  15.272  33.987   3.301
 7672W        W67109  37.507  31.943  13.846
 7673W        W67110   1.973  20.706   1.447
 7674W        W67111  43.313  23.573   0.900
 7675W        W67112   1.930  37.524   3.159
 7676W        W67113  11.781  22.077  11.381
 7677W        W67114  18.724  15.156   2.844
 7678W        W67115  22.744   5.876  10.140
 7679W        W67116  26.202  39.509   0.873
 7680W        W67117  44.790  24.170   3.646
 7681W        W67118  41.485  29.477   4.818
 7682W        W67119   4.331  23.226  14.896
 7683W        W67120  42.836  29.493  14.838
 7684W        W67121   8.366  27.518  12.069
 7685W        W67122  15.658  13.629  11.896
 7686W        W67123   2.898  29.446  12.858
 7687W        W67124  18.747  24.497   0.292
 7688W        W67125  17.110  12.295  14.413
 7689W        W67126  43.495  35.022  14.966
 7690W        W67127   4.309   7.679   4.606
 7691W        W67128  21.550  43.798  13.006
 7692W        W67129   9.670  30.116   3.640
 7693W        W67130  39.951  40.863   1.856
 7694W        W67131  34.864   0.789   2.872
 7695W        W67132  22.520  16.266  12.952
 7696W        W67133  30.944  17.237   9.991
 7697W        W67134  27.976  44.875  14.773
 7698W        W67135  40.815  32.917  14.946
 7699W        W67136  10.757  41.007  14.299
 7700W        W67137  22.622  24.570   1.273
 7701W        W67138  41.932  27.499  12.026
 7702W        W67139  34.517  34.897  12.888
 7703W        W67140  42.801  14.681  14.008
 7704W        W67141  25.985  13.756  10.931
 7705W        W67142  41.031  29.044  11.073
 7706W        W67143  33.028  41.975  13.064
 7707W        W67144  31.897   8.390  13.011
 7708W        W67145   7.874   5.899  13.934
 7709W        W67146  30.601  29.487  12.349
 7710W        W67147   4.784  25.013   3.836
 7711W        W67148  38.482   8.787   1.840
 7712W        W67149   8.352  33.468   4.235
 7713W        W67150  27.609  38.983  13.343
 7714W        W67151  18.553  13.138   2.798
 7715W        W67152  42.910  28.185   4.659
 7716W        W67153  34.036  12.361  14.989
 7717W        W67154  26.109  18.202   0.480
 7718W        W67155  20.257   0.822  14.354
 7719W        W67156  10.221  44.799  13.013
 7720W        W67157  43.974  20.720   3.658
 7721W        W67158  36.448  43.958  11.877
 7722W        W67159  40.364  28.559   3.675
 7723W        W67160  18.709  32.559   2.785
 7724W        W67161   8.166  18.109   0.930
 7725W        W67162   8.823  20.724  12.824
 7726W        W67163   1.752  22.528  14.376
 7727W        W67164  12.334  44.828   3.387
 7728W        W67165   2.417  44.289  12.522
 7729W        W67166  44.983  36.565  12.557
 7730W        W67167   6.416  38.423   4.717
 7731W        W67168   5.247  40.910   0.889
 7732W        W67169  13.721  38.907   0.386
 7733W        W67170  19.547   1.272  11.870
 7734W        W67171  15.088  21.569   1.889
 7735W        W67172  37.907  24.666  14.863
 7736W        W67173   4.395  42.903  12.368
 7737W        W67174  26.544  33.059  14.291
 7738W        W67175  34.951  20.219  11.528
 7739W        W67176   3.711  18.126   4.184
 7740W        W67177  30.950  17.795  12.415
 7741W        W67178  42.331   8.366   0.846
 7742W        W67179   0.377  41.028  14.847
 7743W        W67180   7.341  12.740   4.130
 7744W        W67181   4.361  38.561  10.964
 7745W        W67182  38.031  36.574  11.886
 7746W        W67183  32.059  25.679   1.408
 7747W        W67184  35.069   1.778   3.245
 7748W        W67185  38.348  27.615   0.407
 7749W        W67186   3.358  36.506   2.336
 7750W        W67187   5.735  18.087   4.731
 7751W        W67188  28.615   5.728  11.421
 7752W        W67189  24.130  23.497  11.902
 7753W        W67190  35.106  18.211  12.429
 7754W        W67191  33.476  28.501  11.041
 7755W        W67192  34.401   6.889   2.859
 7756W        W67193  16.752  23.995   3.688
 7757W        W67194  42.973  26.516  12.956
 7758W        W67195  36.411  32.974   1.267
 7759W        W67196  27.519   3.396  13.882
 7760W        W67197  40.917  38.952   0.919
 7761W        W67198   7.875   1.800   5.174
 7762W        W67199  10.307   7.368   2.349
 7763W        W67200  35.906  25.992   2.413
 7764W        W67201  16.189  16.083   0.433
 7765W        W67202  23.102  16.105  12.876
 7766W        W67203   8.356  36.568   1.743
 7767W        W67204  14.112  30.951  13.435
 7768W        W67205  42.461  30.437   2.227
 7769W        W67206  34.374  28.119   1.772
 7770W        W67207   1.957  17.801   9.528
 7771W        W67208  20.267   8.325   0.263
 7772W        W67209   2.347  36.912   5.313
 7773W        W67210  22.557  14.668  10.622
 7774W        W67211   4.714  36.520   4.155
 7775W        W67212  12.187   9.260   3.370
 7776W        W67213  44.906  43.888  12.007
 7777W        W67214  25.517  35.071   1.340
 7778W        W67215  17.176  43.418  10.474
 7779W        W67216  30.953  39.821  13.017
 7780W        W67217   0.487  24.590  10.959
 7781W        W67218  25.015  17.725  13.843
 7782W        W67219  17.107  16.183   0.854
 7783W        W67220  17.613  15.727   3.695
 7784W        W67221  19.663  33.533   4.622
 7785W        W67222  12.353   7.255   4.181
 7786W        W67223  42.333  31.538   4.819
 7787W        W67224  10.650  36.002  11.486
 7788W        W67225  22.671   8.671  12.058
 7789W        W67226  15.163  18.619  14.025
 7790W        W67227  34.408   9.695   3.665
 7791W        W67228  44.496   9.165  10.920
 7792W        W67229  26.095  23.613   3.634
 7793W        W67230  19.537  37.936  13.957
 7794W        W67231  39.933  27.943   0.792
 7795W        W67232  19.189   4.908   1.771
 7796W        W67233  38.363  24.661   1.259
 7797W        W67234  42.958  44.389  12.856
 7798W        W67235  38.369   9.696  10.557
 7799W        W67236   6.689  23.040  12.365
 7800W        W67237  17.076  11.645   0.741
 7801W        W67238  27.165   0.853  10.927
 7802W        W67239  28.183  36.857  12.508
 7803W        W67240   7.671  32.095   0.315
 7804W        W67241  20.066  32.587  13.332
 7805W        W67242  27.475  34.460   4.198
 7806W        W67243  38.847  34.519  10.438
 7807W        W67244   7.232  32.122  11.921
 7808W        W67245  28.488  24.076   3.703
 7809W        W67246  28.971  10.866   1.874
 7810W        W67247   1.834   4.448   1.254
 7811W        W67248  34.085  23.499  11.912
 7812W        W67249   5.412   2.741   1.217
 7813W        W67250   1.853  36.955   0.263
 7814W        W67251  20.144  20.038   1.341
 7815W        W67252  20.142  27.123  13.976
 7816W        W67253  12.782  17.788  10.553
 7817W        W67254  40.857  37.447  13.351
 7818W        W67255  16.590  33.573   2.811
 7819W        W67256  12.341  31.125  13.431
 7820W        W67257   3.886  40.411  13.920
 7821W        W67258  43.836  28.013   1.806
 7822W        W67259  16.105   3.884  12.917
 7823W        W67260  11.679  16.689   3.380
 7824W        W67261  42.457  42.886  13.489
 7825W        W67262  16.175  20.540  14.017
 7826W        W67263  18.696   8.794  13.456
 7827W        W67264  10.738   4.320  12.523
 7828W        W67265  37.350   3.738  13.998
 7829W        W67266  32.564  31.583   3.713
 7830W        W67267  38.551  11.658  14.498
 7831W        W67268  23.129  36.096   3.838
 7832W        W67269  23.583   7.714  13.538
 7833W        W67270  35.431  12.215  14.898
 7834W        W67271   9.235  42.946   1.354
 7835W        W67272   6.859  31.403   2.379
 7836W        W67273  40.538  12.325  14.454
 7837W        W67274   7.365  33.473   5.168
 7838W        W67275   5.821   0.368   4.770
 7839W        W67276  15.799  20.759   2.383
 7840W        W67277  13.717  44.974   4.347
 7841W        W67278  22.588  37.447  14.941
 7842W        W67279   4.824  40.355  10.948
 7843W        W67280  39.988  12.740  13.008
 7844W        W67281   6.843  24.546   2.200
 7845W        W67282  32.105  43.953  10.035
 7846W        W67283   3.785  16.753  13.845
 7847W        W67284   4.925  36.454  14.294
 7848W        W67285   7.804   5.758   3.305
 7849W        W67286  34.945  17.151  10.053
 7850W        W67287   4.269  32.125   2.337
 7851W        W67288  16.276  32.508  10.579
 7852W        W67289  17.248  30.072   4.133
 7853W        W67290  24.227   9.779   0.454
 7854W        W67291  43.444  18.657  12.529
 7855W        W67292  33.496   9.222   4.277
 7856W        W67293   6.820   4.367  11.003
 7857W        W67294   2.808  23.146  13.015
 7858W        W67295  39.969  37.970  14.368
 7859W        W67296  30.552  35.046   2.666
 7860W        W67297   1.914  28.634   0.369
 7861W        W67298  32.140  20.182   3.736
 7862W        W67299  33.079   3.907   3.737
 7863W        W67300  25.104  22.123  11.932
 7864W        W67301  22.697  39.984  13.859
 7865W        W67302  28.066  20.698   0.373
 7866W        W67303  21.552   4.878   1.307
 7867W        W67304  38.970  22.655   2.361
 7868W        W67305  10.212   7.263   0.453
 7869W        W67306   0.837  41.428   4.808
 7870W        W67307  38.863   9.289  13.433
 7871W        W67308  30.444   6.863  13.044
 7872W        W67309  26.956  11.729   2.788
 7873W        W67310  16.122   1.964  11.083
 7874W        W67311  31.611  29.103   0.871
 7875W        W67312  24.531  23.035  11.867
 7876W        W67313  16.093   3.732  14.399
 7877W        W67314  16.169  27.019  14.408
 7878W        W67315   5.260  12.679  10.594
 7879W        W67316  29.126  32.088   0.358
 7880W        W67317  43.953  19.086   4.311
 7881W        W67318  42.028  21.667   1.348
 7882W        W67319  43.338  36.402   1.339
 7883W        W67320  13.199  10.332  10.920
 7884W        W67321  11.250   3.324  14.887
 7885W        W67322  22.182  30.563  11.445
 7886W        W67323  43.450  38.483  11.971
 7887W        W67324  21.150  37.400  12.948
 7888W        W67325   2.302   5.690   3.767
 7889W        W67326  34.430   6.269  13.338
 7890W        W67327  33.603  18.078   1.227
 7891W        W67328  32.916  35.856  12.500
 7892W        W67329  19.671  27.036  10.901
 7893W        W67330  33.463  19.572  13.345
 7894W        W67331  42.853  37.510   3.385
 7895W        W67332  33.115   3.425  11.950
 7896W        W67333  41.372  11.151  11.094
 7897W        W67334   0.487  17.229  11.394
 7898W        W67335   6.263  36.529   4.635
 7899W        W67336  32.090  27.134  12.050
 7900W        W67337  26.086  28.456  13.466
 7901W        W67338  32.567   9.210  14.368
 7902W        W67339  12.155  17.634  13.003
 7903W        W67340  36.084  34.091  11.441
 7904W        W67341  33.522  44.947  14.828
 7905W        W67342   3.279  13.283   2.700
 7906W        W67343  37.552  44.319   1.241
 7907W        W67344  19.581  40.487  10.156
 7908W        W67345  24.169  33.010   1.881
 7909W        W67346   1.240  41.829  14.798
 7910W        W67347  15.327  15.781   4.240
 7911W        W67348  22.239  38.435   4.650
 7912W        W67349  19.548  33.483  11.021
 7913W        W67350   2.230   0.464  14.889
 7914W        W67351  44.849  33.080   9.956
 7915W        W67352  38.437  36.355  13.487
 7916W        W67353   6.189  11.696   4.657
 7917W        W67354  42.012  41.835  13.790
 7918W        W67355  20.769   4.819  12.355
 7919W        W67356   4.437  23.494   2.328
 7920W        W67357   2.938  35.102  13.053
 7921W        W67358  28.616  30.655   1.274
 7922W        W67359  18.701  30.426  14.812
 7923W        W67360   1.887  15.098   0.405
 7924W        W67361   4.416  36.535   2.815
 7925W        W67362  33.604  20.160  13.893
 7926W        W67363  32.992  34.416   4.782
 7927W        W67364  32.090  22.023   4.179
 7928W        W67365  10.320  39.854  12.848
 7929W        W67366   8.219   2.900  13.509
 7930W        W67367  24.537   9.330   0.384
 7931W        W67368  20.532  35.110  12.378
 7932W        W67369  21.235   1.804   1.417
 7933W        W67370  10.809  14.207  13.862
 7934W        W67371  35.869  18.639  13.911
 7935W        W67372  36.895  13.656  13.529
 7936W        W67373  16.672  21.076  13.321
 7937W        W67374  39.977  23.580   1.327
 7938W        W67375  25.475  38.066   5.762
 7939W        W67376  13.797  38.936   4.758
 7940W        W67377  10.834  21.519  13.924
 7941W        W67378  42.985  30.603  14.767
 7942W        W67379   5.715  21.153  10.909
 7943W        W67380  31.630  12.139   3.294
 7944W        W67381   2.249  10.154  14.490
 7945W        W67382  19.149  15.755  13.880
 7946W        W67383  10.679  34.977  12.563
 7947W        W67384  44.871   7.795   4.750
 7948W        W67385  12.679  42.331   0.835
 7949W        W67386  13.795  12.783   2.277
 7950W        W67387   1.826  13.132   0.769
 7951W        W67388  14.814   2.897   1.281
 7952W        W67389  31.600  35.028   2.805
 7953W        W67390   1.274  32.401  11.061
 7954W        W67391  12.252  43.467  13.791
 7955W        W67392   8.350  12.631   4.241
 7956W        W67393  44.438  30.975  10.146
 7957W        W67394  32.591  28.153   4.251
 7958W        W67395   0.769  37.412  13.975
 7959W        W67396  29.133  20.054   1.337
 7960W        W67397  12.216  18.206   0.312
 7961W        W67398  30.572  42.381   2.902
 7962W        W67399  36.045   6.758  14.998
 7963W        W67400  23.006   0.384  10.500
 7964W        W67401   6.835  27.483   1.245
 7965W        W67402  33.439  18.218  13.815
 7966W        W67403  40.333   5.806  13.503
 7967W        W67404  21.655   7.205   4.254
 7968W        W67405   6.836  39.516  10.584
 7969W        W67406  35.924  21.232  14.005
 7970W        W67407   0.468  10.706   1.751
 7971W        W67408  30.085   2.339   0.872
 7972W        W67409  19.134  13.342   0.419
 7973W        W67410   1.415   0.961   4.651
 7974W        W67411   6.230  29.456   9.986
 7975W        W67412  11.674   0.964   2.738
 7976W        W67413  38.974   6.203   4.225
 7977W        W67414   0.312   1.844   4.285
 7978W        W67415  12.795   2.948   1.711
 7979W        W67416  13.113  30.637   2.788
 7980W        W67417  13.149  43.302  13.000
 7981W        W67418  13.277  14.300  14.912
 7982W        W67419   6.208   1.785   1.786
 7983W        W67420  32.621  31.053  14.426
 7984W        W67421  44.274   7.265   4.266
 7985W        W67422  17.559  32.492  12.496
 7986W        W67423   2.833  32.578  11.574
 7987W        W67424  33.573  24.044  13.407
 7988W        W67425  33.125  17.729  13.039
 7989W        W67426   5.257  16.663  13.469
 7990W        W67427  34.416   9.710  14.352
 7991W        W67428  44.995  11.372  11.089
 7992W        W67429   6.893  11.150  11.402
 7993W        W67430   7.197   1.743  11.051
 7994W        W67431  33.501   7.781  11.466
 7995W        W67432  21.692  28.060  11.384
 7996W        W67433  41.908  21.053   1.383
 7997W        W67434  26.183  27.643   4.123
 7998W        W67435  22.737  44.466  11.494
 7999W        W67436  27.578   6.222  13.006
 8000W        W67437  10.636  12.156  13.821
 8001W        W67438  30.650  20.143   1.711
 8002W        W67439  40.041  21.673   2.722
 8003W        W67440  39.942   1.448  11.373
 8004W        W67441   0.445  19.124  12.033
 8005W        W67442   9.679  11.248   1.715
 8006W        W67443  16.810  20.174  13.837
 8007W        W67444  28.181  10.723  12.392
 8008W        W67445  13.774  33.978   3.363
 8009W        W67446   0.254  26.463   1.272
 8010W        W67447  44.774  28.096  13.361
 8011W        W67448  21.672  38.342  10.160
 8012W        W67449  10.705   4.919  10.932
 8013W        W67450   9.807  28.616   0.343
 8014W        W67451  12.769  17.077  13.790
 8015W        W67452  15.320  16.686   4.237
 8016W        W67453  24.220  18.636  13.401
 8017W        W67454   0.290   6.703   3.256
 8018W        W67455  36.850  11.734   1.279
 8019W        W67456  41.462  26.970  12.841
 8020W        W67457  42.017  41.872   2.363
 8021W        W67458  22.152  13.311   4.184
 8022W        W67459  15.695  25.489  12.885
 8023W        W67460  23.583  30.050  10.599
 8024W        W67461   3.431  11.856  11.891
 8025W        W67462  43.460  21.152   2.335
 8026W        W67463   0.893  16.168   1.405
 8027W        W67464  35.482  25.479  10.583
 8028W        W67465  37.860  44.388   3.784
 8029W        W67466  30.520   0.338   2.664
 8030W        W67467  44.271  42.874  13.861
 8031W        W67468  19.714  23.241   2.180
 8032W        W67469   0.747   2.929   0.905
 8033W        W67470  29.459   4.331   2.418
 8034W        W67471  27.650  20.687   2.385
 8035W        W67472  32.963  38.897  11.966
 8036W        W67473  15.302  42.448   3.641
 8037W        W67474  36.902  18.284   1.254
 8038W        W67475   9.820  18.698   4.263
 8039W        W67476  22.055  11.714   9.948
 8040W        W67477   3.730  10.683  12.561
 8041W        W67478  12.278  12.722  10.482
 8042W        W67479  19.229  14.277  11.961
 8043W        W67480  10.300  42.304  14.426
 8044W        W67481  14.794  16.599   3.365
 8045W        W67482  21.712  31.109  14.990
 8046W        W67483  44.881  10.360   4.646
 8047W        W67484  34.020  28.504   3.707
 8048W        W67485   7.686  22.652  11.429
 8049W        W67486  42.299  18.756   2.410
 8050W        W67487  38.399  22.702  13.877
 8051W        W67488   3.922  38.527   2.247
 8052W        W67489   0.958  11.676  11.468
 8053W        W67490  18.667  27.079  11.950
 8054W        W67491  29.498  33.950  12.025
 8055W        W67492  16.659  31.434  11.940
 8056W        W67493  36.375  11.817   4.298
 8057W        W67494  39.480  15.630   4.677
 8058W        W67495  41.414  15.279   0.415
 8059W        W67496  43.295  34.993   5.751
 8060W        W67497   5.351   8.734   3.752
 8061W        W67498  16.610   2.334  14.862
 8062W        W67499  17.671  36.886   2.268
 8063W        W67500  39.413  38.995   4.726
 8064W        W67501  40.848  34.418  14.413
 8065W        W67502  25.628  21.047  10.634
 8066W        W67503   8.669  36.985   2.187
 8067W        W67504  14.630  28.173   4.244
 8068W        W67505  29.460  32.110   0.289
 8069W        W67506  12.852  17.679   0.387
 8070W        W67507  41.439  36.506   2.398
 8071W        W67508  19.121   0.273   2.751
 8072W        W67509  40.989  24.093   4.349
 8073W        W67510  21.747  38.368  11.391
 8074W        W67511   0.817  10.161  13.837
 8075W        W67512  13.686  33.953   4.199
 8076W        W67513  11.341  15.278   3.364
 8077W        W67514  38.823  37.363  12.436
 8078W        W67515   4.415  15.185   1.705
 8079W        W67516  43.929  25.643  10.618
 8080W        W67517  30.071  25.079   2.256
 8081W        W67518  36.537  22.713   0.372
 8082W        W67519  21.231   4.780  12.377
 8083W        W67520   5.428   2.373   3.162
 8084W        W67521  21.043  30.529   4.269
 8085W        W67522  37.486  43.378  14.404
 8086W        W67523  35.070  13.747   0.861
 8087W        W67524  36.485  31.071  13.467
 8088W        W67525  16.621   3.376   0.884
 8089W        W67526  38.000   1.838  13.877
 8090W        W67527  11.835  20.213   2.253
 8091W        W67528  24.034  13.160   3.792
 8092W        W67529   8.810  28.079   1.212
 8093W        W67530  25.676  40.445   4.632
 8094W        W67531  38.368  14.164  12.390
 8095W        W67532  23.999  16.691   2.301
 8096W        W67533  15.594  36.063   4.257
 8097W        W67534  18.150   2.397  13.419
 8098W        W67535   9.774  38.967   2.351
 8099W        W67536  17.673   9.213   3.714
 8100W        W67537  16.610  39.897   2.770
 8101W        W67538  32.475  14.725  14.936
 8102W        W67539  30.561  44.929  10.439
 8103W        W67540  41.350  37.837   3.862
 8104W        W67541   0.930  26.538   4.208
 8105W        W67542   3.920  25.576   3.247
 8106W        W67543  41.466  41.471  14.431
 8107W        W67544  20.036  35.991  11.441
 8108W        W67545  41.296  21.542   2.291
 8109W        W67546  25.155  31.941  13.928
 8110W        W67547  43.848  31.997   1.277
 8111W        W67548  38.911   2.386   4.750
 8112W        W67549  16.143  10.874   1.903
 8113W        W67550  38.075  18.198  12.857
 8114W        W67551  37.065  19.622  12.534
 8115W        W67552  13.221  42.338   4.666
 8116W        W67553  40.030  40.540   4.306
 8117W        W67554  37.543  21.529  11.011
 8118W        W67555   3.330  21.543  12.849
 8119W        W67556   2.747  32.464   0.351
 8120W        W67557   5.197  44.385   1.441
 8121W        W67558  29.157  12.695  14.466
 8122W        W67559   8.715  39.837  13.398
 8123W        W67560   3.220  40.853  11.055
 8124W        W67561  38.018  35.903  11.967
 8125W        W67562  41.460  32.125   0.302
 8126W        W67563  15.663   0.334  14.773
 8127W        W67564  18.191  21.174   5.251
 8128W        W67565  28.564  12.327   0.320
 8129W        W67566   1.294  19.682  13.820
 8130W        W67567  44.412  37.558   3.386
 8131W        W67568  15.232   4.425  10.565
 8132W        W67569  41.503  35.032   1.376
 8133W        W67570  23.073  25.217   4.640
 8134W        W67571  12.241  26.972  13.954
 8135W        W67572  25.108  23.627  11.567
 8136W        W67573   8.391   7.766   4.815
 8137W        W67574  42.834   2.840  14.003
 8138W        W67575  32.501   7.371   3.194
 8139W        W67576  32.610  28.465   4.751
 8140W        W67577  17.685  12.820  12.009
 8141W        W67578  14.741  31.645  14.762
 8142W        W67579  32.905  34.590   4.147
 8143W        W67580  43.911  34.404   3.228
 8144W        W67581  17.639  17.604   0.833
 8145W        W67582   2.228  28.983   1.261
 8146W        W67583   6.718  34.607  11.471
 8147W        W67584   9.845  22.112  11.501
 8148W        W67585   8.183  24.050   2.707
 8149W        W67586  26.129  16.803  10.589
 8150W        W67587  27.013  29.661  12.024
 8151W        W67588  13.251  12.127  12.009
 8152W        W67589  33.977  24.081  10.083
 8153W        W67590  15.124  12.698   4.602
 8154W        W67591  26.132  44.425  10.570
 8155W        W67592   1.314  16.607   2.185
 8156W        W67593  15.640   8.893   2.419
 8157W        W67594  42.872  11.351  14.917
 8158W        W67595  32.417  11.749   3.339
 8159W        W67596  13.204  39.821   2.254
 8160W        W67597  20.650  32.910  13.838
 8161W        W67598  42.950  11.804  13.860
 8162W        W67599  29.460  27.578   0.760
 8163W        W67600  44.821   2.408  14.759
 8164W        W67601  14.667  31.537  12.960
 8165W        W67602  25.080  21.695   4.728
 8166W        W67603   9.725  24.533   0.929
 8167W        W67604   2.270  30.153   4.812
 8168W        W67605  44.265  20.676   1.777
 8169W        W67606  31.614  21.547  12.377
 8170W        W67607  25.697  20.179   0.869
 8171W        W67608  25.111   4.729   0.790
 8172W        W67609   1.347  38.429   4.127
 8173W        W67610  26.001  28.981  13.397
 8174W        W67611  18.613   8.831   3.238
 8175W        W67612  34.915  44.297  12.542
 8176W        W67613   8.734  20.635  14.443
 8177W        W67614   7.885   8.300   4.623
 8178W        W67615   9.376  41.012  12.397
 8179W        W67616  25.098  36.863  11.437
 8180W        W67617   2.375  11.279  11.079
 8181W        W67618   5.256  32.125   3.846
 8182W        W67619  41.967  33.065   3.848
 8183W        W67620  13.819   6.846  13.033
 8184W        W67621  19.625  42.840  14.342
 8185W        W67622  31.437  20.674  14.327
 8186W        W67623  14.795  38.335  12.020
 8187W        W67624  33.588  26.199   5.138
 8188W        W67625  13.241  15.674  11.550
 8189W        W67626  18.293  26.011   2.841
 8190W        W67627  37.352  19.172   2.730
 8191W        W67628  24.486  35.874   5.567
 8192W        W67629  30.608  27.526  10.986
 8193W        W67630  18.545  15.637   3.169
 8194W        W67631   8.723  39.367   0.442
 8195W        W67632  26.606  29.146   3.204
 8196W        W67633  17.105  13.264   3.746
 8197W        W67634  18.548  33.478   0.465
 8198W        W67635  20.561  11.764   3.179
 8199W        W67636  19.688  12.225  11.910
 8200W        W67637  14.303   8.204   2.285
 8201W        W67638  34.016  27.451  14.339
 8202W        W67639  33.391  23.996  14.384
 8203W        W67640  31.404  41.436   4.348
 8204W        W67641  41.911  14.734  14.320
 8205W        W67642   9.271  17.258   0.815
 8206W        W67643  14.781  24.008  10.891
 8207W        W67644   7.898  13.723   0.832
 8208W        W67645  38.490  23.592  14.793
 8209W        W67646  19.596  18.123  13.937
 8210W        W67647  42.404  15.638   0.329
 8211W        W67648   3.232   7.370  12.079
 8212W        W67649   5.868  15.823  11.469
 8213W        W67650  35.960  43.499   0.905
 8214W        W67651  44.504  30.124   1.264
 8215W        W67652  15.244  34.989  12.520
 8216W        W67653  25.095   2.274   1.300
 8217W        W67654  39.896  10.188  14.031
 8218W        W67655  34.435   4.245  13.424
 8219W        W67656  16.216  27.625  13.003
 8220W        W67657   9.710  10.197  11.485
 8221W        W67658  33.905  13.288  11.434
 8222W        W67659  44.946  37.024  12.564
 8223W        W67660  36.390   9.149  12.022
 8224W        W67661  26.052   9.701  14.351
 8225W        W67662  41.007  22.506  13.960
 8226W        W67663   8.732  27.116   1.271
 8227W        W67664  29.036  34.604   0.386
 8228W        W67665  39.483  33.577   4.597
 8229W        W67666  30.060  27.153   4.717
 8230W        W67667  13.213   4.378  11.856
 8231W        W67668  44.386  22.689  12.407
 8232W        W67669  38.887  42.898  10.594
 8233W        W67670  15.603  35.047   3.275
 8234W        W67671  37.871  10.209   4.648
 8235W        W67672   9.209   6.264   2.742
 8236W        W67673  37.562  40.363  11.129
 8237W        W67674   8.245  28.987  10.897
 8238W        W67675  17.577  38.960   0.885
 8239W        W67676  39.338  36.453   3.804
 8240W        W67677  42.969  38.520  11.974
 8241W        W67678  29.492   5.416  11.572
 8242W        W67679  22.689  10.819  14.845
 8243W        W67680  43.282  36.900  12.513
 8244W        W67681  22.162  26.533  14.321
 8245W        W67682  20.711  29.117   2.873
 8246W        W67683  39.555   4.395  12.936
 8247W        W67684  43.307  17.271   4.182
 8248W        W67685  43.866  34.505  12.540
 8249W        W67686   0.807   2.234  11.898
 8250W        W67687  42.464  36.407   0.951
 8251W        W67688   3.803  29.571  14.025
 8252W        W67689  35.479   0.323  14.513
 8253W        W67690  36.524  41.033  11.376
 8254W        W67691  21.244  33.531   3.662
 8255W        W67692  30.101  24.581  14.503
 8256W        W67693  23.072  41.333  10.505
 8257W        W67694  39.481  19.655   4.331
 8258W        W67695  29.639  15.202   1.406
 8259W        W67696  35.883  24.572  14.455
 8260W        W67697  33.541  41.947   4.708
 8261W        W67698  43.961  14.719   0.890
 8262W        W67699  24.527  15.228   1.778
 8263W        W67700  19.141  13.128   2.390
 8264W        W67701  10.734   4.862  13.356
 8265W        W67702  38.063  18.139  11.412
 8266W        W67703   2.399  30.920   0.321
 8267W        W67704   6.890   7.879  13.007
 8268W        W67705  25.479  18.675   2.793
 8269W        W67706  10.257  14.658   2.377
 8270W        W67707  23.039  16.567  11.586
 8271W        W67708  42.406  40.495   4.630
 8272W        W67709  19.557   5.391   0.896
 8273W        W67710   9.749   1.894   0.261
 8274W        W67711  34.569   1.357   3.326
 8275W        W67712  23.186  28.091  11.977
 8276W        W67713  41.478  43.788   3.325
 8277W        W67714  16.104  14.232   3.819
 8278W        W67715  29.963  43.472   1.799
 8279W        W67716  27.953   0.907   3.668
 8280W        W67717   7.819  18.198   0.792
 8281W        W67718  18.713   8.185   2.808
 8282W        W67719  25.144  29.155   2.739
 8283W        W67720  25.691  26.183  13.391
 8284W        W67721  36.574  15.288  14.315
 8285W        W67722  39.892  26.588  12.575
 8286W        W67723   4.702   1.739   2.738
 8287W        W67724  41.874  26.607   3.797
 8288W        W67725  37.420  19.082  13.063
 8289W        W67726   9.366   0.406   0.851
 8290W        W67727  14.796  14.820  13.872
 8291W        W67728  20.552  30.542   1.330
 8292W        W67729   5.836  20.733  13.843
 8293W        W67730  21.619  17.788   2.354
 8294W        W67731  18.266  23.669  14.796
 8295W        W67732   0.821  37.898   3.248
 8296W        W67733  33.965  30.938  14.374
 8297W        W67734   5.258  17.282  10.151
 8298W        W67735  21.676  31.091   3.740
 8299W        W67736  43.323   4.372   3.149
 8300W        W67737  12.314  40.309  14.794
 8301W        W67738  13.763  10.163  10.437
 8302W        W67739  39.517  26.043   3.157
 8303W        W67740  35.490  32.006   2.871
 8304W        W67741  21.536  33.489  12.969
 8305W        W67742   7.337  29.572   5.085
 8306W        W67743  10.706  23.118  13.013
 8307W        W67744  27.670  26.163  14.318
 8308W        W67745  25.177  14.773  14.284
 8309W        W67746  40.945  42.367   1.755
 8310W        W67747   5.762   2.449  11.486
 8311W        W67748  11.202  35.885  13.833
 8312W        W67749   8.660  25.173   2.384
 8313W        W67750  35.582  26.094  11.893
 8314W        W67751  38.847  26.550  14.832
 8315W        W67752  24.176  40.046   2.264
 8316W        W67753   1.418   5.313   3.840
 8317W        W67754  34.506  44.993   1.772
 8318W        W67755  42.786   4.811   0.952
 8319W        W67756  33.913  37.486  12.917
 8320W        W67757  11.638  36.428  14.899
 8321W        W67758  18.259  39.979   1.226
 8322W        W67759  32.915  13.254   3.275
 8323W        W67760  37.074  16.274   4.217
 8324W        W67761   4.831  14.317  11.428
 8325W        W67762   1.455  26.482   1.727
 8326W        W67763   4.449  34.524  12.399
 8327W        W67764   8.823  41.365  13.807
 8328W        W67765  14.814   2.891  13.428
 8329W        W67766  20.651  23.228  11.032
 8330W        W67767  44.370  17.625   4.119
 8331W        W67768   7.260   5.198   3.209
 8332W        W67769  23.177   4.878  13.439
 8333W        W67770  39.966  12.125  14.821
 8334W        W67771  25.472  43.981   4.739
 8335W        W67772  43.420  30.005   3.379
 8336W        W67773  23.102  13.819  11.545
 8337W        W67774  38.057  35.448   0.317
 8338W        W67775   9.389  13.662  10.985
 8339W        W67776  27.533  23.033   0.923
 8340W        W67777  11.130   1.474  11.506
 8341W        W67778   8.691  10.342   3.287
 8342W        W67779  31.955  42.844  12.924
 8343W        W67780  29.624  19.618   5.220
 8344W        W67781  26.544   2.938   0.256
 8345W        W67782  36.359  41.940  14.313
 8346W        W67783  33.027   2.859   3.817
 8347W        W67784  17.241  24.112   4.785
 8348W        W67785  23.107  38.470   0.953
 8349W        W67786  31.611  18.067   0.926
 8350W        W67787   5.799  17.171  11.426
 8351W        W67788  35.892  12.131   3.230
 8352W        W67789  34.905  25.576   1.385
 8353W        W67790  34.509   9.309  12.489
 8354W        W67791  13.201  14.717  11.049
 8355W        W67792  28.489   4.236  10.631
 8356W        W67793   7.176  29.033   4.117
 8357W        W67794  19.591  19.615  11.114
 8358W        W67795  39.536  10.720  14.867
 8359W        W67796  19.575  43.295   2.241
 8360W        W67797   6.752   8.861   3.189
 8361W        W67798  36.546   2.445  11.118
 8362W        W67799  25.490  12.784  12.394
 8363W        W67800  44.418  16.304   1.770
 8364W        W67801  19.105  21.119  12.419
 8365W        W67802  37.013   7.702  12.075
 8366W        W67803  23.170  23.206   0.758
 8367W        W67804   7.355  41.357  13.964
 8368W        W67805   5.212  16.253   4.214
 8369W        W67806  42.425  35.378   4.836
 8370W        W67807  29.061   4.362   0.823
 8371W        W67808  12.258  31.539  14.323
 8372W        W67809  37.046  33.423   1.379
 8373W        W67810  14.596  34.612   4.232
 8374W        W67811  27.011  16.131   1.743
 8375W        W67812  30.610  10.649  14.774
 8376W        W67813  10.319   7.783   4.308
 8377W        W67814  29.993  42.518   0.737
 8378W        W67815  40.372  16.621   4.801
 8379W        W67816   5.417   7.892   3.360
 8380W        W67817  40.991   0.422  11.901
 8381W        W67818  33.509  26.609  12.357
 8382W        W67819  10.241  17.176  13.042
 8383W        W67820   0.905  34.519   3.775
 8384W        W67821  36.571   1.890   1.275
 8385W        W67822  32.034  24.538   2.828
 8386W        W67823   3.808   7.410  10.473
 8387W        W67824   1.281   0.358  10.460
 8388W        W67825  41.984  25.162   5.283
 8389W        W67826  11.798  40.465   3.759
 8390W        W67827  33.004  44.279  11.091
 8391W        W67828  37.560  42.994   0.793
 8392W        W67829  27.021  31.912  10.581
 8393W        W67830  19.245  32.499   3.762
 8394W        W67831  36.995  36.543  10.535
 8395W        W67832  15.668   1.401  11.399
 8396W        W67833   6.737  15.148   3.204
 8397W        W67834  30.513   7.793  14.909
 8398W        W67835   3.900  16.290  11.527
 8399W        W67836  14.657   5.853   0.815
 8400W        W67837  38.467  24.575  11.451
 8401W        W67838  41.793  36.957   1.926
 8402W        W67839  13.297  41.889   2.188
 8403W        W67840  28.600  21.180   1.896
 8404W        W67841  29.172   3.712  10.555
 8405W        W67842  27.092  24.080   2.849
 8406W        W67843  33.537  27.485   1.320
 8407W        W67844  18.212   5.385  14.875
 8408W        W67845   8.755   8.354   0.282
 8409W        W67846  18.707  17.102  12.869
 8410W        W67847  16.218  31.591   1.933
 8411W        W67848  29.111  26.196  11.892
 8412W        W67849  20.118  28.184  14.784
 8413W        W67850  33.456  21.591   2.281
 8414W        W67851  29.612  41.864   2.703
 8415W        W67852  23.025  37.551  13.862
 8416W        W67853  19.280   3.741   0.413
 8417W        W67854  12.279  15.191   1.446
 8418W        W67855  15.110   4.204  14.908
 8419W        W67856   9.760  26.961   3.315
 8420W        W67857  22.633   0.336  12.471
 8421W        W67858  36.580  14.185  10.921
 8422W        W67859  10.147  13.111  13.400
 8423W        W67860  43.019  38.909  11.109
 8424W        W67861  23.504  18.778   4.264
 8425W        W67862  19.217  30.123  10.931
 8426W        W67863   4.364  23.073   1.791
 8427W        W67864  39.860  37.064   0.448
 8428W        W67865  25.093   6.882   4.629
 8429W        W67866   2.426  40.957  14.314
 8430W        W67867  12.140  22.617   4.712
 8431W        W67868  23.646  37.542   2.789
 8432W        W67869  27.449  18.164  12.088
 8433W        W67870  42.292  44.297   3.698
 8434W        W67871  34.008  35.870   4.790
 8435W        W67872  31.616  13.690  12.366
 8436W        W67873  44.943  36.550  14.416
 8437W        W67874  18.162  40.312  13.974
 8438W        W67875  14.265  12.696  11.598
 8439W        W67876   4.812  33.412   3.783
 8440W        W67877   6.869  25.475  12.366
 8441W        W67878  15.112  12.126  11.046
 8442W        W67879  17.610   9.706  10.468
 8443W        W67880   0.488  10.876   0.803
 8444W        W67881   9.771   8.718   0.335
 8445W        W67882  27.151   4.296  14.896
 8446W        W67883  22.153  22.054   2.772
 8447W        W67884  31.578  30.914  14.340
 8448W        W67885  17.218  18.126  13.967
 8449W        W67886  13.274   7.811  11.409
 8450W        W67887  30.443  38.453  12.948
 8451W        W67888   9.857  22.097   2.324
 8452W        W67889  13.603  24.596   1.695
 8453W        W67890  10.769  13.326  12.485
 8454W        W67891  37.506   9.348   2.262
 8455W        W67892  31.948  38.345  14.416
 8456W        W67893  14.211  33.483   3.270
 8457W        W67894  17.072  15.145  13.349
 8458W        W67895  42.284   9.385  13.324
 8459W        W67896   0.792   9.170  11.456
 8460W        W67897  33.557  31.916  10.933
 8461W        W67898  24.151  10.369   4.136
 8462W        W67899  25.524  37.543   0.940
 8463W        W67900  12.261   1.915   1.860
 8464W        W67901  26.178  39.960   0.419
 8465W        W67902  29.117   2.808  10.523
 8466W        W67903  12.174   8.227   3.638
 8467W        W67904  12.206  11.826   1.315
 8468W        W67905   7.858  22.023  13.910
 8469W        W67906  39.894  43.275   4.796
 8470W        W67907  11.365   9.309  13.462
 8471W        W67908  22.195  31.001   4.686
 8472W        W67909  25.576  39.463   0.765
 8473W        W67910   1.915  11.657  14.863
 8474W        W67911  12.809  28.487   4.809
 8475W        W67912  22.195  12.799   4.296
 8476W        W67913  41.906  22.582   1.266
 8477W        W67914  38.551  12.188  14.872
 8478W        W67915  25.125  18.706   1.304
 8479W        W67916  31.087   4.362   0.789
 8480W        W67917  17.217  22.040   2.862
 8481W        W67918   3.773  15.764   2.219
 8482W        W67919  12.283   1.276   3.818
 8483W        W67920   9.225  38.932   2.839
 8484W        W67921  22.551  34.076  14.882
 8485W        W67922   6.392  33.501   1.262
 8486W        W67923  31.636  30.119   2.179
 8487W        W67924  41.482  23.695  12.053
 8488W        W67925  37.472  37.380  14.938
 8489W        W67926  38.376   8.289   0.879
 8490W        W67927  25.625   3.838  13.041
 8491W        W67928  21.587  38.565   4.732
 8492W        W67929  28.613  43.291   4.346
 8493W        W67930  24.088  26.495  11.981
 8494W        W67931   9.774  28.010  13.826
 8495W        W67932  31.542  40.445  14.516
 8496W        W67933  38.035  35.379  13.445
 8497W        W67934   9.389  31.452  12.344
 8498W        W67935  10.693  27.982   4.177
 8499W        W67936  27.150  28.437  12.844
 8500W        W67937   2.867  27.053   2.790
 8501W        W67938  23.024  32.063   4.150
 8502W        W67939  14.792  11.688   2.258
 8503W        W67940  27.674  20.239  11.945
 8504W        W67941   5.359  22.519  12.503
 8505W        W67942  40.468   3.740   1.410
 8506W        W67943  41.044  24.980  14.990
 8507W        W67944  13.788  10.242  11.546
 8508W        W67945  21.067   0.265  11.102
 8509W        W67946  40.054   8.394   0.330
 8510W        W67947  21.147  25.107  11.981
 8511W        W67948  16.626  20.625   2.667
 8512W        W67949   5.343   5.914  11.574
 8513W        W67950   4.291  24.667   0.369
 8514W        W67951   1.284   1.843   3.646
 8515W        W67952  15.141  37.488   1.756
 8516W        W67953   2.457  31.623   4.787
 8517W        W67954   7.895  23.185   0.341
 8518W        W67955  34.980   7.267   0.392
 8519W        W67956  25.069  23.007   3.647
 8520W        W67957  18.199  18.125  12.987
 8521W        W67958  27.131  16.159  14.865
 8522W        W67959  29.069   8.397  12.017
 8523W        W67960  36.945   5.759  13.798
 8524W        W67961  22.092   2.819  14.857
 8525W        W67962  42.908  27.607   1.281
 8526W        W67963  31.479   8.853   1.371
 8527W        W67964   2.928  14.593  12.536
 8528W        W67965  31.118  19.587  14.007
 8529W        W67966  14.735  25.538   3.296
 8530W        W67967  28.006   7.715   1.255
 8531W        W67968  22.738   3.852  13.970
 8532W        W67969   4.332   4.425   0.772
 8533W        W67970  26.069  27.190   4.317
 8534W        W67971  17.289   2.308  14.348
 8535W        W67972  34.046  10.306  12.570
 8536W        W67973   5.342  43.894   1.415
 8537W        W67974  39.844  37.080  13.042
 8538W        W67975  31.083  35.053   0.414
 8539W        W67976  19.644  29.452   3.851
 8540W        W67977  29.655   7.675   1.329
 8541W        W67978   1.927   8.197   1.220
 8542W        W67979  44.266  35.456  11.961
 8543W        W67980  34.044  38.036   4.214
 8544W        W67981  36.467  10.821   2.710
 8545W        W67982   7.756  28.113  12.052
 8546W        W67983   5.438  18.696   2.790
 8547W        W67984  15.638  18.637   1.308
 8548W        W67985   1.459   2.457   0.941
 8549W        W67986  16.137   6.794   2.694
 8550W        W67987  17.636  19.200   3.724
 8551W        W67988   5.308  27.010  14.327
 8552W        W67989  38.976   9.351   4.120
 8553W        W67990   9.671  17.699   2.886
 8554W        W67991  30.587  10.271   0.754
 8555W        W67992   7.405  10.695  10.456
 8556W        W67993  23.515  17.237  14.435
 8557W        W67994  15.164  31.944  12.373
 8558W        W67995  25.026  23.665  12.475
 8559W        W67996   3.354  22.999  10.912
 8560W        W67997   6.302  36.954  14.002
 8561W        W67998  31.909  41.794   3.754
 8562W        W67999   4.863  23.110   4.190
 8563W        W68000  17.757  30.650   2.376
 8564W        W68001  27.487  41.954  13.904
 8565W        W68002  44.316  43.345   1.416
 8566W        W68003  10.788  20.038   4.673
 8567W        W68004  40.336   2.317   4.776
 8568W        W68005  34.535  15.661  13.014
 8569W        W68006  22.177  26.575   0.926
 8570W        W68007  11.219  25.162  14.803
 8571W        W68008  38.877  28.995  11.123
 8572W        W68009  44.958  12.303   5.670
 8573W        W68010  37.408  24.681  13.525
 8574W        W68011  12.253  32.949   4.656
 8575W        W68012   5.203   3.769  10.478
 8576W        W68013  30.524  30.102   4.292
 8577W        W68014  42.782  37.956   1.433
 8578W        W68015  35.380  31.082   0.923
 8579W        W68016  17.115   3.855   2.191
 8580W        W68017  38.852  28.059   3.277
 8581W        W68018  31.972  30.432  11.576
 8582W        W68019  39.954  14.746  11.073
 8583W        W68020  40.835  23.653   2.891
 8584W        W68021  13.179  24.551   2.400
 8585W        W68022   5.419  32.122  12.004
 8586W        W68023  17.787  26.476  12.471
 8587W        W68024  23.636   4.744  14.029
 8588W        W68025  40.888  37.467   1.861
 8589W        W68026   1.261  23.056   4.764
 8590W        W68027  29.033  24.198   2.223
 8591W        W68028  29.472  10.348   3.651
 8592W        W68029  44.479  13.285  11.930
 8593W        W68030  10.714  37.436   5.128
 8594W        W68031  35.009   6.387   2.854
 8595W        W68032  15.605  20.622   1.222
 8596W        W68033  26.656  19.251   0.756
 8597W        W68034  33.108   8.665  14.457
 8598W        W68035  26.619  14.340  11.071
 8599W        W68036  29.481  14.241  13.480
 8600W        W68037  17.680  17.198  14.975
 8601W        W68038  21.582  21.513   3.362
 8602W        W68039  25.713  10.222   5.662
 8603W        W68040   9.722  19.266   3.746
 8604W        W68041  15.122  17.193   4.690
 8605W        W68042  33.886  16.640  14.374
 8606W        W68043  43.324  26.033  14.302
 8607W        W68044  39.554  38.481  10.420
 8608W        W68045  13.692  29.625   3.149
 8609W        W68046  23.707  15.098   3.151
 8610W        W68047  39.832  30.996  13.915
 8611W        W68048  34.540  33.441   2.348
 8612W        W68049  29.012  25.165   0.310
 8613W        W68050  40.887  27.615   3.700
 8614W        W68051  21.018  29.104   3.369
 8615W        W68052   9.786  38.036  12.556
 8616W        W68053  43.009  22.187   2.902
 8617W        W68054  16.148   3.715  11.486
 8618W        W68055  33.925  41.963   4.257
 8619W        W68056   9.329  23.603  14.324
 8620W        W68057  37.995  23.021  10.959
 8621W        W68058  29.122  12.621  13.349
 8622W        W68059  17.718  33.391   0.791
 8623W        W68060  34.905  19.137   2.188
 8624W        W68061  20.565   8.850  10.987
 8625W        W68062  27.658  39.892   3.376
 8626W        W68063  14.711   2.834  14.847
 8627W        W68064  14.301   1.880  14.423
 8628W        W68065  25.995  15.610   1.829
 8629W        W68066  19.087  21.639   3.287
 8630W        W68067  20.693  30.568  14.394
 8631W        W68068  43.808  28.667  13.337
 8632W        W68069  32.028  33.069   4.317
 8633W        W68070  38.452  37.562   5.114
 8634W        W68071   4.875   0.267   3.757
 8635W        W68072   6.766   8.227  11.079
 8636W        W68073   2.803  19.558  11.899
 8637W        W68074  21.182  16.194   2.346
 8638W        W68075  44.828  19.087   3.211
 8639W        W68076   1.369  30.629   0.900
 8640W        W68077  35.870  44.836  14.379
 8641W        W68078  35.976  15.653  12.371
 8642W        W68079  25.656  11.224   2.715
 8643W        W68080  25.593  13.775   0.271
 8644W        W68081  33.507  43.994   2.815
 8645W        W68082  44.955  19.092   2.206
 8646W        W68083  17.768   9.851   4.174
 8647W        W68084   7.804  12.667  14.378
 8648W        W68085   8.876  38.441   3.280
 8649W        W68086  38.389  39.514  11.573
 8650W        W68087  44.361  21.203  12.060
 8651W        W68088  24.184   7.303   4.663
 8652W        W68089  19.559  21.557  13.440
 8653W        W68090   3.348  43.992   0.773
 8654W        W68091  16.170  30.083  14.466
 8655W        W68092   4.798  20.533   2.379
 8656W        W68093  15.104  16.291  13.309
 8657W        W68094  13.212   6.863   1.894
 8658W        W68095  19.081   8.676  11.465
 8659W        W68096  35.856  22.015  14.418
 8660W        W68097  13.635   7.788  12.065
 8661W        W68098  32.424   5.892   1.321
 8662W        W68099  35.490  41.387  13.959
 8663W        W68100  10.753  32.141   4.275
 8664W        W68101  25.104  41.311   1.245
 8665W        W68102   5.385  35.428  13.010
 8666W        W68103  33.396  25.169   1.436
 8667W        W68104  40.423  14.741   4.282
 8668W        W68105  27.635  36.591   4.164
 8669W        W68106  42.290  29.645   0.726
 8670W        W68107  13.322  13.713  14.979
 8671W        W68108  12.142   1.867  12.025
 8672W        W68109  13.159  37.887  14.926
 8673W        W68110   2.387  10.191   2.885
 8674W        W68111  25.021  30.031   2.202
 8675W        W68112  12.258   7.339  11.388
 8676W        W68113  36.484   1.338  13.902
 8677W        W68114  36.482  29.026   1.838
 8678W        W68115  23.159   8.396  13.024
 8679W        W68116   2.950   9.390  14.805
 8680W        W68117  20.736  42.391  12.546
 8681W        W68118  18.552  35.066   0.778
 8682W        W68119  33.512   3.295   0.361
 8683W        W68120   2.860  42.877  11.511
 8684W        W68121  20.048   4.341  12.460
 8685W        W68122  18.786   9.217   0.762
 8686W        W68123   1.896  27.484  12.473
 8687W        W68124  19.751   6.762   1.753
 8688W        W68125  29.961  11.739   2.204
 8689W        W68126   2.781  25.575   4.787
 8690W        W68127  20.756  31.553  14.467
 8691W        W68128  21.196  15.235   3.145
 8692W        W68129  18.734  17.686  13.504
 8693W        W68130   6.897  21.722   0.298
 8694W        W68131  10.306   4.742   0.930
 8695W        W68132  28.937  34.935  12.957
 8696W        W68133  29.548  11.767   3.279
 8697W        W68134  31.075  27.573  11.498
 8698W        W68135  27.610  12.796  14.825
 8699W        W68136   6.772  12.784  13.855
 8700W        W68137  33.931  39.484  11.496
 8701W        W68138   6.269  14.176   4.310
 8702W        W68139  19.599  29.105   4.299
 8703W        W68140   4.889  15.212  12.980
 8704W        W68141  32.574  22.124   1.369
 8705W        W68142  11.720  34.423  13.342
 8706W        W68143  19.749  35.409   0.908
 8707W        W68144  22.550  11.733   0.871
 8708W        W68145  19.179  10.862  12.060
 8709W        W68146  21.068  35.041   3.846
 8710W        W68147  42.393  18.710   2.782
 8711W        W68148   3.761  16.670   2.791
 8712W        W68149  25.148  26.114   2.870
 8713W        W68150  40.391  28.673  14.965
 8714W        W68151  33.612   8.881  11.925
 8715W        W68152   6.352  33.910   4.168
 8716W        W68153  36.892  10.825  13.791
 8717W        W68154   0.437   1.931  12.396
 8718W        W68155  25.179  38.520  12.020
 8719W        W68156   3.903   2.795  12.940
 8720W        W68157  44.410  23.062  11.966
 8721W        W68158  33.091   5.410  10.964
 8722W        W68159  16.710  26.953   4.627
 8723W        W68160  36.067   8.744   2.758
 8724W        W68161   9.391  37.347   1.336
 8725W        W68162  20.219  18.625   2.894
 8726W        W68163  38.876  25.572  11.458
 8727W        W68164  34.580  10.784   0.763
 8728W        W68165  20.766  33.393   2.199
 8729W        W68166   7.370  19.554   3.782
 8730W        W68167  16.076  27.016  13.327
 8731W        W68168  24.052  37.360   4.145
 8732W        W68169   4.258  28.011   3.782
 8733W        W68170  40.985  31.027  13.487
 8734W        W68171  25.044   6.286   1.814
 8735W        W68172  16.271  16.228  14.988
 8736W        W68173  12.139  25.090   0.948
 8737W        W68174   4.766  41.455  10.584
 8738W        W68175  25.211  14.628   1.306
 8739W        W68176   6.685  14.279   4.742
 8740W        W68177   1.437   8.747   4.141
 8741W        W68178  16.208  38.867  11.508
 8742W        W68179  16.623  24.042  10.934
 8743W        W68180   9.801  18.206  11.989
 8744W        W68181  25.691   9.202   2.831
 8745W        W68182  36.987  20.250  12.440
 8746W        W68183  16.643   6.369  12.882
 8747W        W68184   8.727   1.927  14.308
 8748W        W68185  28.993  37.543   1.777
 8749W        W68186  23.186  13.105  14.903
 8750W        W68187  14.230  39.903   1.934
 8751W        W68188  27.531  20.592  10.905
 8752W        W68189  41.507  17.138  14.925
 8753W        W68190  34.926  17.251   1.320
 8754W        W68191  18.053   6.842   3.196
 8755W        W68192  33.604   0.459   2.733
 8756W        W68193  24.155  35.002  11.524
 8757W        W68194  10.641  41.900  11.392
 8758W        W68195  25.636   8.271   1.334
 8759W        W68196  37.931  32.901   4.641
 8760W        W68197  10.162  43.307  12.406
 8761W        W68198   2.722  40.882   1.423
 8762W        W68199   7.776  41.895   4.733
 8763W        W68200  42.923  34.519  13.033
 8764W        W68201  35.591   7.711   4.332
 8765W        W68202  23.597   7.865   4.341
 8766W        W68203   0.892  29.170  10.459
 8767W        W68204  38.415  31.622  12.093
 8768W        W68205  38.901  27.625  10.118
 8769W        W68206  14.100  23.047   0.275
 8770W        W68207   9.214  28.075  10.635
 8771W        W68208   7.328  41.983   0.281
 8772W        W68209  42.455  25.636  11.938
 8773W        W68210  14.121  26.156   0.399
 8774W        W68211  44.883  15.241   0.930
 8775W        W68212  19.222   0.384  10.615
 8776W        W68213  25.604   9.841   4.654
 8777W        W68214  20.758  24.155   2.372
 8778W        W68215  18.145  30.424  12.010
 8779W        W68216  23.223  29.440   2.893
 8780W        W68217  16.193   7.844   1.296
 8781W        W68218  22.227  42.851   2.320
 8782W        W68219  22.090  40.994   4.714
 8783W        W68220  18.788  41.981   2.662
 8784W        W68221  44.007  16.139   9.642
 8785W        W68222  15.135   8.791   2.781
 8786W        W68223  31.107  33.099   3.633
 8787W        W68224  28.930   5.724  12.981
 8788W        W68225  26.463  24.706   1.844
 8789W        W68226   8.301  14.591  11.575
 8790W        W68227  41.301  34.472   5.172
 8791W        W68228  19.186  12.623   2.207
 8792W        W68229  27.995  12.135   1.230
 8793W        W68230  18.586  20.200  12.944
 8794W        W68231   0.949  39.890   2.863
 8795W        W68232  18.286  18.212   2.326
 8796W        W68233  10.679  31.474   4.317
 8797W        W68234  22.686  27.088   2.679
 8798W        W68235  41.942   3.459   5.118
 8799W        W68236  27.671  12.348   1.450
 8800W        W68237  38.953   6.850  12.516
 8801W        W68238  42.994  24.143  11.602
 8802W        W68239  33.624   2.455  12.405
 8803W        W68240   7.326  36.930   0.304
 8804W        W68241   5.737  25.517  11.544
 8805W        W68242  40.412  22.153  13.496
 8806W        W68243  24.034  11.660  12.457
 8807W        W68244  16.094   1.978  13.958
 8808W        W68245   5.257   1.238  11.935
 8809W        W68246  36.014  10.184  13.976
 8810W        W68247   5.744  31.024  11.415
 8811W        W68248  28.465  22.576   2.385
 8812W        W68249   2.250  25.174  12.890
 8813W        W68250  34.932  30.652  14.900
 8814W        W68251  21.596  25.100   2.744
 8815W        W68252   2.454  42.917   0.434
 8816W        W68253  34.368  43.281  14.353
 8817W        W68254  24.187  21.215   4.685
 8818W        W68255   2.313  11.653   2.198
 8819W        W68256   6.848  21.101  11.605
 8820W        W68257   0.857  22.603   0.895
 8821W        W68258   9.363  44.443  12.999
 8822W        W68259  18.665  24.008   4.676
 8823W        W68260   6.285  39.838  10.420
 8824W        W68261  37.370  35.860   1.926
 8825W        W68262  40.986  25.196   3.685
 8826W        W68263  20.089  44.347   2.718
 8827W        W68264  36.954  22.694   1.223
 8828W        W68265  42.952  43.326   3.364
 8829W        W68266   8.834  17.570  13.854
 8830W        W68267  29.484  30.945  12.930
 8831W        W68268  17.779  11.170   0.333
 8832W        W68269   0.895   7.669   1.400
 8833W        W68270  28.561  34.374  14.367
 8834W        W68271  30.614  12.856  14.275
 8835W        W68272  13.665  15.276   4.717
 8836W        W68273  35.910  16.085   4.308
 8837W        W68274  41.814   1.393   0.269
 8838W        W68275  31.506  38.480   3.262
 8839W        W68276  30.497  35.450   3.747
 8840W        W68277  22.744  26.180   4.155
 8841W        W68278  32.003  42.381   3.247
 8842W        W68279  21.543  43.852   1.283
 8843W        W68280   0.856  42.443  10.407
 8844W        W68281  24.145   8.892   2.332
 8845W        W68282  25.554  20.193  12.959
 8846W        W68283  13.842   4.842   1.840
 8847W        W68284  43.275  37.520   0.281
 8848W        W68285  40.897  13.227  12.897
 8849W        W68286  25.962   0.482   4.664
 8850W        W68287   7.201  13.115   3.754
 8851W        W68288  37.488  13.762   0.898
 8852W        W68289  27.194  16.708  11.490
 8853W        W68290  11.844   3.244  13.828
 8854W        W68291   5.382  23.222  13.451
 8855W        W68292  37.494  19.102  13.360
 8856W        W68293  19.649  10.828  10.980
 8857W        W68294  26.614  31.499   1.349
 8858W        W68295  35.500  25.037  11.602
 8859W        W68296  33.936  41.330  12.859
 8860W        W68297  21.641  26.608  12.004
 8861W        W68298  25.155  17.570   1.332
 8862W        W68299   2.956  23.078  14.848
 8863W        W68300  39.328  28.015  13.478
 8864W        W68301   8.252  36.954  14.409
 8865W        W68302  27.544  26.080   1.788
 8866W        W68303  42.791   4.929   1.233
 8867W        W68304   5.300   1.325  11.512
 8868W        W68305   5.215  35.068  13.811
 8869W        W68306   1.433  23.077  11.442
 8870W        W68307  41.445  31.997   2.335
 8871W        W68308  26.700  19.162   1.439
 8872W        W68309  37.079  16.253   3.762
 8873W        W68310  35.387  26.569  11.900
 8874W        W68311   2.301  27.993  13.904
 8875W        W68312  23.994  21.110  14.318
 8876W        W68313  27.692  34.390  10.985
 8877W        W68314   8.842  38.409   0.401
 8878W        W68315  35.536   8.751  12.517
 8879W        W68316  37.006  13.193   0.929
 8880W        W68317  43.444  35.013   3.152
 8881W        W68318  34.526  29.974   0.918
 8882W        W68319  13.845  29.078   2.414
 8883W        W68320  32.017   0.779  11.870
 8884W        W68321   3.735  21.151   4.317
 8885W        W68322  25.012  19.553   5.239
 8886W        W68323  13.835  38.363  10.440
 8887W        W68324   8.753  37.030  14.508
 8888W        W68325  31.110   4.711  13.969
 8889W        W68326   7.703  35.493   4.331
 8890W        W68327  27.994  30.509  12.035
 8891W        W68328  38.824  32.018  10.419
 8892W        W68329  20.547  38.415   1.699
 8893W        W68330  33.455  42.430  12.496
 8894W        W68331   2.417  41.809  11.451
 8895W        W68332  24.507  30.027   2.694
 8896W        W68333  13.180  31.646  14.832
 8897W        W68334  18.289  20.663   2.855
 8898W        W68335  40.870  16.788   4.814
 8899W        W68336  23.720  25.604   4.287
 8900W        W68337  21.524  14.804   3.765
 8901W        W68338  10.261  33.049   0.964
 8902W        W68339  36.927  30.031   2.194
 8903W        W68340  12.762   4.246  14.762
 8904W        W68341   6.353  35.513   1.762
 8905W        W68342  38.369  24.151  14.394
 8906W        W68343  28.111  33.491   2.186
 8907W        W68344  36.493  41.910  13.019
 8908W        W68345   6.745  22.549  14.497
 8909W        W68346   6.797  38.857  12.914
 8910W        W68347  39.049   1.318  10.605
 8911W        W68348  42.308  24.533  13.537
 8912W        W68349  42.869  18.730  14.017
 8913W        W68350  13.739   1.829   1.934
 8914W        W68351  21.591  11.725   2.867
 8915W        W68352   1.455  23.012   0.931
 8916W        W68353   4.795  28.054  10.905
 8917W        W68354   5.719  43.340   3.794
 8918W        W68355  35.377  43.826  14.775
 8919W        W68356  39.931  19.670  11.391
 8920W        W68357  19.770  32.548  14.973
 8921W        W68358  42.961   7.291   9.974
 8922W        W68359   2.726  18.148   3.277
 8923W        W68360  39.443  22.105  13.800
 8924W        W68361  14.098  20.070  14.916
 8925W        W68362   3.779   9.757  11.556
 8926W        W68363   5.291   6.825   3.250
 8927W        W68364  33.510  11.658  11.883
 8928W        W68365  28.042  21.181  13.928
 8929W        W68366  22.544  26.180  12.837
 8930W        W68367  33.502   0.827  14.930
 8931W        W68368   9.186   4.351  13.489
 8932W        W68369   0.770  35.407  12.432
 8933W        W68370  10.139   9.172  11.496
 8934W        W68371  10.839   7.234   0.325
 8935W        W68372   1.267  34.076   1.722
 8936W        W68373  19.596  42.837   5.115
 8937W        W68374  29.452   7.722   4.693
 8938W        W68375  14.246   9.747  13.327
 8939W        W68376  24.057   0.404   2.792
 8940W        W68377   1.451   3.299   4.613
 8941W        W68378  42.345  23.499  11.008
 8942W        W68379  40.985   6.376  10.951
 8943W        W68380  30.583  31.607  10.548
 8944W        W68381  40.469  22.094  10.636
 8945W        W68382  26.995  12.139  10.899
 8946W        W68383  36.493  41.914  10.979
 8947W        W68384  30.938  37.456  14.293
 8948W        W68385  12.259  30.087   3.181
 8949W        W68386  10.164  42.960   3.860
 8950W        W68387   1.373  32.952  13.383
 8951W        W68388  43.349   9.792  11.424
 8952W        W68389  28.184  14.752  11.411
 8953W        W68390  35.961  35.105  13.501
 8954W        W68391   2.819   9.687  12.856
 8955W        W68392  35.916  16.583  12.895
 8956W        W68393  35.882   3.310  11.070
 8957W        W68394  29.153  29.448   4.114
 8958W        W68395   2.391  16.143   2.380
 8959W        W68396  25.002   6.792   3.731
 8960W        W68397   3.321  32.013   3.794
 8961W        W68398   1.774  22.033  14.407
 8962W        W68399  22.182  17.203   3.756
 8963W        W68400   3.876  16.114   1.796
 8964W        W68401  28.955  18.731  12.513
 8965W        W68402   3.811   7.362  12.918
 8966W        W68403   1.951   1.453   1.818
 8967W        W68404  28.605   6.782   2.834
 8968W        W68405   0.344  42.314   3.699
 8969W        W68406   3.252  12.260  10.925
 8970W        W68407  26.020  17.645  14.903
 8971W        W68408  10.312  15.314  10.478
 8972W        W68409   2.814  32.478  12.044
 8973W        W68410   7.879  39.440  13.318
 8974W        W68411   6.340  15.580  14.514
 8975W        W68412  14.098  27.489  13.330
 8976W        W68413  26.116   6.189   2.185
 8977W        W68414   6.210  19.283  14.313
 8978W        W68415   3.314  22.071   0.861
 8979W        W68416  38.431   7.226  14.444
 8980W        W68417  13.338  41.527   3.278
 8981W        W68418  39.884  33.106  13.419
 8982W        W68419  27.589  15.308  13.363
 8983W        W68420  26.689   1.299  14.933
 8984W        W68421  36.855  13.158   2.355
 8985W        W68422  10.866   6.695   0.900
 8986W        W68423  41.950   6.903   4.636
 8987W        W68424   7.325  25.541   3.862
 8988W        W68425   0.368   1.758   2.331
 8989W        W68426  36.904   3.955  10.914
 8990W        W68427  42.871  31.900   5.204
 8991W        W68428  15.750  30.581   0.746
 8992W        W68429  31.957   9.879  10.555
 8993W        W68430   1.468  12.301  10.912
 8994W        W68431  20.765  44.299   3.760
 8995W        W68432  38.016  34.989  10.577
 8996W        W68433  33.095  42.898   3.344
 8997W        W68434  35.511  23.718   2.300
 8998W        W68435  44.294  35.080   4.183
 8999W        W68436  22.677  24.074  11.075
 9000W        W68437  44.942   8.816  13.020
 9001W        W68438   0.329  11.263  12.409
 9002W        W68439  28.074  30.597  13.827
 9003W        W68440  16.772  22.641   0.260
 9004W        W68441  14.637  14.245  14.427
 9005W        W68442  14.286  26.186  10.961
 9006W        W68443  36.587  36.499   3.839
 9007W        W68444  39.334  40.433   1.352
 9008W        W68445  29.553  42.962   0.808
 9009W        W68446   0.845  19.112  11.476
 9010W        W68447  42.986  20.211   3.179
 9011W        W68448  29.503  33.049  12.492
 9012W        W68449  30.539  34.417  11.015
 9013W        W68450  19.569  22.653   2.745
 9014W        W68451  10.656   5.301  14.772
 9015W        W68452   5.727  23.652  11.581
 9016W        W68453   9.328   0.370   2.776
 9017W        W68454  17.638   7.208  10.903
 9018W        W68455  13.646  20.081  10.887
 9019W        W68456  44.924  20.029  12.573
 9020W        W68457  23.234  32.503   2.210
 9021W        W68458  33.398  20.057  10.585
 9022W        W68459  17.179  22.175  12.496
 9023W        W68460  40.466  28.049   0.392
 9024W        W68461  41.870  13.294  13.426
 9025W        W68462  22.606  35.564  12.940
 9026W        W68463  23.724  27.560  13.948
 9027W        W68464  39.484  19.727   3.252
 9028W        W68465   3.786  33.098   4.264
 9029W        W68466  27.445  22.731  13.039
 9030W        W68467  17.793  41.330  14.283
 9031W        W68468  19.724  10.848  11.383
 9032W        W68469  39.852   7.729   3.775
 9033W        W68470   3.387  34.443   1.820
 9034W        W68471  24.508  20.668   3.747
 9035W        W68472   1.399  16.730   1.736
 9036W        W68473  34.445  40.318  12.864
 9037W        W68474   9.364   2.959   0.839
 9038W        W68475  22.106   2.295   3.732
 9039W        W68476  44.297  10.341  11.894
 9040W        W68477  26.080  31.917  10.523
 9041W        W68478   6.193   6.294  11.970
 9042W        W68479  36.479  24.009   4.296
 9043W        W68480  16.280  30.538   0.912
 9044W        W68481  33.991  26.468   2.193
 9045W        W68482   4.417  43.778  14.761
 9046W        W68483  20.658   4.449   1.826
 9047W        W68484  40.372  30.089  14.401
 9048W        W68485  25.569  37.078   5.750
 9049W        W68486   5.330  31.569   3.692
 9050W        W68487  41.819   5.306  14.003
 9051W        W68488  13.252  43.289  12.088
 9052W        W68489   0.285  19.562   2.360
 9053W        W68490   6.248   1.291  10.452
 9054W        W68491  10.661  25.655   2.796
 9055W        W68492   5.202  31.125  13.470
 9056W        W68493  40.457  16.655  12.920
 9057W        W68494  26.490  34.420  12.496
 9058W        W68495  39.851  41.928  12.480
 9059W        W68496  25.552  24.600  13.017
 9060W        W68497   3.789   6.754   4.164
 9061W        W68498  27.664   5.298  11.054
 9062W        W68499  33.556   7.185   1.818
 9063W        W68500   3.303  21.583   2.709
 9064W        W68501  43.366  22.102   1.407
 9065W        W68502  32.447  21.191   3.247
 9066W        W68503  12.778  23.555   4.298
 9067W        W68504  15.293  27.613   3.734
 9068W        W68505  23.554   6.693  12.883
 9069W        W68506   1.316  22.650   3.239
 9070W        W68507  41.424  25.497  12.035
 9071W        W68508  36.934  40.515   1.745
 9072W        W68509  27.523  33.905   1.218
 9073W        W68510   7.386   2.238   2.296
 9074W        W68511  32.415  40.448   0.392
 9075W        W68512  44.461   8.252  14.358
 9076W        W68513  42.475  26.544  14.919
 9077W        W68514  23.669   6.782   3.775
 9078W        W68515   7.837   0.772   3.740
 9079W        W68516  32.453   8.378  11.012
 9080W        W68517  22.200   5.853  14.943
 9081W        W68518  24.016   0.870  10.507
 9082W        W68519  30.035  20.683  14.889
 9083W        W68520  11.861  29.607   2.303
 9084W        W68521  32.081  26.483  14.908
 9085W        W68522  29.467  41.299   4.731
 9086W        W68523  25.994  11.178  12.987
 9087W        W68524  30.517  28.030  12.397
 9088W        W68525  10.198  29.602  12.486
 9089W        W68526   1.361   3.303  12.539
 9090W        W68527   0.358   1.341  12.558
 9091W        W68528  25.976  23.100   2.371
 9092W        W68529  23.168  44.778   3.708
 9093W        W68530  32.091   1.448   0.482
 9094W        W68531  40.496  30.004   4.292
 9095W        W68532   9.250  30.639   2.833
 9096W        W68533  38.899  21.178  14.906
 9097W        W68534  15.815  10.674   3.367
 9098W        W68535  34.382  33.002  14.846
 9099W        W68536   7.221  31.540  12.001
 9100W        W68537   1.369  10.768  12.948
 9101W        W68538  23.183  10.330  12.900
 9102W        W68539   3.311   3.236  14.956
 9103W        W68540  14.161   7.806   4.281
 9104W        W68541  36.381  15.252   2.876
 9105W        W68542  31.524  26.613   3.281
 9106W        W68543  44.791   5.335  10.451
 9107W        W68544   8.215  18.259   2.225
 9108W        W68545  19.578  13.319   2.859
 9109W        W68546  33.049  14.294  11.550
 9110W        W68547  12.177   9.275  13.060
 9111W        W68548  11.714  22.042  13.489
 9112W        W68549  23.642   3.448  14.793
 9113W        W68550  14.277  43.423   4.674
 9114W        W68551  10.705   7.805   1.706
 9115W        W68552  10.305  29.487  14.369
 9116W        W68553  44.784  16.663  10.414
 9117W        W68554  20.537   7.756  11.032
 9118W        W68555  36.065  23.607  10.455
 9119W        W68556  30.013  30.025  13.017
 9120W        W68557   2.750  39.970  14.376
 9121W        W68558  18.279  38.457   0.291
 9122W        W68559  31.528  37.357  12.392
 9123W        W68560  40.987  26.617  13.963
 9124W        W68561   6.203   8.671  13.373
 9125W        W68562  14.311  11.726   0.318
 9126W        W68563   9.296  41.851  11.992
 9127W        W68564  19.594  12.809  14.408
 9128W        W68565  29.544  21.525  11.450
 9129W        W68566  32.886  24.503   4.769
 9130W        W68567  10.156  22.544   4.115
 9131W        W68568  27.096  40.030   5.322
 9132W        W68569  39.365  28.519  11.504
 9133W        W68570   0.966   0.492  12.013
 9134W        W68571   1.246  44.800  10.610
 9135W        W68572  15.736  30.603   0.416
 9136W        W68573  11.294   2.341  11.575
 9137W        W68574  38.960  21.109  11.595
 9138W        W68575  19.712  12.616  11.540
 9139W        W68576  35.472  21.600  14.933
 9140W        W68577  41.941  19.622  12.344
 9141W        W68578   0.923   0.393  14.962
 9142W        W68579  19.074  27.472  13.534
 9143W        W68580  25.127  13.153   4.798
 9144W        W68581  21.663  42.473   4.319
 9145W        W68582  22.544  20.091  11.081
 9146W        W68583  28.950   3.307   1.267
 9147W        W68584   2.263  24.517   1.902
 9148W        W68585  12.621   8.317  14.372
 9149W        W68586  21.056  32.615   0.813
 9150W        W68587  29.090  27.107   0.440
 9151W        W68588  27.057  20.106   1.367
 9152W        W68589   0.960   9.666  12.351
 9153W        W68590  31.111  19.639  13.338
 9154W        W68591  33.615  27.016  13.998
 9155W        W68592  18.263   0.964   4.224
 9156W        W68593  16.619  24.664   2.187
 9157W        W68594   3.879  36.862  14.434
 9158W        W68595  44.329  15.117  14.993
 9159W        W68596   4.867  30.159  12.887
 9160W        W68597  38.014  24.507  13.975
 9161W        W68598  29.483  33.884   0.926
 9162W        W68599  35.360  20.150   3.743
 9163W        W68600   0.371  11.667   4.276
 9164W        W68601  28.076  27.006  11.104
 9165W        W68602   6.307  38.906   5.184
 9166W        W68603  28.583   0.434  10.920
 9167W        W68604  17.695  28.476   2.303
 9168W        W68605  30.102  43.927   4.210
 9169W        W68606  17.567   8.705   2.233
 9170W        W68607  42.870  31.004   2.850
 9171W        W68608  10.314  28.498  14.805
 9172W        W68609  14.217   4.286   3.314
 9173W        W68610   5.437  44.979   4.279
 9174W        W68611  13.343  16.142   0.265
 9175W        W68612  30.067  22.093   4.656
 9176W        W68613  18.183  28.635  11.524
 9177W        W68614  44.894  31.572   0.900
 9178W        W68615  43.373  16.164  11.601
 9179W        W68616  18.050  20.603  14.790
 9180W        W68617  19.175   9.312   2.764
 9181W        W68618  13.230  25.979   2.307
 9182W        W68619  26.682  43.917   1.258
 9183W        W68620  43.309  39.030   0.483
 9184W        W68621   6.424   2.956  12.571
 9185W        W68622  17.664   0.868   4.605
 9186W        W68623  11.267   7.199  12.968
 9187W        W68624  23.016  43.937  13.791
 9188W        W68625   7.910   9.667  10.982
 9189W        W68626   5.715  23.046  13.951
 9190W        W68627   9.703  44.844  10.958
 9191W        W68628   9.867  21.059   4.599
 9192W        W68629   0.308  19.714   3.356
 9193W        W68630  17.610  20.551  13.857
 9194W        W68631  33.477  27.138   2.874
 9195W        W68632  22.710  38.979  10.054
 9196W        W68633  25.635  16.763  12.940
 9197W        W68634  39.367  21.701  14.377
 9198W        W68635   1.240  13.230  14.026
 9199W        W68636  31.086   0.850  11.002
 9200W        W68637   4.898  33.031   0.455
 9201W        W68638  27.636   3.906   3.224
 9202W        W68639   5.336  10.828  11.444
 9203W        W68640  25.592   5.281   1.732
 9204W        W68641  44.761  22.516   3.821
 9205W        W68642  41.298  38.561   3.685
 9206W        W68643  18.125  24.674   4.273
 9207W        W68644   7.720  17.682   2.884
 9208W        W68645   4.707  11.203  11.917
 9209W        W68646   4.450  32.636   4.243
 9210W        W68647  35.931  15.208   0.962
 9211W        W68648   2.467  26.496  11.471
 9212W        W68649   6.325  24.195   0.898
 9213W        W68650   8.290  33.056   3.166
 9214W        W68651  37.471  13.228  12.492
 9215W        W68652  32.139  32.442  14.346
 9216W        W68653  10.826  31.461  11.861
 9217W        W68654  26.200   7.194  14.858
 9218W        W68655  40.415   3.936   0.377
 9219W        W68656  27.675  35.505  10.891
 9220W        W68657  29.045  43.955   2.299
 9221W        W68658  28.011  13.106  14.028
 9222W        W68659  28.637  43.387  14.780
 9223W        W68660  18.240  28.640   3.687
 9224W        W68661  29.987  21.585   0.435
 9225W        W68662  30.491  43.402   3.247
 9226W        W68663   6.912  11.235  13.812
 9227W        W68664  22.743  27.144  13.414
 9228W        W68665  37.496  44.448   2.304
 9229W        W68666  16.087  29.088  11.056
 9230W        W68667  31.072  29.142   3.725
 9231W        W68668  36.083  14.242   0.873
 9232W        W68669  28.143  12.169  14.291
 9233W        W68670  17.103  16.295  11.857
 9234W        W68671  21.113  40.540  10.000
 9235W        W68672  32.067   1.802  10.937
 9236W        W68673  33.549  24.723   4.330
 9237W        W68674   7.386   3.710   0.351
 9238W        W68675  35.929  28.538  10.558
 9239W        W68676  42.810   3.316   4.746
 9240W        W68677  39.408  38.863  13.853
 9241W        W68678  19.558   1.336   0.753
 9242W        W68679  34.099  43.270  13.344
 9243W        W68680   8.780  12.126   4.303
 9244W        W68681  44.920  26.112   2.789
 9245W        W68682  26.584  17.078   4.811
 9246W        W68683  34.489  41.033   3.177
 9247W        W68684  39.907   7.281  11.099
 9248W        W68685  37.340  10.727   0.398
 9249W        W68686  23.051   7.359   0.430
 9250W        W68687  21.661  15.248  10.604
 9251W        W68688   8.819   9.314  11.471
 9252W        W68689  24.035   6.249   5.121
 9253W        W68690   8.873   1.888   4.635
 9254W        W68691  20.207  39.369  13.865
 9255W        W68692   7.332  12.789   2.298
 9256W        W68693  39.328  37.926   0.449
 9257W        W68694  40.956  39.339  11.082
 9258W        W68695   6.301  19.722   4.280
 9259W        W68696  35.358  25.209  14.493
 9260W        W68697  37.425  11.252   3.258
 9261W        W68698  43.386  25.139   3.748
 9262W        W68699  30.130  28.997  10.434
 9263W        W68700  33.597  44.458   2.732
 9264W        W68701   9.777   9.289  14.990
 9265W        W68702  39.957  38.387  14.497
 9266W        W68703  40.455  39.459  14.442
 9267W        W68704  35.534   9.298  11.473
 9268W        W68705  26.061  31.126  14.867
 9269W        W68706  31.111  39.316   5.228
 9270W        W68707  22.736  35.583  13.995
 9271W        W68708  37.362  14.639   3.846
 9272W        W68709   0.411  23.180  11.106
 9273W        W68710  22.542  20.688  13.328
 9274W        W68711  36.508  20.271   4.680
 9275W        W68712  31.924  24.710  12.419
 9276W        W68713  42.779  32.963  13.528
 9277W        W68714  33.488  13.645  14.853
 9278W        W68715  21.721  22.156  14.856
 9279W        W68716  13.715  25.988   0.771
 9280W        W68717  11.186  43.882   4.756
 9281W        W68718  37.078  12.645  13.044
 9282W        W68719  33.585  14.311  14.454
 9283W        W68720  44.882  30.035  14.909
 9284W        W68721  27.593   5.780  14.857
 9285W        W68722  41.513  34.935   1.817
 9286W        W68723  38.377   1.766   4.117
 9287W        W68724  35.458  31.640  14.309
 9288W        W68725   2.421  33.897   0.427
 9289W        W68726  41.378  19.188  11.995
 9290W        W68727  17.099  33.990   1.813
 9291W        W68728  34.062  41.423   2.196
 9292W        W68729   2.740  20.717  14.006
 9293W        W68730  23.538   7.706  10.579
 9294W        W68731  22.616  36.033   2.194
 9295W        W68732  44.453   5.202  10.996
 9296W        W68733  36.989  44.476   4.715
 9297W        W68734  36.926  39.909   9.495
 9298W        W68735  43.898  17.700  10.471
 9299W        W68736  44.848  22.693  13.344
 9300W        W68737   4.320  15.294   3.363
 9301W        W68738  24.064  26.952  14.824
 9302W        W68739  35.539   7.785  11.938
 9303W        W68740  38.399  33.432   0.325
 9304W        W68741  20.677   6.324  11.041
 9305W        W68742  37.542  32.450  12.009
 9306W        W68743   9.747  18.584  13.461
 9307W        W68744  28.624   6.329   0.474
 9308W        W68745  27.171  34.608  11.570
 9309W        W68746   2.366   8.174  10.944
 9310W        W68747  39.426  20.760  10.629
 9311W        W68748   0.983   5.831   0.828
 9312W        W68749  23.667  30.002  10.888
 9313W        W68750  37.064  22.205   3.370
 9314W        W68751  10.275  34.927  12.911
 9315W        W68752  36.418  31.152  12.953
 9316W        W68753  24.500  27.535   4.323
 9317W        W68754  34.053  14.600   3.233
 9318W        W68755  20.687  14.672  10.985
 9319W        W68756   1.389  36.915  12.509
 9320W        W68757  25.185  37.048  14.356
 9321W        W68758  19.755  18.679  10.994
 9322W        W68759  29.450  21.058  14.904
 9323W        W68760   6.287  12.669  11.067
 9324W        W68761  31.969  32.027  13.852
 9325W        W68762   8.360  11.815   2.806
 9326W        W68763   3.219  26.532  14.024
 9327W        W68764  11.298  44.310  12.828
 9328W        W68765  35.960  36.912   3.363
 9329W        W68766   9.699  26.191  10.486
 9330W        W68767  18.266   7.339   4.215
 9331W        W68768   3.409   9.174  14.501
 9332W        W68769  23.141  24.707   0.947
 9333W        W68770  40.457  25.630  14.794
 9334W        W68771  36.480   3.279  13.928
 9335W        W68772  14.613   9.341  13.038
 9336W        W68773  12.325  16.303  13.455
 9337W        W68774  24.516  17.256  14.401
 9338W        W68775  40.819  38.385  12.573
 9339W        W68776  21.645  44.398   3.246
 9340W        W68777  39.974  24.140   4.648
 9341W        W68778  27.089   5.254   4.350
 9342W        W68779  19.250  21.670   1.377
 9343W        W68780  34.548  42.281   4.697
 9344W        W68781  12.357  26.135  11.994
 9345W        W68782  22.137  39.486   4.137
 9346W        W68783  24.114  19.670   4.747
 9347W        W68784  35.865  30.486  14.988
 9348W        W68785  18.225  20.760   0.249
 9349W        W68786  32.571  34.403   4.715
 9350W        W68787  18.105   6.215   0.964
 9351W        W68788  25.134   8.331  13.919
 9352W        W68789  23.571  23.495   2.263
 9353W        W68790  26.504   2.865  12.449
 9354W        W68791  19.623  31.493  14.874
 9355W        W68792  22.595  40.859   2.824
 9356W        W68793  11.776  29.423   1.821
 9357W        W68794  20.066   4.304   1.931
 9358W        W68795  38.566   1.944  11.605
 9359W        W68796  38.376   8.705  12.451
 9360W        W68797  10.188  30.039  11.527
 9361W        W68798   7.827  20.671  12.012
 9362W        W68799  34.003  38.571   3.826
 9363W        W68800  26.647  30.147   0.436
 9364W        W68801  11.684  27.179  10.492
 9365W        W68802  43.796  13.236  10.509
 9366W        W68803  37.876   9.696  14.773
 9367W        W68804  27.460  43.860  11.882
 9368W        W68805  39.842  34.949  12.418
 9369W        W68806  43.402  15.198   0.341
 9370W        W68807  23.070  31.565  13.360
 9371W        W68808  21.068  15.629  10.468
 9372W        W68809   9.871  42.410  14.319
 9373W        W68810  34.958  29.968  14.443
 9374W        W68811  21.229  35.576   3.311
 9375W        W68812   9.869  12.259   1.232
 9376W        W68813  12.256  14.297   1.866
 9377W        W68814  38.413  19.605   3.372
 9378W        W68815  42.338  29.991  12.900
 9379W        W68816  44.483  42.509   2.333
 9380W        W68817   1.247  20.094  13.367
 9381W        W68818   3.234  13.179  12.957
 9382W        W68819  14.592  12.270   1.818
 9383W        W68820  20.121  22.509   4.311
 9384W        W68821  28.936   4.378  13.979
 9385W        W68822   7.734   3.865  12.895
 9386W        W68823  39.489  34.061  10.427
 9387W        W68824  32.890  44.007  10.606
 9388W        W68825   3.443  44.372  10.112
 9389W        W68826  31.942  19.692  10.547
 9390W        W68827   9.234  42.345  11.925
 9391W        W68828  16.222  27.560   4.340
 9392W        W68829  37.377  14.201  14.966
 9393W        W68830  26.064  34.958   4.287
 9394W        W68831  29.464   5.388   1.870
 9395W        W68832  16.272  12.699   3.249
 9396W        W68833  33.567  41.934  11.033
 9397W        W68834  18.112  11.362  12.870
 9398W        W68835  12.303  15.819   0.260
 9399W        W68836  31.469   7.694   1.285
 9400W        W68837  39.018  23.189  13.470
 9401W        W68838  18.758  32.059   1.827
 9402W        W68839  36.495  35.033   5.274
 9403W        W68840  29.511   9.761  12.552
 9404W        W68841  12.734  22.511   0.831
 9405W        W68842   4.437  16.773  13.844
 9406W        W68843  33.582  33.398   1.798
 9407W        W68844  22.706  13.164  10.592
 9408W        W68845  13.241   6.849   2.303
 9409W        W68846  39.924   4.276   3.673
 9410W        W68847   7.669  41.804  13.404
 9411W        W68848  35.935  17.685  11.929
 9412W        W68849   7.308  36.886   2.388
 9413W        W68850  36.575  12.301   0.733
 9414W        W68851   8.383  29.535   1.919
 9415W        W68852  23.560  31.627  10.539
 9416W        W68853  44.363  40.431   1.874
 9417W        W68854  42.941  12.169  12.521
 9418W        W68855   8.870  36.356  11.861
 9419W        W68856  41.299  13.808  13.844
 9420W        W68857   0.426  18.288   0.962
 9421W        W68858   2.330  17.720   3.694
 9422W        W68859   5.716   9.373   0.773
 9423W        W68860   6.809   4.771   3.188
 9424W        W68861  12.702  20.624  12.428
 9425W        W68862  10.184  18.643  12.050
 9426W        W68863  34.003  17.287  12.395
 9427W        W68864  26.585  34.961   0.860
 9428W        W68865   8.768  35.433   1.742
 9429W        W68866  39.419  13.664   0.831
 9430W        W68867  25.700  39.840   2.325
 9431W        W68868  21.654  41.018  14.943
 9432W        W68869  26.591  43.984   3.840
 9433W        W68870   4.937   2.237  13.399
 9434W        W68871  41.293  15.145  14.920
 9435W        W68872  20.564  39.048   4.634
 9436W        W68873  10.308  22.134  10.424
 9437W        W68874  29.648  29.055   3.735
 9438W        W68875  27.610  26.489   4.335
 9439W        W68876  27.125  19.279  14.785
 9440W        W68877  36.540  15.595   9.979
 9441W        W68878  25.149  43.867   0.944
 9442W        W68879  40.859  37.042   3.759
 9443W        W68880  11.829  19.285  12.427
 9444W        W68881  28.177   9.263   4.835
 9445W        W68882   1.355  14.223  11.021
 9446W        W68883  13.255  16.724   4.120
 9447W        W68884  38.371  33.894  13.479
 9448W        W68885   7.325   3.753  11.502
 9449W        W68886  23.647  11.662  13.946
 9450W        W68887  17.211   9.733  11.510
 9451W        W68888  17.738  18.295   4.829
 9452W        W68889   7.222   2.467  10.975
 9453W        W68890  20.269  17.166  12.964
 9454W        W68891  28.175  28.135   2.257
 9455W        W68892   5.909   8.752  13.503
 9456W        W68893   0.297  18.565   0.396
 9457W        W68894  42.836  43.820  12.347
 9458W        W68895  32.063  24.103   2.264
 9459W        W68896   0.987  14.688  11.903
 9460W        W68897  26.509  34.925   3.182
 9461W        W68898  19.227  24.989  11.050
 9462W        W68899   2.884  41.346  11.562
 9463W        W68900  22.247  36.894   3.192
 9464W        W68901  20.169  38.888  11.400
 9465W        W68902  15.732  29.556  13.907
 9466W        W68903  12.709  17.290  12.384
 9467W        W68904  44.834  12.272   1.892
 9468W        W68905  27.479  26.619   0.778
 9469W        W68906  18.272  26.680  14.992
 9470W        W68907  43.372   4.713   0.840
 9471W        W68908  25.965  41.528   4.816
 9472W        W68909  24.652  13.780   4.128
 9473W        W68910   8.708  24.109  13.363
 9474W        W68911  43.468  10.709   0.930
 9475W        W68912  44.492  11.783   4.806
 9476W        W68913  28.500  31.564   1.355
 9477W        W68914  22.677  29.611  13.397
 9478W        W68915   3.724   5.762   4.782
 9479W        W68916   5.230  36.975   2.672
 9480W        W68917   2.883  31.514  10.566
 9481W        W68918   0.454  14.828   4.730
 9482W        W68919  22.530   6.197  13.343
 9483W        W68920   4.837   1.749   1.874
 9484W        W68921  21.124  42.941   0.773
 9485W        W68922  10.345   3.386  11.961
 9486W        W68923  23.096   5.277  12.849
 9487W        W68924  32.951  18.239   4.703
 9488W        W68925  44.274  11.184   0.400
 9489W        W68926  44.814   6.810  11.411
 9490W        W68927  20.165  33.882  14.886
 9491W        W68928  40.902  15.631   0.377
 9492W        W68929   6.742  23.628   2.795
 9493W        W68930  19.538  44.848   1.927
 9494W        W68931  32.927  40.030  13.910
 9495W        W68932  34.971   4.819  12.889
 9496W        W68933  10.322  24.484  14.347
 9497W        W68934  40.536  15.317  12.433
 9498W        W68935  32.422  28.125  10.599
 9499W        W68936  30.441   8.765   1.272
 9500W        W68937  34.446  29.617  13.345
 9501W        W68938  37.909  26.151  14.473
 9502W        W68939  30.098  37.367   4.269
 9503W        W68940  24.637  11.200  14.996
 9504W        W68941  22.681  42.458   1.448
 9505W        W68942  36.926   3.850   4.144
 9506W        W68943  30.452  32.636   1.752
 9507W        W68944  29.663  17.176   1.727
 9508W        W68945  44.490   4.812   5.098
 9509W        W68946   8.842  37.076   4.676
 9510W        W68947  24.080  28.931  10.492
 9511W        W68948   3.843  37.426  13.820
 9512W        W68949  24.116  11.373  12.066
 9513W        W68950  36.572  25.100  14.763
 9514W        W68951  23.238  43.998   1.328
 9515W        W68952  34.066  15.617   2.372
 9516W        W68953  37.915  29.642  14.823
 9517W        W68954  44.273   7.739  11.982
 9518W        W68955   5.275   9.756  11.096
 9519W        W68956  25.109  19.680  11.125
 9520W        W68957  19.200   6.412  14.956
 9521W        W68958  10.835   1.472   2.825
 9522W        W68959  30.416  43.499  11.041
 9523W        W68960  17.155  33.391  14.469
 9524W        W68961  14.598  33.878  11.865
 9525W        W68962  16.671  36.503   0.803
 9526W        W68963  33.466  31.922  12.040
 9527W        W68964  20.201  40.881  14.978
 9528W        W68965  43.907  19.055  13.894
 9529W        W68966  21.068   7.747   0.461
 9530W        W68967   8.197  11.365   3.682
 9531W        W68968  20.610  21.054  14.486
 9532W        W68969   2.369  39.921   0.382
 9533W        W68970  27.553  44.965   4.290
 9534W        W68971   6.776  29.425   5.581
 9535W        W68972  18.730  23.600   2.342
 9536W        W68973  28.153  23.629  10.463
 9537W        W68974   0.273  43.942   2.189
 9538W        W68975  36.088   7.242  14.848
 9539W        W68976  27.103   4.267   1.316
 9540W        W68977  43.780  44.316   4.666
 9541W        W68978   3.434  25.593   1.727
 9542W        W68979  18.711  24.030  10.967
 9543W        W68980  41.793  40.534   2.344
 9544W        W68981  22.532  38.950  11.956
 9545W        W68982  36.491  17.068   3.847
 9546W        W68983   2.748  13.817  13.873
 9547W        W68984  25.494  22.648   1.213
 9548W        W68985   4.391  35.443  13.316
 9549W        W68986  38.339   4.745   3.803
 9550W        W68987  13.748  13.839  10.887
 9551W        W68988   4.846   6.698  13.921
 9552W        W68989  43.307   7.803   3.679
 9553W        W68990   1.940  44.955   3.378
 9554W        W68991  23.518   9.191   0.417
 9555W        W68992   4.759  12.218   9.546
 9556W        W68993   9.369  40.499   1.290
 9557W        W68994   3.387   6.802  12.547
 9558W        W68995  43.444  39.340  10.511
 9559W        W68996  41.866  19.559   3.668
 9560W        W68997  32.418   8.841  10.570
 9561W        W68998  32.483  21.220   4.192
 9562W        W68999   6.285  42.456  11.394
 9563W        W69000  21.134  41.293  10.567
 9564W        W69001  26.666   8.360   0.340
 9565W        W69002  33.893   5.358   0.933
 9566W        W69003  41.995   1.463  11.893
 9567W        W69004  38.569  11.296   4.138
 9568W        W69005  16.284   6.407   2.693
 9569W        W69006  24.536  32.599  14.414
 9570W        W69007  43.472   2.337  11.407
 9571W        W69008  42.405  17.267  10.933
 9572W        W69009   0.315  38.049   2.328
 9573W        W69010   7.711  20.668  12.862
 9574W        W69011   7.308  20.040  13.875
 9575W        W69012  12.781  34.073  12.362
 9576W        W69013  41.949  34.585  13.955
 9577W        W69014  30.935   7.296  10.997
 9578W        W69015  24.194   6.731   1.771
 9579W        W69016  40.905  18.057  12.444
 9580W        W69017  32.543  38.905   2.300
 9581W        W69018  21.726  41.790  11.555
 9582W        W69019   4.849  30.644   3.312
 9583W        W69020   8.675  21.255   2.305
 9584W        W69021  28.965  43.873  11.568
 9585W        W69022  35.999  34.478   2.901
 9586W        W69023  34.369  36.495  10.527
 9587W        W69024  10.633  15.769   1.314
 9588W        W69025  15.203  16.140   0.838
 9589W        W69026  42.288  41.307  10.444
 9590W        W69027  31.904  31.140  12.875
 9591W        W69028  43.292  32.018   3.767
 9592W        W69029  34.005  28.124  13.379
 9593W        W69030  44.402   4.212  13.973
 9594W        W69031  39.512   1.940   4.716
 9595W        W69032  15.222  37.435  10.979
 9596W        W69033  42.969  23.693   3.182
 9597W        W69034  22.123  36.363  11.931
 9598W        W69035  26.667  44.472  11.531
 9599W        W69036  36.956  33.547  12.573
 9600W        W69037  16.118   9.722  14.959
 9601W        W69038  10.309  33.899  10.449
 9602W        W69039  30.145  34.564   3.277
 9603W        W69040  11.778  44.465   9.990
 9604W        W69041  24.554  21.052  10.562
 9605W        W69042  30.977  42.846   0.307
 9606W        W69043  42.811  28.609  10.593
 9607W        W69044  40.044  24.988   4.794
 9608W        W69045  21.212  22.216  12.908
 9609W        W69046   9.876   2.367   1.342
 9610W        W69047   3.226  19.588  14.325
 9611W        W69048  25.196   6.784   1.414
 9612W        W69049  24.075  28.613  10.979
 9613W        W69050   7.227  37.344  11.938
 9614W        W69051   3.902   2.370   0.471
 9615W        W69052  13.758  11.135  14.437
 9616W        W69053  35.520  18.592   3.325
 9617W        W69054  44.010  20.117   2.412
 9618W        W69055   4.710   2.274  14.513
 9619W        W69056  10.860   5.285   2.416
 9620W        W69057  32.073  36.375  12.394
 9621W        W69058  24.180  35.511  10.637
 9622W        W69059  20.616  40.923  14.901
 9623W        W69060  32.044  10.189  12.071
 9624W        W69061  23.181  28.662  10.607
 9625W        W69062  29.626  29.961  13.032
 9626W        W69063  24.574   6.711   3.168
 9627W        W69064  11.763  15.250  10.463
 9628W        W69065  19.739  28.109  11.056
 9629W        W69066  31.536  21.031   3.156
 9630W        W69067  20.741  27.461   0.251
 9631W        W69068  10.779  24.709   4.611
 9632W        W69069  44.279  42.383   3.290
 9633W        W69070  43.329  23.044   4.824
 9634W        W69071  44.818  12.718   3.172
 9635W        W69072  25.701  17.555  11.990
 9636W        W69073  18.695  21.739   1.245
 9637W        W69074  35.600  36.862   4.115
 9638W        W69075  16.128   3.906   2.313
 9639W        W69076   0.317  14.623  10.964
 9640W        W69077  22.132  37.413   0.779
 9641W        W69078  11.150  27.575   1.699
 9642W        W69079  36.908   7.678   2.879
 9643W        W69080  26.133   4.341  11.070
 9644W        W69081  22.226   9.155  12.996
 9645W        W69082   3.906  37.364  10.996
 9646W        W69083  39.818  16.686   2.230
 9647W        W69084  35.513  31.094   3.301
 9648W        W69085  15.144  11.659  14.882
 9649W        W69086  27.141  22.059  12.372
 9650W        W69087  29.129  23.142  12.515
 9651W        W69088  36.399  26.049   1.293
 9652W        W69089  21.054  37.493   1.847
 9653W        W69090  43.783  33.114   3.326
 9654W        W69091  41.821  26.584   0.744
 9655W        W69092   2.240  19.159  13.482
 9656W        W69093  14.752  38.360   4.278
 9657W        W69094  25.124   6.826  13.999
 9658W        W69095   7.200   3.314  11.856
 9659W        W69096  22.636  37.004  10.530
 9660W        W69097  21.687  20.744   0.812
 9661W        W69098  18.195  44.298   2.760
 9662W        W69099  38.926  28.479   3.301
 9663W        W69100  29.039  23.183   1.397
 9664W        W69101   8.221  38.964  11.577
 9665W        W69102  33.544  36.985  14.922
 9666W        W69103  31.089  25.609  13.323
 9667W        W69104   7.801  16.757   2.902
 9668W        W69105  18.621  12.139  13.010
 9669W        W69106  30.585  21.530   0.434
 9670W        W69107  24.537  44.881  12.890
 9671W        W69108  36.507   5.692  12.064
 9672W        W69109   5.401  40.886   4.146
 9673W        W69110  24.206   5.921   2.379
 9674W        W69111  41.477  42.510  12.836
 9675W        W69112  29.598  34.919  13.942
 9676W        W69113  29.041   9.310   0.781
 9677W        W69114  25.188  36.451  11.095
 9678W        W69115  32.945  24.131  12.904
 9679W        W69116  11.175  26.142   4.214
 9680W        W69117  41.899  32.920   4.337
 9681W        W69118   7.735   7.355  12.407
 9682W        W69119  37.581  11.674  11.922
 9683W        W69120  11.281  33.381  13.037
 9684W        W69121  33.456  19.105   3.246
 9685W        W69122  20.209  21.128   4.123
 9686W        W69123  42.822  24.116   1.211
 9687W        W69124  22.125  23.550  14.282
 9688W        W69125  18.687   0.356  10.478
 9689W        W69126  36.995  34.526  14.465
 9690W        W69127   5.417   5.866  12.503
 9691W        W69128  29.936   9.652  14.883
 9692W        W69129   5.211   3.894  11.074
 9693W        W69130  28.544  20.547  14.406
 9694W        W69131  41.958  20.561  11.094
 9695W        W69132  26.062  21.606   5.732
 9696W        W69133  14.202   4.842  10.487
 9697W        W69134  33.472  19.229  12.349
 9698W        W69135   8.854  22.162  13.436
 9699W        W69136  38.431  16.142  12.914
 9700W        W69137  21.128  28.157  14.764
 9701W        W69138  25.991  13.836  13.808
 9702W        W69139  41.855  18.742   2.339
 9703W        W69140  29.981  37.972   1.246
 9704W        W69141   1.359  44.011   1.802
 9705W        W69142  19.775  37.441  12.549
 9706W        W69143  11.140   6.419   0.933
 9707W        W69144  31.457  20.052   1.694
 9708W        W69145  37.969  22.699  14.032
 9709W        W69146   6.326  13.633   3.246
 9710W        W69147  36.970  17.674   0.360
 9711W        W69148   9.658  19.044   3.243
 9712W        W69149  17.179  18.635   1.848
 9713W        W69150  27.609  24.591   4.667
 9714W        W69151  36.074   1.974   2.227
 9715W        W69152   1.931  21.224   4.741
 9716W        W69153   9.694  36.567  12.879
 9717W        W69154  16.724  11.829   2.268
 9718W        W69155  36.933  10.258  11.396
 9719W        W69156   0.881   2.409  12.860
 9720W        W69157  41.838   3.782   3.698
 9721W        W69158  25.639  40.048   1.862
 9722W        W69159  27.538   0.331   1.248
 9723W        W69160  11.774  38.539  14.463
 9724W        W69161  28.177   8.202   4.130
 9725W        W69162  38.916  26.649  14.434
 9726W        W69163  31.121  13.769   0.352
 9727W        W69164  26.557  18.113   3.280
 9728W        W69165  25.611  22.738  13.859
 9729W        W69166  28.585  29.111   2.291
 9730W        W69167  23.560  29.028   4.776
 9731W        W69168   9.650  21.065   1.704
 9732W        W69169  33.400  39.886   0.961
 9733W        W69170  29.166  24.539   2.366
 9734W        W69171  40.895  41.488   1.405
 9735W        W69172  13.210  25.541  14.790
 9736W        W69173  35.572   4.209   1.765
 9737W        W69174  43.483  43.342   1.849
 9738W        W69175  43.361  27.630  13.021
 9739W        W69176  37.541  40.896   3.319
 9740W        W69177  31.963  11.658   2.227
 9741W        W69178  21.513  40.417  12.484
 9742W        W69179   6.336   5.233   9.978
 9743W        W69180  16.590   1.864   3.352
 9744W        W69181  36.436  13.663  12.375
 9745W        W69182  22.237  44.841   0.780
 9746W        W69183   6.808  40.413  11.465
 9747W        W69184  36.577  18.287   1.384
 9748W        W69185  15.198  12.127  10.598
 9749W        W69186  32.478  32.922   1.703
 9750W        W69187  32.911  15.161  10.941
 9751W        W69188  37.961  43.012   5.208
 9752W        W69189  23.672  21.172  10.032
 9753W        W69190  26.660   5.874  13.537
 9754W        W69191  21.617  34.393  13.490
 9755W        W69192  10.740  32.097  11.932
 9756W        W69193   2.343  21.025  10.573
 9757W        W69194  44.839  41.033  11.117
 9758W        W69195  13.264  17.559   0.729
 9759W        W69196   7.901  16.073   0.379
 9760W        W69197  41.973   0.344   2.341
 9761W        W69198  34.552  19.668   2.681
 9762W        W69199  43.016  20.042  11.052
 9763W        W69200  37.081  28.942   4.293
 9764W        W69201   4.352  35.506  12.985
 9765W        W69202  29.505  39.560   0.315
 9766W        W69203   7.892   3.219   2.857
 9767W        W69204  43.892   9.882  11.972
 9768W        W69205   1.393  41.364  11.128
 9769W        W69206  28.092   6.791  10.621
 9770W        W69207  42.985  13.763  11.380
 9771W        W69208   9.695   5.751   0.794
 9772W        W69209  27.534   0.317  12.480
 9773W        W69210  44.797  23.067  11.413
 9774W        W69211   8.269  40.424   0.371
 9775W        W69212  42.889  33.891   4.229
 9776W        W69213  42.394  28.591  13.469
 9777W        W69214  23.059  15.664  11.987
 9778W        W69215  21.548  35.466   0.310
 9779W        W69216  28.520  37.463   3.801
 9780W        W69217  17.281  23.732  10.007
 9781W        W69218  24.032   2.859  13.801
 9782W        W69219  43.994  14.116   0.758
 9783W        W69220  29.536  21.694   0.967
 9784W        W69221  43.884  25.179  11.494
 9785W        W69222  39.943  36.395   0.798
 9786W        W69223  32.404  43.504   3.175
 9787W        W69224  20.590  26.505   5.151
 9788W        W69225  39.057  18.200   1.928
 9789W        W69226  12.188  40.866   3.343
 9790W        W69227   2.371  28.934  13.894
 9791W        W69228  43.943  18.620  14.372
 9792W        W69229  14.632   9.724  11.975
 9793W        W69230  40.312   9.232  12.477
 9794W        W69231  40.926  17.076   2.833
 9795W        W69232  19.552  18.070   0.362
 9796W        W69233  36.912  29.929  14.866
 9797W        W69234  16.756  14.134  11.384
 9798W        W69235  14.731  11.776   3.354
 9799W        W69236  44.844  37.016  10.894
 9800W        W69237   5.339   3.867  12.566
 9801W        W69238   6.365  37.943   4.639
 9802W        W69239  29.444  36.886   3.378
 9803W        W69240   0.280  29.089   2.240
 9804W        W69241   0.940   8.870   2.806
 9805W        W69242  39.056  32.537   3.855
 9806W        W69243  43.858  34.042   3.752
 9807W        W69244  44.940  30.604   4.697
 9808W        W69245  36.450  44.453   1.750
 9809W        W69246  11.640   7.733   3.203
 9810W        W69247  13.756  32.409  12.904
 9811W        W69248  16.153   6.715   3.652
 9812W        W69249   9.289  31.136  11.964
 9813W        W69250  42.873  25.114  13.042
 9814W        W69251  12.660  36.863  14.287
 9815W        W69252  20.702  39.988   3.213
 9816W        W69253  24.551  31.513  13.833
 9817W        W69254  42.428  10.714  11.049
 9818W        W69255   3.254   9.696   1.287
 9819W        W69256  14.120  11.135   4.639
 9820W        W69257   7.390   1.852  11.557
 9821W        W69258  35.078   3.723  13.839
 9822W        W69259   6.890   5.866  11.938
 9823W        W69260  39.344  10.297  14.836
 9824W        W69261  12.185  29.043  10.630
 9825W        W69262  14.185  11.824  14.014
 9826W        W69263   5.363  12.723   1.704
 9827W        W69264  34.054  21.156  10.983
 9828W        W69265  27.097  25.629   4.817
 9829W        W69266   5.348  17.150  11.581
 9830W        W69267  35.943  20.115   0.473
 9831W        W69268  42.348  33.971  12.569
 9832W        W69269  24.624  12.739   0.371
 9833W        W69270   7.831  42.799   2.773
 9834W        W69271  23.083  11.730  13.866
 9835W        W69272  33.086  44.777   2.266
 9836W        W69273   6.821  12.314  11.383
 9837W        W69274  18.178  14.728   3.760
 9838W        W69275  32.492  26.177  13.378
 9839W        W69276  24.040  15.578  13.939
 9840W        W69277  24.577   4.836   2.206
 9841W        W69278  14.667  29.030   4.317
 9842W        W69279   6.764  44.295  11.586
 9843W        W69280  30.121  24.068  13.398
 9844W        W69281  11.665   6.329   2.230
 9845W        W69282  37.911  24.713   3.716
 9846W        W69283   3.371  36.062  10.899
 9847W        W69284  31.523  17.741  11.916
 9848W        W69285  14.790  23.593   3.790
 9849W        W69286  32.509  12.298  14.926
 9850W        W69287  40.378  36.384  14.327
 9851W        W69288  44.308   2.300  11.528
 9852W        W69289  24.130   3.225   9.952
 9853W        W69290  24.177  33.948   0.340
 9854W        W69291  31.040  15.676   5.244
 9855W        W69292   4.871  21.729  14.906
 9856W        W69293  43.778  37.869   2.410
 9857W        W69294  13.132  13.184  12.422
 9858W        W69295  33.938  32.892   1.329
 9859W        W69296  25.708  41.848  11.987
 9860W        W69297  22.675  28.067   5.268
 9861W        W69298  31.616  26.002  12.856
 9862W        W69299  42.309  15.278   3.744
 9863W        W69300  44.429  21.748  10.548
 9864W        W69301   1.827  43.468  10.603
 9865W        W69302  19.613  39.410   4.150
 9866W        W69303  15.225  21.527   0.850
 9867W        W69304  26.591  42.473  12.439
 9868W        W69305   6.282   4.913  13.417
 9869W        W69306  25.470  25.097   1.372
 9870W        W69307   7.275   7.738  13.058
 9871W        W69308  16.736  20.552  14.429
 9872W        W69309  21.241   0.472   2.694
 9873W        W69310  25.650   5.391   4.664
 9874W        W69311   0.266   3.916   3.232
 9875W        W69312   0.416  11.205  12.891
 9876W        W69313  16.176  35.946   3.363
 9877W        W69314   5.762  37.878  10.907
 9878W        W69315  35.593  28.530   1.741
 9879W        W69316  24.178  34.880  13.966
 9880W        W69317  14.163   3.357  10.941
 9881W        W69318  26.529  34.369   4.715
 9882W        W69319  16.632  23.652   0.968
 9883W        W69320  27.952  44.829   1.875
 9884W        W69321  23.642  23.641  12.056
 9885W        W69322   0.384  14.151  10.625
 9886W        W69323  30.931  39.536  12.061
 9887W        W69324   0.269   3.423   0.874
 9888W        W69325   3.426  14.307   3.813
 9889W        W69326   6.776  33.045   1.360
 9890W        W69327  30.072  27.530  14.279
 9891W        W69328  18.170   9.665   2.848
 9892W        W69329  20.271   3.728  12.908
 9893W        W69330   1.293  34.043  12.550
 9894W        W69331  21.750   2.241   0.782
 9895W        W69332  35.913  23.632  13.430
 9896W        W69333  23.700  32.588  12.865
 9897W        W69334   1.299  16.786   4.220
 9898W        W69335  12.189   7.372   3.801
 9899W        W69336   3.906  28.527   4.270
 9900W        W69337  20.115  42.784   9.619
 9901W        W69338  21.645  39.361  12.885
 9902W        W69339  28.050  18.786   0.896
 9903W        W69340   6.224  36.517   1.892
 9904W        W69341  20.062   9.874   1.349
 9905W        W69342  31.613   3.778   3.629
 9906W        W69343  11.705   5.234  14.876
 9907W        W69344  20.033  30.554  12.414
 9908W        W69345  14.231  41.825  12.527
 9909W        W69346  17.196  15.786   2.781
 9910W        W69347  37.876   4.321   2.823
 9911W        W69348   3.230   2.955   4.601
 9912W        W69349  43.299  42.963  10.999
 9913W        W69350  24.091  28.961   3.791
 9914W        W69351  18.182  10.362  11.528
 9915W        W69352   2.912  30.012   1.380
 9916W        W69353  23.721   0.323  14.342
 9917W        W69354  29.974   9.296   2.300
 9918W        W69355  20.114  28.095  11.006
 9919W        W69356  37.373   9.786  13.995
 9920W        W69357  32.420  21.605   1.410
 9921W        W69358   9.688  23.020  12.883
 9922W        W69359  30.453  42.992  14.915
 9923W        W69360  26.182   1.840  11.439
 9924W        W69361   6.208  21.721   2.395
 9925W        W69362  19.218  12.203   2.881
 9926W        W69363   3.725  27.605   2.337
 9927W        W69364  24.188  24.551   4.811
 9928W        W69365  30.479  10.874   1.802
 9929W        W69366  21.630   3.452   3.680
 9930W        W69367   3.258  28.619  11.575
 9931W        W69368  29.032  10.746  13.875
 9932W        W69369  33.445   7.757  14.025
 9933W        W69370  29.918   1.419  13.885
 9934W        W69371  13.160  16.617   0.378
 9935W        W69372  37.999   9.768  12.851
 9936W        W69373   1.435   2.781   2.318
 9937W        W69374  36.578  25.011   1.251
 9938W        W69375   4.800  12.196   3.771
 9939W        W69376   3.944  43.368   0.955
 9940W        W69377  29.440   3.439   1.867
 9941W        W69378   5.335  32.592  10.997
 9942W        W69379  14.668  10.809   2.700
 9943W        W69380  32.982  28.466   3.839
 9944W        W69381  25.132  44.298   4.195
 9945W        W69382  19.636  31.081  12.064
 9946W        W69383  40.856  30.479   4.286
 9947W        W69384  36.485  16.661   2.294
 9948W        W69385   8.192  23.002  10.529
 9949W        W69386  22.607  42.006  12.353
 9950W        W69387  26.518   6.403   2.395
 9951W        W69388  23.119  37.404  14.346
 9952W        W69389  12.175  19.757   0.402
 9953W        W69390  37.031  10.673  14.369
 9954W        W69391   1.419  10.692   4.325
 9955W        W69392  28.518  11.287   0.923
 9956W        W69393  23.617  34.106   4.315
 9957W        W69394  43.852  30.938   0.768
 9958W        W69395   9.149  24.607  11.973
 9959W        W69396   8.856   7.748   0.824
 9960W        W69397   1.796   7.233   0.851
 9961W        W69398  43.792  18.051  13.934
 9962W        W69399  32.610  16.131  12.917
 9963W        W69400  27.531  23.022   2.687
 9964W        W69401   6.206  41.984  13.979
 9965W        W69402  35.035  25.530  13.407
 9966W        W69403   9.156  28.656   0.287
 9967W        W69404   9.256  43.326  11.473
 9968W        W69405  35.510  12.788   4.622
 9969W        W69406  22.730   5.254   4.238
 9970W        W69407  21.136   4.399  14.422
 9971W        W69408  31.089   6.900  10.978
 9972W        W69409  24.086  25.524   5.159
 9973W        W69410  20.714   0.394   3.371
 9974W        W69411  40.926  25.487  14.287
 9975W        W69412   5.818  12.180  10.451
 9976W        W69413  43.320  43.010  12.912
 9977W        W69414  17.289  20.271  12.963
 9978W        W69415   4.852  23.556   1.736
 9979W        W69416  37.948  33.105  11.012
 9980W        W69417  44.769  18.260  14.381
 9981W        W69418  30.624  19.657   1.295
 9982W        W69419   9.830  40.959   1.322
 9983W        W69420  37.962  31.414   4.795
 9984W        W69421  20.687  36.015  10.631
 9985W        W69422  39.319   7.774   1.288
 9986W        W69423  19.727  26.665   1.402
 9987W        W69424   4.214  33.591  13.462
 9988W        W69425  18.595  25.011   1.802
 9989W        W69426   2.943  24.539   1.321
 9990W        W69427  22.031   1.483  13.517
 9991W        W69428  38.376  13.143  11.899
 9992W        W69429  19.182  41.951  11.539
 9993W        W69430   3.778  32.610   4.660
 9994W        W69431  39.049   6.329   9.968
 9995W        W69432  34.074  24.510   3.243
 9996W        W69433  26.977   3.879   4.133
 9997W        W69434   6.901   5.761   3.382
 9998W        W69435   3.375  39.517   2.370
 9999W        W69436  23.513  20.588   0.777
10000W        W69437  41.343   8.384   1.713
10001W        W69438  22.636  25.117   4.708
10002W        W69439  39.016  32.951  14.957
10003W        W69440   5.376  12.275   2.809
10004W        W69441   7.265  23.222   4.753
10005W        W69442   1.752  12.852  10.912
10006W        W69443  14.810  21.643  14.852
10007W        W69444  36.377  38.882  13.791
10008W        W69445  23.637  44.485  10.546
10009W        W69446  18.713  34.061   1.229
10010W        W69447  19.098  32.976   1.445
10011W        W69448  34.107  42.353  14.500
10012W        W69449  25.618  43.983   0.423
10013W        W69450  31.574  37.337  14.309
10014W        W69451  33.019   9.317   3.643
10015W        W69452  24.983   9.795   5.780
10016W        W69453  38.494  25.112  12.383
10017W        W69454  17.186  25.030  11.913
10018W        W69455  29.577   3.418   1.249
10019W        W69456  23.649  22.718  10.999
10020W        W69457   8.259  12.345  12.542
10021W        W69458  17.076  39.065   1.885
10022W        W69459   8.712   1.341  13.348
10023W        W69460  32.604  21.151  13.943
10024W        W69461  38.387  30.536   3.738
10025W        W69462  41.937  35.094  12.433
10026W        W69463  43.349   4.884  14.923
10027W        W69464  41.422  11.629  11.001
10028W        W69465  38.373  38.048   4.230
10029W        W69466   8.213  35.054   0.331
10030W        W69467  41.026  35.595  10.615
10031W        W69468  15.617   0.970  14.445
10032W        W69469   4.856  23.163  10.969
10033W        W69470  37.350  28.943  12.879
10034W        W69471   6.403  30.985   1.441
10035W        W69472  41.792  18.597  11.515
10036W        W69473  29.569  37.442  12.882
10037W        W69474  24.221  26.694  10.638
10038W        W69475  29.925  18.145   0.749
10039W        W69476  40.950  10.227  11.459
10040W        W69477   6.779  19.555  14.911
10041W        W69478  12.231  20.262   4.277
10042W        W69479  31.588  17.210   3.241
10043W        W69480  24.617   0.468   2.184
10044W        W69481  33.896  17.117   1.932
10045W        W69482  11.225  26.477   2.871
10046W        W69483  25.590   6.903  12.947
10047W        W69484   9.347  10.324   2.397
10048W        W69485  11.245  28.673  11.034
10049W        W69486  24.700   6.211   1.736
10050W        W69487   6.405  41.927   1.748
10051W        W69488  11.664   3.774   0.410
10052W        W69489  44.402  28.942   3.665
10053W        W69490  16.651   6.782  12.511
10054W        W69491  32.140  26.030   0.779
10055W        W69492   4.837  21.632  14.510
10056W        W69493  42.936  22.087   4.606
10057W        W69494   4.232  18.195  11.128
10058W        W69495   6.400  28.970   0.823
10059W        W69496   4.926  20.651   2.858
10060W        W69497  38.484  40.419  13.800
10061W        W69498  23.053  26.660   2.396
10062W        W69499  43.278  28.483   0.784
10063W        W69500  16.603  19.771   2.285
10064W        W69501   3.306  21.602   3.175
10065W        W69502   7.722  43.375   3.385
10066W        W69503  13.253  10.729  11.881
10067W        W69504   8.879  27.685  10.120
10068W        W69505  37.462  37.496   0.870
10069W        W69506  38.951   7.674   4.337
10070W        W69507  44.282  23.638  11.017
10071W        W69508  31.138  12.766  11.378
10072W        W69509  10.198  19.696  10.086
10073W        W69510  37.048  35.515   3.213
10074W        W69511  15.226   2.864   3.220
10075W        W69512  34.023  40.846   3.236
10076W        W69513  29.641  41.530  13.543
10077W        W69514  36.577  38.030   4.752
10078W        W69515  32.932   4.357  13.831
10079W        W69516  37.508  16.134  12.000
10080W        W69517  32.450  38.937  12.995
10081W        W69518  44.445  14.126  10.565
10082W        W69519  27.565  10.330   0.886
10083W        W69520  10.193  21.166   2.350
10084W        W69521  33.542  37.529   9.944
10085W        W69522  37.928   6.182   2.195
10086W        W69523  44.261   3.441   4.199
10087W        W69524  34.066  41.485   0.398
10088W        W69525  44.864  34.371   5.232
10089W        W69526  26.964  11.190   2.772
10090W        W69527  25.072  40.360   9.980
10091W        W69528  16.666  21.244   2.726
10092W        W69529  24.119   2.321   4.284
10093W        W69530  23.119  13.329  12.494
10094W        W69531  43.888  21.190  12.426
10095W        W69532   5.717   1.796   3.863
10096W        W69533  17.681   5.418  13.011
10097W        W69534  33.452  25.656  10.437
10098W        W69535   3.739  37.459  13.035
10099W        W69536  29.964  17.257   1.393
10100W        W69537  31.594  36.591   3.826
10101W        W69538  40.491  32.918   4.830
10102W        W69539  29.978  25.482   3.711
10103W        W69540  26.615  22.171  11.484
10104W        W69541  22.175  41.459  13.312
10105W        W69542  27.969  23.622   0.303
10106W        W69543  43.493  34.478   0.472
10107W        W69544  29.071  36.989   0.952
10108W        W69545  34.894  29.460   3.653
10109W        W69546  43.974   9.326   4.692
10110W        W69547  34.586  10.753   4.810
10111W        W69548  22.211  23.673  12.893
10112W        W69549  28.497  28.141  13.834
10113W        W69550  35.551  16.100  10.995
10114W        W69551  40.529   5.848   3.331
10115W        W69552  41.863  32.060   3.823
10116W        W69553  34.898  25.666  12.373
10117W        W69554   2.446   9.384  13.330
10118W        W69555   3.931  40.923  14.798
10119W        W69556  44.332  26.019  11.026
10120W        W69557  30.616   0.404   0.888
10121W        W69558   1.755   2.271   3.219
10122W        W69559   1.741  14.657  12.419
10123W        W69560  22.733  30.968   1.388
10124W        W69561   1.811  21.570  12.402
10125W        W69562  23.090  28.065   0.473
10126W        W69563  27.977  37.554   3.348
10127W        W69564  30.510  26.146  12.937
10128W        W69565  30.601  22.241   9.531
10129W        W69566  40.502  38.038   1.219
10130W        W69567  18.752   9.729   3.840
10131W        W69568  28.132  11.799   3.351
10132W        W69569  11.221  30.488   2.817
10133W        W69570  35.976  22.033   2.385
10134W        W69571  20.538  13.263  14.280
10135W        W69572   9.189  31.474  11.860
10136W        W69573   4.203  29.548  11.382
10137W        W69574  38.514   5.361   3.758
10138W        W69575  10.321   8.347   4.644
10139W        W69576  36.351   9.852  14.339
10140W        W69577  25.071  32.989   4.739
10141W        W69578  37.443  37.529  11.570
10142W        W69579  17.691  19.155  13.955
10143W        W69580  16.567  33.405   0.726
10144W        W69581   1.236  35.449   0.343
10145W        W69582  39.856  15.783   1.374
10146W        W69583   3.924  24.710  14.768
10147W        W69584  35.569   5.778   2.829
10148W        W69585   3.814  33.608  14.387
10149W        W69586  44.340   2.356  14.851
10150W        W69587  12.800  12.307  12.453
10151W        W69588  22.581  20.572   2.235
10152W        W69589  42.906  12.347  10.907
10153W        W69590  22.026   4.323  13.999
10154W        W69591   9.842  14.129  11.449
10155W        W69592  35.885  39.358   0.475
10156W        W69593  40.459  15.293  10.450
10157W        W69594  44.358  44.293   4.265
10158W        W69595  35.942  29.517  12.525
10159W        W69596  42.428  19.049   2.202
10160W        W69597  19.073  16.601  14.849
10161W        W69598   8.293   1.266   0.265
10162W        W69599  18.774  22.107   0.328
10163W        W69600   1.893  29.615   0.768
10164W        W69601  27.541  16.261   3.195
10165W        W69602   2.881   3.244  14.354
10166W        W69603  17.695   0.847   3.151
10167W        W69604   1.354  26.533  11.008
10168W        W69605  31.482  25.981   4.717
10169W        W69606  36.038  18.666   1.912
10170W        W69607  27.149  42.497  14.387
10171W        W69608  14.624  41.912  14.294
10172W        W69609   5.414  10.806   3.796
10173W        W69610  39.467   0.488  14.938
10174W        W69611  25.674  38.339  11.445
10175W        W69612   1.814  10.165  12.828
10176W        W69613  19.739  41.788   4.122
10177W        W69614  24.989  38.900   1.374
10178W        W69615   3.870  10.272   1.920
10179W        W69616  30.511  37.035  11.892
10180W        W69617  19.244   7.347   1.847
10181W        W69618  26.633  30.144  12.923
10182W        W69619  39.500  24.547   4.752
10183W        W69620  37.366  24.482   4.696
10184W        W69621  20.133  34.385   0.469
10185W        W69622  42.364  10.151   2.733
10186W        W69623  11.212  42.452   2.851
10187W        W69624   6.706  31.605  12.935
10188W        W69625   8.244  16.119   0.285
10189W        W69626   3.269  41.313   2.898
10190W        W69627  39.840  13.306  12.463
10191W        W69628   7.891  13.760  11.027
10192W        W69629  17.787  32.554   3.852
10193W        W69630   7.814  19.169   1.826
10194W        W69631   5.741  44.963  11.892
10195W        W69632  18.679  17.693   3.345
10196W        W69633  29.573  20.636  13.911
10197W        W69634  13.718  43.364  10.049
10198W        W69635  43.434  43.998   4.688
10199W        W69636  39.001  35.869  10.494
10200W        W69637   4.376  31.606   4.746
10201W        W69638   8.224  41.496  10.618
10202W        W69639  35.037   3.426   2.727
10203W        W69640  34.544  24.160  13.876
10204W        W69641  19.207  37.396  14.896
10205W        W69642   1.951  31.611  12.887
10206W        W69643  28.011  40.324   2.206
10207W        W69644  29.549  38.822  14.503
10208W        W69645  31.417   1.389  14.884
10209W        W69646  27.976  21.651   2.677
10210W        W69647   3.292  11.314   3.358
10211W        W69648   6.256  25.036  14.786
10212W        W69649  15.306  38.031   4.262
10213W        W69650  35.369  12.229  13.022
10214W        W69651   7.710  12.810  14.983
10215W        W69652  27.171  22.218   3.851
10216W        W69653  15.309  24.191  14.291
10217W        W69654  18.758  27.194  12.953
10218W        W69655  20.713  19.083   3.177
10219W        W69656  25.509  43.322   4.206
10220W        W69657  31.977   5.198  12.377
10221W        W69658  35.493   1.410  11.389
10222W        W69659  44.929  17.625   4.824
10223W        W69660  18.628  36.881   4.319
10224W        W69661  38.040   8.386  11.880
10225W        W69662  37.368  25.064   4.690
10226W        W69663  19.676  36.504   1.220
10227W        W69664  41.797   0.934  13.311
10228W        W69665   2.345  39.534   3.747
10229W        W69666  34.485   7.217   4.779
10230W        W69667   9.797  18.142   1.859
10231W        W69668  28.547  12.148   5.257
10232W        W69669   7.884   4.789   1.926
10233W        W69670  34.879   5.224  11.391
10234W        W69671  19.559   8.350   3.376
10235W        W69672  31.562   1.257  13.523
10236W        W69673  21.052  11.706  11.086
10237W        W69674  37.884  19.096  13.413
10238W        W69675   3.913   0.815  13.876
10239W        W69676  22.099  26.194  13.934
10240W        W69677  35.387  42.780  14.491
10241W        W69678  19.064  39.948  13.857
10242W        W69679  30.603   2.247   3.629
10243W        W69680   1.736  37.508   0.946
10244W        W69681  36.956  13.810   0.296
10245W        W69682  40.987   9.233   1.886
10246W        W69683   9.179   6.363  11.424
10247W        W69684  16.614   0.336   2.288
10248W        W69685  15.206  18.235   4.176
10249W        W69686  28.677  39.016  11.549
10250W        W69687  25.991  32.914   2.314
10251W        W69688   5.354  20.641  11.963
10252W        W69689  26.052  20.591   0.801
10253W        W69690  38.425  17.752   1.289
10254W        W69691  15.636  18.731  13.312
10255W        W69692  16.567   5.351  10.899
10256W        W69693  16.660  21.544   1.333
10257W        W69694  37.573  41.042   0.399
10258W        W69695  36.873  18.223  14.892
10259W        W69696   0.946  15.742   3.646
10260W        W69697  36.535  43.824   2.733
10261W        W69698  15.678  27.197   3.205
10262W        W69699  16.277  38.917   0.420
10263W        W69700  10.358  24.551  11.933
10264W        W69701  11.337  24.613   3.301
10265W        W69702  11.861  39.894  11.555
10266W        W69703  20.638   9.288   2.278
10267W        W69704  10.362  29.462  11.378
10268W        W69705   2.872  18.274   4.772
10269W        W69706  44.502  23.580  10.012
10270W        W69707  26.578  40.444  11.933
10271W        W69708  20.035  13.715  12.000
10272W        W69709  36.958   9.702   1.918
10273W        W69710   7.849  19.084   4.235
10274W        W69711  23.052  34.870   0.457
10275W        W69712   9.206  10.243   3.630
10276W        W69713   6.216  11.333   2.354
10277W        W69714  43.830  27.507  13.485
10278W        W69715  26.053   3.295   1.448
10279W        W69716   3.312  36.433   1.741
10280W        W69717  16.686  24.540   0.346
10281W        W69718   0.247  34.573  10.995
10282W        W69719  36.450  27.998   1.379
10283W        W69720  29.524   1.938  13.824
10284W        W69721   1.467   3.785  14.861
10285W        W69722   5.328  24.559  11.382
10286W        W69723   8.392  29.022  10.473
10287W        W69724   3.388   8.792   2.823
10288W        W69725  33.584   5.733  13.450
10289W        W69726  32.011   9.685   2.840
10290W        W69727  29.919  18.629   4.198
10291W        W69728   8.786  19.102  11.395
10292W        W69729  35.551  32.937  13.363
10293W        W69730  36.873  23.679  12.995
10294W        W69731  22.576  31.948  14.473
10295W        W69732  14.185  34.946  11.558
10296W        W69733  11.228   4.261  10.464
10297W        W69734   4.814   2.735  11.893
10298W        W69735  43.281  20.653   3.731
10299W        W69736  31.095   0.949   4.781
10300W        W69737  39.482  20.571   3.862
10301W        W69738  38.891  15.807  11.059
10302W        W69739  10.676  30.530  11.557
10303W        W69740  44.962  44.433  10.585
10304W        W69741  38.888  12.766  12.873
10305W        W69742  35.084   8.711  10.903
10306W        W69743  28.994   8.239  10.927
10307W        W69744  44.779  41.297   4.629
10308W        W69745   0.394  35.870   3.281
10309W        W69746  13.661  16.643  11.916
10310W        W69747   6.356  19.542   1.753
10311W        W69748   9.190   4.316   1.356
10312W        W69749  40.345  17.777  14.786
10313W        W69750  29.565  17.228   5.293
10314W        W69751  15.274  31.012   3.295
10315W        W69752  35.418   3.437   4.700
10316W        W69753  23.709  29.498  11.442
10317W        W69754  39.395  11.308   3.284
10318W        W69755   8.358  12.288   4.313
10319W        W69756  37.980  35.395  12.951
10320W        W69757   4.738  27.147  13.014
10321W        W69758   4.842  43.413  14.401
10322W        W69759  12.344  44.905  13.899
10323W        W69760  11.743  25.164   0.250
10324W        W69761  17.274  13.608  11.384
10325W        W69762  18.102  32.546  13.809
10326W        W69763  41.918  36.421  11.878
10327W        W69764   3.889  13.605   5.783
10328W        W69765  29.919  16.180  12.993
10329W        W69766  33.050   6.300   2.339
10330W        W69767  18.680  23.676  14.857
10331W        W69768  24.560  13.832   1.838
10332W        W69769  18.607   2.761  14.474
10333W        W69770   0.925   6.248  10.437
10334W        W69771  33.478  44.756   2.400
10335W        W69772  33.022  15.610  10.413
10336W        W69773  20.255   4.227  11.598
10337W        W69774  26.958  12.777   3.227
10338W        W69775  43.479  36.559  11.897
10339W        W69776  11.248  22.017   0.782
10340W        W69777  42.033  30.100   0.247
10341W        W69778  15.104  12.336  12.872
10342W        W69779  26.480   8.687   5.231
10343W        W69780  38.480  22.016  14.872
10344W        W69781  31.571  14.763  11.406
10345W        W69782  21.582  39.522  13.852
10346W        W69783  20.696  43.951   1.281
10347W        W69784   8.855   4.364  11.466
10348W        W69785  20.263  19.168  13.957
10349W        W69786  25.095  21.018  11.596
10350W        W69787  30.572  32.974  14.971
10351W        W69788  25.076   5.246   4.748
10352W        W69789   8.678  23.180  12.543
10353W        W69790  14.166  37.549  13.018
10354W        W69791  21.522  42.893  10.599
10355W        W69792  18.647  15.781   0.862
10356W        W69793  27.592   8.709   5.139
10357W        W69794  40.475  41.326  10.141
10358W        W69795  12.124  17.703  10.520
10359W        W69796  18.555  26.494  10.590
10360W        W69797  31.533  14.186   0.848
10361W        W69798  17.071   7.803  11.540
10362W        W69799   6.713  20.052   3.818
10363W        W69800  26.484   4.449  10.634
10364W        W69801  31.962  42.495  12.579
10365W        W69802  31.489  18.176  14.391
10366W        W69803  39.021  23.588   4.159
10367W        W69804  33.111  11.779  10.519
10368W        W69805  40.388   6.396  14.765
10369W        W69806  36.910  20.257  11.571
10370W        W69807  28.007  34.451  13.882
10371W        W69808  33.454  23.726  11.609
10372W        W69809  13.833  17.185  10.914
10373W        W69810  29.631  21.555  14.842
10374W        W69811  24.480  12.715  13.977
10375W        W69812   3.774  23.595  13.345
10376W        W69813  18.737  28.980   4.247
10377W        W69814  27.479  26.985   1.737
10378W        W69815  19.589  21.160  13.878
10379W        W69816  22.654  20.544   5.097
10380W        W69817   7.752  27.456   1.358
10381W        W69818  21.120  21.742   2.186
10382W        W69819  42.433  38.345   2.820
10383W        W69820  26.578  28.056   2.295
10384W        W69821  31.153  41.941  13.477
10385W        W69822  25.503  20.061   5.139
10386W        W69823  27.627  29.618   2.314
10387W        W69824  41.854  25.062   2.691
10388W        W69825  37.562  27.078  13.993
10389W        W69826   2.882  44.422   0.294
10390W        W69827  43.915  31.927  11.962
10391W        W69828  30.963  21.198  12.986
10392W        W69829   1.924  10.861   4.251
10393W        W69830  15.238  35.524   2.258
10394W        W69831  11.149  40.963  10.620
10395W        W69832  43.349  12.162   2.803
10396W        W69833  37.861  28.072  10.589
10397W        W69834   2.437   8.195   1.439
10398W        W69835  39.317   4.883   3.728
10399W        W69836  37.850  42.934   3.258
10400W        W69837  25.709  18.270   3.185
10401W        W69838  15.182  20.212   2.195
10402W        W69839   9.369  32.966   4.304
10403W        W69840  13.155  32.043  11.064
10404W        W69841  12.771  21.695   1.252
10405W        W69842  42.013  33.033   2.762
10406W        W69843  42.480  44.938  10.531
10407W        W69844  18.677  16.187   1.906
10408W        W69845   6.701   7.332  12.991
10409W        W69846   3.459  11.690   2.672
10410W        W69847  30.973  17.734   4.739
10411W        W69848   4.267   8.161   0.385
10412W        W69849  10.310  15.594   0.797
10413W        W69850  36.507  36.019  14.404
10414W        W69851   2.824  30.538  10.519
10415W        W69852  37.067   8.833   5.211
10416W        W69853  29.044  14.687  11.383
10417W        W69854  33.480  19.631   0.839
10418W        W69855  20.636  37.078  13.026
10419W        W69856   0.412  30.600   3.226
10420W        W69857  27.119  19.545   1.868
10421W        W69858   4.232   2.780  10.588
10422W        W69859  19.107  33.427  11.456
10423W        W69860  23.029  13.111   2.318
10424W        W69861  14.648  35.096  14.018
10425W        W69862   5.753  10.772  11.455
10426W        W69863  24.185  27.446   0.850
10427W        W69864  35.525  29.093   0.257
10428W        W69865  19.272  22.250  13.453
10429W        W69866  11.166  32.525  10.454
10430W        W69867  25.659  14.685  13.435
10431W        W69868  18.656  44.335  10.434
10432W        W69869  39.451   3.438   2.388
10433W        W69870  43.875  31.040   1.852
10434W        W69871  21.673   7.750   0.921
10435W        W69872  24.547  44.358  13.418
10436W        W69873  41.961  32.047  12.364
10437W        W69874  22.179  17.299  12.048
10438W        W69875  41.962   8.342   2.803
10439W        W69876   5.728   2.832  10.600
10440W        W69877  33.554  28.632   4.807
10441W        W69878  35.913  39.038  13.336
10442W        W69879  28.117   9.647  13.871
10443W        W69880  21.087   5.925   3.813
10444W        W69881  30.505  38.327  12.418
10445W        W69882  21.665  16.748  14.500
10446W        W69883  24.588  24.040  13.804
10447W        W69884   2.244  21.128   9.994
10448W        W69885  27.979  27.148   2.681
10449W        W69886  39.902  28.021   2.735
10450W        W69887  24.219  20.553  14.976
10451W        W69888   3.801  38.440  12.924
10452W        W69889  34.975  22.127  11.869
10453W        W69890  24.142  18.107  10.435
10454W        W69891   0.280  13.241   2.784
10455W        W69892  27.024  25.618   1.444
10456W        W69893  43.817  39.409  12.933
10457W        W69894  16.219  20.135  11.433
10458W        W69895  36.556  14.589  13.968
10459W        W69896  11.323  29.958  10.997
10460W        W69897  10.381  40.019  11.119
10461W        W69898  10.215   8.167   1.931
10462W        W69899  12.178  22.220   2.294
10463W        W69900  13.155  17.781  12.414
10464W        W69901   4.746  20.122  10.983
10465W        W69902  34.933  41.025  12.407
10466W        W69903  18.658  18.291  13.509
10467W        W69904  31.949   3.906  12.420
10468W        W69905  18.185  23.096   1.438
10469W        W69906  26.111  36.998  11.463
10470W        W69907  10.751  11.296  14.430
10471W        W69908  38.984  34.053  13.947
10472W        W69909   3.339  23.057  11.914
10473W        W69910  23.113  33.971  14.837
10474W        W69911  32.011  18.735   1.305
10475W        W69912  13.617  30.438   0.355
10476W        W69913  28.996  32.007  11.903
10477W        W69914  39.544   4.316  11.429
10478W        W69915  33.887  43.356  14.915
10479W        W69916  27.545  32.394   3.639
10480W        W69917  22.713  40.515   0.751
10481W        W69918  15.644  29.031  14.810
10482W        W69919  43.420  27.624  14.975
10483W        W69920  31.103  36.376  13.327
10484W        W69921   8.300  36.061  13.402
10485W        W69922   5.393  41.479  12.924
10486W        W69923   8.766   2.764  12.350
10487W        W69924  40.382   9.789   4.303
10488W        W69925  36.941  42.814   4.665
10489W        W69926  41.998  14.229  14.921
10490W        W69927  24.591  15.657   4.837
10491W        W69928   5.273   4.730   3.334
10492W        W69929  24.526  36.881   2.365
10493W        W69930  37.526  25.651   3.247
10494W        W69931  24.183  33.033   1.273
10495W        W69932  31.077  18.711   1.859
10496W        W69933  19.082  18.142  12.536
10497W        W69934  17.213  17.187   5.173
10498W        W69935   4.414  44.993   4.680
10499W        W69936   7.726  25.705   1.316
10500W        W69937  20.736  44.373   1.212
10501W        W69938  34.003  12.638   4.217
10502W        W69939  42.336  43.438   1.701
10503W        W69940  37.471   9.890   1.402
10504W        W69941  12.300  17.111   4.220
10505W        W69942  21.171  32.490  14.505
10506W        W69943  14.647  39.388   5.784
10507W        W69944  12.206  22.552   3.851
10508W        W69945  22.044  23.533   1.215
10509W        W69946  27.644  24.016  12.472
10510W        W69947  40.443  19.779   2.854
10511W        W69948   1.830  42.968   4.311
10512W        W69949  42.487  35.956  13.523
10513W        W69950  35.078  39.480   2.307
10514W        W69951  11.224  39.012  11.506
10515W        W69952  15.778  36.085   5.245
10516W        W69953   5.894  38.994  12.480
10517W        W69954  22.047  27.175   0.751
10518W        W69955   1.299  25.474   0.469
10519W        W69956  13.698  39.544  14.511
10520W        W69957  31.431  17.264  14.460
10521W        W69958  32.604  38.439  14.456
10522W        W69959  37.404  20.056   2.885
10523W        W69960  28.631  22.691   1.409
10524W        W69961  41.830  43.464   1.879
10525W        W69962  27.615  40.923   2.749
10526W        W69963  11.720  22.225   0.804
10527W        W69964  40.479   5.380   4.278
10528W        W69965  29.125  41.842   0.456
10529W        W69966  22.146   5.816   0.923
10530W        W69967  26.960  23.651  14.985
10531W        W69968  25.033  42.358  13.908
10532W        W69969  15.769  11.775   1.382
10533W        W69970   7.666  29.060  14.373
10534W        W69971  10.326  28.174   4.247
10535W        W69972   8.262  43.370  11.610
10536W        W69973  34.437  13.729   2.212
10537W        W69974   5.224   5.740   2.236
10538W        W69975  35.976  19.285   4.748
10539W        W69976  20.256  25.097  12.396
10540W        W69977  42.800   4.882  14.968
10541W        W69978  40.490  21.671   0.886
10542W        W69979  40.823  34.430  14.776
10543W        W69980  24.692  10.797   2.683
10544W        W69981   1.888  29.510  11.396
10545W        W69982  11.170   1.942  13.893
10546W        W69983  43.421  27.018  10.907
10547W        W69984  29.509  24.552  14.329
10548W        W69985  23.721   6.242  11.390
10549W        W69986  21.026   0.403   3.275
10550W        W69987  39.461  33.060   2.786
10551W        W69988  16.677  42.844  13.000
10552W        W69989   3.834   6.364   0.805
10553W        W69990   2.830   4.397  11.468
10554W        W69991  35.581  35.573  13.810
10555W        W69992  35.524  16.283   0.260
10556W        W69993   4.295  10.717   3.321
10557W        W69994   4.820  27.164   9.477
10558W        W69995  37.885  38.867  12.916
10559W        W69996   1.314  14.216   3.751
10560W        W69997  17.689  26.075  13.477
10561W        W69998  19.247  11.250   1.374
10562W        W69999  36.400   5.260   3.692
10563W        W70000  29.159  38.986   0.940
10564W        W70001  32.565  20.671   0.844
10565W        W70002  13.674  10.802   2.889
10566W        W70003  18.222  26.663   3.640
10567W        W70004  24.712  33.065  13.052
10568W        W70005  18.081  42.912   4.343
10569W        W70006  30.534  28.610  13.874
10570W        W70007   7.737   4.420   1.856
10571W        W70008  18.087  32.940  12.869
10572W        W70009  22.635  32.541  12.056
10573W        W70010  35.852  10.649  14.817
10574W        W70011  27.129   4.790   9.963
10575W        W70012  26.656  40.400  14.396
10576W        W70013  11.832   5.885   4.243
10577W        W70014  23.654  10.258   4.130
10578W        W70015  16.207   6.711  13.454
10579W        W70016  20.556  15.689   4.720
10580W        W70017  25.506  12.845  14.988
10581W        W70018  34.511   1.914  10.549
10582W        W70019   9.864  13.171  14.873
10583W        W70020  16.236  20.604  12.002
10584W        W70021  28.091  29.920   4.754
10585W        W70022  40.865   5.248   4.672
10586W        W70023  16.173  28.939  10.630
10587W        W70024   0.391   5.733   1.429
10588W        W70025  24.619   0.431  10.547
10589W        W70026  39.913   3.461   1.377
10590W        W70027  32.408  34.391  10.896
10591W        W70028   7.222  35.905   0.884
10592W        W70029   2.384  12.784  12.024
10593W        W70030  14.684  31.998   3.238
10594W        W70031  32.075  32.908  10.427
10595W        W70032  19.592  42.851   4.172
10596W        W70033  16.660  44.803   5.284
10597W        W70034  36.898  19.187   1.372
10598W        W70035  44.906   0.919  12.067
10599W        W70036  14.327   9.217  12.001
10600W        W70037  38.961   4.233   3.336
10601W        W70038  38.476  20.631   1.218
10602W        W70039  44.350   9.875  14.287
10603W        W70040  36.946  44.849   2.232
10604W        W70041  31.629  37.345   3.368
10605W        W70042  43.457   3.788  10.453
10606W        W70043  44.929   9.726  10.443
10607W        W70044  32.562  28.548  13.905
10608W        W70045   7.846  18.193   3.332
10609W        W70046   1.863  11.244   1.741
10610W        W70047  41.821  13.728   2.264
10611W        W70048  27.054  27.172  14.278
10612W        W70049  11.308  12.654   3.181
10613W        W70050   3.326  30.996  12.957
10614W        W70051  40.897   4.770   3.163
10615W        W70052  18.193  13.743   1.927
10616W        W70053   5.209   6.723  11.094
10617W        W70054   5.197  31.107   0.736
10618W        W70055  17.261  41.891  14.815
10619W        W70056   5.884  33.974  12.939
10620W        W70057  34.928  27.539   0.954
10621W        W70058  43.896  22.559  10.970
10622W        W70059  18.546  31.515  13.523
10623W        W70060  21.671  19.041   1.935
10624W        W70061   1.404  31.962   2.677
10625W        W70062   8.656  11.823  14.402
10626W        W70063   4.284   4.411   0.262
10627W        W70064   3.860   8.170   0.323
10628W        W70065  31.622  41.977   4.326
10629W        W70066   8.807  44.830   3.820
10630W        W70067  44.481  34.970   3.277
10631W        W70068   5.260   5.825  10.496
10632W        W70069   0.316  16.810  14.293
10633W        W70070  30.412  24.046  12.834
10634W        W70071  15.801  41.937   1.321
10635W        W70072  30.606  13.673  12.902
10636W        W70073  41.514  10.632  14.015
10637W        W70074  31.978  35.467  11.930
10638W        W70075   8.329  11.691  13.349
10639W        W70076  29.512  36.588  10.915
10640W        W70077   0.827  25.205   3.679
10641W        W70078  13.115  35.566   2.342
10642W        W70079  34.490   9.244  12.986
10643W        W70080   7.193  41.292  11.612
10644W        W70081   1.737  16.100  10.526
10645W        W70082  28.047  10.329  12.525
10646W        W70083  29.591  29.497   3.810
10647W        W70084  22.626  41.512  14.495
10648W        W70085  26.660  22.065  10.582
10649W        W70086  27.142  19.255  10.608
10650W        W70087  43.342  14.815  13.355
10651W        W70088  34.102  40.536  10.464
10652W        W70089  22.569  22.654   2.734
10653W        W70090  10.188   0.772   3.153
10654W        W70091  10.178  27.088  14.882
10655W        W70092  22.248  33.617  13.904
10656W        W70093  40.917  11.811   3.280
10657W        W70094  42.026  30.011  12.071
10658W        W70095  26.178  30.624   2.321
10659W        W70096  37.943  11.766  13.524
10660W        W70097  39.427   6.195  11.094
10661W        W70098   8.323  23.002  13.793
10662W        W70099  27.176  28.493   3.654
10663W        W70100  19.135   6.838   3.790
10664W        W70101  33.507  14.613   3.642
10665W        W70102  36.430  25.171  12.533
10666W        W70103  35.441  15.722   4.755
10667W        W70104  17.170  22.644   3.655
10668W        W70105  16.243  33.923   1.284
10669W        W70106  33.889   2.892   1.331
10670W        W70107   5.296  21.072  12.897
10671W        W70108  16.172  18.054   5.177
10672W        W70109  37.544  26.526   2.820
10673W        W70110  27.974   0.826   3.237
10674W        W70111   5.851  31.450  13.928
10675W        W70112  18.055  35.451   1.271
10676W        W70113  31.100  32.065   2.232
10677W        W70114  36.549  41.357   3.797
10678W        W70115  32.402  27.532   0.323
10679W        W70116  27.977   4.826   2.755
10680W        W70117  41.502  20.574  13.892
10681W        W70118   2.821  18.679  11.986
10682W        W70119   7.704   9.183  10.587
10683W        W70120   1.315   2.389  12.872
10684W        W70121   4.920  21.678   1.851
10685W        W70122  17.639  29.607  11.393
10686W        W70123  26.643  32.448  13.533
10687W        W70124  42.359  32.064   4.250
10688W        W70125  25.057  34.429  11.573
10689W        W70126  35.363   0.851  13.515
10690W        W70127  26.494  42.809   1.916
10691W        W70128   0.445  17.104   2.767
10692W        W70129   4.844  28.969  13.814
10693W        W70130  36.036  38.898  14.295
10694W        W70131   5.317   5.849   0.335
10695W        W70132  13.344  44.850   4.712
10696W        W70133  29.568   5.304   3.723
10697W        W70134   8.787  27.101  13.326
10698W        W70135  32.983  30.959  13.357
10699W        W70136  38.436  21.204   2.860
10700W        W70137  36.962  15.655   2.671
10701W        W70138  14.217  29.556   1.757
10702W        W70139  30.554   7.261  14.429
10703W        W70140  11.760  32.000  13.452
10704W        W70141  33.959  40.982   1.350
10705W        W70142  40.019  32.940   3.670
10706W        W70143  35.587  21.526  12.352
10707W        W70144  18.630   7.699   2.774
10708W        W70145   0.281  29.172  10.939
10709W        W70146  31.137  18.225   2.399
10710W        W70147   4.753  19.077   4.755
10711W        W70148   5.739  20.540   3.786
10712W        W70149   0.800   8.187   3.666
10713W        W70150  35.440  20.119  11.901
10714W        W70151  13.789   9.740   4.209
10715W        W70152  31.038  20.063  12.078
10716W        W70153  17.778  32.101   4.276
10717W        W70154  14.695  20.653  14.871
10718W        W70155  29.042  41.348   0.382
10719W        W70156   1.411  37.563  10.155
10720W        W70157   6.732   5.793   3.754
10721W        W70158  10.635  14.222  11.104
10722W        W70159  11.799   6.425  10.487
10723W        W70160  10.175  22.104  13.498
10724W        W70161  24.106   5.836  14.827
10725W        W70162  27.020  15.227   0.757
10726W        W70163  31.967   7.775  14.859
10727W        W70164  20.223  35.975   2.200
10728W        W70165  17.651  42.959   4.818
10729W        W70166  38.943  15.786   3.302
10730W        W70167  10.773  12.336   0.857
10731W        W70168  41.003  39.320  11.399
10732W        W70169   3.949  26.087  13.488
10733W        W70170  39.525  40.908   0.276
10734W        W70171  34.979  13.124  14.322
10735W        W70172  39.540   1.375  13.965
10736W        W70173  34.040   2.723   0.820
10737W        W70174   3.441  40.803  12.439
10738W        W70175  20.149  13.244  12.417
10739W        W70176   4.811  16.102  10.119
10740W        W70177  18.215  26.201   0.278
10741W        W70178  22.177  14.164  13.956
10742W        W70179  44.956  25.553   4.142
10743W        W70180   0.289  10.256  11.983
10744W        W70181  27.464   5.690   4.654
10745W        W70182   8.264   6.408  11.601
10746W        W70183  33.091  36.972  11.919
10747W        W70184  43.515  32.008  10.140
10748W        W70185  26.665  22.041   4.707
10749W        W70186   4.707  30.417   2.363
10750W        W70187  10.350  27.079   2.811
10751W        W70188  18.736  19.666  13.392
10752W        W70189  28.552   9.856  14.815
10753W        W70190  38.829  27.644   1.255
10754W        W70191  44.762  42.917  12.498
10755W        W70192   2.443  43.805  14.366
10756W        W70193   8.300  25.710  14.409
10757W        W70194   5.307  36.972  11.565
10758W        W70195  39.944  27.952   1.910
10759W        W70196  11.183  31.067  13.464
10760W        W70197  17.592  20.641   2.891
10761W        W70198  35.081  39.988  12.347
10762W        W70199  41.799   2.891  13.495
10763W        W70200  26.031  15.158  13.318
10764W        W70201  28.664   6.724   1.926
10765W        W70202  18.686  26.479   1.810
10766W        W70203  14.623  33.951   3.753
10767W        W70204  39.980  28.067   3.769
10768W        W70205  12.833  35.974   4.757
10769W        W70206  43.860  39.965  13.431
10770W        W70207   6.318  31.999   2.254
10771W        W70208  44.400  29.621  10.949
10772W        W70209  29.001  41.534  12.997
10773W        W70210  16.809  25.205   0.732
10774W        W70211  12.169   3.381  14.857
10775W        W70212   9.706   1.443   1.792
10776W        W70213  16.740   2.784  14.389
10777W        W70214  12.812  34.968  14.349
10778W        W70215  35.367  28.515   2.721
10779W        W70216  30.573  34.371  11.949
10780W        W70217   0.480  29.663  10.631
10781W        W70218  34.591  10.212   2.291
10782W        W70219   0.807  21.117   4.682
10783W        W70220   9.754  32.455   3.373
10784W        W70221  23.003  17.615  12.850
10785W        W70222  40.385  42.305   2.672
10786W        W70223   9.805  37.399  14.763
10787W        W70224  32.091   4.713  11.577
10788W        W70225  14.174  16.662   2.209
10789W        W70226  36.503  27.043  14.968
10790W        W70227   0.780  23.710   4.741
10791W        W70228  10.141   2.324   2.743
10792W        W70229  12.681  31.000   0.258
10793W        W70230  24.503  13.835   0.958
10794W        W70231  28.998  36.485  13.461
10795W        W70232  40.386   0.789  12.859
10796W        W70233   1.483   6.766   1.277
10797W        W70234   0.442  42.874  13.036
10798W        W70235  24.671  14.748   0.760
10799W        W70236  11.222  26.091   3.778
10800W        W70237   4.217  36.898  12.052
10801W        W70238  11.204  19.258   3.707
10802W        W70239  44.393  42.961  10.917
10803W        W70240  18.101  24.021   4.816
10804W        W70241  21.701  19.162   3.340
10805W        W70242  36.976   1.434   3.357
10806W        W70243  10.310  19.606  10.918
10807W        W70244   1.843  20.136  11.422
10808W        W70245  22.744  10.216  13.321
10809W        W70246  23.656  16.175   2.663
10810W        W70247  19.632  23.490   5.801
10811W        W70248  41.039  14.693  11.591
10812W        W70249  24.552  17.173  12.004
10813W        W70250   4.745  35.454   1.916
10814W        W70251  31.590  18.146   0.438
10815W        W70252  31.972  11.268  14.007
10816W        W70253  20.091   0.793   9.961
10817W        W70254  24.613  28.962  14.284
10818W        W70255  24.172  12.776   1.769
10819W        W70256  26.675  22.182   1.896
10820W        W70257  16.083  13.280   3.330
10821W        W70258   2.861  41.334   1.719
10822W        W70259  23.108  28.495   2.741
10823W        W70260  16.746  29.154  13.992
10824W        W70261  15.750  18.657  11.523
10825W        W70262  28.166   6.863   4.704
10826W        W70263  20.236   7.395  14.409
10827W        W70264  16.773  23.578   0.358
10828W        W70265  26.173  40.843  11.061
10829W        W70266  20.127  27.657  12.026
10830W        W70267  25.058  11.738  11.519
10831W        W70268  37.941  27.538  13.399
10832W        W70269  17.223   5.298  12.485
10833W        W70270  14.121  28.018  14.424
10834W        W70271  37.496  17.641   3.276
10835W        W70272  32.067  12.241   3.767
10836W        W70273  18.707  18.569   4.274
10837W        W70274  44.918  35.490   2.375
10838W        W70275  42.999  43.996   2.218
10839W        W70276  35.979   0.327   4.344
10840W        W70277  40.934  16.203   1.381
10841W        W70278   4.371  35.102  10.896
10842W        W70279   9.307  25.538  10.491
10843W        W70280  29.583  18.095  14.377
10844W        W70281  18.286  30.029  14.964
10845W        W70282  30.927  29.007  12.050
10846W        W70283  25.985  26.127  12.893
10847W        W70284  17.212   4.866   3.208
10848W        W70285  11.361  31.057   3.632
10849W        W70286  28.951  12.121   5.615
10850W        W70287   7.366  41.863  12.453
10851W        W70288  26.137  35.912  11.968
10852W        W70289  16.258  31.538  13.542
10853W        W70290  29.563  43.959   3.314
10854W        W70291  38.384   8.845  11.548
10855W        W70292   4.299  13.215   4.808
10856W        W70293  13.179  12.693   2.319
10857W        W70294  33.524  33.540   3.772
10858W        W70295  24.114  17.558   1.763
10859W        W70296  14.309  24.153  12.519
10860W        W70297  18.570  32.606   2.400
10861W        W70298  19.068  38.944   3.356
10862W        W70299  25.527   0.913  14.297
10863W        W70300  29.563   8.169   1.403
10864W        W70301  14.336  19.704  10.571
10865W        W70302  34.554  10.263   0.472
10866W        W70303  13.235  24.988   4.725
10867W        W70304   5.926   8.889   5.150
10868W        W70305  25.714   5.339   1.344
10869W        W70306  35.994  23.994  12.076
10870W        W70307  34.060  35.585  14.937
10871W        W70308  36.884  31.568   0.884
10872W        W70309  31.044  21.248   9.526
10873W        W70310  31.061   5.279   0.325
10874W        W70311  23.494   9.822  12.417
10875W        W70312   9.227  22.085   4.265
10876W        W70313  12.273  24.561   2.416
10877W        W70314  15.310   1.303   4.174
10878W        W70315  38.362   9.812  11.486
10879W        W70316  39.838  12.791   2.765
10880W        W70317  30.617  23.167   0.400
10881W        W70318  44.909  43.001   1.743
10882W        W70319  41.041   1.453  14.505
10883W        W70320  15.654  36.393   0.385
10884W        W70321  27.179  14.230   2.817
10885W        W70322  39.834  18.083  13.965
10886W        W70323   5.422  15.289  12.383
10887W        W70324  31.597  31.009  12.911
10888W        W70325  30.931  18.208   1.744
10889W        W70326  30.657  37.002   4.232
10890W        W70327  44.807  33.111   1.926
10891W        W70328  25.688  18.586  12.854
10892W        W70329  10.839  17.275  14.347
10893W        W70330  23.506  10.729   5.311
10894W        W70331  12.145   1.744   1.262
10895W        W70332   8.291  25.602   5.114
10896W        W70333  41.004  17.736  10.425
10897W        W70334  10.148  40.549  13.033
10898W        W70335  13.189  17.083  10.915
10899W        W70336  15.758  19.697  12.078
10900W        W70337  27.958  29.080  11.575
10901W        W70338  22.646  24.587   2.754
10902W        W70339  25.002   7.835   1.304
10903W        W70340  10.200   6.841   1.349
10904W        W70341  11.759  37.519  10.955
10905W        W70342  12.772  38.902  11.861
10906W        W70343  26.987  19.066  13.813
10907W        W70344  24.496  35.509  13.981
10908W        W70345  28.058  40.911  10.479
10909W        W70346  26.126  14.239   2.263
10910W        W70347  14.203  23.613  13.358
10911W        W70348  14.212  25.971   3.370
10912W        W70349   1.380  33.520   3.801
10913W        W70350  37.953  14.639   4.600
10914W        W70351  20.137  30.447   5.099
10915W        W70352  27.043  36.448  12.981
10916W        W70353  16.197  41.977   4.262
10917W        W70354  23.051   3.746  12.486
10918W        W70355  42.366   7.783  14.356
10919W        W70356   0.938  18.102  14.800
10920W        W70357  37.351  33.595   1.816
10921W        W70358  37.934  25.633   4.752
10922W        W70359  34.021  29.450   1.846
10923W        W70360  26.546   9.833  12.421
10924W        W70361  34.894  14.338  14.421
10925W        W70362  19.252  13.833  13.993
10926W        W70363   5.409   4.885  13.989
10927W        W70364  29.494  10.234  12.495
10928W        W70365  29.142  38.840  11.403
10929W        W70366  20.088  15.729  11.907
10930W        W70367  20.729  36.000  14.904
10931W        W70368  26.484  24.671   9.445
10932W        W70369  31.050  44.785  12.399
10933W        W70370   4.830  25.205   1.730
10934W        W70371  25.522   0.787   0.354
10935W        W70372  32.926  24.222  10.570
10936W        W70373  44.964  25.481   1.222
10937W        W70374  21.600   6.869   4.688
10938W        W70375  42.003  27.498   4.784
10939W        W70376  16.281  27.133  14.790
10940W        W70377  41.794  24.511  14.275
10941W        W70378   2.843  30.031   1.724
10942W        W70379   0.265   3.339  13.845
10943W        W70380  18.250  34.050   0.913
10944W        W70381   6.729  36.487  14.016
10945W        W70382  19.738  21.262  11.997
10946W        W70383  44.375   3.829  14.312
10947W        W70384  17.131  43.838   2.736
10948W        W70385  40.024  43.828  13.363
10949W        W70386  42.511  24.197   2.226
10950W        W70387  24.076   8.334   1.894
10951W        W70388  30.510   3.444  13.056
10952W        W70389  19.770  33.120  13.361
10953W        W70390  29.049  18.575   4.606
10954W        W70391  16.751  18.778  12.398
10955W        W70392  34.458   6.786   0.939
10956W        W70393  31.582  44.500   1.931
10957W        W70394  27.630  31.548   3.869
10958W        W70395   0.282  17.219  13.425
10959W        W70396  32.610  19.639  11.544
10960W        W70397  32.486   6.310   3.254
10961W        W70398   6.721  16.174  14.292
10962W        W70399  12.789  43.840   4.255
10963W        W70400  21.528  23.662   0.766
10964W        W70401  28.442  27.673  10.513
10965W        W70402  15.641  13.319  11.099
10966W        W70403  28.931  37.896   0.967
10967W        W70404  12.751  24.613  14.903
10968W        W70405   4.374  37.443   4.258
10969W        W70406   6.218  37.832  13.861
10970W        W70407  24.713   3.270  10.424
10971W        W70408  30.003  22.515   0.967
10972W        W70409  32.032  22.659   5.671
10973W        W70410  38.873  23.052   2.853
10974W        W70411  17.787  10.218   2.868
10975W        W70412   8.272  14.812   2.285
10976W        W70413  14.765   9.188  11.465
10977W        W70414  39.908  12.684   1.866
10978W        W70415  36.956  38.493   0.267
10979W        W70416  14.643  43.871   3.745
10980W        W70417  10.715   7.384   4.132
10981W        W70418   3.840  41.326   1.901
10982W        W70419  41.916   3.829  14.863
10983W        W70420   2.459  24.109  14.449
10984W        W70421  30.621  21.259   4.630
10985W        W70422  17.221  22.112   1.850
10986W        W70423  33.036   8.800  10.556
10987W        W70424  20.134  23.986   2.758
10988W        W70425  16.748  26.062  14.916
10989W        W70426  24.206  44.900  11.942
10990W        W70427  30.001  31.637  13.792
10991W        W70428   3.722   2.775   3.150
10992W        W70429  21.020  35.976   0.889
10993W        W70430  44.427  16.155  13.812
10994W        W70431  42.973   5.725   2.741
10995W        W70432  34.556  16.711  12.037
10996W        W70433  43.881  21.106  10.897
10997W        W70434  16.106   3.941  13.904
10998W        W70435  37.354  35.966   2.410
10999W        W70436   1.926   8.788  10.438
11000W        W70437   0.408  19.751  14.340
11001W        W70438  33.510  14.138   0.963
11002W        W70439   7.219  30.595   1.778
11003W        W70440  29.609  42.873  12.856
11004W        W70441   5.707  36.913  10.910
11005W        W70442  42.812  19.127  11.097
11006W        W70443   2.923  28.932  13.988
11007W        W70444   5.870  16.708  13.052
11008W        W70445   0.438  41.890  14.762
11009W        W70446  33.111  31.612   0.299
11010W        W70447   7.885   6.273  13.471
11011W        W70448  41.982  35.856   4.255
11012W        W70449  28.638  13.180  10.626
11013W        W70450  11.226  15.313   1.839
11014W        W70451  24.717  23.640   0.795
11015W        W70452   6.270   9.208  11.515
11016W        W70453  36.483  19.169   4.312
11017W        W70454   9.261   7.319  13.872
11018W        W70455  20.627  22.167   3.816
11019W        W70456  31.094   3.314  13.404
11020W        W70457   6.421  17.120  11.943
11021W        W70458  30.654  34.920   4.736
11022W        W70459  25.641   5.292   0.874
11023W        W70460  44.445   4.716  14.279
11024W        W70461  35.590  34.089  14.373
11025W        W70462  29.125  27.539  12.407
11026W        W70463  32.037   8.732   4.822
11027W        W70464  20.691  14.666   3.169
11028W        W70465   4.701   5.215   4.627
11029W        W70466  15.282  33.545  14.009
11030W        W70467  32.410  25.688  14.875
11031W        W70468   8.888  28.147  14.391
11032W        W70469  18.602  42.349  11.898
11033W        W70470  16.663  25.189  11.605
11034W        W70471  14.770  18.211   3.769
11035W        W70472  24.062  12.708  13.316
11036W        W70473   4.439  20.714   3.370
11037W        W70474  19.742   4.707  14.304
11038W        W70475   0.813   5.422   2.880
11039W        W70476  33.528  16.080   2.241
11040W        W70477  39.335   7.206  10.439
11041W        W70478  27.686  30.558  12.872
11042W        W70479  31.453  12.280  11.865
11043W        W70480   6.677   1.838  10.594
11044W        W70481  10.371  31.110  14.965
11045W        W70482   0.355  38.911  12.428
11046W        W70483  28.558  33.416   4.711
11047W        W70484  13.253  44.414  14.414
11048W        W70485   9.372   1.251  10.441
11049W        W70486  27.589  41.879   3.746
11050W        W70487  15.732   3.747   0.249
11051W        W70488  42.437  44.469   0.842
11052W        W70489  22.109   8.737  11.509
11053W        W70490  24.547  21.529   2.259
11054W        W70491   2.332  38.448  14.501
11055W        W70492  14.173  18.256  10.453
11056W        W70493  15.154  38.039   3.150
11057W        W70494  10.784   2.278  12.368
11058W        W70495  21.698   8.186   1.292
11059W        W70496  33.015   6.789  13.364
11060W        W70497  26.058  43.020   4.777
11061W        W70498  29.642  20.630  13.543
11062W        W70499  41.807  38.350   0.346
11063W        W70500   0.357  36.994  14.786
11064W        W70501  21.056   7.740  12.532
11065W        W70502  28.573   2.407  12.494
11066W        W70503  21.646  23.012   2.238
11067W        W70504  43.280  42.312  12.925
11068W        W70505  12.734  38.472  12.874
11069W        W70506  41.791  11.257   1.736
11070W        W70507   3.243  26.196   3.315
11071W        W70508  20.648  17.771  10.435
11072W        W70509   6.772  38.377  14.883
11073W        W70510  30.151   6.703  14.337
11074W        W70511  39.396  16.586  13.373
11075W        W70512  30.466  23.726   0.433
11076W        W70513  28.018   5.781   3.283
11077W        W70514   8.721  26.171  10.027
11078W        W70515  37.975  10.823   1.844
11079W        W70516  19.746  13.641   3.354
11080W        W70517  41.007  16.196  12.385
11081W        W70518  25.565  17.708   4.799
11082W        W70519   6.710  27.048   9.958
11083W        W70520  28.178  22.165  11.987
11084W        W70521  25.998  33.491  11.043
11085W        W70522   7.378  17.630   3.723
11086W        W70523   1.354   2.794   3.787
11087W        W70524  40.992  21.654   3.666
11088W        W70525  42.930  38.480  13.471
11089W        W70526  38.422  25.019  11.432
11090W        W70527  12.294  14.598  11.491
11091W        W70528  36.430  18.595  14.786
11092W        W70529   3.955  38.339   2.736
11093W        W70530  33.004  44.393   0.799
11094W        W70531  12.702  14.590  14.000
11095W        W70532  27.185  37.579   4.764
11096W        W70533  26.113  29.145   1.815
11097W        W70534  41.962   1.420   0.878
11098W        W70535  17.700   9.155  13.836
11099W        W70536   2.251  35.428  11.985
11100W        W70537  27.994   7.275   5.299
11101W        W70538   9.799  33.100   4.120
11102W        W70539   0.831  26.099   1.921
11103W        W70540  25.217   9.299  13.889
11104W        W70541  23.232  14.131  14.428
11105W        W70542  16.569  18.261  13.998
11106W        W70543  25.482  42.513  10.900
11107W        W70544  35.429  42.904  13.944
11108W        W70545   5.317  34.512   2.736
11109W        W70546   4.225  23.047   0.348
11110W        W70547   5.235  28.563  12.410
11111W        W70548  17.800  42.868   4.238
11112W        W70549  29.987   8.271   2.270
11113W        W70550  39.816  10.310   0.445
11114W        W70551  28.470   9.778  13.824
11115W        W70552  19.572  36.915  12.007
11116W        W70553   4.305  36.556  11.507
11117W        W70554  22.632   7.396  13.866
11118W        W70555  37.982  23.127  14.827
11119W        W70556  24.688  25.500  12.837
11120W        W70557  27.496  19.122  13.860
11121W        W70558  19.154  20.537  14.856
11122W        W70559   8.404   6.311  12.506
11123W        W70560  44.921   0.257  10.626
11124W        W70561  27.585  21.124   2.408
11125W        W70562  25.528  33.475  10.552
11126W        W70563  36.573  28.571   3.652
11127W        W70564  29.526  35.872  12.843
11128W        W70565  28.651  24.601   3.690
11129W        W70566   9.797  14.779  12.023
11130W        W70567   1.273  30.977   3.251
11131W        W70568   8.796  42.863   1.292
11132W        W70569  10.323  31.981   0.873
11133W        W70570  34.943  30.636  13.905
11134W        W70571  18.756  23.575   3.294
11135W        W70572   2.235   9.799  14.284
11136W        W70573  25.981  17.771  11.512
11137W        W70574  42.414  21.135  10.602
11138W        W70575  34.605  30.150   3.319
11139W        W70576  22.529  19.678   2.818
11140W        W70577  14.096  14.250  13.438
11141W        W70578  25.136  26.524   1.445
11142W        W70579  31.962   7.816  12.377
11143W        W70580  19.707  27.161   0.256
11144W        W70581  18.789   2.726   2.897
11145W        W70582  43.769  25.016  11.865
11146W        W70583  28.016  27.976   2.803
11147W        W70584   2.376  38.972   9.505
11148W        W70585   4.264  32.129   0.264
11149W        W70586  16.625  34.074  14.371
11150W        W70587  13.166  39.477  10.604
11151W        W70588  37.470  38.449   2.813
11152W        W70589  31.473  37.932   4.130
11153W        W70590  12.830  30.434   2.668
11154W        W70591  22.649   2.956   1.814
11155W        W70592  42.345  39.508   1.298
11156W        W70593  26.027  38.917   3.856
11157W        W70594   6.707  30.003   1.720
11158W        W70595  19.732   1.303  10.640
11159W        W70596  30.927  23.154   0.815
11160W        W70597  32.998  29.922  14.451
11161W        W70598  12.202  16.131   2.407
11162W        W70599  35.975  36.365  11.069
11163W        W70600  23.114  22.616   2.340
11164W        W70601  41.933  19.661   1.212
11165W        W70602  31.510  41.864   2.863
11166W        W70603  11.763  36.585   3.640
11167W        W70604   2.371   7.317  13.429
11168W        W70605   2.799   7.771  11.914
11169W        W70606  20.739  36.963  11.082
11170W        W70607   8.188  23.552  11.574
11171W        W70608   3.719  14.621  13.466
11172W        W70609  28.462   4.316  12.533
11173W        W70610  20.112  13.646  10.989
11174W        W70611  27.489  38.006   3.181
11175W        W70612   4.321  20.681  13.343
11176W        W70613  35.450  16.571   3.841
11177W        W70614  11.653  32.613   4.773
11178W        W70615  10.806  11.748   3.637
11179W        W70616   6.703  38.824   2.774
11180W        W70617  15.699  39.967  12.845
11181W        W70618  24.620  35.034   2.322
11182W        W70619  11.203  18.194   3.248
11183W        W70620  11.258  17.580   4.271
11184W        W70621  25.549  20.674   0.481
11185W        W70622  14.105  20.212   1.322
11186W        W70623  27.689   0.301   4.759
11187W        W70624  15.138  15.126   4.183
11188W        W70625  28.962  35.385  14.817
11189W        W70626  35.963  24.556  10.520
11190W        W70627  11.796  27.046  12.453
11191W        W70628  36.079  10.686  14.392
11192W        W70629  13.275  30.479  14.003
11193W        W70630  27.132  41.834  11.880
11194W        W70631   5.696  30.047   3.691
11195W        W70632  36.076  12.651   3.300
11196W        W70633  44.432  34.477   3.283
11197W        W70634  16.687   9.746  11.421
11198W        W70635   5.773  17.100   0.940
11199W        W70636  29.922  40.933  12.524
11200W        W70637  16.670  21.563  11.950
11201W        W70638   9.667  17.617  12.868
11202W        W70639  44.980  12.183  12.367
11203W        W70640   4.219  36.562  12.009
11204W        W70641   0.787  28.478  11.407
11205W        W70642  28.643  13.657   4.123
11206W        W70643  33.005  30.423  13.987
11207W        W70644   3.411  43.781   1.918
11208W        W70645  26.638  31.060   2.199
11209W        W70646  42.916  16.230   3.359
11210W        W70647  17.080  23.539  12.488
11211W        W70648   4.730  34.015   4.629
11212W        W70649  27.527   2.414   2.282
11213W        W70650  43.435  24.558   3.182
11214W        W70651  33.077  34.528  11.581
11215W        W70652  42.798   1.429   3.814
11216W        W70653  18.223  35.425  14.020
11217W        W70654  28.571   2.309  10.559
11218W        W70655  35.086  34.571  12.863
11219W        W70656  11.126  39.965   0.470
11220W        W70657  39.557   1.399  13.318
11221W        W70658  44.886  38.876  11.053
11222W        W70659  18.620   0.474   3.178
11223W        W70660  34.111  42.414   3.804
11224W        W70661  22.600  32.887   4.129
11225W        W70662   4.807  33.987  13.455
11226W        W70663   5.432  33.610   0.352
11227W        W70664  37.963  19.237   1.820
11228W        W70665  14.779  33.985   2.691
11229W        W70666  31.908  39.985   5.198
11230W        W70667   9.286  10.664   1.227
11231W        W70668  36.033  32.606   4.141
11232W        W70669   1.957  26.990   1.713
11233W        W70670  11.794  37.522   2.285
11234W        W70671  26.981  44.350  13.972
11235W        W70672  15.775  30.074   1.901
11236W        W70673  26.124  31.098   4.601
11237W        W70674   7.388  34.428   2.751
11238W        W70675  13.765  21.550   0.871
11239W        W70676  39.837  41.462   2.178
11240W        W70677  30.559  22.099  12.415
11241W        W70678  16.276  26.047  13.377
11242W        W70679   4.249  24.001  13.463
11243W        W70680  44.908   8.878  12.558
11244W        W70681  28.450  14.289  10.024
11245W        W70682   8.204  41.297  11.098
11246W        W70683   0.782  38.566   0.835
11247W        W70684  20.597  31.638   3.385
11248W        W70685  38.328   4.400   0.931
11249W        W70686  33.568   1.364  14.453
11250W        W70687  21.177  37.979  11.440
11251W        W70688  38.933  36.918  11.459
11252W        W70689  19.052  38.471   0.936
11253W        W70690  35.483  39.519   3.653
11254W        W70691  18.148  31.899   2.326
11255W        W70692  16.141  27.148   3.322
11256W        W70693  25.155  24.164   2.699
11257W        W70694  21.621  20.028   0.958
11258W        W70695  42.780  13.826   4.816
11259W        W70696  25.042  14.331   3.192
11260W        W70697   7.233  31.928   3.231
11261W        W70698  24.055  12.330   4.775
11262W        W70699  15.210  21.040   2.869
11263W        W70700  19.576  23.624  10.564
11264W        W70701  23.705  36.496  12.503
11265W        W70702  39.858   6.362   3.170
11266W        W70703  11.681  30.057   4.114
11267W        W70704  13.293  32.082   1.427
11268W        W70705  12.683  41.019  12.487
11269W        W70706   2.934   1.801  14.347
11270W        W70707  42.465  41.947   2.277
11271W        W70708  20.599   7.771  12.491
11272W        W70709  18.585  22.084  10.608
11273W        W70710  18.167   0.901  14.394
11274W        W70711  26.496   3.801   0.821
11275W        W70712   6.861  15.720  14.031
11276W        W70713   9.193   1.923  13.466
11277W        W70714  17.144  21.094   9.964
11278W        W70715   1.325   2.441   3.734
11279W        W70716  24.606  31.418  14.843
11280W        W70717  33.462  40.798   2.746
11281W        W70718  40.356  12.668  14.852
11282W        W70719  26.192  22.648   2.694
11283W        W70720  13.110  40.802  10.644
11284W        W70721  11.822  17.209  12.392
11285W        W70722   4.303  33.896  10.943
11286W        W70723  42.815  37.581  13.062
11287W        W70724  10.138  23.191  13.865
11288W        W70725  37.390  24.089  14.500
11289W        W70726  10.181  28.029  10.896
11290W        W70727  21.540  15.618  13.531
11291W        W70728  21.224   5.844   0.908
11292W        W70729  20.558  28.601  10.558
11293W        W70730  24.985   7.771  10.643
11294W        W70731  41.352  38.925   4.234
11295W        W70732  38.479   4.914  11.982
11296W        W70733   4.759   0.354   4.182
11297W        W70734  10.720  41.409   0.847
11298W        W70735  18.223  44.291  13.934
11299W        W70736   9.675   1.285  13.309
11300W        W70737  41.808   7.325   2.321
11301W        W70738  16.221  42.958   3.268
11302W        W70739  36.348  43.852   0.428
11303W        W70740  29.931  18.584  13.336
11304W        W70741  29.497  20.543  14.785
11305W        W70742   2.782  20.140   4.599
11306W        W70743   8.660  19.143   3.200
11307W        W70744  36.544  19.131  11.527
11308W        W70745  22.610  23.174  12.972
11309W        W70746  40.434  17.195   9.921
11310W        W70747   3.824  39.462   2.684
11311W        W70748   0.368  40.534  14.026
11312W        W70749  15.306  38.853   2.696
11313W        W70750  21.709  18.076   1.753
11314W        W70751  24.109  37.366  12.925
11315W        W70752   8.278   7.902   0.874
11316W        W70753  41.943  31.494   1.877
11317W        W70754   8.383  42.994  12.061
11318W        W70755  23.551   7.368  11.389
11319W        W70756   2.957  22.151  12.580
11320W        W70757  37.024  35.888  13.346
11321W        W70758   8.824   4.340   3.782
11322W        W70759  24.188  40.856   2.197
11323W        W70760  20.258  32.135  14.344
11324W        W70761   2.866  23.641  10.121
11325W        W70762  36.499  16.149  14.765
11326W        W70763   2.431   6.780   1.731
11327W        W70764   3.848  25.597  14.896
11328W        W70765  32.915  20.053  11.948
11329W        W70766  21.707  21.093   0.899
11330W        W70767  42.389   8.178   3.827
11331W        W70768  19.747  20.065   3.152
11332W        W70769   7.340  25.144   4.312
11333W        W70770  28.620   2.764  11.451
11334W        W70771  38.884  19.190  11.383
11335W        W70772  17.239  15.175   3.179
11336W        W70773  44.490  14.747  14.888
11337W        W70774   7.801  31.030  13.893
11338W        W70775  42.927   4.331  11.025
11339W        W70776  18.088   8.730  10.441
11340W        W70777  24.615   6.410   3.226
11341W        W70778  38.390   5.841   0.814
11342W        W70779  14.149  22.724   3.275
11343W        W70780  31.467   7.230  11.539
11344W        W70781   9.820   3.388  14.500
11345W        W70782  21.141   5.351   0.791
11346W        W70783  23.582  15.260  13.979
11347W        W70784  38.400  14.233  10.449
11348W        W70785  38.979  16.114  14.866
11349W        W70786  33.885  16.770  13.868
11350W        W70787  25.699  20.266   3.809
11351W        W70788  40.376   9.394   3.850
11352W        W70789  36.922   7.711   2.299
11353W        W70790  37.493  19.555  12.414
11354W        W70791  11.849  21.745  10.511
11355W        W70792  11.301  35.935  12.530
11356W        W70793  26.692  31.143   4.701
11357W        W70794   1.457  42.979   3.805
11358W        W70795  28.615  42.868  12.343
11359W        W70796  41.861  38.348  12.958
11360W        W70797  28.436   7.674  13.008
11361W        W70798   3.329  20.264   2.339
11362W        W70799   7.908   3.455   1.895
11363W        W70800   7.745   6.275  10.602
11364W        W70801  27.541   0.934   2.279
11365W        W70802  24.105  25.684  11.003
11366W        W70803  20.611   1.888  14.377
11367W        W70804  33.011  17.628   1.902
11368W        W70805  44.798  12.225  14.277
11369W        W70806  32.973  27.461   0.312
11370W        W70807  23.501  22.604  12.918
11371W        W70808   8.215  31.535   2.716
11372W        W70809  41.793   7.305   4.777
11373W        W70810  21.731  32.548   0.375
11374W        W70811  42.322   7.853  11.476
11375W        W70812  38.912   1.880   3.363
11376W        W70813   7.764  17.762   1.889
11377W        W70814  17.107  43.415   0.730
11378W        W70815  27.051  14.777  11.888
11379W        W70816  30.022   5.691  11.380
11380W        W70817  14.765  29.062   1.349
11381W        W70818  44.008  29.008   1.363
11382W        W70819   8.662  37.484  13.431
11383W        W70820  44.875  16.265  12.570
11384W        W70821  25.482  28.104   3.374
11385W        W70822   3.921   2.943  10.458
11386W        W70823  21.541  38.376  12.973
11387W        W70824   7.179  41.437  11.900
11388W        W70825   7.902  35.987   2.728
11389W        W70826  19.110  14.676   1.854
11390W        W70827   0.442  43.879  11.009
11391W        W70828  26.501  12.236  13.816
11392W        W70829   3.271  15.599   2.872
11393W        W70830  16.180  38.339  10.155
11394W        W70831  14.204  16.600  10.608
11395W        W70832   2.301  33.085  11.002
11396W        W70833   0.756  43.911  13.389
11397W        W70834  43.375  40.912   3.856
11398W        W70835  16.139  16.245   1.289
11399W        W70836  40.531  11.710   3.837
11400W        W70837  18.684   0.358   0.371
11401W        W70838   6.306  38.888  11.392
11402W        W70839   6.836  15.144  11.086
11403W        W70840  41.522  13.666  14.481
11404W        W70841  34.033   7.313  14.324
11405W        W70842  31.916  25.519   3.274
11406W        W70843  19.162   6.814  11.858
11407W        W70844  36.487  10.322   1.423
11408W        W70845   4.787  25.515   0.740
11409W        W70846  43.986   4.337  14.930
11410W        W70847  39.400   7.413   2.737
11411W        W70848  28.174  16.740  12.578
11412W        W70849  37.903  21.556   4.780
11413W        W70850  40.977   7.334   1.776
11414W        W70851   6.390  40.482   1.769
11415W        W70852  36.896  20.586  10.596
11416W        W70853  33.408   9.212   1.900
11417W        W70854  38.058  42.330   1.408
11418W        W70855  41.323  44.942  14.397
11419W        W70856   6.917   7.734  14.973
11420W        W70857   5.856  13.264   3.779
11421W        W70858  16.724   3.371  12.004
11422W        W70859  10.336  11.699  12.549
11423W        W70860   9.741  28.170   1.319
11424W        W70861   7.398  32.486   0.331
11425W        W70862  26.678   2.917  12.042
11426W        W70863  37.554   2.287   4.199
11427W        W70864  33.399  14.248  14.939
11428W        W70865  11.270   4.710   1.350
11429W        W70866  31.506  26.456  13.527
11430W        W70867  30.515  23.522  12.343
11431W        W70868  40.833  40.841   3.206
11432W        W70869  26.050  21.127   4.329
11433W        W70870   9.266  34.881   3.684
11434W        W70871   3.724  43.283   1.372
11435W        W70872  41.842  21.630  14.472
11436W        W70873  10.300  11.837  11.073
11437W        W70874  36.573  21.208  14.985
11438W        W70875  29.572  12.730  11.106
11439W        W70876  13.626   5.304  12.539
11440W        W70877  20.718  29.573  11.022
11441W        W70878  23.662  31.533   4.782
11442W        W70879   1.861  16.181   2.206
11443W        W70880  39.425   4.234  11.954
11444W        W70881  19.707  24.614   3.350
11445W        W70882  35.545   4.351  10.983
11446W        W70883   2.303  39.023   2.832
11447W        W70884   6.718   1.827   0.393
11448W        W70885  19.620  26.513   2.681
11449W        W70886  29.160  31.999  11.015
11450W        W70887  39.944  16.138   0.429
11451W        W70888  12.148  14.725  13.451
11452W        W70889   7.758  16.192   4.188
11453W        W70890  35.476   5.216   2.260
11454W        W70891  14.157  44.952  13.813
11455W        W70892   7.283  34.436  14.353
11456W        W70893  24.685  43.896  14.956
11457W        W70894  13.185  35.466   4.246
11458W        W70895  42.389  32.441   4.611
11459W        W70896   2.258  14.315   0.914
11460W        W70897  24.136  21.191   1.862
11461W        W70898   8.378  11.176  11.573
11462W        W70899  33.115  42.885  14.893
11463W        W70900  34.035  36.529   1.227
11464W        W70901  37.571  26.186  12.940
11465W        W70902  29.064   4.211  11.038
11466W        W70903  14.724   5.849  11.948
11467W        W70904  20.605   3.841  12.084
11468W        W70905  31.048  16.220   4.709
11469W        W70906   6.788  33.953   1.700
11470W        W70907  21.589  23.115  10.467
11471W        W70908  30.468  35.919  11.916
11472W        W70909  21.640   0.823  11.127
11473W        W70910   9.256  24.603   9.500
11474W        W70911  37.953  27.656   4.598
11475W        W70912  34.388  43.344  13.423
11476W        W70913  22.114  43.937  12.345
11477W        W70914   0.411  32.452   2.708
11478W        W70915  41.413   0.305   3.381
11479W        W70916  16.708  34.438  10.924
11480W        W70917  23.087  35.935  12.499
11481W        W70918  10.164  40.826  12.876
11482W        W70919  44.408  28.180   5.277
11483W        W70920   3.216  16.079  13.501
11484W        W70921  16.206  26.046   4.183
11485W        W70922   3.736  44.947   2.306
11486W        W70923  31.536  21.631   3.257
11487W        W70924  11.839  31.562  12.547
11488W        W70925   3.747  25.069   0.331
11489W        W70926  23.045   3.270  10.437
11490W        W70927  40.497  16.614   1.722
11491W        W70928  20.523  34.392  10.938
11492W        W70929   3.295  26.548  10.050
11493W        W70930  14.761   3.760   4.681
11494W        W70931  19.068  21.705  14.307
11495W        W70932  25.195   8.710   1.723
11496W        W70933  10.638  22.543   0.841
11497W        W70934  14.671  39.483   0.483
11498W        W70935  43.855   5.797  13.396
11499W        W70936  35.965  21.036  11.059
11500W        W70937  23.701  36.557   1.842
11501W        W70938  22.720   8.789   3.683
11502W        W70939  27.099  12.662  13.824
11503W        W70940  19.702  15.246   0.453
11504W        W70941  25.165   2.798   0.742
11505W        W70942  33.411  19.557  14.386
11506W        W70943  38.408  16.141   0.869
11507W        W70944  44.985  30.633  14.850
11508W        W70945  21.071  40.398   2.806
11509W        W70946  33.928  39.881   1.278
11510W        W70947   8.289  32.129  12.027
11511W        W70948  13.139   8.826  12.425
11512W        W70949  37.497   6.787   2.663
11513W        W70950  39.511  31.024   1.387
11514W        W70951  33.928  24.104   4.797
11515W        W70952  43.424  37.958   2.711
11516W        W70953  20.754  15.194   0.386
11517W        W70954  43.461  29.538   2.358
11518W        W70955  32.413   4.271  11.556
11519W        W70956  24.112  27.604  11.946
11520W        W70957  34.574   7.323   2.734
11521W        W70958  13.706  19.217   2.396
11522W        W70959   0.389  32.033  12.400
11523W        W70960   2.884  21.096   3.804
11524W        W70961  42.906   3.823   3.264
11525W        W70962  42.469  44.965  13.391
11526W        W70963  19.701  39.856  14.912
11527W        W70964  23.723  23.208  14.290
11528W        W70965   7.206  18.705  13.533
11529W        W70966   7.811   5.398  12.529
11530W        W70967  24.555  16.288   1.291
11531W        W70968  24.564  35.572   2.331
11532W        W70969  29.923  19.220   1.929
11533W        W70970  35.407   3.878   0.844
11534W        W70971   0.884   5.260  14.934
11535W        W70972   5.369  11.823  11.068
11536W        W70973  23.045  10.329   2.739
11537W        W70974  39.912  11.284  11.506
11538W        W70975   0.807  32.424   3.243
11539W        W70976  18.758  40.370   0.354
11540W        W70977   2.303  24.211   0.428
11541W        W70978  31.536  26.133   4.268
11542W        W70979   3.947  22.175   3.689
11543W        W70980  27.671  39.987  12.931
11544W        W70981   8.820  26.544   5.145
11545W        W70982  22.032  33.082   3.215
11546W        W70983  11.710  38.397   3.218
11547W        W70984   0.461  26.113   0.409
11548W        W70985  32.887   5.903   3.632
11549W        W70986  36.073  13.236   4.739
11550W        W70987   2.885  16.643  11.957
11551W        W70988  20.175  42.886  13.034
11552W        W70989  15.653  18.674   0.732
11553W        W70990  17.800  42.859  12.896
11554W        W70991  13.198  22.019   4.202
11555W        W70992  25.542  39.508  13.988
11556W        W70993  31.090   4.209   4.154
11557W        W70994  24.559   5.409  12.873
11558W        W70995   4.252   5.282   0.816
11559W        W70996  10.770  31.989  11.085
11560W        W70997  32.402  31.488   0.430
11561W        W70998  28.980   1.476   1.855
11562W        W70999   1.464  35.405  12.442
11563W        W71000  22.531  37.973  11.018
11564W        W71001  18.664  25.021   4.710
11565W        W71002  30.084   7.700   2.671
11566W        W71003  12.336  38.911   2.227
11567W        W71004  28.002   5.277  11.518
11568W        W71005  36.401   9.792   3.733
11569W        W71006   7.346  27.125  10.041
11570W        W71007  35.424  34.886  10.411
11571W        W71008  20.037  19.225   0.476
11572W        W71009  13.645  26.682  10.624
11573W        W71010   8.194  31.571  14.880
11574W        W71011  37.564  34.462   0.465
11575W        W71012  22.115   2.229  13.359
11576W        W71013  14.195   5.281  11.389
11577W        W71014  14.157  14.141   4.737
11578W        W71015  12.172   8.250  11.559
11579W        W71016  18.759  17.232   0.473
11580W        W71017  36.878  27.611   3.788
11581W        W71018  12.158  15.635  12.958
11582W        W71019  32.099  35.102  10.493
11583W        W71020  34.992  43.893  12.409
11584W        W71021  16.219  18.174  12.349
11585W        W71022  35.486  22.642   4.217
11586W        W71023   7.234  40.013  10.537
11587W        W71024   9.699   8.337   2.317
11588W        W71025  19.543   6.745  12.580
11589W        W71026  23.059   0.849   1.326
11590W        W71027  38.480   5.698  14.849
11591W        W71028  40.050  24.020  12.539
11592W        W71029  19.258  30.427  13.974
11593W        W71030  42.858   9.349  10.973
11594W        W71031  35.535   8.719   4.197
11595W        W71032  15.730   5.319   3.307
11596W        W71033   8.199  23.688  12.510
11597W        W71034  41.400  14.813   3.220
11598W        W71035  17.796  40.892   2.902
11599W        W71036  34.043   9.853  12.360
11600W        W71037  24.176  35.980  14.957
11601W        W71038  25.637   3.724  13.836
11602W        W71039  33.529  35.448   1.724
11603W        W71040  40.048  12.611   1.347
11604W        W71041  30.592  14.751  10.937
11605W        W71042  35.960  27.049   1.849
11606W        W71043  41.865  17.153   5.322
11607W        W71044  10.781  29.031  13.022
11608W        W71045  30.046   1.281  14.491
11609W        W71046  44.372   5.347  13.810
11610W        W71047   7.734   5.767  10.412
11611W        W71048  20.182  12.320  14.496
11612W        W71049  41.800  39.890  13.807
11613W        W71050   5.361  17.760   0.917
11614W        W71051  21.553   1.237  12.055
11615W        W71052  34.508  31.542  12.530
11616W        W71053  28.617  17.161  11.599
11617W        W71054  22.727   8.354   2.409
11618W        W71055  17.722  30.152   0.782
11619W        W71056  16.231   5.749  10.627
11620W        W71057  28.492  28.524  11.608
11621W        W71058  25.144  13.339  13.797
11622W        W71059  25.625   7.879  13.410
11623W        W71060  11.672  43.346   0.947
11624W        W71061  42.872  37.430   0.800
11625W        W71062   4.415  12.205   0.889
11626W        W71063  31.435   3.240   3.315
11627W        W71064  35.947   4.749   4.687
11628W        W71065  30.082  27.663   5.213
11629W        W71066   1.917  40.463   3.696
11630W        W71067  12.819  22.134  12.859
11631W        W71068   3.311  20.162  11.029
11632W        W71069  24.215  33.391   1.876
11633W        W71070  39.929  36.371   3.823
11634W        W71071   6.375  40.877  12.030
11635W        W71072   6.746  19.572   5.229
11636W        W71073  22.601  29.657  13.829
11637W        W71074   5.917  26.129   1.931
11638W        W71075  21.547  27.521  13.400
11639W        W71076   5.295   6.776  14.428
11640W        W71077  28.471   7.299  14.871
11641W        W71078  31.602   2.855   4.302
11642W        W71079  14.200  29.104   1.862
11643W        W71080  18.778  36.460   3.736
11644W        W71081  19.136  22.716  10.607
11645W        W71082  40.873  30.642  10.426
11646W        W71083  13.652  17.170  13.040
11647W        W71084   3.841  29.495   3.775
11648W        W71085  22.075   9.658   1.881
11649W        W71086  35.020  11.671   2.347
11650W        W71087  30.981   7.857  13.486
11651W        W71088  26.987  19.185  13.307
11652W        W71089   8.669  14.320  13.544
11653W        W71090  35.502  24.185  13.500
11654W        W71091  31.435  35.861  10.604
11655W        W71092   6.744  35.411  14.405
11656W        W71093   4.320  41.920  13.947
11657W        W71094   0.333  24.106  10.459
11658W        W71095  29.103  21.592   2.766
11659W        W71096  21.257  14.688   1.912
11660W        W71097  16.189   9.790  13.525
11661W        W71098  28.152   4.933   3.315
11662W        W71099  43.846   3.398  11.926
11663W        W71100   0.938  27.453  14.804
11664W        W71101  27.993  11.863   3.733
11665W        W71102  21.657  15.311   0.942
11666W        W71103  21.143  25.090   1.266
11667W        W71104  20.634  13.835   4.327
11668W        W71105   4.861  28.458   3.688
11669W        W71106  33.520   8.218  13.444
11670W        W71107  35.590  35.914  14.851
11671W        W71108  30.466  44.287   1.332
11672W        W71109  20.759  14.661   0.815
11673W        W71110  21.144   6.374  11.037
11674W        W71111  44.403  35.518  12.439
11675W        W71112  44.899  31.122   1.420
11676W        W71113  33.108  42.888   1.395
11677W        W71114  32.927  27.165   2.849
11678W        W71115  34.114  10.854  12.011
11679W        W71116  14.747  18.123   1.438
11680W        W71117   1.348  30.421   4.300
11681W        W71118  28.075  43.450   1.767
11682W        W71119  31.584  29.128   1.876
11683W        W71120  25.088  38.002  11.595
11684W        W71121  26.041  36.912   4.279
11685W        W71122  21.077  25.004  14.966
11686W        W71123  17.640  39.857  13.345
11687W        W71124   6.247  14.740  12.846
11688W        W71125  42.357  17.295  12.441
11689W        W71126   8.224  35.950   3.238
11690W        W71127  29.660  41.318   0.944
11691W        W71128  27.601   5.370   2.395
11692W        W71129  32.086  27.058   0.825
11693W        W71130   8.251  31.620  12.911
11694W        W71131  41.011  28.995   3.797
11695W        W71132  37.865  13.330  11.896
11696W        W71133  35.960  43.829  12.930
11697W        W71134   3.770  41.801   4.770
11698W        W71135  20.045  43.274  12.488
11699W        W71136  25.640  26.623   3.238
11700W        W71137  40.428  36.367   4.770
11701W        W71138  19.207  12.165   4.791
11702W        W71139  15.635  17.685  14.860
11703W        W71140  44.260  21.624  13.033
11704W        W71141   4.398   2.867   3.833
11705W        W71142  20.264  35.974   4.325
11706W        W71143   3.225   9.673   3.221
11707W        W71144  16.629  33.421   3.188
11708W        W71145  14.297   7.184  11.536
11709W        W71146  16.652   2.833  11.055
11710W        W71147  34.398  21.232   2.856
11711W        W71148  30.556  33.120   1.412
11712W        W71149  26.500   4.446  14.950
11713W        W71150  41.487  22.601  14.314
11714W        W71151  14.709  32.634   4.128
11715W        W71152  35.557  18.784  11.459
11716W        W71153  14.610  19.637   3.715
11717W        W71154  11.747  11.761   2.837
11718W        W71155  15.102   5.755   1.276
11719W        W71156   4.232  23.541   0.751
11720W        W71157   4.212  42.927   1.878
11721W        W71158   6.234   2.771   0.818
11722W        W71159  37.839  24.174  13.864
11723W        W71160  29.560  34.874  14.388
11724W        W71161  33.403  23.685   9.614
11725W        W71162  44.980   4.861  10.033
11726W        W71163  15.161   9.155  12.882
11727W        W71164   7.867  30.007   1.868
11728W        W71165  26.473  23.693  10.947
11729W        W71166  15.763  12.126  11.022
11730W        W71167   7.370  20.557   1.394
11731W        W71168   8.718  40.808   4.743
11732W        W71169  13.190   1.914  10.542
11733W        W71170  22.525  12.780   2.382
11734W        W71171   8.256  41.869   1.904
11735W        W71172   9.379  42.451   2.875
11736W        W71173  18.598  29.088   2.668
11737W        W71174  41.413  25.653   0.461
11738W        W71175   2.338  17.211  14.344
11739W        W71176  28.508  39.521  13.796
11740W        W71177   5.354   3.312  11.870
11741W        W71178  13.214   6.315   5.180
11742W        W71179  25.167   3.769   1.241
11743W        W71180   5.314   7.276  13.844
11744W        W71181  21.064  35.919  11.881
11745W        W71182   6.321  42.864   3.180
11746W        W71183  40.857  18.708   3.695
11747W        W71184   4.858  37.035  12.491
11748W        W71185  20.147   7.215   4.243
11749W        W71186   6.834   9.332  11.423
11750W        W71187   3.945  16.140  14.329
11751W        W71188  14.775  40.050   1.925
11752W        W71189  42.400  31.547   0.742
11753W        W71190  41.483  19.162   1.928
11754W        W71191   6.307  32.965  13.352
11755W        W71192  10.666   8.670  12.088
11756W        W71193  12.172  21.139   2.694
11757W        W71194   8.900  16.636   2.339
11758W        W71195  18.725   5.357  12.951
11759W        W71196  36.092  33.123  13.478
11760W        W71197   1.319  19.237  10.515
11761W        W71198  12.160   1.936  14.515
11762W        W71199   1.928  34.034  14.356
11763W        W71200  11.810   4.305   0.396
11764W        W71201  40.411  36.076  12.353
11765W        W71202  31.596  25.650  13.495
11766W        W71203  28.146  35.956  13.307
11767W        W71204   0.960  19.173   2.731
11768W        W71205   5.900   8.209  14.849
11769W        W71206   1.782  23.713  10.522
11770W        W71207  44.310  20.579   3.854
11771W        W71208  39.394   6.889   3.807
11772W        W71209  38.908  44.929   4.162
11773W        W71210  39.324   5.867   1.784
11774W        W71211  31.577  26.624  11.001
11775W        W71212  40.478  16.683  11.536
11776W        W71213  12.208  18.589  12.903
11777W        W71214  22.188   5.888   1.442
11778W        W71215  28.986   9.808  12.997
11779W        W71216  27.545  15.093  12.844
11780W        W71217  37.476   8.185   1.727
11781W        W71218  32.489  33.011   3.301
11782W        W71219   8.826  38.333  13.347
11783W        W71220  37.883  29.561   2.402
11784W        W71221  42.933   5.830   1.339
11785W        W71222  33.568   5.859   0.411
11786W        W71223   3.458  33.073   0.317
11787W        W71224  14.246  19.090   1.415
11788W        W71225   0.813  38.020   4.771
11789W        W71226   4.350  35.989  13.826
11790W        W71227  32.471  24.976   2.333
11791W        W71228   0.916  34.863   2.275
11792W        W71229  41.433   0.366   1.727
11793W        W71230  12.135  42.392  13.998
11794W        W71231  22.719  19.261   0.287
11795W        W71232  38.350  22.098  13.439
11796W        W71233  27.583  28.035  11.872
11797W        W71234  25.638  26.494  13.056
11798W        W71235  19.073  34.615  11.892
11799W        W71236  29.983   0.465  14.394
11800W        W71237  20.603  32.118  14.465
11801W        W71238  12.216  33.451  11.976
11802W        W71239  18.223   0.768   3.200
11803W        W71240  24.027   7.674  10.570
11804W        W71241  14.708  36.549   1.420
11805W        W71242  32.504  27.131   2.304
11806W        W71243   1.362  30.617   3.712
11807W        W71244  34.944  28.052   1.894
11808W        W71245  19.585  22.060  14.473
11809W        W71246   0.928  33.087   4.267
11810W        W71247  27.169   2.729  13.439
11811W        W71248   1.320  22.146   0.354
11812W        W71249  40.933  30.545   0.730
11813W        W71250  21.627  16.264  11.559
11814W        W71251   1.308  36.027  12.444
11815W        W71252  33.026  10.657  10.629
11816W        W71253  19.718  26.543   3.631
11817W        W71254  10.728  11.224  11.968
11818W        W71255   6.319  36.852   2.893
11819W        W71256  33.436  43.989  12.468
11820W        W71257  30.002  25.079   0.249
11821W        W71258  23.010  37.456   2.801
11822W        W71259  16.791  30.910   2.203
11823W        W71260  30.939  38.384   4.749
11824W        W71261  38.539   2.260   3.807
11825W        W71262  18.571   9.789  11.879
11826W        W71263  18.188  43.372   3.775
11827W        W71264  23.628  15.116  13.476
11828W        W71265  10.146  17.223   2.249
11829W        W71266  44.899  18.630   4.180
11830W        W71267  19.043  18.637  13.845
11831W        W71268  10.830  23.139  11.602
11832W        W71269   8.374  29.068  10.086
11833W        W71270  11.780  36.928   2.691
11834W        W71271  17.250   1.406  10.007
11835W        W71272  27.014   7.828  10.612
11836W        W71273  34.867  12.246  11.379
11837W        W71274   6.224  33.117   0.748
11838W        W71275   6.698  34.595  10.636
11839W        W71276   9.801   9.688   1.419
11840W        W71277  24.092  13.136   1.927
11841W        W71278  37.931  30.973   3.851
11842W        W71279   9.802  11.785  12.982
11843W        W71280  10.872   5.405   2.682
11844W        W71281  21.072   1.947   1.854
11845W        W71282  36.361   7.295   3.386
11846W        W71283  31.562  44.956   0.414
11847W        W71284  18.615  11.131   1.789
11848W        W71285  34.543  34.094   4.613
11849W        W71286  25.133  43.375   0.782
11850W        W71287   7.350   6.893   4.249
11851W        W71288  28.044   8.346   3.778
11852W        W71289  41.885  30.140  12.959
11853W        W71290   7.672  37.449  10.970
11854W        W71291  33.447  10.746  14.288
11855W        W71292  44.840  32.511  11.920
11856W        W71293  17.109  28.991   4.749
11857W        W71294  41.456   9.699   1.238
11858W        W71295  39.536  23.076  11.089
11859W        W71296  36.911  18.712  14.823
11860W        W71297  19.601   4.712   4.330
11861W        W71298  30.929  20.677   0.869
11862W        W71299  19.671  43.395   3.720
11863W        W71300  37.972   5.328   2.662
11864W        W71301   1.738  12.156  12.880
11865W        W71302  39.559   7.240  11.997
11866W        W71303   5.783  12.270  10.907
11867W        W71304  31.938  11.175  12.514
11868W        W71305   4.817  20.066  12.863
11869W        W71306  16.089  43.789  11.513
11870W        W71307  38.354  40.512  14.993
11871W        W71308  36.563  17.651   0.302
11872W        W71309  31.647   8.345   4.599
11873W        W71310  13.242  19.746   3.640
11874W        W71311  11.149  19.742   3.857
11875W        W71312  21.110   6.248  12.474
11876W        W71313  34.037  29.522   0.772
11877W        W71314  21.624  42.882  13.014
11878W        W71315  43.396  14.763  13.952
11879W        W71316  11.245  44.906   4.745
11880W        W71317  36.958  28.626  13.836
11881W        W71318  12.237   3.414   4.143
11882W        W71319  43.460  14.598  11.883
11883W        W71320   5.703  29.487   2.270
11884W        W71321  15.153   7.768   0.408
11885W        W71322  38.988  18.553  12.918
11886W        W71323  29.474   6.739   4.732
11887W        W71324  39.874  36.507   4.316
11888W        W71325   1.304  43.391   2.374
11889W        W71326  16.191   7.247   0.355
11890W        W71327  34.902  31.507  13.334
11891W        W71328  21.622  28.567   2.198
11892W        W71329   1.824   7.862  12.916
11893W        W71330  24.624  18.652  11.059
11894W        W71331  37.035  44.477   1.766
11895W        W71332  41.398   6.276   2.890
11896W        W71333  30.532  23.079  12.437
11897W        W71334  14.722  18.577   2.801
11898W        W71335  27.025  42.940   4.774
11899W        W71336  14.703  30.441  14.836
11900W        W71337  39.814  10.190  11.580
11901W        W71338  14.741  35.497   4.334
11902W        W71339   6.792  17.277  10.518
11903W        W71340  43.394  29.631  14.849
11904W        W71341  39.949  36.512  14.478
11905W        W71342  38.894  44.010   1.863
11906W        W71343   6.677   3.907   1.709
11907W        W71344  22.013  27.507   1.803
11908W        W71345  25.689  40.839  12.561
11909W        W71346  28.479  40.841  14.327
11910W        W71347   4.265  31.969   1.734
11911W        W71348  23.577  43.878  12.036
11912W        W71349  33.987  27.177  12.543
11913W        W71350  10.379  21.252   1.320
11914W        W71351   6.381   6.234  11.427
11915W        W71352   3.263   3.883  11.074
11916W        W71353  32.082  37.877   1.328
11917W        W71354   7.394  37.013  12.948
11918W        W71355   5.886  28.552   0.823
11919W        W71356  16.668  40.401  14.510
11920W        W71357  12.330  29.996   4.794
11921W        W71358  13.156  16.103  10.584
11922W        W71359  37.936   1.778   5.227
11923W        W71360  10.775  39.971   3.270
11924W        W71361  13.616  14.752   3.733
11925W        W71362  28.668  39.495  13.381
11926W        W71363  21.645  35.377   4.644
11927W        W71364  26.673  24.143  14.301
11928W        W71365   9.242   4.901   2.363
11929W        W71366  12.121  21.635  14.961
11930W        W71367   7.355  31.046   3.223
11931W        W71368   4.307  30.521   1.355
11932W        W71369   7.903  32.033   3.339
11933W        W71370  44.947  42.933  14.460
11934W        W71371  32.053  26.523   4.663
11935W        W71372   3.781  24.489   0.304
11936W        W71373  19.082  26.065  14.453
11937W        W71374  15.749   5.244   1.835
11938W        W71375   0.852  23.556   4.203
11939W        W71376   4.726  23.609   3.692
11940W        W71377  34.486  21.659  13.335
11941W        W71378  29.935   0.335  14.803
11942W        W71379  10.149  43.499  13.869
11943W        W71380  14.704  31.458   0.748
11944W        W71381  13.765  16.172   0.387
11945W        W71382  43.453  11.272  10.431
11946W        W71383  23.649  34.915   4.134
11947W        W71384  12.723  42.883  14.877
11948W        W71385  30.954  41.884   3.745
11949W        W71386  27.671  10.354  13.890
11950W        W71387  30.915  13.770  10.960
11951W        W71388  11.243  31.456  12.916
11952W        W71389   9.651  21.117  13.390
11953W        W71390  22.108  27.644  14.776
11954W        W71391  31.435  41.919  12.381
11955W        W71392   3.892  22.044  12.046
11956W        W71393  43.940  16.797  11.876
11957W        W71394  35.383  41.036   2.275
11958W        W71395  24.580   9.833   0.270
11959W        W71396   7.844  40.851  13.888
11960W        W71397  40.803  14.640  12.049
11961W        W71398  34.565   5.700  14.831
11962W        W71399  25.115  16.075  12.917
11963W        W71400  26.161  34.540   3.765
11964W        W71401   2.888  10.149  13.422
11965W        W71402  19.211  18.185   2.801
11966W        W71403  29.931  23.020  14.907
11967W        W71404  30.589  33.899  11.532
11968W        W71405  28.184  37.466   4.207
11969W        W71406  23.707   7.818  12.823
11970W        W71407  29.168  35.941   0.337
11971W        W71408  27.477  23.690  12.021
11972W        W71409  40.828  18.285  13.420
11973W        W71410  14.595  37.457  14.786
11974W        W71411  41.875  28.489  12.378
11975W        W71412   0.339   9.372  14.367
11976W        W71413   3.255  17.203  12.837
11977W        W71414  23.022   9.813  14.337
11978W        W71415  31.037  32.127   5.247
11979W        W71416  15.320   1.249   0.412
11980W        W71417  13.676  18.140  10.983
11981W        W71418  43.463  39.848   0.817
11982W        W71419   3.429  28.458  14.845
11983W        W71420   3.380  39.904  10.041
11984W        W71421  42.479  31.630  14.420
11985W        W71422  30.912  29.610  12.916
11986W        W71423  27.958   6.919   2.768
11987W        W71424  38.380  28.008  12.942
11988W        W71425  13.764  20.175   0.248
11989W        W71426  28.125  38.396   2.397
11990W        W71427  10.761  11.674   2.302
11991W        W71428   9.792  32.493   2.215
11992W        W71429  35.496  23.569   0.881
11993W        W71430  19.671   2.290   4.263
11994W        W71431  19.591  24.514   2.890
11995W        W71432  28.458  14.224  13.944
11996W        W71433  29.129  18.627  11.461
11997W        W71434  17.135  35.540  14.351
11998W        W71435  30.130  39.399   3.308
11999W        W71436   8.276  16.238  14.987
12000W        W71437  16.730  19.169  12.020
12001W        W71438   6.695   4.837  14.293
12002W        W71439  29.042   5.818   4.746
12003W        W71440  38.888   1.734  12.390
12004W        W71441  25.115  15.094  14.498
12005W        W71442  35.903  13.685   3.151
12006W        W71443  30.123  39.982  10.438
12007W        W71444  27.559   4.797  13.797
12008W        W71445   2.301  14.226   4.694
12009W        W71446   7.852  30.938  10.942
12010W        W71447   7.835   9.257   2.419
12011W        W71448  37.055   4.371   2.775
12012W        W71449  27.107  19.677   2.389
12013W        W71450  23.536  38.885   0.406
12014W        W71451  37.510  20.646   3.762
12015W        W71452  42.482  12.653  14.007
12016W        W71453  25.502  36.991  11.388
12017W        W71454  29.618  18.623   2.778
12018W        W71455  16.613  32.432  14.029
12019W        W71456  44.933  44.941  14.769
12020W        W71457   2.435   5.864  14.451
12021W        W71458  39.417   6.845  11.509
12022W        W71459  39.341  42.008  11.524
12023W        W71460  26.969  23.575   4.645
12024W        W71461  39.454  33.381  12.863
12025W        W71462   7.332  39.947  11.579
12026W        W71463  21.524  12.252   3.149
12027W        W71464  15.609  25.668   0.762
12028W        W71465  36.999   1.753   1.222
12029W        W71466   2.860  15.726  14.836
12030W        W71467  20.109   3.440   0.426
12031W        W71468  30.446  40.906   5.779
12032W        W71469  18.056  17.764   1.432
12033W        W71470  25.183  37.434   1.788
12034W        W71471   7.259   2.281   0.346
12035W        W71472  42.009  27.605  14.449
12036W        W71473  40.981   8.865   1.886
12037W        W71474  15.196   1.936  10.909
12038W        W71475  22.526  14.131   0.796
12039W        W71476  27.051   9.180  12.424
12040W        W71477  24.004  14.123  14.890
12041W        W71478   1.913  32.140   5.152
12042W        W71479   6.768   9.680  10.448
12043W        W71480   1.458  28.048  13.983
12044W        W71481  35.382  17.193   2.365
12045W        W71482   8.389  10.347  10.448
12046W        W71483   3.347  15.234   0.374
12047W        W71484  41.520  23.085   2.204
12048W        W71485   7.832  27.073   1.761
12049W        W71486  29.624  15.664  10.034
12050W        W71487  32.621  24.983   1.722
12051W        W71488  14.811  36.083   1.926
12052W        W71489   7.189   1.809  14.824
12053W        W71490  42.358  25.627   2.366
12054W        W71491  15.084   9.239  11.955
12055W        W71492  39.942  20.688  13.362
12056W        W71493   7.225   0.760  13.431
12057W        W71494  10.753  37.938   0.406
12058W        W71495  27.034   8.797   1.740
12059W        W71496  23.574  44.412  13.540
12060W        W71497  22.237  30.087  14.487
12061W        W71498  35.401  17.146  12.455
12062W        W71499   1.793  30.947  14.291
12063W        W71500  43.902  23.595  13.440
12064W        W71501  31.896  14.606   0.828
12065W        W71502  22.119   8.359   1.271
12066W        W71503  29.987  35.941  10.990
12067W        W71504  37.836  23.117   4.159
12068W        W71505  19.170  33.047  11.599
12069W        W71506  41.949   5.411  12.435
12070W        W71507  21.251  23.057   1.218
12071W        W71508  43.408  19.584  14.352
12072W        W71509   2.730  16.217  13.524
12073W        W71510  41.411  16.298  11.867
12074W        W71511  20.656  18.066   0.267
12075W        W71512   7.857   1.791  13.492
12076W        W71513  19.582  29.629   0.739
12077W        W71514  44.899  20.086   4.838
12078W        W71515  44.448  38.529   3.282
12079W        W71516   3.216  30.549   4.125
12080W        W71517  25.597  17.710  10.612
12081W        W71518  29.124  38.001  14.849
12082W        W71519  41.948  40.379   3.745
12083W        W71520  14.709  12.118  13.017
12084W        W71521  29.053   9.824  14.283
12085W        W71522   0.799  19.225  11.987
12086W        W71523  23.667  22.123   3.276
12087W        W71524   9.755  30.933   3.207
12088W        W71525   8.296  13.106   2.205
12089W        W71526  27.989  29.146  12.087
12090W        W71527  18.615  36.077  11.606
12091W        W71528  13.167  13.643  12.900
12092W        W71529  30.983  25.521  14.498
12093W        W71530  35.966   1.296   3.198
12094W        W71531  15.261   0.966  12.571
12095W        W71532  10.313  24.993  10.520
12096W        W71533   3.383  27.522  11.091
12097W        W71534   5.424   7.680   1.737
12098W        W71535  29.462  19.264  11.938
12099W        W71536  29.448  43.992  11.008
12100W        W71537   2.333  32.436  10.953
12101W        W71538  35.046   3.445   4.192
12102W        W71539  41.853  42.351  14.809
12103W        W71540  12.790  27.977  11.948
12104W        W71541  30.614  18.725   5.167
12105W        W71542  29.543  43.334  12.496
12106W        W71543  19.583  38.854  11.905
12107W        W71544   3.455  35.926  13.057
12108W        W71545   9.852  18.623  14.945
12109W        W71546  29.953  21.576   0.832
12110W        W71547   9.701  14.783  13.315
12111W        W71548  43.485  44.003   3.630
12112W        W71549  10.644  31.077   0.896
12113W        W71550   2.902  32.582   2.230
12114W        W71551  37.918  23.219   2.385
12115W        W71552  25.073  29.996  14.504
12116W        W71553  39.025  31.096   2.311
12117W        W71554  30.940   2.873  14.963
12118W        W71555  22.215  31.550   0.402
12119W        W71556  29.108   7.187  11.387
12120W        W71557  41.992  12.641  11.118
12121W        W71558  22.091  40.323   5.183
12122W        W71559  14.726  22.525  11.607
12123W        W71560   4.703  13.175   4.629
12124W        W71561  30.927  42.366   3.310
12125W        W71562  25.668  41.892  12.543
12126W        W71563  28.661  33.423   3.289
12127W        W71564  33.617  21.657   3.355
12128W        W71565  17.261  21.103  13.872
12129W        W71566  26.493  11.297  14.812
12130W        W71567   1.277  13.762  12.045
12131W        W71568  17.684   3.856  11.873
12132W        W71569  22.734  32.056  13.392
12133W        W71570  44.324  36.489   4.292
12134W        W71571  11.359  28.015  11.503
12135W        W71572  38.441  10.814  13.905
12136W        W71573   0.879  21.596  13.493
12137W        W71574  43.815  41.856  12.505
12138W        W71575   5.218  34.408   4.122
12139W        W71576  38.370   0.852   4.121
12140W        W71577  30.460  20.526  12.024
12141W        W71578  40.846  23.498  13.031
12142W        W71579  33.389  44.940  11.901
12143W        W71580  18.163  43.999  12.411
12144W        W71581  19.663  44.263  11.534
12145W        W71582  18.717   8.224  14.337
12146W        W71583   9.873  36.007   3.305
12147W        W71584  31.532   9.388   4.821
12148W        W71585  34.979  29.532  11.929
12149W        W71586  40.958  27.455   1.229
12150W        W71587  27.955  12.650  13.532
12151W        W71588  15.604  27.462   2.814
12152W        W71589   5.368  14.214  12.516
12153W        W71590  34.866  22.164  12.555
12154W        W71591  23.561  14.233  14.489
12155W        W71592  44.948  14.334  11.934
12156W        W71593  22.200  38.464  11.998
12157W        W71594  39.370  44.455  11.081
12158W        W71595  29.003  23.213  10.906
12159W        W71596  15.228  26.588  10.923
12160W        W71597  26.568  12.644   1.746
12161W        W71598  23.165  25.547   3.765
12162W        W71599  16.211  35.005   1.416
12163W        W71600  20.150   5.844  13.391
12164W        W71601  22.245  34.056  14.423
12165W        W71602  12.629   1.246   4.123
12166W        W71603  36.508   4.813   2.745
12167W        W71604  10.697  16.625  14.465
12168W        W71605   4.413  13.690  10.523
12169W        W71606   7.794   6.201  14.297
12170W        W71607  26.566  12.276  13.308
12171W        W71608   9.693  27.118  12.468
12172W        W71609  29.939  22.070  12.871
12173W        W71610  12.273  12.289   4.317
12174W        W71611  24.661  10.317   9.985
12175W        W71612  24.582  28.447  13.929
12176W        W71613  22.593  27.069   0.780
12177W        W71614   4.707   7.876   1.910
12178W        W71615  41.386   3.891  12.930
12179W        W71616  17.583  37.847   1.224
12180W        W71617  33.878   4.405   2.790
12181W        W71618  41.435   3.352   0.826
12182W        W71619  18.549  18.060  13.977
12183W        W71620  36.581  44.784  13.413
12184W        W71621  24.576  22.061   2.860
12185W        W71622   3.800   9.166   2.403
12186W        W71623  10.241  11.790   0.944
12187W        W71624  20.664   7.794  13.900
12188W        W71625  28.670   7.818  14.340
12189W        W71626  24.029  33.560  12.370
12190W        W71627  38.553   4.789   1.902
12191W        W71628  30.908   9.248   1.827
12192W        W71629   7.819  27.008   2.688
12193W        W71630  13.613   9.823   4.599
12194W        W71631  30.008  35.512   2.676
12195W        W71632  26.537  20.109   0.300
12196W        W71633  19.612  29.958  12.430
12197W        W71634  16.756  41.978   9.980
12198W        W71635  40.506   4.345  11.977
12199W        W71636  20.560   7.223  11.062
12200W        W71637  24.652  10.722   2.255
12201W        W71638   3.446   9.168   4.838
12202W        W71639  20.186  35.090   0.401
12203W        W71640  10.767  11.357   0.819
12204W        W71641  17.619   2.263   3.224
12205W        W71642  35.998  10.686  11.598
12206W        W71643  11.255  23.054  12.951
12207W        W71644   8.675   2.749   3.673
12208W        W71645   3.247  14.693  12.971
12209W        W71646  13.197   1.882   4.294
12210W        W71647   3.717   8.852  14.991
12211W        W71648  14.634  18.754  14.997
12212W        W71649  17.078   5.876   3.787
12213W        W71650   1.476  29.552   2.847
12214W        W71651  24.057  44.891  13.466
12215W        W71652   4.283  31.404   0.274
12216W        W71653  42.938  32.119  12.936
12217W        W71654  23.227  27.145  10.633
12218W        W71655  37.990  43.340  11.540
12219W        W71656  43.310  35.005   3.814
12220W        W71657   3.880  15.212   0.800
12221W        W71658   0.912  37.943  11.065
12222W        W71659  34.445  25.506   0.483
12223W        W71660   2.236  27.118   2.333
12224W        W71661  25.964  12.680   0.755
12225W        W71662   9.368  44.322  14.465
12226W        W71663  34.034  37.049  14.504
12227W        W71664   3.235  23.620  12.352
12228W        W71665  14.209  24.117   1.926
12229W        W71666  12.330  43.855  12.879
12230W        W71667  14.164   5.206  12.985
12231W        W71668   1.938  26.618  14.858
12232W        W71669  27.564  35.586   4.808
12233W        W71670   0.282  33.971  12.036
12234W        W71671  41.828  19.539  13.475
12235W        W71672   2.763  19.047  13.883
12236W        W71673  10.805  24.707   4.328
12237W        W71674  37.579  19.713  14.474
12238W        W71675  10.229  31.415  10.637
12239W        W71676  38.017  34.501   1.404
12240W        W71677  21.036  14.800  12.854
12241W        W71678  36.999   6.396  11.468
12242W        W71679   8.308  11.841  12.876
12243W        W71680  31.910  37.412   0.483
12244W        W71681   0.272   6.289  10.545
12245W        W71682   5.262  24.574  14.021
12246W        W71683  39.879  44.358   4.810
12247W        W71684   9.718   7.300  10.615
12248W        W71685  11.137  30.159   2.677
12249W        W71686  16.077  11.287   0.926
12250W        W71687  41.531  27.079  11.394
12251W        W71688  41.421  16.653   1.419
12252W        W71689  14.663  30.028  14.501
12253W        W71690  17.152  32.571   4.781
12254W        W71691  13.326  12.237  13.529
12255W        W71692   4.872  36.428   2.178
12256W        W71693  33.556   9.863   0.308
12257W        W71694  32.907  35.890   4.308
12258W        W71695  10.329  13.134  12.886
12259W        W71696  34.461  34.992  10.902
12260W        W71697  35.105  28.556  13.844
12261W        W71698  21.182  30.438   0.431
12262W        W71699  17.149  26.692   3.847
12263W        W71700  30.128  39.044   4.746
12264W        W71701  29.106  26.702  14.437
12265W        W71702  40.489   1.396  10.412
12266W        W71703  36.876  13.782   4.623
12267W        W71704  23.706  39.331   4.743
12268W        W71705  14.598  21.118  13.412
12269W        W71706  15.627   9.854   0.841
12270W        W71707  23.523   6.910  13.920
12271W        W71708  43.858   2.439  13.371
12272W        W71709  34.892  10.658   3.778
12273W        W71710  39.477  34.035  13.048
12274W        W71711   4.252  23.508  10.900
12275W        W71712  28.483   9.389   3.312
12276W        W71713  22.223  24.498   2.303
12277W        W71714  44.956  39.011   9.973
12278W        W71715  34.470   3.714  14.516
12279W        W71716  11.131  35.979   2.217
12280W        W71717   7.337  41.985  11.473
12281W        W71718  13.672   6.726  13.945
12282W        W71719  14.653  43.463   0.343
12283W        W71720  37.580   0.255   1.920
12284W        W71721  12.331   4.295  11.918
12285W        W71722  24.223  12.127  12.949
12286W        W71723  13.212  36.065   0.401
12287W        W71724  18.216  23.605   1.233
12288W        W71725  39.388  34.428   1.321
12289W        W71726  37.359  22.525  12.523
12290W        W71727  41.937   8.279   3.679
12291W        W71728  12.760   2.247   2.302
12292W        W71729  19.602  22.082   1.800
12293W        W71730   2.441  32.417  11.562
12294W        W71731   8.700  26.698  11.122
12295W        W71732   0.753  44.483  11.573
12296W        W71733  13.199  16.790   4.755
12297W        W71734   8.354  35.470   4.805
12298W        W71735  37.946  25.063  12.553
12299W        W71736  13.731  40.992  12.970
12300W        W71737  33.583  20.249  11.374
12301W        W71738  21.671  38.383   0.452
12302W        W71739  13.755  28.016  12.971
12303W        W71740   8.792   6.731  13.545
12304W        W71741  12.344  26.674  14.407
12305W        W71742  44.295  34.457   1.879
12306W        W71743   4.709  28.933  10.999
12307W        W71744  39.535  41.796  12.898
12308W        W71745  26.534  35.599   2.284
12309W        W71746  27.066   5.909  14.456
12310W        W71747  21.157  34.614  13.841
12311W        W71748  24.703   1.278   0.794
12312W        W71749  27.628  17.199   3.803
12313W        W71750   0.415  21.093   0.860
12314W        W71751  27.686  31.976   3.147
12315W        W71752  38.339  38.007  13.374
12316W        W71753  32.002  42.906  10.954
12317W        W71754  32.985  33.088   1.912
12318W        W71755  42.842  15.686  13.062
12319W        W71756  39.347  27.462  13.314
12320W        W71757  31.629  26.116   3.156
12321W        W71758  21.639  41.846  11.896
12322W        W71759  41.822  39.977  11.424
12323W        W71760  26.602  20.570  12.033
12324W        W71761  18.561  21.683  11.524
12325W        W71762  39.395  22.637  11.593
12326W        W71763  13.199  12.362   4.826
12327W        W71764  11.845  28.157   3.200
12328W        W71765  38.371   3.808  13.883
12329W        W71766  27.029   7.337   2.229
12330W        W71767  25.203  31.058   1.320
12331W        W71768  18.269  11.651  10.435
12332W        W71769   7.289  44.802   0.365
12333W        W71770  36.442  42.511  14.490
12334W        W71771  25.547  44.500   2.761
12335W        W71772  11.634  18.665  13.925
12336W        W71773   0.981  14.240   0.480
12337W        W71774  28.602  34.037   4.754
12338W        W71775  37.948  30.532  12.851
12339W        W71776   3.351  14.096  12.940
12340W        W71777  30.094  28.979  13.918
12341W        W71778  34.392  43.328  14.803
12342W        W71779  15.329  35.025   2.763
12343W        W71780   8.689  38.560  14.022
12344W        W71781  33.969   1.954  11.380
12345W        W71782  38.979   0.949  13.837
12346W        W71783  43.977  33.614   3.834
12347W        W71784  35.003  32.013  14.422
12348W        W71785  25.709  40.380  12.404
12349W        W71786   1.469   7.789   0.964
12350W        W71787  12.258  18.236   0.746
12351W        W71788   7.242  32.107  10.496
12352W        W71789   5.698  15.092   0.951
12353W        W71790  22.635  26.585  10.561
12354W        W71791  13.333  36.004  12.550
12355W        W71792  34.501   1.418  11.880
12356W        W71793  42.996   9.393  14.389
12357W        W71794  25.025  33.551   2.719
12358W        W71795  13.775  36.525   1.329
12359W        W71796  13.346   9.168  11.437
12360W        W71797  19.654  28.055  12.393
12361W        W71798   5.329  44.280   2.675
12362W        W71799  13.792  31.495  10.514
12363W        W71800  19.184  12.712   1.315
12364W        W71801  10.652  32.611   1.226
12365W        W71802  30.658   7.380  14.946
12366W        W71803  32.598  19.564   1.351
12367W        W71804  37.836  36.967  12.401
12368W        W71805  38.970  28.435   4.205
12369W        W71806   8.265  19.747  13.494
12370W        W71807  44.969  19.149   0.397
12371W        W71808  36.422  20.629   4.831
12372W        W71809  25.691   1.424   0.284
12373W        W71810  10.719   7.826   3.641
12374W        W71811  19.579  24.488   2.400
12375W        W71812  35.532  34.457   2.798
12376W        W71813  36.516  30.035  10.633
12377W        W71814  32.462  43.357   1.740
12378W        W71815   1.796  13.110  12.426
12379W        W71816  16.297  35.973  11.398
12380W        W71817  31.971   4.327  12.014
12381W        W71818  35.526  26.154   1.213
12382W        W71819  36.577  22.233   2.727
12383W        W71820   7.302  38.907   1.254
12384W        W71821  27.150  20.652   1.321
12385W        W71822  12.736   8.266  13.424
12386W        W71823  34.507  43.839   2.689
12387W        W71824   4.730  19.070   2.362
12388W        W71825   2.408   0.931  12.947
12389W        W71826  38.929  17.242  14.969
12390W        W71827  17.169   4.780   1.221
12391W        W71828  40.349  16.741  14.797
12392W        W71829   0.408   1.303   0.734
12393W        W71830   5.276  26.661  12.566
12394W        W71831  32.016  16.676  13.376
12395W        W71832   0.471  37.019  13.792
12396W        W71833  12.768  20.726   0.777
12397W        W71834  41.001   4.278  10.580
12398W        W71835  37.031  25.208   1.432
12399W        W71836  42.776   3.398  14.369
12400W        W71837   6.384   1.330  14.854
12401W        W71838  16.207   2.289  14.828
12402W        W71839  20.615  36.510  13.819
12403W        W71840  23.501  20.206   3.256
12404W        W71841  40.861  21.217   0.957
12405W        W71842  28.443  15.673  14.990
12406W        W71843  30.991  30.505   1.818
12407W        W71844  44.434  20.666  12.067
12408W        W71845  27.977   2.758  10.534
12409W        W71846  31.956  33.921  13.903
12410W        W71847   3.444  29.440   3.823
12411W        W71848  14.204  21.264  12.468
12412W        W71849  40.821  19.632   4.304
12413W        W71850  14.327  11.809  14.480
12414W        W71851   1.270  11.738  10.077
12415W        W71852  13.699  40.883   4.247
12416W        W71853  26.528   3.345  14.372
12417W        W71854  36.553  35.910  10.620
12418W        W71855  39.335  25.659  14.797
12419W        W71856  42.937  15.313  10.949
12420W        W71857  38.426  43.893  13.506
12421W        W71858  28.612  13.161   0.844
12422W        W71859   0.346  13.837   0.800
12423W        W71860  11.215   2.858  11.422
12424W        W71861  41.498   1.872   0.385
12425W        W71862  36.456   1.929  13.898
12426W        W71863   8.691  31.079   3.770
12427W        W71864  27.572   6.314  10.521
12428W        W71865  18.274  27.667  12.984
12429W        W71866  11.639  25.556   1.436
12430W        W71867  44.466  38.509   2.846
12431W        W71868   6.739  29.582   4.186
12432W        W71869  33.972  22.045  13.997
12433W        W71870  10.684  23.730  13.426
12434W        W71871  43.946  12.241   2.767
12435W        W71872  16.770  24.591  11.386
12436W        W71873  14.331   5.422   4.243
12437W        W71874   1.258  10.768  11.911
12438W        W71875  14.735  24.050   1.329
12439W        W71876  15.748   9.818   2.313
12440W        W71877  31.434  24.090  13.531
12441W        W71878  26.526  13.341   1.272
12442W        W71879  28.990  42.388  11.919
12443W        W71880  16.612  28.937  11.473
12444W        W71881  38.487  20.186  10.896
12445W        W71882  16.751   8.849   2.798
12446W        W71883  31.076  33.408  10.511
12447W        W71884  31.102  33.000   1.694
12448W        W71885  37.484  29.956   4.644
12449W        W71886  32.010  37.467   3.364
12450W        W71887  42.401  19.720   3.709
12451W        W71888  39.357  39.438  10.445
12452W        W71889  31.520  15.166   0.872
12453W        W71890  31.076  38.439  10.948
12454W        W71891   4.273  22.152  13.539
12455W        W71892  43.448  25.004  12.064
12456W        W71893   0.973   1.928  14.831
12457W        W71894  35.874  39.902   3.706
12458W        W71895  21.729  26.504  13.489
12459W        W71896  32.997  22.056   4.800
12460W        W71897   9.329   3.709  12.079
12461W        W71898  17.725  24.152  12.981
12462W        W71899  23.597  41.326   2.261
12463W        W71900  23.551   7.250  12.094
12464W        W71901  35.461   6.376  10.459
12465W        W71902  39.385  13.603  14.322
12466W        W71903  27.514  15.311  14.863
12467W        W71904   1.477  17.614  13.839
12468W        W71905  20.211  39.557  11.497
12469W        W71906  35.441  34.594   2.329
12470W        W71907  11.786  24.666   4.327
12471W        W71908   6.718  16.606   3.647
12472W        W71909  33.517  30.998  11.551
12473W        W71910  16.264  17.268  12.450
12474W        W71911  42.349  35.395   5.731
12475W        W71912  29.591   5.852   0.387
12476W        W71913  30.581   2.900   1.312
12477W        W71914   6.845   1.459  11.596
12478W        W71915  13.811  14.740  14.949
12479W        W71916  42.303  12.285   1.702
12480W        W71917  30.512  24.584   4.810
12481W        W71918  21.125  17.121   0.398
12482W        W71919  37.048  17.692  12.408
12483W        W71920  28.098  41.317   9.950
12484W        W71921  26.577  11.228   3.350
12485W        W71922  25.619  33.394  13.518
12486W        W71923  15.184  11.206  13.827
12487W        W71924  11.347  10.151  12.915
12488W        W71925  34.098  18.055  10.625
12489W        W71926  11.809  25.015  14.414
12490W        W71927  30.033  42.880  13.326
12491W        W71928  38.946  12.623   0.354
12492W        W71929  14.659  30.653   1.406
12493W        W71930  37.405  35.880   4.697
12494W        W71931  24.089  10.856   0.418
12495W        W71932   1.413  25.648  10.567
12496W        W71933  24.028  32.410  12.079
12497W        W71934  15.770  30.981   1.430
12498W        W71935  39.390   0.405   2.863
12499W        W71936   0.278   9.740  10.484
12500W        W71937  24.059  33.919  13.496
12501W        W71938  29.649  25.123   4.836
12502W        W71939  23.600   9.699  11.957
12503W        W71940   7.368  22.692   0.453
12504W        W71941  29.015  25.577  13.912
12505W        W71942   7.784  18.715   0.291
12506W        W71943  41.374  20.181  10.997
12507W        W71944  22.044   3.321  10.939
12508W        W71945  23.676  14.140   0.731
12509W        W71946  12.833  41.302  12.893
12510W        W71947  19.733  14.258   1.253
12511W        W71948  41.041   7.739   3.758
12512W        W71949  22.020  10.367   4.776
12513W        W71950  30.146  28.502   0.364
12514W        W71951  20.549  33.600   1.399
12515W        W71952  17.668  29.131   0.350
12516W        W71953  18.736   8.256   4.236
12517W        W71954  15.286  40.516   0.250
12518W        W71955  12.261  20.612  10.450
12519W        W71956  21.036  21.035  13.804
12520W        W71957  20.079  35.411   1.710
12521W        W71958  40.826   4.748   2.179
12522W        W71959   0.465  40.868  13.925
12523W        W71960   6.318  35.905  13.881
12524W        W71961  30.567  33.590   3.241
12525W        W71962  32.503   0.273  12.556
12526W        W71963  39.981  21.119  13.388
12527W        W71964  24.149  42.878   0.373
12528W        W71965   8.272  39.365   4.217
12529W        W71966  18.689  32.966   0.900
12530W        W71967  18.778   7.329  11.532
12531W        W71968  10.185  21.039   4.658
12532W        W71969  21.210  33.474   1.358
12533W        W71970  43.436  41.361   1.811
12534W        W71971  32.397  16.110  12.550
12535W        W71972  40.836  10.264   2.896
12536W        W71973   7.186   0.254   1.750
12537W        W71974  27.573  16.666  12.448
12538W        W71975   1.903  12.640   3.667
12539W        W71976   6.847  43.502   0.253
12540W        W71977  37.476  37.964  10.523
12541W        W71978   8.334  40.955   4.206
12542W        W71979  39.394  40.320  10.927
12543W        W71980   7.709   0.823   0.290
12544W        W71981  11.196  36.566   3.664
12545W        W71982  39.349  16.289   2.710
12546W        W71983  27.615  11.842  13.377
12547W        W71984  24.150  13.331   4.619
12548W        W71985  41.991  33.008  10.456
12549W        W71986   7.719  43.893  14.782
12550W        W71987   0.258  31.481   2.220
12551W        W71988  26.549  18.555   4.182
12552W        W71989  23.562  12.268   3.834
12553W        W71990   2.423  33.436   4.663
12554W        W71991  21.695  35.548  10.897
12555W        W71992   2.793   1.423  12.078
12556W        W71993   5.245  40.491  14.886
12557W        W71994  31.471   8.348  10.915
12558W        W71995   7.295  16.305  13.979
12559W        W71996  13.601  27.090  12.435
12560W        W71997  31.072  36.412  10.591
12561W        W71998  10.802  33.390   4.265
12562W        W71999  28.499  21.057  14.304
12563W        W72000  29.001  15.711   1.887
12564W        W72001   3.414  21.218  14.908
12565W        W72002  37.573  44.326  11.953
12566W        W72003  36.865  12.779   4.230
12567W        W72004   3.274  18.695  11.917
12568W        W72005  28.663  20.601  10.575
12569W        W72006  41.832  36.909  10.422
12570W        W72007  23.591  37.357  14.878
12571W        W72008  36.876  23.037  14.996
12572W        W72009  23.036  18.274  11.090
12573W        W72010  19.213  11.776   0.366
12574W        W72011   3.856  30.658  13.857
12575W        W72012  32.909   8.893   1.432
12576W        W72013  17.759  32.489   1.259
12577W        W72014  31.035  39.813  10.530
12578W        W72015  31.102   4.701   2.224
12579W        W72016  23.170  38.022   5.082
12580W        W72017  44.920  40.000   3.698
12581W        W72018  10.665  44.821  14.973
12582W        W72019  42.784   1.793   2.880
12583W        W72020   3.709  16.173   4.632
12584W        W72021   3.222   8.334  14.027
12585W        W72022  37.970  37.031  11.023
12586W        W72023   5.916   7.883  12.967
12587W        W72024  36.468  39.834   1.231
12588W        W72025  21.018  42.919  13.999
12589W        W72026  12.738  21.154   3.157
12590W        W72027   9.348  13.828  12.460
12591W        W72028  26.521  34.913  14.923
12592W        W72029  35.904  26.515  13.342
12593W        W72030  19.050   7.868  13.983
12594W        W72031  39.425  31.897  14.767
12595W        W72032  16.265  10.752   3.777
12596W        W72033  42.376  36.904  13.999
12597W        W72034  14.156   8.795   0.739
12598W        W72035  23.172   3.343  12.974
12599W        W72036  32.024  19.262   1.388
12600W        W72037  13.619  42.401   5.717
12601W        W72038   7.670  21.239   3.825
12602W        W72039  25.107  19.285  12.358
12603W        W72040  34.054  26.970   1.263
12604W        W72041  42.820  22.693   4.277
12605W        W72042   1.823  20.076   0.745
12606W        W72043   5.717  18.763   2.898
12607W        W72044  30.974  23.192   2.273
12608W        W72045  34.584  12.359  14.467
12609W        W72046  18.756  20.692   3.699
12610W        W72047   9.372   1.433   2.743
12611W        W72048  34.463  10.753  12.435
12612W        W72049  34.097  36.869  10.555
12613W        W72050   0.766  27.516   3.240
12614W        W72051  38.895  13.215   1.812
12615W        W72052  43.816  22.228  14.308
12616W        W72053   8.334  27.100  12.427
12617W        W72054  26.955   8.744  13.996
12618W        W72055   1.471  24.483  10.993
12619W        W72056  40.511   5.772   0.747
12620W        W72057  30.593  16.571   1.373
12621W        W72058  17.117  44.972   9.621
12622W        W72059  36.086   5.833  10.643
12623W        W72060  12.613  19.221  10.407
12624W        W72061  30.632  28.069  12.080
12625W        W72062  19.750  34.963   0.825
12626W        W72063  26.163   9.809  13.061
12627W        W72064  43.868   7.317   3.154
12628W        W72065  27.475   9.160  13.879
12629W        W72066  18.188  40.450   2.732
12630W        W72067  18.551  42.868  14.985
12631W        W72068  11.804  30.953   1.781
12632W        W72069  35.489   6.910  10.592
12633W        W72070  14.703  30.625   1.738
12634W        W72071  13.184  19.620  10.591
12635W        W72072   5.235  21.043   3.325
12636W        W72073  37.041   2.357  10.929
12637W        W72074  40.457  14.230   1.710
12638W        W72075  17.256   8.806   2.729
12639W        W72076  33.597  39.338  12.512
12640W        W72077  34.102   1.936   1.799
12641W        W72078   1.475  25.176  12.932
12642W        W72079  38.517  28.570  14.776
12643W        W72080  13.185   0.365  10.605
12644W        W72081  24.115  11.626   1.285
12645W        W72082  20.720   0.491   4.677
12646W        W72083   5.759  43.386   2.771
12647W        W72084  24.085  26.649  12.478
12648W        W72085   7.738  44.977   1.845
12649W        W72086   8.351  19.239   4.308
12650W        W72087  40.927   9.868  11.586
12651W        W72088  36.936  31.047  11.409
12652W        W72089  25.994  30.102  13.373
12653W        W72090  28.154  30.927   1.350
12654W        W72091   6.426   5.373  11.089
12655W        W72092  14.761   4.728  12.863
12656W        W72093   0.918  11.697  10.121
12657W        W72094  27.044   6.252   2.404
12658W        W72095  33.612   0.784  10.145
12659W        W72096  41.352  12.761   4.658
12660W        W72097  35.536  15.642   3.313
12661W        W72098  43.790  43.876   0.768
12662W        W72099  33.048   0.808   3.662
12663W        W72100  27.532  40.868   3.691
12664W        W72101  35.896  44.779   4.139
12665W        W72102  19.635   9.221   0.749
12666W        W72103  24.198  29.505  12.012
12667W        W72104  43.848  28.548   1.819
12668W        W72105  13.139  43.471   3.287
12669W        W72106  12.271  25.969   2.673
12670W        W72107  21.096   6.690  14.865
12671W        W72108  26.611  14.691   4.154
12672W        W72109  27.529  25.521   0.781
12673W        W72110  40.454  13.767  13.975
12674W        W72111  23.716  33.620   0.850
12675W        W72112  31.985  17.559  11.543
12676W        W72113  35.426  15.661  13.528
12677W        W72114   8.265   7.395   4.733
12678W        W72115  19.693  30.939   4.607
12679W        W72116  21.156  30.919  13.884
12680W        W72117   1.467  12.266  14.383
12681W        W72118  32.072   8.735  13.336
12682W        W72119  41.295  17.275  10.553
12683W        W72120  21.230  37.952   3.377
12684W        W72121   0.290   3.409  13.362
12685W        W72122  13.802  24.634  10.630
12686W        W72123  24.051   9.206   4.336
12687W        W72124  24.601   3.441   3.296
12688W        W72125   5.906  22.126   1.851
12689W        W72126   9.222  12.796  10.483
12690W        W72127  20.262  11.772  12.350
12691W        W72128   7.412   3.333   1.800
12692W        W72129   7.803  19.604  11.028
12693W        W72130   0.402   8.655   4.826
12694W        W72131  36.086  18.066   3.376
12695W        W72132   9.889  26.100   4.790
12696W        W72133  10.634  16.073  12.852
12697W        W72134  26.635  33.586   1.913
12698W        W72135  11.313   6.866   4.333
12699W        W72136   4.938   0.941   2.188
12700W        W72137   5.837  33.575  11.892
12701W        W72138   1.464   6.302  10.515
12702W        W72139  25.155   8.726  14.349
12703W        W72140  28.019  44.875   3.201
12704W        W72141  14.163   5.825  13.039
12705W        W72142  23.611   6.743   4.275
12706W        W72143  35.542  43.857  12.381
12707W        W72144  22.247  13.685  13.351
12708W        W72145  15.782   2.753  10.920
12709W        W72146   2.441  19.713   0.435
12710W        W72147  41.020  23.608   2.233
12711W        W72148  23.143  20.056   2.215
12712W        W72149  43.777  40.901   9.654
12713W        W72150  30.995  13.266   3.316
12714W        W72151  26.074  10.249  11.379
12715W        W72152   5.862   4.716  13.981
12716W        W72153  36.532  41.301  11.394
12717W        W72154  31.404  22.095  12.540
12718W        W72155  16.259  22.245  13.469
12719W        W72156   1.317  12.793  10.451
12720W        W72157  25.176  41.498  13.810
12721W        W72158  28.929   9.787   3.633
12722W        W72159  16.152  25.192   4.314
12723W        W72160  18.173   8.204   4.280
12724W        W72161  15.089  11.141   3.244
12725W        W72162   8.198  39.383  13.330
12726W        W72163  12.763  14.754   2.182
12727W        W72164  43.848  30.007  10.891
12728W        W72165  38.053   0.769   3.375
12729W        W72166  40.953  31.140  14.429
12730W        W72167  22.620  16.238  13.937
12731W        W72168   1.797  22.174   2.695
12732W        W72169  38.472   2.756   3.320
12733W        W72170  39.833   6.281  11.956
12734W        W72171  22.701  34.103   1.324
12735W        W72172  27.060  43.814  10.979
12736W        W72173  39.929   3.767  11.892
12737W        W72174  36.899  28.480   0.259
12738W        W72175   9.193  36.986   4.751
12739W        W72176   8.782  20.091  12.454
12740W        W72177  34.939  40.836   1.742
12741W        W72178  39.560  18.277   1.737
12742W        W72179  41.428  29.150   1.334
12743W        W72180   9.890   3.858  11.572
12744W        W72181  29.528   3.380   3.200
12745W        W72182  24.097  31.054   1.805
12746W        W72183  40.946   0.383  12.430
12747W        W72184  18.166  36.998  11.945
12748W        W72185  43.872  23.715  10.581
12749W        W72186  11.273  42.424  11.440
12750W        W72187   4.888  10.380   0.776
12751W        W72188  44.901  43.956  10.487
12752W        W72189   5.306  15.789  13.056
12753W        W72190  36.591  25.155  14.417
12754W        W72191   6.229   1.350   3.781
12755W        W72192  32.608  11.650   2.793
12756W        W72193  40.544  22.539   2.668
12757W        W72194   8.872  21.710  11.920
12758W        W72195  11.253  29.496   0.447
12759W        W72196  10.325  10.266  11.464
12760W        W72197  37.990   4.854  14.970
12761W        W72198  36.574  38.557   4.685
12762W        W72199  20.589  42.458   9.616
12763W        W72200  38.010  37.960   2.875
12764W        W72201  20.574  14.146  11.471
12765W        W72202  16.154  42.366  13.028
12766W        W72203   3.716  31.104   4.261
12767W        W72204  34.396  32.608  14.005
12768W        W72205  20.542   5.202  13.387
12769W        W72206  23.105  38.488   5.608
12770W        W72207  42.450   8.187  14.976
12771W        W72208  13.306  36.087   2.321
12772W        W72209  15.741  37.523   3.274
12773W        W72210  27.133  38.854  13.044
12774W        W72211  32.604  30.002   4.303
12775W        W72212   7.385   1.384  11.059
12776W        W72213  21.174  13.736  11.961
12777W        W72214   9.722   0.370   2.365
12778W        W72215  18.782  16.133   1.358
12779W        W72216   4.244  42.341  10.449
12780W        W72217   3.242  44.913   3.801
12781W        W72218   8.883  43.390   4.195
12782W        W72219  33.939  34.004  10.930
12783W        W72220  37.905  35.493   4.706
12784W        W72221  13.202  37.010   2.820
12785W        W72222  26.971  16.803  10.415
12786W        W72223  18.106  15.659   0.328
12787W        W72224  21.674  26.517  12.562
12788W        W72225  18.693   5.225   3.857
12789W        W72226  40.902   3.842   4.645
12790W        W72227  35.062  24.686   0.258
12791W        W72228  17.201   2.255   2.211
12792W        W72229  24.626  20.090  11.999
12793W        W72230   5.264   5.286   4.196
12794W        W72231  14.233  32.582  12.370
12795W        W72232  22.198  35.012  14.326
12796W        W72233  24.072   0.467   0.937
12797W        W72234  32.890  39.985  13.346
12798W        W72235  37.987  26.666   3.830
12799W        W72236  41.970  33.106   1.266
12800W        W72237  29.095   1.459  11.011
12801W        W72238  35.988  14.119  11.583
12802W        W72239  14.668  19.216  11.884
12803W        W72240   8.344  35.567  11.937
12804W        W72241  17.104   5.725  14.379
12805W        W72242   1.448  23.211  10.937
12806W        W72243  26.620  17.756  14.931
12807W        W72244  32.034  12.133   2.408
12808W        W72245  23.093   5.771   0.777
12809W        W72246  11.678  17.238  12.097
12810W        W72247  20.526  10.645  13.872
12811W        W72248   5.792  36.401   0.346
12812W        W72249  23.605   1.279   0.408
12813W        W72250  15.723  40.442   3.160
12814W        W72251  12.261  33.055  13.373
12815W        W72252  27.099  36.094  14.284
12816W        W72253  12.836  44.957  11.034
12817W        W72254   3.419  41.813   4.277
12818W        W72255  42.375  23.618  14.329
12819W        W72256  24.176  17.736  11.065
12820W        W72257  43.382  44.817   2.403
12821W        W72258  11.632   9.721   4.809
12822W        W72259   3.749  35.594  11.036
12823W        W72260  41.298   3.743   4.115
12824W        W72261  31.010  13.820   3.170
12825W        W72262  26.981   1.298  10.581
12826W        W72263  44.267  29.621   3.361
12827W        W72264  24.555  19.640  13.509
12828W        W72265  16.667  21.077   1.443
12829W        W72266  23.529  15.154   0.774
12830W        W72267  35.999   7.243  12.986
12831W        W72268  29.107  19.535  12.828
12832W        W72269  25.508   6.824  10.455
12833W        W72270  41.337  42.485   2.883
12834W        W72271  36.972  23.714  12.579
12835W        W72272  40.032  40.052   1.266
12836W        W72273   4.238  16.218   0.845
12837W        W72274  41.518  33.613  12.502
12838W        W72275  42.023  38.851  14.449
12839W        W72276  21.076  36.048   4.293
12840W        W72277  43.918  42.363   1.859
12841W        W72278   9.234  33.564  14.946
12842W        W72279  22.203   5.377   1.324
12843W        W72280  19.548  12.770   1.370
12844W        W72281  38.969  30.514   1.341
12845W        W72282   5.798  38.347  11.111
12846W        W72283  15.780  20.596  10.097
12847W        W72284   3.376  44.985   4.813
12848W        W72285   6.403  41.932  13.009
12849W        W72286  40.468  41.914  13.531
12850W        W72287  41.420  36.406  10.051
12851W        W72288  27.637   4.274   3.308
12852W        W72289  18.786  13.656   4.300
12853W        W72290  31.094   8.263   3.318
12854W        W72291   2.257   7.757  11.108
12855W        W72292   1.242  34.491  14.490
12856W        W72293  35.887   3.749  14.349
12857W        W72294  31.635  18.561   4.823
12858W        W72295  21.119  11.179   0.786
12859W        W72296  12.361  14.112  14.475
12860W        W72297  34.924  24.144  14.916
12861W        W72298  41.368  37.347  13.438
12862W        W72299   5.255  41.930  11.373
12863W        W72300  31.991   0.971   0.437
12864W        W72301  27.691  29.946  13.446
12865W        W72302  41.860  10.825   4.224
12866W        W72303  43.857  18.207  10.574
12867W        W72304  34.986  38.827   1.720
12868W        W72305  31.966  38.486  13.461
12869W        W72306  42.485   2.422   0.766
12870W        W72307   3.449  36.988   4.151
12871W        W72308  11.814   8.844  13.844
12872W        W72309  40.382  27.065   2.857
12873W        W72310  43.836  15.106   2.711
12874W        W72311  19.219   7.299  10.889
12875W        W72312  28.504  15.260  13.027
12876W        W72313  10.798  29.089   1.699
12877W        W72314  22.169   2.875  14.314
12878W        W72315  38.490  43.468   3.840
12879W        W72316   4.728  32.972   4.624
12880W        W72317  21.581  39.818  10.027
12881W        W72318  40.455   6.850   3.210
12882W        W72319  14.638  30.077   1.354
12883W        W72320  29.494  35.359  11.874
12884W        W72321  34.562   8.310  11.939
12885W        W72322  26.521  12.319  12.909
12886W        W72323  36.487  10.266   0.251
12887W        W72324  24.175  13.784   1.894
12888W        W72325  26.573  22.638   0.945
12889W        W72326  23.688  29.055   0.407
12890W        W72327  42.897  28.633   3.356
12891W        W72328   9.870  41.902  11.508
12892W        W72329  30.057  10.722  11.038
12893W        W72330   6.759   1.284   4.800
12894W        W72331  30.416  41.478   0.459
12895W        W72332   7.312  29.087  10.932
12896W        W72333  37.388  10.876  12.452
12897W        W72334   0.847   7.296   0.921
12898W        W72335  33.464  40.446  12.842
12899W        W72336  28.613  19.722  14.762
12900W        W72337  36.052  30.986   3.303
12901W        W72338   7.280  26.961   1.738
12902W        W72339  12.769  37.873  14.446
12903W        W72340  27.181  25.695  14.849
12904W        W72341  33.015  12.361   2.742
12905W        W72342   7.729   5.745   1.275
12906W        W72343  34.066  24.153   5.242
12907W        W72344  44.295  20.086   0.915
12908W        W72345  44.758  25.190  12.496
12909W        W72346  32.971  35.909  12.873
12910W        W72347  20.633  40.808  13.350
12911W        W72348  40.448  21.057  12.906
12912W        W72349  19.626  36.067   4.213
12913W        W72350   3.455  13.347  13.906
12914W        W72351  35.969  13.613  13.004
12915W        W72352   2.284  15.684   3.846
12916W        W72353  39.547  13.635   2.764
12917W        W72354  22.590   7.901   2.800
12918W        W72355  38.544  14.185  11.015
12919W        W72356   1.379  28.455  10.962
12920W        W72357  39.396  22.216  11.885
12921W        W72358  17.153  20.567   1.211
12922W        W72359  23.127  20.036   2.870
12923W        W72360   2.881  19.669   4.807
12924W        W72361   3.816  23.680   1.390
12925W        W72362  24.564   6.680  11.054
12926W        W72363  33.901  44.338   9.942
12927W        W72364  10.744  12.761   4.748
12928W        W72365  28.147  30.932  12.512
12929W        W72366  36.389  41.495  12.059
12930W        W72367  12.190  16.674   3.698
12931W        W72368  39.531  12.704  12.554
12932W        W72369   5.844  10.239   2.829
12933W        W72370  20.168  14.248  11.034
12934W        W72371  23.104   3.810  13.951
12935W        W72372   6.887  21.173   2.223
12936W        W72373  25.077  12.733  12.919
12937W        W72374  37.055  37.942   1.698
12938W        W72375  27.659  39.502   2.353
12939W        W72376  29.086  30.488  12.853
12940W        W72377  13.312  26.031   4.188
12941W        W72378   3.237  38.028  13.529
12942W        W72379   1.873  25.559   1.793
12943W        W72380   3.865  27.967  13.812
12944W        W72381  31.951   2.250  13.540
12945W        W72382  42.416  36.593  13.479
12946W        W72383  20.688  36.038   3.711
12947W        W72384   6.238  24.987  12.554
12948W        W72385  44.356   2.842  12.829
12949W        W72386  37.497   9.200   5.305
12950W        W72387   6.362  12.327   4.276
12951W        W72388  35.402  29.171  14.487
12952W        W72389  29.457   0.274   0.771
12953W        W72390  33.009  37.924  13.875
12954W        W72391   3.357   0.406   0.278
12955W        W72392   7.802  35.992  14.796
12956W        W72393  12.294  37.001  14.388
12957W        W72394   7.802  38.011  12.351
12958W        W72395  16.568   0.378   1.328
12959W        W72396   5.724  13.217  13.919
12960W        W72397  37.480  39.536  13.397
12961W        W72398  19.242  39.005   3.839
12962W        W72399  11.290  33.578  14.898
12963W        W72400   6.207  34.553   3.867
12964W        W72401  30.142   6.818   2.308
12965W        W72402  14.650  42.031   4.748
12966W        W72403   6.682  27.048   2.871
12967W        W72404  25.560  13.709   2.317
12968W        W72405  25.620  13.804  10.636
12969W        W72406   2.836  15.171   2.203
12970W        W72407  15.217  41.322   3.257
12971W        W72408  42.872   1.802  12.570
12972W        W72409   3.262  39.852   3.253
12973W        W72410  19.195  25.023   2.347
12974W        W72411  21.206   7.282   2.243
12975W        W72412  12.272  26.552   0.251
12976W        W72413  10.808  21.115  10.491
12977W        W72414  44.376   4.793   2.275
12978W        W72415  41.465   2.370   2.285
12979W        W72416  25.080  14.643  13.934
12980W        W72417  28.934  40.008   2.312
12981W        W72418  11.284  20.243   4.615
12982W        W72419  28.980  20.067  14.029
12983W        W72420  28.532  35.029  12.969
12984W        W72421  38.399  29.119  12.420
12985W        W72422  44.984  37.951  12.403
12986W        W72423  40.452   6.774  12.933
12987W        W72424  41.423  21.678   0.479
12988W        W72425  39.322  29.992  13.983
12989W        W72426  44.987  32.139  14.494
12990W        W72427  29.083  36.897   4.253
12991W        W72428  43.473   4.215  13.432
12992W        W72429  42.386  29.524  12.483
12993W        W72430  42.327  39.977  11.873
12994W        W72431  44.417   3.418   9.989
12995W        W72432  21.576  36.422   0.271
12996W        W72433  35.980  31.632   2.217
12997W        W72434  35.092  28.037   4.292
12998W        W72435  44.006  19.128  11.515
12999W        W72436  28.952   0.745  14.768
13000W        W72437  19.682  35.554  11.493
13001W        W72438   3.403  42.452  11.374
13002W        W72439  18.544   4.718   3.198
13003W        W72440   4.406  31.527   1.903
13004W        W72441  29.630  39.986   4.679
13005W        W72442   3.896  17.686  13.470
13006W        W72443  32.009   4.412  10.493
13007W        W72444   4.401  11.272   1.364
13008W        W72445  11.780  34.105  13.034
13009W        W72446  44.277  10.876   0.248
13010W        W72447  21.574  38.440   2.760
13011W        W72448  12.850  20.605   1.308
13012W        W72449  35.965  39.435  14.883
13013W        W72450  12.835  14.728  13.463
13014W        W72451  12.807  34.378  12.561
13015W        W72452  27.689  10.679  11.998
13016W        W72453  21.625   2.870  14.309
13017W        W72454   9.270  38.077   3.378
13018W        W72455   4.258  31.104  13.002
13019W        W72456  25.574   5.839  13.029
13020W        W72457   3.235  11.636   4.725
13021W        W72458  30.960  14.649   1.848
13022W        W72459  38.020  12.133   0.417
13023W        W72460  18.554  37.514  13.909
13024W        W72461   6.711   3.370   2.699
13025W        W72462  18.767   2.806   4.204
13026W        W72463  42.958  10.758  11.439
13027W        W72464   3.773  21.528   0.329
13028W        W72465   7.409  44.393  12.389
13029W        W72466  20.557   1.282  13.428
13030W        W72467  42.961  25.649   3.290
13031W        W72468  19.092  18.068  11.958
13032W        W72469   5.734  10.328  14.986
13033W        W72470  37.968  30.621   2.221
13034W        W72471  43.347  22.231   3.748
13035W        W72472  41.439  22.551   0.925
13036W        W72473   5.863  36.520   3.711
13037W        W72474  25.134  31.424   1.716
13038W        W72475  24.196  17.565   4.615
13039W        W72476  39.453   6.304  13.938
13040W        W72477  23.056  24.499   1.404
13041W        W72478  25.707  30.658  11.993
13042W        W72479   8.743  17.294   0.789
13043W        W72480  35.015  27.475  10.592
13044W        W72481  31.523  39.820  13.341
13045W        W72482  20.569  34.523  14.786
13046W        W72483  25.561  20.087  13.514
13047W        W72484  22.724  39.968  10.505
13048W        W72485  19.052  12.707   2.736
13049W        W72486  11.171  18.546  12.962
13050W        W72487  25.050   5.251   0.297
13051W        W72488  43.369  31.415  11.436
13052W        W72489  21.631  43.344   1.710
13053W        W72490  42.908  34.991   0.297
13054W        W72491  10.802   8.374  14.823
13055W        W72492  24.223  44.462  12.078
13056W        W72493  43.291  10.191   0.356
13057W        W72494  21.639  36.072  13.325
13058W        W72495  30.164  21.090   2.663
13059W        W72496  26.026   3.812  14.844
13060W        W72497  13.607  20.176   3.184
13061W        W72498   5.735  23.625  11.895
13062W        W72499   8.870  44.265  13.458
13063W        W72500  19.226  39.977   9.543
13064W        W72501  40.974  12.156  11.050
13065W        W72502   7.382   1.334  12.422
13066W        W72503  17.558  11.742   4.206
13067W        W72504  25.552  31.992   3.182
13068W        W72505  43.924  35.046  12.923
13069W        W72506  28.067   6.822   2.287
13070W        W72507  38.342  24.999   2.825
13071W        W72508  33.946  42.007   0.263
13072W        W72509   6.355   5.928  11.888
13073W        W72510  38.070  37.445  13.834
13074W        W72511  23.053  11.729  12.360
13075W        W72512  40.489  29.084   4.299
13076W        W72513  17.720   6.773   0.773
13077W        W72514  10.152  19.053   2.332
13078W        W72515  30.548  43.021   2.291
13079W        W72516  32.630  40.310   9.972
13080W        W72517  36.386  31.094  11.529
13081W        W72518  43.810  39.945  10.922
13082W        W72519  34.928   3.386  13.863
13083W        W72520  14.204  41.379  12.917
13084W        W72521  43.422  29.128  14.296
13085W        W72522  20.233   5.915   1.899
13086W        W72523   2.295  35.061   3.315
13087W        W72524  11.250  18.071  10.920
13088W        W72525  33.923  15.809  11.907
13089W        W72526  17.247   7.722   0.319
13090W        W72527  25.063  31.453   0.766
13091W        W72528   2.333   7.314   0.857
13092W        W72529  16.172  21.036  12.873
13093W        W72530  11.313   2.937   4.660
13094W        W72531   6.204   8.395  12.058
13095W        W72532  23.183  24.063   3.694
13096W        W72533   4.836   1.380   0.244
13097W        W72534  12.723  38.352  10.487
13098W        W72535  29.608  34.406  13.436
13099W        W72536  14.653  40.851   4.780
13100W        W72537  12.724  21.081  12.081
13101W        W72538  12.734  26.634  14.877
13102W        W72539  30.591  33.979  11.060
13103W        W72540  24.218  10.308  11.407
13104W        W72541  17.690   6.286  14.426
13105W        W72542  32.533   5.849   2.886
13106W        W72543  14.698  25.672   4.597
13107W        W72544  22.074  17.595  12.447
13108W        W72545  23.193  14.206  13.456
13109W        W72546  20.636  29.929   1.274
13110W        W72547  40.495  11.222  12.457
13111W        W72548  28.552  13.318   1.735
13112W        W72549   0.814  37.844  14.969
13113W        W72550  29.589  23.698   0.363
13114W        W72551  17.669  23.612   1.237
13115W        W72552  10.850  24.989   2.322
13116W        W72553  32.550  31.951  13.919
13117W        W72554   9.162  16.160   0.446
13118W        W72555  17.283   9.721  12.516
13119W        W72556  20.131   9.308  11.508
13120W        W72557  25.470  40.379   1.312
13121W        W72558  27.683  35.078   0.935
13122W        W72559  12.642  41.945  13.445
13123W        W72560   5.384  28.169   5.315
13124W        W72561  16.739   3.404  11.094
13125W        W72562   9.394   0.311  12.504
13126W        W72563  44.313   7.862   5.297
13127W        W72564  41.315  32.413  11.003
13128W        W72565  44.866  26.631   4.801
13129W        W72566   7.387  27.604  11.452
13130W        W72567  25.487  45.000   0.366
13131W        W72568  39.013  34.565   1.359
13132W        W72569  22.016   3.773  12.511
13133W        W72570  30.983  15.660   1.925
13134W        W72571  41.386  43.325   1.882
13135W        W72572  33.449  30.649  12.570
13136W        W72573  25.511  28.065  13.992
13137W        W72574  37.855  26.046  13.902
13138W        W72575  36.091  33.388  10.418
13139W        W72576  44.979   1.776  14.999
13140W        W72577   4.894  22.516  10.992
13141W        W72578  32.041  23.520   2.287
13142W        W72579  25.147   8.842  13.938
13143W        W72580   1.737  21.695  13.812
13144W        W72581  28.532  36.862  12.379
13145W        W72582  23.504  43.974  12.463
13146W        W72583  22.210   7.279   3.361
13147W        W72584  32.582  40.005   1.401
13148W        W72585  31.963  10.832   2.843
13149W        W72586  32.603   8.732  14.399
13150W        W72587  38.552  13.295   1.348
13151W        W72588  21.063   5.334   3.676
13152W        W72589  10.162  16.141  11.579
13153W        W72590  13.324  13.709  14.438
13154W        W72591   6.789  34.555   3.633
13155W        W72592  37.891  25.075   2.359
13156W        W72593  18.625  36.088   3.692
13157W        W72594   2.311   6.195  13.816
13158W        W72595  16.165   0.306   3.353
13159W        W72596   6.856  23.101  11.548
13160W        W72597  30.142  17.092   2.282
13161W        W72598  21.179  31.635   4.308
13162W        W72599  16.168  35.869   1.833
13163W        W72600  27.494  29.927   0.246
13164W        W72601  20.722  11.243   0.482
13165W        W72602  37.343  24.207  13.847
13166W        W72603  38.341  27.997   0.387
13167W        W72604  42.998  26.013  13.810
13168W        W72605  11.740  30.969   0.870
13169W        W72606  10.644  43.986  14.377
13170W        W72607   3.331  24.717  12.083
13171W        W72608  14.220  35.107   4.609
13172W        W72609  35.406  38.448   1.779
13173W        W72610  38.544  35.029  10.540
13174W        W72611  36.053  43.354   2.239
13175W        W72612  18.554  13.664   1.371
13176W        W72613  27.007   3.363   5.321
13177W        W72614  20.767  17.671   1.840
13178W        W72615  19.076   6.258  13.034
13179W        W72616  28.990   6.729  12.573
13180W        W72617   4.363  37.871   0.842
13181W        W72618  35.874  34.031  14.399
13182W        W72619  42.815   0.255  10.539
13183W        W72620  23.669   5.783   2.700
13184W        W72621  40.979   8.895  13.893
13185W        W72622  27.517   3.385   0.480
13186W        W72623  12.619  13.195   0.446
13187W        W72624  21.186  19.662  12.508
13188W        W72625  38.984  40.026   1.935
13189W        W72626  27.476  21.660   3.763
13190W        W72627   4.787   3.232  13.037
13191W        W72628  39.506   4.892   1.845
13192W        W72629  20.165  35.574   1.296
13193W        W72630  16.251  11.752  14.372
13194W        W72631  35.576  37.956  14.380
13195W        W72632  30.116  24.197   1.410
13196W        W72633  44.473  22.643   2.326
13197W        W72634  29.484  20.666   4.781
13198W        W72635  38.032  13.710  12.440
13199W        W72636  33.530   6.807  14.406
13200W        W72637  40.442  29.016  11.381
13201W        W72638  10.271   7.349   3.289
13202W        W72639  11.353  40.040  12.057
13203W        W72640  10.724  36.050  14.852
13204W        W72641   5.767   1.278   3.262
13205W        W72642  34.396  12.139   2.699
13206W        W72643  21.111   9.290   4.660
13207W        W72644  12.182  12.831   2.374
13208W        W72645  41.407  32.413   2.694
13209W        W72646  31.416  40.810  13.491
13210W        W72647  37.881  28.034  13.349
13211W        W72648   1.912   3.231   3.735
13212W        W72649  39.350  22.174   1.867
13213W        W72650  25.591   8.704  12.466
13214W        W72651  31.573  11.688   0.783
13215W        W72652  20.661  35.077   4.153
13216W        W72653  18.115  43.984  14.452
13217W        W72654  33.017  22.711  10.532
13218W        W72655  31.499  18.722  13.806
13219W        W72656  28.968  10.655   4.794
13220W        W72657  25.127  16.196  13.547
13221W        W72658  26.987  22.681  13.509
13222W        W72659  22.165  32.115  13.366
13223W        W72660  11.368  31.031   3.247
13224W        W72661  17.559  39.339  13.410
13225W        W72662  30.075   7.226   2.741
13226W        W72663  26.064  21.094   3.208
13227W        W72664  28.145   7.852  12.526
13228W        W72665  14.224  24.624  14.515
13229W        W72666   2.758   0.272  14.014
13230W        W72667   2.247  39.960  13.431
13231W        W72668   7.326  23.183   1.296
13232W        W72669  34.472  33.889   1.405
13233W        W72670  34.017  31.616   3.747
13234W        W72671  23.703  27.114  12.082
13235W        W72672  18.775  34.502  14.780
13236W        W72673  11.295  35.936   1.868
13237W        W72674   0.359  17.259  14.328
13238W        W72675  25.658   9.696  13.878
13239W        W72676  32.020   7.899   1.707
13240W        W72677  24.061   9.263  14.841
13241W        W72678  40.027   4.788   0.399
13242W        W72679  42.952  39.973  14.504
13243W        W72680   7.209   1.936   2.709
13244W        W72681  14.338  42.986  13.315
13245W        W72682  12.815  17.263  10.488
13246W        W72683  20.632  33.562   3.195
13247W        W72684  41.791  37.965  14.360
13248W        W72685  41.483   1.901  10.434
13249W        W72686   7.321  13.149   2.246
13250W        W72687  22.022   8.247  12.473
13251W        W72688  26.477   7.754  10.951
13252W        W72689   9.699  22.082   3.298
13253W        W72690  36.946  31.431  11.380
13254W        W72691   4.845  10.177   2.375
13255W        W72692  38.467  11.297  14.867
13256W        W72693  24.530  34.595  11.003
13257W        W72694  23.040  40.545  14.987
13258W        W72695  34.004   5.821  14.918
13259W        W72696   4.407   1.959   4.679
13260W        W72697  12.766  40.948  11.589
13261W        W72698  20.148  11.736  10.446
13262W        W72699  28.133  26.641   0.786
13263W        W72700   8.283  32.015   0.320
13264W        W72701  37.017  26.123  14.446
13265W        W72702  33.600  12.312  13.894
13266W        W72703  42.291  43.421  12.009
13267W        W72704  16.227   6.813   1.357
13268W        W72705  19.541  34.378   4.191
13269W        W72706  28.676  18.728  12.905
13270W        W72707  11.826   7.760  14.879
13271W        W72708  18.722   1.767  10.036
13272W        W72709  27.450  19.052  14.433
13273W        W72710   2.313  11.641  14.443
13274W        W72711  39.403  12.173   2.763
13275W        W72712   2.888  16.638  14.488
13276W        W72713  24.497  40.397   0.417
13277W        W72714  18.162  14.102   1.920
13278W        W72715  34.510  14.604   2.778
13279W        W72716  15.169  35.501   2.762
13280W        W72717  24.675  39.353   0.834
13281W        W72718  33.394   5.429   4.278
13282W        W72719  23.109   9.863  14.919
13283W        W72720  43.794  29.169   0.918
13284W        W72721  15.324  41.880  13.486
13285W        W72722  26.064   7.392  12.982
13286W        W72723  36.371   4.373   2.739
13287W        W72724  40.989  32.453   4.304
13288W        W72725  14.640  23.097   4.270
13289W        W72726  39.860  32.625   3.866
13290W        W72727  21.159  44.462  13.845
13291W        W72728  26.481  37.382  14.291
13292W        W72729   6.743  18.240  11.384
13293W        W72730   9.643  10.724  14.020
13294W        W72731  23.236  16.082   3.324
13295W        W72732  13.613  43.990   3.256
13296W        W72733  44.769   3.338  10.479
13297W        W72734  33.608  18.642   3.678
13298W        W72735  26.043  15.206   0.865
13299W        W72736  29.014   7.233   4.224
13300W        W72737   5.806  31.045   0.389
13301W        W72738  16.674  35.989  10.987
13302W        W72739  44.504  33.889   3.803
13303W        W72740  10.335   0.819  12.921
13304W        W72741  41.490  43.827   0.916
13305W        W72742  31.903  14.753  13.841
13306W        W72743  18.260  29.045   1.368
13307W        W72744  21.071  14.742   2.392
13308W        W72745  18.590  36.891  13.881
13309W        W72746  35.855  16.156   1.266
13310W        W72747   4.407  39.916  14.902
13311W        W72748  15.614  10.261   1.810
13312W        W72749  29.665  34.540  10.037
13313W        W72750  34.934   1.963   0.387
13314W        W72751  10.176  22.116  12.445
13315W        W72752  11.222  20.538  13.440
13316W        W72753  20.218  34.561   2.793
13317W        W72754  26.050  42.960  14.441
13318W        W72755  43.851  25.696   0.360
13319W        W72756  12.684   7.723   4.818
13320W        W72757  31.523  42.810  10.453
13321W        W72758  14.746  36.948   3.207
13322W        W72759  18.710  14.644  13.406
13323W        W72760  26.666   8.216  10.922
13324W        W72761  28.006   3.217   9.954
13325W        W72762  38.850   3.432   0.365
13326W        W72763  31.970  22.042  10.594
13327W        W72764   9.823  20.696   4.622
13328W        W72765  39.876  23.614  10.530
13329W        W72766  18.094  11.804  11.542
13330W        W72767   1.245   1.415  12.441
13331W        W72768  30.960  39.349  12.826
13332W        W72769  17.775  22.998  11.012
13333W        W72770  41.518  27.640  10.971
13334W        W72771  39.900  42.945   3.280
13335W        W72772  42.457  17.661   1.225
13336W        W72773  12.315  23.996   2.844
13337W        W72774   1.421  36.527  13.910
13338W        W72775  13.648  37.075   3.374
13339W        W72776  19.631  20.622   0.345
13340W        W72777  23.241  11.774   0.402
13341W        W72778   7.674   7.288   0.802
13342W        W72779  23.732  38.070  13.907
13343W        W72780  41.340   4.919  13.850
13344W        W72781  25.073   1.928  13.059
13345W        W72782   6.356  41.424  14.354
13346W        W72783  15.177  10.658  11.582
13347W        W72784  14.260  18.092  13.535
13348W        W72785  28.637  26.545  12.488
13349W        W72786  27.189   0.410   4.241
13350W        W72787   2.419  14.611   0.921
13351W        W72788  26.968  25.051   1.336
13352W        W72789  33.081  11.204   3.696
13353W        W72790  32.914  19.716   3.310
13354W        W72791   4.438  17.227  10.583
13355W        W72792  11.629  35.858  14.409
13356W        W72793  17.665   4.857   0.929
13357W        W72794   1.311  34.990  10.545
13358W        W72795  33.998  27.117  14.967
13359W        W72796  32.044  14.333  13.794
13360W        W72797   3.760  38.519   4.773
13361W        W72798  31.417  31.076   2.215
13362W        W72799  25.564  25.622  12.912
13363W        W72800  19.158   8.313  10.584
13364W        W72801  11.682  31.504   3.237
13365W        W72802   2.237  10.702   2.781
13366W        W72803   3.218  36.415   4.712
13367W        W72804  23.067  15.090   2.209
13368W        W72805   0.318  33.129  11.043
13369W        W72806  11.816   2.835   3.713
13370W        W72807  40.932   3.347   1.262
13371W        W72808   8.319   7.880  12.894
13372W        W72809   0.806  35.523  10.928
13373W        W72810  12.618  14.590  12.939
13374W        W72811  15.285  12.853   1.349
13375W        W72812  22.016  29.992   4.202
13376W        W72813  30.912   5.242  12.873
13377W        W72814  16.763   0.447  13.345
13378W        W72815  31.955   8.660  11.464
13379W        W72816  23.056   8.363   2.892
13380W        W72817  20.701   7.848  12.877
13381W        W72818  27.999  42.930  11.077
13382W        W72819  36.499  43.855  10.553
13383W        W72820  33.129  20.686  14.823
13384W        W72821  37.017   4.813  12.991
13385W        W72822  29.019   9.651  12.408
13386W        W72823  24.975  38.073  14.959
13387W        W72824  34.085  13.614  10.603
13388W        W72825  28.438  44.267   4.662
13389W        W72826   3.365   0.753  13.866
13390W        W72827  31.097  31.477   2.403
13391W        W72828   8.821  31.633  11.899
13392W        W72829  10.219  20.230   2.756
13393W        W72830  38.882  30.007   2.305
13394W        W72831   8.262  33.069  12.087
13395W        W72832  22.220  33.527   3.337
13396W        W72833   2.281  21.751   0.432
13397W        W72834  39.942   8.348   3.861
13398W        W72835  32.060  20.579   4.710
13399W        W72836  26.958  17.124   2.390
13400W        W72837  22.015  31.568   2.831
13401W        W72838   3.790  16.155   2.186
13402W        W72839  30.414  25.103  12.402
13403W        W72840  41.965   8.234   3.194
13404W        W72841  37.436  13.809   3.699
13405W        W72842   5.279   3.232  11.113
13406W        W72843  44.001   2.961  14.032
13407W        W72844  28.951  28.676   1.848
13408W        W72845   8.304  23.984   0.415
13409W        W72846  21.179  12.726  14.954
13410W        W72847  10.237  39.347  10.638
13411W        W72848  38.470  12.717  14.483
13412W        W72849  16.713  43.431  10.419
13413W        W72850  16.704  36.422   3.349
13414W        W72851  33.890   6.866   2.372
13415W        W72852  33.383  42.395   3.266
13416W        W72853  16.226  43.311   3.804
13417W        W72854  26.017  24.540  10.631
13418W        W72855  26.597  22.252  12.353
13419W        W72856  23.126  36.878   1.444
13420W        W72857  36.013  15.772   4.646
13421W        W72858  31.109  39.449   3.703
13422W        W72859  22.506  41.347   1.809
13423W        W72860  34.899   1.972   2.883
13424W        W72861  12.165  10.815  12.458
13425W        W72862  15.663  35.387   1.711
13426W        W72863  10.337  17.772   0.963
13427W        W72864  12.798  23.137  11.455
13428W        W72865   6.283  40.880   0.423
13429W        W72866  24.602  31.550  12.399
13430W        W72867   7.288  18.266  14.830
13431W        W72868  38.009  27.635  14.495
13432W        W72869  39.317   9.224  11.905
13433W        W72870  20.734  35.602   4.789
13434W        W72871  38.055  25.194  14.347
13435W        W72872  15.197  26.629   0.943
13436W        W72873  24.207  42.867  12.002
13437W        W72874  42.414  30.922  10.935
13438W        W72875  41.354  39.432  14.345
13439W        W72876  38.378  34.540  10.605
13440W        W72877  27.657  13.233  12.019
13441W        W72878  11.207   8.680  14.928
13442W        W72879  24.097  22.625   2.181
13443W        W72880  43.482  14.240   4.738
13444W        W72881  19.701   9.674   0.483
13445W        W72882  35.589  11.217  14.801
13446W        W72883   7.705   6.771  13.442
13447W        W72884  37.006  36.374   0.841
13448W        W72885  15.805  38.500   0.341
13449W        W72886  17.105   6.381  10.485
13450W        W72887  18.287  20.600  14.472
13451W        W72888   4.329  34.868  12.388
13452W        W72889   0.318  28.132  14.803
13453W        W72890   1.271   5.704  10.984
13454W        W72891  26.192  34.117  14.378
13455W        W72892  16.270  35.890  14.760
13456W        W72893  24.026  35.523  12.566
13457W        W72894  17.207  13.244  12.825
13458W        W72895   7.732  39.862   2.778
13459W        W72896  35.883  24.142  13.895
13460W        W72897  38.908  14.789   1.904
13461W        W72898  40.443  25.075   3.658
13462W        W72899  41.503  20.526   4.619
13463W        W72900  22.557  20.067  14.426
13464W        W72901  39.425  38.548   3.297
13465W        W72902  42.349  14.645   0.261
13466W        W72903  33.085  27.467  12.370
13467W        W72904  10.171  36.373   4.837
13468W        W72905  38.444  23.158   3.667
13469W        W72906  38.009  34.913  13.444
13470W        W72907  24.148  30.968   3.348
13471W        W72908  31.585  22.738   0.766
13472W        W72909   3.863  17.664   2.852
13473W        W72910   3.737   4.417  14.927
13474W        W72911  30.067  42.402   1.899
13475W        W72912  16.785   5.302   0.316
13476W        W72913  27.650  19.049   3.245
13477W        W72914   2.947  14.808   4.266
13478W        W72915  42.795  18.236   0.399
13479W        W72916  11.161  44.306   0.461
13480W        W72917  23.676  17.164  13.387
13481W        W72918   3.250  30.612  11.485
13482W        W72919  10.254  16.799  12.083
13483W        W72920   2.271  38.359   3.841
13484W        W72921  26.489  32.589   0.954
13485W        W72922  27.096  15.265  12.359
13486W        W72923  29.637  40.441   2.204
13487W        W72924  11.691  14.175  12.550
13488W        W72925  35.026  10.341  14.796
13489W        W72926  16.202  15.674  11.564
13490W        W72927  44.413   8.819   0.429
13491W        W72928   0.939   6.401   5.226
13492W        W72929  32.427  35.483  14.336
13493W        W72930  33.486   4.243   2.889
13494W        W72931   1.949  10.304  14.761
13495W        W72932  18.551  39.324  11.547
13496W        W72933  14.224  10.769   1.413
13497W        W72934  27.146  23.583  10.940
13498W        W72935  16.249  17.296   0.811
13499W        W72936   0.487   8.877   3.318
13500W        W72937  18.067  11.289  14.400
13501W        W72938  29.449  16.771   0.869
13502W        W72939  36.472  37.055  13.364
13503W        W72940   5.359  13.629   4.152
13504W        W72941  29.049  22.235  14.450
13505W        W72942  22.105  38.536   0.387
13506W        W72943   2.763  20.103   0.749
13507W        W72944  28.127   2.249  12.959
13508W        W72945  43.879  18.227  10.940
13509W        W72946   4.385  20.216   3.235
13510W        W72947  35.067  14.636  14.481
13511W        W72948  29.645  16.258  12.537
13512W        W72949   0.482  34.502  12.068
13513W        W72950  34.438   3.369  13.792
13514W        W72951  10.691   9.228  12.563
13515W        W72952  18.704  21.041  12.343
13516W        W72953  38.949  38.820  11.896
13517W        W72954  35.931  43.847   1.449
13518W        W72955  30.910  10.317  12.954
13519W        W72956   7.330  16.709  10.450
13520W        W72957  43.965  26.066  12.551
13521W        W72958  23.618   4.383   0.307
13522W        W72959  33.528  13.170   0.258
13523W        W72960  13.316  11.838  11.470
13524W        W72961   0.279  41.900  11.387
13525W        W72962   9.814  11.244  10.626
13526W        W72963   0.910  41.409  13.437
13527W        W72964   6.369  34.614   3.194
13528W        W72965  28.137  43.471   0.397
13529W        W72966  29.011  23.183   3.762
13530W        W72967  21.060  40.515  12.886
13531W        W72968  18.062   1.366  11.111
13532W        W72969  33.554  32.490   2.266
13533W        W72970  34.498  30.576   3.317
13534W        W72971  12.228   9.227  12.449
13535W        W72972   7.222   8.226  12.924
13536W        W72973  22.020  36.985  13.362
13537W        W72974   0.427   7.389   0.848
13538W        W72975  26.604  12.718   1.450
13539W        W72976   0.382  13.762  14.916
13540W        W72977  13.224  43.966  11.565
13541W        W72978  25.020  13.307  11.529
13542W        W72979  40.861  31.967   3.749
13543W        W72980   0.249  24.109  12.020
13544W        W72981  20.626  11.154  14.767
13545W        W72982   3.361  44.890  12.353
13546W        W72983   7.671   6.282   1.249
13547W        W72984  30.040  34.421  12.867
13548W        W72985  17.250  44.499   9.462
13549W        W72986   0.790   7.683  11.091
13550W        W72987   2.451  35.102  14.356
13551W        W72988   9.875   8.190   1.798
13552W        W72989  22.632  13.272   3.704
13553W        W72990  22.064  11.245   1.407
13554W        W72991  13.208  23.990  14.937
13555W        W72992  25.092  10.343   3.279
13556W        W72993  42.296  10.709   0.827
13557W        W72994  32.005  34.479  14.990
13558W        W72995  32.908  29.533   1.788
13559W        W72996   6.231   0.961  10.492
13560W        W72997  38.454  41.916   1.267
13561W        W72998  43.875   7.765  10.615
13562W        W72999  38.466  25.180   0.850
13563W        W73000   1.424  20.634   2.809
13564W        W73001  30.967  37.529   4.195
13565W        W73002   6.191  28.563   2.785
13566W        W73003  12.189  23.632  12.365
13567W        W73004   4.763   6.227   0.953
13568W        W73005  15.649  28.604   4.317
13569W        W73006   4.254   5.822  13.846
13570W        W73007  14.230   8.200   0.257
13571W        W73008   6.705  27.009   2.339
13572W        W73009  34.462  18.584   2.298
13573W        W73010  33.424   2.941   3.220
13574W        W73011  44.427  11.290  11.115
13575W        W73012   7.725  36.500   1.730
13576W        W73013  33.567  22.722   3.816
13577W        W73014  21.646  19.670  11.087
13578W        W73015  33.958  29.495   4.167
13579W        W73016  18.071  13.314   3.707
13580W        W73017  25.601  17.651  12.860
13581W        W73018  14.151  20.683   3.767
13582W        W73019  39.910   3.755  10.915
13583W        W73020   2.463   9.739  13.882
13584W        W73021  41.903  41.895  12.504
13585W        W73022  38.547  34.400  11.516
13586W        W73023   8.347  28.170   3.222
13587W        W73024  14.719  38.021   0.879
13588W        W73025  42.489   3.727  13.828
13589W        W73026  40.322  21.040  14.514
13590W        W73027  43.490  44.272   3.176
13591W        W73028  23.514   8.866   3.661
13592W        W73029  42.945   5.264  13.385
13593W        W73030  24.110  39.025  12.940
13594W        W73031  30.036  31.910   4.730
13595W        W73032   6.830  20.236  10.636
13596W        W73033  17.556  28.120  13.002
13597W        W73034  14.340  15.203  11.974
13598W        W73035  31.066  41.395   0.793
13599W        W73036   9.878  15.228   0.396
13600W        W73037   6.263  17.651  14.771
13601W        W73038  34.418   1.336   2.315
13602W        W73039  38.436   2.424  14.017
13603W        W73040  21.527  33.994  11.892
13604W        W73041  21.115  34.522   0.446
13605W        W73042  37.364  35.436  10.456
13606W        W73043  20.184  31.915   0.751
13607W        W73044   0.819  43.455   4.226
13608W        W73045  16.182  41.838   3.850
13609W        W73046  17.673  44.488  14.812
13610W        W73047  41.786   9.741  14.472
13611W        W73048  22.701  33.561   9.965
13612W        W73049  26.527  37.571  10.947
13613W        W73050  32.906  42.475   2.834
13614W        W73051  16.283  43.287   4.347
13615W        W73052   3.734  36.084  12.473
13616W        W73053   1.861  38.977  11.942
13617W        W73054  35.560  42.336   1.365
13618W        W73055  31.612   5.921   1.747
13619W        W73056  15.311  33.527   0.748
13620W        W73057  39.872   5.807   0.792
13621W        W73058  42.835   8.709   2.812
13622W        W73059  23.497   8.167  11.509
13623W        W73060   8.392  15.320  13.928
13624W        W73061  27.151  17.193  13.988
13625W        W73062  30.114  19.264   2.876
13626W        W73063  43.299   7.206  14.412
13627W        W73064  26.471   9.369   4.235
13628W        W73065  11.758  39.328  12.910
13629W        W73066  30.146  37.991   4.190
13630W        W73067   3.902  12.334   4.820
13631W        W73068  22.669  44.473  14.489
13632W        W73069  21.660  31.089  10.424
13633W        W73070  24.525  10.365  10.913
13634W        W73071  44.994  23.647   3.801
13635W        W73072  20.102   8.852   3.845
13636W        W73073   8.832   0.292  10.489
13637W        W73074  42.334  42.349  11.072
13638W        W73075  37.067   7.678  14.363
13639W        W73076  14.593  11.863   3.654
13640W        W73077   0.387  14.768   2.295
13641W        W73078  35.981  18.141  10.928
13642W        W73079  38.443   4.746   0.483
13643W        W73080   5.205  28.527   4.239
13644W        W73081  42.006  34.565  14.481
13645W        W73082  28.954  10.296   0.371
13646W        W73083  19.734  38.514  11.500
13647W        W73084   0.810  35.466   9.941
13648W        W73085   7.882  21.030   1.261
13649W        W73086   8.182  24.110  12.493
13650W        W73087  44.829  15.112  11.454
13651W        W73088   3.394  44.791   1.915
13652W        W73089  37.948  30.435   5.224
13653W        W73090   0.855  15.820   0.810
13654W        W73091  14.243  21.029   0.865
13655W        W73092   9.673  42.333   1.806
13656W        W73093  31.104   6.739  11.576
13657W        W73094  25.615  10.148   4.672
13658W        W73095   9.814  23.736   4.828
13659W        W73096   1.861  22.744  14.015
13660W        W73097  25.139   7.676   4.218
13661W        W73098  21.086   8.850  11.095
13662W        W73099  28.991  23.529  11.548
13663W        W73100  31.912  22.149   3.659
13664W        W73101  27.678   8.317   0.462
13665W        W73102   5.880  16.702   1.724
13666W        W73103  39.861  41.917  13.806
13667W        W73104  38.909   7.363  10.615
13668W        W73105  42.438  24.995   1.736
13669W        W73106  33.917  35.590  11.506
13670W        W73107  37.368   8.811   0.778
13671W        W73108   5.308  36.041  13.440
13672W        W73109  19.059  26.500   0.803
13673W        W73110  32.063   0.752  12.345
13674W        W73111   9.395   8.214  12.036
13675W        W73112  32.404  12.196   4.690
13676W        W73113   7.228   2.318  11.911
13677W        W73114  20.218  30.019   1.407
13678W        W73115  44.416   0.461  14.946
13679W        W73116   0.400  42.356   1.739
13680W        W73117  31.566  28.014  12.843
13681W        W73118   2.446   7.852  13.917
13682W        W73119   8.687  38.820  14.817
13683W        W73120  23.080   6.407  13.965
13684W        W73121   0.341  41.306  13.314
13685W        W73122  40.492  36.094   2.730
13686W        W73123   7.831  23.130  13.969
13687W        W73124  40.043  25.980   0.786
13688W        W73125  21.643   5.389   4.330
13689W        W73126  31.114   9.886  14.357
13690W        W73127  44.268  26.992   3.782
13691W        W73128  23.654   7.769  14.397
13692W        W73129   6.396  39.889   0.328
13693W        W73130  43.338  31.902   4.755
13694W        W73131  31.522  34.559   0.867
13695W        W73132  21.557  38.891   1.352
13696W        W73133  24.061  42.953   4.692
13697W        W73134  31.426  17.603   1.348
13698W        W73135  10.156  40.892   1.372
13699W        W73136   8.881  29.547   1.838
13700W        W73137  43.448   1.949   4.747
13701W        W73138  26.113   3.262   0.851
13702W        W73139  22.210  43.848   3.868
13703W        W73140  43.351   2.292  11.942
13704W        W73141  19.631  13.201   2.328
13705W        W73142  40.890   7.246  11.083
13706W        W73143  29.126  22.700   2.668
13707W        W73144  44.791   3.849   4.824
13708W        W73145  27.502  19.281  12.085
13709W        W73146  23.990  26.633   3.715
13710W        W73147  28.100   4.399  11.124
13711W        W73148  38.882  12.171   3.276
13712W        W73149  41.814  19.182   0.246
13713W        W73150  26.139  23.138  14.772
13714W        W73151  20.543   9.154   0.453
13715W        W73152   0.973   4.292   3.769
13716W        W73153  24.520  26.617   4.144
13717W        W73154  26.580  28.634   3.836
13718W        W73155   0.288   0.263  14.381
13719W        W73156  29.047  10.349  13.521
13720W        W73157  36.965  33.399   0.837
13721W        W73158  12.829  19.747  12.400
13722W        W73159   4.300  36.544   3.668
13723W        W73160   3.776  28.517   0.411
13724W        W73161  13.617  21.665   3.377
13725W        W73162  13.841  36.044  10.442
13726W        W73163  32.623  29.032  12.083
13727W        W73164   6.734  32.106   0.870
13728W        W73165  43.400   8.768   0.463
13729W        W73166  32.513  20.576  11.375
13730W        W73167   5.291  42.947   4.294
13731W        W73168  13.740  13.708  13.880
13732W        W73169  19.250  32.437  12.345
13733W        W73170  14.149   2.955   3.198
13734W        W73171  29.166   3.345  10.569
13735W        W73172  16.790  30.973  12.373
13736W        W73173  19.118  21.686   3.758
13737W        W73174  34.565   5.837  11.559
13738W        W73175  30.155   6.427   2.884
13739W        W73176   3.732  19.738   1.699
13740W        W73177  12.845   8.364  12.500
13741W        W73178  18.124   5.338  11.957
13742W        W73179   8.269  38.018  11.554
13743W        W73180  12.750  37.466   4.716
13744W        W73181  14.744  42.391  10.088
13745W        W73182  28.931  20.212   4.670
13746W        W73183  14.634  29.541  14.766
13747W        W73184  32.975  36.897   3.292
13748W        W73185  42.939  40.016   0.266
13749W        W73186  10.871  15.148   1.854
13750W        W73187  20.103  37.542  13.894
13751W        W73188   6.206  24.223  12.399
13752W        W73189  16.082  37.844  12.566
13753W        W73190  15.322  18.089   2.732
13754W        W73191  16.242  30.016  11.065
13755W        W73192  11.632   5.752   0.850
13756W        W73193  11.131  36.878   4.349
13757W        W73194  21.122   4.289  13.359
13758W        W73195  44.790  43.787   1.414
13759W        W73196  21.197  26.570   9.986
13760W        W73197   1.855   2.310  10.514
13761W        W73198  43.342  17.687  10.449
13762W        W73199  38.877  15.187  12.075
13763W        W73200  23.631   4.450  12.543
13764W        W73201   3.274  41.889   1.814
13765W        W73202  21.696  11.366   0.768
13766W        W73203  12.804  24.042   1.255
13767W        W73204   6.196   0.301  14.997
13768W        W73205  33.897  13.767   4.199
13769W        W73206   1.360  34.549  14.940
13770W        W73207  14.134  40.305   9.543
13771W        W73208   5.416  38.465   4.827
13772W        W73209  35.004  28.150  10.617
13773W        W73210  25.047  34.535  13.416
13774W        W73211  33.379  43.347  14.416
13775W        W73212   8.343  44.421  14.477
13776W        W73213  32.057  19.707  11.577
13777W        W73214  20.656  28.547  14.811
13778W        W73215  35.481   9.235   2.843
13779W        W73216  18.599  36.976  14.294
13780W        W73217  28.442  23.616  12.384
13781W        W73218  17.587  37.429  14.460
13782W        W73219  11.287  44.844  12.864
13783W        W73220  43.310  35.031  11.961
13784W        W73221  16.677  11.830  12.509
13785W        W73222  15.808  35.397   0.315
13786W        W73223  17.571  42.825   5.189
13787W        W73224  27.648   7.266   2.330
13788W        W73225  33.082  26.527  13.850
13789W        W73226  39.368  31.029   4.351
13790W        W73227  22.087  19.279   2.847
13791W        W73228   5.728  31.533  10.438
13792W        W73229  14.289  35.008   2.705
13793W        W73230  35.479  37.874  10.990
13794W        W73231  33.033  31.447   3.180
13795W        W73232  26.101  11.734  14.978
13796W        W73233  10.180   5.438   3.360
13797W        W73234  31.434   7.817  12.880
13798W        W73235  31.953  42.855   4.798
13799W        W73236  19.614  20.166   2.279
13800W        W73237  12.204  31.455  14.952
13801W        W73238  26.533  23.216  13.354
13802W        W73239  12.810   8.709  12.874
13803W        W73240  44.500  43.482   4.275
13804W        W73241   1.476  32.081  14.889
13805W        W73242  32.432  41.300  11.968
13806W        W73243  39.011  13.160   4.824
13807W        W73244  16.629   7.412   4.248
13808W        W73245  41.035  29.919   4.805
13809W        W73246  35.393  34.874  12.857
13810W        W73247  13.655   0.266  12.026
13811W        W73248  41.360  25.586   3.148
13812W        W73249   5.919  19.097   4.746
13813W        W73250  27.009   2.764   3.270
13814W        W73251  10.730  11.762  13.997
13815W        W73252  35.930  36.498   1.448
13816W        W73253  31.436  37.067   1.332
13817W        W73254  26.164   2.724   0.878
13818W        W73255  26.695  28.086  10.633
13819W        W73256  31.517  34.465   1.357
13820W        W73257  28.040  30.509   2.300
13821W        W73258   1.793  29.482  13.331
13822W        W73259  28.632  18.655  13.855
13823W        W73260   0.466  33.495  12.579
13824W        W73261  13.303  27.614   1.391
13825W        W73262  13.250  14.185   2.240
13826W        W73263   8.188   2.255  13.512
13827W        W73264  10.336  14.277   0.834
13828W        W73265  37.523  16.794  10.639
13829W        W73266  28.506   8.229   0.365
13830W        W73267   0.969   4.319  13.509
13831W        W73268  30.951  35.969   3.695
13832W        W73269  40.445  10.814   4.764
13833W        W73270  34.902  18.067   1.725
13834W        W73271  17.651  12.228   2.219
13835W        W73272  13.235  26.102  13.548
13836W        W73273   0.868   9.343  14.507
13837W        W73274  22.021   3.728  11.386
13838W        W73275  40.872  35.902   3.290
13839W        W73276  20.176   4.755  12.974
13840W        W73277  41.353  12.346  14.336
13841W        W73278  34.394  41.824   5.152
13842W        W73279  19.162  32.994  12.093
13843W        W73280   7.774   2.398   4.355
13844W        W73281  36.593   2.864   4.642
13845W        W73282  42.378   2.852   2.790
13846W        W73283  15.188  24.512   2.693
13847W        W73284  11.241   3.302   3.644
13848W        W73285  16.184  15.782  12.840
13849W        W73286   2.837  28.669   2.309
13850W        W73287  30.450  15.750  10.462
13851W        W73288  35.559   4.405  14.470
13852W        W73289  35.039  10.140   0.380
13853W        W73290   8.262  20.763   2.284
13854W        W73291  24.636  12.787  14.276
13855W        W73292   4.786   7.203   3.656
13856W        W73293   5.425  15.792  14.777
13857W        W73294  39.940   1.395  13.008
13858W        W73295  19.166  18.783   5.803
13859W        W73296  40.838  31.464  12.941
13860W        W73297  18.725  43.299   3.737
13861W        W73298  20.251  42.934  11.125
13862W        W73299  43.859   3.762  14.837
13863W        W73300  27.029  35.935  10.138
13864W        W73301  42.796  22.567  10.600
13865W        W73302  22.738   6.713  12.069
13866W        W73303  21.714  33.922   1.835
13867W        W73304  31.461   1.909  10.971
13868W        W73305   6.878  25.532   3.251
13869W        W73306  35.047   6.396  11.122
13870W        W73307  22.034  37.891   3.196
13871W        W73308   8.307  27.456   2.419
13872W        W73309  31.570   0.943   1.363
13873W        W73310  13.806   1.474  12.961
13874W        W73311  19.140  37.832   0.726
13875W        W73312   6.389  19.163   3.749
13876W        W73313  41.521   8.889   2.256
13877W        W73314  15.621  33.565   4.740
13878W        W73315  36.008  41.403   3.356
13879W        W73316   8.320  38.971   1.827
13880W        W73317  17.773   8.846   3.283
13881W        W73318   6.247  33.477   0.346
13882W        W73319  12.286   6.409  13.051
13883W        W73320   1.375  17.631  13.513
13884W        W73321   0.431  36.892   1.787
13885W        W73322   8.183  33.467  12.419
13886W        W73323  34.959  32.138   1.709
13887W        W73324  14.314  36.923   4.283
13888W        W73325  44.828  17.800   1.318
13889W        W73326  31.453  17.165   3.818
13890W        W73327   8.363   5.812  11.548
13891W        W73328  10.366   3.713  14.320
13892W        W73329  11.704  35.528   1.314
13893W        W73330  44.366  22.239   0.825
13894W        W73331  17.227  27.602   4.309
13895W        W73332  28.043   7.315  11.433
13896W        W73333  25.651   2.854   1.723
13897W        W73334  38.507  31.083   3.160
13898W        W73335  36.983  19.064   0.343
13899W        W73336  23.170   5.435  11.019
13900W        W73337  36.049   4.904  13.375
13901W        W73338  13.622  13.303   4.814
13902W        W73339  15.642  39.896   1.729
13903W        W73340  13.216  20.245   0.840
13904W        W73341  40.870  15.287   2.740
13905W        W73342   2.944   5.288   4.298
13906W        W73343  39.542  32.127   0.423
13907W        W73344  25.685  40.959  13.384
13908W        W73345  33.518  20.192  10.924
13909W        W73346  29.471   7.846   0.850
13910W        W73347  32.140  15.607  11.096
13911W        W73348   2.448  12.117   3.695
13912W        W73349  26.075  28.642   0.288
13913W        W73350  22.013   5.407   4.155
13914W        W73351  30.061  39.541  14.817
13915W        W73352  18.276  41.329  12.498
13916W        W73353   5.208  41.935   4.330
13917W        W73354  17.269  30.041  11.494
13918W        W73355  18.700  31.058   0.896
13919W        W73356  12.206  10.714   2.200
13920W        W73357   6.345  38.548  11.089
13921W        W73358  44.895  34.995  14.928
13922W        W73359   3.448  10.315  11.041
13923W        W73360  30.158  22.203  13.365
13924W        W73361   7.360  23.500   1.292
13925W        W73362   5.280  38.352   2.736
13926W        W73363  25.184  21.192  14.772
13927W        W73364  27.621  22.087   1.358
13928W        W73365  14.179   5.746  13.484
13929W        W73366  24.219  23.497  12.417
13930W        W73367  20.142  18.570  11.057
13931W        W73368   4.432  17.746   0.796
13932W        W73369  38.514   2.754  12.477
13933W        W73370  26.190  27.049   1.394
13934W        W73371  31.105  22.230   4.304
13935W        W73372  14.112   0.314  11.023
13936W        W73373  43.942  10.188  10.127
13937W        W73374  40.387  16.127  11.437
13938W        W73375  29.085   6.840   3.652
13939W        W73376  32.615   4.796  11.109
13940W        W73377  32.098  29.433  11.077
13941W        W73378  22.501   6.735  14.849
13942W        W73379  35.409  10.230   4.272
13943W        W73380  33.544   4.900  11.003
13944W        W73381  27.650   9.291  14.874
13945W        W73382  13.798  41.439   0.455
13946W        W73383   2.363  19.233  11.495
13947W        W73384   0.818  43.420  12.837
13948W        W73385  20.178  28.985  14.466
13949W        W73386  36.030  37.516   0.416
13950W        W73387  38.016  32.006  12.866
13951W        W73388  42.491  44.476  14.006
13952W        W73389  14.610   2.265   1.238
13953W        W73390  34.097  10.686   3.712
13954W        W73391   7.865   1.419   4.724
13955W        W73392   7.891  23.209  14.886
13956W        W73393  39.816  38.407   0.316
13957W        W73394  13.626  42.479   3.222
13958W        W73395  18.234  33.412   2.255
13959W        W73396   6.888  24.020   1.255
13960W        W73397   8.803  36.484   2.701
13961W        W73398  14.754  31.152   0.261
13962W        W73399  35.925  34.468  11.932
13963W        W73400  37.462   1.278  10.496
13964W        W73401   5.209   8.698   1.332
13965W        W73402   2.738  38.017   9.534
13966W        W73403  20.127  44.466  11.070
13967W        W73404  36.380   6.904  13.796
13968W        W73405  39.837  26.112  13.458
13969W        W73406   9.762  14.729  11.589
13970W        W73407   3.899  10.358   1.223
13971W        W73408  40.052  31.937   4.743
13972W        W73409  31.900   7.278  10.619
13973W        W73410  20.227  40.804   0.413
13974W        W73411  25.540  36.016  11.950
13975W        W73412  13.651  41.372  13.042
13976W        W73413  33.502  27.004  12.834
13977W        W73414  17.071   8.701   1.307
13978W        W73415  41.900  11.294  12.084
13979W        W73416   0.758  27.175   4.157
13980W        W73417  22.222  18.093  11.946
13981W        W73418  34.062  23.127   3.799
13982W        W73419  19.665  23.583   1.216
13983W        W73420   4.420  11.716   0.466
13984W        W73421   3.339  41.983  14.327
13985W        W73422  21.650  32.890   0.945
13986W        W73423  28.951  29.130   0.281
13987W        W73424  16.293  12.124  12.003
13988W        W73425  11.294  40.474   1.864
13989W        W73426  17.673  44.963  12.907
13990W        W73427   4.815  17.116   5.094
13991W        W73428  31.992  36.484  13.402
13992W        W73429  39.865  11.826   1.858
13993W        W73430  11.187   9.856  14.488
13994W        W73431  27.172  41.531  12.348
13995W        W73432  43.962  41.938   2.211
13996W        W73433  15.683  18.561   3.285
13997W        W73434  27.186  38.470   3.328
13998W        W73435  34.393  26.002  14.794
13999W        W73436  25.145  14.792  13.430
14000W        W73437  17.228  23.595   1.320
14001W        W73438  14.253   7.205   4.828
14002W        W73439  37.353  40.397   0.880
14003W        W73440  28.147  33.592   1.394
14004W        W73441  26.007  29.527  12.006
14005W        W73442  35.434  21.598   0.770
14006W        W73443  20.548  32.072  11.576
14007W        W73444  22.680  25.643  11.457
14008W        W73445  23.559  30.550   3.677
14009W        W73446  12.155  29.599   3.766
14010W        W73447  26.131   8.358  14.457
14011W        W73448  37.981   0.488  12.834
14012W        W73449  28.579  30.047  11.883
14013W        W73450  32.630   0.839  12.451
14014W        W73451  22.692  18.744  13.805
14015W        W73452  24.707   6.307  12.830
14016W        W73453  10.675  32.110   0.842
14017W        W73454  18.637   0.390   1.235
14018W        W73455  20.707  38.369   3.242
14019W        W73456   3.929  35.510   2.365
14020W        W73457  21.683   5.218   2.850
14021W        W73458  34.405  31.112   1.253
14022W        W73459  14.658  23.604  14.298
14023W        W73460   1.772  28.971   3.754
14024W        W73461  11.142  11.167   3.695
14025W        W73462  14.330   4.298  13.479
14026W        W73463  38.852   3.216  12.032
14027W        W73464   5.919  20.069   2.413
14028W        W73465  42.799  21.748  14.996
14029W        W73466   6.377  22.664   5.290
14030W        W73467  19.645  18.622  11.445
14031W        W73468  34.013  43.798  12.477
14032W        W73469  43.979  24.019   1.442
14033W        W73470  18.569   0.785   4.273
14034W        W73471  13.287   5.376   0.886
14035W        W73472  13.677   3.263   2.238
14036W        W73473  39.057  38.400  14.763
14037W        W73474  34.380  15.125  13.991
14038W        W73475  44.504   1.424  11.016
14039W        W73476   2.853   7.878   2.891
14040W        W73477   0.900  41.402  10.454
14041W        W73478  42.985  10.780  10.974
14042W        W73479  19.256  42.381   1.749
14043W        W73480  27.561   9.668   0.460
14044W        W73481   3.429  12.787   2.758
14045W        W73482  42.779  29.474  11.426
14046W        W73483   8.667  44.292   2.184
14047W        W73484  13.796   5.798  14.005
14048W        W73485  30.581  21.046   9.935
14049W        W73486   2.433  44.798  12.350
14050W        W73487  33.614   9.838  13.935
14051W        W73488  36.916  39.026  10.131
14052W        W73489  17.558   5.718   1.226
14053W        W73490  13.207  12.764   1.871
14054W        W73491  12.789  21.669  11.508
14055W        W73492  21.748  22.236  13.046
14056W        W73493  25.108  21.563  12.047
14057W        W73494  26.555   8.356  14.977
14058W        W73495  18.211  13.158  10.970
14059W        W73496  33.579  14.130  13.495
14060W        W73497  33.599  13.184  11.864
14061W        W73498  15.261  34.509  14.840
14062W        W73499  35.043  16.143   0.373
14063W        W73500  21.153  14.300  13.894
14064W        W73501  27.577  43.463  10.512
14065W        W73502  42.020  11.809  10.549
14066W        W73503  42.999  24.017   4.236
14067W        W73504  12.305   1.821   4.763
14068W        W73505  15.813  16.719  13.827
14069W        W73506   9.666  37.879   3.700
14070W        W73507  22.545  22.060   0.806
14071W        W73508  35.934  25.160   0.927
14072W        W73509  34.537  17.756  12.483
14073W        W73510  40.367  13.609   3.791
14074W        W73511  39.053  37.394   9.936
14075W        W73512  43.987  43.374  13.960
14076W        W73513   8.168  19.053   2.183
14077W        W73514  17.099   9.691   1.807
14078W        W73515   3.745  33.487   4.755
14079W        W73516  30.482  40.466   3.799
14080W        W73517  24.992  41.504  13.375
14081W        W73518  26.463  31.544   1.713
14082W        W73519  24.107  26.642  11.610
14083W        W73520  44.291   3.778   3.722
14084W        W73521   6.862   2.438   4.196
14085W        W73522  44.487  35.550  11.006
14086W        W73523   8.211  38.849  12.843
14087W        W73524  30.128  18.605  11.961
14088W        W73525  25.560   5.210   3.176
14089W        W73526  27.144  21.718   4.155
14090W        W73527   2.299  38.010   4.615
14091W        W73528  22.031   9.193  11.560
14092W        W73529  16.162  11.364  12.005
14093W        W73530  22.247  13.719  14.897
14094W        W73531   6.756   3.774  10.894
14095W        W73532  33.908   8.367  12.493
14096W        W73533  40.325   1.249   4.259
14097W        W73534  19.179  38.006  12.883
14098W        W73535  36.576  43.877  13.060
14099W        W73536  15.764   6.803  14.340
14100W        W73537  37.536   6.385  12.494
14101W        W73538   4.205  10.799   0.342
14102W        W73539   8.774   6.799  11.385
14103W        W73540  22.524  35.927  12.841
14104W        W73541   0.409  16.234  11.120
14105W        W73542  30.984  30.575   5.314
14106W        W73543  28.434  15.799   1.721
14107W        W73544  30.547  43.999  14.775
14108W        W73545  21.112  19.769  14.828
14109W        W73546   8.750  34.481   1.317
14110W        W73547  36.035  21.262  14.356
14111W        W73548  29.524  39.049  12.027
14112W        W73549  30.427   1.767   0.837
14113W        W73550  11.287  36.095   4.678
14114W        W73551   4.711  23.125   1.778
14115W        W73552   5.345   9.236   1.449
14116W        W73553   0.460  26.503  12.444
14117W        W73554  42.786   5.787   3.644
14118W        W73555  19.771  23.729   0.471
14119W        W73556  35.950  12.761  14.016
14120W        W73557  16.288  12.303  12.446
14121W        W73558  16.246  19.740   3.225
14122W        W73559  29.558  32.532   3.200
14123W        W73560  26.581   0.850  14.844
14124W        W73561   7.239   8.335   0.923
14125W        W73562  33.105   4.754   0.349
14126W        W73563  31.640  27.160  10.434
14127W        W73564  12.813   7.379  11.458
14128W        W73565  21.624  10.193   0.344
14129W        W73566  14.687  24.104  13.336
14130W        W73567   1.936  33.029  12.934
14131W        W73568  10.148  40.805   4.193
14132W        W73569  29.656  43.999  13.050
14133W        W73570  34.608  28.471   2.801
14134W        W73571  29.991  17.218  14.977
14135W        W73572  32.920  11.162  12.415
14136W        W73573  17.222  33.425  10.574
14137W        W73574  36.386  38.530   0.925
14138W        W73575   3.378  16.172  11.081
14139W        W73576  31.105  21.633  10.533
14140W        W73577  14.643   7.266   1.450
14141W        W73578  27.530   6.185  12.448
14142W        W73579  33.001  41.450  11.536
14143W        W73580   6.415  12.337   0.340
14144W        W73581   0.837  35.852   3.380
14145W        W73582   9.884  41.831   1.298
14146W        W73583  30.084  38.049   3.262
14147W        W73584  44.404   2.738   2.761
14148W        W73585  34.524  22.215  10.947
14149W        W73586  19.217  29.118  14.336
14150W        W73587   1.843  34.014  13.371
14151W        W73588  25.527  41.895   4.813
14152W        W73589  20.168  22.724  11.103
14153W        W73590  42.030   9.237  10.922
14154W        W73591  44.905  41.941  12.348
14155W        W73592  17.782   0.404  10.518
14156W        W73593   6.246  31.460  13.973
14157W        W73594  31.596  19.208  10.909
14158W        W73595  38.853  33.501  12.545
14159W        W73596  11.852  17.274   1.744
14160W        W73597  30.511  11.838  11.123
14161W        W73598  40.864  29.511   0.266
14162W        W73599  12.331  14.766   4.794
14163W        W73600   1.865  26.186  12.556
14164W        W73601  34.040  44.470  10.429
14165W        W73602  25.650  40.900  10.463
14166W        W73603  23.682   5.827   4.174
14167W        W73604  40.341  38.534   0.853
14168W        W73605  25.981  21.707  10.432
14169W        W73606   4.374  42.354   3.157
14170W        W73607   0.327  30.130  12.040
14171W        W73608  43.444  13.250  13.326
14172W        W73609  24.681  32.584  11.416
14173W        W73610   6.909  27.556   2.275
14174W        W73611  38.514  21.655  10.540
14175W        W73612  38.951  32.613   5.252
14176W        W73613  13.844   3.806   3.339
14177W        W73614  23.040   6.420   4.205
14178W        W73615   8.861  14.670  14.427
14179W        W73616  40.875   9.379   2.844
14180W        W73617   9.718   5.874  12.885
14181W        W73618   9.783  14.176   3.633
14182W        W73619   3.898  19.271   0.362
14183W        W73620   2.278  38.351   4.279
14184W        W73621  26.145  19.208  10.644
14185W        W73622   8.334  36.403  12.078
14186W        W73623  25.675  32.515  14.863
14187W        W73624  33.598  40.899  14.888
14188W        W73625  15.736  32.959   0.374
14189W        W73626  38.044  22.562  13.024
14190W        W73627  26.494  17.200  14.426
14191W        W73628  16.119  20.039  12.882
14192W        W73629  35.421   2.878   4.245
14193W        W73630   3.911   3.296  11.877
14194W        W73631  25.536  39.981   0.786
14195W        W73632  13.281  17.067   0.377
14196W        W73633  13.338  36.424  14.808
14197W        W73634  21.224  44.822   0.426
14198W        W73635   9.740  12.345   3.744
14199W        W73636  44.826  14.259  13.919
14200W        W73637  15.804  22.252  10.440
14201W        W73638   1.785   7.379  10.964
14202W        W73639  42.505  37.511   1.389
14203W        W73640  18.209  24.513  13.392
14204W        W73641  13.684  44.299   1.851
14205W        W73642  27.943  17.064   1.217
14206W        W73643   2.267  19.214   1.406
14207W        W73644  34.548  34.474  11.985
14208W        W73645  27.951  13.318  11.562
14209W        W73646   8.708  39.344   2.211
14210W        W73647  16.738  10.812  11.532
14211W        W73648  28.502  39.485   9.567
14212W        W73649   0.781   1.308   4.792
14213W        W73650  28.181  44.967  14.341
14214W        W73651  36.923  33.408  10.445
14215W        W73652   8.343  38.959  10.447
14216W        W73653  29.448  35.507   0.283
14217W        W73654  39.492  18.103   4.811
14218W        W73655  11.280  28.939   3.248
14219W        W73656  38.358  10.337   3.725
14220W        W73657  39.991  34.067  10.889
14221W        W73658  41.401  25.055  11.898
14222W        W73659  24.578  19.713  11.067
14223W        W73660  27.476  44.488   2.236
14224W        W73661   3.893  30.596   5.208
14225W        W73662  38.405  15.267   4.691
14226W        W73663  16.643   5.306  11.438
14227W        W73664  27.668  19.162  13.351
14228W        W73665  15.171  36.422  14.784
14229W        W73666   7.174   4.801   2.410
14230W        W73667  31.950  19.199   0.783
14231W        W73668  17.800  43.288  10.954
14232W        W73669  26.570  21.210   0.760
14233W        W73670  38.899   5.345   0.903
14234W        W73671   1.974  37.388  12.968
14235W        W73672  15.579  29.054   2.352
14236W        W73673   4.871   9.259   3.840
14237W        W73674   1.358  30.976   1.313
14238W        W73675  25.664  12.216   3.208
14239W        W73676  23.543  38.038   4.256
14240W        W73677  35.001  26.028   3.203
14241W        W73678  10.662   1.920  13.992
14242W        W73679  11.360  12.718  13.805
14243W        W73680   1.827   5.771   3.669
14244W        W73681  40.845  21.055  12.851
14245W        W73682  44.430  13.733   2.849
14246W        W73683  14.672  34.925   3.720
14247W        W73684   5.263  15.146  11.383
14248W        W73685   3.269   1.911  12.066
14249W        W73686  33.093  15.598  12.535
14250W        W73687  37.435  23.648  12.448
14251W        W73688  19.062   8.842   4.129
14252W        W73689  36.990  41.434   2.207
14253W        W73690  33.036  28.158  13.517
14254W        W73691  25.178  40.484   2.744
14255W        W73692  38.464   4.425  13.359
14256W        W73693  13.308  43.868  14.364
14257W        W73694  23.644  40.939  13.796
14258W        W73695  39.452  24.107   0.928
14259W        W73696  33.464  42.027  12.838
14260W        W73697   3.752  13.163   2.884
14261W        W73698   2.354  16.654   0.747
14262W        W73699  12.683  27.165  12.006
14263W        W73700  32.967  10.235   2.390
14264W        W73701   5.358   6.255  14.795
14265W        W73702  36.542  22.179  11.602
14266W        W73703  22.614  23.986  11.959
14267W        W73704  35.061  32.981  10.549
14268W        W73705  38.372  30.052   0.747
14269W        W73706  26.498  11.797   0.287
14270W        W73707   9.784  40.482   2.725
14271W        W73708  12.650  24.091   4.154
14272W        W73709  14.825  43.476  11.482
14273W        W73710  35.007  38.536   5.687
14274W        W73711   2.931   7.809   4.169
14275W        W73712  37.514  21.550  13.477
14276W        W73713  38.863   1.343  11.069
14277W        W73714  34.535  20.266  12.412
14278W        W73715  14.240  27.018   0.333
14279W        W73716  15.318  10.725   0.946
14280W        W73717  14.172  32.596   2.763
14281W        W73718  43.324   1.752  11.009
14282W        W73719   2.360  15.282   5.213
14283W        W73720   1.856  39.419  11.859
14284W        W73721  20.523  27.592   4.806
14285W        W73722  19.277   2.342   1.329
14286W        W73723  24.600  10.152  10.637
14287W        W73724  38.825  37.469  14.792
14288W        W73725  33.601  41.362   4.197
14289W        W73726  37.338  33.556  11.121
14290W        W73727  42.823  16.574   2.825
14291W        W73728   6.384   4.227   1.242
14292W        W73729  31.057  21.572  12.047
14293W        W73730   5.750  27.541  12.444
14294W        W73731  42.895  25.583  14.504
14295W        W73732  11.204  44.305   0.849
14296W        W73733  39.425  38.361   2.318
14297W        W73734  18.064  31.560   0.745
14298W        W73735  25.521  37.401   5.161
14299W        W73736  23.565  20.604  12.459
14300W        W73737   2.827  11.787   2.721
14301W        W73738  11.765   2.745   3.302
14302W        W73739   4.354   1.385  11.560
14303W        W73740  24.526  44.497   0.887
14304W        W73741  20.583  17.082  11.955
14305W        W73742  11.779  21.059  11.909
14306W        W73743  26.589  31.914  13.352
14307W        W73744  15.597   4.781   5.238
14308W        W73745   5.872  39.527   3.357
14309W        W73746  24.652  34.972   4.708
14310W        W73747   4.240  39.038  11.092
14311W        W73748  25.993  34.881   1.297
14312W        W73749  15.099  17.731   4.769
14313W        W73750  17.061  13.729  12.975
14314W        W73751  30.635  35.872  13.064
14315W        W73752  20.590  43.851  11.061
14316W        W73753  11.713   4.848  14.767
14317W        W73754  11.729  10.735   4.214
14318W        W73755  21.616  10.371   2.357
14319W        W73756  29.531  39.330   2.381
14320W        W73757   9.393  34.546   0.793
14321W        W73758  16.688  23.715   4.834
14322W        W73759  35.462   5.714   4.703
14323W        W73760  22.163  12.842  11.419
14324W        W73761  18.706  44.928  14.322
14325W        W73762  33.548  36.863   0.813
14326W        W73763  41.526  39.037   1.259
14327W        W73764  13.147  23.543  14.948
14328W        W73765   7.324  17.067  12.576
14329W        W73766  20.527  26.042   1.704
14330W        W73767  23.040  19.590  11.551
14331W        W73768  31.428  40.495  11.430
14332W        W73769  11.150   6.279   1.872
14333W        W73770  34.504   2.236  13.048
14334W        W73771   4.738  20.593  11.916
14335W        W73772  14.274   1.388   2.740
14336W        W73773  22.628  10.263   1.741
14337W        W73774   1.790  25.123  13.382
14338W        W73775  18.062  22.125  10.426
14339W        W73776  34.933  35.039  11.028
14340W        W73777  19.040  11.367   1.743
14341W        W73778   3.771   1.924   2.710
14342W        W73779   3.716  11.219  14.442
14343W        W73780  12.128  21.169  12.463
14344W        W73781  27.564  34.958   2.398
14345W        W73782  43.309  21.212   2.896
14346W        W73783   9.779  15.091   4.226
14347W        W73784  10.246  29.086   3.712
14348W        W73785  11.756   7.237  14.488
14349W        W73786  19.754   5.257  12.011
14350W        W73787  33.565  40.340  11.932
14351W        W73788  31.474  13.718   3.190
14352W        W73789  40.798  44.478   3.188
14353W        W73790  16.582  14.657  13.880
14354W        W73791  24.557   0.863   0.735
14355W        W73792  40.809  35.878   0.739
14356W        W73793  13.804  42.442   0.439
14357W        W73794  16.235  32.983  14.792
14358W        W73795  41.515  18.168  12.485
14359W        W73796   7.748  28.100   0.952
14360W        W73797  13.801   2.774   2.742
14361W        W73798  10.782  12.208  11.931
14362W        W73799   6.298  26.027  13.811
14363W        W73800  15.737   9.165  13.930
14364W        W73801  35.068   0.394  12.849
14365W        W73802   8.295   8.278   0.737
14366W        W73803  26.103  20.708  10.411
14367W        W73804  37.563   9.723   2.256
14368W        W73805  25.150  36.009  12.439
14369W        W73806  33.500   6.678   4.667
14370W        W73807  35.473  33.625  14.376
14371W        W73808  20.266  33.524   1.916
14372W        W73809  23.050  19.776  14.514
14373W        W73810  35.020  20.558   0.916
14374W        W73811  40.473   0.346  13.434
14375W        W73812  19.148  41.376  10.928
14376W        W73813  17.207   7.371   5.244
14377W        W73814  12.141  15.703  12.414
14378W        W73815  23.562  35.102   2.244
14379W        W73816  22.073  10.167  12.551
14380W        W73817   8.669  17.732  12.406
14381W        W73818  25.560   1.949   0.341
14382W        W73819  19.756  32.522   5.178
14383W        W73820  16.769  12.182  11.609
14384W        W73821  15.181  23.575   2.285
14385W        W73822  15.606   0.744  13.963
14386W        W73823  33.509  11.774  13.395
14387W        W73824  41.518  24.164  11.129
14388W        W73825  14.752  17.096   0.908
14389W        W73826  32.020  25.694  14.304
14390W        W73827   5.203  22.654   4.314
14391W        W73828  19.713   6.425   1.928
14392W        W73829  23.614  25.640  12.029
14393W        W73830  12.324   8.660  10.635
14394W        W73831  29.137  13.134   2.269
14395W        W73832  36.484  26.655  14.398
14396W        W73833  44.810  11.776   2.414
14397W        W73834   0.274  39.447   0.758
14398W        W73835  34.990  26.472   1.264
14399W        W73836  42.005   0.810  11.539
14400W        W73837  34.584  39.843   9.530
14401W        W73838  14.318   9.262   2.710
14402W        W73839  13.142   0.278  11.607
14403W        W73840  29.624   9.370   0.732
14404W        W73841  23.599   3.307  13.419
14405W        W73842  13.663  37.881  11.128
14406W        W73843  42.900  35.360   0.421
14407W        W73844  25.067  33.003   3.762
14408W        W73845  32.027   1.479   1.797
14409W        W73846  30.960  39.912   3.354
14410W        W73847  17.189  19.073  11.571
14411W        W73848  21.178  11.144  11.032
14412W        W73849  22.011  34.427  14.294
14413W        W73850  33.070  10.797   0.960
14414W        W73851  30.547   2.365   0.395
14415W        W73852  25.074   6.241   4.331
14416W        W73853  16.126   8.339   4.712
14417W        W73854  26.026  22.527  12.959
14418W        W73855  37.901  21.022  12.456
14419W        W73856   3.926  27.155   3.830
14420W        W73857  25.207   6.255   3.289
14421W        W73858  37.902  32.995   4.125
14422W        W73859  42.445  11.835  12.992
14423W        W73860  17.223  40.824   2.796
14424W        W73861  34.452  23.721   3.702
14425W        W73862  37.027  38.548   9.616
14426W        W73863  11.794  42.974  12.063
14427W        W73864  24.502  24.712   1.916
14428W        W73865   5.374  43.941   0.338
14429W        W73866  27.062  18.759   3.257
14430W        W73867  30.090   9.173   2.821
14431W        W73868  27.143  20.040   0.446
14432W        W73869   3.939  43.774  13.980
14433W        W73870  44.445  13.632   3.289
14434W        W73871  35.451  25.217   0.960
14435W        W73872  43.862  20.202   1.255
14436W        W73873  31.473   3.829  14.392
14437W        W73874  40.951  35.443  14.279
14438W        W73875   9.365  32.987   4.683
14439W        W73876  13.155  20.617  13.907
14440W        W73877  25.656  31.976  11.549
14441W        W73878  34.876  42.377  10.088
14442W        W73879  34.936  44.417  13.372
14443W        W73880  21.586   6.256   3.721
14444W        W73881  43.900  11.637  13.523
14445W        W73882   0.826  13.699   2.837
14446W        W73883  33.880   6.846   3.176
14447W        W73884  19.548  33.906  13.023
14448W        W73885   3.321   5.795   1.892
14449W        W73886  14.194  23.219  10.412
14450W        W73887  42.314  15.728  13.913
14451W        W73888   0.824  13.314  12.393
14452W        W73889   6.225  35.434  10.469
14453W        W73890  37.016  39.408  13.487
14454W        W73891  40.503  36.561   0.765
14455W        W73892   6.795  41.515   4.311
14456W        W73893  36.913  12.185  13.334
14457W        W73894  22.707  23.064   2.279
14458W        W73895   2.286  32.391   4.280
14459W        W73896  43.485   5.316  14.433
14460W        W73897  10.314  39.011  13.543
14461W        W73898  44.491  27.664  14.948
14462W        W73899  25.598  18.723  10.950
14463W        W73900  32.056  36.030  14.032
14464W        W73901   8.369  34.959   0.733
14465W        W73902  32.025  39.861  10.121
14466W        W73903  22.047  17.688   2.813
14467W        W73904  24.568   2.768  10.497
14468W        W73905  38.000  24.514   1.278
14469W        W73906  13.210   4.203  11.560
14470W        W73907  38.361  40.446   3.179
14471W        W73908   4.882   8.752  10.405
14472W        W73909  20.724  43.888  13.000
14473W        W73910  30.975  15.587   0.300
14474W        W73911   2.300  23.647  14.363
14475W        W73912   8.397  28.475  14.301
14476W        W73913   6.870  20.642   3.724
14477W        W73914  40.879  41.445  10.450
14478W        W73915  41.380   0.867   3.275
14479W        W73916   6.284  24.193  11.463
14480W        W73917   9.839   4.834   3.765
14481W        W73918   2.340  36.947   4.821
14482W        W73919  34.605  12.774   1.826
14483W        W73920  25.600   3.778   2.710
14484W        W73921  39.050   9.741   3.699
14485W        W73922  17.120  12.615   3.655
14486W        W73923   4.748  38.349   4.716
14487W        W73924  32.040  11.280   4.723
14488W        W73925  16.221  25.174  11.373
14489W        W73926  36.919  43.953   0.925
14490W        W73927  28.119   6.202  13.445
14491W        W73928  37.438  36.499   2.339
14492W        W73929  44.488  32.540  13.365
14493W        W73930  28.462   2.348   0.354
14494W        W73931  25.586  41.896   0.272
14495W        W73932   7.324   4.417  11.916
14496W        W73933  38.380   3.269  14.992
14497W        W73934  34.602  15.114   4.723
14498W        W73935  23.690   4.938   3.351
14499W        W73936  11.783  29.093  13.432
14500W        W73937  23.567  17.100  13.898
14501W        W73938  25.045  20.706   3.151
14502W        W73939  32.613  16.142   2.312
14503W        W73940  34.992  32.977  12.495
14504W        W73941  23.149  16.088  10.486
14505W        W73942  38.006   7.675  11.556
14506W        W73943   5.344  40.051   0.867
14507W        W73944  44.838  33.455  11.881
14508W        W73945  32.891  44.929   4.227
14509W        W73946  26.485   4.779   1.913
14510W        W73947  39.866  41.528   0.337
14511W        W73948  24.691  41.982   1.300
14512W        W73949   6.254   8.773   5.237
14513W        W73950  32.964   2.761  12.501
14514W        W73951  10.727  32.410  13.368
14515W        W73952  32.634   1.845   0.423
14516W        W73953  35.385  42.954   3.765
14517W        W73954  37.357  38.462  13.358
14518W        W73955  36.090  11.297   0.277
14519W        W73956  15.292   7.252  12.570
14520W        W73957   0.365  10.739  12.024
14521W        W73958  29.564  26.137   0.746
14522W        W73959   7.417   0.468  12.017
14523W        W73960   6.823  37.359   4.207
14524W        W73961  43.771  21.753   2.343
14525W        W73962  41.833  29.078   0.437
14526W        W73963   4.445   4.817   2.407
14527W        W73964  37.882   9.751   3.274
14528W        W73965  44.759  14.304  14.996
14529W        W73966  35.362  28.603   0.888
14530W        W73967   8.356   6.338  13.920
14531W        W73968  25.176  16.076   5.174
14532W        W73969  42.392  29.571   2.242
14533W        W73970   6.799  39.387   4.272
14534W        W73971  14.801  19.718   2.357
14535W        W73972  18.200  20.547  12.487
14536W        W73973   3.827   5.366  14.317
14537W        W73974   2.326  24.595   4.190
14538W        W73975  40.519  21.536  11.111
14539W        W73976  41.314  40.436   2.687
14540W        W73977  15.730  19.574  14.814
14541W        W73978  12.827  12.769  12.490
14542W        W73979  26.032  23.043   4.749
14543W        W73980  16.671  28.049  12.026
14544W        W73981  29.625  13.778   1.836
14545W        W73982  36.042  13.135  13.853
14546W        W73983  19.278   5.405   3.834
14547W        W73984  25.542  21.162  12.448
14548W        W73985  12.668   6.303  13.017
14549W        W73986  22.112  13.197  12.074
14550W        W73987  42.787  18.244  12.526
14551W        W73988  24.526   3.820  13.973
14552W        W73989   5.310  14.722  13.864
14553W        W73990  19.623  14.286   0.263
14554W        W73991  44.359  10.291   4.628
14555W        W73992   8.257  32.626  14.818
14556W        W73993  23.241  38.454   9.631
14557W        W73994   5.379  35.400  14.769
14558W        W73995  30.630  36.851   3.687
14559W        W73996   3.421  37.852   1.883
14560W        W73997  36.861  30.500  12.942
14561W        W73998   7.331  29.020   1.778
14562W        W73999  11.719  24.106   3.162
14563W        W74000   3.425  31.644  13.478
14564W        W74001  44.905  38.859  14.373
14565W        W74002  29.646  11.168   2.711
14566W        W74003   1.308  20.174   3.348
14567W        W74004  33.907  29.061   4.141
14568W        W74005  30.475   1.816   4.143
14569W        W74006  43.367  41.817   2.220
14570W        W74007  40.037  21.668   1.290
14571W        W74008  26.500   4.786   0.781
14572W        W74009  41.517  43.769  12.062
14573W        W74010  42.888   7.677  10.504
14574W        W74011  35.484  44.798  13.992
14575W        W74012  40.351  17.695   1.791
14576W        W74013  26.622  35.057  13.872
14577W        W74014  15.125   3.793  14.954
14578W        W74015  26.553  31.615   3.837
14579W        W74016  13.255  40.384  14.441
14580W        W74017  34.066  30.072   0.424
14581W        W74018  10.769  16.228   1.858
14582W        W74019  24.699  29.474   3.214
14583W        W74020  36.504  26.553  12.925
14584W        W74021  12.826  16.257  13.393
14585W        W74022  19.102  43.337  14.901
14586W        W74023   2.265  10.645  14.275
14587W        W74024  37.018  35.532   2.736
14588W        W74025  29.984  37.000   2.700
14589W        W74026  16.725  44.821  14.818
14590W        W74027  30.580  30.916   0.339
14591W        W74028  16.140   6.205   0.454
14592W        W74029  44.440  16.669  13.469
14593W        W74030  18.747  42.334  14.868
14594W        W74031   2.945  10.262  14.970
14595W        W74032  29.920   3.444   0.831
14596W        W74033  15.126  20.552  12.529
14597W        W74034  13.813  32.489  14.330
14598W        W74035  32.042  44.864   1.268
14599W        W74036  39.813  21.076  10.502
14600W        W74037   2.940  21.751   4.737
14601W        W74038  13.695   8.787   4.343
14602W        W74039  40.918   0.299   3.735
14603W        W74040   2.736  41.808  10.975
14604W        W74041   1.281   3.853  12.036
14605W        W74042  19.682   7.838   3.380
14606W        W74043  21.735  14.140  12.978
14607W        W74044  18.292  35.894   4.121
14608W        W74045  20.729  43.453  14.988
14609W        W74046  33.054  37.986  11.556
14610W        W74047  37.435   0.264   0.908
14611W        W74048  21.710   3.764  10.418
14612W        W74049   5.768  24.023  11.934
14613W        W74050  27.996  29.573   3.359
14614W        W74051  31.446  33.522  14.439
14615W        W74052  36.359  12.612   3.341
14616W        W74053  21.073  31.422  14.293
14617W        W74054  36.553  35.469  11.513
14618W        W74055  22.095  34.950   0.374
14619W        W74056  40.818  19.578   2.226
14620W        W74057  21.758  18.121   1.432
14621W        W74058  21.561  42.447  10.887
14622W        W74059   6.887  40.873  13.917
14623W        W74060  28.589  31.646   3.314
14624W        W74061  13.262  28.466  10.574
14625W        W74062  14.235  34.437   4.833
14626W        W74063  10.260  19.043   3.343
14627W        W74064  18.586  36.529   0.846
14628W        W74065   1.754  10.841   2.333
14629W        W74066  15.252  26.088   0.919
14630W        W74067  11.227  28.665   3.678
14631W        W74068   4.328  11.246  12.020
14632W        W74069  35.462   6.769  12.823
14633W        W74070   8.273  37.417  14.986
14634W        W74071  25.060  34.523  14.429
14635W        W74072   9.806  43.416  11.443
14636W        W74073   0.837  40.469   0.763
14637W        W74074   3.748  33.624  12.509
14638W        W74075   7.239   0.306  10.572
14639W        W74076  41.457  39.400   2.844
14640W        W74077  31.547  16.712   0.817
14641W        W74078  30.948  19.696  10.405
14642W        W74079   2.410   4.417  10.581
14643W        W74080  33.053   6.254  12.854
14644W        W74081  16.607  43.488  11.057
14645W        W74082  40.923  36.545   3.161
14646W        W74083  13.311  27.081   3.340
14647W        W74084  11.751  33.389   2.670
14648W        W74085   7.908   4.447  11.024
14649W        W74086  38.523  26.666  10.975
14650W        W74087  16.099  28.532   4.617
14651W        W74088  17.672  29.949  11.884
14652W        W74089  37.007  23.705   3.754
14653W        W74090  33.904  12.768  13.400
14654W        W74091  13.319  40.468   5.219
14655W        W74092  31.549  14.314  13.466
14656W        W74093  15.241  20.702  14.964
14657W        W74094  22.712  25.013  13.980
14658W        W74095  33.047  30.549   1.811
14659W        W74096  22.199  16.713  14.024
14660W        W74097  28.480  17.574  13.865
14661W        W74098  32.906  11.333   2.845
14662W        W74099   6.373  20.239   3.188
14663W        W74100   9.275  10.225   1.822
14664W        W74101  17.603  13.159   1.708
14665W        W74102  37.061  31.404   0.408
14666W        W74103  13.115  44.926  12.496
14667W        W74104  41.428  17.639   4.241
14668W        W74105   6.831  19.282   3.150
14669W        W74106  23.631  26.619   3.837
14670W        W74107  30.137   0.920   0.253
14671W        W74108   4.377  41.854  13.326
14672W        W74109  44.474   9.652   0.937
14673W        W74110   7.859   1.385  13.370
14674W        W74111  24.025  35.508   4.646
14675W        W74112  41.916  33.077   3.245
14676W        W74113  28.498   6.245  14.318
14677W        W74114  30.435   4.824   0.392
14678W        W74115  14.665   5.377   1.931
14679W        W74116  43.433  20.589   2.235
14680W        W74117  34.599  27.669   3.194
14681W        W74118  10.708  35.501   4.231
14682W        W74119  22.527  23.556   4.689
14683W        W74120  12.743   4.313   0.789
14684W        W74121  22.649  34.384  11.008
14685W        W74122   8.862  43.345   3.351
14686W        W74123   5.285   9.845   0.926
14687W        W74124   2.826  31.098  10.905
14688W        W74125  33.057  22.064  14.007
14689W        W74126   1.459  29.082   2.830
14690W        W74127  18.628  37.565  12.512
14691W        W74128  31.415  38.041  11.398
14692W        W74129  25.122  19.748  14.005
14693W        W74130  36.957  43.385  12.996
14694W        W74131  30.149  10.334  12.511
14695W        W74132  29.626   8.182  12.346
14696W        W74133   6.402  23.046   3.373
14697W        W74134  16.274   1.756   1.218
14698W        W74135   5.707  28.997   2.185
14699W        W74136  36.915   7.215  14.920
14700W        W74137  40.410   7.717   0.920
14701W        W74138   6.341  26.557  10.569
14702W        W74139  13.811  14.279  11.422
14703W        W74140  42.892  14.297   2.403
14704W        W74141  26.158   4.289  14.285
14705W        W74142   0.471   5.763   1.786
14706W        W74143  32.518   9.342   3.792
14707W        W74144  13.838   7.334   4.343
14708W        W74145  12.156  41.883  10.611
14709W        W74146  18.105  18.621   3.224
14710W        W74147   1.908  38.856   2.359
14711W        W74148  33.595  30.997   4.601
14712W        W74149   3.890  32.092   2.888
14713W        W74150  33.079  36.353   2.890
14714W        W74151  21.109  40.507   5.793
14715W        W74152   1.445   9.183   0.412
14716W        W74153  23.192  17.137  13.950
14717W        W74154  16.600   9.790  13.407
14718W        W74155  18.669  12.331  10.539
14719W        W74156  12.781  40.842  10.537
14720W        W74157  14.825   5.229  13.002
14721W        W74158  40.433   4.277   4.224
14722W        W74159  14.622  30.110  11.431
14723W        W74160   6.247  37.931  10.435
14724W        W74161  30.990   5.928  12.027
14725W        W74162  34.064   5.239  12.568
14726W        W74163  10.360   2.240  13.996
14727W        W74164  20.597  28.103  12.464
14728W        W74165  24.225  30.445  13.388
14729W        W74166   9.768   8.295   3.659
14730W        W74167  43.973   2.319   2.665
14731W        W74168  25.573   6.308  12.464
14732W        W74169   1.462   5.349   4.687
14733W        W74170  31.542  42.373  10.619
14734W        W74171  40.858   3.376   2.216
14735W        W74172   7.288  32.042  12.557
14736W        W74173  42.795  17.119  14.914
14737W        W74174  37.544  33.397   2.845
14738W        W74175  40.309  28.941  12.848
14739W        W74176  24.211  15.812   4.142
14740W        W74177   6.907  30.021   2.389
14741W        W74178  21.674  40.837   2.853
14742W        W74179   5.325  36.940   2.370
14743W        W74180   5.343  34.074   1.711
14744W        W74181   7.815   2.436   1.418
14745W        W74182  33.093   7.192   2.812
14746W        W74183  13.348  10.792  12.825
14747W        W74184  43.781  43.466   4.693
14748W        W74185  13.611   2.383  13.941
14749W        W74186  11.295  39.540   2.338
14750W        W74187  39.469  28.124  12.577
14751W        W74188   1.928  42.937  10.932
14752W        W74189   7.224  27.954   4.225
14753W        W74190   8.351  12.158   3.322
14754W        W74191  36.374  31.523  13.383
14755W        W74192  32.624  38.857  14.907
14756W        W74193  29.475  21.752   5.237
14757W        W74194   3.405  37.375  11.414
14758W        W74195  29.122  15.658  14.306
14759W        W74196   6.844  16.176  10.954
14760W        W74197  41.855  18.197  11.594
14761W        W74198   6.699  37.920  11.433
14762W        W74199  44.921  20.723   0.348
14763W        W74200   4.250   1.356  11.025
14764W        W74201  27.607  38.008   4.339
14765W        W74202  40.029   3.276  12.976
14766W        W74203  13.222  37.934  11.438
14767W        W74204   3.428   2.917   0.755
14768W        W74205  28.603  22.116   0.948
14769W        W74206   6.319  41.941   0.269
14770W        W74207  39.882  17.228   3.239
14771W        W74208  29.098  31.648  11.564
14772W        W74209  30.944   0.799  13.522
14773W        W74210  29.451  18.548  14.000
14774W        W74211  16.654  25.208  13.466
14775W        W74212  40.529  43.459  10.448
14776W        W74213  19.725  21.746  13.942
14777W        W74214  44.804   9.742   1.878
14778W        W74215  15.168   5.930  11.498
14779W        W74216  38.841  10.330  13.858
14780W        W74217  41.371  18.707   4.350
14781W        W74218  19.723  28.985  10.630
14782W        W74219  33.965  21.625  12.827
14783W        W74220   9.321  11.781  13.352
14784W        W74221  29.948  16.656  12.376
14785W        W74222  22.621  10.784   1.922
14786W        W74223   0.478  21.053  14.473
14787W        W74224  33.481  42.320  13.054
14788W        W74225  22.062  23.230   0.842
14789W        W74226   3.275  44.360  10.514
14790W        W74227   6.362  42.286  13.504
14791W        W74228  44.269   5.743   4.246
14792W        W74229  23.586  34.108  10.998
14793W        W74230  39.929  17.619   0.306
14794W        W74231   4.888   9.223  12.864
14795W        W74232   5.805  28.633   1.806
14796W        W74233  20.257  16.310   1.236
14797W        W74234  15.797  42.457   1.725
14798W        W74235   1.482   8.315   2.268
14799W        W74236   0.850  23.661   3.823
14800W        W74237  28.107   0.856  13.043
14801W        W74238  40.009   7.668  10.538
14802W        W74239  18.610  24.218  11.450
14803W        W74240   6.754  34.991  12.916
14804W        W74241  36.492  32.925   0.339
14805W        W74242   3.865   5.387   4.713
14806W        W74243  10.272   0.782   0.874
14807W        W74244  32.515  30.537  12.402
14808W        W74245   0.890  41.996   0.859
14809W        W74246   1.802  33.615   3.370
14810W        W74247  39.042  41.965   0.248
14811W        W74248  11.740  28.021  12.563
14812W        W74249  31.910  21.228   3.175
14813W        W74250  33.009  16.693   3.746
14814W        W74251  44.426  40.523   0.389
14815W        W74252  20.073  33.062   3.746
14816W        W74253  36.930  32.636  13.412
14817W        W74254  12.184   0.917  11.498
14818W        W74255  25.976   5.722   0.789
14819W        W74256  23.050  44.772  14.401
14820W        W74257   8.720  18.761   1.925
14821W        W74258  29.941  33.395   2.268
14822W        W74259  19.062  14.234   4.764
14823W        W74260  42.951  18.787  11.471
14824W        W74261  43.489  13.303  12.964
14825W        W74262  12.802  21.521  10.536
14826W        W74263  31.055  41.963   1.810
14827W        W74264  44.356  14.608   4.762
14828W        W74265  20.743  32.442  14.919
14829W        W74266   7.885  32.391   2.748
14830W        W74267  42.909  26.460  13.345
14831W        W74268   3.937  26.586  11.994
14832W        W74269  10.790  12.216   0.472
14833W        W74270   5.345   2.963   4.307
14834W        W74271  34.099  35.487   0.242
14835W        W74272   3.264   7.698   0.764
14836W        W74273  43.986  11.720  14.460
14837W        W74274  10.694  11.290  14.898
14838W        W74275  29.997   7.738   4.328
14839W        W74276  37.454  37.845  11.937
14840W        W74277  30.635  36.922   1.271
14841W        W74278  22.108   0.863  13.807
14842W        W74279  28.140  24.205  14.484
14843W        W74280  15.679  21.109  13.918
14844W        W74281  24.569  19.101   2.418
14845W        W74282  42.820   5.211  14.993
14846W        W74283   6.775  14.304   1.400
14847W        W74284  24.179   4.352  13.482
14848W        W74285  41.466  35.362   3.832
14849W        W74286  11.314  23.199   0.751
14850W        W74287   7.800  13.230  13.931
14851W        W74288  21.139  35.573  13.908
14852W        W74289  20.090  38.555  11.575
14853W        W74290  25.988  10.373  10.934
14854W        W74291  15.794   9.767  14.467
14855W        W74292  20.683   4.786  10.482
14856W        W74293  27.677   3.756   1.247
14857W        W74294  24.609  32.972  14.891
14858W        W74295   5.811   6.897   2.748
14859W        W74296  29.163   4.340  14.899
14860W        W74297  22.582  13.739   3.165
14861W        W74298   7.882  24.139   1.876
14862W        W74299   9.156  23.203   4.343
14863W        W74300  24.632  29.646   0.941
14864W        W74301  34.953  43.422  13.538
14865W        W74302   7.697  27.142  14.901
14866W        W74303  39.355  32.437  10.891
14867W        W74304  35.005  42.524  11.581
14868W        W74305  12.324  31.936  13.795
14869W        W74306  43.308  34.900  14.457
14870W        W74307  36.866  44.391   4.194
14871W        W74308  17.753  44.800  10.889
14872W        W74309  19.047   1.964  12.380
14873W        W74310   7.683  16.122  13.817
14874W        W74311   1.296  24.557   2.769
14875W        W74312  32.968  24.550   4.215
14876W        W74313  43.298  40.825  11.576
14877W        W74314   1.955  38.964  13.430
14878W        W74315   4.834   5.798   4.320
14879W        W74316  30.002  39.044   0.434
14880W        W74317   2.928  43.292   1.302
14881W        W74318  40.034  39.501   3.659
14882W        W74319  18.741  26.101   4.287
14883W        W74320  35.899  44.964   2.845
14884W        W74321  40.343  29.514   2.724
14885W        W74322  31.469  25.140   0.820
14886W        W74323  14.642  39.827  14.794
14887W        W74324   8.183   1.958  13.037
14888W        W74325  21.622  35.935  10.941
14889W        W74326  11.198  20.109  10.444
14890W        W74327   6.304   0.865   1.259
14891W        W74328  23.680  32.577   3.196
14892W        W74329  44.916  30.416  11.860
14893W        W74330   0.940  34.868  13.039
14894W        W74331  44.860   0.917   4.159
14895W        W74332  19.609  42.971   1.345
14896W        W74333   5.749  20.113   2.767
14897W        W74334  37.565   1.280   0.919
14898W        W74335  14.238  19.285  12.087
14899W        W74336  42.933  29.006   3.663
14900W        W74337   5.870  38.440  14.904
14901W        W74338   6.726  44.338  10.474
14902W        W74339  16.159   1.360  10.513
14903W        W74340  35.524   9.668   2.866
14904W        W74341   9.747  31.544   3.191
14905W        W74342  31.921   2.472  13.904
14906W        W74343   2.848  42.448   4.685
14907W        W74344  26.680  27.173  12.397
14908W        W74345   0.840  36.559   2.723
14909W        W74346   6.261  26.987  11.907
14910W        W74347  43.969  42.806  11.487
14911W        W74348  24.181  21.187   9.979
14912W        W74349  26.161   1.820   0.314
14913W        W74350  21.140  41.413   1.357
14914W        W74351   2.776  28.563   0.397
14915W        W74352  32.975  37.043   2.395
14916W        W74353   1.875  18.603   0.352
14917W        W74354  11.272  23.154  13.862
14918W        W74355  18.760  36.544  11.417
14919W        W74356   0.801  11.720   0.458
14920W        W74357  15.755  39.485   0.800
14921W        W74358  41.321  17.564   1.824
14922W        W74359  25.620  33.079   4.228
14923W        W74360   3.277  44.865  13.333
14924W        W74361  33.500  35.956   2.771
14925W        W74362  27.601  16.156  12.836
14926W        W74363  25.017  40.516  12.039
14927W        W74364   6.216   9.859   3.656
14928W        W74365  10.350  23.124  10.951
14929W        W74366  11.359  19.669  11.980
14930W        W74367  31.057   4.760  12.349
14931W        W74368  27.610   2.797   3.231
14932W        W74369  28.039  34.965  11.871
14933W        W74370  31.949   4.933  14.921
14934W        W74371  19.122  36.491  12.386
14935W        W74372  25.472  41.307   3.662
14936W        W74373  24.187   8.348   2.795
14937W        W74374  13.744  41.859   4.612
14938W        W74375  16.698  18.287  14.943
14939W        W74376  40.968  44.961   3.184
14940W        W74377   4.809  28.180  14.824
14941W        W74378  24.018   0.811  11.034
14942W        W74379  28.641  16.313  12.989
14943W        W74380  33.417  26.003  12.990
14944W        W74381  26.023  25.065   0.726
14945W        W74382  29.964  35.089  10.927
14946W        W74383  13.282  43.478  11.599
14947W        W74384   9.237  25.213  13.030
14948W        W74385  38.945  40.873   2.865
14949W        W74386  16.604  28.588   1.309
14950W        W74387  15.742  15.661  11.964
14951W        W74388  33.486  40.025  13.005
14952W        W74389  10.822  31.491   4.608
14953W        W74390  36.894  31.506   3.296
14954W        W74391  34.454  25.214  11.974
14955W        W74392  13.253  26.535   0.330
14956W        W74393  32.535  43.960   1.779
14957W        W74394  10.221   9.775  13.499
14958W        W74395  24.534  14.328  14.921
14959W        W74396  15.172  20.738   4.699
14960W        W74397   4.398  23.710   9.575
14961W        W74398  26.474  39.520  13.044
14962W        W74399   6.799  26.645   1.394
14963W        W74400  14.154   8.901  12.999
14964W        W74401  13.775  35.406  11.570
14965W        W74402  43.475  17.065   2.194
14966W        W74403  44.472  14.132  12.986
14967W        W74404   8.853  15.742  14.466
14968W        W74405  16.188  13.333   0.314
14969W        W74406  15.739  20.700  12.852
14970W        W74407  32.026  34.394  13.860
14971W        W74408  40.996  29.043   3.230
14972W        W74409   4.797  42.971  10.494
14973W        W74410  12.621  12.240   2.282
14974W        W74411  20.116  35.021   4.172
14975W        W74412  22.600   1.787   4.274
14976W        W74413  25.163  35.586   4.691
14977W        W74414  40.025  27.164  13.884
14978W        W74415  26.489  32.095  12.035
14979W        W74416   2.779  35.091  12.551
14980W        W74417  29.466   0.425  12.399
14981W        W74418   4.777  35.450   4.821
14982W        W74419  14.277   6.872  13.009
14983W        W74420  16.109  34.537  11.979
14984W        W74421   2.472  31.971  13.979
14985W        W74422  18.115   1.267  13.323
14986W        W74423  20.661  29.117  13.905
14987W        W74424  13.628   4.220  12.005
14988W        W74425  44.807  22.030  14.932
14989W        W74426   5.933  10.773   3.705
14990W        W74427   7.705  13.170   0.312
14991W        W74428  29.453  44.976  11.899
14992W        W74429  41.980  38.480  14.002
14993W        W74430  28.971  10.283   4.168
14994W        W74431  13.842  44.295   2.283
14995W        W74432  44.905   5.804  14.897
14996W        W74433   9.811  44.332   1.794
14997W        W74434  37.956  39.026  12.080
14998W        W74435   0.746   5.260  12.089
14999W        W74436  41.013  12.128   1.295
15000W        W74437  18.248  22.074  12.081
15001W        W74438  44.304  43.895  13.437
15002W        W74439   2.397  10.691   0.329
15003W        W74440   0.370  40.313  10.043
15004W        W74441  28.106  35.860   4.800
15005W        W74442  30.557  18.168  11.865
15006W        W74443  15.090  41.449  14.293
15007W        W74444  44.963  44.939  12.071
15008W        W74445  38.441  38.377   0.422
15009W        W74446  41.486  41.486   3.207
15010W        W74447   6.361  44.930  13.824
15011W        W74448  35.515   7.758  10.435
15012W        W74449  29.463   1.793  13.049
15013W        W74450  19.596  26.118   2.281
15014W        W74451  31.047  10.792   4.792
15015W        W74452  11.147  22.684   2.228
15016W        W74453  34.604  21.057  10.102
15017W        W74454  43.842  40.343   0.302
15018W        W74455  16.162  38.538  14.006
15019W        W74456   1.457   5.691   1.777
15020W        W74457  14.675   3.859  11.024
15021W        W74458   3.857  30.526  12.400
15022W        W74459  36.551   5.329  12.388
15023W        W74460  38.942  24.596   4.724
15024W        W74461   4.306  10.272   0.909
15025W        W74462   2.954   6.275  13.431
15026W        W74463   3.912  15.612   0.344
15027W        W74464  37.378  11.846  12.971
15028W        W74465  25.700  10.849  13.829
15029W        W74466   2.297   4.926   2.347
15030W        W74467  31.990  20.738  13.853
15031W        W74468  28.003  19.050  14.879
15032W        W74469  36.361  22.568   3.746
15033W        W74470  28.442  16.233  14.926
15034W        W74471  39.467  28.963   4.225
15035W        W74472  15.097  20.695  12.058
15036W        W74473  21.203  31.405  14.900
15037W        W74474  41.509  15.147  14.296
15038W        W74475  21.140   7.751   2.339
15039W        W74476   2.769   5.795  10.421
15040W        W74477  28.676  19.580   1.815
15041W        W74478  17.084  15.789   4.291
15042W        W74479  25.136  27.481  10.126
15043W        W74480  17.749   3.748   0.398
15044W        W74481  21.056   2.859   2.668
15045W        W74482  30.150  35.508   4.622
15046W        W74483   2.781  10.181  13.013
15047W        W74484  12.800  40.860   4.730
15048W        W74485  40.863  28.675  12.473
15049W        W74486  23.216  17.612   2.846
15050W        W74487  20.585  25.605  11.051
15051W        W74488  13.147  11.848  12.910
15052W        W74489  33.927  27.075  10.553
15053W        W74490  12.857  35.537  12.426
15054W        W74491  19.045  25.177  11.999
15055W        W74492   8.835  32.132  12.424
15056W        W74493   4.257  29.429  12.348
15057W        W74494  22.685   2.282   2.684
15058W        W74495   4.907  39.336   4.270
15059W        W74496  38.460   4.213  10.585
15060W        W74497  31.898  44.339  10.480
15061W        W74498  34.919  14.291   0.394
15062W        W74499  21.609  30.140  12.021
15063W        W74500  21.167  32.583  11.084
15064W        W74501  23.005  18.659   0.772
15065W        W74502  36.558  11.858  11.459
15066W        W74503  20.272  40.382  10.980
15067W        W74504  12.304  40.812  10.529
15068W        W74505  33.595  15.653  12.041
15069W        W74506   4.323   3.272   1.274
15070W        W74507  12.712  22.022   3.672
15071W        W74508  44.468   5.843   3.636
15072W        W74509   7.413  18.614  10.984
15073W        W74510  31.000   8.327   1.421
15074W        W74511   5.843   6.921  12.548
15075W        W74512  29.978  29.110   0.959
15076W        W74513   0.428  17.081   4.672
15077W        W74514  41.902   4.882  14.888
15078W        W74515   8.279  27.547  13.043
15079W        W74516  30.567   2.945  12.077
15080W        W74517  14.111  12.314  13.523
15081W        W74518  26.618  27.521  10.404
15082W        W74519  39.819  33.404   1.366
15083W        W74520  10.166  13.310   3.274
15084W        W74521  10.327  44.413   1.277
15085W        W74522  12.693  20.742   1.756
15086W        W74523  32.968  31.466  11.018
15087W        W74524   0.313  34.459  13.918
15088W        W74525  17.574  38.873   3.156
15089W        W74526  42.870  23.525  12.932
15090W        W74527  31.418  10.764   2.267
15091W        W74528  20.540   5.756  13.842
15092W        W74529  33.413  18.052   0.949
15093W        W74530  24.130  19.654  12.519
15094W        W74531  38.833   3.771   1.924
15095W        W74532  22.184  10.232   4.316
15096W        W74533  16.311  35.892  13.040
15097W        W74534  33.985  35.035  12.944
15098W        W74535  27.682  15.632   3.738
15099W        W74536   4.230  17.691   1.735
15100W        W74537  16.281   9.257  13.446
15101W        W74538  18.218  24.186   3.866
15102W        W74539  40.528  38.378   4.747
15103W        W74540  22.023  15.708   1.708
15104W        W74541  44.376  25.550  14.374
15105W        W74542  41.455  36.385   5.657
15106W        W74543  15.280   6.206   0.888
15107W        W74544  30.954  44.762  10.461
15108W        W74545   7.226  19.215   2.866
15109W        W74546   1.335   9.277   1.443
15110W        W74547  42.922  32.505   2.838
15111W        W74548  16.197  23.533   1.832
15112W        W74549  30.528  29.120   0.280
15113W        W74550   4.730  39.343   3.247
15114W        W74551  16.200  18.214  13.352
15115W        W74552  39.473  21.668  13.419
15116W        W74553  30.481  42.512  14.018
15117W        W74554   2.439  42.958   5.237
15118W        W74555  17.215  39.897  13.884
15119W        W74556  34.086  19.042   2.219
15120W        W74557  17.713  31.057   4.228
15121W        W74558  34.987  20.730  14.468
15122W        W74559  42.288   8.859  14.385
15123W        W74560  12.706  39.964   1.857
15124W        W74561  23.072  31.647   3.242
15125W        W74562  22.146  25.991   4.164
15126W        W74563   9.873  17.560  14.022
15127W        W74564  28.982  31.004  12.980
15128W        W74565  38.846  35.471   4.657
15129W        W74566  20.175  11.256   4.325
15130W        W74567   7.208   6.785   2.408
15131W        W74568   1.240  11.337   3.304
15132W        W74569  29.111  34.467   4.119
15133W        W74570  23.496  41.841  14.281
15134W        W74571   8.721  37.952   1.828
15135W        W74572  14.814  34.380  11.954
15136W        W74573  16.665   8.867   1.313
15137W        W74574  31.140  25.591  10.161
15138W        W74575  25.170  38.472   4.350
15139W        W74576   3.413   5.376  12.479
15140W        W74577   4.815  13.668  14.974
15141W        W74578  34.034  39.466   1.230
15142W        W74579  21.620   4.304   4.835
15143W        W74580   9.170  41.849  14.866
15144W        W74581  28.991  33.038   2.697
15145W        W74582  21.569  23.611  12.895
15146W        W74583  42.406  11.305   1.445
15147W        W74584  15.126  39.439   1.236
15148W        W74585  44.948  26.503  13.343
15149W        W74586  38.366  41.040  12.375
15150W        W74587   4.277   2.900  14.396
15151W        W74588  26.492  28.963  10.127
15152W        W74589   8.898  24.995   9.946
15153W        W74590   6.401  16.680  13.869
15154W        W74591  16.771  13.705   4.802
15155W        W74592  36.486  24.570   4.320
15156W        W74593   6.740  30.916  13.061
15157W        W74594   3.268  44.995  11.927
15158W        W74595   1.919  43.420  14.302
15159W        W74596  12.824  25.625   0.289
15160W        W74597  30.590   3.378   3.338
15161W        W74598  33.049  11.312   2.240
15162W        W74599  30.965  11.195  11.485
15163W        W74600  36.069  32.094   0.377
15164W        W74601  34.918  22.747  12.957
15165W        W74602  42.928  22.647  13.517
15166W        W74603  17.648  22.057  12.576
15167W        W74604  44.011  16.291   4.120
15168W        W74605  12.717   2.388   1.857
15169W        W74606  38.918  43.965   2.266
15170W        W74607  22.173  11.759   1.910
15171W        W74608  27.680  44.268  12.465
15172W        W74609  31.013  42.777  11.400
15173W        W74610  21.692   3.814   3.640
15174W        W74611  11.720  27.136  14.342
15175W        W74612  28.653  11.156   2.844
15176W        W74613   5.809   8.244  13.898
15177W        W74614  14.208  44.997   1.880
15178W        W74615   7.265  38.008  11.867
15179W        W74616  39.014  19.775   3.302
15180W        W74617  17.064  29.146  10.591
15181W        W74618  11.837  25.613   0.873
15182W        W74619  37.906  41.006   5.614
15183W        W74620  12.265  10.170  12.998
15184W        W74621  10.315  40.486  11.107
15185W        W74622   2.757  33.474  10.549
15186W        W74623  40.955  26.029   2.724
15187W        W74624  43.367  22.596  13.897
15188W        W74625   4.332  26.647  14.412
15189W        W74626  33.109  13.823   1.709
15190W        W74627   2.232   4.413  12.393
15191W        W74628  23.122  19.209  13.925
15192W        W74629   0.281  10.783   9.566
15193W        W74630  22.672  21.717  10.981
15194W        W74631   4.942  38.526  10.438
15195W        W74632   6.867  40.459  13.876
15196W        W74633  21.617   6.799   2.879
15197W        W74634  38.998  38.040  12.424
15198W        W74635  24.499   6.702   0.872
15199W        W74636  38.494   2.787   2.735
15200W        W74637  44.906  40.484  13.453
15201W        W74638   7.398  27.644  12.352
15202W        W74639  21.738  14.830   0.926
15203W        W74640  10.304  34.017   2.411
15204W        W74641  15.240  23.142   2.285
15205W        W74642  31.566   4.356   4.294
15206W        W74643   9.167  18.223   5.116
15207W        W74644  30.655   3.941  14.912
15208W        W74645   8.293  42.790  14.972
15209W        W74646  24.104   7.807  11.088
15210W        W74647  44.757  33.892  14.903
15211W        W74648  29.446  35.464  11.470
15212W        W74649  37.338  35.106   4.179
15213W        W74650  20.247   0.410   1.361
15214W        W74651  38.841  21.645  10.626
15215W        W74652  16.234  42.831   1.446
15216W        W74653  40.471   0.285  14.457
15217W        W74654  13.622  16.134  14.309
15218W        W74655  11.350  12.705  11.868
15219W        W74656  40.467  30.914  14.328
15220W        W74657  31.905  10.645  14.390
15221W        W74658  21.226   0.476  10.120
15222W        W74659  44.759  31.993  13.448
15223W        W74660   9.309  14.707   0.908
15224W        W74661  25.616  38.458  14.488
15225W        W74662  24.720  31.987   1.410
15226W        W74663  32.954   5.417  12.488
15227W        W74664   4.896   9.824   3.371
15228W        W74665   8.760  25.679  14.953
15229W        W74666  13.124  32.052   5.128
15230W        W74667  24.080   5.876  12.442
15231W        W74668  10.280  35.396   4.714
15232W        W74669  42.007  42.453   0.442
15233W        W74670  15.783  16.262   5.122
15234W        W74671  44.789  29.670   1.451
15235W        W74672  17.177  27.666   4.790
15236W        W74673  18.236  13.623   2.844
15237W        W74674  24.669   5.736  14.464
15238W        W74675  19.665  26.032   1.352
15239W        W74676  13.842  39.314  13.046
15240W        W74677  39.023  35.904  10.138
15241W        W74678  18.129  32.466  13.042
15242W        W74679  24.723   0.952  12.859
15243W        W74680  36.924  17.296   0.349
15244W        W74681  24.080  13.759   4.146
15245W        W74682  34.396  12.635   0.370
15246W        W74683  12.257  12.154  12.511
15247W        W74684  19.670  27.993   4.663
15248W        W74685  28.601  41.324   1.924
15249W        W74686  25.515   7.376  10.102
15250W        W74687  18.086   7.857  14.888
15251W        W74688  14.788   6.389  14.823
15252W        W74689  20.671  20.559  13.993
15253W        W74690  28.160  24.974  12.981
15254W        W74691  43.815   9.354   3.340
15255W        W74692  33.434  41.818   0.810
15256W        W74693  31.984  38.917  11.446
15257W        W74694  36.966   3.430   3.289
15258W        W74695  35.922  21.691  11.591
15259W        W74696  26.053  12.286  10.405
15260W        W74697  19.697  10.139   1.843
15261W        W74698  13.109  36.020  11.548
15262W        W74699  34.012  21.541   3.732
15263W        W74700  40.884  19.157  14.415
15264W        W74701  28.620  43.295  10.403
15265W        W74702  10.641  40.512  14.764
15266W        W74703  12.611  38.503   3.238
15267W        W74704  41.040  22.055   0.249
15268W        W74705  34.974  31.936  12.045
15269W        W74706  23.645  32.889   0.896
15270W        W74707  33.067   7.718  14.016
15271W        W74708  11.288  21.136   2.299
15272W        W74709  44.866  12.175   5.306
15273W        W74710   9.877  38.515  11.995
15274W        W74711  40.443  43.455   4.817
15275W        W74712  35.873  38.976   4.124
15276W        W74713   2.964  31.434   4.299
15277W        W74714  26.015  22.113   3.807
15278W        W74715  21.726  18.084  14.018
15279W        W74716  41.362  17.583  13.395
15280W        W74717  32.500   0.373  12.859
15281W        W74718  35.109  10.175  14.382
15282W        W74719   1.804  16.088   1.810
15283W        W74720  40.439  17.239   0.446
15284W        W74721  30.639  20.161  13.548
15285W        W74722  33.903  16.242  10.548
15286W        W74723   8.715  30.999   2.715
15287W        W74724   6.690  19.073  10.935
15288W        W74725  30.087  16.737   0.337
15289W        W74726  29.134  36.911   0.298
15290W        W74727  28.656  26.952  10.583
15291W        W74728  25.548  17.577   3.837
15292W        W74729   4.699  15.716   1.323
15293W        W74730   1.886  38.911  10.420
15294W        W74731  33.095  18.597  12.444
15295W        W74732   6.836  35.364   1.847
15296W        W74733   0.468  30.517  10.634
15297W        W74734  13.732  29.074  11.505
15298W        W74735  31.063   0.931  14.997
15299W        W74736   2.351  36.395  11.605
15300W        W74737  12.155  40.404  11.892
15301W        W74738  11.865   9.887  11.029
15302W        W74739  18.098   6.257  13.400
15303W        W74740   3.866  19.112  14.887
15304W        W74741  19.254  42.895   3.350
15305W        W74742  19.177  10.775   4.191
15306W        W74743  36.951  16.597  13.369
15307W        W74744  26.553  16.636  14.879
15308W        W74745  40.317  37.983  12.379
15309W        W74746  36.894   0.887   0.727
15310W        W74747  14.745  35.411   0.296
15311W        W74748  27.004  22.016   3.145
15312W        W74749  17.149  31.486   2.296
15313W        W74750   9.355  23.513   2.304
15314W        W74751  41.798  24.202  14.874
15315W        W74752  27.141  35.597  12.536
15316W        W74753   1.383   7.218   3.283
15317W        W74754  10.150  37.082   3.146
15318W        W74755   8.297  40.493  12.095
15319W        W74756  39.490   6.841   0.297
15320W        W74757  30.437  25.976   9.936
15321W        W74758  12.192   3.265  12.359
15322W        W74759  29.073   9.850   3.289
15323W        W74760   5.816  14.292   1.443
15324W        W74761  38.411  11.845   2.298
15325W        W74762   2.406  43.770  11.592
15326W        W74763  18.162  43.382   2.725
15327W        W74764  35.926  27.127  11.395
15328W        W74765  36.913  30.001  13.835
15329W        W74766   9.357  42.307  11.608
15330W        W74767   2.458  33.114   4.714
15331W        W74768  28.520  27.093   3.842
15332W        W74769  11.161  23.614   4.787
15333W        W74770   5.859   3.763   2.231
15334W        W74771  39.917  31.015   0.301
15335W        W74772   1.735  29.950  13.938
15336W        W74773  30.565  21.580  10.910
15337W        W74774   9.743  41.891  12.570
15338W        W74775  10.181  26.616  12.519
15339W        W74776  40.974  30.090  14.513
15340W        W74777  38.442  40.943  10.574
15341W        W74778  17.792  13.814  13.486
15342W        W74779  12.795   9.310   3.175
15343W        W74780  33.438  28.465   2.288
15344W        W74781  37.049   2.826  11.558
15345W        W74782  24.703  38.876  13.466
15346W        W74783   5.281  26.061  11.090
15347W        W74784  33.132  21.746   0.810
15348W        W74785  32.528   2.913  14.481
15349W        W74786  28.487  13.196  12.953
15350W        W74787  34.057  26.024  14.379
15351W        W74788  16.720  12.674  12.536
15352W        W74789  17.070  29.473  13.321
15353W        W74790  24.594  27.681   3.675
15354W        W74791  39.013  19.182  10.531
15355W        W74792   6.247  30.604  13.879
15356W        W74793  15.634  12.271   3.687
15357W        W74794   7.736  13.689  10.614
15358W        W74795  32.074  28.597   3.762
15359W        W74796  42.946  21.071   5.239
15360W        W74797   6.855  35.410   2.373
15361W        W74798  29.664  38.018   0.787
15362W        W74799  38.528   5.231  13.341
15363W        W74800  32.111   9.653   4.813
15364W        W74801  18.579  16.145  12.095
15365W        W74802  37.083   5.223   4.734
15366W        W74803  34.551  18.560  10.502
15367W        W74804  10.661  43.875  12.503
15368W        W74805  28.647  10.303   0.966
15369W        W74806   8.751   1.257  14.297
15370W        W74807   8.352   8.407  14.494
15371W        W74808  25.149  35.476  14.335
15372W        W74809   3.735  39.923   1.342
15373W        W74810  33.965   6.246   0.321
15374W        W74811  35.048  26.961   1.730
15375W        W74812  14.689  33.996   1.430
15376W        W74813  28.944  28.523   4.766
15377W        W74814   6.275  28.126  13.434
15378W        W74815   0.875  24.096   1.730
15379W        W74816  39.843  24.542  12.504
15380W        W74817  25.707  10.372   9.639
15381W        W74818   9.323   5.708  14.956
15382W        W74819  43.410  37.851  12.999
15383W        W74820  13.203  23.648  12.355
15384W        W74821   1.896   4.770   2.880
15385W        W74822  33.886  40.862  13.796
15386W        W74823  23.607  36.489  13.332
15387W        W74824  35.384   8.281   3.854
15388W        W74825  22.122  11.152   0.389
15389W        W74826  18.138  16.647   2.662
15390W        W74827  31.005  29.932  12.500
15391W        W74828  40.020  11.138  13.475
15392W        W74829  39.839  10.655   3.366
15393W        W74830  40.961  29.949  11.437
15394W        W74831  34.450   2.801   1.698
15395W        W74832   8.349   6.274  13.466
15396W        W74833  24.221   4.722   0.359
15397W        W74834  22.238  27.602  13.421
15398W        W74835  31.501  39.926   3.154
15399W        W74836  41.889  38.470  14.938
15400W        W74837  32.902  13.341  14.772
15401W        W74838  43.403  18.764  11.559
15402W        W74839  10.338  37.941   2.211
15403W        W74840  20.666  21.615  10.133
15404W        W74841  40.538  11.860   0.393
15405W        W74842   1.814  12.259  14.330
15406W        W74843  25.185   6.870  14.906
15407W        W74844  13.632   9.251  12.447
15408W        W74845  20.272  29.167  11.001
15409W        W74846   9.783  18.628  10.581
15410W        W74847  40.496   4.236  10.980
15411W        W74848   5.271  10.879  14.950
15412W        W74849   8.671  12.629   3.172
15413W        W74850  11.156  33.443  13.998
15414W        W74851  17.089  14.813  11.931
15415W        W74852  20.677   5.756   2.229
15416W        W74853  18.554  40.985  11.973
15417W        W74854   5.835   2.300  12.487
15418W        W74855  13.758  23.558   0.358
15419W        W74856  21.117   6.235   2.674
15420W        W74857  25.013  28.462   2.688
15421W        W74858  23.711  30.604   1.696
15422W        W74859   5.890  36.875   2.188
15423W        W74860  39.522   7.672   0.836
15424W        W74861   9.867  41.358   3.371
15425W        W74862  30.090   4.742  12.543
15426W        W74863  16.675  38.977  10.506
15427W        W74864  17.226  26.641  10.538
15428W        W74865  18.083  43.457   4.116
15429W        W74866  27.033  35.604   3.253
15430W        W74867  26.665  21.637   9.987
15431W        W74868  18.176  16.141  11.966
15432W        W74869  26.031  29.500  12.496
15433W        W74870  22.640  26.580  12.851
15434W        W74871  41.356  24.523   4.770
15435W        W74872   3.891  43.907  12.473
15436W        W74873   0.798  40.901  13.376
15437W        W74874  41.889  42.876   4.241
15438W        W74875  31.483  24.201   2.392
15439W        W74876   0.983  29.529   4.773
15440W        W74877   6.353  44.844  10.429
15441W        W74878  29.662   0.818  12.884
15442W        W74879   8.871   6.903   0.749
15443W        W74880   1.846  40.898   4.196
15444W        W74881  43.515  20.727   3.379
15445W        W74882   1.293   8.337  11.051
15446W        W74883  23.028  41.917  10.456
15447W        W74884  20.194  23.045  14.407
15448W        W74885  26.011  24.643   0.427
15449W        W74886  10.170  24.054  11.401
15450W        W74887  17.184   8.826   3.751
15451W        W74888  38.393  30.009  12.891
15452W        W74889  34.485  43.974  12.385
15453W        W74890  39.381  37.906   4.122
15454W        W74891  19.134   4.277   4.808
15455W        W74892  10.760  20.609  12.850
15456W        W74893  20.593  43.305  14.339
15457W        W74894  31.462  17.179  10.929
15458W        W74895  30.548  17.193   1.286
15459W        W74896  40.322  32.539   4.616
15460W        W74897  20.046  12.756  11.881
15461W        W74898  28.930  19.715  11.446
15462W        W74899  14.189  18.733  13.364
15463W        W74900  39.028  14.799  10.048
15464W        W74901  15.088  40.357   1.911
15465W        W74902  11.748  39.058   0.308
15466W        W74903  34.963  32.532  12.353
15467W        W74904  36.413  34.593  14.338
15468W        W74905  25.119   0.856  11.905
15469W        W74906  29.135  12.304   3.798
15470W        W74907  27.144  28.970   3.293
15471W        W74908  10.848  32.562   0.456
15472W        W74909   5.912  16.292   3.830
15473W        W74910  40.508  37.376  14.393
15474W        W74911  38.902  12.619   1.893
15475W        W74912  21.693   8.168  13.853
15476W        W74913   8.672  22.729   4.676
15477W        W74914  42.908  11.180  10.563
15478W        W74915   3.405  41.884   3.294
15479W        W74916   1.247  15.141   0.266
15480W        W74917   2.297  24.518   0.829
15481W        W74918  12.305  31.408  10.976
15482W        W74919  17.560  31.459   0.347
15483W        W74920  15.718   5.698   0.481
15484W        W74921   2.236  33.090   0.948
15485W        W74922  31.140  44.814  11.908
15486W        W74923  17.260  24.522   3.311
15487W        W74924  14.120  26.979   2.331
15488W        W74925  34.977  20.562   4.703
15489W        W74926  44.937   6.900   3.664
15490W        W74927  30.076   7.177  13.329
15491W        W74928  26.098  23.225  11.968
15492W        W74929  38.945  10.206  12.501
15493W        W74930  27.178  30.102   4.762
15494W        W74931  29.050  28.516  13.819
15495W        W74932   9.262   4.383   2.833
15496W        W74933  38.527   5.864  13.929
15497W        W74934  12.165  26.095   1.393
15498W        W74935  24.210  16.704   4.247
15499W        W74936  31.027  10.243  10.064
15500W        W74937   7.258   4.370   1.709
15501W        W74938  33.035  42.897  13.539
15502W        W74939  26.202  44.485  13.461
15503W        W74940   2.911  31.560   4.756
15504W        W74941  13.784   9.341   0.918
15505W        W74942  18.248  43.000   2.252
15506W        W74943  31.418  12.723  14.480
15507W        W74944  10.817   2.738  13.998
15508W        W74945  32.028  14.272  10.568
15509W        W74946  20.203  20.180  11.056
15510W        W74947  36.564   7.772  12.435
15511W        W74948  44.313  11.274  12.094
15512W        W74949  30.469  28.082   0.479
15513W        W74950  34.968  18.697   4.221
15514W        W74951  17.184  24.703   1.308
15515W        W74952  42.302  41.464  12.993
15516W        W74953  22.037   8.690  13.809
15517W        W74954   0.825  21.511   0.463
15518W        W74955  26.177  14.318   5.246
15519W        W74956  43.430  21.231  12.339
15520W        W74957  18.242   0.954  12.900
15521W        W74958  13.794  18.665   3.243
15522W        W74959  41.468  26.177  10.613
15523W        W74960  28.064  33.409   1.734
15524W        W74961  19.145   2.883  14.776
15525W        W74962  21.110  38.400   0.284
15526W        W74963  30.102  17.211   3.778
15527W        W74964   1.347   8.169   3.696
15528W        W74965  43.967  31.956   0.405
15529W        W74966  25.498  34.885   4.724
15530W        W74967  36.426  30.508  13.321
15531W        W74968  27.550   1.388   2.187
15532W        W74969  29.104  29.659   0.317
15533W        W74970  33.535  26.109  11.542
15534W        W74971  41.820  35.986   3.358
15535W        W74972   1.273   5.392  12.500
15536W        W74973  34.930  15.311   0.280
15537W        W74974   0.355  31.939  10.427
15538W        W74975  35.043  19.125  12.924
15539W        W74976  30.443  23.068   2.240
15540W        W74977  33.477  31.592   2.737
15541W        W74978  33.073   2.957   3.364
15542W        W74979   0.973  28.613   1.791
15543W        W74980  33.128  39.811   1.279
15544W        W74981  29.552  15.584   2.406
15545W        W74982  39.507  11.218   2.871
15546W        W74983  30.123   2.859  10.579
15547W        W74984  37.483  26.199  14.509
15548W        W74985  22.622  27.612  13.793
15549W        W74986   3.317  38.456  12.430
15550W        W74987  41.970  34.989  14.467
15551W        W74988  28.104  16.147   1.772
15552W        W74989  12.793  28.149   4.285
15553W        W74990  40.842  28.009   0.916
15554W        W74991  35.109  23.647  10.982
15555W        W74992  21.207  17.566  12.561
15556W        W74993  37.947  22.141  12.090
15557W        W74994  33.077   4.789   1.259
15558W        W74995  43.003  11.244   3.337
15559W        W74996  25.052  27.094   1.791
15560W        W74997  20.122   2.295   2.819
15561W        W74998  38.469  41.875  12.025
15562W        W74999  12.851  33.576  14.500
15563W        W75000  26.149  39.378   2.224
15564W        W75001  32.483  34.085   3.796
15565W        W75002  34.070  13.277   2.702
15566W        W75003  31.933   3.311  14.306
15567W        W75004  29.146  42.438   1.280
15568W        W75005  16.694  28.994   4.782
15569W        W75006  43.902  40.549   1.721
15570W        W75007   6.771  30.513   5.796
15571W        W75008   5.786  37.506  11.118
15572W        W75009   8.251  33.981  12.472
15573W        W75010  29.160   0.972  13.979
15574W        W75011   4.445  13.326   1.315
15575W        W75012  17.801  15.177  14.994
15576W        W75013  18.224  44.413   0.399
15577W        W75014  25.601  39.880   4.808
15578W        W75015  35.396  33.386   1.897
15579W        W75016   7.408  15.223  11.609
15580W        W75017  15.251  41.327   2.864
15581W        W75018  17.667  16.692   1.738
15582W        W75019  41.872   8.790   4.211
15583W        W75020  39.994  12.303   1.740
15584W        W75021  32.468  39.380  11.123
15585W        W75022  39.835  34.088   4.234
15586W        W75023   8.825   8.668   2.693
15587W        W75024  21.737  15.217  12.560
15588W        W75025  22.176   8.875  10.488
15589W        W75026   8.235  27.575   0.309
15590W        W75027  42.334  26.137   4.145
15591W        W75028  27.690  33.117   2.831
15592W        W75029   5.396  10.295   0.833
15593W        W75030   1.930  31.973   3.294
15594W        W75031  22.250  42.285  10.920
15595W        W75032  11.666  22.043   3.202
15596W        W75033   5.762  18.170   2.237
15597W        W75034  17.084  36.052  12.881
15598W        W75035  39.373  27.672   1.900
15599W        W75036   6.701  34.447  14.818
15600W        W75037   3.899  15.714  11.402
15601W        W75038  17.720  28.996  11.963
15602W        W75039   1.839  40.493  11.380
15603W        W75040  29.426   5.418   2.774
15604W        W75041   7.839  33.042   2.381
15605W        W75042  44.919   6.747   1.439
15606W        W75043  31.003  35.030   3.655
15607W        W75044  44.503  44.894   3.642
15608W        W75045  11.644  35.092   5.113
15609W        W75046  18.190  15.326  12.953
15610W        W75047  34.424  35.998  13.427
15611W        W75048  19.712  24.622  11.057
15612W        W75049  43.313  22.081  10.645
15613W        W75050  42.360  39.317   2.879
15614W        W75051  24.674   1.266   0.363
15615W        W75052  13.181  17.578   2.774
15616W        W75053  32.392  20.662   4.205
15617W        W75054   1.939  17.290   1.730
15618W        W75055  31.617  23.993   2.832
15619W        W75056  12.260   8.190  14.353
15620W        W75057  34.119  22.048  10.495
15621W        W75058  39.317  33.071  10.928
15622W        W75059  33.392  39.338   4.164
15623W        W75060  12.824  25.975  12.024
15624W        W75061  16.632  26.963   0.927
15625W        W75062  34.039  19.184   4.250
15626W        W75063   0.796  12.734  11.856
15627W        W75064  18.135   5.750  13.540
15628W        W75065  23.064  17.646   0.360
15629W        W75066   3.870   5.324   0.368
15630W        W75067  24.116   3.362  14.372
15631W        W75068   3.411  23.022  11.605
15632W        W75069  38.338  31.517  13.483
15633W        W75070   4.226  37.846  13.329
15634W        W75071  20.180  22.241  12.002
15635W        W75072  22.234   8.804   1.741
15636W        W75073  33.905  35.552   0.838
15637W        W75074  44.483  39.975   2.413
15638W        W75075  26.969   6.428  13.029
15639W        W75076  11.303   8.820  10.977
15640W        W75077  43.875  40.968  11.555
15641W        W75078   8.255  17.774   2.290
15642W        W75079   8.879   2.393   4.629
15643W        W75080   6.699   2.810  10.611
15644W        W75081   0.926  39.857  10.948
15645W        W75082  30.968  18.569  10.453
15646W        W75083  30.974  22.652   3.830
15647W        W75084  17.679   6.291  13.059
15648W        W75085  36.391  17.257  13.375
15649W        W75086   3.752  20.751  14.905
15650W        W75087  20.061  23.617   4.803
15651W        W75088  21.629  20.702  12.356
15652W        W75089  30.488   2.893  10.457
15653W        W75090   4.802  17.276  13.812
15654W        W75091  31.532  31.996  13.359
15655W        W75092   6.786  33.057  11.999
15656W        W75093  10.637  14.719  10.917
15657W        W75094  15.666  31.497   3.843
15658W        W75095  41.451  35.959   4.690
15659W        W75096   9.677  39.923  14.902
15660W        W75097  41.863  13.150   2.687
15661W        W75098  41.937  36.956   0.406
15662W        W75099  15.587  20.132   4.813
15663W        W75100  26.116  32.892  12.431
15664W        W75101  22.037  27.448  11.946
15665W        W75102  10.337  32.965  11.503
15666W        W75103  34.995   3.411  14.509
15667W        W75104   6.725  33.120  12.538
15668W        W75105  35.860  35.453   0.934
15669W        W75106  41.037  36.389  12.848
15670W        W75107  41.938  37.505  14.468
15671W        W75108   6.419  38.376  12.053
15672W        W75109  41.374   9.263  10.448
15673W        W75110  23.517  15.274  12.435
15674W        W75111  35.511  26.560  11.099
15675W        W75112   5.274  13.324   2.274
15676W        W75113  33.520  15.252  10.949
15677W        W75114  34.961  15.253  14.981
15678W        W75115  29.022  42.863   1.766
15679W        W75116  13.625  28.506   2.716
15680W        W75117  19.232   3.262   1.728
15681W        W75118  38.896  25.536  11.934
15682W        W75119   2.365  32.391   1.252
15683W        W75120   8.382  16.118   4.648
15684W        W75121  20.597  22.129  14.964
15685W        W75122  40.897  42.006   3.791
15686W        W75123   8.326  24.108   1.221
15687W        W75124  25.021   3.319  14.368
15688W        W75125  41.006  24.588   0.326
15689W        W75126  29.592  18.777   1.858
15690W        W75127  21.069  43.360   4.715
15691W        W75128   4.824  34.994  11.541
15692W        W75129  16.760  33.445   0.265
15693W        W75130  33.478  19.056  11.548
15694W        W75131   7.414  22.119   1.788
15695W        W75132   2.385  27.483   2.243
15696W        W75133   9.864   5.394   0.449
15697W        W75134  25.663  38.464   3.654
15698W        W75135   4.245  40.932   0.952
15699W        W75136  23.057  32.500   1.849
15700W        W75137  10.228  12.215  13.309
15701W        W75138  32.054  17.076  12.440
15702W        W75139  41.935  26.079  13.857
15703W        W75140   4.756  24.176   0.483
15704W        W75141   0.374  28.058   1.353
15705W        W75142  18.145  35.527  14.347
15706W        W75143  44.968  39.479  11.873
15707W        W75144  13.741   1.791   0.741
15708W        W75145  18.155  34.492   4.136
15709W        W75146  28.947  22.531   3.677
15710W        W75147  41.026   2.437  11.405
15711W        W75148   5.877   4.862  12.396
15712W        W75149  44.962   2.288  12.965
15713W        W75150  42.926   1.364   4.796
15714W        W75151  22.132  22.746   0.376
15715W        W75152  35.014  20.037   2.255
15716W        W75153  15.111  34.073  11.902
15717W        W75154  19.270  29.972   3.235
15718W        W75155  21.042   8.387  13.525
15719W        W75156  13.718  13.199  12.439
15720W        W75157  32.984  35.100   2.327
15721W        W75158   9.257  44.443   4.121
15722W        W75159  11.791  25.614   3.329
15723W        W75160  21.641  25.968  14.288
15724W        W75161   8.303  18.723  14.901
15725W        W75162  34.587  29.576   4.252
15726W        W75163  31.907  27.000  14.001
15727W        W75164  42.341  29.508  10.500
15728W        W75165  20.151  15.087   0.854
15729W        W75166  23.659  30.532  13.329
15730W        W75167  26.582  19.281  11.387
15731W        W75168  35.989  43.790  11.972
15732W        W75169  35.880  22.073  13.430
15733W        W75170  29.471  30.927   4.765
15734W        W75171  36.969  22.099  14.780
15735W        W75172  12.250   3.300  13.381
15736W        W75173  15.640  44.007  10.000
15737W        W75174   5.730  15.773  11.129
15738W        W75175  40.856  38.478   0.249
15739W        W75176   9.362  16.808   2.793
15740W        W75177  34.591   0.448  11.550
15741W        W75178  33.910  41.803  13.525
15742W        W75179  21.598  15.223   1.261
15743W        W75180  11.175  23.050  10.484
15744W        W75181   6.836   4.774   1.223
15745W        W75182  42.023  24.043   4.241
15746W        W75183  38.937  44.993   1.769
15747W        W75184  14.270   5.334   0.897
15748W        W75185  11.286  29.435  10.474
15749W        W75186  16.793  28.013  14.325
15750W        W75187  11.841  12.794   3.774
15751W        W75188   2.864  42.787   2.197
15752W        W75189  17.107  20.236   0.824
15753W        W75190   0.909  25.658  14.513
15754W        W75191  22.082  11.823  13.792
15755W        W75192  19.053  35.433  10.639
15756W        W75193  33.536   2.951   4.286
15757W        W75194  20.257  34.041   4.217
15758W        W75195  13.246  44.979  13.013
15759W        W75196  43.391  35.500  10.514
15760W        W75197  29.998  33.002  11.448
15761W        W75198  28.523  31.570  10.891
15762W        W75199  42.311   4.324  14.376
15763W        W75200  22.151  41.357   9.968
15764W        W75201  15.171  13.690  11.461
15765W        W75202  28.032   0.762   5.082
15766W        W75203  23.546  19.187  11.927
15767W        W75204  32.415  25.562  12.402
15768W        W75205  44.807  15.146   2.750
15769W        W75206  33.401   5.414   4.785
15770W        W75207  37.854  28.528  11.478
15771W        W75208  33.058  40.472  11.937
15772W        W75209  16.234  29.018  14.360
15773W        W75210  29.431  42.845   2.856
15774W        W75211   8.307   7.293   0.431
15775W        W75212   0.943  40.956  12.074
15776W        W75213   9.386  43.766  11.928
15777W        W75214  32.092   1.975   0.878
15778W        W75215  39.935  37.078   0.811
15779W        W75216  25.703  13.290   0.807
15780W        W75217  39.466  34.371   1.927
15781W        W75218  43.906  17.176   4.600
15782W        W75219  32.443   2.379   4.333
15783W        W75220  14.766   9.795  14.504
15784W        W75221  44.884  32.627   2.697
15785W        W75222   5.386  41.843  14.938
15786W        W75223  42.306   8.264  10.516
15787W        W75224  31.490  37.842   0.924
15788W        W75225  18.632   8.202   1.813
15789W        W75226  40.316  38.886   0.889
15790W        W75227  25.590  25.523  11.980
15791W        W75228   7.736  42.839  13.507
15792W        W75229  43.281  34.572  12.347
15793W        W75230  26.996  18.057  13.021
15794W        W75231  22.020  42.003   4.268
15795W        W75232   2.281  23.556   4.723
15796W        W75233  20.157  10.357   0.962
15797W        W75234  41.888  39.042  12.852
15798W        W75235   8.211   7.878  13.317
15799W        W75236  11.330  40.507   1.359
15800W        W75237  21.567   1.905  13.965
15801W        W75238  25.014  20.234  13.531
15802W        W75239   6.293   7.847   0.759
15803W        W75240  14.659   9.153   4.776
15804W        W75241   3.353  33.487  14.875
15805W        W75242  30.111  18.160   4.765
15806W        W75243  24.210  26.972  10.563
15807W        W75244  38.988  21.198   0.940
15808W        W75245   6.719  29.089   4.268
15809W        W75246  23.573  33.893   1.908
15810W        W75247  10.761  18.208   4.190
15811W        W75248  34.431   0.922  14.787
15812W        W75249  13.147  13.751   3.760
15813W        W75250   0.294  33.955  13.926
15814W        W75251  16.591  30.535   3.372
15815W        W75252  36.446  25.581  12.546
15816W        W75253  30.081  17.620  11.463
15817W        W75254  19.204  43.885   1.436
15818W        W75255  14.299  35.869   0.877
15819W        W75256   2.242  20.725  14.016
15820W        W75257  43.958   5.739   1.316
15821W        W75258  13.222   3.897  10.563
15822W        W75259  36.098   7.379   3.781
15823W        W75260  15.094  42.016   0.471
15824W        W75261  24.064  36.525  11.562
15825W        W75262   9.659  32.932   0.388
15826W        W75263  21.611  13.769  14.995
15827W        W75264  32.559   9.204   1.220
15828W        W75265  36.997  29.637   1.826
15829W        W75266   4.786   6.295   2.732
15830W        W75267  28.105   4.418   1.866
15831W        W75268  31.921  34.084   3.815
15832W        W75269   2.263  16.632  13.799
15833W        W75270  40.371  37.524   1.808
15834W        W75271   5.276   5.848  13.360
15835W        W75272  39.936  42.468  11.475
15836W        W75273  30.913  14.108   4.608
15837W        W75274  30.474  19.758   3.177
15838W        W75275  21.647  12.832  11.437
15839W        W75276  35.903   5.289   4.350
15840W        W75277  32.557   1.923   4.272
15841W        W75278  12.705  39.533   0.857
15842W        W75279  38.418  43.383  10.557
15843W        W75280   0.416  12.195   5.594
15844W        W75281  19.130  38.556   4.167
15845W        W75282   6.232  22.630   4.269
15846W        W75283   9.867  14.103   3.345
15847W        W75284  36.078  30.139   3.837
15848W        W75285  28.043  41.032  11.590
15849W        W75286   1.733  39.462  12.836
15850W        W75287   5.281  29.518  11.547
15851W        W75288   8.386  12.121   2.684
15852W        W75289  41.419  43.273   0.885
15853W        W75290  12.855  31.591  12.840
15854W        W75291  28.595  40.979   0.429
15855W        W75292   8.214   9.729   0.916
15856W        W75293   5.312  37.976   4.721
15857W        W75294  24.575  21.262   0.303
15858W        W75295  39.052  14.100   0.306
15859W        W75296   8.233  34.102  11.533
15860W        W75297  28.520  20.607   1.714
15861W        W75298  38.867  15.593   1.228
15862W        W75299  26.073  24.673   4.258
15863W        W75300  38.535  23.667   4.229
15864W        W75301  31.489  18.106  13.316
15865W        W75302  17.193  42.369  14.952
15866W        W75303   6.314  21.185  13.907
15867W        W75304  25.029  25.587   2.694
15868W        W75305  10.866  11.126   1.822
15869W        W75306  16.760  26.598   1.872
15870W        W75307  11.718  39.896   4.348
15871W        W75308  41.823  41.369   5.263
15872W        W75309  14.321  25.502   0.936
15873W        W75310  27.070  38.959  11.938
15874W        W75311  23.684  41.904  10.976
15875W        W75312  17.104  32.552  14.028
15876W        W75313  39.878   7.895  13.424
15877W        W75314   6.765  20.177   4.684
15878W        W75315  23.622  30.909  10.500
15879W        W75316  39.004  23.710   2.229
15880W        W75317  28.448  22.212  13.954
15881W        W75318  35.935  16.220   2.855
15882W        W75319   7.347  35.884   3.775
15883W        W75320  22.044   9.666  12.465
15884W        W75321  14.754  31.145   3.847
15885W        W75322  24.225  19.268   2.856
15886W        W75323  11.280   8.370  13.870
15887W        W75324   5.865  14.672   4.818
15888W        W75325  24.033  14.315  12.870
15889W        W75326   7.388  11.304   4.229
15890W        W75327  17.181   4.837   4.142
15891W        W75328  24.052  20.053  11.983
15892W        W75329  42.999  38.882   4.252
15893W        W75330  17.616  23.185   3.327
15894W        W75331  10.694   4.210  14.437
15895W        W75332  39.434  37.363   1.805
15896W        W75333  11.241  24.980   2.810
15897W        W75334   6.823  20.625  13.409
15898W        W75335  16.589  43.332  13.346
15899W        W75336  20.640  19.188  13.862
15900W        W75337  13.128   2.324   2.740
15901W        W75338  24.022  40.845   3.693
15902W        W75339  40.433   7.790  12.404
15903W        W75340   8.184  34.440   1.855
15904W        W75341  24.697   6.877   4.340
15905W        W75342  40.338   3.451   4.245
15906W        W75343  16.729   8.312  13.455
15907W        W75344  24.096  29.429   4.727
15908W        W75345  27.565  18.713  10.462
15909W        W75346   0.844  12.777  12.979
15910W        W75347  29.564  15.693   3.703
15911W        W75348  21.093  25.631  14.986
15912W        W75349  28.580   8.823   0.816
15913W        W75350  44.779  17.088  12.828
15914W        W75351  30.935  42.479  14.792
15915W        W75352   7.175  30.475  10.419
15916W        W75353  25.704  31.513  10.576
15917W        W75354  18.661  11.271   0.787
15918W        W75355   5.900  28.646   3.834
15919W        W75356  27.067   8.865   3.848
15920W        W75357  16.704  20.597  11.441
15921W        W75358  23.698   5.712  13.325
15922W        W75359  19.181   3.370  12.557
15923W        W75360   4.416  29.056   0.254
15924W        W75361  16.220  42.995  12.381
15925W        W75362  29.024  30.506   0.759
15926W        W75363  35.477   9.223   4.154
15927W        W75364  34.470  25.529  11.088
15928W        W75365  22.673  43.446   1.829
15929W        W75366  13.159  26.154  12.556
15930W        W75367  30.960   6.209  12.011
15931W        W75368  20.544  27.500  14.984
15932W        W75369  26.988  31.646   0.823
15933W        W75370  40.889  26.955  11.953
15934W        W75371  20.694  34.381  11.486
15935W        W75372  25.145  15.583  11.910
15936W        W75373  37.534  43.330  14.999
15937W        W75374  28.635  10.210  12.426
15938W        W75375  29.051   6.253   2.769
15939W        W75376  44.001  23.135  12.970
15940W        W75377  10.169  40.516  11.423
15941W        W75378  15.161  29.473   4.237
15942W        W75379  33.431  21.689  11.470
15943W        W75380  17.191  21.184   1.733
15944W        W75381  38.025  39.916  13.917
15945W        W75382   4.756  39.448  14.804
15946W        W75383   3.214  38.990  11.531
15947W        W75384  33.128  15.086  13.370
15948W        W75385   2.900  11.705   1.397
15949W        W75386   9.857  23.160   3.862
15950W        W75387  25.986   4.826   2.687
15951W        W75388  19.113  36.541   3.842
15952W        W75389  27.585  26.501   2.405
15953W        W75390  17.219  40.405  13.376
15954W        W75391  23.132  15.292   2.674
15955W        W75392   6.752  36.887   1.853
15956W        W75393   7.220   5.404   1.236
15957W        W75394  27.589  24.073   4.745
15958W        W75395  12.120  21.578  13.948
15959W        W75396  10.242  41.491  11.392
15960W        W75397   5.333  41.467   3.732
15961W        W75398  35.394  14.206   0.467
15962W        W75399  16.623  19.228   4.131
15963W        W75400   6.882  43.767  14.903
15964W        W75401   9.795  42.356  11.496
15965W        W75402   7.846  37.927  10.895
15966W        W75403  40.032   3.815   4.776
15967W        W75404  38.898  42.296   1.433
15968W        W75405   0.831  11.867   4.286
15969W        W75406  42.493  34.532   3.240
15970W        W75407  44.398  24.027   2.730
15971W        W75408  23.013  40.371   0.482
15972W        W75409  44.452  18.707  10.457
15973W        W75410  26.534  33.408  12.539
15974W        W75411   4.704  43.424   5.293
15975W        W75412  25.208  22.721  12.426
15976W        W75413   6.398   6.186   4.631
15977W        W75414  17.565   5.241   1.845
15978W        W75415  26.579  37.564   2.846
15979W        W75416  23.497  23.108   2.776
15980W        W75417   6.703  36.530  12.568
15981W        W75418   6.186  24.644   2.255
15982W        W75419   8.846  17.639   3.774
15983W        W75420  40.508   1.754   0.950
15984W        W75421  34.983  42.873   4.159
15985W        W75422  30.948  41.357  14.398
15986W        W75423  34.581  35.449  10.444
15987W        W75424  28.591  24.541   1.839
15988W        W75425   0.348  29.622   0.248
15989W        W75426  14.821  38.567  13.039
15990W        W75427  29.464   3.252  14.275
15991W        W75428   3.772   6.740   4.819
15992W        W75429  14.192  32.115   0.847
15993W        W75430   7.310   1.771   3.766
15994W        W75431  23.223  44.296   3.635
15995W        W75432  15.608   8.711   4.716
15996W        W75433  16.219  42.775   2.224
15997W        W75434  39.331  23.618   4.142
15998W        W75435  41.868  11.702  14.822
15999W        W75436  18.558  38.346  14.826
16000W        W75437  38.455  34.117  11.518
16001W        W75438  39.894  14.649  14.464
16002W        W75439  42.825   8.732  12.915
16003W        W75440   6.840  11.778  12.575
16004W        W75441  27.645   3.915   2.859
16005W        W75442   7.907   1.849   3.353
16006W        W75443  43.902  34.062  13.518
16007W        W75444  17.696  40.390  13.332
16008W        W75445  37.573   7.281   4.137
16009W        W75446  15.216  31.069  13.369
16010W        W75447   9.806  10.735   1.279
16011W        W75448  33.081   4.285  12.837
16012W        W75449  41.846  39.362   0.817
16013W        W75450  38.396  18.614  13.860
16014W        W75451  17.570  34.451   1.296
16015W        W75452  44.283  22.032  13.308
16016W        W75453  28.677   1.463  14.478
16017W        W75454   5.797  44.470   4.736
16018W        W75455  27.537  39.342  12.444
16019W        W75456  25.054  26.070   3.812
16020W        W75457  22.226  33.508   4.706
16021W        W75458  40.983  36.868  12.395
16022W        W75459  22.740   3.353   5.090
16023W        W75460  37.397   4.785  12.575
16024W        W75461  10.759  23.991  11.493
16025W        W75462  15.636   5.732  11.986
16026W        W75463   1.469   5.787  11.563
16027W        W75464  42.339  30.459  11.395
16028W        W75465  21.667  39.831   5.322
16029W        W75466  21.660   3.785   2.871
16030W        W75467  24.162  26.085  12.869
16031W        W75468  18.658  13.793  14.412
16032W        W75469   1.300  27.167  12.058
16033W        W75470  25.513   1.953  12.390
16034W        W75471  17.098  15.596  13.485
16035W        W75472   8.251   3.272   5.214
16036W        W75473  31.418   6.867  14.369
16037W        W75474   9.718  39.340   2.787
16038W        W75475  22.708   5.909  14.283
16039W        W75476   2.400  10.338   0.348
16040W        W75477  11.221  10.207   4.611
16041W        W75478  33.001  44.930  14.374
16042W        W75479  14.313  12.331  12.484
16043W        W75480  40.937  13.228   4.245
16044W        W75481  38.837  14.778   4.600
16045W        W75482  19.777   7.833  12.894
16046W        W75483  34.924  18.196   0.422
16047W        W75484   0.367  38.496  12.577
16048W        W75485  44.452  41.967  12.895
16049W        W75486  22.707   5.246  14.996
16050W        W75487  32.537  27.481  14.030
16051W        W75488  24.139  15.163   3.816
16052W        W75489  30.530  18.108  13.797
16053W        W75490  44.403   4.363   3.863
16054W        W75491  15.579  42.804   2.880
16055W        W75492  33.112  22.535   2.320
16056W        W75493  11.129  22.222   4.708
16057W        W75494  42.850   0.949   3.374
16058W        W75495  36.456  21.582  13.321
16059W        W75496   5.785   1.252   1.806
16060W        W75497  29.654  27.673   3.336
16061W        W75498  21.605  26.608   2.260
16062W        W75499   2.417  28.000   3.745
16063W        W75500  21.035   9.377  13.415
16064W        W75501   2.902   5.831   1.915
16065W        W75502  38.914   3.790  14.811
16066W        W75503   8.355  39.446   1.441
16067W        W75504  30.022   9.258   3.179
16068W        W75505  39.960  44.483  14.409
16069W        W75506   8.728  38.985  14.299
16070W        W75507  36.031  26.582   3.831
16071W        W75508   7.870   5.898  11.544
16072W        W75509  31.922  14.287  14.470
16073W        W75510  18.616  20.558  10.563
16074W        W75511  37.043   8.359   3.778
16075W        W75512  42.941  25.113  12.528
16076W        W75513  33.915  21.743  11.435
16077W        W75514  29.634  43.961  11.544
16078W        W75515  28.524   4.447  11.928
16079W        W75516  17.644  31.473   0.897
16080W        W75517  37.877  14.722  13.507
16081W        W75518  37.430  39.877   9.988
16082W        W75519  40.031  26.561   3.300
16083W        W75520  12.733  44.433  10.458
16084W        W75521  15.610   4.759  11.451
16085W        W75522  13.345  28.591   1.372
16086W        W75523  44.771  38.827  12.377
16087W        W75524  18.081  27.971  11.419
16088W        W75525  39.841  18.569  13.019
16089W        W75526  20.231  39.458   4.282
16090W        W75527  30.601  35.078  10.435
16091W        W75528  21.684   1.259   2.734
16092W        W75529  25.123  11.134  12.517
16093W        W75530  26.105   0.973   2.386
16094W        W75531  17.305  15.760   0.268
16095W        W75532  41.401   7.264   3.638
16096W        W75533  25.114   9.772  13.326
16097W        W75534  14.213  40.470   5.114
16098W        W75535  39.334  27.166   3.326
16099W        W75536  43.765   9.769   4.125
16100W        W75537  15.653  37.532   9.999
16101W        W75538  38.826  18.258   3.264
16102W        W75539  39.025  44.933  14.361
16103W        W75540  11.259  32.000  13.837
16104W        W75541  23.503  32.439   1.288
16105W        W75542  30.468  32.514   0.937
16106W        W75543  29.154   5.403  13.960
16107W        W75544  30.969   3.880   4.138
16108W        W75545  17.700  33.501  13.415
16109W        W75546  31.407  27.466  12.945
16110W        W75547  11.150  34.527  13.910
16111W        W75548   9.253  14.211  10.484
16112W        W75549  20.678   5.831   3.329
16113W        W75550  20.108  44.346   0.810
16114W        W75551  35.957  28.020  13.512
16115W        W75552  36.996   4.944   0.269
16116W        W75553  15.819   5.804   1.368
16117W        W75554  24.509  34.534  13.541
16118W        W75555  30.016  32.104   2.391
16119W        W75556   0.465  42.815   1.443
16120W        W75557  30.559  11.652  12.342
16121W        W75558  34.085  26.059  11.031
16122W        W75559  44.974  26.954  12.976
16123W        W75560  10.214  37.498  12.503
16124W        W75561  25.641   8.719   3.266
16125W        W75562  12.684  17.209   3.637
16126W        W75563   8.876  28.034  13.547
16127W        W75564   3.710  15.648   4.133
16128W        W75565  44.896   8.737   3.812
16129W        W75566  15.187  32.456  13.036
16130W        W75567   5.222  37.379   1.262
16131W        W75568  18.273  43.781   4.263
16132W        W75569   4.329  33.074   3.788
16133W        W75570   0.490  39.868   0.838
16134W        W75571  14.745  11.200  12.895
16135W        W75572   1.875   7.825  12.485
16136W        W75573   5.198  44.936  12.878
16137W        W75574   3.939  33.461   1.724
16138W        W75575  12.290  36.470   4.599
16139W        W75576   9.215  39.858  12.997
16140W        W75577  30.144  42.428   1.268
16141W        W75578  24.199  36.090  10.445
16142W        W75579  35.524  21.730  12.887
16143W        W75580  15.138  18.775   3.314
16144W        W75581  42.340  18.644   0.744
16145W        W75582   1.252  44.414  12.410
16146W        W75583  22.105   1.796  11.858
16147W        W75584  30.026  38.410   1.811
16148W        W75585  35.014  28.952  12.558
16149W        W75586  15.241  15.628   1.211
16150W        W75587   8.310  19.649   3.867
16151W        W75588   6.887  23.059   0.926
16152W        W75589   3.764  38.828  12.930
16153W        W75590   4.857  41.445  13.978
16154W        W75591  13.312  20.543  14.833
16155W        W75592  25.567  39.061  14.786
16156W        W75593   6.875  15.807  14.853
16157W        W75594  31.428  10.655  10.933
16158W        W75595   9.161   8.277  14.964
16159W        W75596   8.764  43.410   2.899
16160W        W75597  12.767  10.692  11.055
16161W        W75598  33.491  17.769   2.229
16162W        W75599  27.652  22.543   1.404
16163W        W75600  26.018  39.928  13.461
16164W        W75601  41.890  40.013   0.418
16165W        W75602  33.048  37.419   3.800
16166W        W75603  15.237   9.776   1.735
16167W        W75604   5.268   9.210   2.824
16168W        W75605  14.630  16.744  10.903
16169W        W75606  16.578  39.013  11.464
16170W        W75607  44.825  22.627  11.966
16171W        W75608  32.415  24.080   0.358
16172W        W75609  18.262  19.622   1.730
16173W        W75610  12.721   0.451  11.013
16174W        W75611  16.130  17.186   4.155
16175W        W75612  18.690  28.023   1.779
16176W        W75613   6.267  43.790  13.010
16177W        W75614  24.654  16.678  13.897
16178W        W75615  16.088  15.601   4.137
16179W        W75616  39.450  17.216   3.817
16180W        W75617  15.680  37.379  13.052
16181W        W75618  37.885  11.326   1.749
16182W        W75619  25.469  36.877   0.873
16183W        W75620  17.791  40.941   0.358
16184W        W75621   6.826   5.254  14.809
16185W        W75622  42.482  23.069  12.505
16186W        W75623   6.799  40.009  14.296
16187W        W75624  30.153   2.730   0.921
16188W        W75625  16.640  41.450   0.798
16189W        W75626  38.965  26.668  12.985
16190W        W75627  28.624  34.597  12.083
16191W        W75628  14.207  28.551   2.786
16192W        W75629  14.218  18.608  12.830
16193W        W75630  19.089  40.382   2.223
16194W        W75631  44.900   1.916  12.389
16195W        W75632  23.154   0.291   4.791
16196W        W75633   1.347  33.421  13.327
16197W        W75634   9.220  24.617  14.298
16198W        W75635  25.146  15.158   4.289
16199W        W75636  10.384  21.096   3.246
16200W        W75637  10.336  39.351  14.945
16201W        W75638  11.646  25.554  11.481
16202W        W75639   7.320  42.439  11.519
16203W        W75640  31.444  26.576   0.341
16204W        W75641  32.981   3.808  13.967
16205W        W75642  42.782  17.787   3.748
16206W        W75643  15.681  18.608   5.272
16207W        W75644  12.175   9.707   2.402
16208W        W75645  37.491  38.487   0.416
16209W        W75646  11.357  40.819  11.430
16210W        W75647  38.566  37.439  14.862
16211W        W75648   8.670  24.503   2.318
16212W        W75649  28.553  13.792  12.410
16213W        W75650   9.827   7.394   4.751
16214W        W75651  27.947   3.396   0.376
16215W        W75652  23.232  21.552  12.904
16216W        W75653  11.221   0.415   0.278
16217W        W75654   3.816  17.692  11.552
16218W        W75655  28.953   6.835  14.885
16219W        W75656  24.712  18.605  10.586
16220W        W75657  17.769  39.329   3.156
16221W        W75658  25.077  14.257  14.392
16222W        W75659  33.103  13.626  11.517
16223W        W75660  21.071  17.789  14.978
16224W        W75661  34.403   9.766   3.319
16225W        W75662  40.502   2.757   4.658
16226W        W75663  38.535  30.907   0.268
16227W        W75664  13.646  13.169  11.419
16228W        W75665  33.072   5.866   2.240
16229W        W75666  31.954  34.118   2.342
16230W        W75667  35.494  16.789   1.811
16231W        W75668  32.942  30.430  10.560
16232W        W75669  28.058   0.949  11.923
16233W        W75670   1.394  23.212  12.492
16234W        W75671  18.129  25.529  11.058
16235W        W75672   8.677  36.047   0.371
16236W        W75673   1.957  19.651  11.379
16237W        W75674  22.711  16.314  10.514
16238W        W75675  28.502  17.196   1.319
16239W        W75676  27.593  29.561  13.543
16240W        W75677   2.908  27.538   2.866
16241W        W75678  42.905  39.540  12.902
16242W        W75679   3.926   7.224  12.463
16243W        W75680   1.738   3.784   2.353
16244W        W75681  25.549  41.515  13.866
16245W        W75682   0.919  38.369   4.197
16246W        W75683  14.722  44.827  10.623
16247W        W75684   0.399  28.435   1.920
16248W        W75685   2.829  24.212   2.180
16249W        W75686  23.547  33.475   1.915
16250W        W75687  32.631  36.043  12.396
16251W        W75688  41.037  17.727  12.455
16252W        W75689  35.006  25.117   3.363
16253W        W75690   3.407   8.189   4.683
16254W        W75691  38.913  26.201  14.461
16255W        W75692  43.942  39.821  12.860
16256W        W75693  39.407  18.701   1.790
16257W        W75694   5.778  14.597  11.920
16258W        W75695  11.823  35.086   0.266
16259W        W75696   3.935  12.255  11.512
16260W        W75697  15.691  34.441   3.232
16261W        W75698  27.630  35.546  13.421
16262W        W75699  33.979  14.121   0.267
16263W        W75700  43.776   0.748   0.776
16264W        W75701  32.419  31.422  12.576
16265W        W75702   1.258  37.498  14.940
16266W        W75703  29.494  26.563   2.225
16267W        W75704   6.743   8.245   1.714
16268W        W75705  10.362   9.372  12.073
16269W        W75706   5.887  30.570   2.366
16270W        W75707  32.904  42.814   4.198
16271W        W75708  44.431   0.292  12.526
16272W        W75709   0.437  15.234  10.942
16273W        W75710  35.532  29.120   2.785
16274W        W75711  10.354   5.836  13.971
16275W        W75712  30.956   0.278  14.392
16276W        W75713   1.734  34.427  13.888
16277W        W75714  22.157  28.441   3.273
16278W        W75715   7.781   7.173   3.230
16279W        W75716  15.231  42.843  13.470
16280W        W75717   0.835  23.064   1.840
16281W        W75718  20.124  32.580  10.605
16282W        W75719  35.951  41.015  11.481
16283W        W75720   9.706  30.007  13.805
16284W        W75721  26.604   0.943  13.827
16285W        W75722  20.143  15.207   3.739
16286W        W75723  12.689  34.945   3.278
16287W        W75724  35.005  28.514   1.350
16288W        W75725  26.135  12.164   0.480
16289W        W75726  37.428  14.699   4.306
16290W        W75727  32.562  28.103  13.347
16291W        W75728   1.859  22.704   3.310
16292W        W75729  18.131  19.538  10.454
16293W        W75730  14.701  33.022  14.419
16294W        W75731  24.161  31.985  11.009
16295W        W75732   5.706  19.618  14.429
16296W        W75733  28.038   0.768  10.976
16297W        W75734   3.278  41.809   2.731
16298W        W75735  11.267  44.961  11.594
16299W        W75736  38.514  40.812  13.502
16300W        W75737  30.000   8.281  14.982
16301W        W75738  41.819  40.330  12.478
16302W        W75739  26.018  13.710  12.007
16303W        W75740  22.625  19.171  10.621
16304W        W75741   8.744   8.357   4.333
16305W        W75742  32.541  43.426  10.456
16306W        W75743  14.601  31.624  12.573
16307W        W75744  26.008   7.903   2.364
16308W        W75745   1.805  26.588  12.406
16309W        W75746  23.106   8.774  14.773
16310W        W75747   8.871  12.300   3.667
16311W        W75748   3.255  16.640  12.402
16312W        W75749  39.319  29.149   3.353
16313W        W75750   6.190   8.226   2.186
16314W        W75751  36.022  38.021  13.385
16315W        W75752  40.531  20.584  12.836
16316W        W75753  33.089  29.495  12.835
16317W        W75754   6.421  33.974  10.532
16318W        W75755  13.191   7.294  14.013
16319W        W75756  27.634  26.133   3.772
16320W        W75757  28.038  16.609   0.429
16321W        W75758  36.019  16.606  14.496
16322W        W75759  41.371  40.361  14.383
16323W        W75760  30.055  41.338  13.891
16324W        W75761  21.124   2.883   3.701
16325W        W75762  23.214   7.393   4.281
16326W        W75763  42.507  26.035   4.830
16327W        W75764   8.223  20.745   3.837
16328W        W75765  12.262   0.333  14.370
16329W        W75766  11.170   0.975  10.624
16330W        W75767  20.718  21.681   4.207
16331W        W75768  17.680  11.749  14.375
16332W        W75769   6.866  41.455   0.369
16333W        W75770  37.437  38.353   1.415
16334W        W75771  36.469  19.196   3.793
16335W        W75772   1.810  11.694  10.412
16336W        W75773  33.957  34.444   3.242
16337W        W75774  42.459   7.672   3.756
16338W        W75775   3.364   5.839  12.942
16339W        W75776  37.046  30.018   2.770
16340W        W75777   9.353  14.622  11.516
16341W        W75778   0.757  40.054   1.308
16342W        W75779  32.912   9.877  12.845
16343W        W75780  18.135   1.294   4.737
16344W        W75781   9.213  39.415   3.644
16345W        W75782  44.279  16.738  12.872
16346W        W75783   2.266  39.531   0.431
16347W        W75784   3.216   9.798  13.404
16348W        W75785  23.514  20.539  13.008
16349W        W75786  12.704  19.675   3.207
16350W        W75787  34.426  29.159  14.934
16351W        W75788  32.903   4.237  11.065
16352W        W75789  12.619  14.652  14.481
16353W        W75790  38.000  26.191   3.847
16354W        W75791   4.833  36.432  13.793
16355W        W75792  10.238  19.682   3.285
16356W        W75793   1.836  10.230   2.261
16357W        W75794  21.061   9.231   3.216
16358W        W75795   6.237  39.960  12.412
16359W        W75796  22.183  24.201   0.305
16360W        W75797  15.198  42.894  12.534
16361W        W75798  38.886   7.189  11.986
16362W        W75799   0.839  27.622  14.477
16363W        W75800   7.900  19.558   3.321
16364W        W75801  24.122  36.866  12.847
16365W        W75802  12.679  28.024   4.745
16366W        W75803  11.654  20.136  13.446
16367W        W75804  26.061  26.601  10.526
16368W        W75805   2.428  13.133  12.986
16369W        W75806  18.725  26.560   5.306
16370W        W75807   6.760  42.961  10.609
16371W        W75808  13.746  25.191   1.417
16372W        W75809  19.774  22.066   4.216
16373W        W75810  27.183   2.238  13.965
16374W        W75811   0.787  26.960   3.211
16375W        W75812  35.965   8.851  14.006
16376W        W75813  44.326  24.994  12.864
16377W        W75814  34.932  33.887   4.189
16378W        W75815  31.139  32.489   3.833
16379W        W75816  30.055  40.932  13.519
16380W        W75817  22.176  34.518  13.903
16381W        W75818   4.368  18.051  13.823
16382W        W75819   6.368  33.380   0.866
16383W        W75820   7.344  19.120   3.380
16384W        W75821  31.999  37.943   4.256
16385W        W75822  35.388  29.154   1.911
16386W        W75823  14.719  22.703  13.337
16387W        W75824  24.015   6.348   2.350
16388W        W75825  24.178  20.032   2.754
16389W        W75826  34.410  20.041  13.458
16390W        W75827  37.948  24.124   1.305
16391W        W75828  14.674  28.454  14.881
16392W        W75829  20.259  10.637   0.730
16393W        W75830   6.762  11.164  13.460
16394W        W75831  21.107  39.337   1.436
16395W        W75832  33.379  31.112  13.506
16396W        W75833  13.243  11.235   0.310
16397W        W75834  26.570  34.548   3.790
16398W        W75835  13.756  14.655  13.048
16399W        W75836  12.222  44.897  10.507
16400W        W75837  42.367  11.709  11.432
16401W        W75838  15.581  17.076   4.170
16402W        W75839  33.073  40.399  10.553
16403W        W75840  37.024  35.365  13.338
16404W        W75841   6.426  41.384  14.029
16405W        W75842  41.449  43.366  11.034
16406W        W75843  25.065  18.109  12.928
16407W        W75844  29.985  17.564  13.029
16408W        W75845  23.574  37.888   2.683
16409W        W75846   4.706  13.815  10.431
16410W        W75847  32.468  33.936  14.007
16411W        W75848  23.523   6.357   2.841
16412W        W75849  32.400  20.087  12.563
16413W        W75850  35.482  14.221  11.127
16414W        W75851  25.003  26.662   0.885
16415W        W75852  17.263  19.760  10.590
16416W        W75853  18.200  30.460   3.792
16417W        W75854  19.129  41.504  14.980
16418W        W75855  27.138  22.095  11.945
16419W        W75856  21.104  33.958   4.773
16420W        W75857  39.040   5.738  11.383
16421W        W75858  42.945   2.433   1.842
16422W        W75859  32.584  26.536   4.808
16423W        W75860  32.425  39.423   4.330
16424W        W75861  18.788  11.699   1.419
16425W        W75862  17.207  33.100   3.227
16426W        W75863  27.087  12.208  14.956
16427W        W75864  39.869  19.190   0.940
16428W        W75865  12.710  25.215  12.909
16429W        W75866   4.400   3.301  12.062
16430W        W75867  26.511  15.636   0.481
16431W        W75868  15.225   3.317   4.317
16432W        W75869  18.092  36.976   0.355
16433W        W75870  35.486   8.710   3.296
16434W        W75871  19.285  13.725   1.867
16435W        W75872   8.168  15.628   0.427
16436W        W75873   5.407  20.573   0.866
16437W        W75874  21.511  44.394  13.489
16438W        W75875  21.085   8.810  13.054
16439W        W75876  15.298  39.363   0.247
16440W        W75877  20.614  14.643  12.944
16441W        W75878  21.086  16.778   1.732
16442W        W75879  22.654  12.719   9.954
16443W        W75880  19.777   3.233   0.779
16444W        W75881  19.652  37.380  11.928
16445W        W75882  35.965   7.669   3.156
16446W        W75883  23.610  30.526   0.383
16447W        W75884  32.460   1.441   1.382
16448W        W75885   8.219  38.560  10.902
16449W        W75886   1.262  12.196   0.360
16450W        W75887  15.648  36.485   1.319
16451W        W75888  34.039  38.354  13.019
16452W        W75889   0.771   7.684   4.622
16453W        W75890  23.996  26.646   0.414
16454W        W75891   6.854  40.331  10.486
16455W        W75892  13.812  30.548  14.937
16456W        W75893  18.199  32.073  14.429
16457W        W75894  23.638  38.571  14.290
16458W        W75895  21.110   6.372   4.627
16459W        W75896  17.751  18.079   4.301
16460W        W75897  21.245  14.628   1.214
16461W        W75898  39.351  11.343  14.925
16462W        W75899  34.570  12.845  11.068
16463W        W75900   0.406  40.956   0.855
16464W        W75901  36.064   6.351  14.321
16465W        W75902   6.252  37.478   0.283
16466W        W75903  18.675  13.181   0.375
16467W        W75904  34.579   1.350   3.738
16468W        W75905  41.939  28.639  14.389
16469W        W75906   8.199  13.118   3.759
16470W        W75907  44.945  37.538   2.280
16471W        W75908   7.777  18.188   4.122
16472W        W75909   8.835   4.283  11.043
16473W        W75910  14.599  22.706   0.747
16474W        W75911  16.634  24.138  14.377
16475W        W75912   0.385  34.604   0.337
16476W        W75913  18.268  32.953  13.827
16477W        W75914  24.185  25.587   2.797
16478W        W75915   4.807  22.600  12.412
16479W        W75916   4.747   6.373   5.181
16480W        W75917   0.414  41.521  12.567
16481W        W75918  28.936  22.720   9.515
16482W        W75919  35.924   5.334  11.491
16483W        W75920  43.955  31.958  12.459
16484W        W75921  28.111   7.665   3.814
16485W        W75922  15.759  32.097   1.341
16486W        W75923  26.161   3.849  12.892
16487W        W75924  25.972  36.529  12.074
16488W        W75925  36.366  44.447   3.237
16489W        W75926   0.291  30.062  13.038
16490W        W75927  15.176  33.122   3.268
16491W        W75928  11.171  19.713  14.849
16492W        W75929  27.671  17.742   0.830
16493W        W75930  25.073  33.554   1.291
16494W        W75931  22.553  17.623  13.952
16495W        W75932  23.035  11.866   4.132
16496W        W75933   6.730  43.303  12.049
16497W        W75934  24.090  43.273  10.589
16498W        W75935  40.010  12.851  14.975
16499W        W75936  37.463  26.701   3.777
16500W        W75937   2.790   9.856  11.977
16501W        W75938  27.480  13.789   3.186
16502W        W75939  13.786  37.456   4.823
16503W        W75940   1.263  28.517  12.087
16504W        W75941  30.930  30.011  10.577
16505W        W75942  31.898  11.161   3.217
16506W        W75943   6.806   9.736   2.280
16507W        W75944   3.734   2.957  14.352
16508W        W75945   9.327  27.071   9.649
16509W        W75946  43.464  26.658   0.419
16510W        W75947  20.062  37.512  12.845
16511W        W75948  25.509   2.815  14.990
16512W        W75949  28.150   7.264  13.313
16513W        W75950  38.901  19.236  13.344
16514W        W75951  31.913  14.168  12.051
16515W        W75952  33.445  12.642  11.051
16516W        W75953  40.845  44.300   0.452
16517W        W75954  38.970   1.900  10.565
16518W        W75955  27.117   6.341   0.946
16519W        W75956  13.333  12.781   0.399
16520W        W75957   2.246  30.087   1.243
16521W        W75958  27.173  26.702   1.308
16522W        W75959  31.531  12.692  11.110
16523W        W75960  13.622  14.790   3.309
16524W        W75961  23.542  24.000   2.206
16525W        W75962  34.501  43.775  11.859
16526W        W75963  13.729   9.871  10.571
16527W        W75964   5.295  15.237   4.130
16528W        W75965  30.050  27.950  11.079
16529W        W75966  33.935  22.055   9.961
16530W        W75967  41.031  44.989  14.509
16531W        W75968  32.986  22.249   1.418
16532W        W75969  41.795  15.318   0.293
16533W        W75970  11.310  44.310  11.427
16534W        W75971  41.948  10.861  11.095
16535W        W75972   0.843  22.150  13.874
16536W        W75973  44.469  22.207  10.557
16537W        W75974  13.106  22.176   1.410
16538W        W75975  10.768  17.743  10.926
16539W        W75976   6.278  29.487   0.878
16540W        W75977   3.715  43.412  13.056
16541W        W75978  17.712  28.959  10.500
16542W        W75979  44.873   2.242  10.631
16543W        W75980  14.715  33.999  14.000
16544W        W75981   6.417  21.253  11.886
16545W        W75982  35.030  12.255  13.926
16546W        W75983  10.379   5.320  12.494
16547W        W75984  40.356  37.855   3.358
16548W        W75985  10.362  39.020  14.320
16549W        W75986  22.595  30.603   0.429
16550W        W75987  44.428  10.265   1.433
16551W        W75988  11.730  13.150   1.421
16552W        W75989   8.164   2.776   0.414
16553W        W75990  34.035  23.989  11.943
16554W        W75991  23.006  10.260   2.332
16555W        W75992  33.969  33.503   0.399
16556W        W75993  37.954  27.565  14.970
16557W        W75994   0.478  26.580   3.170
16558W        W75995  28.486  40.044   2.843
16559W        W75996  41.528  29.146  14.903
16560W        W75997  25.526  32.118  12.972
16561W        W75998   4.939  42.281   0.813
16562W        W75999  10.868   6.865   1.777
16563W        W76000   6.427  17.707  11.883
16564W        W76001  29.993  30.955   3.253
16565W        W76002   4.357   3.338  12.409
16566W        W76003  18.186  36.993   4.267
16567W        W76004   4.927  30.460   4.135
16568W        W76005  16.125  19.168   9.981
16569W        W76006  24.713  14.615  14.450
16570W        W76007   0.251   3.257  11.557
16571W        W76008  37.074  30.546   3.656
16572W        W76009  31.129  20.604   3.666
16573W        W76010   4.443  10.251  14.845
16574W        W76011  43.848  37.360   3.284
16575W        W76012  15.651  12.739   0.360
16576W        W76013  12.308  18.162   2.370
16577W        W76014  42.992  23.720  10.501
16578W        W76015   4.326   7.233   3.777
16579W        W76016  44.902  27.485  11.945
16580W        W76017  37.444  30.055  13.472
16581W        W76018  38.507  13.779  14.315
16582W        W76019  19.132  16.792   2.189
16583W        W76020  20.545  26.207   0.799
16584W        W76021  20.150  34.546  14.868
16585W        W76022  22.745  26.175   5.261
16586W        W76023  40.446  32.399   0.928
16587W        W76024   5.209  32.608   1.873
16588W        W76025  38.942  33.541   2.256
16589W        W76026  39.456   5.895   3.336
16590W        W76027  36.917  43.917   3.857
16591W        W76028   1.330  14.813  12.973
16592W        W76029  22.515  32.470  13.020
16593W        W76030  41.537  19.591   0.266
16594W        W76031   8.232  12.852  13.845
16595W        W76032  41.982  33.895   3.741
16596W        W76033  10.199  26.576   3.344
16597W        W76034  30.439  21.703   3.160
16598W        W76035  32.418  22.251  13.542
16599W        W76036  40.398   6.880   1.814
16600W        W76037  20.046  36.481   0.881
16601W        W76038  27.188  16.699  11.994
16602W        W76039  20.653  24.109  13.004
16603W        W76040  36.910  27.502  10.984
16604W        W76041  37.935  27.594  11.877
16605W        W76042   8.799  34.592  14.509
16606W        W76043  37.065  21.168  10.977
16607W        W76044  16.726   9.376   1.713
16608W        W76045  36.408  41.014  13.050
16609W        W76046  16.676  42.026  13.413
16610W        W76047  34.371  20.545  13.511
16611W        W76048  13.203  42.975   0.866
16612W        W76049   2.383  33.916   2.867
16613W        W76050  19.074  13.273  11.120
16614W        W76051  41.957   1.972   5.294
16615W        W76052  32.127  11.369  13.044
16616W        W76053  18.633  37.023  12.388
16617W        W76054  31.442  18.225  11.988
16618W        W76055  16.715  40.992  11.419
16619W        W76056  32.472  28.639   1.895
16620W        W76057  40.410  39.816  10.624
16621W        W76058   2.294  27.521   3.713
16622W        W76059  30.632   0.763  11.882
16623W        W76060  16.772  35.568  14.341
16624W        W76061  31.007  36.398  12.555
16625W        W76062   6.887  29.567   3.860
16626W        W76063   5.695  38.929  13.518
16627W        W76064  21.113  39.053  11.064
16628W        W76065   9.802  31.530  10.624
16629W        W76066  44.325  43.765   3.804
16630W        W76067   4.903  10.253  12.497
16631W        W76068  26.196   6.843  14.317
16632W        W76069  38.937  29.489  10.492
16633W        W76070  26.094  28.176  13.940
16634W        W76071  19.628  26.509   0.959
16635W        W76072  15.766  12.627   1.910
16636W        W76073   6.387   1.786  13.545
16637W        W76074  28.018  25.082  12.461
16638W        W76075  33.069  27.505  10.896
16639W        W76076  37.902  30.002   3.638
16640W        W76077   4.701   6.841   4.322
16641W        W76078  41.459  11.250  13.544
16642W        W76079  31.033  40.489   1.906
16643W        W76080  13.620  26.552  12.961
16644W        W76081  39.457  27.093   0.895
16645W        W76082  19.046  18.599   1.762
16646W        W76083  43.459  11.309  13.441
16647W        W76084  43.857  16.111   2.793
16648W        W76085  16.613  20.721  11.109
16649W        W76086  20.565  43.488   1.392
16650W        W76087   5.438  30.099   4.304
16651W        W76088  26.043   8.800  11.395
16652W        W76089  35.086  14.277  10.954
16653W        W76090   2.408   4.724   2.682
16654W        W76091  24.685  20.041  12.445
16655W        W76092  11.297  11.186   3.298
16656W        W76093  21.236  32.059  14.002
16657W        W76094  42.959  11.643   0.866
16658W        W76095  25.674  16.287   3.703
16659W        W76096  34.004  42.323   1.233
16660W        W76097  12.786  30.032  11.452
16661W        W76098  36.390   3.340   2.902
16662W        W76099   4.907  40.494  13.806
16663W        W76100  24.695  14.711   3.371
16664W        W76101  19.624  33.002   4.655
16665W        W76102  27.949  13.743   3.363
16666W        W76103  23.145  28.456  10.905
16667W        W76104  25.021   8.405   5.152
16668W        W76105  13.119  41.800   3.836
16669W        W76106  33.911  27.099  14.297
16670W        W76107  13.645  26.143   2.182
16671W        W76108  27.609  34.473  12.835
16672W        W76109  21.730   7.780  11.097
16673W        W76110  11.302  21.648   0.935
16674W        W76111   0.386   0.825   1.888
16675W        W76112  34.454   6.747  10.489
16676W        W76113   1.824  16.221   1.363
16677W        W76114  19.774  30.489  11.467
16678W        W76115  20.235  21.718   9.676
16679W        W76116  44.801  38.023   3.213
16680W        W76117   0.746  29.511   3.170
16681W        W76118  17.649  44.851  10.633
16682W        W76119  34.406  44.902   4.758
16683W        W76120   0.277   2.443   3.230
16684W        W76121  24.068  12.225   3.193
16685W        W76122  37.535  22.050  11.437
16686W        W76123  14.292  43.814   0.879
16687W        W76124  11.784  44.821  11.090
16688W        W76125  35.594   1.787   4.114
16689W        W76126  38.022  15.682   1.354
16690W        W76127  24.033   2.386  13.341
16691W        W76128  25.087   5.290  12.999
16692W        W76129  35.108  42.454  13.906
16693W        W76130   1.341  29.604  10.567
16694W        W76131  25.663  18.071  11.074
16695W        W76132  25.531  19.115   1.254
16696W        W76133  17.562   0.906  13.906
16697W        W76134  38.957  33.517   4.116
16698W        W76135  24.604   9.283   0.800
16699W        W76136  37.867  13.695   3.721
16700W        W76137   9.863  40.375  11.434
16701W        W76138   8.322  16.730   2.213
16702W        W76139  21.586  44.361   0.252
16703W        W76140   2.432  38.420  10.607
16704W        W76141   4.713   9.150  12.001
16705W        W76142   9.871  36.012   1.818
16706W        W76143  41.843  44.448   0.959
16707W        W76144  14.188  29.145   4.623
16708W        W76145  41.534   8.341   0.791
16709W        W76146  20.635  31.498   1.801
16710W        W76147  32.007  14.790  10.993
16711W        W76148  19.256   1.479  11.040
16712W        W76149  35.005  25.145   2.791
16713W        W76150  43.980  41.911   4.665
16714W        W76151  43.884  26.518  14.321
16715W        W76152  38.398  41.828  13.910
16716W        W76153   7.297   9.666  12.410
16717W        W76154  12.703  14.225  14.275
16718W        W76155  23.138  12.627   5.292
16719W        W76156  21.033  27.065   0.265
16720W        W76157   7.397  35.560  13.808
16721W        W76158   4.848  18.096   1.245
16722W        W76159   1.766  43.343   1.865
16723W        W76160  19.214   3.865  10.441
16724W        W76161  22.523  16.150  14.852
16725W        W76162  22.650   9.370   4.144
16726W        W76163  33.074  43.441   0.954
16727W        W76164  24.190  39.974   0.294
16728W        W76165   8.205  33.387  10.629
16729W        W76166  15.602  13.151   4.634
16730W        W76167  36.426  32.993   3.671
16731W        W76168  23.076  14.128  12.852
16732W        W76169   5.836  36.856  12.042
16733W        W76170  40.852  44.966   1.300
16734W        W76171   1.766  15.298  12.422
16735W        W76172  30.428  32.994   3.345
16736W        W76173  17.790  33.998   3.715
16737W        W76174  24.711  29.085  10.893
16738W        W76175  28.005  16.089  12.087
16739W        W76176  13.635  22.047   2.868
16740W        W76177  22.502  18.205   0.311
16741W        W76178  33.039  43.360  12.519
16742W        W76179  10.312  27.481   3.236
16743W        W76180  29.462  20.195  13.040
16744W        W76181   2.907  26.171  14.832
16745W        W76182  28.142  24.594   4.188
16746W        W76183  27.039   0.387   0.876
16747W        W76184  16.209  25.561  11.002
16748W        W76185  43.282  39.821   3.671
16749W        W76186  10.141  13.617  13.522
16750W        W76187   2.411  12.656  12.441
16751W        W76188   3.724  23.633  14.505
16752W        W76189  44.910  23.100  12.441
16753W        W76190  38.009  26.667  12.562
16754W        W76191  34.475  43.982   3.373
16755W        W76192  26.580  41.953   2.312
16756W        W76193  44.259  18.777  10.938
16757W        W76194   4.848  44.756   4.281
16758W        W76195  19.237   9.889  14.794
16759W        W76196  43.348  26.112   2.716
16760W        W76197  30.979  42.841   9.997
16761W        W76198  22.605  24.681  13.882
16762W        W76199  35.887   5.739  11.100
16763W        W76200  35.915  38.960   2.348
16764W        W76201  13.639   9.720  12.532
16765W        W76202   7.291  33.081  12.554
16766W        W76203   4.855  32.074   1.223
16767W        W76204  30.076  14.245  13.873
16768W        W76205  27.994  38.473   1.221
16769W        W76206  32.017   2.806  11.103
16770W        W76207  13.610  14.807   1.799
16771W        W76208  16.576  42.525   4.202
16772W        W76209   5.884  38.537  11.410
16773W        W76210   2.885  40.306  11.423
16774W        W76211  36.849  29.128  12.093
16775W        W76212  10.870  39.950   0.858
16776W        W76213  17.690  20.086   1.226
16777W        W76214  40.873  31.997  11.985
16778W        W76215  26.584  24.093  14.837
16779W        W76216   0.920  16.636  10.922
16780W        W76217   1.768  42.315   2.274
16781W        W76218  17.264  38.020  12.411
16782W        W76219  39.858  14.597   1.379
16783W        W76220   3.322  15.753  12.567
16784W        W76221   4.398  24.073   3.307
16785W        W76222  16.657  18.245   1.331
16786W        W76223  36.975   1.413  13.819
16787W        W76224   7.339   0.281  14.817
16788W        W76225  30.483  29.484   4.810
16789W        W76226   6.904  14.712   3.385
16790W        W76227  33.408  24.197   0.352
16791W        W76228  44.876  34.395   2.397
16792W        W76229   2.340  39.062   1.256
16793W        W76230  18.133  37.398   1.896
16794W        W76231  44.812  33.394  13.825
16795W        W76232  37.512  43.512  12.353
16796W        W76233  33.029  29.605   2.864
16797W        W76234  39.983  43.828  14.013
16798W        W76235  13.736  22.070  12.073
16799W        W76236  24.125  37.871  14.987
16800W        W76237  15.795  28.666   2.822
16801W        W76238  38.892  14.122  10.094
16802W        W76239  43.504  11.826  13.449
16803W        W76240  39.965  29.147  11.452
16804W        W76241  42.799  13.335  11.015
16805W        W76242  30.958  16.237   0.416
16806W        W76243  38.941  17.796   2.359
16807W        W76244  35.491  32.592   1.242
16808W        W76245  10.633   5.734  12.963
16809W        W76246  37.048  10.796   1.771
16810W        W76247  38.862  43.434   0.780
16811W        W76248  41.412  19.644  13.012
16812W        W76249   1.298  11.839  12.452
16813W        W76250  44.790  30.157   4.668
16814W        W76251   5.325  44.377  13.358
16815W        W76252  31.898  22.555  14.823
16816W        W76253   5.887   2.883   3.266
16817W        W76254  17.281  31.601   4.818
16818W        W76255  36.904  29.975  10.478
16819W        W76256  11.272  20.199  11.538
16820W        W76257  42.503  34.899   3.772
16821W        W76258  21.037   4.762   3.654
16822W        W76259  15.251  33.103   3.777
16823W        W76260  33.042  29.946  14.029
16824W        W76261   0.882   9.267   0.306
16825W        W76262  11.217  30.102  14.953
16826W        W76263  33.125  15.202  10.641
16827W        W76264  41.342  30.994  12.829
16828W        W76265  10.202  33.621   2.868
16829W        W76266  22.113  32.035   3.268
16830W        W76267  13.721   3.812   1.781
16831W        W76268  42.011  13.164  11.548
16832W        W76269  15.687  18.097  11.566
16833W        W76270   6.317  13.257   3.355
16834W        W76271   3.290  16.755   0.913
16835W        W76272   6.403   5.243   1.254
16836W        W76273  16.095  26.134   1.842
16837W        W76274   6.849  30.532  14.928
16838W        W76275   1.259  13.638   1.276
16839W        W76276  40.809  42.884  13.347
16840W        W76277   2.882   0.337   1.711
16841W        W76278   0.799  39.445   1.370
16842W        W76279  22.241  26.609  14.874
16843W        W76280   5.804  32.967  13.857
16844W        W76281   4.828  24.010   1.438
16845W        W76282   8.326  34.441  12.059
16846W        W76283  38.867  38.074   3.206
16847W        W76284  19.068  27.534  12.572
16848W        W76285   4.287  27.003   1.269
16849W        W76286  20.157  33.495  13.951
16850W        W76287  17.135   0.345   3.303
16851W        W76288  28.972  19.155   1.327
16852W        W76289   5.242  39.036   0.482
16853W        W76290   3.433  28.635  11.976
16854W        W76291  27.101  39.348   3.868
16855W        W76292  14.784  23.490   0.863
16856W        W76293  34.096  33.515  10.487
16857W        W76294  13.268  21.633   3.147
16858W        W76295  38.497  34.088  13.922
16859W        W76296  32.558  17.112  10.630
16860W        W76297  44.475  20.732   4.219
16861W        W76298  29.556  35.927  11.018
16862W        W76299   3.281  15.782   4.189
16863W        W76300   7.670  27.522   4.736
16864W        W76301  12.182  26.143  14.275
16865W        W76302  19.601  42.433  10.950
16866W        W76303  29.066  16.574   2.712
16867W        W76304   1.353  22.233   1.425
16868W        W76305  30.941  22.106  11.115
16869W        W76306  19.245  28.503  10.916
16870W        W76307  26.467  32.466   1.700
16871W        W76308   2.801  31.564  11.085
16872W        W76309  44.268  18.701   1.245
16873W        W76310  11.212  38.829  10.632
16874W        W76311  27.155  40.446   0.270
16875W        W76312  20.050  10.238  10.049
16876W        W76313  22.718   3.827  10.471
16877W        W76314  26.195  31.480  13.518
16878W        W76315  42.989  22.699   3.310
16879W        W76316  21.040   1.963  14.007
16880W        W76317  27.066  41.511   1.759
16881W        W76318  28.621  36.480  14.004
16882W        W76319  44.950  44.798   3.640
16883W        W76320  15.099  42.319  12.960
16884W        W76321  23.080  41.791  11.490
16885W        W76322   2.865   1.305  11.604
16886W        W76323   4.870  18.614  11.058
16887W        W76324  28.014  21.048   0.250
16888W        W76325  41.915  38.074   3.306
16889W        W76326  24.723  33.909  11.879
16890W        W76327  33.918  33.596   1.871
16891W        W76328  30.034  25.203   1.402
16892W        W76329  35.904  12.820   2.761
16893W        W76330  11.761  35.999   3.685
16894W        W76331   2.800  31.012  12.545
16895W        W76332   4.270   0.810  13.842
16896W        W76333  28.985  14.787  14.805
16897W        W76334  42.017  29.137  12.881
16898W        W76335  29.604  16.760  12.373
16899W        W76336  21.053   9.243  10.466
16900W        W76337  25.190  20.605   1.313
16901W        W76338  20.236  14.188  13.394
16902W        W76339  19.731  19.550  14.837
16903W        W76340   6.188   3.915   3.318
16904W        W76341  27.634   4.892  12.368
16905W        W76342  38.860   8.729  10.938
16906W        W76343  26.642  22.607   1.729
16907W        W76344  43.359  19.615   0.312
16908W        W76345   0.921  44.767   0.274
16909W        W76346  22.701  31.989   3.641
16910W        W76347  27.118  30.048   2.249
16911W        W76348   2.943  21.093   1.428
16912W        W76349  21.624  22.705  14.509
16913W        W76350  39.819   5.719   0.430
16914W        W76351   6.261  17.679   9.965
16915W        W76352  28.955  25.178   0.805
16916W        W76353  13.788   0.278   1.699
16917W        W76354  15.308  10.277   3.685
16918W        W76355   9.749   0.961  12.464
16919W        W76356  33.595  20.105   0.805
16920W        W76357  39.965  31.080  10.924
16921W        W76358  43.819  16.642  11.387
16922W        W76359  15.739  32.892  11.102
16923W        W76360   9.395  33.506   3.376
16924W        W76361  32.592  12.268  13.815
16925W        W76362  10.383  43.778   4.331
16926W        W76363   6.315  28.936   2.778
16927W        W76364  35.873  25.057   2.408
16928W        W76365  24.204  33.922   4.812
16929W        W76366  40.914  40.042   0.782
16930W        W76367  39.458  39.360  12.049
16931W        W76368  34.452  27.676   4.191
16932W        W76369  29.557  35.391   2.309
16933W        W76370  21.633  14.723  13.944
16934W        W76371  40.959  15.113   4.681
16935W        W76372  25.179  28.670  14.330
16936W        W76373  19.172  30.030  12.069
16937W        W76374  29.618  40.471  14.803
16938W        W76375  38.029  21.513   2.880
16939W        W76376  31.941  40.812  14.828
16940W        W76377  32.915  23.997  12.053
16941W        W76378  15.289  24.150  11.568
16942W        W76379  37.445  15.232  12.530
16943W        W76380  17.666  11.354  10.567
16944W        W76381  15.683  15.736  10.945
16945W        W76382  23.591   3.812   0.820
16946W        W76383  24.620   5.224   3.300
16947W        W76384   5.814   8.373   3.632
16948W        W76385  32.436  41.300   4.277
16949W        W76386  15.622  32.128   3.701
16950W        W76387  38.064  10.651   3.723
16951W        W76388  39.975  30.118   0.775
16952W        W76389  15.133  31.402  11.468
16953W        W76390  41.991   0.375  14.801
16954W        W76391  39.376   7.685   2.241
16955W        W76392  32.480  43.815   2.738
16956W        W76393  12.791  39.460  11.579
16957W        W76394   9.804   4.944  12.845
16958W        W76395   4.221  42.928   0.374
16959W        W76396  31.928  30.916   1.430
16960W        W76397  34.597  21.526   3.319
16961W        W76398  17.292  43.913  12.445
16962W        W76399   4.864  42.932  14.434
16963W        W76400   1.920  40.502   2.860
16964W        W76401  26.507  37.565  13.434
16965W        W76402   1.267  40.963   0.865
16966W        W76403  18.137  16.283   0.299
16967W        W76404  21.719  23.108  13.052
16968W        W76405   0.945  30.084  10.446
16969W        W76406  33.044  18.162   0.448
16970W        W76407   8.789  23.678   2.896
16971W        W76408  37.989  18.630   1.753
16972W        W76409   7.273   1.271   3.775
16973W        W76410   2.262   5.770  12.949
16974W        W76411   1.760  12.334  11.384
16975W        W76412  11.783  14.133   2.864
16976W        W76413  39.453  30.507   3.821
16977W        W76414   4.851   2.321  13.957
16978W        W76415  12.284  41.877   3.726
16979W        W76416  18.706   0.777  14.836
16980W        W76417  17.731  19.127  12.869
16981W        W76418  34.999  18.751  11.386
16982W        W76419   1.852  35.081   4.606
16983W        W76420  24.720  27.627  13.813
16984W        W76421  39.934  29.126   3.183
16985W        W76422   0.799  33.902   4.317
16986W        W76423  17.235  29.010   3.661
16987W        W76424   8.828  19.087  13.326
16988W        W76425  38.963   8.202  11.859
16989W        W76426  37.348  33.534   3.358
16990W        W76427  19.225   3.743  12.463
16991W        W76428  21.630  44.994   3.819
16992W        W76429  32.611  21.200   1.261
16993W        W76430  40.319  32.416  11.481
16994W        W76431  40.419  38.375  13.431
16995W        W76432   7.177  30.523  12.025
16996W        W76433  41.841  26.146  12.086
16997W        W76434  31.509  38.419  10.532
16998W        W76435  41.868  18.561   0.423
16999W        W76436   4.718  42.861   4.599
17000W        W76437  18.136  36.963   1.390
17001W        W76438  44.325   7.271  12.921
17002W        W76439  28.001  26.702   2.869
17003W        W76440   6.782  25.525   5.296
17004W        W76441  26.964  13.813  10.477
17005W        W76442  12.707  26.122  12.544
17006W        W76443  38.460  26.060  10.538
17007W        W76444  23.233  37.880   3.382
17008W        W76445  44.918  21.630  10.621
17009W        W76446  23.727   6.703  10.982
17010W        W76447  29.134  29.066   4.156
17011W        W76448  36.471  32.582   2.246
17012W        W76449  15.166   2.912  12.563
17013W        W76450  35.029  28.461  13.477
17014W        W76451  30.087  10.222  11.481
17015W        W76452  38.418   1.813  14.367
17016W        W76453  42.850   5.322  10.608
17017W        W76454   9.265  11.177   2.903
17018W        W76455  39.874  23.706   2.402
17019W        W76456   9.830   0.448  13.318
17020W        W76457  31.507   0.760  14.464
17021W        W76458  20.203  33.078   2.212
17022W        W76459   5.330  40.490   4.167
17023W        W76460  32.048  21.096   2.346
17024W        W76461  29.152   3.438  11.070
17025W        W76462  13.223  10.217   3.232
17026W        W76463   3.858  25.646   2.675
17027W        W76464  35.364  30.646   4.348
17028W        W76465  31.492  19.761  13.499
17029W        W76466  33.055  18.615  10.464
17030W        W76467  28.655   0.254   2.346
17031W        W76468  34.990  12.612   5.173
17032W        W76469  42.923  42.301  12.417
17033W        W76470  16.072  22.692   3.866
17034W        W76471   5.389  28.648   1.331
17035W        W76472  21.638  41.407  11.918
17036W        W76473  17.173   2.787   0.940
17037W        W76474  38.945  34.611  14.974
17038W        W76475  44.921  24.544  14.835
17039W        W76476   3.730  21.558   0.776
17040W        W76477  10.852  29.456   4.691
17041W        W76478  17.173  24.584   2.281
17042W        W76479   1.931  21.243  12.369
17043W        W76480  21.229  14.121   2.417
17044W        W76481  39.487   0.361  14.011
17045W        W76482  28.134  27.522  14.987
17046W        W76483  35.566  11.788  14.934
17047W        W76484   6.913  40.337   3.365
17048W        W76485  18.680  42.976  11.884
17049W        W76486   3.850  36.550   3.294
17050W        W76487  35.383  25.686  12.876
17051W        W76488  12.240  21.200  13.448
17052W        W76489  37.065  16.733  14.502
17053W        W76490  12.611  23.615  11.538
17054W        W76491  27.689  26.137  13.063
17055W        W76492   1.328  14.754  10.001
17056W        W76493  37.516  23.056   0.339
17057W        W76494  10.287  16.566   0.401
17058W        W76495  14.319  19.647   4.729
17059W        W76496  19.284  39.512  12.360
17060W        W76497   3.219  14.214  10.426
17061W        W76498  22.666  28.179   9.990
17062W        W76499  22.577  17.113   3.181
17063W        W76500  26.164   5.772   4.300
17064W        W76501  27.477  39.330   1.322
17065W        W76502  22.241  13.215  11.521
17066W        W76503   4.276  14.219   1.385
17067W        W76504  32.547  22.193  12.373
17068W        W76505  27.996  41.405   5.256
17069W        W76506  26.481  10.187  13.854
17070W        W76507  39.329  16.282  14.297
17071W        W76508   4.882   8.204   4.138
17072W        W76509  24.644  29.429  11.587
17073W        W76510  36.462   1.753  12.899
17074W        W76511  19.177  42.341  14.896
17075W        W76512  12.793  40.005  12.492
17076W        W76513  26.503  14.593   2.787
17077W        W76514  43.998  19.614  12.911
17078W        W76515  39.842   8.347  13.523
17079W        W76516  29.628   4.938  10.635
17080W        W76517  14.287  10.238   0.397
17081W        W76518  39.814  31.646   1.906
17082W        W76519  37.500  19.197  12.470
17083W        W76520  15.773  34.604  13.878
17084W        W76521   7.671  24.005   2.756
17085W        W76522  44.418  26.675  10.063
17086W        W76523  22.034  14.769   3.743
17087W        W76524  37.905  15.669   4.279
17088W        W76525  18.072  12.815  11.018
17089W        W76526  35.038  36.568   0.785
17090W        W76527  38.030  14.166   1.237
17091W        W76528  26.644  36.917   2.671
17092W        W76529  18.121  24.686   3.664
17093W        W76530   2.253   0.404  11.057
17094W        W76531  30.011   8.275   2.764
17095W        W76532  30.010  19.210  14.867
17096W        W76533  37.079   2.241  10.606
17097W        W76534  33.466  14.226   0.458
17098W        W76535  21.167  18.641   0.832
17099W        W76536  19.650  44.813   2.814
17100W        W76537  44.905   9.153   1.735
17101W        W76538   9.773  38.054  14.865
17102W        W76539   4.261  24.678   4.236
17103W        W76540  34.582   3.881  11.020
17104W        W76541   5.800   0.416   0.450
17105W        W76542  43.911  16.264  11.964
17106W        W76543  32.140  12.359  11.417
17107W        W76544  42.507  19.562   4.788
17108W        W76545  12.731  40.476   1.925
17109W        W76546  32.003  38.362  10.407
17110W        W76547  30.011  23.081   1.887
17111W        W76548   6.735  27.098  11.863
17112W        W76549   9.692  11.772   2.242
17113W        W76550  24.179   9.742  13.895
17114W        W76551  43.312  39.399  13.993
17115W        W76552  39.849  43.959   2.789
17116W        W76553  20.206  11.372  12.897
17117W        W76554  25.518   2.760  13.031
17118W        W76555  40.331  18.719   4.820
17119W        W76556  19.680  43.934  10.595
17120W        W76557  28.512  18.651  14.370
17121W        W76558  28.976  44.421  11.439
17122W        W76559   7.262  18.213   4.147
17123W        W76560  14.738  16.153   1.343
17124W        W76561  10.299  16.759  14.911
17125W        W76562  20.561  32.040   2.663
17126W        W76563  37.927  22.569  11.040
17127W        W76564  34.069   7.763   3.742
17128W        W76565   3.898  14.256  12.571
17129W        W76566  21.173  19.233   2.381
17130W        W76567  10.744  29.555  11.538
17131W        W76568  44.943  29.426   2.195
17132W        W76569  29.635  41.857   3.805
17133W        W76570   1.822  16.182   3.775
17134W        W76571  16.309  15.287   4.754
17135W        W76572  38.066  17.222  10.924
17136W        W76573  37.998  28.980   4.171
17137W        W76574  22.201  20.554   0.323
17138W        W76575  41.953   4.903  10.435
17139W        W76576   1.324  36.380  12.923
17140W        W76577  24.087  11.688   3.224
17141W        W76578   1.963  30.080  12.971
17142W        W76579  10.259  18.092  13.474
17143W        W76580   0.767  10.210  10.122
17144W        W76581   3.777  28.519  12.024
17145W        W76582  37.552  23.505   3.209
17146W        W76583  12.718  39.955  14.470
17147W        W76584  19.714  13.200   9.986
17148W        W76585  40.802  44.417   4.312
17149W        W76586  40.029  20.665  12.075
17150W        W76587  18.668  34.020   4.260
17151W        W76588  24.049  26.650   4.217
17152W        W76589  27.492  44.472   0.444
17153W        W76590   7.799  26.161  12.063
17154W        W76591  36.021  19.689  13.541
17155W        W76592  14.670  16.721  14.380
17156W        W76593   3.809  28.632  10.910
17157W        W76594  43.427  14.600   4.328
17158W        W76595   1.416  27.150   1.699
17159W        W76596  40.456  25.998  11.391
17160W        W76597   6.818  37.064  13.338
17161W        W76598  24.533  36.990   4.156
17162W        W76599   1.467  42.405   0.410
17163W        W76600   2.945  23.138   3.267
17164W        W76601  27.570   4.310   3.744
17165W        W76602  40.851  29.641  12.918
17166W        W76603  20.043   1.954  12.979
17167W        W76604   8.397  36.456  11.049
17168W        W76605  33.388  11.149  11.396
17169W        W76606  33.408   1.860   2.788
17170W        W76607  28.527  43.796   4.696
17171W        W76608   8.211   4.215  13.513
17172W        W76609  10.760  42.845   9.942
17173W        W76610  34.486  37.383   1.927
17174W        W76611  32.905   5.868   1.331
17175W        W76612   6.212  21.173   2.265
17176W        W76613  28.593  18.690   1.234
17177W        W76614  37.922  29.087  14.504
17178W        W76615  31.424  35.939   3.301
17179W        W76616  33.570  25.565  12.895
17180W        W76617  30.915  14.607  13.878
17181W        W76618  33.444  25.986   1.869
17182W        W76619  23.524   2.757   4.325
17183W        W76620  25.547  23.052   2.358
17184W        W76621  18.210  17.181   5.752
17185W        W76622  25.127  21.055   4.224
17186W        W76623  25.607  40.442   3.790
17187W        W76624  24.163  19.543   0.897
17188W        W76625   4.707  43.471   2.254
17189W        W76626  40.395  32.632   0.289
17190W        W76627  21.216  39.830   4.206
17191W        W76628  27.043  42.357  14.800
17192W        W76629   7.214  38.430  13.988
17193W        W76630   7.209  15.099   0.349
17194W        W76631  25.061  32.062   3.170
17195W        W76632  23.984   7.284  11.571
17196W        W76633  40.891  41.030   4.282
17197W        W76634  34.533   5.270   2.306
17198W        W76635  15.224   5.195   4.717
17199W        W76636  37.013  43.829  11.462
17200W        W76637  11.834  19.074   3.236
17201W        W76638  28.175  38.443  11.953
17202W        W76639  28.037  20.106  11.394
17203W        W76640  14.227  14.168   2.776
17204W        W76641  33.519  15.752   4.240
17205W        W76642  13.609   6.903  11.011
17206W        W76643   3.731  18.208  14.944
17207W        W76644   7.841  28.032   3.689
17208W        W76645  36.367  40.477  14.859
17209W        W76646  16.599  30.081   2.281
17210W        W76647  22.125  20.039  11.935
17211W        W76648  21.214  10.163  14.321
17212W        W76649  27.991  30.615   0.961
17213W        W76650  29.626  16.720  14.409
17214W        W76651  44.444  17.702   0.251
17215W        W76652  13.148   5.368   1.815
17216W        W76653   5.692  43.799   4.169
17217W        W76654   8.190   2.731   3.186
17218W        W76655  30.969  35.053  14.834
17219W        W76656  19.091  32.578   0.347
17220W        W76657  29.060  44.416   2.894
17221W        W76658  34.615  37.912  10.612
17222W        W76659  44.846   6.800   4.781
17223W        W76660  39.348  15.670   0.843
17224W        W76661   9.719   8.292   4.603
17225W        W76662  42.013  22.174   0.930
17226W        W76663  38.948  15.317   2.665
17227W        W76664  17.754  34.433   0.337
17228W        W76665  20.581  43.905   2.354
17229W        W76666  28.051  12.646  11.522
17230W        W76667  15.700  32.559  12.457
17231W        W76668  31.491  17.626  12.550
17232W        W76669  35.534   7.786  12.528
17233W        W76670  37.882  32.072   3.659
17234W        W76671  28.542  40.331   0.261
17235W        W76672  36.919   8.866   3.728
17236W        W76673  28.530  26.193  10.043
17237W        W76674  14.321   7.724  11.595
17238W        W76675  21.677  29.162   2.807
17239W        W76676  44.821  29.023  13.922
17240W        W76677  28.652   4.885   0.787
17241W        W76678   0.954  41.828  13.935
17242W        W76679   9.800   2.868   2.808
17243W        W76680  33.411  24.142   1.419
17244W        W76681  11.866  31.524  13.822
17245W        W76682  37.923  29.082  11.532
17246W        W76683  25.640  28.167   0.777
17247W        W76684  11.662   9.693  11.383
17248W        W76685  30.078  29.440  14.302
17249W        W76686  20.741  25.025   3.218
17250W        W76687   9.152  17.246  14.005
17251W        W76688  31.424  33.948  12.954
17252W        W76689  23.130  12.838   1.763
17253W        W76690   0.970  22.615  14.807
17254W        W76691  39.477  16.290  13.861
17255W        W76692  27.098  21.531   9.522
17256W        W76693  23.078   2.784  14.806
17257W        W76694  18.172  43.766   1.849
17258W        W76695  44.404  12.123  11.479
17259W        W76696  11.856  42.287   2.397
17260W        W76697  10.724  23.124   4.758
17261W        W76698  22.642  40.894  13.050
17262W        W76699  18.223  36.559   0.272
17263W        W76700  40.458  43.365   3.780
17264W        W76701   1.733  20.095   2.308
17265W        W76702  39.919  25.598   1.815
17266W        W76703   7.188  15.611   4.770
17267W        W76704  23.079  19.726  10.992
17268W        W76705  26.963  19.679  13.839
17269W        W76706  39.383   5.406  13.016
17270W        W76707   3.277  19.730  10.522
17271W        W76708  12.137  11.212  12.457
17272W        W76709  33.565   3.325  13.522
17273W        W76710  22.020  26.478  13.815
17274W        W76711  13.123   8.868   3.206
17275W        W76712  10.292  21.249   1.855
17276W        W76713  34.058   4.911  10.641
17277W        W76714  12.265   9.335  14.332
17278W        W76715  17.256  36.942  13.872
17279W        W76716  17.601   8.789  12.864
17280W        W76717  27.158   6.371   1.339
17281W        W76718  19.271   2.800  13.000
17282W        W76719  23.080  43.416   1.307
17283W        W76720  17.130  31.551   0.873
17284W        W76721  30.091   4.823   0.731
17285W        W76722  19.602   4.246   1.855
17286W        W76723  21.715  12.191  13.017
17287W        W76724   9.255  42.362   3.779
17288W        W76725  30.633  23.566  10.484
17289W        W76726  12.746  11.653  10.919
17290W        W76727  22.513  29.471  12.840
17291W        W76728  16.138  44.809   4.146
17292W        W76729   9.297  28.020   0.799
17293W        W76730  11.792  37.852   3.678
17294W        W76731  12.268  14.604  12.508
17295W        W76732   6.716  15.321   2.809
17296W        W76733  23.168  38.497  14.368
17297W        W76734  24.136  25.660  12.041
17298W        W76735  18.650  32.491  13.947
17299W        W76736   2.338  23.177   3.841
17300W        W76737  17.688   8.239   0.768
17301W        W76738  30.029  22.162   2.733
17302W        W76739   8.328  24.613   3.856
17303W        W76740  40.810   4.922  11.919
17304W        W76741  12.346  25.068  11.451
17305W        W76742  14.097  28.508   1.799
17306W        W76743  42.824  41.928   0.885
17307W        W76744  38.917  13.344   1.398
17308W        W76745  28.053  42.397  10.593
17309W        W76746   0.779  34.997   2.901
17310W        W76747  10.290   1.802  10.999
17311W        W76748  40.974  39.395   0.930
17312W        W76749  24.067   6.395   0.438
17313W        W76750  14.707  25.130  11.908
17314W        W76751  32.625  16.799   1.371
17315W        W76752  41.419  17.780  12.059
17316W        W76753   6.699   1.343  13.894
17317W        W76754  42.879  32.533   4.799
17318W        W76755  18.169  14.594  13.032
17319W        W76756   1.457  19.102  14.849
17320W        W76757  17.157  13.334   4.622
17321W        W76758  32.009  19.534   2.789
17322W        W76759  14.316   7.332   3.671
17323W        W76760  13.801  12.130   1.725
17324W        W76761   1.962  37.390   2.858
17325W        W76762  26.511  27.986   4.676
17326W        W76763  28.667  18.111   3.841
17327W        W76764  38.455  27.174   2.263
17328W        W76765  29.119   1.782   3.305
17329W        W76766  32.963  31.979  11.600
17330W        W76767   0.494  18.088  10.425
17331W        W76768   3.715  24.130  14.367
17332W        W76769  11.789  17.189   3.219
17333W        W76770   3.768  25.494  10.418
17334W        W76771  36.072  28.058  12.935
17335W        W76772  28.579  19.703   0.873
17336W        W76773  38.476   5.408   0.324
17337W        W76774   6.703  15.817   1.264
17338W        W76775  44.494  34.002   3.245
17339W        W76776  32.407  30.526  13.517
17340W        W76777  28.477  33.914   1.916
17341W        W76778   8.729  34.413   1.752
17342W        W76779   8.747  32.420  10.519
17343W        W76780   6.423  33.985   3.349
17344W        W76781  31.996  32.607  11.509
17345W        W76782   7.824  23.517   3.680
17346W        W76783  41.806  18.166  13.437
17347W        W76784  27.107  25.571  10.580
17348W        W76785  37.869  15.134  14.310
17349W        W76786  20.220  27.958  11.498
17350W        W76787  21.094   6.309   5.198
17351W        W76788  36.025  44.871   1.228
17352W        W76789  36.573   7.190   3.725
17353W        W76790   7.311  39.511  10.631
17354W        W76791  23.721  19.550  14.015
17355W        W76792  18.754   9.354   1.389
17356W        W76793  12.252  20.570   1.370
17357W        W76794   7.675  42.526  12.837
17358W        W76795  42.011  20.188   0.953
17359W        W76796   0.353  39.380  10.475
17360W        W76797  34.076   4.835   4.704
17361W        W76798  12.142  13.324   0.784
17362W        W76799  44.354  16.270   4.627
17363W        W76800  28.455  26.624  11.010
17364W        W76801  14.172   2.914   4.701
17365W        W76802  43.846  13.696  10.932
17366W        W76803  33.563  36.099   0.950
17367W        W76804  25.498  22.217   3.635
17368W        W76805  28.591  42.407  14.334
17369W        W76806  32.584  39.382  14.361
17370W        W76807  27.525  36.492   2.836
17371W        W76808  37.357   2.449  13.352
17372W        W76809  34.461  33.881   3.185
17373W        W76810   3.760  11.862  11.608
17374W        W76811  39.913  12.137  13.448
17375W        W76812  32.936  31.962   3.830
17376W        W76813  23.637  25.583  14.499
17377W        W76814  41.531  28.098   2.888
17378W        W76815   4.730  27.148  13.872
17379W        W76816  33.500  40.330   4.189
17380W        W76817  25.504  44.803   3.665
17381W        W76818  16.125  14.753   4.831
17382W        W76819  37.558   9.780  11.469
17383W        W76820  23.518   8.851   4.798
17384W        W76821  41.373  16.673  13.059
17385W        W76822  10.309  16.786   4.657
17386W        W76823  13.695  25.479  11.903
17387W        W76824   8.210  25.488  14.867
17388W        W76825  44.465  22.629   0.374
17389W        W76826  11.686  18.619   4.282
17390W        W76827  24.994  31.430  11.978
17391W        W76828  36.848  42.333   3.702
17392W        W76829  42.809  42.441  13.412
17393W        W76830  23.591  43.304  13.493
17394W        W76831   3.886  38.903  14.381
17395W        W76832  20.260  13.349  12.071
17396W        W76833  35.026  15.661   9.929
17397W        W76834  33.099  10.878   4.328
17398W        W76835   0.767  33.509  11.118
17399W        W76836  16.191  38.352   4.170
17400W        W76837  17.141  26.113   2.382
17401W        W76838  25.967   7.887   4.649
17402W        W76839   4.903  13.235   3.287
17403W        W76840   0.829  27.642   2.243
17404W        W76841  31.501  19.621  14.302
17405W        W76842  42.439  38.934   0.919
17406W        W76843  19.189  41.451  12.543
17407W        W76844   0.884  15.222   2.413
17408W        W76845  19.656  25.655  13.330
17409W        W76846  23.736  27.613   4.215
17410W        W76847  37.902  28.073   0.358
17411W        W76848   8.750  10.215  12.844
17412W        W76849   5.824  14.144   0.951
17413W        W76850  30.469  26.000  12.473
17414W        W76851  23.147  24.013   5.318
17415W        W76852   8.401  37.458   4.757
17416W        W76853  36.852  33.909  13.469
17417W        W76854   1.304  33.561   4.614
17418W        W76855  42.879  38.844  14.031
17419W        W76856  31.081  24.150  10.453
17420W        W76857  17.732  21.597   4.302
17421W        W76858  15.732  17.738   3.237
17422W        W76859  21.651   4.349   0.286
17423W        W76860  23.617  42.913  13.440
17424W        W76861  14.818  40.335   0.297
17425W        W76862   8.252  13.787   3.731
17426W        W76863  12.829  37.423   4.338
17427W        W76864  28.447   0.920  13.525
17428W        W76865  35.961   3.362  12.340
17429W        W76866  27.633   6.877   4.616
17430W        W76867   9.190  11.139  13.515
17431W        W76868  38.537  24.696  14.017
17432W        W76869  39.894  15.198   1.746
17433W        W76870  34.874  29.979   4.785
17434W        W76871  39.351  22.056   0.351
17435W        W76872   1.305  11.170  12.991
17436W        W76873  21.243  14.143  11.892
17437W        W76874   4.770  26.979   2.788
17438W        W76875   7.276   4.871   4.823
17439W        W76876  40.434  14.666  10.417
17440W        W76877  18.256   2.918   2.335
17441W        W76878  17.773  27.040  12.390
17442W        W76879  27.989  38.462   9.924
17443W        W76880  28.512  13.628  10.439
17444W        W76881  15.094  12.177   3.321
17445W        W76882  15.306  39.402  12.082
17446W        W76883  41.026  38.036   0.409
17447W        W76884  13.169  19.136   2.774
17448W        W76885  43.970  43.415   3.154
17449W        W76886  10.737  14.656   1.861
17450W        W76887  31.574  39.420  13.989
17451W        W76888  38.446   6.185   0.291
17452W        W76889  33.069  32.972   2.699
17453W        W76890  13.321  13.235   2.746
17454W        W76891  21.259  39.925   5.257
17455W        W76892  39.057  25.609  11.012
17456W        W76893  38.899  30.157   4.727
17457W        W76894  26.509   9.169  12.874
17458W        W76895  17.694   5.717   2.879
17459W        W76896  15.283  35.066   1.728
17460W        W76897  17.596  12.307   0.354
17461W        W76898   4.807  24.223   3.757
17462W        W76899  32.117   4.317  11.035
17463W        W76900  35.871  33.598  14.447
17464W        W76901  29.526  31.059  10.904
17465W        W76902   4.406  19.166   0.393
17466W        W76903  14.176  36.043   3.281
17467W        W76904  38.979  15.235  12.546
17468W        W76905   2.267   6.254   0.835
17469W        W76906  20.652  18.770   4.161
17470W        W76907  35.084  26.605   0.756
17471W        W76908  14.727   9.671   0.285
17472W        W76909  25.138  29.161  12.391
17473W        W76910  25.200  39.992   4.606
17474W        W76911  43.887  27.460  11.541
17475W        W76912  15.642  19.268  13.874
17476W        W76913  12.221  12.164  11.047
17477W        W76914  42.379   4.309   4.154
17478W        W76915  33.039  34.899  12.401
17479W        W76916  20.717   5.337  14.873
17480W        W76917  15.628  44.984   4.117
17481W        W76918   6.813  12.831  10.430
17482W        W76919  39.016  30.912   3.648
17483W        W76920  26.103  21.261   0.340
17484W        W76921  20.713   7.908   2.181
17485W        W76922  34.919   6.685   2.312
17486W        W76923   1.962   6.705   4.171
17487W        W76924  44.008  44.895  14.333
17488W        W76925  33.534  21.113   1.790
17489W        W76926  31.472  10.296   2.409
17490W        W76927  44.819  37.040   1.931
17491W        W76928  25.619  18.789  12.054
17492W        W76929  11.300  39.932  14.398
17493W        W76930  26.192  17.217  13.031
17494W        W76931  13.318  29.608  13.932
17495W        W76932  11.826  42.505   3.233
17496W        W76933  40.866   6.857  13.952
17497W        W76934  10.818  28.106   9.990
17498W        W76935  38.914  33.578   5.220
17499W        W76936  44.923  27.659  10.521
17500W        W76937   8.873  42.337   1.328
17501W        W76938  34.011  10.311   4.699
17502W        W76939   2.359  30.632  10.490
17503W        W76940  38.903  39.824  11.396
17504W        W76941  18.139   0.943   4.624
17505W        W76942   5.295  18.051   0.829
17506W        W76943  31.601  35.564   1.392
17507W        W76944   9.162  27.613   5.776
17508W        W76945  16.780  42.958   2.230
17509W        W76946  35.087  32.923   2.312
17510W        W76947   0.323  43.953  10.518
17511W        W76948  44.308  35.997  10.620
17512W        W76949  36.005  36.937   5.176
17513W        W76950  14.728  39.372   3.228
17514W        W76951   0.296  16.167  10.035
17515W        W76952  27.956  37.461  13.521
17516W        W76953  29.133  24.536   4.734
17517W        W76954  31.531   0.914  12.444
17518W        W76955   1.801  42.971  14.803
17519W        W76956  34.986  13.245  10.634
17520W        W76957  29.160   6.830  13.034
17521W        W76958  25.688  19.042  14.869
17522W        W76959   7.777   1.448   2.839
17523W        W76960  38.413   9.265  14.815
17524W        W76961  25.508   6.898  10.948
17525W        W76962  12.183  36.463  11.468
17526W        W76963  12.337  15.105   1.724
17527W        W76964   1.459  20.270  14.937
17528W        W76965  37.493  21.618  13.012
17529W        W76966  26.083   9.253  14.875
17530W        W76967   3.856   4.331   2.385
17531W        W76968  37.925  14.119   4.266
17532W        W76969   2.420  39.407   4.616
17533W        W76970  18.181   3.877  14.966
17534W        W76971   0.337  12.657  12.996
17535W        W76972  13.820  22.223   3.786
17536W        W76973  40.016   6.231   1.443
17537W        W76974  21.585  26.973  14.346
17538W        W76975  19.687   5.723  11.412
17539W        W76976  12.815  10.810   0.940
17540W        W76977  27.688   5.217  12.000
17541W        W76978   4.858  14.126  14.881
17542W        W76979  19.713  18.720   0.344
17543W        W76980  36.374  43.928   1.370
17544W        W76981  35.364   6.844  11.573
17545W        W76982  44.268  40.904   0.905
17546W        W76983  18.136  23.556  11.442
17547W        W76984  33.079  22.601   9.985
17548W        W76985   2.343   1.340   4.791
17549W        W76986   6.890  21.586  11.859
17550W        W76987  23.606  16.154   3.218
17551W        W76988  12.848  30.916   1.742
17552W        W76989  44.315  29.548  13.951
17553W        W76990  13.641  27.690   4.673
17554W        W76991  35.386  32.899  14.460
17555W        W76992  31.522  27.630  14.509
17556W        W76993  43.830  41.313   4.235
17557W        W76994   1.430  29.583   4.187
17558W        W76995  40.045  21.593  10.572
17559W        W76996  40.344  13.191  14.295
17560W        W76997  26.996  18.716  14.314
17561W        W76998  17.145   1.455   1.776
17562W        W76999  43.333  10.186  13.027
17563W        W77000  17.150  34.525  10.406
17564W        W77001   9.293  11.677  13.837
17565W        W77002  20.669  43.964  12.456
17566W        W77003  34.515  16.690   4.281
17567W        W77004  22.670  33.440   1.372
17568W        W77005   7.183  33.481  11.449
17569W        W77006  39.510  38.053  11.009
17570W        W77007  31.524   1.852  12.549
17571W        W77008  22.207  12.706   0.394
17572W        W77009  37.964  29.962   0.347
17573W        W77010  37.965  26.656   2.842
17574W        W77011   7.273  23.680  13.933
17575W        W77012   4.795  36.369  13.399
17576W        W77013   0.831  17.097   1.749
17577W        W77014  31.437  15.150  13.037
17578W        W77015   6.411  15.694   1.393
17579W        W77016  44.359  39.560   3.346
17580W        W77017   2.753  35.554   9.982
17581W        W77018   9.825  32.071  12.571
17582W        W77019   7.309  27.973  14.436
17583W        W77020  35.972   9.646  14.388
17584W        W77021  12.722  30.037  12.514
17585W        W77022   7.173  38.487   0.463
17586W        W77023  36.975  14.322  10.909
17587W        W77024  39.331  32.930   0.303
17588W        W77025  36.076  19.673   4.599
17589W        W77026  14.159  18.752  10.421
17590W        W77027  35.023  23.209  11.510
17591W        W77028  42.480  15.667   0.756
17592W        W77029   5.196  23.112   1.914
17593W        W77030  11.733  37.542  10.501
17594W        W77031  36.043  23.168   3.168
17595W        W77032   0.314  28.996   1.318
17596W        W77033  11.745  35.885   1.759
17597W        W77034   5.406  22.008  13.831
17598W        W77035   8.860  33.542   4.599
17599W        W77036  30.160  17.652  10.434
17600W        W77037  10.755  44.906   4.275
17601W        W77038  32.572  30.612  11.580
17602W        W77039   3.820  15.195   1.866
17603W        W77040  28.082  35.602   0.826
17604W        W77041  38.968  37.975   2.335
17605W        W77042  36.016  16.605   3.321
17606W        W77043  26.567   3.410  13.942
17607W        W77044  42.367  41.316   0.407
17608W        W77045  11.150  11.236   0.337
17609W        W77046  32.494   5.919   0.750
17610W        W77047  31.992   3.809   5.197
17611W        W77048  35.538  12.141  13.793
17612W        W77049   2.864  39.912   3.214
17613W        W77050   5.807  40.811  10.429
17614W        W77051  22.662   5.852   0.286
17615W        W77052  11.699  12.723   3.306
17616W        W77053  41.296  28.589   2.832
17617W        W77054  41.017  37.517   3.324
17618W        W77055  15.578  22.173  12.524
17619W        W77056  38.947  22.238  11.585
17620W        W77057   4.875  13.638   4.310
17621W        W77058   4.286  37.987  12.571
17622W        W77059  32.498  27.133  11.398
17623W        W77060  30.441   9.275  13.865
17624W        W77061  42.968  31.534  14.337
17625W        W77062  29.088  44.386   3.783
17626W        W77063  20.243  42.789  12.488
17627W        W77064  21.183   9.200   0.268
17628W        W77065   0.832   4.780  13.324
17629W        W77066  10.639  30.509  13.431
17630W        W77067  13.117   5.406   3.746
17631W        W77068  15.155  20.032  12.875
17632W        W77069  16.807   6.917  11.071
17633W        W77070   4.332  13.765  13.819
17634W        W77071  22.101  12.332   3.697
17635W        W77072  16.263   1.968  12.964
17636W        W77073  21.217  13.806  13.531
17637W        W77074  28.548   8.682  13.973
17638W        W77075  29.942  21.164  12.944
17639W        W77076   5.307  11.206   3.792
17640W        W77077  36.593   6.742   4.687
17641W        W77078  30.506  31.514  14.963
17642W        W77079  14.644  41.332   1.887
17643W        W77080  22.166  18.575   0.445
17644W        W77081  35.552   8.799  14.827
17645W        W77082  23.109  28.542   4.835
17646W        W77083  12.308   4.942   1.367
17647W        W77084  21.052  10.192   3.202
17648W        W77085  33.410  18.544   1.228
17649W        W77086  30.429  10.732  11.446
17650W        W77087  38.410  15.626  10.420
17651W        W77088  18.604  17.658   0.814
17652W        W77089   3.828  36.916  14.914
17653W        W77090   4.916  38.338  12.952
17654W        W77091  43.415  41.307  11.071
17655W        W77092   0.421  44.766   4.186
17656W        W77093  27.562  35.880  12.939
17657W        W77094  30.957  31.998   3.670
17658W        W77095  22.577  16.714   0.334
17659W        W77096  36.349  34.454   2.343
17660W        W77097   9.274  23.657  10.081
17661W        W77098  14.272  44.488  10.907
17662W        W77099  17.249  36.403   1.290
17663W        W77100  13.726  32.906  12.461
17664W        W77101  27.563   5.251   1.298
17665W        W77102  28.979  35.532   1.276
17666W        W77103   9.862  26.633   2.871
17667W        W77104  10.716  43.299  12.939
17668W        W77105  38.385  39.514  12.576
17669W        W77106  12.633  32.932  12.381
17670W        W77107  44.978   2.392   1.335
17671W        W77108  18.661   9.670  12.458
17672W        W77109  43.374  40.393   2.743
17673W        W77110  28.101  16.216   3.814
17674W        W77111  10.690  42.978   4.653
17675W        W77112  28.623  40.951   2.234
17676W        W77113  17.075  35.524  10.931
17677W        W77114  21.680  19.584  12.565
17678W        W77115  41.865  34.378  10.520
17679W        W77116   8.215  20.144   1.410
17680W        W77117  33.581  10.808  13.044
17681W        W77118  24.998   5.278   0.921
17682W        W77119  36.920   3.840   2.217
17683W        W77120  37.867  12.680   2.843
17684W        W77121  43.494  39.393  12.530
17685W        W77122   7.745  29.483  10.538
17686W        W77123   0.958  20.540  13.824
17687W        W77124   9.282  18.712   2.677
17688W        W77125   1.776  14.639  13.406
17689W        W77126  20.235  32.064   1.375
17690W        W77127  23.587  43.406  14.881
17691W        W77128  26.172  42.999   5.257
17692W        W77129  15.271  13.685  12.924
17693W        W77130  17.580  29.592   0.328
17694W        W77131  20.267  15.789  13.813
17695W        W77132  33.059  16.672  10.643
17696W        W77133  31.488  31.974   3.349
17697W        W77134  17.141  41.803  12.996
17698W        W77135  17.186  23.159  14.954
17699W        W77136   2.945   0.916  13.458
17700W        W77137  17.297  17.714   3.191
17701W        W77138  20.610  29.466  14.445
17702W        W77139   0.985  37.831  12.377
17703W        W77140  42.896  31.081   3.180
17704W        W77141  25.595   5.911   2.418
17705W        W77142   0.465  31.091  12.880
17706W        W77143  16.314  32.432  11.418
17707W        W77144  24.978  22.133   0.846
17708W        W77145  27.171  32.493   4.197
17709W        W77146  18.200  25.178   3.810
17710W        W77147  42.339  32.434  13.822
17711W        W77148  18.074  30.047  10.955
17712W        W77149  21.631  20.760  14.012
17713W        W77150  13.774   6.769   0.251
17714W        W77151   5.388  39.541   1.261
17715W        W77152  19.073  30.543   3.228
17716W        W77153  26.988  38.952   0.761
17717W        W77154  29.164  22.207  13.515
17718W        W77155  29.527   6.784   2.258
17719W        W77156  31.642  30.427  10.905
17720W        W77157  33.424  40.529   1.290
17721W        W77158  12.219  24.531  10.428
17722W        W77159  35.404   2.739   2.397
17723W        W77160  40.923  35.969  10.444
17724W        W77161  34.525  35.523   1.728
17725W        W77162  19.626  30.523  12.936
17726W        W77163  28.444  14.300  10.459
17727W        W77164   6.183  19.536   0.247
17728W        W77165  18.788  36.065  14.997
17729W        W77166  27.527  38.917  14.999
17730W        W77167  29.433   4.334   1.300
17731W        W77168  19.117  31.454   0.250
17732W        W77169  21.706  41.332  13.005
17733W        W77170  25.089  27.587  14.942
17734W        W77171  31.900   6.351  14.996
17735W        W77172  22.642  21.066   0.299
17736W        W77173  38.531  35.951  11.415
17737W        W77174  23.105  32.933   0.381
17738W        W77175   9.848  12.772  14.296
17739W        W77176  40.405  40.382  13.455
17740W        W77177  25.995  28.479  13.833
17741W        W77178  14.623  13.131   1.831
17742W        W77179  39.890  43.965  14.300
17743W        W77180  21.147  13.233   3.189
17744W        W77181  18.757  19.657  12.548
17745W        W77182  32.520   3.720  11.507
17746W        W77183  26.080   4.818   0.373
17747W        W77184   3.435  38.869  14.004
17748W        W77185   6.196   9.653   0.953
17749W        W77186   3.345  37.537  13.375
17750W        W77187  26.651  19.715   2.393
17751W        W77188   1.900   3.371  10.990
17752W        W77189  41.847  24.112   4.812
17753W        W77190  10.730   5.804   3.765
17754W        W77191  29.113  29.093   2.397
17755W        W77192  21.141  30.469   0.925
17756W        W77193  23.096  14.185   0.873
17757W        W77194  34.403  41.021   4.351
17758W        W77195  40.797   2.459   3.634
17759W        W77196   0.846   5.234   3.844
17760W        W77197  12.243  30.088  14.292
17761W        W77198  23.224  25.483   1.870
17762W        W77199   8.898  40.453   4.774
17763W        W77200  16.251  13.336  13.422
17764W        W77201  19.682  36.532  12.971
17765W        W77202  37.380  28.464  12.368
17766W        W77203   7.873  26.090  13.458
17767W        W77204   9.377  23.708   0.314
17768W        W77205  11.807  18.678  10.427
17769W        W77206   8.168  32.617   3.757
17770W        W77207  20.554   0.254  11.387
17771W        W77208  24.224  43.508   3.808
17772W        W77209  16.647   7.176  14.506
17773W        W77210  10.191  44.453  12.961
17774W        W77211  25.614  42.948   1.377
17775W        W77212  27.158   4.808  11.521
17776W        W77213  44.315  44.300   1.887
17777W        W77214  22.037   1.962  13.007
17778W        W77215  42.356  19.587   2.209
17779W        W77216  42.391  12.219   0.257
17780W        W77217  12.627  21.072  12.864
17781W        W77218  39.391  41.992  12.501
17782W        W77219   7.224  22.524   1.733
17783W        W77220  11.230   3.309   5.109
17784W        W77221  31.518  32.615   4.346
17785W        W77222  12.686  44.430   1.236
17786W        W77223   2.934  44.925  12.483
17787W        W77224  44.407  26.673  12.489
17788W        W77225  23.662  37.376  10.448
17789W        W77226  24.661  37.395  10.012
17790W        W77227  21.256  16.582  13.827
17791W        W77228  12.633  23.023  14.458
17792W        W77229  43.332  37.973  10.522
17793W        W77230  26.085  37.916   3.289
17794W        W77231  12.796   2.436   1.298
17795W        W77232  22.089   0.970   2.872
17796W        W77233  27.475   6.306  12.058
17797W        W77234  14.608  25.047   4.714
17798W        W77235   2.827  41.856   1.804
17799W        W77236  25.116   8.893   3.164
17800W        W77237  37.504  43.810  12.345
17801W        W77238  23.654  39.872   1.716
17802W        W77239  25.168   6.303  11.971
17803W        W77240  10.718   4.377   3.773
17804W        W77241  38.997  17.297  12.949
17805W        W77242  32.036  31.932  11.971
17806W        W77243  27.119  24.139   0.726
17807W        W77244  34.985  32.591  13.401
17808W        W77245  26.998  28.629  13.512
17809W        W77246   5.929  14.273  11.015
17810W        W77247  15.817  41.856   4.122
17811W        W77248  33.448   0.437  12.849
17812W        W77249  13.196  20.108  10.581
17813W        W77250  26.490   9.220  14.346
17814W        W77251  20.706  10.161   1.791
17815W        W77252   3.294  11.658   0.843
17816W        W77253   0.799  24.219  14.365
17817W        W77254  17.068  20.075  11.477
17818W        W77255   6.753  23.043   1.241
17819W        W77256  30.049   0.884   4.301
17820W        W77257  38.343  41.969   4.149
17821W        W77258   4.324   4.712   1.778
17822W        W77259  25.104  39.980   0.333
17823W        W77260  43.489  22.564   9.950
17824W        W77261  19.085   7.366   3.236
17825W        W77262  37.459  22.045  13.348
17826W        W77263  30.514  14.665  12.842
17827W        W77264  40.309  20.747  10.594
17828W        W77265  20.527  25.586   1.929
17829W        W77266  17.186  28.982  12.896
17830W        W77267  16.091   5.771  12.839
17831W        W77268  30.959  18.708  11.416
17832W        W77269  14.251  25.061  13.962
17833W        W77270  22.513  12.355   0.385
17834W        W77271  11.355  39.992  11.087
17835W        W77272  42.915   9.675  12.939
17836W        W77273  43.014  33.923   0.938
17837W        W77274  10.663  22.728  13.036
17838W        W77275  44.857  23.183  12.870
17839W        W77276  16.194   1.929   5.136
17840W        W77277  32.933   3.238   4.820
17841W        W77278  33.556  15.823   0.406
17842W        W77279   4.219   4.699  12.493
17843W        W77280  15.581  25.657   4.290
17844W        W77281  11.730  35.035   9.922
17845W        W77282  18.611  19.756  13.981
17846W        W77283  31.052  20.098  14.468
17847W        W77284  15.158  23.185   0.839
17848W        W77285   5.922  17.779  12.003
17849W        W77286  17.065  37.490   5.286
17850W        W77287   1.300  11.336   1.711
17851W        W77288  29.045  38.006   1.256
17852W        W77289  10.833  44.300  11.459
17853W        W77290   7.316  22.057  14.759
17854W        W77291  20.067  16.607   2.780
17855W        W77292  41.819  41.352  11.392
17856W        W77293  33.025  15.173   3.753
17857W        W77294   4.897   2.746   2.736
17858W        W77295   1.837   0.284  12.534
17859W        W77296  31.559  34.421   3.744
17860W        W77297  27.462   2.875  10.451
17861W        W77298  14.725  13.310  10.405
17862W        W77299  36.474   9.164   4.172
17863W        W77300  36.874  22.042   2.816
17864W        W77301  14.612  24.614  14.837
17865W        W77302  42.453  38.562   1.301
17866W        W77303   8.272  21.175   0.855
17867W        W77304  16.606   3.887  13.991
17868W        W77305  42.437   0.340   3.727
17869W        W77306  34.447  21.659  10.497
17870W        W77307   2.912  16.273  13.887
17871W        W77308  10.348   3.312   1.412
17872W        W77309   3.250  14.195   0.417
17873W        W77310  15.282  18.574   1.738
17874W        W77311  43.395  42.902   3.165
17875W        W77312  43.005  28.011   2.277
17876W        W77313  18.604   1.947  14.295
17877W        W77314  30.510  11.178  12.952
17878W        W77315   1.825  27.534   1.239
17879W        W77316  10.300  13.610   9.947
17880W        W77317  28.930   8.402  14.904
17881W        W77318   8.832   3.455  11.524
17882W        W77319  11.656  25.079   1.764
17883W        W77320  34.603   4.363   1.334
17884W        W77321  28.118  28.605  14.032
17885W        W77322  24.091   6.410  13.869
17886W        W77323  39.536  10.199   5.268
17887W        W77324  10.168  31.516   4.347
17888W        W77325  31.014  25.507   3.246
17889W        W77326  29.174   9.759   2.746
17890W        W77327  21.174  43.821   2.233
17891W        W77328  41.010  18.637   3.236
17892W        W77329  35.895   8.322  10.426
17893W        W77330  43.384  30.920  11.929
17894W        W77331  41.836  34.394   4.663
17895W        W77332  36.522  17.619   4.750
17896W        W77333  13.795  32.581   0.434
17897W        W77334   3.763  42.303  12.427
17898W        W77335  24.711  35.422   0.915
17899W        W77336  11.757  36.957   4.120
17900W        W77337  37.364  10.216   1.914
17901W        W77338  10.657   8.251  10.471
17902W        W77339  31.554   8.383   3.833
17903W        W77340  31.079  27.453   3.687
17904W        W77341   9.722  35.388  12.054
17905W        W77342  20.055  42.486  13.461
17906W        W77343   7.886  21.603  10.463
17907W        W77344  44.283  37.541  10.123
17908W        W77345   3.851  36.841  10.576
17909W        W77346  36.017  25.088  13.941
17910W        W77347  40.344  43.455   4.208
17911W        W77348  27.688  43.465  11.556
17912W        W77349  40.392  17.101  13.321
17913W        W77350   4.266  19.541   2.846
17914W        W77351  40.481  16.274   1.695
17915W        W77352  44.382  41.382   1.787
17916W        W77353  44.363  41.883   4.326
17917W        W77354  34.403  14.648  11.565
17918W        W77355  15.672  37.042  10.586
17919W        W77356  36.025  20.150   1.841
17920W        W77357  36.866  15.201  12.461
17921W        W77358  23.573   5.869   0.442
17922W        W77359  36.953  39.884  13.311
17923W        W77360   7.319  31.583   4.254
17924W        W77361  25.679  32.970   2.220
17925W        W77362  38.361  38.528   3.156
17926W        W77363  13.770   1.478  13.313
17927W        W77364  22.069  29.151   0.330
17928W        W77365  25.497   7.409  13.011
17929W        W77366  40.353  28.123   2.397
17930W        W77367  37.881  32.422  12.913
17931W        W77368  44.388  19.627   4.153
17932W        W77369  36.450   2.813   3.185
17933W        W77370  12.841  10.183  14.487
17934W        W77371  29.510  33.082  14.423
17935W        W77372  25.592  15.582  10.950
17936W        W77373   7.206  32.900   4.826
17937W        W77374  30.637  25.967   1.702
17938W        W77375   3.334   0.751   3.325
17939W        W77376  26.208  15.231   2.403
17940W        W77377  36.883   0.891  12.027
17941W        W77378  14.824  29.643   1.816
17942W        W77379  16.090  35.542   1.341
17943W        W77380  40.967   5.378  12.897
17944W        W77381  13.704  39.979  13.857
17945W        W77382  13.204   0.248  11.880
17946W        W77383  26.585   3.366  10.028
17947W        W77384  39.506  27.079  11.480
17948W        W77385   3.842  16.607   1.846
17949W        W77386  20.272  33.506  14.851
17950W        W77387  18.076  35.067  13.450
17951W        W77388  20.267  26.075   3.786
17952W        W77389  39.837  44.002  11.567
17953W        W77390  11.672  20.095   1.284
17954W        W77391  36.373  13.724   3.637
17955W        W77392  37.493  34.515  12.423
17956W        W77393  35.072  17.286   3.867
17957W        W77394  25.488   1.261  12.540
17958W        W77395  16.250   5.263  14.476
17959W        W77396  24.080  40.974  11.519
17960W        W77397  38.049   2.470  12.995
17961W        W77398  27.020  11.356   0.296
17962W        W77399  41.828  22.064  12.367
17963W        W77400   9.227  21.248  11.970
17964W        W77401  16.682  10.328  13.949
17965W        W77402  37.485  33.547  13.388
17966W        W77403   7.335   5.793   1.218
17967W        W77404  39.897  31.938  11.042
17968W        W77405   2.730  12.166   3.297
17969W        W77406  20.255   1.270   0.291
17970W        W77407  12.203  44.333  10.973
17971W        W77408  34.978   8.823  13.794
17972W        W77409  26.114  31.421  10.994
17973W        W77410  43.810   3.312   0.914
17974W        W77411  12.353  40.827  13.439
17975W        W77412   0.783  16.268   3.148
17976W        W77413  42.947  37.885  10.559
17977W        W77414  42.823  22.207  13.532
17978W        W77415  35.361   8.807  14.447
17979W        W77416  38.524  14.139   1.842
17980W        W77417  43.295  40.410   0.294
17981W        W77418  27.048  13.283   1.738
17982W        W77419  30.128  44.399  13.398
17983W        W77420  18.790   5.701   2.277
17984W        W77421  30.114   7.711   2.389
17985W        W77422  25.624  39.957   5.197
17986W        W77423   6.887  11.301   0.385
17987W        W77424  16.217  20.148   2.797
17988W        W77425   0.362  12.807  14.928
17989W        W77426   8.682   0.401  11.011
17990W        W77427  44.361  11.370   3.664
17991W        W77428  11.239  26.558   4.761
17992W        W77429  30.988  22.502  12.529
17993W        W77430  33.439   2.390  14.017
17994W        W77431  38.437  12.667   1.724
17995W        W77432   9.281  27.005   2.719
17996W        W77433  23.985   1.775  11.582
17997W        W77434  10.812  27.098   0.918
17998W        W77435  44.410  30.610  14.507
17999W        W77436  42.905  27.997  12.412
18000W        W77437  15.625  11.626   3.263
18001W        W77438   8.898  39.025   3.187
18002W        W77439  37.470  40.829  13.474
18003W        W77440  10.174  13.337  14.351
18004W        W77441  23.168  41.040   2.394
18005W        W77442  30.424  32.462  11.393
18006W        W77443  23.192   8.399   1.899
18007W        W77444  30.985  27.189   4.628
18008W        W77445  23.523  32.509   3.688
18009W        W77446  28.026  23.101  10.067
18010W        W77447   5.841  42.858   1.285
18011W        W77448  39.351  30.117   0.822
18012W        W77449  37.498  12.161  14.935
18013W        W77450  24.197  27.148   4.320
18014W        W77451  16.086  23.597  13.849
18015W        W77452  21.727  36.885   1.848
18016W        W77453  39.047  22.623  11.455
18017W        W77454   9.283  41.457  12.459
18018W        W77455   7.187  41.896  14.861
18019W        W77456  43.493  35.431   0.358
18020W        W77457  36.923  20.140  11.060
18021W        W77458  32.051  28.043   4.772
18022W        W77459  38.422  39.422   1.358
18023W        W77460  41.791  24.149  10.012
18024W        W77461  35.983  13.740   2.888
18025W        W77462  38.946   3.325   2.180
18026W        W77463   0.369  15.635   1.391
18027W        W77464  15.738  43.354   4.346
18028W        W77465  34.996  16.094   3.309
18029W        W77466  39.979  23.724  11.596
18030W        W77467  10.159   9.686   2.413
18031W        W77468   9.287  22.518  12.892
18032W        W77469  31.445   3.454  10.531
18033W        W77470  10.178  14.159   1.324
18034W        W77471  19.203  23.550  11.540
18035W        W77472  10.692   5.725  11.481
18036W        W77473  15.255  42.425   3.352
18037W        W77474  31.422  16.625   3.376
18038W        W77475  15.703   2.260   1.703
18039W        W77476  26.199   8.177   3.859
18040W        W77477  26.088  21.529  13.049
18041W        W77478  29.584  23.677  13.398
18042W        W77479   6.380  27.611   5.121
18043W        W77480   5.894  33.475  13.953
18044W        W77481  26.006  22.032   4.163
18045W        W77482  13.110  20.068  14.515
18046W        W77483   1.853  36.494  11.460
18047W        W77484   7.286  14.672  13.994
18048W        W77485  44.908  34.582   3.843
18049W        W77486   5.901  26.074  13.382
18050W        W77487  43.496   5.424  13.476
18051W        W77488  32.533   9.347   0.859
18052W        W77489  29.503  26.147  14.994
18053W        W77490  11.627  29.653  10.452
18054W        W77491   4.384  28.557  12.958
18055W        W77492   0.960  10.344   1.923
18056W        W77493   3.400   6.791   4.715
18057W        W77494   9.879  43.329   2.857
18058W        W77495   0.297   4.810  12.579
18059W        W77496   1.961   9.738  14.026
18060W        W77497   0.966  30.146   0.347
18061W        W77498   9.709  22.132  14.451
18062W        W77499   0.795  27.183  12.365
18063W        W77500  13.144  26.136  10.524
18064W        W77501  17.079  12.663   2.359
18065W        W77502   4.206  12.262  11.467
18066W        W77503  29.153  17.753  12.825
18067W        W77504  43.422  15.742  14.291
18068W        W77505  31.027  15.223   4.126
18069W        W77506  37.944  18.078   3.236
18070W        W77507   0.282   0.901  11.419
18071W        W77508  25.998   2.928   3.355
18072W        W77509   5.306  12.726  12.402
18073W        W77510  33.899   5.718   1.798
18074W        W77511  36.041   9.199   2.744
18075W        W77512   8.195  38.359   1.262
18076W        W77513  26.953  36.581   4.353
18077W        W77514   2.965   7.279  10.456
18078W        W77515  23.568  31.548   0.922
18079W        W77516  18.618  26.010   1.874
18080W        W77517  39.494  32.575   2.869
18081W        W77518  16.228  15.206  12.425
18082W        W77519  16.123  18.753   3.242
18083W        W77520  22.512   3.435   4.649
18084W        W77521  24.974  30.084   0.327
18085W        W77522   8.657  39.868   2.780
18086W        W77523  43.916  18.089  12.953
18087W        W77524   7.721  29.475   0.924
18088W        W77525  23.527  33.012   2.227
18089W        W77526  30.000  30.605   4.224
18090W        W77527   6.897  18.684   2.675
18091W        W77528   4.764   2.936  11.062
18092W        W77529  22.525  32.064  10.088
18093W        W77530  28.642  12.783   2.752
18094W        W77531  19.140  33.549   2.300
18095W        W77532  43.307  43.352   2.692
18096W        W77533  10.650  12.693  13.407
18097W        W77534  23.078  17.256  12.484
18098W        W77535   6.343   3.436   2.366
18099W        W77536  34.113   2.340   4.833
18100W        W77537  13.661  25.585   0.341
18101W        W77538   7.237  20.531   1.900
18102W        W77539  29.617  12.241  11.459
18103W        W77540  29.628  28.450  11.565
18104W        W77541   0.797  41.903  12.069
18105W        W77542  36.349  38.820  12.369
18106W        W77543  27.546  10.863  10.034
18107W        W77544  27.665  42.394   3.644
18108W        W77545  28.497  35.447   2.900
18109W        W77546  37.905  13.823   0.384
18110W        W77547   0.795  26.468  10.519
18111W        W77548  17.752  36.893   3.343
18112W        W77549  18.150  32.627   0.872
18113W        W77550  26.179  31.536  12.064
18114W        W77551  39.066  41.308   3.765
18115W        W77552   9.179  23.729   4.200
18116W        W77553   8.364  16.587  11.435
18117W        W77554  22.019   2.366  12.990
18118W        W77555  34.997  28.951  13.408
18119W        W77556  38.374  35.366   1.314
18120W        W77557  29.937  37.951   1.903
18121W        W77558  44.766  32.460  10.957
18122W        W77559  21.723  26.516   4.676
18123W        W77560   7.283  39.556  14.930
18124W        W77561  19.277  24.653   2.285
18125W        W77562  21.577  34.910   0.249
18126W        W77563  14.112  27.988   1.299
18127W        W77564  29.032  11.772   4.272
18128W        W77565  12.140   5.793   2.730
18129W        W77566   3.275  21.246   2.831
18130W        W77567  19.754   0.248  10.962
18131W        W77568  24.186  31.978   3.796
18132W        W77569   1.938  32.615  11.551
18133W        W77570   5.399  37.831   4.293
18134W        W77571  20.094  28.018  13.875
18135W        W77572  42.885   3.871  12.478
18136W        W77573  10.380  32.909  14.315
18137W        W77574   0.941   4.449  14.910
18138W        W77575  13.242  25.136   1.311
18139W        W77576  40.024  44.823   2.416
18140W        W77577  29.498  19.234  10.586
18141W        W77578  24.565   8.328   1.873
18142W        W77579  33.978  42.436   0.348
18143W        W77580   0.799  39.317  12.484
18144W        W77581   1.750  43.003  13.845
18145W        W77582  20.611  31.054  14.989
18146W        W77583  43.858  17.292   1.775
18147W        W77584  15.678  18.613   2.867
18148W        W77585   6.312  39.872   1.446
18149W        W77586   0.875  42.827   4.307
18150W        W77587   6.803  10.682  13.951
18151W        W77588  33.067  22.217   4.276
18152W        W77589  27.559  14.176   3.690
18153W        W77590  29.063  12.316   4.328
18154W        W77591   3.238  27.583   1.779
18155W        W77592  11.319  17.141   0.764
18156W        W77593  18.115  36.967   2.227
18157W        W77594  33.426  30.420  11.983
18158W        W77595  10.658  22.240  11.606
18159W        W77596   0.257  36.363   1.323
18160W        W77597   4.353  14.167  13.970
18161W        W77598   3.791   7.361   4.210
18162W        W77599   5.373  33.537   4.611
18163W        W77600   3.406  20.581   4.751
18164W        W77601   5.390   1.918  14.342
18165W        W77602  12.121  14.830   0.788
18166W        W77603  28.007  27.950   5.196
18167W        W77604   6.322  20.255   1.427
18168W        W77605  18.738  15.750   0.434
18169W        W77606  20.767  13.742   1.386
18170W        W77607  22.164  15.125  10.613
18171W        W77608   4.731  34.951  12.517
18172W        W77609  16.646  19.143  12.492
18173W        W77610   3.732  11.363  12.344
18174W        W77611  25.546  13.838   2.723
18175W        W77612  10.851  21.533  11.520
18176W        W77613  22.099  10.717  14.814
18177W        W77614  19.600  16.089  14.758
18178W        W77615  22.709  35.905   0.451
18179W        W77616   0.966  31.116   1.298
18180W        W77617  15.591  19.577  13.846
18181W        W77618  15.799  30.011  10.528
18182W        W77619  20.168   9.175   3.233
18183W        W77620  36.430  39.977   9.544
18184W        W77621  30.931  19.595   2.219
18185W        W77622  41.429  31.568   0.941
18186W        W77623  37.859   1.930   2.768
18187W        W77624   9.152  23.101   0.285
18188W        W77625  39.369  43.934   1.835
18189W        W77626  43.386  13.843   4.179
18190W        W77627  37.493  29.090  13.418
18191W        W77628  40.011  44.317  10.441
18192W        W77629  15.637  23.520   0.295
18193W        W77630  12.782  29.588  13.030
18194W        W77631  38.458  21.193  10.530
18195W        W77632  29.557  26.077  11.378
18196W        W77633  26.046  16.731   0.357
18197W        W77634  27.178  41.834   3.160
18198W        W77635  39.493  28.566   4.726
18199W        W77636   0.771  30.152   0.841
18200W        W77637  39.427  14.151  14.791
18201W        W77638  32.030  24.001  14.953
18202W        W77639  42.914  44.408   3.383
18203W        W77640  16.207  27.518   2.206
18204W        W77641  39.857  37.462   2.301
18205W        W77642  27.668  13.203  11.457
18206W        W77643  33.591  30.014  12.041
18207W        W77644  33.417  24.617  12.001
18208W        W77645  26.508  14.157   0.880
18209W        W77646   8.795  23.521  12.976
18210W        W77647  28.938   4.821  14.512
18211W        W77648  11.741  42.324  12.390
18212W        W77649  22.235  34.065   4.720
18213W        W77650  16.112  23.610  14.781
18214W        W77651  27.184  20.596   0.892
18215W        W77652  29.056  24.558   0.918
18216W        W77653  23.236   5.855   4.758
18217W        W77654  32.127  12.712   0.308
18218W        W77655  40.008  40.485  11.403
18219W        W77656   5.296  16.753   1.896
18220W        W77657   3.952   2.883   4.695
18221W        W77658   3.883  21.738   4.139
18222W        W77659   3.238  34.877   4.121
18223W        W77660  19.771  37.930   2.220
18224W        W77661  27.572  28.114  10.601
18225W        W77662  35.057   8.225  11.969
18226W        W77663  40.341   1.316   0.371
18227W        W77664  40.388  20.754   4.761
18228W        W77665  28.930  21.516   1.773
18229W        W77666  10.644   7.172   2.201
18230W        W77667   1.929   9.159   2.379
18231W        W77668  22.631  23.224   0.746
18232W        W77669  36.435   9.173  12.927
18233W        W77670  26.646  29.075  13.794
18234W        W77671  22.166  25.970   4.824
18235W        W77672  12.664  23.054  10.590
18236W        W77673  28.493  37.891   1.398
18237W        W77674  20.632  33.450   0.848
18238W        W77675   4.738  31.498   0.910
18239W        W77676  31.628   9.873  13.362
18240W        W77677   7.312   7.276  14.501
18241W        W77678  21.601  26.081  10.900
18242W        W77679  36.473  30.156  14.289
18243W        W77680   7.262  11.852  14.759
18244W        W77681  32.892  24.530  13.932
18245W        W77682  41.889   6.734   2.725
18246W        W77683  35.591   6.787  11.888
18247W        W77684  38.009  20.110  14.352
18248W        W77685  38.514   4.736   3.249
18249W        W77686  35.098  31.901  12.897
18250W        W77687  40.865  17.662   1.740
18251W        W77688  11.148  15.111  11.078
18252W        W77689  33.107   6.312  10.614
18253W        W77690  43.868  27.136   2.372
18254W        W77691  44.839   9.361   3.323
18255W        W77692  23.675  19.579  11.932
18256W        W77693   3.720  44.313   1.343
18257W        W77694  14.613  35.064  12.541
18258W        W77695   1.870  41.468   4.242
18259W        W77696  13.784  20.231  14.881
18260W        W77697  25.002  12.249   3.351
18261W        W77698   4.362  41.870   3.706
18262W        W77699  14.253  19.571   1.275
18263W        W77700  13.299  10.752   4.143
18264W        W77701   0.397  42.841   3.251
18265W        W77702  32.416  30.599   1.321
18266W        W77703   4.795   4.736   0.247
18267W        W77704  38.420  26.621   3.634
18268W        W77705  25.665  27.138  11.859
18269W        W77706  18.578   5.331  10.545
18270W        W77707   7.755   8.239   2.345
18271W        W77708   1.860  22.076  13.047
18272W        W77709   4.840  18.555   2.211
18273W        W77710   8.795  26.025  14.461
18274W        W77711  25.987  44.922   0.734
18275W        W77712  16.278  34.918   0.269
18276W        W77713  16.741   7.690  13.057
18277W        W77714  17.763  35.032   0.849
18278W        W77715  21.737  19.601   5.129
18279W        W77716  44.925   7.848  14.016
18280W        W77717  37.562  23.204  10.971
18281W        W77718  43.842   5.877   4.283
18282W        W77719  43.881  23.014   4.692
18283W        W77720  37.888   7.808   1.865
18284W        W77721  15.088   8.879   3.697
18285W        W77722  38.488  17.580   4.124
18286W        W77723   9.152  18.060   1.359
18287W        W77724   9.651  27.531   4.789
18288W        W77725  13.709  13.182  10.496
18289W        W77726  20.700  31.515   2.205
18290W        W77727  33.050  38.507   2.893
18291W        W77728  22.553  17.241   3.664
18292W        W77729   9.322  39.480   4.280
18293W        W77730  34.904   4.282  12.476
18294W        W77731  25.040  30.604   4.835
18295W        W77732  31.481   2.316   0.833
18296W        W77733  26.675  27.150  13.418
18297W        W77734   2.240  37.927  12.413
18298W        W77735  14.114  24.064   2.373
18299W        W77736  10.202   8.791  14.005
18300W        W77737  20.725  15.236   2.240
18301W        W77738  30.990  25.993   2.852
18302W        W77739  26.547  42.411   2.376
18303W        W77740  18.084   1.741   3.736
18304W        W77741  32.611  26.152   3.302
18305W        W77742  18.746  30.112  13.961
18306W        W77743  30.102  11.715  12.499
18307W        W77744   6.727  31.499  13.977
18308W        W77745  15.279   3.716  13.340
18309W        W77746  20.566  42.956   4.286
18310W        W77747   7.749   2.736   3.190
18311W        W77748  35.446  44.834   2.764
18312W        W77749  10.365  14.818   1.897
18313W        W77750  38.975  21.643  14.281
18314W        W77751  18.148  21.254   3.304
18315W        W77752  14.280  15.250   0.432
18316W        W77753   8.198  26.613  10.615
18317W        W77754  30.021  37.441   1.776
18318W        W77755  41.335  12.269  10.491
18319W        W77756  14.318  41.943   1.437
18320W        W77757  30.629   1.293  12.031
18321W        W77758  41.996  12.744  12.086
18322W        W77759  44.405  25.668   4.783
18323W        W77760   9.274  20.064   2.280
18324W        W77761  15.265  23.712  13.460
18325W        W77762  10.757  26.656   2.335
18326W        W77763  24.627  22.696  14.438
18327W        W77764  25.160  27.978   4.648
18328W        W77765  13.154  41.993   1.902
18329W        W77766  13.166  25.527   1.704
18330W        W77767  40.045  31.109   1.394
18331W        W77768  37.353  34.568   1.364
18332W        W77769  11.278  31.100  11.955
18333W        W77770   4.336  27.455  13.993
18334W        W77771  22.041   9.374   2.879
18335W        W77772  43.341  15.585   3.322
18336W        W77773  39.488  20.066   2.327
18337W        W77774  28.662   0.927   2.193
18338W        W77775  28.543  32.482   1.859
18339W        W77776  11.646   6.419   5.245
18340W        W77777   9.813   4.320  13.064
18341W        W77778  44.323  30.974   2.693
18342W        W77779  34.105  44.401  12.861
18343W        W77780  24.113   1.896   0.731
18344W        W77781  19.126   6.915   4.684
18345W        W77782  31.455  33.915  11.062
18346W        W77783  11.127  14.180   0.407
18347W        W77784   9.749  30.471  10.996
18348W        W77785   3.802   0.463  14.441
18349W        W77786  30.053   3.453   1.795
18350W        W77787  24.680  26.071   0.813
18351W        W77788  17.574  37.437  12.004
18352W        W77789  15.756  38.511  11.950
18353W        W77790   2.916  15.303  12.067
18354W        W77791  39.547  34.416  10.998
18355W        W77792   1.895  21.113  10.994
18356W        W77793  25.196  42.022   3.650
18357W        W77794  15.321  26.689  12.352
18358W        W77795  22.193  28.650   2.242
18359W        W77796  22.583  17.776   5.643
18360W        W77797  38.820  39.520   3.732
18361W        W77798  31.025  31.101  12.872
18362W        W77799  18.119  26.700  10.997
18363W        W77800  36.523  17.646   3.718
18364W        W77801  28.525   1.850  14.479
18365W        W77802  33.487   6.373   4.210
18366W        W77803  16.579   7.789   1.772
18367W        W77804  31.066  32.911   0.727
18368W        W77805  12.704   5.429  13.850
18369W        W77806  33.531  32.135   3.158
18370W        W77807   4.725  13.819  14.349
18371W        W77808  25.068  10.304   1.303
18372W        W77809   6.738  42.846   0.733
18373W        W77810  44.449   3.419  12.350
18374W        W77811  32.494  36.018   2.870
18375W        W77812  30.057  28.964   0.350
18376W        W77813   7.299  43.947  12.530
18377W        W77814  35.476  12.158   0.434
18378W        W77815  26.580  37.492   0.813
18379W        W77816  34.911  26.612  14.985
18380W        W77817  32.410  27.983   4.626
18381W        W77818  39.510   7.673  12.347
18382W        W77819  16.712  21.079   3.859
18383W        W77820  19.212  44.931  13.049
18384W        W77821  11.827  25.083   3.863
18385W        W77822  12.648  12.305  11.094
18386W        W77823  30.130   5.396  11.860
18387W        W77824  43.010  37.019  11.606
18388W        W77825  27.642  32.433   1.781
18389W        W77826  22.551   2.284  14.944
18390W        W77827  19.072  10.867  13.519
18391W        W77828  33.597  12.199   3.173
18392W        W77829   5.249  44.369   3.253
18393W        W77830  28.664   3.866  11.124
18394W        W77831  29.560  44.811   0.796
18395W        W77832  37.877  20.543   4.347
18396W        W77833  28.172  27.499   2.854
18397W        W77834  20.590   3.418  11.048
18398W        W77835   5.417  10.698  13.905
18399W        W77836  39.444  34.443   4.801
18400W        W77837  31.903  39.376  13.333
18401W        W77838  39.039   4.699  12.523
18402W        W77839   9.799  11.844  11.423
18403W        W77840  18.604   8.892   0.461
18404W        W77841  24.639  34.957   2.811
18405W        W77842  20.128  22.534   5.116
18406W        W77843  25.097  29.153  13.965
18407W        W77844  29.018   7.829  11.563
18408W        W77845  27.634  41.405   0.416
18409W        W77846  43.921  23.490   2.283
18410W        W77847  33.396  27.583   0.731
18411W        W77848  34.393  25.985   4.650
18412W        W77849  28.153  28.565   1.315
18413W        W77850  21.098   2.246   2.184
18414W        W77851  40.508   9.799  10.433
18415W        W77852  15.329  14.740  12.358
18416W        W77853  37.880  16.583   1.899
18417W        W77854  23.199   5.868  10.578
18418W        W77855  22.998  38.043   1.823
18419W        W77856   4.765  43.312  12.544
18420W        W77857  25.691  27.527  14.307
18421W        W77858  32.465   7.375   3.811
18422W        W77859   2.804   8.335   2.855
18423W        W77860  40.419  24.193   0.452
18424W        W77861   8.774  40.996  12.484
18425W        W77862  22.667  20.614   1.694
18426W        W77863  41.011  30.462   3.254
18427W        W77864  35.988  11.779  11.089
18428W        W77865  30.652  36.926  11.112
18429W        W77866  17.749   0.855   3.650
18430W        W77867  17.213  12.855  14.890
18431W        W77868  18.152  28.038   3.819
18432W        W77869  28.456  37.565   9.595
18433W        W77870  13.841  25.583  14.418
18434W        W77871  32.120  25.553   3.706
18435W        W77872  43.994  16.763  13.926
18436W        W77873  10.302  24.046   1.437
18437W        W77874  27.173  43.801  13.517
18438W        W77875  11.351  13.633  13.510
18439W        W77876  26.154  37.869  12.909
18440W        W77877  13.837   6.425   1.451
18441W        W77878  15.813  24.595  13.803
18442W        W77879   7.193  44.298   4.666
18443W        W77880   1.905  16.202  13.859
18444W        W77881  25.025  18.775  11.372
18445W        W77882   0.428  25.704   3.338
18446W        W77883  12.640  10.271  13.493
18447W        W77884  33.083   5.807   4.179
18448W        W77885   9.793  29.147   3.800
18449W        W77886  14.780  20.680  11.931
18450W        W77887  14.128  13.237  10.430
18451W        W77888  30.068  27.991   4.630
18452W        W77889  33.053  30.978  11.058
18453W        W77890   4.701   0.826  11.392
18454W        W77891  15.121  24.591  13.534
18455W        W77892  16.717  19.240   3.785
18456W        W77893  42.302   3.361  12.987
18457W        W77894  43.930  37.977  11.121
18458W        W77895   2.864  30.599  13.957
18459W        W77896  12.322  31.114   1.218
18460W        W77897   3.815  12.653  13.827
18461W        W77898   4.937  36.959   0.483
18462W        W77899  15.717  37.337  12.017
18463W        W77900   6.292  11.803  11.911
18464W        W77901  44.803  28.010   2.410
18465W        W77902  16.700   6.758   3.202
18466W        W77903  36.418  32.509  12.464
18467W        W77904  29.119  16.292   3.240
18468W        W77905  15.125  32.399   1.896
18469W        W77906   6.740  11.635   2.344
18470W        W77907   3.766  44.490  12.453
18471W        W77908  11.685  33.005   4.276
18472W        W77909   7.209   7.746  13.811
18473W        W77910  30.937   6.866   2.786
18474W        W77911  12.347  26.159   1.807
18475W        W77912   4.733  38.971   1.227
18476W        W77913   5.234  19.646   1.309
18477W        W77914  33.078  11.153   0.838
18478W        W77915  24.058   8.728  12.477
18479W        W77916   7.837  20.110   1.256
18480W        W77917  10.206  16.623  12.412
18481W        W77918  44.498  31.958   2.697
18482W        W77919  44.312  43.466  14.467
18483W        W77920   4.310  30.049   1.711
18484W        W77921   9.666  15.103   0.772
18485W        W77922  44.420  10.280  14.280
18486W        W77923  21.528  13.824   0.343
18487W        W77924  21.059  41.363   3.188
18488W        W77925  28.574  16.101   2.178
18489W        W77926  13.711  36.526   3.281
18490W        W77927   1.741   0.954  11.491
18491W        W77928  27.494   8.378   3.377
18492W        W77929  37.985  31.489   0.455
18493W        W77930  21.137  39.542   1.734
18494W        W77931  29.450  38.946   0.269
18495W        W77932  42.392  37.507   1.752
18496W        W77933   9.873   1.830  12.498
18497W        W77934  39.519  42.008   2.710
18498W        W77935  27.087  35.868  11.463
18499W        W77936  39.492   3.225  14.341
18500W        W77937  10.662  13.240  14.008
18501W        W77938  30.962   6.782  12.897
18502W        W77939  32.028  23.517  13.322
18503W        W77940  20.661   6.226   2.863
18504W        W77941  24.003   4.269   1.214
18505W        W77942  10.222   6.326   3.386
18506W        W77943  29.150   4.705   3.219
18507W        W77944  10.268   2.830   2.413
18508W        W77945  17.755  30.461  14.933
18509W        W77946  22.083  14.227   5.310
18510W        W77947  27.564  39.374   1.905
18511W        W77948   2.393  36.908  11.998
18512W        W77949   6.187   4.905   5.150
18513W        W77950  13.200  15.689   2.241
18514W        W77951  35.376  14.765   2.316
18515W        W77952   4.232  35.944   0.781
18516W        W77953  19.135  14.803  11.881
18517W        W77954  37.503  42.285   3.701
18518W        W77955  10.319  26.007   4.731
18519W        W77956  42.294  21.214  14.371
18520W        W77957  33.937  18.095   2.796
18521W        W77958  17.159  12.663   0.966
18522W        W77959  12.232  36.033   4.794
18523W        W77960  44.909  11.751   3.692
18524W        W77961  11.845  18.286   2.888
18525W        W77962  25.470   0.420  13.968
18526W        W77963  39.849  11.849   4.269
18527W        W77964  28.093  18.618   2.288
18528W        W77965  19.137  35.966  10.550
18529W        W77966  15.250   8.872  11.603
18530W        W77967  39.869  39.512  13.878
18531W        W77968  13.221  34.439   4.598
18532W        W77969  39.871   0.341  11.525
18533W        W77970  39.877  18.161  13.453
18534W        W77971  38.996   4.409  11.068
18535W        W77972  34.120   4.725   3.671
18536W        W77973  44.460  11.247  14.765
18537W        W77974  42.411  26.173  11.510
18538W        W77975  38.481  32.968   0.734
18539W        W77976   7.718  34.945  10.964
18540W        W77977  23.699  22.522  10.047
18541W        W77978  32.507  32.078  14.331
18542W        W77979  37.463   1.856   3.748
18543W        W77980  12.629   0.916  14.492
18544W        W77981   5.365   9.659   1.273
18545W        W77982  29.109  26.169  14.975
18546W        W77983  10.688  44.313  12.943
18547W        W77984  36.466  34.989   4.828
18548W        W77985  18.719  10.672  14.970
18549W        W77986  42.929   4.332  13.812
18550W        W77987  16.187  42.476   0.867
18551W        W77988  30.602  43.802   1.923
18552W        W77989  24.004  35.922   4.775
18553W        W77990  20.203  20.532  11.516
18554W        W77991  32.995  16.159   2.188
18555W        W77992   1.841   6.300   1.726
18556W        W77993   3.944  30.599   0.243
18557W        W77994  37.474  32.606  13.365
18558W        W77995  22.212  18.602  12.392
18559W        W77996   8.222  28.943   0.831
18560W        W77997  37.975   2.302  14.393
18561W        W77998  42.776  27.500   2.238
18562W        W77999   5.352  26.652   1.448
18563W        W78000  12.332  20.731   0.351
18564W        W78001  37.968  21.252  14.004
18565W        W78002  40.988  42.811   0.442
18566W        W78003  43.487  39.443   4.630
18567W        W78004  23.639  36.426  14.991
18568W        W78005  11.335  22.114  13.517
18569W        W78006  40.420  39.484   2.679
18570W        W78007   5.853  13.830   2.298
18571W        W78008  22.148   0.820  11.562
18572W        W78009  18.598  25.474   0.258
18573W        W78010  11.729  43.767  12.553
18574W        W78011  22.115  34.558  11.470
18575W        W78012  31.039  19.172  12.857
18576W        W78013  39.969  15.736  12.882
18577W        W78014  33.561  34.016   2.325
18578W        W78015  18.120  12.831  13.997
18579W        W78016   8.212  13.739  12.449
18580W        W78017  28.472  43.453   3.208
18581W        W78018   3.265  36.412  12.552
18582W        W78019  33.579   4.238   0.367
18583W        W78020  17.705  27.692  13.797
18584W        W78021  24.648   0.433   0.820
18585W        W78022  24.658   5.786   4.298
18586W        W78023  28.168   3.778  13.805
18587W        W78024   7.407  43.286  11.525
18588W        W78025   0.808   2.321   3.238
18589W        W78026  25.964  31.031   2.363
18590W        W78027   3.386   5.882   4.276
18591W        W78028   9.713   7.712   2.243
18592W        W78029   0.311  18.745   2.725
18593W        W78030  39.913  36.954  14.276
18594W        W78031  30.064  26.090  10.957
18595W        W78032  17.601  29.480  14.958
18596W        W78033  41.831  34.955   3.787
18597W        W78034  39.021  10.302   4.609
18598W        W78035  39.457  18.233  12.492
18599W        W78036  41.352  15.135   2.211
18600W        W78037   2.296  29.993   3.854
18601W        W78038  20.238  32.427  12.367
18602W        W78039  35.600  11.653   2.292
18603W        W78040  18.673  27.196  13.824
18604W        W78041   8.401  24.081  11.945
18605W        W78042   0.952   4.422  14.369
18606W        W78043  10.163  19.221   4.145
18607W        W78044  15.168   8.806   4.793
18608W        W78045   0.341  20.725  11.095
18609W        W78046   3.945  14.600  12.417
18610W        W78047  11.313   5.292  11.580
18611W        W78048   9.372  15.288   3.317
18612W        W78049  26.493   1.259   1.751
18613W        W78050  40.460  39.892   4.755
18614W        W78051  42.793   8.782   2.288
18615W        W78052  32.458  20.041   4.807
18616W        W78053  20.106   2.412  10.904
18617W        W78054  40.516  38.057  14.489
18618W        W78055  19.079   5.930  10.415
18619W        W78056  32.064  20.524  10.518
18620W        W78057  18.601   2.324   4.628
18621W        W78058   3.217  18.646  12.570
18622W        W78059  34.453  11.633  13.890
18623W        W78060   1.256   7.385  13.011
18624W        W78061  41.412   7.909   1.719
18625W        W78062  18.679  15.258  11.533
18626W        W78063  16.200  41.383   0.760
18627W        W78064   6.226  43.288  11.461
18628W        W78065  10.291  39.536  13.928
18629W        W78066   7.906   5.384  14.464
18630W        W78067  15.601   6.862  12.363
18631W        W78068  21.068   0.974   0.329
18632W        W78069  17.767  42.452   3.334
18633W        W78070  28.184   2.779  11.413
18634W        W78071  30.465  28.513   1.852
18635W        W78072  43.505  39.345  11.602
18636W        W78073  23.207   1.420  13.020
18637W        W78074  14.209  22.724  14.880
18638W        W78075  36.532  33.929  14.315
18639W        W78076   5.839  37.357   4.326
18640W        W78077  21.744  35.480  14.896
18641W        W78078   1.371  15.689   2.295
18642W        W78079  22.152  14.708   1.924
18643W        W78080  22.722   2.260  12.396
18644W        W78081  39.909  29.595   1.407
18645W        W78082  14.689   9.833   3.706
18646W        W78083  42.990  19.080   0.877
18647W        W78084  29.930  22.041  12.032
18648W        W78085  23.180  25.162  10.414
18649W        W78086  27.562   1.824  11.477
18650W        W78087  35.554  27.521   3.780
18651W        W78088  29.600  17.086   3.704
18652W        W78089  14.781  23.491  11.045
18653W        W78090  41.433  34.955   3.777
18654W        W78091  38.402  43.365   4.324
18655W        W78092  26.128  20.765  14.382
18656W        W78093   9.862  33.558   4.807
18657W        W78094  31.502  10.311   3.274
18658W        W78095  20.071  19.680   3.173
18659W        W78096  13.269   5.890  13.338
18660W        W78097  29.067  28.101  13.884
18661W        W78098  36.853  21.230   3.248
18662W        W78099  24.111   2.907   2.191
18663W        W78100   2.841  37.988   0.414
18664W        W78101  33.050  25.626  10.426
18665W        W78102  27.078  23.147  14.768
18666W        W78103  20.545  17.207  12.450
18667W        W78104  30.536  25.613   3.160
18668W        W78105  41.021  33.094   0.261
18669W        W78106  43.799  28.049   4.151
18670W        W78107  41.831   6.700  13.955
18671W        W78108  19.580  41.370   4.186
18672W        W78109  35.541  43.919   3.171
18673W        W78110  25.566  17.294   4.612
18674W        W78111  19.573  35.526   0.418
18675W        W78112  24.219  38.457   0.894
18676W        W78113  17.772   6.402   3.651
18677W        W78114  27.457   0.292  11.396
18678W        W78115   6.401   1.438  11.563
18679W        W78116  19.656  38.858  11.386
18680W        W78117  22.707  12.319  12.371
18681W        W78118  32.096  29.929   1.811
18682W        W78119  21.708   9.349  13.546
18683W        W78120   3.857  41.006  12.026
18684W        W78121  10.300  36.405   1.287
18685W        W78122  18.724   0.794  12.990
18686W        W78123  41.482  44.299  10.905
18687W        W78124  35.947  10.843   0.356
18688W        W78125  14.788  22.524  12.407
18689W        W78126  18.151  21.248   3.788
18690W        W78127  17.638  43.925   4.781
18691W        W78128  33.948   9.783  11.508
18692W        W78129  26.018  39.932   4.652
18693W        W78130  34.908  39.862   1.874
18694W        W78131  16.771  44.886   9.652
18695W        W78132   4.916  35.510  13.467
18696W        W78133   2.326  36.951   0.742
18697W        W78134  37.913   5.693   2.295
18698W        W78135  25.610  12.641  13.838
18699W        W78136  39.512  16.112   2.204
18700W        W78137  22.081  10.282   3.638
18701W        W78138  33.875   2.293   0.885
18702W        W78139  30.594  23.608   1.342
18703W        W78140  41.354  31.058  12.037
18704W        W78141  21.028  26.016   3.840
18705W        W78142  24.544   2.821   0.822
18706W        W78143  34.580  30.916  14.504
18707W        W78144  35.091  35.988   4.185
18708W        W78145  14.174  18.744  11.563
18709W        W78146   5.706  16.582   1.427
18710W        W78147  44.274  43.396  13.528
18711W        W78148  20.710  35.500  13.443
18712W        W78149  32.930   2.430   1.313
18713W        W78150  20.244  43.367   2.328
18714W        W78151   5.873  16.104  14.882
18715W        W78152  15.257  26.142  14.020
18716W        W78153  22.183   0.747  11.118
18717W        W78154  38.821  44.299  12.967
18718W        W78155  32.127  31.012   3.746
18719W        W78156  11.866  16.125  14.781
18720W        W78157  37.909  40.970  13.974
18721W        W78158   3.249  34.550   2.826
18722W        W78159  11.290  30.922   2.408
18723W        W78160  10.753  22.240   0.758
18724W        W78161  41.040  30.922   4.744
18725W        W78162  11.158  14.770  12.969
18726W        W78163  41.942   0.873   0.313
18727W        W78164   8.261  20.651   0.270
18728W        W78165  23.067  43.483   3.379
18729W        W78166  37.365  31.551  12.559
18730W        W78167  39.392  29.425   3.208
18731W        W78168  40.351   9.681  11.034
18732W        W78169  26.074  12.361   2.290
18733W        W78170  18.774  19.163   3.177
18734W        W78171  38.457  25.085  14.479
18735W        W78172  15.243  18.071   1.313
18736W        W78173  16.090   1.812  11.547
18737W        W78174  28.637   0.989   1.742
18738W        W78175   0.974   9.838   2.805
18739W        W78176   6.408   5.925   4.164
18740W        W78177  22.025  11.852   0.822
18741W        W78178  28.930  38.497  14.009
18742W        W78179  40.029  26.971   0.794
18743W        W78180  13.816   3.947   3.665
18744W        W78181  11.327  43.364  11.463
18745W        W78182  32.633  10.315   4.194
18746W        W78183  23.680  41.926   1.369
18747W        W78184  22.093  38.390   2.396
18748W        W78185  40.423  12.155   3.827
18749W        W78186  14.797  16.089  10.578
18750W        W78187  16.744  44.320   5.760
18751W        W78188  34.522   9.158   4.158
18752W        W78189   6.323   2.727  14.858
18753W        W78190  11.266  36.402   2.202
18754W        W78191   7.738  30.430  11.405
18755W        W78192  22.043  31.055  14.927
18756W        W78193  22.111   2.891   4.251
18757W        W78194  39.954  36.872   3.722
18758W        W78195  22.163  11.657  11.432
18759W        W78196   7.798  15.327   2.738
18760W        W78197  14.597  32.611   0.744
18761W        W78198   3.227   4.724   0.254
18762W        W78199  42.500  33.071  12.026
18763W        W78200   2.736  23.654   5.108
18764W        W78201  41.313  23.584  11.004
18765W        W78202  18.271  27.690   2.221
18766W        W78203  44.361   0.960  13.864
18767W        W78204  27.142  39.506   2.203
18768W        W78205  42.451   1.829   2.794
18769W        W78206  42.368  37.945  10.544
18770W        W78207  34.093  23.522   4.723
18771W        W78208  34.529  12.167  10.900
18772W        W78209  13.827  24.136   2.891
18773W        W78210  21.538  13.293   0.769
18774W        W78211  14.138  28.997  12.984
18775W        W78212  36.499   7.219  10.480
18776W        W78213   4.741  19.654  12.521
18777W        W78214  42.454  16.714   4.184
18778W        W78215  35.898  23.705  12.372
18779W        W78216  27.047  31.934   3.234
18780W        W78217  40.525  38.888  14.398
18781W        W78218  16.682   2.293  13.931
18782W        W78219   3.803  14.683  14.920
18783W        W78220  26.020  11.865  14.515
18784W        W78221  39.022   0.384  10.626
18785W        W78222   6.259   4.750  14.996
18786W        W78223  30.450  31.552  11.014
18787W        W78224   2.756  34.495   4.310
18788W        W78225  24.111  10.789  13.835
18789W        W78226  28.030   0.790   4.320
18790W        W78227   7.385  25.132  13.016
18791W        W78228  42.912  44.840   3.780
18792W        W78229  14.311  40.359  10.003
18793W        W78230  16.696   8.209  14.458
18794W        W78231  13.166  28.640   4.343
18795W        W78232   7.867  43.910  11.878
18796W        W78233  18.116  17.607  13.817
18797W        W78234  44.397  16.746  10.563
18798W        W78235   8.401  22.223   2.850
18799W        W78236  13.333  15.765   0.330
18800W        W78237  25.671   2.754  14.308
18801W        W78238  42.001  18.159   4.810
18802W        W78239  35.092  34.980   2.234
18803W        W78240  25.208  19.575   2.201
18804W        W78241  11.344   2.239  14.375
18805W        W78242   9.390  30.153   1.229
18806W        W78243  24.035  17.251   2.310
18807W        W78244   8.655  29.617   1.373
18808W        W78245  16.082  13.336   4.144
18809W        W78246  18.276  18.193   0.389
18810W        W78247  20.214   4.785   4.752
18811W        W78248   4.239  14.241   2.864
18812W        W78249  16.789  44.402   1.383
18813W        W78250  39.855   1.890   0.468
18814W        W78251  41.420   8.353   2.744
18815W        W78252  13.613  36.843  14.970
18816W        W78253  34.446  42.850   3.290
18817W        W78254  31.462  32.895  12.046
18818W        W78255  12.662  33.901   3.370
18819W        W78256  42.352   4.722   2.844
18820W        W78257  37.862  44.933  11.978
18821W        W78258   7.183  40.878  13.925
18822W        W78259  13.601  21.600   4.155
18823W        W78260  33.109   9.857   2.765
18824W        W78261   7.702  15.222  12.574
18825W        W78262  36.091   5.850  12.040
18826W        W78263  15.628  14.102  10.092
18827W        W78264  41.994  24.109   1.778
18828W        W78265  10.184  11.191  10.914
18829W        W78266   0.861   6.891  14.289
18830W        W78267  36.913  38.440   1.883
18831W        W78268  27.013  25.578   0.458
18832W        W78269  42.331  37.052  14.990
18833W        W78270  20.197  44.270  10.076
18834W        W78271  11.744  25.089   5.254
18835W        W78272  34.999   5.914   1.234
18836W        W78273  43.344   9.856   2.350
18837W        W78274  19.285  13.301   2.698
18838W        W78275  36.358  25.508   2.311
18839W        W78276  11.350   1.297   1.925
18840W        W78277  21.113   0.417  14.894
18841W        W78278  40.304  12.325   0.477
18842W        W78279  33.126  37.502  12.890
18843W        W78280  43.473   1.450  11.931
18844W        W78281  15.219   8.193   2.818
18845W        W78282  23.492  11.138   1.731
18846W        W78283  11.697  29.444   0.396
18847W        W78284  39.477  44.795   0.343
18848W        W78285   7.724  37.418  12.937
18849W        W78286  23.212  33.078  14.030
18850W        W78287  14.273  39.327   3.213
18851W        W78288  18.295  21.198   4.783
18852W        W78289   7.257  40.440  13.062
18853W        W78290  41.436  43.853   2.854
18854W        W78291   3.864  36.087   0.465
18855W        W78292  29.947  37.498  10.540
18856W        W78293  32.454  21.248  11.434
18857W        W78294  28.180  17.573  13.793
18858W        W78295  10.218   3.835   2.332
18859W        W78296  33.554  15.646   5.276
18860W        W78297  22.039  28.030   3.725
18861W        W78298  42.933  16.724  13.349
18862W        W78299  40.898  25.518  11.592
18863W        W78300  16.178  44.434   4.200
18864W        W78301  40.990  22.724  13.327
18865W        W78302  42.862  27.042   2.271
18866W        W78303   8.835  37.002   0.786
18867W        W78304  22.651  31.113   3.265
18868W        W78305  44.446  33.450  14.408
18869W        W78306  44.783  14.239   2.262
18870W        W78307  11.208   2.880   2.417
18871W        W78308  40.889  42.500  13.488
18872W        W78309  27.484  30.540  11.949
18873W        W78310  20.766  31.968   3.852
18874W        W78311  28.442  21.627  13.359
18875W        W78312  43.792  24.598   0.313
18876W        W78313  26.653  43.346  14.820
18877W        W78314  38.005  34.879  11.409
18878W        W78315  13.139  29.955   0.870
18879W        W78316  35.014  39.874  13.919
18880W        W78317  30.527   6.741   4.831
18881W        W78318   7.879  25.984   2.669
18882W        W78319  12.321  11.351   4.292
18883W        W78320  14.722  38.899  12.970
18884W        W78321  33.078   6.690  12.956
18885W        W78322  22.197  12.166  11.027
18886W        W78323   1.840  38.401   4.124
18887W        W78324  22.713   7.762   0.727
18888W        W78325  32.923  40.389   0.840
18889W        W78326  23.706  34.935   3.685
18890W        W78327  12.651  22.618   3.267
18891W        W78328  33.436  24.501   4.607
18892W        W78329   3.277  37.862  12.501
18893W        W78330  33.965  17.197   3.668
18894W        W78331  44.318  41.457   1.369
18895W        W78332  17.240  11.727  12.520
18896W        W78333  16.767  21.597   2.878
18897W        W78334  24.534  25.621   3.319
18898W        W78335   5.408  11.788   0.937
18899W        W78336  25.093  34.903   4.217
18900W        W78337   3.778   2.307   1.768
18901W        W78338  37.358  25.105   1.316
18902W        W78339  30.102  25.623  11.904
18903W        W78340  12.806  32.073  13.947
18904W        W78341  25.145  41.436   1.807
18905W        W78342  35.884  40.375  12.505
18906W        W78343  41.429  13.633   4.683
18907W        W78344  24.217   3.813   4.804
18908W        W78345  31.091  22.165   0.300
18909W        W78346  15.176  19.744  13.367
18910W        W78347   9.191  12.616   4.348
18911W        W78348  24.641  44.821  10.478
18912W        W78349   4.415  20.273  13.882
18913W        W78350  42.909  24.175  12.885
18914W        W78351  18.150   4.891   1.324
18915W        W78352  34.960  29.990  12.905
18916W        W78353   0.339  24.060  11.404
18917W        W78354  14.820  10.700   3.282
18918W        W78355  41.931  19.051  13.980
18919W        W78356  44.329   0.858   0.328
18920W        W78357  43.387  16.315  14.351
18921W        W78358  31.640  40.528   1.769
18922W        W78359  17.145  35.916   4.774
18923W        W78360   5.332   2.942   3.294
18924W        W78361  28.936   4.872  13.001
18925W        W78362   8.870   9.848  11.981
18926W        W78363  37.914  32.098   3.318
18927W        W78364  19.086  14.739   3.179
18928W        W78365  17.763  15.798  12.464
18929W        W78366  29.500  23.180  13.798
18930W        W78367  42.463  43.279  13.870
18931W        W78368  16.123  19.654   3.723
18932W        W78369   8.322  41.365   3.161
18933W        W78370   7.357  16.577   1.292
18934W        W78371   6.744   3.710   2.831
18935W        W78372  18.613  28.945   3.238
18936W        W78373  15.284  12.273  13.982
18937W        W78374  29.032  21.075   2.282
18938W        W78375  35.439  12.829   2.786
18939W        W78376  44.895  21.054   0.452
18940W        W78377  40.010  42.008   1.863
18941W        W78378  21.557  13.775   1.433
18942W        W78379  32.466  44.438   4.645
18943W        W78380  18.206  23.999  10.641
18944W        W78381   0.951  39.835  13.828
18945W        W78382  13.159  12.210  10.634
18946W        W78383  36.449  24.620   4.761
18947W        W78384  35.587  36.431  12.533
18948W        W78385  24.155  10.807  12.497
18949W        W78386  39.040  38.465   4.228
18950W        W78387  44.384  25.139   2.882
18951W        W78388  26.010  26.661   2.890
18952W        W78389  40.013  20.716   1.869
18953W        W78390  17.717  19.551  12.918
18954W        W78391  17.646  13.706   0.326
18955W        W78392  13.191  38.830   3.716
18956W        W78393   2.410  38.348  11.462
18957W        W78394   7.416  26.194  14.925
18958W        W78395  16.789  22.080   3.214
18959W        W78396  37.362  42.285   2.418
18960W        W78397  15.635  31.045  11.420
18961W        W78398  31.972  36.058  11.427
18962W        W78399  41.350  36.373   4.747
18963W        W78400  14.719   1.252   2.809
18964W        W78401  15.186   2.826   1.782
18965W        W78402  35.505  20.250   2.282
18966W        W78403  33.586  37.564  11.060
18967W        W78404   8.226  43.404  12.943
18968W        W78405  33.955  26.592  13.366
18969W        W78406  29.575   3.395   5.183
18970W        W78407  28.947  40.312   9.616
18971W        W78408   8.228  41.927  13.913
18972W        W78409  20.539   5.281   1.915
18973W        W78410  14.279   8.686   2.722
18974W        W78411  19.756  12.671   2.201
18975W        W78412   4.303   3.376   1.896
18976W        W78413   1.436  29.428   1.328
18977W        W78414  41.031   3.752  11.935
18978W        W78415   7.204  39.839  11.117
18979W        W78416  29.111  33.043   1.820
18980W        W78417  30.416   8.285  13.462
18981W        W78418   5.267  13.121   4.251
18982W        W78419   4.442  19.654  10.444
18983W        W78420  39.416  22.231  11.534
18984W        W78421  16.276   1.270  13.814
18985W        W78422  26.540   9.817  10.545
18986W        W78423  35.469  40.878  11.055
18987W        W78424   1.858   0.818  10.555
18988W        W78425  43.792   1.481   4.130
18989W        W78426  26.622  39.344  13.875
18990W        W78427  26.602  28.453   2.230
18991W        W78428   6.229   2.376  13.893
18992W        W78429  40.479   1.731  13.964
18993W        W78430   6.684  42.307  13.369
18994W        W78431   4.432  43.413   0.906
18995W        W78432  23.626  20.548  14.435
18996W        W78433  22.569   8.865   0.427
18997W        W78434  27.650  13.698   0.355
18998W        W78435  32.964  11.641  12.932
18999W        W78436   9.835  28.556   4.624
19000W        W78437   7.182  43.417   1.449
19001W        W78438  35.587  11.710  14.497
19002W        W78439   8.883   5.425   0.468
19003W        W78440   5.268  23.648   1.772
19004W        W78441   9.187  44.785  10.999
19005W        W78442  36.051   8.700   1.241
19006W        W78443  11.686  24.697   3.190
19007W        W78444  14.798   4.351   1.260
19008W        W78445   2.867  12.701   2.879
19009W        W78446  43.418   2.360   1.213
19010W        W78447   1.751  20.240  14.765
19011W        W78448  40.020  32.421   1.738
19012W        W78449   1.793   6.379   2.196
19013W        W78450  40.515   4.369  14.970
19014W        W78451   2.414  15.225  14.307
19015W        W78452  30.966  33.497   0.250
19016W        W78453  43.457   9.671  14.793
19017W        W78454  27.987  30.935   3.191
19018W        W78455  20.094   0.403  10.575
19019W        W78456  44.317  18.285  12.841
19020W        W78457  32.475   3.889  13.977
19021W        W78458  38.925   3.869  12.522
19022W        W78459  15.176  27.075   3.837
19023W        W78460  37.567   7.360   4.782
19024W        W78461   2.758  28.124   2.797
19025W        W78462  18.726  24.512  12.492
19026W        W78463  17.194  35.402  13.025
19027W        W78464  20.666  39.401   2.718
19028W        W78465  22.589  14.782   4.205
19029W        W78466  12.812  24.067   3.730
19030W        W78467  42.304  30.657  12.459
19031W        W78468   2.261   1.785  13.838
19032W        W78469  39.889  11.781  14.506
19033W        W78470  24.649  28.950  12.965
19034W        W78471  44.301  12.629  14.816
19035W        W78472   2.317  17.755  10.972
19036W        W78473  16.232  34.547  14.790
19037W        W78474  41.943   4.373  10.580
19038W        W78475  27.959  21.555  10.573
19039W        W78476  26.490  25.615  14.810
19040W        W78477  15.788  10.205   5.084
19041W        W78478  18.166  26.001   2.339
19042W        W78479  12.617  36.481   1.353
19043W        W78480  33.416  42.965   1.239
19044W        W78481  26.113  36.952  12.439
19045W        W78482   5.822  32.947   3.657
19046W        W78483   0.280   8.760  12.425
19047W        W78484  42.428  43.953  11.038
19048W        W78485  37.077  39.365  11.935
19049W        W78486  43.359  42.442   4.747
19050W        W78487  39.038  44.982   3.811
19051W        W78488  24.214  41.968  11.497
19052W        W78489   2.854  30.149  13.443
19053W        W78490   8.783   5.910  11.958
19054W        W78491  17.061  19.770   4.717
19055W        W78492  30.066  11.327  12.072
19056W        W78493  23.219  34.121  13.540
19057W        W78494  14.793  17.066  12.083
19058W        W78495  28.570  14.209   0.460
19059W        W78496  20.097  36.065  10.053
19060W        W78497  16.791  31.992  14.415
19061W        W78498  40.335  19.192  10.512
19062W        W78499  30.954   9.162  10.935
19063W        W78500  17.673  44.782   0.392
19064W        W78501  29.557   2.866  13.056
19065W        W78502  43.891   3.823  11.504
19066W        W78503  32.125  31.548  11.031
19067W        W78504   3.295  25.607   9.497
19068W        W78505  37.013   5.755  13.470
19069W        W78506  35.436   2.408  14.323
19070W        W78507  41.335  31.897  13.313
19071W        W78508   2.866  41.012   3.669
19072W        W78509  21.208  35.596  13.386
19073W        W78510  10.662  37.433  14.393
19074W        W78511  38.966  17.613   3.784
19075W        W78512   5.361  36.037  10.546
19076W        W78513  37.385  35.544   0.282
19077W        W78514   0.353  17.093   3.311
19078W        W78515  13.337  15.270  13.425
19079W        W78516   8.894  35.000  11.976
19080W        W78517   5.728  22.634  10.515
19081W        W78518  29.424  42.400   2.232
19082W        W78519  38.538  29.577   2.249
19083W        W78520   9.777  34.443  12.465
19084W        W78521  15.649  12.350   4.255
19085W        W78522  11.271  31.138  13.802
19086W        W78523  34.979  24.052  10.504
19087W        W78524  13.710   3.722  13.002
19088W        W78525   0.460   6.784   2.683
19089W        W78526  28.939   0.490  11.405
19090W        W78527  21.140   8.841   2.770
19091W        W78528  24.991   2.794  14.399
19092W        W78529   5.913   7.394  13.984
19093W        W78530   4.705  17.272  10.537
19094W        W78531   4.724  14.124  12.424
19095W        W78532  23.071  39.880   5.703
19096W        W78533  13.128  36.073  12.960
19097W        W78534  30.492  42.364  11.965
19098W        W78535  36.462   4.828  11.986
19099W        W78536   6.685  38.446  14.338
19100W        W78537  43.484  15.169   2.765
19101W        W78538  29.486  36.039   1.345
19102W        W78539  38.539  15.265  12.374
19103W        W78540  10.382  34.961  11.970
19104W        W78541  11.726  31.498  11.081
19105W        W78542   4.430   3.798   1.722
19106W        W78543   2.425  33.983  13.880
19107W        W78544  31.081  12.715   4.599
19108W        W78545  24.211  11.346   1.383
19109W        W78546  28.598   7.259   3.639
19110W        W78547   2.850   8.242  13.401
19111W        W78548  38.857  42.490  11.528
19112W        W78549  43.500  27.013  12.088
19113W        W78550  43.953  12.654  13.806
19114W        W78551  24.612  14.183  11.527
19115W        W78552   7.816  37.342   2.783
19116W        W78553  28.061  36.485   2.262
19117W        W78554   5.260  32.461   4.213
19118W        W78555  31.077  14.645   4.154
19119W        W78556  40.475  38.357   1.811
19120W        W78557  16.145  32.593  12.385
19121W        W78558  19.636  25.006   1.329
19122W        W78559  12.737  35.054   2.752
19123W        W78560  40.960  31.447   2.266
19124W        W78561  14.179   7.248  12.474
19125W        W78562  12.262  24.589   1.795
19126W        W78563  23.643  41.501   1.816
19127W        W78564  40.481  15.291  14.998
19128W        W78565   8.195  26.679   5.233
19129W        W78566  16.643  18.684   3.221
19130W        W78567  34.542  41.920  10.974
19131W        W78568  11.327  36.591  12.957
19132W        W78569   3.396   1.837   9.980
19133W        W78570  44.848   2.950  13.958
19134W        W78571  18.154  31.486   2.291
19135W        W78572  13.826  27.023  13.040
19136W        W78573  15.618  37.948   2.837
19137W        W78574  12.676  17.573   1.818
19138W        W78575  19.248  35.426  12.354
19139W        W78576  40.819  24.583  11.114
19140W        W78577  20.661  39.987   9.527
19141W        W78578  35.872   3.789  14.792
19142W        W78579  44.902  44.499  12.016
19143W        W78580  25.580  30.115  13.432
19144W        W78581  35.001  29.572   4.799
19145W        W78582  28.005  42.342   2.881
19146W        W78583  11.267   9.707  11.968
19147W        W78584   6.892  35.930   2.333
19148W        W78585  21.212  15.687  13.800
19149W        W78586  33.437  27.664  14.980
19150W        W78587  37.080   2.262  14.825
19151W        W78588   8.400  17.289  12.967
19152W        W78589  27.550  11.357   3.203
19153W        W78590  25.010  25.177  13.964
19154W        W78591  25.992  29.938  10.983
19155W        W78592  25.039   3.866  10.958
19156W        W78593  14.307  22.193   0.407
19157W        W78594  35.896   0.486   2.893
19158W        W78595   2.932  22.098   1.448
19159W        W78596  37.994  38.983   2.372
19160W        W78597  12.276   8.820   3.736
19161W        W78598  41.825   3.399  13.009
19162W        W78599  41.388  27.115  13.950
19163W        W78600   9.841  10.660  13.407
19164W        W78601   5.748  33.512   0.952
19165W        W78602  24.491  27.170  10.893
19166W        W78603  24.485  23.692  11.448
19167W        W78604  22.609  39.385  12.021
19168W        W78605  29.513  16.231  13.898
19169W        W78606  11.212  34.117  14.386
19170W        W78607  28.989  34.463  11.893
19171W        W78608   1.364   0.887  12.455
19172W        W78609  42.450  34.494  11.857
19173W        W78610   8.826   5.775  11.124
19174W        W78611  21.159  29.008  12.960
19175W        W78612  10.229  31.057   4.671
19176W        W78613  42.818  12.840   3.743
19177W        W78614  16.749  15.586  11.068
19178W        W78615   9.224  43.771  12.348
19179W        W78616  24.974  14.287  13.458
19180W        W78617  37.429  26.552  10.123
19181W        W78618  26.084   0.867  12.030
19182W        W78619  11.726  18.211   5.227
19183W        W78620  33.074  13.318   2.359
19184W        W78621  11.748   7.323  12.940
19185W        W78622  44.495   4.406  13.012
19186W        W78623  40.862   5.716  13.314
19187W        W78624  21.132  27.079   2.866
19188W        W78625  26.124  38.990   2.828
19189W        W78626  32.521  32.460  12.974
19190W        W78627  17.596  39.552   1.407
19191W        W78628   8.326  21.700  10.925
19192W        W78629  31.611  13.772  11.884
19193W        W78630   1.941  38.443   3.754
19194W        W78631  21.079  37.521  12.046
19195W        W78632  31.646  22.186   2.895
19196W        W78633  17.786  30.968   2.307
19197W        W78634  29.040  16.726  14.292
19198W        W78635  16.244  28.160   0.897
19199W        W78636   0.279   5.326   3.380
19200W        W78637   9.275  36.523  14.024
19201W        W78638  33.577  41.914  13.432
19202W        W78639  20.550  37.062   3.773
19203W        W78640  31.551  16.175  12.363
19204W        W78641  34.996  34.045  10.603
19205W        W78642  11.342  33.584  13.331
19206W        W78643  36.050  26.163  12.527
19207W        W78644  20.691  12.802   3.198
19208W        W78645  23.043  29.518  12.910
19209W        W78646  30.616  30.084   0.799
19210W        W78647  43.465   0.804   0.354
19211W        W78648  33.119   5.226  14.805
19212W        W78649  15.751  19.741   3.822
19213W        W78650  42.484  10.281  11.395
19214W        W78651  22.239   8.815   3.670
19215W        W78652  14.602  24.121  10.537
19216W        W78653  14.603   4.776  14.408
19217W        W78654  14.278  12.238  10.616
19218W        W78655  40.820   7.881  13.525
19219W        W78656  25.087   1.897  12.497
19220W        W78657   0.777  18.217   2.212
19221W        W78658   8.679   5.748  13.024
19222W        W78659  15.603  17.062  14.341
19223W        W78660  29.478  19.706   4.683
19224W        W78661  20.605  37.478   5.305
19225W        W78662  41.505  32.114   2.715
19226W        W78663  33.583  13.813   4.784
19227W        W78664   7.845  10.748   4.231
19228W        W78665  39.465  14.789   3.712
19229W        W78666   2.893   6.857   1.886
19230W        W78667  42.438   1.938  10.581
19231W        W78668  42.284  23.098  10.473
19232W        W78669  44.789   3.321  13.036
19233W        W78670  20.191   4.246   3.710
19234W        W78671  32.572  32.896  10.481
19235W        W78672  19.674  13.310   0.378
19236W        W78673  36.405  14.697  13.047
19237W        W78674  27.685   1.746   1.821
19238W        W78675  11.806  27.546  14.783
19239W        W78676  24.090  10.833  14.435
19240W        W78677  29.456  30.017   0.342
19241W        W78678  24.142  42.470   2.832
19242W        W78679  22.529  23.550   0.896
19243W        W78680   8.670  22.633  10.935
19244W        W78681  41.329  43.462   5.303
19245W        W78682  23.611  33.953  10.461
19246W        W78683  10.846  15.727  11.961
19247W        W78684  41.913  42.427   1.368
19248W        W78685  20.749  43.792  10.531
19249W        W78686  38.069  24.214  11.008
19250W        W78687  33.495   3.824   5.291
19251W        W78688  34.064  19.211  13.810
19252W        W78689  39.537  15.820   2.665
19253W        W78690  32.517  18.149  13.451
19254W        W78691  39.990  36.893  11.478
19255W        W78692  41.429  20.212  10.430
19256W        W78693  44.354  34.046   1.738
19257W        W78694  32.583  22.643  11.047
19258W        W78695  22.708  34.942  13.997
19259W        W78696   2.431  32.944   1.235
19260W        W78697  38.899  26.136   1.844
19261W        W78698  18.084  23.104  11.965
19262W        W78699  10.674  35.905  13.386
19263W        W78700  39.011   5.368   2.386
19264W        W78701  29.433   8.843   1.714
19265W        W78702  24.595  42.379   3.370
19266W        W78703  19.053  15.665   5.659
19267W        W78704  25.152  16.173   2.404
19268W        W78705   8.770  19.561   2.227
19269W        W78706  25.131  23.044  10.488
19270W        W78707  22.109  30.420  13.816
19271W        W78708  38.957  43.502  14.007
19272W        W78709   5.436  35.949   3.770
19273W        W78710  11.733  37.504   3.664
19274W        W78711  36.549  40.895   1.350
19275W        W78712   6.307  20.574  11.076
19276W        W78713   2.424  13.327  10.620
19277W        W78714  39.424  44.844   4.605
19278W        W78715  35.937  12.135  10.439
19279W        W78716   9.741  25.035   3.291
19280W        W78717   4.309  34.976   0.896
19281W        W78718  15.253  19.140  13.985
19282W        W78719  13.664  32.594  12.509
19283W        W78720   0.394  13.816  14.404
19284W        W78721  43.003  32.966  13.818
19285W        W78722  40.426  38.871  10.477
19286W        W78723  22.562  39.831  12.089
19287W        W78724  19.110  21.258   0.386
19288W        W78725  14.772  10.757  14.762
19289W        W78726  23.662  33.931  12.885
19290W        W78727   7.748  28.531  10.590
19291W        W78728  39.469  18.780   2.215
19292W        W78729  11.646  16.114   2.224
19293W        W78730   1.422  15.246   1.210
19294W        W78731  31.037  34.408  11.492
19295W        W78732  36.880  38.564  12.416
19296W        W78733   1.249   8.728  12.964
19297W        W78734   0.978  12.256   1.304
19298W        W78735   3.811  17.249  12.543
19299W        W78736  23.157  30.526  11.981
19300W        W78737  22.006  10.231  10.601
19301W        W78738   7.759   6.812  10.922
19302W        W78739  36.571  17.771  12.424
19303W        W78740   8.864  25.665  12.418
19304W        W78741  11.286  42.404   4.754
19305W        W78742  15.096  28.624   3.742
19306W        W78743  24.989  37.406   2.214
19307W        W78744  36.519  14.628   1.815
19308W        W78745   8.715   7.400  10.544
19309W        W78746  14.730   2.856   2.206
19310W        W78747   7.209  34.615   0.428
19311W        W78748  10.347  22.654   3.200
19312W        W78749  31.129   1.753  13.032
19313W        W78750  44.310  24.051   1.932
19314W        W78751  24.528  16.611   3.768
19315W        W78752   2.872   6.369   4.208
19316W        W78753   3.459   4.709  13.820
19317W        W78754   3.833  40.527   3.650
19318W        W78755  14.324   4.857   1.750
19319W        W78756   3.852  27.515  13.537
19320W        W78757  21.215  34.998   1.438
19321W        W78758   3.431   1.378   0.471
19322W        W78759  12.668  18.772  14.018
19323W        W78760  35.572  32.037  12.931
19324W        W78761  17.260   5.240   1.432
19325W        W78762  12.261  35.538   1.815
19326W        W78763  18.586  32.113   4.223
19327W        W78764   7.314  26.645   2.348
19328W        W78765  27.095  12.193  13.387
19329W        W78766   3.735  38.926   0.766
19330W        W78767  37.996  38.358   2.185
19331W        W78768   2.437  19.161  13.846
19332W        W78769  24.531  19.227   4.694
19333W        W78770  29.513  39.342   0.932
19334W        W78771  41.951   6.421  10.089
19335W        W78772  10.728  41.025  10.606
19336W        W78773  22.125  37.516   3.348
19337W        W78774  42.489  23.051   4.641
19338W        W78775  37.543   8.847  13.443
19339W        W78776  40.465  32.128   0.408
19340W        W78777  40.421  28.542  13.004
19341W        W78778  13.605  21.053   2.382
19342W        W78779  11.313  12.838  13.448
19343W        W78780  38.994  24.159  10.891
19344W        W78781   6.676  18.162   1.783
19345W        W78782  30.163  24.068  13.800
19346W        W78783  10.313  22.074  14.424
19347W        W78784   8.839  24.006  11.887
19348W        W78785  42.368  12.800   0.830
19349W        W78786  23.561  39.896  14.339
19350W        W78787  28.647  33.388  11.914
19351W        W78788  23.009   0.876   4.171
19352W        W78789   9.677  43.013  14.502
19353W        W78790  13.140  39.386  12.074
19354W        W78791   8.667  44.335  12.951
19355W        W78792   3.939  42.825  14.371
19356W        W78793  17.721  43.475   2.717
19357W        W78794  23.038  17.734   9.462
19358W        W78795  27.447  44.300  11.110
19359W        W78796  18.171  42.497   4.265
19360W        W78797  30.923  26.579  13.485
19361W        W78798   0.917  31.640  13.512
19362W        W78799  23.506   2.234   3.761
19363W        W78800  19.284   5.756   1.426
19364W        W78801  17.148  29.466  12.507
19365W        W78802  40.366  42.412   3.355
19366W        W78803  43.341   1.465  12.890
19367W        W78804   7.665  19.778  12.557
19368W        W78805  28.089  27.473   1.258
19369W        W78806  36.046  35.087   3.324
19370W        W78807  40.492  18.094   2.857
19371W        W78808   7.665  29.166   4.221
19372W        W78809  38.942  34.050   0.945
19373W        W78810  43.457  44.419  10.506
19374W        W78811  18.790  26.571  14.492
19375W        W78812  24.122   4.410  14.972
19376W        W78813   1.740  41.873   1.425
19377W        W78814  27.984   9.371   1.886
19378W        W78815  12.857  28.936  12.026
19379W        W78816   9.808  27.030   0.745
19380W        W78817   6.776   0.278  11.603
19381W        W78818  30.547   0.956  13.385
19382W        W78819  16.693  30.454   3.682
19383W        W78820  12.786   4.709  11.896
19384W        W78821  41.522   2.890   4.685
19385W        W78822  32.066  11.240  10.555
19386W        W78823  21.189  21.720  11.880
19387W        W78824   5.212  25.631   1.409
19388W        W78825  21.250  36.882  12.519
19389W        W78826  15.812  39.464   1.776
19390W        W78827  10.163   7.394  13.977
19391W        W78828  28.186  42.961  10.609
19392W        W78829  10.783  35.966   0.346
19393W        W78830   1.305   1.762  11.404
19394W        W78831  31.996  10.776   2.301
19395W        W78832   5.851  39.551  14.372
19396W        W78833  35.595  38.982   2.893
19397W        W78834  27.585   7.294  13.018
19398W        W78835  44.797  24.570   4.318
19399W        W78836  42.373  38.047  14.358
19400W        W78837   4.401   1.371   3.669
19401W        W78838  24.495  25.051   1.408
19402W        W78839   3.413  13.648  12.957
19403W        W78840  25.597  37.047   1.438
19404W        W78841   7.214  28.505  14.925
19405W        W78842   7.371  11.153  10.538
19406W        W78843  11.255  29.020  12.417
19407W        W78844  23.020  41.010  13.476
19408W        W78845  17.285  16.120   1.781
19409W        W78846  23.013   3.434   0.443
19410W        W78847  16.598  19.647  13.444
19411W        W78848  36.346   8.831  13.858
19412W        W78849  34.481  34.960  13.361
19413W        W78850   5.876  38.515   3.763
19414W        W78851  38.836  38.901   0.363
19415W        W78852  31.562  17.297  14.827
19416W        W78853  14.769  14.141  10.971
19417W        W78854  22.131  18.727   2.724
19418W        W78855  27.651   9.186   3.709
19419W        W78856  26.177  29.015  12.049
19420W        W78857  20.666  10.156   2.786
19421W        W78858  19.161   1.878   3.145
19422W        W78859  38.404  42.818   2.304
19423W        W78860   7.889  35.102  11.500
19424W        W78861  11.305   6.393  11.975
19425W        W78862  16.740  12.127  11.060
19426W        W78863  43.323  35.903  13.435
19427W        W78864  31.442  23.210   2.849
19428W        W78865  15.622  28.173  10.606
19429W        W78866  39.534   3.432  13.393
19430W        W78867  43.827   0.427  11.055
19431W        W78868  27.120   5.862  12.010
19432W        W78869  40.381  25.096   9.998
19433W        W78870  21.590  34.045  14.882
19434W        W78871  33.120   4.767   0.930
19435W        W78872   7.789  19.266  12.474
19436W        W78873   5.272   9.188  14.001
19437W        W78874   2.786  38.043   4.333
19438W        W78875  39.906  23.065   4.811
19439W        W78876  17.179   7.678  13.387
19440W        W78877   6.405  20.065  10.468
19441W        W78878   5.394   4.817   4.184
19442W        W78879  33.392  27.480   2.790
19443W        W78880  37.906   9.654   4.123
19444W        W78881  33.585  39.938  11.564
19445W        W78882  29.992  33.098  14.356
19446W        W78883  29.569  44.323   0.806
19447W        W78884  11.684   1.978   5.126
19448W        W78885  27.544  37.071   4.800
19449W        W78886   7.349  24.995  10.570
19450W        W78887  25.982  35.453   1.373
19451W        W78888  44.878  24.056  12.033
19452W        W78889  22.571  18.752  12.830
19453W        W78890  31.580  26.545   1.450
19454W        W78891  37.414  24.488  11.076
19455W        W78892  25.163  43.506  10.432
19456W        W78893  28.985  32.989  11.034
19457W        W78894   6.809   3.843   3.801
19458W        W78895  22.615  32.481  13.872
19459W        W78896  42.412  25.173  12.521
19460W        W78897  43.916  41.895  13.458
19461W        W78898  24.034  33.949  13.839
19462W        W78899  18.212  42.362   0.736
19463W        W78900  37.515  20.162   0.882
19464W        W78901   4.283  33.481   3.362
19465W        W78902   5.275  22.615   0.739
19466W        W78903   1.739  24.979   0.425
19467W        W78904  15.679  21.036   5.262
19468W        W78905  18.706   5.910  14.029
19469W        W78906  17.067  43.897  12.893
19470W        W78907  13.610  13.233   4.197
19471W        W78908  14.107  41.409  14.304
19472W        W78909   7.395  17.073  11.064
19473W        W78910  33.065  43.458  12.896
19474W        W78911  39.050  27.116   2.676
19475W        W78912   7.397   4.751  14.999
19476W        W78913  13.757  21.037   3.189
19477W        W78914  14.812  11.622   2.676
19478W        W78915  11.720  32.572   0.891
19479W        W78916  10.279  32.928  13.877
19480W        W78917  30.994  30.052  14.284
19481W        W78918  39.455  12.765  12.027
19482W        W78919  21.645  15.627   1.266
19483W        W78920  16.257  21.231   0.394
19484W        W78921  39.055  38.047  14.399
19485W        W78922  29.952  33.408  14.281
19486W        W78923   2.755  16.297   0.758
19487W        W78924  25.093   4.263  14.378
19488W        W78925  17.231  20.141   1.741
19489W        W78926  16.768  42.905  14.920
19490W        W78927  30.074  40.321  10.414
19491W        W78928  30.155   6.278  10.614
19492W        W78929  42.343  33.505  12.881
19493W        W78930   2.397  26.028  14.813
19494W        W78931  36.497  24.092   0.328
19495W        W78932   8.895   3.795  12.507
19496W        W78933  10.674  22.725   3.152
19497W        W78934  42.910  39.378  13.400
19498W        W78935  22.149  18.245   2.869
19499W        W78936   3.298  28.032   2.180
19500W        W78937  16.311   7.379  13.405
19501W        W78938   3.374  23.562   3.231
19502W        W78939  34.381  34.410  12.539
19503W        W78940  41.828  44.965  13.891
19504W        W78941  33.412  35.456   0.925
19505W        W78942  26.978  17.558   2.331
19506W        W78943   5.859  36.934   1.798
19507W        W78944   7.877  41.958  12.086
19508W        W78945  23.642   0.346   3.300
19509W        W78946   0.921  41.922  10.457
19510W        W78947  32.016  29.157   0.285
19511W        W78948  18.551   7.279  11.112
19512W        W78949  21.042  31.911   1.934
19513W        W78950  33.929   8.265   4.324
19514W        W78951   0.839  33.986  12.873
19515W        W78952  41.990  35.543  13.420
19516W        W78953   7.868  40.522  11.953
19517W        W78954  19.242  22.703  10.888
19518W        W78955  18.248  18.739  11.461
19519W        W78956  15.644   9.237   2.273
19520W        W78957   4.259  30.616   2.192
19521W        W78958  37.010   1.927  11.859
19522W        W78959  43.828  28.113  13.519
19523W        W78960   9.304  36.458   2.874
19524W        W78961  23.029  33.602  13.381
19525W        W78962  30.569  21.240   5.300
19526W        W78963   5.266  27.635   1.451
19527W        W78964  14.732   5.839  10.926
19528W        W78965  43.832  13.332  14.407
19529W        W78966   2.379  16.679   2.194
19530W        W78967  41.828  27.505  12.951
19531W        W78968  31.001  18.602  12.466
19532W        W78969  18.653   8.347   4.657
19533W        W78970   8.880  34.053   1.890
19534W        W78971  26.505  29.550  14.876
19535W        W78972  40.386  32.913   4.192
19536W        W78973  32.619  22.633   1.386
19537W        W78974  31.148  21.264   1.764
19538W        W78975  30.156   4.424  11.878
19539W        W78976  42.795  35.460  12.054
19540W        W78977  27.021  44.259   1.862
19541W        W78978  25.590  24.669  13.852
19542W        W78979  27.618  41.984   0.442
19543W        W78980  39.002  37.345   3.360
19544W        W78981   9.826  41.426   2.386
19545W        W78982  30.107  13.318  13.439
19546W        W78983  25.006  19.185   1.854
19547W        W78984  33.920  26.174  12.892
19548W        W78985  15.194  12.318  14.379
19549W        W78986   5.288   9.782  13.900
19550W        W78987  24.600  43.312  13.404
19551W        W78988  25.482  38.875  11.503
19552W        W78989  41.978   8.211  13.962
19553W        W78990  19.621  39.926  13.526
19554W        W78991  42.008  42.932  12.920
19555W        W78992  12.138  37.490   4.149
19556W        W78993  12.191  18.683   3.306
19557W        W78994  16.226   6.224  11.085
19558W        W78995  28.949  10.342   2.770
19559W        W78996  22.212  20.666  11.485
19560W        W78997   0.467  13.634   1.355
19561W        W78998  29.075  34.456  10.489
19562W        W78999  41.528  17.080  11.985
19563W        W79000  29.033  10.863  12.888
19564W        W79001  12.855  42.025  12.344
19565W        W79002  30.445   3.281  13.835
19566W        W79003  36.530   8.199  14.897
19567W        W79004   6.282  18.080  12.956
19568W        W79005  11.255  31.986   3.294
19569W        W79006   3.948  12.790  12.381
19570W        W79007  29.649  16.095   0.268
19571W        W79008  22.101  23.658   1.868
19572W        W79009  13.285   2.866  11.903
19573W        W79010  11.205  44.884   1.419
19574W        W79011  30.647  37.453  10.560
19575W        W79012  36.080  39.963   9.457
19576W        W79013  28.558  44.784   4.315
19577W        W79014  26.613  21.580  11.573
19578W        W79015  43.425  32.116  12.076
19579W        W79016  27.163   4.212  13.327
19580W        W79017  37.055  20.701   0.392
19581W        W79018  39.478  36.859  14.506
19582W        W79019  39.014  13.166   2.703
19583W        W79020  31.986  20.751  11.027
19584W        W79021  24.175  16.642   3.146
19585W        W79022  21.120  38.076   0.838
19586W        W79023  40.547   4.241  12.823
19587W        W79024  23.499   3.408   1.292
19588W        W79025  29.604  37.424  13.451
19589W        W79026  37.988  16.690  12.385
19590W        W79027  22.623   3.819   0.824
19591W        W79028   9.661   2.867  13.975
19592W        W79029  14.101  43.014   1.337
19593W        W79030  17.792  20.172  14.759
19594W        W79031   7.382  32.619  10.450
19595W        W79032   1.272  29.971   0.295
19596W        W79033   1.290  14.182   0.782
19597W        W79034  11.198  17.678   2.810
19598W        W79035  19.568   8.401  13.981
19599W        W79036  27.579   5.783   1.407
19600W        W79037  34.984  34.988   0.394
19601W        W79038  20.102  16.796   0.860
19602W        W79039   1.321  12.168   9.548
19603W        W79040  16.753  22.668  11.505
19604W        W79041  21.586  10.669  12.580
19605W        W79042  25.659   9.369   1.237
19606W        W79043   7.680   3.721   1.315
19607W        W79044  13.811  11.148  13.506
19608W        W79045  29.070  27.570   1.844
19609W        W79046  39.019   9.687  11.999
19610W        W79047  38.026  40.833  11.565
19611W        W79048  24.654  28.089   2.849
19612W        W79049  26.094   4.310  10.586
19613W        W79050  36.903  18.632  14.470
19614W        W79051  22.527   0.484  10.563
19615W        W79052  31.550  25.488  12.015
19616W        W79053   3.273  18.064  12.047
19617W        W79054  44.876  33.436  14.358
19618W        W79055  21.623   9.170   0.375
19619W        W79056  15.769  35.408  13.485
19620W        W79057  17.297  20.181  12.401
19621W        W79058  29.424  29.078   4.740
19622W        W79059  36.546  11.162   0.830
19623W        W79060  32.045   2.462   1.237
19624W        W79061  15.692  30.935   0.255
19625W        W79062  14.718  34.101  12.559
19626W        W79063   2.306  26.132  13.511
19627W        W79064  34.534  37.980   0.842
19628W        W79065  32.119  22.141   1.783
19629W        W79066  35.996  41.857  11.515
19630W        W79067  22.203   4.933  10.572
19631W        W79068   6.850  38.016  12.537
19632W        W79069  29.564  14.709  13.318
19633W        W79070  28.638  19.154   4.837
19634W        W79071  13.202   3.246   5.322
19635W        W79072  12.837   7.840  14.767
19636W        W79073  33.431  37.859   4.813
19637W        W79074   3.383  23.123   2.853
19638W        W79075   2.300  35.898  11.559
19639W        W79076  14.288  43.928   4.777
19640W        W79077  18.202  30.559  12.460
19641W        W79078  29.959  41.450  10.926
19642W        W79079  34.888   4.935  11.598
19643W        W79080  27.037  23.225   0.433
19644W        W79081  38.438   5.906  12.448
19645W        W79082   0.924   7.302  14.277
19646W        W79083   5.311  11.786   9.506
19647W        W79084   3.735   5.904  14.501
19648W        W79085  14.204  23.639   3.643
19649W        W79086  36.476  14.222  10.041
19650W        W79087   7.174   7.172  12.061
19651W        W79088   5.218  30.126  13.418
19652W        W79089  36.968  40.959   2.320
19653W        W79090  19.043  39.340   4.656
19654W        W79091  17.268  16.595   0.267
19655W        W79092  16.725   8.867  11.960
19656W        W79093  31.101  20.234  10.582
19657W        W79094  16.164  41.323  10.590
19658W        W79095  43.921  33.582   3.242
19659W        W79096  11.357   7.807   1.289
19660W        W79097  27.015   5.328   3.236
19661W        W79098  40.416  40.432   1.718
19662W        W79099   0.742   8.339   0.293
19663W        W79100   2.744  21.734  12.834
19664W        W79101   9.784  41.389  12.460
19665W        W79102  26.015  10.761   4.196
19666W        W79103  26.464  16.316   2.771
19667W        W79104  22.126  31.929   1.302
19668W        W79105  37.006   2.239   1.838
19669W        W79106   4.377   8.668  11.046
19670W        W79107   7.724   4.889  14.380
19671W        W79108  31.079  24.484   4.806
19672W        W79109  43.349   8.221   0.407
19673W        W79110  11.315  41.881  12.963
19674W        W79111  32.039  41.378   2.766
19675W        W79112   5.220  19.583   3.827
19676W        W79113  11.774  28.562   1.262
19677W        W79114   0.887   3.455   0.757
19678W        W79115  44.981  27.671  14.468
19679W        W79116  14.689  42.511  11.108
19680W        W79117   0.886  21.158   3.869
19681W        W79118  30.484  32.069  12.073
19682W        W79119  31.497  17.260  13.307
19683W        W79120  38.485  13.220   4.331
19684W        W79121   5.267  33.045   4.247
19685W        W79122  38.440  14.704   2.286
19686W        W79123  36.565  28.956  12.485
19687W        W79124   9.876   1.859  11.117
19688W        W79125  26.998  36.084   1.836
19689W        W79126  28.556  19.724  12.422
19690W        W79127   5.688  19.182  13.507
19691W        W79128  12.275  25.103  13.536
19692W        W79129   5.298  34.554  12.081
19693W        W79130  34.014  33.446  11.894
19694W        W79131  12.262  13.828  12.487
19695W        W79132   4.348   6.317   0.421
19696W        W79133  33.598  18.128  11.390
19697W        W79134   5.415  17.769   4.772
19698W        W79135   6.721  43.306  11.582
19699W        W79136   2.786  22.072  10.911
19700W        W79137  36.582  24.100   3.314
19701W        W79138  13.143  31.598  12.859
19702W        W79139   8.825   1.862  13.890
19703W        W79140  20.695  25.662   0.938
19704W        W79141  37.856  35.509  14.966
19705W        W79142  24.074  37.988   2.897
19706W        W79143  12.131  10.152  14.962
19707W        W79144  18.735  31.939   5.103
19708W        W79145  21.153   8.756  11.868
19709W        W79146  32.501  39.362  12.433
19710W        W79147  35.559  34.951  11.015
19711W        W79148   6.402   5.727   1.753
19712W        W79149  31.562  19.595  10.556
19713W        W79150   3.879  39.957   2.868
19714W        W79151  22.185  41.415   0.408
19715W        W79152  31.988  35.864   0.754
19716W        W79153   4.887  22.692   4.678
19717W        W79154  32.599  36.372   2.717
19718W        W79155  24.530  36.994   0.786
19719W        W79156  22.595  38.013   2.893
19720W        W79157  36.418  38.458   1.388
19721W        W79158   3.738   8.249  14.900
19722W        W79159  18.158  12.278   1.434
19723W        W79160   8.367  12.240  13.801
19724W        W79161  35.967  13.249  12.340
19725W        W79162  39.823   4.861  11.007
19726W        W79163   3.433  14.332  11.453
19727W        W79164  28.949   8.656   0.400
19728W        W79165  27.969  18.254  13.419
19729W        W79166   0.269  44.887   2.377
19730W        W79167  43.906  20.568  14.991
19731W        W79168   4.206  43.896  12.381
19732W        W79169   2.752   0.752   2.843
19733W        W79170   8.372  17.240   1.264
19734W        W79171  23.581  33.548  13.325
19735W        W79172  44.323  10.721   4.120
19736W        W79173  29.173  43.474  12.342
19737W        W79174   0.490   7.272  14.010
19738W        W79175  35.997  30.087  11.037
19739W        W79176  29.128   0.417  11.111
19740W        W79177  38.869  13.231   0.388
19741W        W79178  13.138   4.915  14.983
19742W        W79179  11.189   6.727  13.499
19743W        W79180  28.672  34.585   0.871
19744W        W79181  28.933  29.661  13.308
19745W        W79182  11.834  36.056   2.862
19746W        W79183  15.201  10.281  13.815
19747W        W79184  38.890   2.759  13.853
19748W        W79185  44.468  32.919   0.406
19749W        W79186   3.372  32.506   3.755
19750W        W79187  20.611  16.087  13.392
19751W        W79188  21.591  21.735  14.760
19752W        W79189  12.174   2.738  13.343
19753W        W79190   6.234  40.945  11.379
19754W        W79191  11.186  14.192  14.442
19755W        W79192   7.875  32.911   3.177
19756W        W79193  20.164  41.894  11.527
19757W        W79194  25.201   1.739   3.246
19758W        W79195  32.458  32.016   3.285
19759W        W79196  39.508  24.630  11.458
19760W        W79197   9.849  30.123  14.811
19761W        W79198   8.390  26.614  13.043
19762W        W79199  38.909  30.000  13.021
19763W        W79200  20.528  28.082   2.298
19764W        W79201  30.543  34.917   3.702
19765W        W79202  31.475  11.348  12.471
19766W        W79203  13.278   4.799   4.772
19767W        W79204  22.618  12.638   0.951
19768W        W79205   6.823   9.365   1.314
19769W        W79206   1.881  36.552   4.807
19770W        W79207  31.417  13.140  10.901
19771W        W79208  43.791   6.834   4.261
19772W        W79209   5.843  19.079   1.304
19773W        W79210   6.798   6.264  11.534
19774W        W79211  42.379  30.525  10.599
19775W        W79212  31.086  10.375   2.721
19776W        W79213   3.852  23.650  10.978
19777W        W79214  35.425   0.910  12.050
19778W        W79215   5.362   5.817   2.846
19779W        W79216  24.153  32.041  10.417
19780W        W79217  41.490  36.552  14.512
19781W        W79218  35.362  34.411   3.719
19782W        W79219   5.373  12.305  10.414
19783W        W79220  31.110  19.120  12.021
19784W        W79221  12.172  35.042  12.456
19785W        W79222   8.271  28.650   0.441
19786W        W79223  42.810   0.856   3.818
19787W        W79224  11.693  18.054  10.507
19788W        W79225   5.247  14.108   0.455
19789W        W79226   5.336  21.728  14.358
19790W        W79227  13.348  40.517   1.740
19791W        W79228  30.478  37.976  12.899
19792W        W79229  41.492   8.841   3.344
19793W        W79230  15.170  11.343  10.435
19794W        W79231  26.512  29.009   2.257
19795W        W79232  18.196  38.461  13.059
19796W        W79233  35.373   3.713   2.749
19797W        W79234  40.870  26.128  13.955
19798W        W79235  22.566  29.089   2.841
19799W        W79236   7.341  35.520   1.934
19800W        W79237  12.717   2.427  14.029
19801W        W79238  36.013  29.156  12.355
19802W        W79239   8.820   2.460  12.056
19803W        W79240  30.523  10.149  10.495
19804W        W79241  17.062   6.769   3.650
19805W        W79242  21.698   4.858   2.717
19806W        W79243  19.694  19.255  14.379
19807W        W79244  34.509  26.010  13.877
19808W        W79245  40.373  13.781  11.594
19809W        W79246   4.405  34.608  13.404
19810W        W79247   9.283  17.740  11.419
19811W        W79248  20.608  37.847  13.396
19812W        W79249   2.785  19.068  11.110
19813W        W79250   0.750  10.675  10.047
19814W        W79251  27.492  40.048   5.093
19815W        W79252   1.757   4.933  13.884
19816W        W79253  40.970  32.622   2.679
19817W        W79254  41.340  36.416  11.480
19818W        W79255  21.135  40.936  13.882
19819W        W79256   4.815  10.334   0.478
19820W        W79257  26.989  23.634   0.864
19821W        W79258  11.149  27.571  13.311
19822W        W79259  28.049  22.549   0.801
19823W        W79260   4.227   1.914   2.670
19824W        W79261  17.082  11.371  10.460
19825W        W79262  30.609  43.916  12.551
19826W        W79263  10.281  44.505   3.631
19827W        W79264   5.922  28.606  14.847
19828W        W79265   6.295  26.964   2.360
19829W        W79266  30.472  43.838   3.243
19830W        W79267   8.746  23.596   2.268
19831W        W79268   0.779  37.378   1.870
19832W        W79269  43.800  18.652   0.298
19833W        W79270  30.528  41.929  10.106
19834W        W79271  25.037  31.021  12.050
19835W        W79272  26.100  16.099  11.438
19836W        W79273  37.407  35.926  14.025
19837W        W79274  44.831  39.918  10.571
19838W        W79275  39.981  32.571   2.188
19839W        W79276  38.918  10.705  13.878
19840W        W79277   2.863   7.808  11.433
19841W        W79278  41.022   7.324  14.362
19842W        W79279  18.651   3.890   4.139
19843W        W79280   4.728   5.429  12.388
19844W        W79281   6.906   8.699   4.303
19845W        W79282  23.214  17.585  13.926
19846W        W79283  21.169  27.516  11.574
19847W        W79284  13.794  12.659   4.786
19848W        W79285  20.158  28.620  12.934
19849W        W79286   0.464  20.211   0.857
19850W        W79287  15.803  31.545   1.443
19851W        W79288  41.322  28.129  10.436
19852W        W79289  11.301  40.943  12.875
19853W        W79290  30.530   6.723   1.337
19854W        W79291  11.235   3.288   4.225
19855W        W79292  36.968   4.204   3.847
19856W        W79293  36.953   2.331  12.986
19857W        W79294  22.230  31.010   0.275
19858W        W79295   1.814   9.384   4.677
19859W        W79296  30.427   8.797   2.337
19860W        W79297  37.917   7.263   2.232
19861W        W79298   4.383   0.477  12.561
19862W        W79299   8.825  42.896   0.935
19863W        W79300  23.600  15.253   2.830
19864W        W79301  21.106  37.525  14.476
19865W        W79302  31.072   8.171  10.993
19866W        W79303  32.913  12.242  12.469
19867W        W79304  11.765  19.052   3.715
19868W        W79305  26.193  42.934  12.390
19869W        W79306  25.035  43.458  13.888
19870W        W79307  24.501  36.070  14.361
19871W        W79308  19.093  11.752  14.384
19872W        W79309  39.824  38.959   3.145
19873W        W79310  25.003  22.201   0.286
19874W        W79311  18.600  14.289  12.489
19875W        W79312  29.116   5.250  14.304
19876W        W79313  34.435  24.715  11.925
19877W        W79314  17.687  27.031   1.290
19878W        W79315   3.452   4.399  11.520
19879W        W79316  34.045  15.624   3.245
19880W        W79317   2.294  10.349   9.661
19881W        W79318  16.666  16.239  12.431
19882W        W79319  35.590  36.470  14.318
19883W        W79320  36.434   8.300   1.714
19884W        W79321  30.053  36.003   3.169
19885W        W79322  32.594  23.643   3.781
19886W        W79323   0.772  19.091   3.152
19887W        W79324  26.074  18.201  10.948
19888W        W79325  15.312   8.863   2.235
19889W        W79326  10.278  29.143  14.004
19890W        W79327  44.424  35.862   4.240
19891W        W79328  10.358  24.038  11.079
19892W        W79329  35.593  14.185  11.497
19893W        W79330  33.600  39.967  13.373
19894W        W79331  37.453  20.532  14.798
19895W        W79332  41.821   5.727   2.692
19896W        W79333   0.329  11.676   2.822
19897W        W79334   4.802  36.017  12.827
19898W        W79335  42.848  20.141   3.848
19899W        W79336  11.244   1.291  11.886
19900W        W79337  23.601   7.667   2.826
19901W        W79338  26.471  24.211   0.389
19902W        W79339  36.563  39.541   1.908
19903W        W79340  28.505   1.868  13.804
19904W        W79341   2.439   6.885  13.977
19905W        W79342  25.148   7.265   2.872
19906W        W79343  38.990  28.014   3.784
19907W        W79344  13.128  23.064   2.227
19908W        W79345  30.063  28.135   0.422
19909W        W79346   7.722  14.801   0.964
19910W        W79347  42.808   2.419  10.561
19911W        W79348  19.555  41.356   0.310
19912W        W79349  14.212  36.585   2.302
19913W        W79350  32.979  44.864  14.844
19914W        W79351  43.909  16.303   1.776
19915W        W79352  31.530  32.583  11.523
19916W        W79353  11.703  18.581  14.277
19917W        W79354  14.613  31.640  13.426
19918W        W79355  10.271  25.104   4.122
19919W        W79356   8.250  37.449   3.337
19920W        W79357  18.255  32.626   1.746
19921W        W79358  37.464  31.035  11.963
19922W        W79359  43.868  12.854   9.985
19923W        W79360  21.130  10.782  13.896
19924W        W79361  32.129  11.811   1.813
19925W        W79362  33.618   2.740  14.016
19926W        W79363  10.859   7.737   0.350
19927W        W79364  21.151  17.181  11.481
19928W        W79365  16.722   7.741   4.224
19929W        W79366  21.592  39.434  13.481
19930W        W79367  19.232  15.161  11.566
19931W        W79368  16.582   0.302  12.480
19932W        W79369  25.705   1.245   3.372
19933W        W79370  15.240  25.998  11.026
19934W        W79371  36.398  15.123   1.407
19935W        W79372  13.686  10.221   2.324
19936W        W79373  29.502  33.952  11.548
19937W        W79374  17.575  22.681  12.490
19938W        W79375  40.981   7.276   2.744
19939W        W79376   3.768  15.703  13.892
19940W        W79377   4.810  14.205   2.844
19941W        W79378   7.727  14.154   4.693
19942W        W79379  18.169  11.736  13.855
19943W        W79380  30.584  20.738  12.363
19944W        W79381  13.180  33.038   1.235
19945W        W79382  38.900  31.089  13.467
19946W        W79383   6.330   9.251   2.744
19947W        W79384  28.149  10.308   2.318
19948W        W79385  20.554   7.692  11.530
19949W        W79386  27.534  37.840   3.855
19950W        W79387  10.651  39.997   4.247
19951W        W79388   8.362  22.683  10.476
19952W        W79389   8.721  19.672  12.847
19953W        W79390  14.760  37.888  12.095
19954W        W79391  30.160   5.892   1.227
19955W        W79392  38.924   7.868   2.806
19956W        W79393  25.004  41.316  12.896
19957W        W79394   4.827   7.863   4.116
19958W        W79395  36.448  13.773  12.035
19959W        W79396   9.164   3.223   4.253
19960W        W79397   2.750  31.555  13.859
19961W        W79398  14.283  41.044  14.473
19962W        W79399  18.570  42.407   2.866
19963W        W79400  12.177  36.507  13.405
19964W        W79401  35.392  11.849   0.939
19965W        W79402  37.032   2.401   0.859
19966W        W79403  44.903  42.804   5.221
19967W        W79404  13.657  23.641  14.014
19968W        W79405  21.133  21.084  11.970
19969W        W79406  14.750  43.376   1.419
19970W        W79407  34.993  13.229  12.506
19971W        W79408  41.366   4.262   0.760
19972W        W79409  23.148  12.620   1.251
19973W        W79410   8.252  17.620  13.498
19974W        W79411  20.611   6.871   0.418
19975W        W79412  20.171  38.941  12.356
19976W        W79413  21.512  33.938  13.385
19977W        W79414  38.442  42.526  13.838
19978W        W79415  36.841  38.554   1.288
19979W        W79416  20.580  44.838   2.857
19980W        W79417  16.245  24.205   2.677
19981W        W79418  35.975  14.707  12.956
19982W        W79419  38.369   3.770   0.343
19983W        W79420  35.455  27.106  11.963
19984W        W79421  23.160  10.381  14.368
19985W        W79422  18.679  15.160   4.293
19986W        W79423  26.527  18.665  11.387
19987W        W79424  24.518  35.048  12.490
19988W        W79425   3.747   8.707   4.289
19989W        W79426  16.288   7.741  13.487
19990W        W79427  11.278  21.210  13.793
19991W        W79428  37.974   6.725   2.384
19992W        W79429  31.109  30.453   2.760
19993W        W79430  29.172  41.298   4.656
19994W        W79431   6.342  12.698   1.780
19995W        W79432  43.865  29.038  11.381
19996W        W79433  18.566  11.649   2.765
19997W        W79434  43.831  17.071  14.999
19998W        W79435  30.656   4.341  13.025
19999W        W79436  20.060  38.878   3.691
20000W        W79437  12.661  17.623   2.807
20001W        W79438  23.095  29.066  14.850
20002W        W79439   5.828  33.969   0.314
20003W        W79440  28.066   9.730   0.730
20004W        W79441  15.595  28.134   2.811
20005W        W79442  32.636   0.957   3.370
20006W        W79443  30.940  24.609  12.964
20007W        W79444  24.128  17.252   4.206
20008W        W79445   4.724  39.932  13.935
20009W        W79446  17.677  30.502   2.694
20010W        W79447  14.306   4.750   2.241
20011W        W79448  17.559  25.049   3.258
20012W        W79449  27.114  21.143  12.959
20013W        W79450  16.683  16.611   0.727
20014W        W79451  24.179  14.197   0.942
20015W        W79452   5.862  39.006  11.988
20016W        W79453  11.727  34.876  13.843
20017W        W79454  24.181  21.107  14.792
20018W        W79455  41.974  11.309   3.263
20019W        W79456  10.639  43.328  11.045
20020W        W79457   7.384  41.416   2.787
20021W        W79458   0.302  37.056  12.089
20022W        W79459  10.823  30.035   3.741
20023W        W79460  22.620  21.597   2.731
20024W        W79461  36.357  13.776  13.812
20025W        W79462  12.175  33.579   1.248
20026W        W79463  15.292   4.938   1.734
20027W        W79464   0.253  44.948  12.043
20028W        W79465  28.034   5.721   9.924
20029W        W79466  36.540  23.176  10.561
20030W        W79467  32.932  16.637   4.196
20031W        W79468   4.819  13.201   2.755
20032W        W79469   2.241  27.664  11.607
20033W        W79470   7.252  16.811   4.157
20034W        W79471  18.189   2.455   4.773
20035W        W79472   4.304   6.824   4.282
20036W        W79473  14.791  40.433   3.197
20037W        W79474   2.738  34.479  13.897
20038W        W79475   2.368  44.869  10.943
20039W        W79476  14.757   3.751   1.279
20040W        W79477  24.171  28.931   2.810
20041W        W79478  40.000  36.385  14.960
20042W        W79479  19.054  41.008  10.580
20043W        W79480  36.974  33.115   1.335
20044W        W79481  20.565  24.050   4.151
20045W        W79482  43.286  22.081   0.878
20046W        W79483  44.282  34.936  11.922
20047W        W79484   2.456  31.539   4.304
20048W        W79485  17.120  30.978  12.084
20049W        W79486  40.427  31.989  11.438
20050W        W79487  22.220  28.441  14.412
20051W        W79488  33.892  35.358  12.934
20052W        W79489  44.961   0.763   3.783
20053W        W79490   0.787  13.232   0.257
20054W        W79491   5.361  25.478  13.519
20055W        W79492  39.518  25.568  14.333
20056W        W79493  28.012   2.377  14.885
20057W        W79494  33.543  10.842   1.747
20058W        W79495  34.430  39.850  13.371
20059W        W79496  11.860  34.495   2.301
20060W        W79497  21.738  14.096  10.421
20061W        W79498  25.537  24.701   2.251
20062W        W79499  36.883  36.945   1.374
20063W        W79500   2.939  33.575   3.676
20064W        W79501  14.697  14.666   0.817
20065W        W79502   6.211  20.534   1.264
20066W        W79503  17.167   3.332  10.989
20067W        W79504   6.227   4.278  14.277
20068W        W79505  29.922  11.796  13.310
20069W        W79506  17.170  17.717   4.786
20070W        W79507  21.669  36.373   4.786
20071W        W79508   0.353  11.849  14.473
20072W        W79509  33.077  32.596  12.062
20073W        W79510  39.374  40.962  14.841
20074W        W79511  21.031  44.770   1.366
20075W        W79512  24.230  18.623   1.338
20076W        W79513  24.699  38.563   2.743
20077W        W79514   0.818   4.703  10.582
20078W        W79515   7.735  37.558   1.729
20079W        W79516  35.439  31.015   0.360
20080W        W79517  14.654  10.308  11.562
20081W        W79518  32.104  34.904   3.268
20082W        W79519   4.758  42.837  10.896
20083W        W79520  43.502  37.393   1.212
20084W        W79521  28.178  26.049   1.311
20085W        W79522  36.954  33.389   3.367
20086W        W79523   8.790  34.553   0.727
20087W        W79524  39.846  24.616   4.141
20088W        W79525  24.118  40.822  13.013
20089W        W79526  41.964  20.668   0.808
20090W        W79527  17.661  21.257   2.795
20091W        W79528  25.161   5.283   3.806
20092W        W79529  26.630  23.102   5.714
20093W        W79530  16.154   4.904  12.832
20094W        W79531  26.652  16.576  10.420
20095W        W79532  26.640   7.270  10.985
20096W        W79533  40.819  26.602  13.440
20097W        W79534  25.981  41.878   2.216
20098W        W79535  29.435  13.216  10.054
20099W        W79536  43.786  12.623  11.064
20100W        W79537  22.179  38.974   3.640
20101W        W79538  29.934  18.125  11.875
20102W        W79539  31.455  37.536   1.343
20103W        W79540  13.168  39.461   2.286
20104W        W79541   7.667  11.738  14.389
20105W        W79542  23.578  36.486  11.437
20106W        W79543  20.257  29.956  13.935
20107W        W79544  39.917  32.041   1.376
20108W        W79545  24.647  26.086  10.557
20109W        W79546   4.394   7.900  14.331
20110W        W79547  16.753   5.362  13.359
20111W        W79548  25.986  36.389  14.915
20112W        W79549  42.863  28.653  13.882
20113W        W79550   3.323  38.896  13.063
20114W        W79551  43.979  18.246  12.474
20115W        W79552  28.636  25.992   2.377
20116W        W79553  28.517   8.181   2.875
20117W        W79554   9.694  18.614  13.061
20118W        W79555  29.622   6.260  14.354
20119W        W79556  44.789   3.397   3.825
20120W        W79557  35.384  26.125   3.767
20121W        W79558  28.174  16.168   2.180
20122W        W79559   5.338  40.946  11.877
20123W        W79560  37.902  12.217  14.989
20124W        W79561  22.035   2.762  11.010
20125W        W79562  40.326  18.190  12.375
20126W        W79563  22.161  31.539   4.150
20127W        W79564  14.142   4.229  10.595
20128W        W79565  43.834  42.298  14.495
20129W        W79566  13.791  20.682   2.199
20130W        W79567   6.364   4.429   2.764
20131W        W79568  22.685   0.747   4.606
20132W        W79569  42.380  33.409  12.433
20133W        W79570   4.245   5.865   4.175
20134W        W79571   7.336  11.848  11.511
20135W        W79572   4.711  34.592  12.956
20136W        W79573  43.954  15.649  11.410
20137W        W79574  41.305  35.037   4.696
20138W        W79575  41.371  27.455   0.349
20139W        W79576  21.061  18.226  12.462
20140W        W79577  16.569   6.868   4.270
20141W        W79578  15.661  40.355  11.976
20142W        W79579  40.956  42.327  11.464
20143W        W79580  18.724  36.882   1.738
20144W        W79581  44.891  27.012  14.334
20145W        W79582  39.488   0.379   4.612
20146W        W79583  36.460  23.605   0.255
20147W        W79584   9.293  31.457   4.142
20148W        W79585   1.368  31.646  14.350
20149W        W79586   8.863  16.199   3.266
20150W        W79587  20.042  22.659  13.819
20151W        W79588  32.476  39.813  14.463
20152W        W79589   6.193  31.913   4.198
20153W        W79590  10.190  27.545   1.419
20154W        W79591  20.199  41.040   3.199
20155W        W79592  12.746  28.494  13.442
20156W        W79593  43.479   6.333  12.840
20157W        W79594  17.190   2.949  13.428
20158W        W79595  38.369  24.216   3.366
20159W        W79596  32.062  14.284   9.926
20160W        W79597  18.620  14.141  11.393
20161W        W79598  30.586  12.827  10.978
20162W        W79599  20.122   7.842  10.463
20163W        W79600   2.360  31.116   1.717
20164W        W79601  18.726  43.356   2.679
20165W        W79602  44.779  16.107   4.133
20166W        W79603  31.020  27.946   4.347
20167W        W79604   5.780  24.104  14.964
20168W        W79605  20.751  40.413  13.455
20169W        W79606  42.804   6.821  14.401
20170W        W79607  16.617  31.025  13.376
20171W        W79608   4.865  30.036  11.123
20172W        W79609   9.365  41.295   4.201
20173W        W79610  10.188   9.861   4.268
20174W        W79611  32.909  12.241   1.402
20175W        W79612  41.808  38.531  12.059
20176W        W79613  29.143  26.537   3.748
20177W        W79614  36.470  26.044   3.349
20178W        W79615   7.761  25.123  14.409
20179W        W79616  10.641  22.675  12.053
20180W        W79617  31.065  41.953  12.548
20181W        W79618  13.250  29.502  12.885
20182W        W79619  35.108  30.914   1.802
20183W        W79620  35.486  17.609   1.725
20184W        W79621  26.037  11.324  11.435
20185W        W79622  42.361  18.131  12.032
20186W        W79623   8.228   8.205   3.308
20187W        W79624   9.846  34.979   2.893
20188W        W79625   0.324  44.468   2.327
20189W        W79626  25.019  33.384  11.533
20190W        W79627  17.747  32.076   0.924
20191W        W79628  44.474   7.889   3.644
20192W        W79629  30.439  20.115  14.384
20193W        W79630  29.060   1.402   3.383
20194W        W79631  21.540  22.179  12.465
20195W        W79632  38.531  25.087   4.643
20196W        W79633   8.883  42.886  11.916
20197W        W79634  43.359  40.519   3.641
20198W        W79635   9.662  40.953  11.995
20199W        W79636  15.680  41.466   4.239
20200W        W79637  11.298  10.789  13.054
20201W        W79638  28.143  35.498   4.671
20202W        W79639  20.274  12.355   4.334
20203W        W79640   4.267  30.656   3.797
20204W        W79641   6.217   3.829  14.289
20205W        W79642  37.423   9.393   4.186
20206W        W79643  43.454   2.384   4.824
20207W        W79644  11.281  30.591   0.801
20208W        W79645  32.564  14.325  11.940
20209W        W79646  14.592   8.742   2.257
20210W        W79647  20.199   7.240   2.295
20211W        W79648  17.746  26.141   2.190
20212W        W79649  10.269  22.200   5.198
20213W        W79650   0.419  18.180   2.288
20214W        W79651  30.420  20.765   3.775
20215W        W79652  38.878   8.853  13.841
20216W        W79653  24.721  27.630   2.786
20217W        W79654  35.537  19.544   0.871
20218W        W79655  13.660  13.341   2.406
20219W        W79656  23.541   6.216  13.863
20220W        W79657  43.907  13.203   5.799
20221W        W79658  12.806  22.217   3.274
20222W        W79659   5.723  38.047  12.379
20223W        W79660  38.019  10.341   3.325
20224W        W79661  23.721  14.742   9.986
20225W        W79662  17.714  43.922  10.009
20226W        W79663   7.272  43.475   4.655
20227W        W79664   4.912  40.940  12.093
20228W        W79665  35.531  17.699   4.274
20229W        W79666  37.989  21.676  12.963
20230W        W79667  18.633   8.709  14.277
20231W        W79668   0.361  24.543   0.406
20232W        W79669  12.840   0.287   3.373
20233W        W79670  25.002   4.753   0.410
20234W        W79671  18.755  44.262   0.286
20235W        W79672   7.826  24.124  11.606
20236W        W79673  33.904  19.713  11.923
20237W        W79674  14.256   6.224  14.388
20238W        W79675  33.089  20.636  13.000
20239W        W79676   3.219   3.381  13.984
20240W        W79677  30.627  27.620  12.357
20241W        W79678   7.894   8.222   3.731
20242W        W79679  38.327   8.281   2.891
20243W        W79680   5.871  37.001   1.416
20244W        W79681  19.603  25.077  11.061
20245W        W79682   4.831  33.483  11.555
20246W        W79683  31.009  44.498  11.034
20247W        W79684  32.938  40.434   1.779
20248W        W79685  31.559  24.193  13.958
20249W        W79686  41.490  30.457   0.775
20250W        W79687  26.563   0.264   1.734
20251W        W79688  15.759  14.146   1.833
20252W        W79689  12.307  28.161   2.252
20253W        W79690  24.688   2.267   0.954
20254W        W79691  43.867  29.004  13.828
20255W        W79692  12.182  31.922   0.828
20256W        W79693  19.053  21.089   0.785
20257W        W79694  21.074  13.726  10.534
20258W        W79695  42.389  33.012   1.287
20259W        W79696  44.415  19.066   0.477
20260W        W79697  36.547  25.561  14.969
20261W        W79698  16.286  42.976  10.522
20262W        W79699  40.366  22.178   1.794
20263W        W79700  44.838   9.674   3.264
20264W        W79701  26.164  30.437  13.367
20265W        W79702  23.556   8.886  10.898
20266W        W79703   4.893   6.767   1.242
20267W        W79704  33.617  22.171   1.306
20268W        W79705  31.508  37.868  11.107
20269W        W79706  11.320  31.490  12.532
20270W        W79707  32.134   9.294  10.984
20271W        W79708  37.355  28.479  13.983
20272W        W79709  34.065  25.560   3.353
20273W        W79710  27.584   1.772  13.337
20274W        W79711  38.423  11.363  12.825
20275W        W79712  31.057  15.737   2.390
20276W        W79713  20.098  12.828  11.415
20277W        W79714   6.415   6.922   2.689
20278W        W79715  27.034  26.573  11.482
20279W        W79716  24.554  31.926  10.480
20280W        W79717  11.201   7.833  14.800
20281W        W79718  15.672  27.999  12.007
20282W        W79719  11.828  23.538  11.557
20283W        W79720  35.096  28.934   0.465
20284W        W79721  28.562  29.973  10.414
20285W        W79722  35.545  18.233   0.865
20286W        W79723  30.437   8.264   2.803
20287W        W79724   4.878  44.354   0.925
20288W        W79725   7.233  12.278   3.857
20289W        W79726  41.497  26.120  13.838
20290W        W79727   5.747   0.352   3.318
20291W        W79728  32.580   6.314   3.678
20292W        W79729  37.038   9.328   1.325
20293W        W79730  42.424  10.769  12.351
20294W        W79731  10.835  22.245   2.400
20295W        W79732  22.115  42.375   0.925
20296W        W79733   0.448  27.984  11.549
20297W        W79734   3.427  40.930   0.755
20298W        W79735  28.518   7.750   4.299
20299W        W79736  36.011  44.945  13.871
20300W        W79737  23.078   0.812   2.178
20301W        W79738   7.366  36.430  12.395
20302W        W79739  18.137  39.827  13.352
20303W        W79740  19.116   6.310  14.436
20304W        W79741  37.925  35.068   3.219
20305W        W79742  21.690   0.947  14.502
20306W        W79743  43.910  19.664  11.946
20307W        W79744  44.488   7.257  10.084
20308W        W79745  30.515  41.320   1.711
20309W        W79746  24.217  31.599   2.196
20310W        W79747   4.834  36.901   1.280
20311W        W79748  27.690  38.458   0.339
20312W        W79749  26.583  18.086  10.071
20313W        W79750  17.161   3.265   2.810
20314W        W79751   6.859  38.427   2.337
20315W        W79752  25.694  40.807  10.123
20316W        W79753  32.031  33.595   4.670
20317W        W79754  29.531  35.026   3.148
20318W        W79755   9.872   7.191  11.928
20319W        W79756  36.861  43.816   1.296
20320W        W79757  22.622  30.148   2.227
20321W        W79758  34.611  11.640   2.894
20322W        W79759  32.468   2.312  10.464
20323W        W79760  36.524  33.076   2.268
20324W        W79761  42.777  32.005  11.089
20325W        W79762  24.482  12.663   2.669
20326W        W79763  18.193   4.445   1.251
20327W        W79764  43.897  13.786  12.428
20328W        W79765  34.494  12.281  13.016
20329W        W79766  24.717   8.787  12.023
20330W        W79767  33.073   4.252  13.376
20331W        W79768  23.641  28.527   4.724
20332W        W79769  34.438  31.012   0.799
20333W        W79770  12.312  14.774   4.238
20334W        W79771  33.044  23.646   9.462
20335W        W79772  31.622  22.134  13.447
20336W        W79773  15.597  38.832  11.459
20337W        W79774   1.951  24.591   1.773
20338W        W79775  27.974   3.238   4.218
20339W        W79776  37.512   6.375   0.782
20340W        W79777  29.427   9.193   3.319
20341W        W79778   2.449  36.941  14.002
20342W        W79779  30.512  21.616  11.859
20343W        W79780  24.139  37.881   1.757
20344W        W79781  14.297  43.807   1.351
20345W        W79782  16.793   4.386   3.381
20346W        W79783  22.034  22.226   0.413
20347W        W79784  16.079  31.604   3.225
20348W        W79785  30.159  12.643   2.338
20349W        W79786   0.322   3.944  11.964
20350W        W79787  20.738  30.125   2.858
20351W        W79788  19.110  26.637   0.382
20352W        W79789  15.651  40.540  13.907
20353W        W79790  15.274  25.608   4.648
20354W        W79791   6.406  15.709  13.440
20355W        W79792  13.210   1.883  14.396
20356W        W79793  30.649  44.306  10.929
20357W        W79794  33.996   7.286  10.550
20358W        W79795  15.092  37.935   1.747
20359W        W79796  23.533  21.085  13.323
20360W        W79797  44.794  18.166  12.481
20361W        W79798   2.925   4.337  14.430
20362W        W79799  33.131  11.162   1.338
20363W        W79800   8.655  18.091  13.047
20364W        W79801  40.023  20.711  14.349
20365W        W79802  15.768   0.837   1.268
20366W        W79803   5.195  31.106   5.623
20367W        W79804  43.875  23.549  10.953
20368W        W79805  16.682   6.732   0.464
20369W        W79806  11.854  41.308   5.104
20370W        W79807  36.463  32.115  14.498
20371W        W79808   8.732  38.060  13.522
20372W        W79809  29.046  13.707  13.050
20373W        W79810  35.415  33.078   3.181
20374W        W79811  16.775  41.946   2.782
20375W        W79812  40.024  42.909  12.445
20376W        W79813  40.899  29.502   0.769
20377W        W79814   6.705   6.740  12.439
20378W        W79815  17.295  38.872   2.367
20379W        W79816  27.471  32.541   0.872
20380W        W79817  38.022  38.835   4.828
20381W        W79818  39.368  10.687   3.651
20382W        W79819  14.197  28.514  10.581
20383W        W79820  19.540  12.662  10.081
20384W        W79821  31.646  23.111   1.706
20385W        W79822  18.697  27.474  14.328
20386W        W79823   7.832   2.939   1.233
20387W        W79824  40.523  18.780  11.108
20388W        W79825   7.289   5.265  13.486
20389W        W79826  21.631  12.851  10.568
20390W        W79827   1.342  11.814   0.280
20391W        W79828  44.501   2.912   4.352
20392W        W79829  11.790  12.781  10.960
20393W        W79830  28.017  20.248  14.824
20394W        W79831  27.529  24.051   2.364
20395W        W79832  43.306   4.933  12.573
20396W        W79833   7.218  42.353  11.902
20397W        W79834  17.192  36.887  12.375
20398W        W79835  41.966  18.261  13.946
20399W        W79836   7.355  33.548  13.946
20400W        W79837   5.282  23.658  10.602
20401W        W79838   0.780  24.126   2.325
20402W        W79839  23.584   9.307  13.350
20403W        W79840  26.003  12.261  12.352
20404W        W79841  15.718  14.818  14.458
20405W        W79842  40.987  38.901  12.848
20406W        W79843  17.702  33.593   0.255
20407W        W79844  10.156  23.191  14.408
20408W        W79845  32.507  24.078  11.902
20409W        W79846  11.794  10.312   1.708
20410W        W79847  40.875  10.268   2.386
20411W        W79848  33.532  22.577   4.352
20412W        W79849  25.060  12.289   2.310
20413W        W79850  20.057  27.947   3.190
20414W        W79851   2.386   1.901  11.481
20415W        W79852   6.294  41.383   3.734
20416W        W79853  20.764  20.236   3.757
20417W        W79854  27.691   6.750  12.566
20418W        W79855   0.977  27.964  11.450
20419W        W79856  36.856   6.307  10.461
20420W        W79857   3.946  40.907   2.881
20421W        W79858  41.515  21.096   2.336
20422W        W79859  18.736  15.251  10.485
20423W        W79860   7.283   2.771   3.350
20424W        W79861  16.292  18.098   1.922
20425W        W79862  30.984  27.542   4.752
20426W        W79863  36.405  39.971   4.717
20427W        W79864   0.770  29.929   4.813
20428W        W79865  31.470  39.938   2.809
20429W        W79866  22.242  20.728  12.901
20430W        W79867   2.324   5.790   1.775
20431W        W79868  18.259  37.557  14.510
20432W        W79869  10.233  37.560   3.843
20433W        W79870  14.313  34.955  14.924
20434W        W79871  28.143   4.441   4.716
20435W        W79872  34.978  30.032   4.287
20436W        W79873   3.450  27.027   2.401
20437W        W79874   0.835  12.615  14.978
20438W        W79875  35.599  18.598   0.366
20439W        W79876  13.214  28.529  12.076
20440W        W79877  24.561  41.455   3.851
20441W        W79878  15.659  21.552  14.029
20442W        W79879  17.164  14.766   3.289
20443W        W79880  31.069  17.230  10.430
20444W        W79881   4.413  39.987   1.230
20445W        W79882  24.173  28.576   1.870
20446W        W79883  22.244   3.719  13.931
20447W        W79884  27.978  33.487  11.957
20448W        W79885  30.575  43.780   2.207
20449W        W79886  26.602  27.975  14.274
20450W        W79887  21.720  26.540   0.427
20451W        W79888   1.969  25.510   0.327
20452W        W79889  10.697   2.378   3.148
20453W        W79890  13.193   1.773  13.037
20454W        W79891  13.837  38.012  12.481
20455W        W79892  19.286  37.402   4.283
20456W        W79893  34.468   4.221   4.674
20457W        W79894  26.685  37.413  11.560
20458W        W79895  35.549  34.074   0.784
20459W        W79896  28.943  32.559   4.681
20460W        W79897  35.489  21.056   2.700
20461W        W79898  43.400  41.865  14.006
20462W        W79899   9.867   4.447   3.692
20463W        W79900  15.776  34.890   2.293
20464W        W79901  37.374  29.487   1.416
20465W        W79902  30.140  27.499   1.355
20466W        W79903  26.556  27.024   1.702
20467W        W79904  25.988  42.792   0.787
20468W        W79905  23.040   5.699   4.214
20469W        W79906  31.583  23.691   0.479
20470W        W79907  24.572   7.290  13.972
20471W        W79908  16.696  39.538  13.021
20472W        W79909  15.747  21.052   2.661
20473W        W79910  12.257  21.140  14.933
20474W        W79911   2.882  32.958  10.995
20475W        W79912  42.407  42.892   3.656
20476W        W79913  39.849  30.637  13.063
20477W        W79914  21.018  30.500   1.303
20478W        W79915   2.784  17.591  10.461
20479W        W79916  44.757   0.362  13.794
20480W        W79917  10.659  28.448   4.163
20481W        W79918   4.835  25.152  12.508
20482W        W79919  27.091  27.175  14.773
20483W        W79920  37.961   8.206  13.425
20484W        W79921  34.587  35.962  10.419
20485W        W79922  27.568  31.070  12.504
20486W        W79923  19.584  42.367   0.780
20487W        W79924  33.886  24.139   2.883
20488W        W79925   1.462   0.903  14.827
20489W        W79926   8.278  12.809   1.742
20490W        W79927   5.208  31.008   1.338
20491W        W79928   9.222   9.369  14.929
20492W        W79929  32.922  36.975  14.281
20493W        W79930  20.568   6.417  14.908
20494W        W79931  16.692  32.433   1.320
20495W        W79932  28.581  20.039  13.532
20496W        W79933  39.913  31.045  12.477
20497W        W79934  34.521  23.603   2.271
20498W        W79935  36.567  40.452  11.395
20499W        W79936   2.236  35.493   2.229
20500W        W79937  13.210   3.952  11.047
20501W        W79938   2.727   3.291   2.740
20502W        W79939  36.468  36.379  12.896
20503W        W79940  34.902  36.891   4.263
20504W        W79941   1.787  14.824   3.256
20505W        W79942  30.493   2.237   3.232
20506W        W79943  32.045  22.501  13.013
20507W        W79944   5.369  28.111  12.543
20508W        W79945  20.040  40.517   3.795
20509W        W79946  22.084  28.543  10.605
20510W        W79947  26.193  31.517   0.809
20511W        W79948   2.742   2.238   0.276
20512W        W79949   0.974  41.511   3.307
20513W        W79950  19.127  37.359  10.921
20514W        W79951  15.087  40.809  14.804
20515W        W79952   5.206  43.419  10.541
20516W        W79953  34.579  10.688   2.182
20517W        W79954  41.512   9.322  12.030
20518W        W79955  33.981  17.749  14.919
20519W        W79956  15.586  42.940   0.817
20520W        W79957  16.156  40.927   2.239
20521W        W79958  18.295  28.492  13.488
20522W        W79959   7.742   8.708  11.030
20523W        W79960  16.627  16.311  13.838
20524W        W79961  23.562  29.146   0.900
20525W        W79962  28.092  29.063  14.777
20526W        W79963  27.961  12.253   2.241
20527W        W79964   2.825  38.867  10.423
20528W        W79965   0.941  29.173  13.507
20529W        W79966  43.857  38.463   0.912
20530W        W79967   0.272  10.233   3.297
20531W        W79968  18.271   6.713  13.398
20532W        W79969  41.934  36.569   5.268
20533W        W79970  44.412  24.211   3.637
20534W        W79971   0.467  41.040  13.321
20535W        W79972   5.755  25.650   1.346
20536W        W79973   2.290  30.633   2.795
20537W        W79974  33.559  44.912  13.952
20538W        W79975   5.233   7.334  11.529
20539W        W79976  41.433  36.035  13.801
20540W        W79977  10.793  23.138   0.386
20541W        W79978  39.377  24.500   2.733
20542W        W79979  36.970  24.616   0.281
20543W        W79980  38.384  29.435  10.910
20544W        W79981  23.530  44.947  11.025
20545W        W79982  33.458  33.978  11.427
20546W        W79983  21.155  20.264  13.535
20547W        W79984  37.489  33.055  10.581
20548W        W79985  31.584   7.804  12.040
20549W        W79986   8.342  43.888   2.769
20550W        W79987  12.839   0.291  14.402
20551W        W79988   1.287  31.955  13.897
20552W        W79989   5.746  38.823  12.985
20553W        W79990  21.751  20.600  12.823
20554W        W79991  15.214  22.101   4.771
20555W        W79992  32.456  11.799   4.326
20556W        W79993   7.669  37.953  14.791
20557W        W79994  21.251  15.720   0.415
20558W        W79995  37.964  15.143  14.811
20559W        W79996  30.153   0.248   1.908
20560W        W79997   3.450  10.203  13.540
20561W        W79998  14.634   6.717  14.979
20562W        W79999  13.647   7.239   3.793
20563W        W80000   9.290  35.923   2.390
20564W        W80001  41.403   9.358   0.898
20565W        W80002  11.371   4.714   0.474
20566W        W80003  18.114  10.333   3.661
20567W        W80004  38.460  25.570   0.373
20568W        W80005  32.564   2.841   2.878
20569W        W80006  43.877  16.738   4.837
20570W        W80007  22.052  18.101   0.904
20571W        W80008   7.728   6.739  11.931
20572W        W80009  44.497  43.949  11.864
20573W        W80010  29.502  31.948  12.568
20574W        W80011  21.548   1.787  10.949
20575W        W80012  36.487  16.708  11.035
20576W        W80013   2.254  24.096  11.014
20577W        W80014  26.026  31.957   2.277
20578W        W80015  30.538  11.311  14.448
20579W        W80016  24.649  32.433   1.888
20580W        W80017  18.092  21.598   1.234
20581W        W80018  19.657  41.015   1.431
20582W        W80019  17.127  11.687   3.691
20583W        W80020  43.987  36.395  13.807
20584W        W80021   9.324  38.989   3.710
20585W        W80022  24.061  40.868   2.693
20586W        W80023  31.082  27.150   2.726
20587W        W80024   7.838  42.861  10.454
20588W        W80025  32.012   9.316   2.728
20589W        W80026  30.991  42.996  13.015
20590W        W80027   6.797  21.134   2.691
20591W        W80028  27.661  25.504  13.533
20592W        W80029  10.198  30.042  11.930
20593W        W80030  36.023  43.451  14.903
20594W        W80031  24.712  23.060  14.432
20595W        W80032  22.535  21.234  12.410
20596W        W80033  43.360  38.823  13.823
20597W        W80034  29.007  20.549  12.372
20598W        W80035  24.666  16.191  14.842
20599W        W80036  41.319  16.169   1.769
20600W        W80037  25.202  43.405   3.854
20601W        W80038  11.264  30.461  13.482
20602W        W80039   7.779  27.061  13.053
20603W        W80040  26.093  20.077   4.832
20604W        W80041   8.714  17.730  11.005
20605W        W80042  19.233   1.314  10.609
20606W        W80043  36.439   7.732  11.555
20607W        W80044  24.624  14.808   4.301
20608W        W80045  24.012  40.910  13.348
20609W        W80046  32.995  18.550   1.277
20610W        W80047  10.286  44.452   5.261
20611W        W80048  39.827  18.091  12.573
20612W        W80049  27.129  19.131   0.354
20613W        W80050  36.982  34.419   3.187
20614W        W80051  19.236  12.816   3.846
20615W        W80052  13.118  23.181  14.790
20616W        W80053   1.960  12.263   0.748
20617W        W80054  21.117  10.706   1.782
20618W        W80055  12.782  35.854  10.941
20619W        W80056  10.806   6.337   1.321
20620W        W80057  31.039  36.985   2.697
20621W        W80058  20.618  29.462  12.558
20622W        W80059   9.687   3.942  12.979
20623W        W80060   3.456  42.362   3.817
20624W        W80061  32.109   0.946   1.792
20625W        W80062  24.129   3.276  13.514
20626W        W80063  23.636  15.728  13.813
20627W        W80064  43.272   7.394  12.950
20628W        W80065  42.925  12.264  14.392
20629W        W80066  16.744  29.450  13.467
20630W        W80067  33.479   5.884  14.790
20631W        W80068  41.981  31.026   3.849
20632W        W80069  30.946   0.797   1.730
20633W        W80070  42.982  11.351   0.471
20634W        W80071  23.195   4.390  11.025
20635W        W80072  42.354  25.047  13.802
20636W        W80073  41.001  29.958  12.830
20637W        W80074  27.584   0.281   1.931
20638W        W80075   7.177  38.872  12.455
20639W        W80076  24.032  35.022   1.828
20640W        W80077   1.294  11.182   2.842
20641W        W80078  10.236   0.434  14.441
20642W        W80079   7.866   4.280  12.026
20643W        W80080  24.007   9.213   2.784
20644W        W80081  14.818  11.298   1.751
20645W        W80082  23.140  16.765  13.352
20646W        W80083  22.708  20.133  12.373
20647W        W80084  14.600  35.094   1.747
20648W        W80085  15.612  38.344  10.043
20649W        W80086  41.015  37.359  14.948
20650W        W80087  42.342  42.473  12.843
20651W        W80088  37.368  14.278  12.473
20652W        W80089  28.026  32.614   4.807
20653W        W80090  42.295  20.238  14.284
20654W        W80091  33.440  37.928   5.580
20655W        W80092  34.541  19.201  11.128
20656W        W80093  41.432   8.663   1.298
20657W        W80094  13.214   3.710  13.037
20658W        W80095  34.483  24.979  13.894
20659W        W80096  42.378  44.367  11.469
20660W        W80097  22.651   4.269  10.426
20661W        W80098  31.081  11.141   3.251
20662W        W80099  28.554   2.465   0.944
20663W        W80100   4.820  14.754  12.542
20664W        W80101   4.229  27.017   0.825
20665W        W80102  41.954  17.199  13.840
20666W        W80103  41.535   7.293   1.851
20667W        W80104  32.511  11.642  12.956
20668W        W80105  29.948  21.184  13.315
20669W        W80106  27.465  33.493  10.548
20670W        W80107  20.164  29.128  12.353
20671W        W80108  21.233   8.364   1.218
20672W        W80109  19.630  44.806  13.548
20673W        W80110  12.249  12.679  11.447
20674W        W80111  30.955  36.531   0.254
20675W        W80112  29.469  14.678   0.348
20676W        W80113  28.056   2.355   1.727
20677W        W80114  23.633  14.207   2.877
20678W        W80115  18.720  18.144   1.416
20679W        W80116  25.179  36.531   4.782
20680W        W80117  11.295  15.603   0.348
20681W        W80118  36.507  44.395   4.603
20682W        W80119  28.568  30.423  14.343
20683W        W80120  29.049   6.747  12.096
20684W        W80121   8.169  25.692   3.167
20685W        W80122  32.905  17.586  11.117
20686W        W80123  42.482   5.282   1.909
20687W        W80124  25.608  32.106   4.819
20688W        W80125  41.859  16.080   0.480
20689W        W80126  40.545   9.227   4.625
20690W        W80127  31.514   8.726  11.513
20691W        W80128  35.565  26.539  11.447
20692W        W80129  15.294  17.170  13.535
20693W        W80130  12.188  14.138  13.417
20694W        W80131   5.348   9.174   1.739
20695W        W80132  21.054  35.423  11.503
20696W        W80133  20.756  34.018   1.298
20697W        W80134   5.865   4.721   1.304
20698W        W80135  10.167  22.696  11.993
20699W        W80136  20.743  32.623  14.422
20700W        W80137  17.122  28.041   2.257
20701W        W80138   7.698  30.132  12.996
20702W        W80139  24.594  26.138  11.883
20703W        W80140  43.273  12.635   4.161
20704W        W80141  14.719  28.448  12.373
20705W        W80142   8.856  26.515  12.970
20706W        W80143   6.732  34.613   3.303
20707W        W80144   1.966  43.334  13.371
20708W        W80145  25.709   3.885  14.904
20709W        W80146  25.581  26.090  12.013
20710W        W80147  44.333   2.867   1.725
20711W        W80148   0.756  44.265   3.270
20712W        W80149  24.153  28.969  10.081
20713W        W80150  43.961  12.167   1.725
20714W        W80151  16.599   4.409   3.791
20715W        W80152  33.048  43.830  13.995
20716W        W80153  38.537  26.083  14.800
20717W        W80154  26.635  19.211  11.923
20718W        W80155  22.190   0.447  10.906
20719W        W80156  23.712   2.953   0.434
20720W        W80157  14.689   5.817   1.295
20721W        W80158  30.975  39.445   3.298
20722W        W80159  16.740  19.259  11.547
20723W        W80160  12.132  26.598   1.712
20724W        W80161  43.915   5.249  14.327
20725W        W80162  35.901  17.223  12.939
20726W        W80163  16.195  29.076   3.173
20727W        W80164   7.714  22.128   2.363
20728W        W80165  21.088  15.669   4.830
20729W        W80166   9.846   2.837   3.741
20730W        W80167  24.227  15.306  14.945
20731W        W80168  23.635  20.234  12.533
20732W        W80169  39.518  15.198   3.320
20733W        W80170  14.190  43.845  13.315
20734W        W80171  14.292  42.945   4.324
20735W        W80172   8.347  11.138  14.886
20736W        W80173  39.461  40.985  11.381
20737W        W80174  18.220  30.944  10.930
20738W        W80175  34.569  16.254   3.828
20739W        W80176  29.662  27.149   4.665
20740W        W80177   4.230  32.521   2.197
20741W        W80178  28.025  42.851  13.014
20742W        W80179  23.494  37.972   1.357
20743W        W80180   7.408  32.498   2.720
20744W        W80181  12.210  19.704   4.157
20745W        W80182  41.391  12.766   3.386
20746W        W80183  34.993  38.387  10.492
20747W        W80184  32.568  19.620  12.909
20748W        W80185  10.830  32.987  14.893
20749W        W80186  37.927  16.746  13.522
20750W        W80187  18.227   7.306  13.849
20751W        W80188  21.204  31.908  10.484
20752W        W80189  20.530  44.837  11.978
20753W        W80190   0.828  17.775  11.519
20754W        W80191  14.145  41.457  13.334
20755W        W80192   5.696  31.585   2.289
20756W        W80193  36.921   9.670  11.550
20757W        W80194   2.932  44.378   2.851
20758W        W80195  15.170  12.768   3.164
20759W        W80196  41.512  16.644  11.486
20760W        W80197  42.998  23.628  10.025
20761W        W80198  39.976  15.690   9.929
20762W        W80199  28.941   5.291   0.892
20763W        W80200  12.767   4.799   4.245
20764W        W80201  32.913   4.804   3.794
20765W        W80202   8.228  15.712  14.507
20766W        W80203   8.897  24.100   4.266
20767W        W80204  40.444  38.492  11.512
20768W        W80205  29.077  14.291   4.223
20769W        W80206  41.328  26.626   4.310
20770W        W80207   9.813   0.401   1.912
20771W        W80208  25.108  37.435  12.552
20772W        W80209  15.120  28.520   0.315
20773W        W80210  23.628  18.656   3.747
20774W        W80211  15.251  30.555   0.291
20775W        W80212   5.419  24.988  14.873
20776W        W80213  15.809  18.066   3.196
20777W        W80214  23.600  38.924  14.975
20778W        W80215  44.264  35.359   0.729
20779W        W80216  30.925  24.164   2.790
20780W        W80217  35.868  31.119   4.135
20781W        W80218   5.270  11.137   1.862
20782W        W80219  16.745  40.532   4.275
20783W        W80220   7.901   4.405   1.385
20784W        W80221  32.444  44.795   1.773
20785W        W80222  44.755  41.791  10.914
20786W        W80223   5.914  42.380  11.575
20787W        W80224  30.487  13.177   0.414
20788W        W80225   2.767   1.274   4.748
20789W        W80226  37.857   3.772  14.926
20790W        W80227  20.531  21.659   1.344
20791W        W80228   7.782  10.840  10.975
20792W        W80229   4.737  13.310   1.287
20793W        W80230  23.020  38.356   3.357
20794W        W80231  26.957  36.091  11.064
20795W        W80232  37.565   7.759  11.915
20796W        W80233  11.840  10.284  12.954
20797W        W80234   2.911  14.266  13.496
20798W        W80235  36.041  31.947  12.428
20799W        W80236  12.306  34.464  13.420
20800W        W80237  37.970  20.755   0.799
20801W        W80238  20.722  21.236  11.093
20802W        W80239  30.969  13.341   3.656
20803W        W80240  34.083  35.571  13.973
20804W        W80241  14.637   7.892  10.463
20805W        W80242  28.487   9.777  11.385
20806W        W80243  14.626  17.711  13.897
20807W        W80244  44.498   4.441  11.375
20808W        W80245  43.885  17.260  13.863
20809W        W80246   3.387  43.901  10.592
20810W        W80247  35.082  23.239   2.190
20811W        W80248   7.906  14.260   1.439
20812W        W80249  20.681  15.654   3.856
20813W        W80250   9.827  28.125  13.420
20814W        W80251  32.497  33.117   3.787
20815W        W80252  23.154  19.749  10.490
20816W        W80253  29.628  30.090   3.669
20817W        W80254  29.152  31.601  10.932
20818W        W80255   7.692  29.120   0.420
20819W        W80256  34.923  41.524   4.606
20820W        W80257  19.552  28.070  11.378
20821W        W80258  24.598   3.903   0.918
20822W        W80259  12.802  39.420  13.446
20823W        W80260  22.121   4.773   3.849
20824W        W80261  35.868  29.921  11.475
20825W        W80262  19.161  13.627   0.358
20826W        W80263  28.677  41.002   1.747
20827W        W80264   5.863  26.611  14.831
20828W        W80265  34.114   7.214  12.547
20829W        W80266  39.832  27.164  11.402
20830W        W80267  42.874  11.208   2.775
20831W        W80268  24.575   9.698   0.956
20832W        W80269  43.969  34.079  12.044
20833W        W80270  16.673  10.837   4.689
20834W        W80271  17.733  25.149   2.723
20835W        W80272   0.746  36.561   1.841
20836W        W80273  25.077  26.982   4.815
20837W        W80274  32.954  15.234   4.832
20838W        W80275  22.224  30.604   0.879
20839W        W80276  44.877  28.562  12.430
20840W        W80277  13.809   8.733   3.653
20841W        W80278  17.067   2.868  14.896
20842W        W80279  27.108  30.655  14.934
20843W        W80280  12.217   4.775  11.479
20844W        W80281  35.405  18.155  10.598
20845W        W80282  42.521  42.402  13.512
20846W        W80283  32.565   5.235   4.322
20847W        W80284  32.997   4.242  11.471
20848W        W80285  14.668  25.065   1.286
20849W        W80286  22.225  22.015   0.784
20850W        W80287  30.641   6.252  11.991
20851W        W80288  44.419  21.164  10.481
20852W        W80289  39.995   4.255  14.485
20853W        W80290  17.797  21.599  13.500
20854W        W80291  11.788  25.168   9.952
20855W        W80292  24.635  26.518  10.116
20856W        W80293  44.926  18.756  10.502
20857W        W80294  14.319   0.965   2.228
20858W        W80295  41.379   7.356   3.383
20859W        W80296   9.682  19.271   2.225
20860W        W80297  34.574  31.040   0.392
20861W        W80298  40.526  39.921   0.471
20862W        W80299   9.710  33.566   4.276
20863W        W80300   5.743   4.406  13.532
20864W        W80301  32.565  11.356   0.335
20865W        W80302  24.999  22.010   1.313
20866W        W80303  20.083  37.956  10.405
20867W        W80304   2.311  13.803   3.210
20868W        W80305   9.226  25.511  11.885
20869W        W80306  37.892  38.036   1.856
20870W        W80307   0.359   8.862  10.478
20871W        W80308  32.626   6.860   3.715
20872W        W80309   7.354  25.188  13.899
20873W        W80310  14.290  29.979   1.235
20874W        W80311  18.052  16.229   1.307
20875W        W80312  42.838  39.466  11.542
20876W        W80313  11.781  43.796   1.922
20877W        W80314  35.071   9.279   1.748
20878W        W80315  39.022  19.764  13.354
20879W        W80316   1.857  28.978   4.685
20880W        W80317  21.045   0.394  12.061
20881W        W80318  36.922  24.489  12.448
20882W        W80319  11.153  19.763   0.381
20883W        W80320  27.529  40.031   4.349
20884W        W80321  44.833  29.142   3.813
20885W        W80322   4.886  37.973   3.716
20886W        W80323   8.816   1.745   3.228
20887W        W80324  12.675  22.504  14.429
20888W        W80325  34.084  30.919  11.460
20889W        W80326   1.283  26.161   2.734
20890W        W80327  44.998  29.552   3.630
20891W        W80328  36.885   8.861  12.396
20892W        W80329  12.752  19.619   2.230
20893W        W80330  34.116  39.976   2.245
20894W        W80331  21.605  43.421  14.843
20895W        W80332  37.076  39.440   3.720
20896W        W80333  29.620  12.259  14.381
20897W        W80334  37.466  20.261  10.543
20898W        W80335  40.461   0.297   2.287
20899W        W80336  30.439  33.945   1.222
20900W        W80337  11.210  20.220   4.245
20901W        W80338  31.461  13.318  14.775
20902W        W80339  15.682  17.750  11.006
20903W        W80340   5.843   1.971   4.280
20904W        W80341  44.447  25.485   2.859
20905W        W80342   9.256  36.875  11.033
20906W        W80343  43.335   9.297   3.666
20907W        W80344  44.797  28.629  14.343
20908W        W80345  41.796  36.061  14.959
20909W        W80346  14.615  23.617  11.977
20910W        W80347  40.018  40.354  12.567
20911W        W80348   6.780   8.896   0.913
20912W        W80349  38.822   4.324   4.226
20913W        W80350  43.881  32.983  11.433
20914W        W80351  38.057  30.586  11.499
20915W        W80352   6.678  31.920   2.748
20916W        W80353  22.683   4.209   4.821
20917W        W80354  13.193  19.113   1.726
20918W        W80355  23.002  22.623  13.792
20919W        W80356  18.232   9.833  12.531
20920W        W80357  43.351  26.557  12.898
20921W        W80358   1.271  30.980  13.968
20922W        W80359  39.522  30.066  11.501
20923W        W80360   8.161  17.183   2.280
20924W        W80361  18.106  43.292   1.759
20925W        W80362  37.523  40.386  13.054
20926W        W80363  23.734   2.290   4.264
20927W        W80364  10.269  18.625  14.895
20928W        W80365  20.709   6.205   3.312
20929W        W80366  13.205  28.150   4.778
20930W        W80367  28.594  26.622   5.141
20931W        W80368   2.455  42.027   4.769
20932W        W80369  26.000  27.151   4.606
20933W        W80370   8.341  36.935  11.530
20934W        W80371  16.117   2.253   0.277
20935W        W80372   7.782   9.852  13.981
20936W        W80373  30.432   3.717   3.814
20937W        W80374  13.651  21.750  13.502
20938W        W80375  14.272  29.963  12.023
20939W        W80376  33.036  14.213  13.311
20940W        W80377   3.789  32.057   1.707
20941W        W80378  41.486   8.722   4.644
20942W        W80379   1.468  31.907   1.720
20943W        W80380  28.573   0.827  13.053
20944W        W80381  22.504  36.979  11.982
20945W        W80382  10.717  37.025  14.763
20946W        W80383  43.439   6.240  10.408
20947W        W80384  26.532  27.972   2.715
20948W        W80385  10.638  41.508  13.379
20949W        W80386   4.432  11.328   2.696
20950W        W80387   6.798  35.540  13.412
20951W        W80388  41.792  18.680   3.832
20952W        W80389  18.128  19.573  14.477
20953W        W80390   4.706  42.406  11.374
20954W        W80391  15.706  30.477  10.472
20955W        W80392  27.515  35.486   2.398
20956W        W80393  44.259  20.769  12.550
20957W        W80394  17.153  32.974   2.666
20958W        W80395  36.942  18.761  12.546
20959W        W80396  28.654  23.124  14.850
20960W        W80397  19.233  17.802   0.420
20961W        W80398  33.613  26.198   1.288
20962W        W80399  10.243  38.951  12.502
20963W        W80400  23.721  32.026  10.437
20964W        W80401   7.758  28.494   3.293
20965W        W80402   3.232  39.846  10.632
20966W        W80403  31.452  25.699   3.383
20967W        W80404  25.026  27.953  11.087
20968W        W80405  43.305  24.091   1.257
20969W        W80406  10.275  26.642   4.267
20970W        W80407  28.549  33.592   2.234
20971W        W80408  29.920  26.492   2.419
20972W        W80409  17.112   5.692  14.011
20973W        W80410   0.883  22.235   0.750
20974W        W80411   8.784  15.159   3.216
20975W        W80412  36.051  35.366  11.993
20976W        W80413  41.397  31.516  11.396
20977W        W80414  25.517  38.061  13.396
20978W        W80415  31.513  36.920  13.047
20979W        W80416  27.190  33.619   0.372
20980W        W80417  39.943   6.301   3.638
20981W        W80418  13.735  14.094  12.983
20982W        W80419   8.838  42.949   4.284
20983W        W80420   8.259  27.676   1.727
20984W        W80421  29.084  44.474  13.363
20985W        W80422  26.578  26.637   0.437
20986W        W80423  22.681  13.243  10.958
20987W        W80424  40.483  43.889   2.365
20988W        W80425   3.280  38.402   0.454
20989W        W80426  14.264   9.368  11.043
20990W        W80427   7.680  29.171   1.353
20991W        W80428  20.230  40.977   1.377
20992W        W80429  37.831  14.179  14.446
20993W        W80430  31.487  21.216  14.924
20994W        W80431  31.410   3.927  11.946
20995W        W80432  30.521  15.137   0.308
20996W        W80433   9.815   3.267  14.942
20997W        W80434  32.982  43.913   0.465
20998W        W80435   5.431  22.673   4.773
20999W        W80436  38.836  22.164  10.930
21000W        W80437  44.816   1.419   2.268
21001W        W80438  20.664   9.698  14.879
21002W        W80439  37.982  38.904  14.451
21003W        W80440  28.519  40.819  11.027
21004W        W80441  15.195   7.842  14.354
21005W        W80442   1.471   8.786  11.460
21006W        W80443  34.559  11.296   3.679
21007W        W80444   4.410  24.131  10.917
21008W        W80445  41.399  44.889  13.894
21009W        W80446   1.279  23.234   3.213
21010W        W80447   1.305  37.070   3.214
21011W        W80448  32.074  13.178  12.973
21012W        W80449  21.737  18.124   2.329
21013W        W80450  30.057   4.759  14.457
21014W        W80451  28.529  38.937  10.125
21015W        W80452   5.439  16.729  14.784
21016W        W80453  14.824  31.485   3.224
21017W        W80454  34.588  32.127   1.314
21018W        W80455   6.922   8.728   4.708
21019W        W80456  31.497  42.944   2.803
21020W        W80457  40.002  27.132   2.406
21021W        W80458   4.409  10.777   4.602
21022W        W80459  39.898  11.714  11.437
21023W        W80460  10.251   6.302   3.852
21024W        W80461  37.557  29.942   1.885
21025W        W80462  43.795  31.924  10.594
21026W        W80463   1.954  36.075   0.249
21027W        W80464  10.193  30.538  10.586
21028W        W80465  30.112   8.399   0.288
21029W        W80466  15.593  33.908  10.523
21030W        W80467  10.272   6.696   4.745
21031W        W80468  25.057   4.341   4.738
21032W        W80469  26.490  15.218   1.397
21033W        W80470  33.093   1.952  13.992
21034W        W80471  34.596  38.843  14.416
21035W        W80472   0.986  34.118  11.959
21036W        W80473  19.250  24.983   0.429
21037W        W80474  29.590  21.172  12.579
21038W        W80475  28.034  31.936   4.657
21039W        W80476  28.107  33.073  14.781
21040W        W80477   3.434  22.615  14.287
21041W        W80478  29.986  14.760   1.793
21042W        W80479  35.391  30.158   2.198
21043W        W80480   2.460  22.026  11.495
21044W        W80481  17.281  16.767  12.505
21045W        W80482  25.556  15.670   3.340
21046W        W80483  23.024  21.750   3.738
21047W        W80484  37.050  22.231   4.811
21048W        W80485  44.346   1.391  11.472
21049W        W80486  13.153  33.075  10.409
21050W        W80487  16.661  35.450  11.552
21051W        W80488  13.760   2.325   0.841
21052W        W80489  39.356  41.927  13.798
21053W        W80490   5.280  36.430  11.954
21054W        W80491  30.618  44.273   3.189
21055W        W80492  23.714  43.924  12.892
21056W        W80493  36.515  37.437   0.295
21057W        W80494  25.488  10.646   0.449
21058W        W80495  11.654  16.170  14.481
21059W        W80496   4.299  44.498   1.733
21060W        W80497  35.410   5.929  12.955
21061W        W80498  25.525  23.515  13.992
21062W        W80499  11.696  26.004   0.797
21063W        W80500  29.028  40.999   1.374
21064W        W80501   0.974  18.251  10.609
21065W        W80502   3.246   0.980   4.177
21066W        W80503  15.722  37.540   2.407
21067W        W80504  29.424  39.313  12.539
21068W        W80505  27.078   0.831   1.451
21069W        W80506  24.979  33.981   1.884
21070W        W80507  27.171  40.439  12.069
21071W        W80508  25.553  33.561  13.852
21072W        W80509  10.372  19.074  12.978
21073W        W80510  13.731  28.001   0.741
21074W        W80511  29.572  25.540  12.910
21075W        W80512  11.287  34.477  11.577
21076W        W80513  27.528  31.102  13.532
21077W        W80514  24.988   7.871  13.879
21078W        W80515  20.724  16.650   2.841
21079W        W80516  34.863  19.757  12.907
21080W        W80517  44.909  12.220  11.012
21081W        W80518   6.870  43.858   0.334
21082W        W80519  32.031  43.412   2.389
21083W        W80520   5.756  44.344  10.077
21084W        W80521  23.726  22.662  13.515
21085W        W80522   3.253   8.655  14.769
21086W        W80523   9.390  40.333   2.804
21087W        W80524  29.622  44.458   2.400
21088W        W80525   2.300  39.065  11.105
21089W        W80526  18.189   4.780   3.316
21090W        W80527  38.427  29.097   3.293
21091W        W80528   3.916   2.430  11.016
21092W        W80529  24.192  18.091  11.989
21093W        W80530  12.635   5.867  10.969
21094W        W80531  10.681  41.950  14.960
21095W        W80532  18.629  35.381  12.386
21096W        W80533  15.234  15.187   0.779
21097W        W80534  27.132  30.997   1.751
21098W        W80535  10.666   9.660  14.474
21099W        W80536  15.257  23.510   0.455
21100W        W80537  13.804  36.422   3.869
21101W        W80538  23.665  21.199   3.755
21102W        W80539  33.432   6.752   4.332
21103W        W80540  26.162  33.602  13.922
21104W        W80541  25.128  39.492  13.870
21105W        W80542   7.765  16.598  10.477
21106W        W80543  17.134  24.499  14.384
21107W        W80544   7.838  22.046   4.697
21108W        W80545  41.786  11.814  12.409
21109W        W80546  25.196  41.855   4.243
21110W        W80547  28.573  39.034   4.664
21111W        W80548  25.552  44.830  14.412
21112W        W80549  33.933  21.220  12.845
21113W        W80550  10.153   4.894   1.698
21114W        W80551  44.868  34.476   4.830
21115W        W80552  44.907  42.405  12.059
21116W        W80553  11.350   0.815   0.928
21117W        W80554  36.379  16.809  14.836
21118W        W80555   7.819  10.280  12.508
21119W        W80556  15.745  23.197   2.672
21120W        W80557   8.686  15.614   3.382
21121W        W80558   0.840  35.900   3.709
21122W        W80559  44.468  39.864  11.087
21123W        W80560  32.508  10.254   2.271
21124W        W80561  42.905   3.736   2.289
21125W        W80562  21.735  33.889  12.923
21126W        W80563  43.437  28.596  10.582
21127W        W80564  31.116  20.238  13.903
21128W        W80565  26.193  12.254   1.425
21129W        W80566   5.926  39.044  13.823
21130W        W80567  35.014  38.562  12.879
21131W        W80568  26.999  35.531   0.397
21132W        W80569   4.266  29.436   0.457
21133W        W80570  22.182  11.292  14.360
21134W        W80571  24.094  34.993   1.427
21135W        W80572  13.768  39.412   5.189
21136W        W80573  34.469  26.685   3.285
21137W        W80574  31.952   9.390   0.930
21138W        W80575  24.479  21.645  10.445
21139W        W80576  34.090  42.885  13.898
21140W        W80577  28.669   8.199  13.023
21141W        W80578  32.509  11.627  11.458
21142W        W80579  25.467  13.291  11.009
21143W        W80580  24.066  40.860   3.256
21144W        W80581  36.873  27.119   2.323
21145W        W80582  13.646  41.421   3.335
21146W        W80583   3.739  41.466   2.722
21147W        W80584  14.805  41.907   0.763
21148W        W80585  31.560  19.567  14.969
21149W        W80586  29.659  35.090   5.266
21150W        W80587   9.795  30.464   4.664
21151W        W80588  34.023  21.682   0.373
21152W        W80589  43.408  22.725   2.311
21153W        W80590   4.288   6.727  10.617
21154W        W80591  32.537  13.743   3.866
21155W        W80592  39.550  24.141   0.437
21156W        W80593  37.528   1.966   2.287
21157W        W80594  24.036  44.857  13.034
21158W        W80595  24.521  40.966   2.228
21159W        W80596  20.205  38.049   1.336
21160W        W80597  44.805  33.098  11.376
21161W        W80598  16.787  44.920   4.308
21162W        W80599  29.042  16.675   4.761
21163W        W80600  30.536  24.149  10.539
21164W        W80601  31.495  41.341  11.005
21165W        W80602  24.118  30.067  10.566
21166W        W80603  14.119  30.488  10.627
21167W        W80604  27.115  17.802   3.190
21168W        W80605  13.159  25.998   0.301
21169W        W80606  12.821  19.673  14.979
21170W        W80607  36.007  10.345  10.420
21171W        W80608  28.606  26.036  11.981
21172W        W80609  10.234  16.578   1.427
21173W        W80610  40.050  30.525   4.241
21174W        W80611  30.929  28.044  14.297
21175W        W80612  43.391  35.433  13.927
21176W        W80613  14.224   6.244   2.404
21177W        W80614  27.563   3.314  11.936
21178W        W80615  13.663   9.315  14.400
21179W        W80616  18.132  39.941   3.233
21180W        W80617   3.445   7.302  13.927
21181W        W80618   2.788  21.142   0.370
21182W        W80619  24.082  20.037  12.515
21183W        W80620   1.307  21.561   4.685
21184W        W80621  36.895  22.511   2.331
21185W        W80622  29.454  36.927   2.208
21186W        W80623  12.199  15.814   3.364
21187W        W80624  40.422  25.168  14.287
21188W        W80625  16.098  12.201  13.393
21189W        W80626   6.401   1.852   1.409
21190W        W80627  17.262  37.974  11.880
21191W        W80628  22.242   5.282  13.477
21192W        W80629  33.487   8.298   2.820
21193W        W80630  22.039   8.694  12.909
21194W        W80631  42.952   9.844  12.562
21195W        W80632   0.398   6.745  10.950
21196W        W80633   1.365  11.311   5.218
21197W        W80634  17.150  19.156   4.137
21198W        W80635  20.048  31.150   2.378
21199W        W80636  43.422  16.290   1.919
21200W        W80637  18.645   2.895   3.815
21201W        W80638  27.124  28.443   4.631
21202W        W80639  19.126  23.071  14.513
21203W        W80640  17.713   2.300   3.657
21204W        W80641  23.061  15.740   2.240
21205W        W80642  33.942  35.901  11.590
21206W        W80643  41.792  28.519  13.426
21207W        W80644  21.605  38.546  12.463
21208W        W80645  38.345  29.434  12.071
21209W        W80646  12.348  21.623  12.915
21210W        W80647  43.480   5.431  12.008
21211W        W80648  29.126  39.055   4.189
21212W        W80649  42.294  12.839   4.775
21213W        W80650  33.120   7.358  14.897
21214W        W80651  39.448  28.578   1.234
21215W        W80652   9.687  22.547  13.508
21216W        W80653   9.269  25.112   9.641
21217W        W80654   9.349   2.263   3.150
21218W        W80655  44.778   6.730   3.348
21219W        W80656   5.861  37.554   3.853
21220W        W80657   0.792   4.909   9.999
21221W        W80658  14.630   1.865   3.154
21222W        W80659   7.393  10.700   2.780
21223W        W80660  44.926  13.302   0.727
21224W        W80661  44.955  20.131   2.367
21225W        W80662  11.168   0.392   3.341
21226W        W80663  29.482  36.028  14.343
21227W        W80664  17.783   4.288   2.665
21228W        W80665  31.094  14.704  14.887
21229W        W80666   1.402  20.181  10.888
21230W        W80667  41.801  41.809  10.953
21231W        W80668   3.798  17.157   1.394
21232W        W80669   2.284  29.119  12.087
21233W        W80670  22.694  14.703  11.447
21234W        W80671  33.888  24.703   0.470
21235W        W80672  33.015  16.314  11.049
21236W        W80673  16.698   3.296  13.858
21237W        W80674  41.445   6.687   0.290
21238W        W80675  32.970  35.511  11.039
21239W        W80676  27.182   6.260   9.927
21240W        W80677  35.503  21.631  11.982
21241W        W80678  44.757  31.026   3.355
21242W        W80679  36.497  32.141  11.982
21243W        W80680  14.595  39.864  11.385
21244W        W80681   2.358  22.703  11.434
21245W        W80682  26.684   0.356   4.239
21246W        W80683  24.639  36.523  10.074
21247W        W80684  41.858  31.402   2.797
21248W        W80685  14.777  27.959   0.910
21249W        W80686  11.291  40.318   0.247
21250W        W80687  42.517   8.288   1.738
21251W        W80688  12.631  38.922   3.807
21252W        W80689  44.374  11.720   0.908
21253W        W80690  34.973   6.234   0.903
21254W        W80691  23.489  36.050  11.562
21255W        W80692  13.199  42.889   1.822
21256W        W80693  35.874  15.590   2.277
21257W        W80694  35.003   7.896   1.787
21258W        W80695  12.756  10.709  14.384
21259W        W80696  30.048  34.918  13.043
21260W        W80697  25.668  31.458  11.506
21261W        W80698  11.843  29.516  11.484
21262W        W80699  10.680  10.317  10.956
21263W        W80700  24.139  21.730   1.776
21264W        W80701   9.710  19.574   1.263
21265W        W80702  18.671  11.733   0.286
21266W        W80703  11.767  44.429   1.449
21267W        W80704  19.717  43.371  10.591
21268W        W80705  19.087  14.621   4.287
21269W        W80706  22.566   1.483  13.980
21270W        W80707   5.724  35.478   4.200
21271W        W80708  11.626  26.159  11.406
21272W        W80709  26.556  10.214  10.582
21273W        W80710   1.781  31.151   2.763
21274W        W80711  25.558  39.498  12.363
21275W        W80712  36.856   6.330   2.727
21276W        W80713  22.702  23.154  12.351
21277W        W80714  41.425  11.735  14.823
21278W        W80715  27.042  34.471   0.387
21279W        W80716  33.462  26.498   1.857
21280W        W80717  37.419  28.564  14.291
21281W        W80718  20.175  42.012  10.953
21282W        W80719  18.057  16.711  14.784
21283W        W80720   0.461  17.801   4.283
21284W        W80721  40.458  18.701   2.862
21285W        W80722   6.745  31.899   3.338
21286W        W80723   3.423  23.517   1.447
21287W        W80724   6.811  16.683  14.031
21288W        W80725  16.673  31.573   3.721
21289W        W80726  29.425  22.599  12.506
21290W        W80727   1.910  22.010   0.382
21291W        W80728  34.937   2.804  14.943
21292W        W80729  42.395  12.748  13.391
21293W        W80730   2.940  14.771   0.458
21294W        W80731  43.353  13.230  14.900
21295W        W80732  13.649  24.657  11.552
21296W        W80733   5.732  26.046  14.402
21297W        W80734  12.352  36.059  13.908
21298W        W80735  15.808  31.064   2.662
21299W        W80736  26.463  32.118  12.467
21300W        W80737  20.092  24.588   4.253
21301W        W80738  29.644  23.019   0.366
21302W        W80739  40.318  29.064   2.210
21303W        W80740  14.125  15.615  11.435
21304W        W80741  27.587  38.515   2.245
21305W        W80742  20.543  25.694   4.735
21306W        W80743  29.435  26.116  11.927
21307W        W80744  16.205  16.300   9.614
21308W        W80745   5.856  20.548   4.336
21309W        W80746   3.796  39.331   1.348
21310W        W80747   5.795  40.846  12.094
21311W        W80748  12.272  20.123  14.379
21312W        W80749  44.404   8.394  13.854
21313W        W80750  43.832  19.716   0.802
21314W        W80751  43.787  16.107  11.518
21315W        W80752  13.202   2.255   4.644
21316W        W80753  30.524  15.650   0.367
21317W        W80754  32.085   9.730   0.786
21318W        W80755  38.485  32.035   0.814
21319W        W80756   3.333  11.635  12.924
21320W        W80757  37.830   0.938  14.300
21321W        W80758   7.206  11.156   3.652
21322W        W80759  32.444  36.505  11.458
21323W        W80760  34.460  15.635   3.832
21324W        W80761  25.493   8.293  14.998
21325W        W80762  40.420  12.768   3.853
21326W        W80763  15.703  11.686  14.314
21327W        W80764  24.509  14.225   1.398
21328W        W80765   9.692  20.633   3.179
21329W        W80766   3.286  18.280   0.276
21330W        W80767  30.061  15.821  11.612
21331W        W80768  42.836  13.251   1.902
21332W        W80769  18.578  33.031   2.181
21333W        W80770  29.049   4.431   3.730
21334W        W80771  26.011  25.177   3.680
21335W        W80772   0.484   6.220   2.306
21336W        W80773  24.579   3.824   4.166
21337W        W80774  34.516  40.009   3.385
21338W        W80775  18.149  30.586   2.747
21339W        W80776  38.551  20.659  13.538
21340W        W80777  32.560   6.743   0.832
21341W        W80778  44.455  38.542   1.315
21342W        W80779   3.438  19.066  12.086
21343W        W80780   4.323  40.026   2.806
21344W        W80781  24.504  37.994   3.306
21345W        W80782  15.171  17.270  14.014
21346W        W80783   0.419  13.664  10.480
21347W        W80784  18.747  29.016  11.528
21348W        W80785   3.236  43.485  11.557
21349W        W80786  42.498  23.569  10.520
21350W        W80787  14.828  12.843   4.792
21351W        W80788  26.595  17.649   0.276
21352W        W80789  29.093  10.370  11.868
21353W        W80790  42.388  13.693  13.959
21354W        W80791  27.196   5.408  10.448
21355W        W80792  22.616   0.889  11.053
21356W        W80793   4.864   4.718  11.094
21357W        W80794  43.841  43.450  11.951
21358W        W80795   8.894   9.235   5.161
21359W        W80796  19.047  17.128   3.805
21360W        W80797  26.548  26.030  11.435
21361W        W80798  41.450  16.094   0.475
21362W        W80799  16.190   8.833   3.212
21363W        W80800  25.520  41.001  11.922
21364W        W80801   9.300  26.144   4.127
21365W        W80802  31.047  24.178   9.970
21366W        W80803  26.079  20.192   3.824
21367W        W80804  41.026  23.087  12.443
21368W        W80805  23.625  29.010  12.578
21369W        W80806  28.089  10.215  13.844
21370W        W80807   7.839  11.721   3.164
21371W        W80808  43.307  15.175   3.367
21372W        W80809   4.296  43.474  10.470
21373W        W80810  16.759  14.657  11.543
21374W        W80811  44.497  31.996   1.396
21375W        W80812   3.269  43.018   5.261
21376W        W80813   6.268   6.865   4.134
21377W        W80814  35.585  17.599  11.559
21378W        W80815  38.993  20.087  14.944
21379W        W80816  22.222  24.143  14.477
21380W        W80817  25.630  42.845  11.002
21381W        W80818  21.568  11.214  10.471
21382W        W80819   7.197  36.355   3.211
21383W        W80820  40.890  18.241   3.691
21384W        W80821  20.134  44.813  12.946
21385W        W80822  10.353  23.566  13.985
21386W        W80823  29.509  20.188   2.710
21387W        W80824  17.137   0.408   2.228
21388W        W80825  24.538  13.115   2.262
21389W        W80826  32.104   9.750   0.302
21390W        W80827  28.465  44.939  13.882
21391W        W80828  33.405  10.353  10.444
21392W        W80829   5.366  18.698  11.969
21393W        W80830  17.658  31.520   3.240
21394W        W80831   7.290   8.186   2.309
21395W        W80832   1.848  24.723  10.092
21396W        W80833  37.533  14.614  14.301
21397W        W80834   7.799  34.993   4.209
21398W        W80835  29.520  15.596  14.320
21399W        W80836  17.768  28.583   1.867
21400W        W80837  44.275   5.700   2.724
21401W        W80838   9.363  26.098  14.474
21402W        W80839  25.184  27.685  12.938
21403W        W80840   1.806  23.588   0.826
21404W        W80841  36.575  28.435  11.611
21405W        W80842  16.266   6.234   0.916
21406W        W80843   9.792  29.091  10.594
21407W        W80844  29.037  13.804   2.819
21408W        W80845  39.999   9.664   3.859
21409W        W80846  24.055  28.467  13.980
21410W        W80847  35.458  24.563   2.726
21411W        W80848   4.384  25.020  10.617
21412W        W80849  19.688  17.578   2.828
21413W        W80850  42.436  20.563   4.727
21414W        W80851  14.166  33.081  14.894
21415W        W80852  25.468  44.848  10.572
21416W        W80853  27.624  16.313  13.443
21417W        W80854   3.363  18.599  12.952
21418W        W80855  17.090  36.409  12.035
21419W        W80856  15.146   6.393   1.707
21420W        W80857  39.450  25.692  10.925
21421W        W80858  34.984   5.905   2.197
21422W        W80859   9.171   7.243  13.435
21423W        W80860  40.316  13.607   2.803
21424W        W80861  36.889  12.141  14.001
21425W        W80862  17.254  44.923  11.916
21426W        W80863   4.747   4.798  13.967
21427W        W80864  11.147  27.691   1.314
21428W        W80865  37.557  34.380  12.883
21429W        W80866  34.984  18.755  13.474
21430W        W80867  13.143  30.451  14.894
21431W        W80868   2.453  30.021   3.218
21432W        W80869  32.573  29.086  12.518
21433W        W80870  24.507  44.301   3.669
21434W        W80871  16.776   7.853  10.543
21435W        W80872   1.831  40.374  10.965
21436W        W80873  40.321  15.764   2.252
21437W        W80874  39.836  27.561  14.280
21438W        W80875  29.140   8.692  13.856
21439W        W80876   3.803  11.749   0.316
21440W        W80877  28.576  30.606  13.541
21441W        W80878  13.651  17.236  14.812
21442W        W80879   5.821  40.306   2.331
21443W        W80880  23.140   0.830  14.417
21444W        W80881  26.202  19.617  10.604
21445W        W80882  43.890   2.914   0.770
21446W        W80883   6.799  17.284  11.946
21447W        W80884  44.418  16.594  12.417
21448W        W80885  32.984  12.796   4.678
21449W        W80886  10.723  30.045  13.308
21450W        W80887  16.687  39.833   0.922
21451W        W80888   5.771  14.140  11.918
21452W        W80889  44.458  20.092   1.922
21453W        W80890  16.615  22.585   3.323
21454W        W80891  24.683  11.242  13.043
21455W        W80892   9.790  31.590   0.348
21456W        W80893   7.371   2.915  14.280
21457W        W80894  40.857  10.813   0.328
21458W        W80895  27.047  40.324   0.738
21459W        W80896  21.728  26.525   0.789
21460W        W80897  41.529   7.345  14.302
21461W        W80898  28.645  11.724  12.893
21462W        W80899  22.738  14.825   1.917
21463W        W80900  11.667   0.878   1.904
21464W        W80901  22.714  43.320   3.294
21465W        W80902  25.542  14.306  10.916
21466W        W80903  29.995   1.440   2.220
21467W        W80904  24.113   9.341   0.476
21468W        W80905  38.921  22.721   1.891
21469W        W80906  17.203  31.628   1.818
21470W        W80907  15.289  28.514  13.983
21471W        W80908   7.674  29.154   3.641
21472W        W80909  22.606  29.141  14.511
21473W        W80910   1.937  17.743   3.707
21474W        W80911   7.402  42.775   3.371
21475W        W80912  24.576   0.953  14.355
21476W        W80913  30.559  26.656   1.718
21477W        W80914  15.088  13.813   2.664
21478W        W80915  19.230   5.328   4.244
21479W        W80916  18.765  31.920  14.892
21480W        W80917  20.582  39.928   5.094
21481W        W80918  12.359  38.058   0.479
21482W        W80919  15.303  21.151   4.812
21483W        W80920   9.748  43.509   1.709
21484W        W80921  42.488  18.211  10.631
21485W        W80922  26.573  10.788   1.824
21486W        W80923   4.375   9.696   1.883
21487W        W80924  32.546   1.881  11.877
21488W        W80925   2.448   0.949   3.263
21489W        W80926  23.628  43.278   4.182
21490W        W80927  43.394  14.704   1.804
21491W        W80928   2.287   5.386   1.780
21492W        W80929   0.425  15.652  13.979
21493W        W80930  37.408   7.218   0.805
21494W        W80931  24.140   2.292  12.905
21495W        W80932  42.333  11.308   0.729
21496W        W80933  37.563  19.604   4.333
21497W        W80934  43.933  24.043  13.861
21498W        W80935   0.746  19.683   4.345
21499W        W80936  28.026  32.091   5.190
21500W        W80937  14.232  17.784  13.003
21501W        W80938  29.494   3.913   3.259
21502W        W80939  33.913  25.118   4.291
21503W        W80940   2.830  10.152  13.983
21504W        W80941  33.509   2.342  11.879
21505W        W80942  11.281  13.761   4.699
21506W        W80943  20.239  33.512  12.564
21507W        W80944  30.112  20.657   0.943
21508W        W80945  35.368  30.630  14.398
21509W        W80946   3.401  30.078  14.954
21510W        W80947  24.089  43.887  14.458
21511W        W80948  34.910  19.124   2.785
21512W        W80949  21.237   5.234   1.893
21513W        W80950  12.256  40.989  13.806
21514W        W80951  36.049  38.562   4.739
21515W        W80952  30.099  30.061  11.928
21516W        W80953  30.162   1.916   3.727
21517W        W80954  28.177  41.361   0.338
21518W        W80955   4.383  12.656  10.609
21519W        W80956  19.275  44.265   2.823
21520W        W80957  36.910  30.425  14.320
21521W        W80958  12.682  32.028  14.366
21522W        W80959   0.270   5.872  14.847
21523W        W80960   8.711  20.066  11.382
21524W        W80961  29.502  35.935   2.713
21525W        W80962   1.772  35.506   3.309
21526W        W80963  14.677   4.211   2.336
21527W        W80964  16.581  29.461  10.945
21528W        W80965  38.325  12.284  13.531
21529W        W80966   6.383  38.943   4.322
21530W        W80967  24.674  18.635  14.473
21531W        W80968  19.060   2.823   1.826
21532W        W80969  40.490   7.178  12.494
21533W        W80970  30.146  42.994   3.172
21534W        W80971  28.606  34.409  13.947
21535W        W80972  25.037  34.438   0.435
21536W        W80973  10.361  15.734   5.233
21537W        W80974  23.194  21.092   5.695
21538W        W80975  24.614   1.837   2.665
21539W        W80976  21.094   7.352   4.835
21540W        W80977  15.143  40.353   3.205
21541W        W80978   9.684   6.896  11.969
21542W        W80979  10.312   9.825   3.372
21543W        W80980  22.038  24.647   0.868
21544W        W80981   4.798  19.244  12.365
21545W        W80982   4.223  14.820   4.797
21546W        W80983   9.646  28.963  12.348
21547W        W80984  37.368  31.616  12.877
21548W        W80985  30.972  12.255  14.778
21549W        W80986  25.136  21.122  14.513
21550W        W80987  37.448  19.705   0.901
21551W        W80988  13.652  35.045  11.530
21552W        W80989  33.952  26.633   1.354
21553W        W80990  39.464  11.138   4.806
21554W        W80991  21.698  13.141  12.045
21555W        W80992  20.648  16.713  13.522
21556W        W80993  19.205  26.544   2.214
21557W        W80994   2.900  42.456  14.497
21558W        W80995  41.500   3.241   1.219
21559W        W80996  15.586  39.991  12.087
21560W        W80997  20.097  43.313  12.939
21561W        W80998  27.137   5.776   1.221
21562W        W80999  21.741  17.112   4.658
21563W        W81000   0.260  21.748   4.287
21564W        W81001  33.885  34.094   1.416
21565W        W81002  31.058   7.179  11.570
21566W        W81003  29.970   0.274  11.894
21567W        W81004   1.816  25.190   1.292
21568W        W81005   9.296   2.874   1.746
21569W        W81006  15.185  10.718   4.329
21570W        W81007  18.664   9.379   3.339
21571W        W81008  32.469  44.413   3.755
21572W        W81009  44.776  12.855   2.217
21573W        W81010  24.090  20.750   2.381
21574W        W81011  13.706  10.166   1.429
21575W        W81012  11.212  13.224   1.416
21576W        W81013  24.212  15.789  14.450
21577W        W81014   3.748   8.701   1.442
21578W        W81015  11.660  38.971  10.017
21579W        W81016  10.156  14.744  12.393
21580W        W81017  40.928  17.593   4.130
21581W        W81018  30.026  42.371  14.416
21582W        W81019  34.066   3.409   5.097
21583W        W81020  20.687  35.562   1.821
21584W        W81021  11.730  43.924  13.510
21585W        W81022  38.875   3.353   3.361
21586W        W81023   5.919  36.067   3.766
21587W        W81024  37.457  39.435   2.761
21588W        W81025  13.291  33.391   2.371
21589W        W81026  22.132  15.742   2.746
21590W        W81027   5.773  39.971  10.525
21591W        W81028   2.392  16.248   1.213
21592W        W81029  28.093  42.516   4.780
21593W        W81030  30.454  36.098  10.584
21594W        W81031  39.438  20.137  14.408
21595W        W81032  29.593  13.304   4.825
21596W        W81033  34.056  34.410   2.755
21597W        W81034   0.749   4.209   3.205
21598W        W81035  43.278  40.834  14.445
21599W        W81036  29.466   3.301   4.329
21600W        W81037  23.112  24.990  11.439
21601W        W81038  41.532  27.676   1.893
21602W        W81039   2.835   2.914   4.301
21603W        W81040   1.953   1.413   3.183
21604W        W81041   6.359  19.659   4.775
21605W        W81042  11.806  10.779  10.032
21606W        W81043   8.182   5.767  10.995
21607W        W81044  25.075  44.934   1.339
21608W        W81045  29.642  11.141  10.449
21609W        W81046  12.639  11.674   4.293
21610W        W81047  32.125  14.282   0.357
21611W        W81048  43.995  30.431  11.956
21612W        W81049   5.907   5.418  11.108
21613W        W81050   2.924  18.695  10.506
21614W        W81051  39.466  22.205   3.328
21615W        W81052  26.072  14.334   3.843
21616W        W81053  43.905  24.643  11.059
21617W        W81054  41.878  44.934   3.307
21618W        W81055  21.058  14.169   2.793
21619W        W81056  31.471  28.127   1.820
21620W        W81057   9.325   0.772  11.399
21621W        W81058  44.935   6.410  12.870
21622W        W81059  25.099   9.816   0.343
21623W        W81060  33.914  10.189  13.837
21624W        W81061  40.487  41.845  14.817
21625W        W81062  36.359  10.307   2.823
21626W        W81063  18.626  42.525   4.220
21627W        W81064  11.647  20.168   1.746
21628W        W81065   2.291  15.202  12.881
21629W        W81066  29.638  39.938   4.317
21630W        W81067  12.817  27.478   2.402
21631W        W81068  22.159  16.632  11.888
21632W        W81069   2.799   4.317   4.141
21633W        W81070  20.117  26.074   3.203
21634W        W81071   9.241   0.464  14.833
21635W        W81072  26.520   4.938   4.609
21636W        W81073  30.590  39.050  13.486
21637W        W81074   1.428  21.550   0.253
21638W        W81075   7.317  36.462   0.438
21639W        W81076  26.680  43.282   1.794
21640W        W81077  13.188  15.184   1.322
21641W        W81078  26.693  39.911   2.217
21642W        W81079  29.603  42.456  13.926
21643W        W81080  36.500   6.911   3.682
21644W        W81081  20.213  40.887  11.876
21645W        W81082  28.464   9.801   4.317
21646W        W81083   9.827  28.079  12.865
21647W        W81084  29.168  24.994  10.471
21648W        W81085  34.038  19.207  11.886
21649W        W81086   9.237  43.979   2.274
21650W        W81087  44.320  28.661   1.264
21651W        W81088  17.089  33.491   2.816
21652W        W81089  22.546  33.402   4.237
21653W        W81090  11.775  16.775   0.853
21654W        W81091  15.631  27.990   4.751
21655W        W81092   4.824  13.113  14.780
21656W        W81093  11.631  23.024   0.738
21657W        W81094  23.159  25.206  14.013
21658W        W81095  30.001   9.842  12.448
21659W        W81096   4.884  37.345   1.712
21660W        W81097  14.631  42.395   2.339
21661W        W81098   0.404   0.306   3.185
21662W        W81099   7.316  28.504  13.957
21663W        W81100  44.495  27.164   4.738
21664W        W81101  10.330  10.278  11.064
21665W        W81102  15.132  34.950   0.950
21666W        W81103  30.981   1.973  10.098
21667W        W81104  16.794  40.524  11.490
21668W        W81105  37.831  20.232   3.827
21669W        W81106  14.757  36.011   3.672
21670W        W81107  43.824   0.784  10.982
21671W        W81108   2.410  20.641   3.363
21672W        W81109  10.843  13.655   4.137
21673W        W81110  40.308   7.382   0.447
21674W        W81111   8.848  10.268   4.226
21675W        W81112  26.162  18.766  13.426
21676W        W81113  26.112  24.988  11.592
21677W        W81114   4.821  35.404   1.406
21678W        W81115  24.654  13.156  11.036
21679W        W81116   6.846  24.166  14.801
21680W        W81117  28.990  13.316   1.329
21681W        W81118  43.469  31.956  12.429
21682W        W81119  23.049   3.913   1.225
21683W        W81120   5.256   6.921   1.699
21684W        W81121  16.708  40.377   3.331
21685W        W81122   1.374  33.400  12.923
21686W        W81123  18.054  22.664   4.725
21687W        W81124  35.516   0.464  12.454
21688W        W81125   5.336   6.792  13.945
21689W        W81126  33.008  27.094  13.901
21690W        W81127  40.438  27.194   0.273
21691W        W81128  17.212  31.641  13.878
21692W        W81129  26.124  32.074  13.373
21693W        W81130   4.763  22.015  12.919
21694W        W81131  44.350   1.858   4.679
21695W        W81132  41.436  40.434   4.664
21696W        W81133  19.244  44.841  13.816
21697W        W81134  19.554   0.956  11.607
21698W        W81135   9.856  10.217  14.933
21699W        W81136  31.626  32.529   2.875
21700W        W81137  16.083   3.224  10.439
21701W        W81138   0.831  38.009   4.198
21702W        W81139   5.433  37.518   5.098
21703W        W81140   7.283   5.250  11.383
21704W        W81141  14.716  43.802   1.824
21705W        W81142   2.383  42.452   3.146
21706W        W81143  22.097  27.450  14.383
21707W        W81144  25.194   1.357   4.241
21708W        W81145  31.126  22.192  10.047
21709W        W81146  34.875   3.405  10.548
21710W        W81147  25.084  35.926   2.690
21711W        W81148  35.003  11.180   2.202
21712W        W81149  20.696  36.906   3.157
21713W        W81150  25.649  34.065   3.685
21714W        W81151  19.652  23.732  12.015
21715W        W81152  11.154  11.811   1.383
21716W        W81153  44.003   8.204   3.266
21717W        W81154  31.113  41.314  13.820
21718W        W81155  42.347  14.766  12.402
21719W        W81156  10.695  14.189   4.255
21720W        W81157  33.927   3.333   2.664
21721W        W81158   3.727  16.763   4.319
21722W        W81159  14.153  36.483  13.511
21723W        W81160  26.973   3.321  11.859
21724W        W81161  21.711  12.833  13.408
21725W        W81162  23.048  34.002  10.635
21726W        W81163  11.303  22.647  11.971
21727W        W81164  39.322  29.530  14.309
21728W        W81165   1.841  13.646   2.848
21729W        W81166  43.867  22.704  13.964
21730W        W81167  33.625  34.369  13.519
21731W        W81168  22.614   9.268   0.287
21732W        W81169  16.654  38.331  12.032
21733W        W81170   2.733   3.345  10.611
21734W        W81171   1.297  23.541  10.551
21735W        W81172   5.785   2.937   2.358
21736W        W81173   2.320   4.397  12.849
21737W        W81174  21.562  25.637   1.807
21738W        W81175  25.669  42.949   4.280
21739W        W81176  28.114  33.101  10.153
21740W        W81177  37.004  39.889   2.831
21741W        W81178   0.974  25.136  13.964
21742W        W81179  44.260  36.453   1.251
21743W        W81180   1.272  16.078  12.387
21744W        W81181  42.463  35.559   9.437
21745W        W81182  28.499  12.137  11.494
21746W        W81183  21.622  24.125  13.409
21747W        W81184   3.403  24.146  11.410
21748W        W81185  14.286  36.490   3.186
21749W        W81186  36.391  33.553   2.194
21750W        W81187  24.638  25.065   3.636
21751W        W81188  26.607  42.442   0.740
21752W        W81189   5.299  24.553  10.470
21753W        W81190  20.259  18.738   4.169
21754W        W81191  19.615  21.201   9.641
21755W        W81192  34.869  43.275   1.713
21756W        W81193   4.733   9.854   2.273
21757W        W81194  27.002  26.572  13.487
21758W        W81195  10.683   3.836   0.790
21759W        W81196  26.471  31.067   4.231
21760W        W81197  13.222  13.709   4.218
21761W        W81198  14.147  35.400  12.491
21762W        W81199  12.807   9.825  12.398
21763W        W81200  13.661   7.826  11.007
21764W        W81201  16.678  34.865  13.063
21765W        W81202  39.893  14.277  13.058
21766W        W81203   6.363  31.414  14.932
21767W        W81204  16.567  18.218   3.671
21768W        W81205  38.853  41.442  11.590
21769W        W81206  42.309  35.917  11.074
21770W        W81207  19.726  17.081  10.456
21771W        W81208  23.645  41.451  14.874
21772W        W81209  32.564  32.940  12.409
21773W        W81210  27.629  44.862   4.816
21774W        W81211   4.911  32.549   4.161
21775W        W81212  32.403  18.590  11.008
21776W        W81213   3.241  31.417  12.866
21777W        W81214   8.846  32.488  12.033
21778W        W81215  40.342  26.199  13.392
21779W        W81216  28.172  35.478  12.004
21780W        W81217  35.090   4.384  10.534
21781W        W81218   1.741   4.262  13.819
21782W        W81219  44.426  25.974   4.131
21783W        W81220   8.710   8.661   3.180
21784W        W81221  44.434  39.529   3.748
21785W        W81222  11.269  10.700  12.037
21786W        W81223  10.153  15.280   3.822
21787W        W81224  16.741   0.779   3.196
21788W        W81225  15.817   6.191   4.270
21789W        W81226  42.325   1.958  11.879
21790W        W81227  40.821  21.614   4.327
21791W        W81228  40.422  15.749  14.026
21792W        W81229  12.295   7.671  14.326
21793W        W81230   3.235  30.145   3.843
21794W        W81231   0.793   5.764  14.834
21795W        W81232  31.112  35.037  10.639
21796W        W81233   7.693  15.746   1.769
21797W        W81234  36.040  11.625   0.436
21798W        W81235   4.904  24.541   5.209
21799W        W81236   5.799  29.955   4.620
21800W        W81237  37.849  41.933   0.851
21801W        W81238  36.976  27.460   1.274
21802W        W81239   7.172  17.225  13.988
21803W        W81240   9.301  40.807   3.690
21804W        W81241  16.294   1.370   0.260
21805W        W81242  26.068  44.852   1.319
21806W        W81243   0.296   5.700   2.868
21807W        W81244  25.212  18.791  10.986
21808W        W81245  10.827  19.565   2.872
21809W        W81246  10.254  20.590  12.065
21810W        W81247   2.230  35.526  12.853
21811W        W81248  14.693  34.420   3.181
21812W        W81249  21.104  12.216  14.964
21813W        W81250  19.607   9.217  14.323
21814W        W81251  24.143  26.090  13.821
21815W        W81252  11.345  23.050  14.476
21816W        W81253  42.303   3.226  11.880
21817W        W81254  37.848  16.228  13.465
21818W        W81255  15.323  38.996   1.346
21819W        W81256  39.443  35.498   2.289
21820W        W81257  31.570  23.146  13.997
21821W        W81258  15.633  19.555   0.823
21822W        W81259  28.100  22.568  14.509
21823W        W81260   7.230  12.851   3.805
21824W        W81261  37.913  35.037   4.833
21825W        W81262  29.437  33.499  14.838
21826W        W81263  27.197  24.165  10.057
21827W        W81264   9.772  32.033   3.800
21828W        W81265   0.288  26.530  10.975
21829W        W81266  21.572   8.372  11.435
21830W        W81267  12.741  18.059  11.926
21831W        W81268  42.985  44.449  13.512
21832W        W81269  41.508   6.311  10.485
21833W        W81270  29.076  38.479  14.455
21834W        W81271  22.665  17.590  12.932
21835W        W81272   7.345  43.427   3.793
21836W        W81273  39.901  15.257  10.597
21837W        W81274  44.386  12.255   4.646
21838W        W81275  26.194  14.216   1.748
21839W        W81276  17.307   4.220   0.917
21840W        W81277  23.695   1.788  12.012
21841W        W81278  13.149  34.043  10.571
21842W        W81279  38.951  30.438  14.809
21843W        W81280  34.556  22.552   1.864
21844W        W81281   4.311  19.767  10.975
21845W        W81282  40.406  33.513  14.905
21846W        W81283  13.230  41.948   0.957
21847W        W81284  19.601   6.205   1.389
21848W        W81285  34.900   2.273   3.711
21849W        W81286  30.944  12.353   1.384
21850W        W81287  28.481  39.041   3.232
21851W        W81288  19.767  14.097  11.501
21852W        W81289   2.284  12.208  12.538
21853W        W81290  25.607  40.859   1.826
21854W        W81291  41.340   5.287   4.277
21855W        W81292  16.795  15.692   2.207
21856W        W81293   8.351  10.368   0.859
21857W        W81294  13.249  15.178   2.757
21858W        W81295  30.514  26.681  12.025
21859W        W81296  26.638  31.415   0.375
21860W        W81297  15.177  42.795   0.829
21861W        W81298  31.905  11.803   2.759
21862W        W81299  20.208   3.807  12.005
21863W        W81300  33.473  44.485   3.749
21864W        W81301   2.950   1.302   0.449
21865W        W81302  40.933  33.578   1.414
21866W        W81303  44.859  21.237  14.008
21867W        W81304   6.336  32.492  11.974
21868W        W81305  26.091  35.855  13.956
21869W        W81306  10.771  10.154  11.556
21870W        W81307  25.115  10.348  12.078
21871W        W81308   1.304  18.663   2.264
21872W        W81309  18.241  15.106   3.319
21873W        W81310  34.941  31.003  10.412
21874W        W81311  39.854  37.842  13.873
21875W        W81312  40.387  31.037   1.836
21876W        W81313  25.088   3.879  12.476
21877W        W81314  27.022  27.595   3.812
21878W        W81315  30.458  29.996   1.816
21879W        W81316   7.897  21.048  11.961
21880W        W81317   0.981  38.350   2.885
21881W        W81318  11.746   2.408   3.826
21882W        W81319  14.156  38.569  13.852
21883W        W81320  37.450   5.929   3.776
21884W        W81321  43.797  42.310   3.206
21885W        W81322  43.495  24.194  14.758
21886W        W81323  30.617   1.874  12.991
21887W        W81324  44.010  13.235   9.663
21888W        W81325   7.408  13.178  13.417
21889W        W81326  11.183  23.543   3.334
21890W        W81327  13.241  27.525   3.216
21891W        W81328  44.891  30.582   3.263
21892W        W81329  36.574  22.099   3.296
21893W        W81330  27.661  24.682  12.069
21894W        W81331  12.830  35.108   4.772
21895W        W81332  30.622  27.152   3.297
21896W        W81333  40.016   1.328  12.494
21897W        W81334  13.804  20.160  14.021
21898W        W81335   9.249  21.575   1.439
21899W        W81336  21.661   9.693  12.994
21900W        W81337  36.388  25.071   2.673
21901W        W81338  17.095  37.401   2.815
21902W        W81339  18.734  40.426  12.082
21903W        W81340   5.389   9.259   0.332
21904W        W81341  40.306  14.136  14.457
21905W        W81342  24.154  16.748  12.551
21906W        W81343   3.458  39.969   4.660
21907W        W81344  15.821   5.887  12.939
21908W        W81345  44.861  29.529   0.314
21909W        W81346  21.153  32.037  11.415
21910W        W81347  43.281  37.388   2.179
21911W        W81348  39.841  40.874   1.218
21912W        W81349  36.920  13.258  12.950
21913W        W81350  32.603  30.491   4.747
21914W        W81351  17.720  17.581   3.245
21915W        W81352  19.699  18.271   2.183
21916W        W81353  13.294   0.462   2.374
21917W        W81354   2.254  31.468  14.362
21918W        W81355   4.436   6.744   3.654
21919W        W81356  23.501  11.303   0.256
21920W        W81357  32.893  37.549   5.273
21921W        W81358  34.570  39.989  12.005
21922W        W81359  29.588  34.921   1.839
21923W        W81360  30.615   2.927  12.981
21924W        W81361  13.771  32.057  13.904
21925W        W81362  42.833  30.148   4.628
21926W        W81363   1.760  18.178   3.675
21927W        W81364  32.031  28.641  13.477
21928W        W81365  17.117  29.082   2.728
21929W        W81366  44.478   6.220   3.720
21930W        W81367  29.446   8.708  13.992
21931W        W81368  12.770  21.529  13.362
21932W        W81369  44.844  16.623   4.330
21933W        W81370   0.377  25.658   3.769
21934W        W81371  21.687   4.763   4.793
21935W        W81372  27.658  40.516   2.896
21936W        W81373   0.912   4.407  14.001
21937W        W81374   8.732  44.260   2.884
21938W        W81375  10.699   9.269   0.389
21939W        W81376  40.485  42.526  12.079
21940W        W81377  22.624  23.559  11.536
21941W        W81378   1.938  43.355   4.140
21942W        W81379  26.176   0.863   1.286
21943W        W81380  32.593  32.412   4.251
21944W        W81381   3.872  38.076   4.699
21945W        W81382  10.862  18.115  13.310
21946W        W81383  31.973  39.413   0.385
21947W        W81384  37.032  20.220  10.605
21948W        W81385  10.376  36.985   1.253
21949W        W81386   8.676  13.123   0.357
21950W        W81387   1.853  27.954   4.316
21951W        W81388  26.156  14.721  11.883
21952W        W81389  23.494  37.415  14.398
21953W        W81390  17.728  37.997   4.828
21954W        W81391   2.435  23.728  13.991
21955W        W81392  32.418  19.574   1.717
21956W        W81393  38.564  26.650   3.250
21957W        W81394  23.602  23.640   5.572
21958W        W81395  42.917  37.975   1.818
21959W        W81396   6.339  21.522  13.894
21960W        W81397  40.968   2.357   0.404
21961W        W81398  23.580  42.817   1.904
21962W        W81399   2.787  17.765  10.895
21963W        W81400  27.086  42.934  11.043
21964W        W81401  28.674   0.941  10.961
21965W        W81402  31.608  30.085   2.795
21966W        W81403  23.086   8.677   2.796
21967W        W81404  36.924  37.485  14.295
21968W        W81405   0.425  11.795   1.299
21969W        W81406  13.726  21.590  14.870
21970W        W81407   0.373  26.588   4.332
21971W        W81408   8.736  40.022   1.301
21972W        W81409  22.550  29.646   1.366
21973W        W81410  44.305  17.062   1.415
21974W        W81411   7.174   4.219   3.847
21975W        W81412  19.229  39.506  12.011
21976W        W81413  20.697  21.520  11.610
21977W        W81414   1.802  32.136  10.513
21978W        W81415   5.816  20.199   1.318
21979W        W81416  36.462  35.881  12.486
21980W        W81417   1.804  14.751  10.947
21981W        W81418  23.049  37.569   4.185
21982W        W81419  43.312  19.251  10.443
21983W        W81420   9.795   4.784  11.549
21984W        W81421  15.675  25.062  13.538
21985W        W81422  20.731  38.881   2.851
21986W        W81423  22.006   0.973   0.778
21987W        W81424  30.635   0.973  11.443
21988W        W81425  13.602  24.716   3.807
21989W        W81426  10.639  28.102   0.823
21990W        W81427  40.971  13.336  14.938
21991W        W81428   3.738  12.315  12.031
21992W        W81429  26.460  33.578  12.037
21993W        W81430   4.918  21.081   0.772
21994W        W81431  42.289  35.480   0.391
21995W        W81432   9.313   0.303   0.279
21996W        W81433  21.220  40.330  11.903
21997W        W81434   5.194  17.158  12.903
21998W        W81435  13.331   0.437   1.322
21999W        W81436  42.495  39.963   1.926
22000W        W81437  39.360  17.138   4.311
22001W        W81438  22.661  19.632   4.139
22002W        W81439  22.608  21.029  12.969
22003W        W81440  25.120  15.801  12.562
22004W        W81441  38.862  13.846   4.131
22005W        W81442  35.947  37.512  12.370
22006W        W81443  20.715  27.115  10.622
22007W        W81444  11.668   5.255  14.023
22008W        W81445  43.931  34.523  13.915
22009W        W81446  40.965  42.518  14.841
22010W        W81447  33.445  38.362  14.971
22011W        W81448  15.647  43.455  12.880
22012W        W81449  28.171   7.203  13.936
22013W        W81450   9.283  22.686   1.338
22014W        W81451  28.604  36.407  14.385
22015W        W81452  29.007  16.655   0.745
22016W        W81453  21.697  27.169  11.122
22017W        W81454  38.484  17.648   4.696
22018W        W81455  25.103  43.366  10.114
22019W        W81456  28.980  43.017   1.437
22020W        W81457   2.848  29.093  12.476
22021W        W81458  15.226  33.997  13.914
22022W        W81459  42.457  11.145  12.480
22023W        W81460  44.903  34.906  12.536
22024W        W81461  44.324  43.342   0.896
22025W        W81462   6.352  34.887  13.311
22026W        W81463  24.074  38.992  12.340
22027W        W81464  42.317  29.109   3.165
22028W        W81465  17.700   2.297   1.774
22029W        W81466   9.852  15.276  12.368
22030W        W81467  40.508  37.438  10.552
22031W        W81468  23.998  44.393   3.365
22032W        W81469   0.256   8.814   4.349
22033W        W81470  11.307   0.860  14.797
22034W        W81471  39.384  25.556   3.699
22035W        W81472   0.967  28.062   3.743
22036W        W81473  39.938  23.500   1.706
22037W        W81474   9.709  25.483   3.380
22038W        W81475  31.963   1.887   2.870
22039W        W81476  29.036   4.828   2.328
22040W        W81477  30.430  35.485  13.854
22041W        W81478  44.311   0.775   4.607
22042W        W81479   6.357  35.532  12.432
22043W        W81480  40.977   6.279  14.996
22044W        W81481  38.483   2.826   1.790
22045W        W81482   8.221   8.296   1.294
22046W        W81483   6.759  16.651  14.822
22047W        W81484  14.707   6.408  13.060
22048W        W81485   4.766   7.304  14.380
22049W        W81486   9.782   5.793  10.627
22050W        W81487  30.496  24.702  10.996
22051W        W81488  36.533  11.367  13.420
22052W        W81489  35.945  16.647  10.890
22053W        W81490  34.385  40.307   1.698
22054W        W81491  12.801  44.369  12.062
22055W        W81492  39.022  42.822   4.688
22056W        W81493  16.725  13.199  13.995
22057W        W81494   5.793  44.261   0.464
22058W        W81495   7.234  27.518  10.971
22059W        W81496  32.445  24.667   1.814
22060W        W81497   6.792  42.974   1.893
22061W        W81498   9.189  25.088   2.862
22062W        W81499  12.621   7.816  12.094
22063W        W81500  30.093   3.355  14.971
22064W        W81501  34.051  20.767   0.887
22065W        W81502  22.574  10.271  12.844
22066W        W81503  22.609  36.869   4.735
22067W        W81504  36.449  18.116   3.780
22068W        W81505  39.879  16.114  12.575
22069W        W81506   1.417  29.089   4.174
22070W        W81507   0.781  27.975  14.994
22071W        W81508  17.632  33.592  11.440
22072W        W81509  31.584   4.899   3.852
22073W        W81510   4.762  38.911   2.371
22074W        W81511  30.601  18.209  14.951
22075W        W81512   5.313  21.567   4.693
22076W        W81513  20.576  10.188  10.067
22077W        W81514  20.613  26.649   2.792
22078W        W81515  24.143   4.413   4.632
22079W        W81516   2.726  33.127   1.715
22080W        W81517  19.671  24.077   4.273
22081W        W81518   0.972   9.677  12.905
22082W        W81519  21.700  43.826   0.244
22083W        W81520   4.394   1.362   2.419
22084W        W81521  39.828  43.512  11.612
22085W        W81522  16.302   7.863   2.233
22086W        W81523  41.967   6.870  10.979
22087W        W81524  24.711  21.147   1.728
22088W        W81525  39.365  42.461  13.410
22089W        W81526  13.265  39.531   1.726
22090W        W81527  44.858  32.124  11.964
22091W        W81528  40.500  40.999  13.041
22092W        W81529  16.637  10.374  12.012
22093W        W81530   6.844  37.485   1.788
22094W        W81531   4.400  41.507   2.884
22095W        W81532   5.846  23.633  12.345
22096W        W81533  29.112  15.095  10.564
22097W        W81534  35.487  37.033   3.337
22098W        W81535  24.625  41.861  10.422
22099W        W81536   6.208  30.500   2.339
22100W        W81537  32.990  35.930  13.459
22101W        W81538  22.669  39.532   2.736
22102W        W81539  13.650  35.027   0.331
22103W        W81540  23.031  17.129  14.413
22104W        W81541  17.769   3.292   2.221
22105W        W81542   9.763  14.172   4.763
22106W        W81543   5.806  31.913   0.269
22107W        W81544  17.073   9.292  11.053
22108W        W81545  39.873  23.039  11.390
22109W        W81546   6.234  44.843   1.754
22110W        W81547  25.659  34.073   4.620
22111W        W81548  26.176  32.520  11.020
22112W        W81549  12.266  34.587   4.197
22113W        W81550   4.925  23.665   3.199
22114W        W81551  18.258   2.884   0.942
22115W        W81552  30.929  21.653  11.550
22116W        W81553  21.696  36.059  11.402
22117W        W81554  25.669   5.246  10.604
22118W        W81555  12.337   3.731   3.178
22119W        W81556  42.912  23.030   3.851
22120W        W81557  43.978  12.357   0.798
22121W        W81558  18.674  16.243   0.258
22122W        W81559  24.199  28.671   4.207
22123W        W81560  42.984  18.732   0.947
22124W        W81561   4.419  23.538   4.114
22125W        W81562  12.747  21.580   0.939
22126W        W81563   8.200   9.223   2.806
22127W        W81564  11.274  28.464   3.302
22128W        W81565   1.971  13.265  14.485
22129W        W81566  11.633   8.274  11.090
22130W        W81567  19.270  32.625   2.674
22131W        W81568  43.288   0.803   4.251
22132W        W81569  20.588  29.083   2.357
22133W        W81570  33.470   5.360  11.019
22134W        W81571  27.969  36.552  11.434
22135W        W81572  19.200  36.968  14.801
22136W        W81573  37.872  23.091   1.733
22137W        W81574  22.741  24.211   1.422
22138W        W81575  33.130   6.426  11.974
22139W        W81576   5.355  16.098  11.429
22140W        W81577  23.568  15.586   0.260
22141W        W81578  18.221  16.642  13.952
22142W        W81579  36.971  10.637   3.693
22143W        W81580  13.204   7.292  10.045
22144W        W81581  15.184  44.774  10.597
22145W        W81582  41.496   7.826   2.725
22146W        W81583  29.005  11.645   3.660
22147W        W81584  30.461  11.676  12.033
22148W        W81585  42.982  32.139   1.757
22149W        W81586  41.458  35.476  11.952
22150W        W81587  16.273   9.311   4.354
22151W        W81588  29.446  28.446  14.338
22152W        W81589   2.877  14.747  14.856
22153W        W81590  35.451  36.017   3.830
22154W        W81591  15.122  27.635  12.004
22155W        W81592  17.716  41.527   1.830
22156W        W81593   8.881  20.675  10.517
22157W        W81594  37.410  31.449   1.771
22158W        W81595  40.479  16.306   4.668
22159W        W81596  24.617  36.480   9.555
22160W        W81597  41.898   0.370  11.870
22161W        W81598  15.582  14.753   3.252
22162W        W81599  38.509  43.898  11.908
22163W        W81600   0.423  25.173  14.383
22164W        W81601   3.304  41.505  11.932
22165W        W81602  43.832   2.348  12.096
22166W        W81603   3.324  12.739   1.786
22167W        W81604   2.944  31.004   1.272
22168W        W81605   4.733  29.129   3.180
22169W        W81606   0.409  26.958  14.854
22170W        W81607  43.462  22.234   4.666
22171W        W81608  18.731  20.259   3.824
22172W        W81609  20.648  41.371   2.729
22173W        W81610  26.179  26.621   3.333
22174W        W81611  19.757  21.130   3.242
22175W        W81612  30.570   5.789   0.356
22176W        W81613  11.659   8.785  11.375
22177W        W81614  22.074  43.851  10.614
22178W        W81615  32.559  28.087   2.843
22179W        W81616  34.995  10.352   2.874
22180W        W81617  24.154  19.709   0.336
22181W        W81618  31.465  14.331  13.986
22182W        W81619  21.590  40.811  11.600
22183W        W81620  14.754  23.138   2.765
22184W        W81621  26.195   3.324   3.234
22185W        W81622  20.266  25.567   3.217
22186W        W81623   6.888  23.056  14.973
22187W        W81624  40.826  35.449  14.769
22188W        W81625  37.382  34.605  11.888
22189W        W81626   0.842  31.637  12.555
22190W        W81627  26.588  34.514   2.240
22191W        W81628  37.906   3.370  13.865
22192W        W81629  42.506  29.022  14.003
22193W        W81630  16.072  19.092  10.416
22194W        W81631   8.843  12.705  11.577
22195W        W81632   2.878  23.084   0.772
22196W        W81633   5.199  36.357   4.290
22197W        W81634  36.853   5.429  13.019
22198W        W81635  11.153   1.238   2.750
22199W        W81636   6.690  12.233   3.180
22200W        W81637  35.443   8.833   1.863
22201W        W81638  26.965   7.190  12.576
22202W        W81639  19.696  33.997  14.512
22203W        W81640  44.788  37.574  12.570
22204W        W81641  21.697  17.094   0.247
22205W        W81642  44.910  21.665   0.946
22206W        W81643  38.931  35.898   2.191
22207W        W81644  17.244   2.468  11.927
22208W        W81645   1.244  44.960   0.920
22209W        W81646  34.889  19.539  10.076
22210W        W81647   5.749  30.964  12.573
22211W        W81648  38.382   4.358  14.952
22212W        W81649  31.514   5.925   2.893
22213W        W81650  42.490  38.015   2.680
22214W        W81651   5.882  31.471  12.885
22215W        W81652  10.868  18.217  10.491
22216W        W81653   0.466   3.364  10.502
22217W        W81654  38.002  23.028   4.663
22218W        W81655  44.372   0.372  10.036
22219W        W81656   1.357  20.253   2.414
22220W        W81657  12.341  28.517  11.387
22221W        W81658  41.535   1.835  13.532
22222W        W81659  22.083  44.266   4.632
22223W        W81660  37.512   4.308   3.239
22224W        W81661   4.863  20.045   3.767
22225W        W81662  25.552   2.274   4.793
22226W        W81663  29.628  15.311  10.613
22227W        W81664   9.297  12.313  14.506
22228W        W81665  37.471  19.056  10.460
22229W        W81666  20.272   4.424   0.752
22230W        W81667   9.221  10.810   1.834
22231W        W81668   9.337  34.387   1.767
22232W        W81669  18.643  22.528   4.149
22233W        W81670   4.331  10.849  13.979
22234W        W81671   1.766  17.112  12.432
22235W        W81672  26.550  10.174   3.153
22236W        W81673  14.323  22.701  14.357
22237W        W81674  38.457  16.654  14.303
22238W        W81675  12.798   1.389   2.814
22239W        W81676  17.749  25.161  11.925
22240W        W81677  15.713  29.424   0.840
22241W        W81678  25.574  31.097   1.860
22242W        W81679  28.577  41.999  10.416
22243W        W81680  37.006  14.312   4.782
22244W        W81681  18.219  18.621  12.478
22245W        W81682  43.511  32.074   0.889
22246W        W81683   1.284  13.205  14.810
22247W        W81684  37.576  35.022   1.239
22248W        W81685  38.925  24.702  12.490
22249W        W81686  29.637  37.936   3.632
22250W        W81687  31.627  28.061   0.905
22251W        W81688  22.066  42.303  12.075
22252W        W81689  27.479  30.017  14.375
22253W        W81690  36.593  39.831   3.692
22254W        W81691  29.469   4.412   0.332
22255W        W81692  21.234  42.919  11.878
22256W        W81693  30.072  10.644   3.661
22257W        W81694  10.279  34.484   4.707
22258W        W81695  43.848  34.471  10.049
22259W        W81696  20.190   9.739  12.008
22260W        W81697  28.125  39.462   5.101
22261W        W81698  10.868  30.446   4.791
22262W        W81699  31.984   0.289  11.489
22263W        W81700   7.780  17.115  14.817
22264W        W81701  44.807   3.816   0.896
22265W        W81702  31.601  36.440   2.402
22266W        W81703   0.793  39.388  13.965
22267W        W81704  30.977  19.136  10.417
22268W        W81705  21.637   9.252  11.970
22269W        W81706  36.917  13.220   3.705
22270W        W81707  28.532  43.866  13.320
22271W        W81708  17.588  35.863  10.561
22272W        W81709  42.985  43.484  14.447
22273W        W81710   1.476   8.664  10.538
22274W        W81711  37.532  40.418   2.354
22275W        W81712  20.558   2.378   3.170
22276W        W81713  17.611  21.260   1.926
22277W        W81714  21.746  12.359   0.964
22278W        W81715  33.612  18.569   4.828
22279W        W81716  42.890  18.559   1.914
22280W        W81717   9.194   6.917   2.394
22281W        W81718  20.138  10.686  10.428
22282W        W81719  17.139   3.770   0.933
22283W        W81720   2.243   7.754  12.450
22284W        W81721  42.513  30.916  12.465
22285W        W81722  44.498   6.251  11.951
22286W        W81723  43.955  25.077   3.866
22287W        W81724  22.052  35.083   0.838
22288W        W81725  39.379  24.129   1.834
22289W        W81726   6.342  12.262  11.544
22290W        W81727   5.780   7.270   4.340
22291W        W81728  20.668  32.574   2.696
22292W        W81729   7.336  33.086   2.223
22293W        W81730   2.465  17.609   4.812
22294W        W81731  12.316  44.946  11.561
22295W        W81732   2.297  43.410   0.253
22296W        W81733   3.394  28.182  13.436
22297W        W81734   3.760   6.776   2.209
22298W        W81735   9.739  23.592   2.278
22299W        W81736  12.657  32.505   1.411
22300W        W81737  18.245  11.316   0.389
22301W        W81738  28.996   0.324  14.430
22302W        W81739  35.591  21.263  14.370
22303W        W81740   8.684  27.568  13.055
22304W        W81741  43.804   3.851   2.746
22305W        W81742  26.648  31.403   4.344
22306W        W81743  15.245  17.202   0.798
22307W        W81744  42.991   9.364   4.615
22308W        W81745  38.956  14.257  13.393
22309W        W81746  42.813  12.674   4.156
22310W        W81747   0.979   7.721   0.870
22311W        W81748  32.036  28.437  12.844
22312W        W81749   0.853  43.510   3.647
22313W        W81750   1.770  16.678  14.876
22314W        W81751  21.738  36.425   3.271
22315W        W81752   4.757   1.296  10.548
22316W        W81753  11.133   2.897  13.416
22317W        W81754  35.586  35.523   3.681
22318W        W81755  20.763  28.667  11.961
22319W        W81756  37.078  38.333  11.961
22320W        W81757  35.993  33.625  10.898
22321W        W81758  19.745  14.812  13.876
22322W        W81759  25.705  34.934   3.716
22323W        W81760  26.558  39.033   3.642
22324W        W81761   8.284  25.159   0.878
22325W        W81762  32.582   1.279  14.939
22326W        W81763  41.325  10.161   1.213
22327W        W81764  32.987  17.662   0.286
22328W        W81765  37.510   9.306   1.772
22329W        W81766  31.942   8.274  12.424
22330W        W81767  26.474  32.405  14.371
22331W        W81768  22.187   2.304   1.309
22332W        W81769   8.207  31.080   0.816
22333W        W81770  32.560  34.029   4.625
22334W        W81771  44.822  42.828  12.904
22335W        W81772  37.833  36.088  12.494
22336W        W81773  41.944  37.918  10.980
22337W        W81774  16.153  38.827  12.468
22338W        W81775  39.531  38.979   3.170
22339W        W81776  32.071  41.519  13.047
22340W        W81777  10.187  20.145  13.462
22341W        W81778   2.381  39.374  14.482
22342W        W81779   7.702   0.262  14.427
22343W        W81780  36.076  37.457   5.232
22344W        W81781  29.005  11.855  14.797
22345W        W81782  13.209  30.566  14.397
22346W        W81783   3.350  23.711   2.806
22347W        W81784  34.417  15.673  14.813
22348W        W81785  25.056  43.922  13.002
22349W        W81786  34.516  39.504   3.375
22350W        W81787   1.284  37.551  12.484
22351W        W81788  16.299  39.550   3.211
22352W        W81789  43.402  22.111   3.320
22353W        W81790   0.791  14.306  14.449
22354W        W81791   7.355  13.674  14.412
22355W        W81792  22.710  37.833   3.642
22356W        W81793   0.810  12.775  12.408
22357W        W81794  26.669  43.337  13.432
22358W        W81795  40.407  32.927  13.881
22359W        W81796   9.236   9.364   4.822
22360W        W81797  34.988   6.205  12.931
22361W        W81798  20.528  13.340   4.261
22362W        W81799  17.744  42.327   4.126
22363W        W81800   9.772  20.247   2.396
22364W        W81801  37.984  36.505  10.419
22365W        W81802   2.251  11.309   4.316
22366W        W81803  35.899  15.194  11.081
22367W        W81804  18.062  11.357   1.732
22368W        W81805   2.936  34.896   1.788
22369W        W81806   4.303  27.614   1.909
22370W        W81807   8.356  28.479   1.901
22371W        W81808   4.930  14.243   3.252
22372W        W81809  23.108  24.163   3.183
22373W        W81810  41.469  14.285   1.700
22374W        W81811  21.626  16.785   0.746
22375W        W81812  23.060  14.169   0.478
22376W        W81813  32.449  36.519  12.850
22377W        W81814  39.409  19.726   1.932
22378W        W81815  30.541  12.282  11.453
22379W        W81816  18.692  41.847   1.886
22380W        W81817  33.007  35.597   1.898
22381W        W81818  31.077  28.008  11.118
22382W        W81819   5.931   3.846   4.759
22383W        W81820  29.162  43.483  11.420
22384W        W81821  27.077  39.867  12.503
22385W        W81822  19.205  40.008  10.435
22386W        W81823   3.458   9.174  12.825
22387W        W81824   1.418  17.177   2.773
22388W        W81825  29.091  17.697   2.678
22389W        W81826  21.042  30.952  14.819
22390W        W81827  23.679   7.893  14.992
22391W        W81828   4.850  11.785  13.503
22392W        W81829  42.413  23.085   1.791
22393W        W81830  38.065   9.390  14.393
22394W        W81831  41.451  26.035   4.814
22395W        W81832  11.844  26.004  14.998
22396W        W81833  27.539  40.992  12.018
22397W        W81834  26.136   5.291   4.132
22398W        W81835   4.299  26.568  11.591
22399W        W81836   2.260  30.490  12.983
22400W        W81837  10.677  10.282  10.497
22401W        W81838  41.440  18.757   4.816
22402W        W81839  32.441  14.610  10.923
22403W        W81840  16.662  30.500   0.409
22404W        W81841  34.088   8.758  14.298
22405W        W81842  31.077  12.802   3.842
22406W        W81843  14.216  43.291   1.877
22407W        W81844  40.803  16.242   1.871
22408W        W81845  22.669  13.145  11.558
22409W        W81846  20.169  43.406  14.873
22410W        W81847  17.063  38.559  13.958
22411W        W81848  12.152  34.919  11.063
22412W        W81849  34.028  22.223  12.876
22413W        W81850   9.276  17.167   5.165
22414W        W81851  24.078  18.755  14.381
22415W        W81852  34.448   9.323  13.416
22416W        W81853  39.351  18.161  10.555
22417W        W81854  39.841  22.516   1.246
22418W        W81855   3.802   4.821  14.892
22419W        W81856   3.871  35.365   4.336
22420W        W81857  30.151  15.785  14.338
22421W        W81858  40.044  16.162   1.911
22422W        W81859  15.200   1.340  13.991
22423W        W81860  12.733  16.799  13.367
22424W        W81861  43.315  35.021  10.919
22425W        W81862  14.210   1.433  13.827
22426W        W81863  36.909  21.167   4.694
22427W        W81864  17.780  25.150  14.899
22428W        W81865  28.623  36.395  12.892
22429W        W81866  38.983  26.139  13.450
22430W        W81867  33.538  14.337  12.988
22431W        W81868  12.266  27.649   3.193
22432W        W81869   2.897  23.613   0.939
22433W        W81870  38.986  14.104   2.711
22434W        W81871   2.433  38.924  12.027
22435W        W81872  41.041   1.876   4.613
22436W        W81873   3.448   5.363  11.447
22437W        W81874   0.779  30.586   2.735
22438W        W81875  24.146  40.548  12.031
22439W        W81876  17.061  21.075  12.027
22440W        W81877  10.844  27.483   0.738
22441W        W81878  13.326  32.390   0.752
22442W        W81879  26.166  27.064  10.636
22443W        W81880  15.738  28.654  11.398
22444W        W81881  15.752   2.288   3.214
22445W        W81882  25.012   8.406   0.909
22446W        W81883  21.099   7.407   2.852
22447W        W81884  28.465  44.814  11.052
22448W        W81885  10.691   9.853  12.893
22449W        W81886  15.296  20.551   1.391
22450W        W81887  41.802  17.079   1.898
22451W        W81888   1.853  36.857   2.321
22452W        W81889  34.432   5.352   2.815
22453W        W81890   3.863  11.753  11.898
22454W        W81891  29.017  37.957  14.310
22455W        W81892  34.951  18.583  14.953
22456W        W81893  20.195   2.288  12.825
22457W        W81894  27.164  22.723   0.736
22458W        W81895  40.503   9.732  13.442
22459W        W81896  32.015  36.901   0.333
22460W        W81897  15.183   9.250   4.217
22461W        W81898   2.886  42.946   3.749
22462W        W81899  26.100   7.708   3.187
22463W        W81900  14.610  31.923  12.979
22464W        W81901   2.823   4.352   4.782
22465W        W81902  33.962   9.195  11.064
22466W        W81903   7.206  34.534  13.922
22467W        W81904  28.954  18.696  13.307
22468W        W81905  13.343  22.591  12.937
22469W        W81906   0.890  44.382   5.299
22470W        W81907  32.135  27.092   1.749
22471W        W81908   4.408  44.768   2.233
22472W        W81909  22.222  29.656  11.390
22473W        W81910  21.151  33.525  13.007
22474W        W81911   6.265  30.416   2.670
22475W        W81912  22.104  26.003   0.865
22476W        W81913  32.580  21.181   3.863
22477W        W81914   0.322   9.855  13.495
22478W        W81915  29.981  33.116  13.506
22479W        W81916  33.559  12.836  13.485
22480W        W81917   5.794   9.240  14.843
22481W        W81918  20.148  32.997   2.833
22482W        W81919   0.296  30.635   1.407
22483W        W81920  11.253   2.872   1.219
22484W        W81921  29.607   5.751  10.423
22485W        W81922   7.864  31.050  10.485
22486W        W81923   9.777  29.024   3.222
22487W        W81924  31.633   6.759   0.268
22488W        W81925   5.376   9.861  14.829
22489W        W81926   3.934   2.310   0.872
22490W        W81927   7.801   5.225   2.775
22491W        W81928  35.915  28.099   2.745
22492W        W81929  31.412  37.019   3.669
22493W        W81930  11.185  25.095  11.923
22494W        W81931  39.002  19.751   1.415
22495W        W81932  35.970   1.338  10.488
22496W        W81933  13.842  26.096  14.325
22497W        W81934   3.251  42.350  14.459
22498W        W81935   7.671  41.822   4.227
22499W        W81936  11.663  19.546   2.317
22500W        W81937  31.071   7.317   2.717
22501W        W81938  23.514   0.367   4.735
22502W        W81939  27.594   6.798  10.457
22503W        W81940  31.592  20.572  13.914
22504W        W81941   7.201  25.195  12.526
22505W        W81942  36.965  19.623   4.315
22506W        W81943  19.623   1.884   3.360
22507W        W81944  39.890  25.198  14.276
22508W        W81945   4.728   7.363  10.079
22509W        W81946  11.220  21.044  12.854
22510W        W81947  27.977  25.494   2.882
22511W        W81948   2.898  35.086   4.276
22512W        W81949  32.952  34.116  14.906
22513W        W81950  10.678  13.155   0.448
22514W        W81951   3.782   4.785   4.121
22515W        W81952  19.229  44.378  14.942
22516W        W81953   8.367  40.304  14.801
22517W        W81954  44.403   9.253  14.994
22518W        W81955  35.937  21.158   5.179
22519W        W81956  20.129  12.353  12.356
22520W        W81957  38.409  10.697  14.935
22521W        W81958  16.286   8.176   0.738
22522W        W81959  43.299  37.437  12.456
22523W        W81960  41.915  18.689   4.823
22524W        W81961  11.346  16.676  13.440
22525W        W81962  20.053  19.131   2.741
22526W        W81963   2.769   2.847  14.325
22527W        W81964  43.004  28.438  12.991
22528W        W81965  31.060  12.725  10.016
22529W        W81966  37.409   8.662  11.378
22530W        W81967  39.448  27.502   2.697
22531W        W81968   4.321  35.074   1.360
22532W        W81969  37.505  43.780  10.601
22533W        W81970  26.973  37.011  14.905
22534W        W81971  33.416  35.873   2.317
22535W        W81972   5.368  38.831  14.031
22536W        W81973   5.343  30.907   0.335
22537W        W81974  43.435  38.910   2.291
22538W        W81975  31.535  34.521  11.561
22539W        W81976  20.083  24.631   3.160
22540W        W81977  35.913  34.520   0.377
22541W        W81978   1.358  24.481   1.423
22542W        W81979  31.570  35.447   3.307
22543W        W81980   5.730  20.600   2.403
22544W        W81981  11.847  32.604  13.823
22545W        W81982  29.557  17.655   0.875
22546W        W81983  11.639  27.959  10.000
22547W        W81984  17.177  28.061   4.239
22548W        W81985  44.498  38.334  14.490
22549W        W81986  32.528  42.324  10.062
22550W        W81987  25.165  11.167  12.002
22551W        W81988   7.815   9.763  10.507
22552W        W81989  33.624  32.534  13.409
22553W        W81990  17.175  14.329   4.750
22554W        W81991   3.819   0.807  11.592
22555W        W81992  25.620  23.137  14.864
22556W        W81993  15.770   5.703   3.670
22557W        W81994  27.538   2.229   1.764
22558W        W81995  20.606   3.359   1.881
22559W        W81996  21.119   4.704  11.118
22560W        W81997  19.668   7.296   4.314
22561W        W81998  44.921  34.528   2.702
22562W        W81999  27.946  43.020   3.320
22563W        W82000  35.900  20.218  11.510
22564W        W82001   5.329  44.272  12.025
22565W        W82002  19.063  27.459  14.943
22566W        W82003   2.910   5.395   0.765
22567W        W82004  32.623  23.197  13.850
22568W        W82005   3.734  10.247  13.907
22569W        W82006  35.508  19.152   3.371
22570W        W82007   3.334  35.975  10.595
22571W        W82008  29.444  14.096  12.491
22572W        W82009  20.073  39.979   5.261
22573W        W82010   4.738  37.971   3.192
22574W        W82011  38.421  14.692   0.427
22575W        W82012  25.037  11.130   2.872
22576W        W82013  31.407  30.064  11.388
22577W        W82014  11.346  11.729  13.956
22578W        W82015   0.862  35.091   0.766
22579W        W82016  33.573  37.569   9.545
22580W        W82017  21.209  25.483  11.518
22581W        W82018  25.575   5.349   3.864
22582W        W82019  14.758   5.811  10.423
22583W        W82020  34.923  23.588   0.265
22584W        W82021   3.215   9.243   4.189
22585W        W82022  28.149  15.631   4.805
22586W        W82023  37.369  29.573  14.882
22587W        W82024  33.606  28.994   0.383
22588W        W82025  21.102  17.706   9.970
22589W        W82026  37.891  43.973   0.943
22590W        W82027  37.901  26.163   4.679
22591W        W82028   8.324  33.016  12.363
22592W        W82029  26.966  43.911  12.474
22593W        W82030  43.290  24.218  13.533
22594W        W82031  27.146  15.714  13.856
22595W        W82032  21.131  37.979   1.223
22596W        W82033   3.899  35.894  12.087
22597W        W82034  14.805  30.640   3.290
22598W        W82035   5.302   4.929  10.034
22599W        W82036  25.211  27.063  11.981
22600W        W82037  11.700  23.700   3.338
22601W        W82038  25.580  11.652  14.360
22602W        W82039  13.194  41.358  11.419
22603W        W82040  10.305  14.255   2.236
22604W        W82041  21.597   5.837   3.327
22605W        W82042  36.378  10.147  12.541
22606W        W82043  38.033  27.609   4.123
22607W        W82044  34.984  41.846   5.168
22608W        W82045   6.246  26.610   0.333
22609W        W82046   9.650  15.695   3.208
22610W        W82047  44.804  36.444  14.920
22611W        W82048  20.208   2.952  14.442
22612W        W82049  41.904  25.494  12.451
22613W        W82050  33.074  44.275  14.961
22614W        W82051  17.073  43.450   3.292
22615W        W82052   2.807  43.354   3.752
22616W        W82053  18.749  30.541  12.066
22617W        W82054  43.316  25.534   3.681
22618W        W82055  14.780  41.506  11.965
22619W        W82056  34.514  29.549   0.915
22620W        W82057  28.067  23.733   3.293
22621W        W82058  16.610  22.248   1.258
22622W        W82059  24.498   9.303   4.620
22623W        W82060  12.176  24.117  11.073
22624W        W82061  24.694  41.989   1.718
22625W        W82062  19.709  27.480  12.538
22626W        W82063  15.605  43.767   1.376
22627W        W82064  10.770  24.174   0.463
22628W        W82065  34.939  41.919   1.380
22629W        W82066  32.619  31.494  12.826
22630W        W82067  32.894  19.048   0.395
22631W        W82068  24.498  18.567   2.418
22632W        W82069  29.090  17.292   2.828
22633W        W82070  34.552  15.795  13.488
22634W        W82071  31.903   3.743  12.861
22635W        W82072  39.546  12.837  11.398
22636W        W82073  27.653  22.632   2.748
22637W        W82074  11.285   8.685  11.394
22638W        W82075  31.925  40.372   0.462
22639W        W82076   7.910  19.774  13.434
22640W        W82077  42.011   5.900  12.523
22641W        W82078  10.151  19.547  14.010
22642W        W82079  43.917   7.417  10.528
22643W        W82080  19.224  28.576   4.776
22644W        W82081   8.281  38.351   2.260
22645W        W82082  16.092  38.008  10.561
22646W        W82083  19.200  11.726   1.788
22647W        W82084   2.807  28.990  14.508
22648W        W82085  10.729  25.977   1.272
22649W        W82086   6.219  37.503   3.384
22650W        W82087   2.853  16.217  10.534
22651W        W82088  40.497  34.033   0.379
22652W        W82089  10.752   8.281   0.321
22653W        W82090  15.744  41.419  13.526
22654W        W82091   3.875  41.876   1.767
22655W        W82092   6.394   6.290  10.120
22656W        W82093  38.931   4.259   3.716
22657W        W82094  26.513  32.915  12.880
22658W        W82095   2.829  26.954  14.879
22659W        W82096  31.073  31.476   3.793
22660W        W82097  17.202  33.913  13.363
22661W        W82098  35.092   7.260   4.184
22662W        W82099  25.671  27.994  14.875
22663W        W82100  32.533  34.543   4.298
22664W        W82101  10.269  26.047   2.665
22665W        W82102   4.294   7.185  14.981
22666W        W82103  33.883   9.272   3.300
22667W        W82104  14.308  25.044  14.439
22668W        W82105  43.441  30.530   3.632
22669W        W82106  22.544  32.925   0.415
22670W        W82107  30.655   1.731  14.397
22671W        W82108   9.369  12.835   1.700
22672W        W82109  14.327  16.166   1.213
22673W        W82110   5.780  40.420  14.868
22674W        W82111  38.894  37.553  11.993
22675W        W82112  28.499  29.627  12.407
22676W        W82113  10.769  11.184  10.553
22677W        W82114  43.507  38.025  12.038
22678W        W82115  21.071  21.115   1.705
22679W        W82116  38.515  17.154  11.994
22680W        W82117  25.115  41.361   4.784
22681W        W82118  11.701  32.505   1.257
22682W        W82119  36.047  20.538  12.081
22683W        W82120  26.075  31.060  12.396
22684W        W82121  14.133  30.460  12.478
22685W        W82122  15.744   7.806  10.501
22686W        W82123  27.641  31.145   3.203
22687W        W82124  23.639  20.158   1.890
22688W        W82125   6.416  28.965   1.778
22689W        W82126  39.970   0.810   4.605
22690W        W82127  38.019  40.976   0.963
22691W        W82128  23.082  26.559  11.034
22692W        W82129  43.990  27.565  13.040
22693W        W82130  14.279  21.628  14.815
22694W        W82131  18.080   5.220  14.464
22695W        W82132  39.033  44.902  13.002
22696W        W82133   8.786  13.287  14.394
22697W        W82134  44.340  24.032  10.974
22698W        W82135  37.408   5.301   4.781
22699W        W82136  12.211  14.323  12.437
22700W        W82137   0.787   5.242   0.378
22701W        W82138   2.388  19.207  11.047
22702W        W82139  31.016  18.689   4.130
22703W        W82140  23.024   4.831  11.084
22704W        W82141  12.721  34.989   1.694
22705W        W82142  40.919  20.230  14.480
22706W        W82143  10.683  22.007  12.006
22707W        W82144   0.972  35.983   2.707
22708W        W82145   5.293  23.205   0.855
22709W        W82146  18.205   1.944  10.446
22710W        W82147  33.994  10.140  12.020
22711W        W82148   1.376  44.454   2.747
22712W        W82149  27.692   5.842  11.029
22713W        W82150  17.256  11.302  12.461
22714W        W82151  27.590  37.360  11.439
22715W        W82152   9.769  34.590   2.778
22716W        W82153  19.692   7.724   2.805
22717W        W82154   2.364  21.111  11.962
22718W        W82155  16.736  35.527  11.978
22719W        W82156  40.962  40.422  12.516
22720W        W82157  14.102   8.295  10.964
22721W        W82158   6.792  29.557  13.505
22722W        W82159  19.652  21.646  11.601
22723W        W82160  34.001  28.595   0.436
22724W        W82161  26.041  16.137   0.939
22725W        W82162  14.608  28.527   1.845
22726W        W82163  25.087   8.791   2.721
22727W        W82164  12.310  31.087  10.511
22728W        W82165   1.469  38.921   2.202
22729W        W82166  25.676  21.185   2.363
22730W        W82167  12.738   3.939  11.499
22731W        W82168  28.618  26.542   3.784
22732W        W82169  44.494  28.619  11.971
22733W        W82170  39.421  28.954  14.460
22734W        W82171  42.522  32.457  14.360
22735W        W82172  17.200  10.158  14.401
22736W        W82173  35.908   7.785  10.527
22737W        W82174  41.339   4.368   4.652
22738W        W82175  17.267  22.227   3.639
22739W        W82176  17.671   2.823   3.738
22740W        W82177  23.563  33.414  10.627
22741W        W82178   0.469  14.227  12.945
22742W        W82179  38.881  29.611   3.288
22743W        W82180  33.509  36.586  12.002
22744W        W82181  18.153  41.880  12.956
22745W        W82182  27.051  30.932   3.273
22746W        W82183  25.468  15.648  11.579
22747W        W82184  25.078   0.391   0.269
22748W        W82185  19.629   3.709   3.695
22749W        W82186  32.468  35.089  11.392
22750W        W82187  28.446  38.415   4.726
22751W        W82188  38.545  36.510   1.845
22752W        W82189   3.403  10.161   1.884
22753W        W82190  38.914  35.865   4.813
22754W        W82191  24.029  27.942   3.217
22755W        W82192  22.036   4.897  11.987
22756W        W82193  26.700  22.560  13.545
22757W        W82194  25.709  10.384   3.771
22758W        W82195   5.436   3.805   1.743
22759W        W82196  15.803  25.528  14.478
22760W        W82197  11.278  44.440   2.351
22761W        W82198  19.189  15.295  13.979
22762W        W82199  12.755  28.058  14.013
22763W        W82200   5.790  13.785  11.552
22764W        W82201  39.545  24.083  14.481
22765W        W82202  43.312  26.545   4.198
22766W        W82203  11.200   7.364  13.450
22767W        W82204  24.074  23.235  13.545
22768W        W82205  23.211   7.755   2.852
22769W        W82206  21.575  32.915   3.679
22770W        W82207  20.181  31.441  13.421
22771W        W82208   6.353  35.920  14.904
22772W        W82209   7.412  34.385   4.813
22773W        W82210  21.260  26.490  14.859
22774W        W82211  22.012  40.831   0.952
22775W        W82212  35.064  41.959  14.379
22776W        W82213  23.046   8.738  14.032
22777W        W82214  13.625  22.736   4.295
22778W        W82215  38.001  42.437   2.891
22779W        W82216  18.630  33.474  12.988
22780W        W82217   0.809  44.781   1.857
22781W        W82218  38.025   2.817   0.888
22782W        W82219  19.535  43.875   4.733
22783W        W82220  29.055  14.779   4.797
22784W        W82221  15.193   5.909   0.793
22785W        W82222   4.368  38.973  12.906
22786W        W82223  28.545  19.722   5.300
22787W        W82224  16.588  23.995  14.993
22788W        W82225  31.590  33.908  13.449
22789W        W82226   7.741   8.736   0.444
22790W        W82227  22.022  16.133  14.931
22791W        W82228  12.289  13.149  10.585
22792W        W82229   9.681  41.872  10.902
22793W        W82230  42.383  39.042   2.727
22794W        W82231  37.892  30.531  14.833
22795W        W82232  43.471  32.035   0.480
22796W        W82233  34.409   0.427   3.657
22797W        W82234   8.715  26.151   1.320
22798W        W82235  14.755  20.592  10.570
22799W        W82236   2.945  32.888  14.857
22800W        W82237  28.659   1.743   1.374
22801W        W82238  24.542   7.262  14.446
22802W        W82239  21.262  15.261   3.707
22803W        W82240   8.232  11.320   0.771
22804W        W82241  34.430  13.269  13.361
22805W        W82242   8.691  41.800   1.896
22806W        W82243  24.174  21.568   1.302
22807W        W82244  19.624   1.875  12.977
22808W        W82245  35.067   1.373  12.013
22809W        W82246  10.804  18.074  11.429
22810W        W82247  22.511   1.931  12.971
22811W        W82248  31.634  34.414   0.437
22812W        W82249   0.879  16.253  13.905
22813W        W82250  13.827  14.291  11.094
22814W        W82251   8.364   3.771  11.875
22815W        W82252  16.683  16.661   1.877
22816W        W82253  16.074   4.800  12.341
22817W        W82254   0.285  30.992   1.338
22818W        W82255   7.782  27.663  14.298
22819W        W82256  24.018   7.348   3.658
22820W        W82257   2.750  34.085   3.671
22821W        W82258  20.165  35.396   4.777
22822W        W82259  39.856  28.183   1.293
22823W        W82260  42.335  41.891  14.003
22824W        W82261  19.706   9.156   1.930
22825W        W82262  14.249  16.676  10.932
22826W        W82263  30.434   3.269  14.908
22827W        W82264  29.164  20.124  10.934
22828W        W82265  15.644  19.664  11.103
22829W        W82266  22.740  28.056   0.893
22830W        W82267  31.496  27.127  12.049
22831W        W82268  28.451   9.322  10.493
22832W        W82269  31.013   9.749   4.822
22833W        W82270  22.221   5.437  14.482
22834W        W82271  14.714  30.995   4.697
22835W        W82272   0.923  31.471   1.891
22836W        W82273  19.195  39.437  11.569
22837W        W82274  16.140   3.322  13.384
22838W        W82275   1.451  43.370   3.716
22839W        W82276   5.722   4.855   1.733
22840W        W82277   9.327  42.872   4.725
22841W        W82278  13.617  29.555  12.040
22842W        W82279  34.464  30.441  13.920
22843W        W82280   3.426  33.476   3.344
22844W        W82281  38.959  23.041  14.303
22845W        W82282   6.920   3.320   5.157
22846W        W82283  17.280  44.357  11.939
22847W        W82284  37.445  39.373   3.645
22848W        W82285   6.755  26.578   2.793
22849W        W82286  35.465  43.812   2.789
22850W        W82287  31.081  28.066  11.483
22851W        W82288  16.246   9.845   0.809
22852W        W82289   6.215  13.319  12.887
22853W        W82290  13.811  43.021   4.680
22854W        W82291   1.443   8.768  14.346
22855W        W82292  37.016  23.720   2.242
22856W        W82293   2.854  43.825  11.611
22857W        W82294  29.977  40.492  14.477
22858W        W82295  23.086  31.991   0.378
22859W        W82296  40.348   6.784  12.435
22860W        W82297  27.543  44.817   0.289
22861W        W82298   8.712  11.183  10.633
22862W        W82299  41.483  34.077  12.971
22863W        W82300  18.777  10.192  14.460
22864W        W82301   4.942  11.821   1.846
22865W        W82302  21.755   1.978  10.617
22866W        W82303  29.968   5.701   0.769
22867W        W82304  14.831  38.366  11.442
22868W        W82305  14.793  15.699  10.014
22869W        W82306  28.467  21.052   4.252
22870W        W82307  38.353  26.684  14.796
22871W        W82308  11.638   7.787   4.655
22872W        W82309   7.872  38.500   1.718
22873W        W82310   1.872   4.246   3.167
22874W        W82311  43.459  34.495  11.031
22875W        W82312  41.475  27.998  11.480
22876W        W82313  16.710  28.517  13.944
22877W        W82314  41.532  42.901   2.254
22878W        W82315  40.335  18.574   1.780
22879W        W82316  26.203   9.232   1.353
22880W        W82317  13.205   8.740  12.970
22881W        W82318   7.728  11.164   0.890
22882W        W82319  29.654  35.106  11.075
22883W        W82320  17.663  17.281   1.912
22884W        W82321  11.170  26.114  13.062
22885W        W82322  11.130  42.815   5.227
22886W        W82323  43.486  18.213  12.874
22887W        W82324  14.750  41.023   0.833
22888W        W82325   0.758  18.101   9.934
22889W        W82326  44.998  14.588  13.457
22890W        W82327  15.634  41.975  11.518
22891W        W82328  31.921  19.083   1.738
22892W        W82329  44.425  33.596   4.754
22893W        W82330  10.243  27.538  11.493
22894W        W82331  34.106  20.625  10.613
22895W        W82332  31.075  35.387   2.320
22896W        W82333  38.477  39.884  12.874
22897W        W82334  38.997  12.136  11.481
22898W        W82335  10.238  23.568   3.754
22899W        W82336  18.564  16.668   1.395
22900W        W82337  30.138  30.474   0.364
22901W        W82338   1.909   3.315  10.608
22902W        W82339  17.141  13.733   3.844
22903W        W82340  20.256  26.703   0.733
22904W        W82341  41.414  41.821   4.770
22905W        W82342   9.773  28.525  13.884
22906W        W82343  42.009  17.583   1.763
22907W        W82344  12.621  18.546   4.284
22908W        W82345  31.050  31.540  11.000
22909W        W82346  22.653  30.072   1.214
22910W        W82347  35.543  14.138  13.419
22911W        W82348  16.111   0.813   1.386
22912W        W82349  14.263   2.751  11.934
22913W        W82350  23.216  31.599  11.414
22914W        W82351  12.651  19.255  14.301
22915W        W82352  27.511  23.582   0.357
22916W        W82353  37.010  23.715  13.364
22917W        W82354   5.915  36.583  13.885
22918W        W82355   8.771  44.450   5.119
22919W        W82356  42.789  24.997  14.377
22920W        W82357  30.951  31.015  14.794
22921W        W82358   1.288  33.096   1.812
22922W        W82359   1.254   2.360   2.711
22923W        W82360  17.285   4.822   4.769
22924W        W82361  26.459  25.478  12.368
22925W        W82362  26.106  29.143  11.436
22926W        W82363  43.379   8.677  10.147
22927W        W82364  38.898  21.617   2.899
22928W        W82365  11.765  39.970  12.856
22929W        W82366  17.258   1.896   3.252
22930W        W82367  17.762  14.300  12.950
22931W        W82368   8.251   2.830  14.479
22932W        W82369  20.146  38.331   3.838
22933W        W82370  31.536  44.010  14.420
22934W        W82371   5.872  12.126   2.355
22935W        W82372  35.883  32.936   4.308
22936W        W82373  18.682   4.701   3.723
22937W        W82374  36.460  20.696   2.691
22938W        W82375  35.466  32.606   0.429
22939W        W82376  38.335  36.554  11.547
22940W        W82377  16.672   4.307   4.198
22941W        W82378  36.433  29.489   4.746
22942W        W82379   5.818  40.826  13.802
22943W        W82380   8.899  29.097  14.464
22944W        W82381  28.061  18.282  11.528
22945W        W82382  39.811  30.954  11.430
22946W        W82383  26.696  36.468   2.204
22947W        W82384  23.227   1.279   3.281
22948W        W82385  10.362   5.202  10.091
22949W        W82386  13.110  20.041   2.407
22950W        W82387  36.897  29.457   2.413
22951W        W82388  21.182  10.311   0.753
22952W        W82389  32.024  26.597   1.279
22953W        W82390  39.948  10.811  13.406
22954W        W82391  15.823  21.530   4.344
22955W        W82392  20.075   8.300   3.724
22956W        W82393   6.731   8.740  14.768
22957W        W82394  16.167  18.130   0.296
22958W        W82395  29.495   9.379   0.427
22959W        W82396  36.087  11.864   4.117
22960W        W82397  28.140  34.442  10.986
22961W        W82398   8.884  42.933   3.816
22962W        W82399  14.183   1.876  13.931
22963W        W82400  21.603  43.898   3.238
22964W        W82401  11.129   1.844   3.187
22965W        W82402  20.568   5.699  14.948
22966W        W82403  23.144  13.105   0.373
22967W        W82404  42.887  12.805  14.343
22968W        W82405  11.818  41.480   4.726
22969W        W82406   2.334  24.530  10.994
22970W        W82407  12.273  32.421   2.813
22971W        W82408  13.622  10.258   0.256
22972W        W82409   0.462  23.134   1.434
22973W        W82410  42.810  18.074  10.585
22974W        W82411  13.606  37.522   1.440
22975W        W82412  27.617  21.022  10.486
22976W        W82413  43.433  44.913   0.751
22977W        W82414  31.019   5.824  14.302
22978W        W82415  42.487  44.425   3.151
22979W        W82416  24.185  15.590  13.001
22980W        W82417  12.298  32.474  14.350
22981W        W82418  23.062  15.665  10.044
22982W        W82419   2.921  44.919  14.311
22983W        W82420  32.006  36.500   2.247
22984W        W82421  13.345  28.070   3.286
22985W        W82422  29.606  18.551   0.890
22986W        W82423  20.660  16.737   3.240
22987W        W82424  18.660  10.148   3.760
22988W        W82425   3.785   6.820  13.824
22989W        W82426   7.766  36.083   4.277
22990W        W82427  26.689  22.581   4.701
22991W        W82428  37.062  41.949   0.343
22992W        W82429  27.598  24.057   0.878
22993W        W82430  32.588  25.025   1.250
22994W        W82431   1.733  42.975  11.531
22995W        W82432  39.320  24.694  12.878
22996W        W82433  28.135  43.823   3.182
22997W        W82434  11.237  41.518  11.007
22998W        W82435   6.774  30.072  14.788
22999W        W82436  33.548  17.620   3.669
23000W        W82437  10.805  15.108   3.778
23001W        W82438   9.306  41.788  12.568
23002W        W82439  36.521  19.572  13.475
23003W        W82440   4.875   5.324   3.827
23004W        W82441  35.524  17.577   2.731
23005W        W82442  29.620  13.640  10.161
23006W        W82443  25.617   6.797  13.827
23007W        W82444  36.845  34.954   0.351
23008W        W82445   2.251  39.966  14.341
23009W        W82446  20.270  19.620  11.924
23010W        W82447  38.967  13.826  14.377
23011W        W82448  42.472  33.051   0.940
23012W        W82449  19.232  23.101  12.367
23013W        W82450  39.423  30.632  11.042
23014W        W82451   3.426   3.845  13.836
23015W        W82452   7.179  10.154  14.764
23016W        W82453  15.243  16.218  10.089
23017W        W82454  25.595  44.942   2.692
23018W        W82455  23.211  19.629   3.326
23019W        W82456  27.565  18.780  12.554
23020W        W82457  30.038  35.535  14.025
23021W        W82458  32.130  33.118  13.339
23022W        W82459  11.141  34.993  10.515
23023W        W82460  38.998  37.544  10.614
23024W        W82461  12.811  13.808  12.924
23025W        W82462  26.069  40.385   0.913
23026W        W82463  41.395   1.346  12.358
23027W        W82464  43.471  18.148  13.868
23028W        W82465  28.100  44.407  13.484
23029W        W82466  29.609  21.020  13.419
23030W        W82467   9.712  14.288   0.960
23031W        W82468  25.614   3.460   2.372
23032W        W82469  17.620  30.433   0.728
23033W        W82470  16.744  10.680   3.823
23034W        W82471   3.343  41.015   2.258
23035W        W82472  20.083   3.909   0.301
23036W        W82473  22.523  31.027   2.901
23037W        W82474   1.857  12.824  11.433
23038W        W82475  34.610  23.197  12.965
23039W        W82476   4.761   9.765   0.333
23040W        W82477  21.705  22.006  13.867
23041W        W82478  38.951  39.000  13.805
23042W        W82479  20.526   0.986   3.823
23043W        W82480  13.239  10.227  14.789
23044W        W82481  22.734   5.389  10.120
23045W        W82482  21.189   4.289  11.078
23046W        W82483  32.482  43.364  12.460
23047W        W82484   7.877  22.996   0.964
23048W        W82485  14.189   8.347  12.015
23049W        W82486  22.124   3.299   4.227
23050W        W82487  44.875  30.964  13.357
23051W        W82488  39.322  19.151   4.685
23052W        W82489  28.617  28.034  11.908
23053W        W82490   7.359   4.845   3.632
23054W        W82491  33.535  35.942  11.446
23055W        W82492  32.618  31.931   0.843
23056W        W82493  28.163  13.288  10.452
23057W        W82494  32.582   7.862   4.282
23058W        W82495  30.992  27.672   0.415
23059W        W82496  14.772   0.947   2.861
23060W        W82497  39.973  25.690  14.956
23061W        W82498   6.428  41.794  10.463
23062W        W82499  38.986  31.042  14.020
23063W        W82500  14.204  28.971  14.780
23064W        W82501  44.849  24.511  11.896
23065W        W82502  44.383  12.356  10.504
23066W        W82503  27.627  44.385  13.803
23067W        W82504  14.622  39.989  12.391
23068W        W82505  11.803  38.998  10.633
23069W        W82506  28.033  14.204   2.222
23070W        W82507  34.453  39.550  11.910
23071W        W82508  15.734  12.351  11.433
23072W        W82509  13.346  39.992  12.081
23073W        W82510   3.281  43.344  10.527
23074W        W82511  20.582   5.216   0.916
23075W        W82512  32.115  19.725  14.319
23076W        W82513   4.884  29.629   1.442
23077W        W82514  12.244  40.440  12.986
23078W        W82515  17.769  10.815  14.281
23079W        W82516  34.900   9.864   2.744
23080W        W82517  37.576  11.740   1.811
23081W        W82518  41.493  10.867  13.384
23082W        W82519  40.544  17.568   2.884
23083W        W82520  41.340   5.827  11.609
23084W        W82521  18.777  22.662  12.537
23085W        W82522  35.875  16.588   1.746
23086W        W82523  37.374  37.576  10.984
23087W        W82524  35.580  38.538  13.047
23088W        W82525  42.967   6.207   2.287
23089W        W82526  14.134  42.994  14.314
23090W        W82527  11.733  12.712  14.965
23091W        W82528  13.733  13.718   3.835
23092W        W82529  28.617  39.941   1.356
23093W        W82530  22.206  41.861  11.605
23094W        W82531  23.009  39.404  14.485
23095W        W82532  33.487  14.728   0.364
23096W        W82533  29.617  20.116   3.208
23097W        W82534  30.026  20.625  14.495
23098W        W82535  29.636  34.469   3.749
23099W        W82536  26.110  10.789   1.816
23100W        W82537  38.921  31.990   0.883
23101W        W82538  32.902   1.935  11.983
23102W        W82539  20.182  20.192  11.494
23103W        W82540  23.662  17.700   3.242
23104W        W82541   9.378  27.573  11.971
23105W        W82542  29.004  42.288  11.551
23106W        W82543  11.319  26.489  10.519
23107W        W82544  26.057  40.433  13.992
23108W        W82545  17.136  41.834  13.968
23109W        W82546  35.393  13.716  10.912
23110W        W82547   0.476  37.515  12.850
23111W        W82548  27.118  30.591  10.915
23112W        W82549  17.676  22.206   2.316
23113W        W82550  24.006  23.558  14.954
23114W        W82551  24.138  43.489  13.411
23115W        W82552  40.870  11.719   4.597
23116W        W82553  21.546  26.027  13.837
23117W        W82554   4.762  13.707   4.597
23118W        W82555  29.557  41.036  14.406
23119W        W82556  43.965  17.294   4.160
23120W        W82557   4.311  13.719   3.661
23121W        W82558  30.585  21.171   2.337
23122W        W82559  19.740  31.628  12.061
23123W        W82560  20.535  29.106  13.009
23124W        W82561   1.415  31.954   2.251
23125W        W82562   9.802  24.533  13.548
23126W        W82563   5.878   2.765  14.467
23127W        W82564  28.098  19.646   2.788
23128W        W82565  37.445  27.053   0.879
23129W        W82566  18.223  13.328   1.314
23130W        W82567  25.689   3.252  14.869
23131W        W82568  26.554   6.743  14.016
23132W        W82569   7.676  38.408   4.744
23133W        W82570  31.940  32.955   0.270
23134W        W82571  35.040  33.974  13.857
23135W        W82572  15.767  29.574   1.804
23136W        W82573   6.204  18.566   1.833
23137W        W82574  30.459  20.540   3.180
23138W        W82575  13.822  37.505   0.363
23139W        W82576  36.398   0.434   1.756
23140W        W82577   3.437  10.878  12.425
23141W        W82578  35.999  23.102  11.443
23142W        W82579  39.029   3.947  10.577
23143W        W82580  34.397  23.148  11.497
23144W        W82581   4.305  43.888  10.584
23145W        W82582  43.951  26.636   0.352
23146W        W82583  42.886  40.494   0.319
23147W        W82584  18.695  34.921  13.954
23148W        W82585  25.098  28.046  14.283
23149W        W82586  15.231  11.164   4.721
23150W        W82587  28.040  31.462   0.740
23151W        W82588  37.401   1.459   2.266
23152W        W82589  44.919  43.905  12.431
23153W        W82590  20.748  42.464   1.766
23154W        W82591  40.991  15.207   0.777
23155W        W82592   8.838  12.228   1.699
23156W        W82593  43.421  16.078  10.963
23157W        W82594   2.745  17.588   0.438
23158W        W82595   2.366  42.026  14.957
23159W        W82596  28.956  19.554   1.275
23160W        W82597  32.520  10.695   4.607
23161W        W82598  40.424  34.568  13.966
23162W        W82599  31.465   6.419   3.629
23163W        W82600  36.432  20.271  10.495
23164W        W82601  11.756  36.899   0.453
23165W        W82602   6.314   1.378   2.676
23166W        W82603  35.576  28.184  13.829
23167W        W82604  17.570   8.728  10.950
23168W        W82605  16.230  38.824   5.238
23169W        W82606   6.388  39.991  10.037
23170W        W82607   4.437   5.803  13.039
23171W        W82608  33.458  30.026   3.870
23172W        W82609  29.549   2.753  14.320
23173W        W82610  23.229  25.576  13.936
23174W        W82611  17.108  19.699   3.668
23175W        W82612  10.162  39.401  11.474
23176W        W82613  41.973  32.106  10.064
23177W        W82614  12.306  42.877   3.259
23178W        W82615  25.512  41.407  12.878
23179W        W82616  40.347   7.829  11.045
23180W        W82617   6.739  40.954  12.496
23181W        W82618   3.919   4.419  11.583
23182W        W82619  23.645  21.620   3.277
23183W        W82620   7.381  35.950   4.776
23184W        W82621  14.330   7.256   1.730
23185W        W82622  16.296  43.966   0.369
23186W        W82623  11.145   1.419   3.328
23187W        W82624  25.551  23.197  14.305
23188W        W82625   7.410   3.935   2.765
23189W        W82626  16.268  29.157  11.862
23190W        W82627  22.060  16.706   0.396
23191W        W82628  12.729  31.644   0.340
23192W        W82629   8.730  21.250   0.788
23193W        W82630  25.552   0.833  13.823
23194W        W82631   9.236   9.326  12.055
23195W        W82632  20.036   8.839  12.867
23196W        W82633  30.579  24.074   3.841
23197W        W82634  24.596  41.337   0.744
23198W        W82635  28.568   2.755   3.714
23199W        W82636  14.833  12.676  11.079
23200W        W82637  32.424  35.043   2.192
23201W        W82638  31.970  20.110  10.622
23202W        W82639  35.968  37.538  11.118
23203W        W82640  42.961   8.280  11.937
23204W        W82641  36.063   7.244  10.404
23205W        W82642  44.870  32.998   3.658
23206W        W82643  31.485  31.412  13.889
23207W        W82644  31.639  34.934  14.423
23208W        W82645   6.365   9.789  12.449
23209W        W82646   6.222  23.082   2.379
23210W        W82647  13.767  22.066  14.028
23211W        W82648  13.640   3.267  12.390
23212W        W82649  15.822   4.381  11.405
23213W        W82650   8.356  33.019  10.610
23214W        W82651  44.977   7.835  12.938
23215W        W82652  43.304   8.220  12.913
23216W        W82653   4.782  37.467   3.677
23217W        W82654   7.874  16.085  12.048
23218W        W82655  35.596   9.205  10.911
23219W        W82656  42.027  11.250  11.022
23220W        W82657  27.078   5.271  11.495
23221W        W82658  33.962  10.185   4.128
23222W        W82659  29.038  19.654   2.195
23223W        W82660  22.708  43.398   0.410
23224W        W82661  19.618  27.077  13.908
23225W        W82662   1.254  30.084  10.964
23226W        W82663   4.368  16.591   1.357
23227W        W82664  24.506  20.037  14.804
23228W        W82665  29.962  29.608   1.236
23229W        W82666  26.504  21.580   3.175
23230W        W82667  41.411  20.070  13.041
23231W        W82668  34.864  31.567  12.458
23232W        W82669  36.453   1.417   3.235
23233W        W82670  14.807  26.006   3.260
23234W        W82671  10.711  12.669  12.341
23235W        W82672  33.106  12.793   3.643
23236W        W82673  29.122  14.804  10.426
23237W        W82674  42.818  39.889   1.919
23238W        W82675  21.062  33.036  12.472
23239W        W82676  30.595   2.296   1.382
23240W        W82677   2.909  19.603  10.982
23241W        W82678  35.581  10.711   4.324
23242W        W82679  31.091  12.350  10.618
23243W        W82680   7.206  29.923  13.816
23244W        W82681  42.849  38.547  11.458
23245W        W82682   0.892   5.694  11.949
23246W        W82683  23.136  34.462   4.205
23247W        W82684  26.539  25.591   1.816
23248W        W82685  41.980  25.662   1.222
23249W        W82686  12.326  14.175  13.850
23250W        W82687  29.112  25.038  12.942
23251W        W82688  34.401  11.822   2.397
23252W        W82689  27.555  34.572   1.290
23253W        W82690   2.809  19.078  14.329
23254W        W82691  42.775   2.451   4.711
23255W        W82692  20.238  33.112  11.031
23256W        W82693  43.014   8.676  14.277
23257W        W82694  27.145  37.943  10.014
23258W        W82695  41.798   6.383   2.333
23259W        W82696  36.481  31.104  11.093
23260W        W82697  32.590  12.671  14.343
23261W        W82698  17.623  44.814  11.495
23262W        W82699  32.479  12.340   0.443
23263W        W82700  20.593   8.782  14.980
23264W        W82701  18.753  42.410  13.398
23265W        W82702   1.776   8.765   1.303
23266W        W82703   1.838  28.145  13.035
23267W        W82704  28.119  29.455  14.777
23268W        W82705  37.489  19.612  11.396
23269W        W82706   2.362  13.678  12.449
23270W        W82707   0.811  41.329  12.013
23271W        W82708  44.009  29.999   0.263
23272W        W82709   1.961  21.154   3.782
23273W        W82710  42.869   9.752   0.911
23274W        W82711  37.967   3.799   4.773
23275W        W82712  25.658  15.730   2.691
23276W        W82713  29.964   7.231  14.279
23277W        W82714  16.087  18.587  14.994
23278W        W82715  20.272  44.800   3.208
23279W        W82716   9.886  21.628  11.577
23280W        W82717  21.081  44.867   2.784
23281W        W82718  19.562  26.694  13.857
23282W        W82719  23.120  43.437  10.545
23283W        W82720   1.855  17.620  12.068
23284W        W82721  15.817  30.574  11.028
23285W        W82722  41.801  27.601   2.764
23286W        W82723  11.293   6.705  13.834
23287W        W82724  39.000  27.188  14.828
23288W        W82725   9.198  15.238   4.607
23289W        W82726  25.106  22.067  13.471
23290W        W82727  31.443  22.057   9.953
23291W        W82728  31.100  14.788  13.326
23292W        W82729  20.693   3.255   4.154
23293W        W82730   0.321  12.735  12.409
23294W        W82731  42.821   8.801   3.771
23295W        W82732  43.494   5.423   2.735
23296W        W82733  44.997  30.954  10.409
23297W        W82734  21.101  41.350  11.887
23298W        W82735   8.760  34.090   2.686
23299W        W82736  25.161  26.525   3.327
23300W        W82737  31.413   3.871   1.317
23301W        W82738  17.154  11.318  10.999
23302W        W82739   7.178  38.332   0.741
23303W        W82740  27.620   9.212   1.757
23304W        W82741  32.472  39.483   2.763
23305W        W82742   6.416   0.485   1.912
23306W        W82743  13.674  12.245   2.293
23307W        W82744  39.862  20.068  10.912
23308W        W82745  21.036  39.448  13.815
23309W        W82746  15.779  25.696   3.268
23310W        W82747  12.246  32.077  11.447
23311W        W82748  21.170  29.076   4.253
23312W        W82749  31.643  26.132   3.649
23313W        W82750  23.097  11.353   1.815
23314W        W82751  23.138  34.942  12.840
23315W        W82752  36.092  43.351  10.989
23316W        W82753  37.001   3.932  14.314
23317W        W82754  23.563  24.201  12.018
23318W        W82755  31.094  18.682   0.899
23319W        W82756  12.657  17.124   0.337
23320W        W82757  42.495  20.051  11.376
23321W        W82758  37.996   7.263   4.670
23322W        W82759  25.095  18.124   3.335
23323W        W82760  33.586  15.690  13.322
23324W        W82761   6.273  15.276   0.885
23325W        W82762  26.139   6.784   4.795
23326W        W82763  44.286  22.089   4.754
23327W        W82764   0.447  31.907   3.746
23328W        W82765  42.031   4.730   0.907
23329W        W82766  37.350  34.041   1.898
23330W        W82767   5.778   3.435   4.711
23331W        W82768  10.701   8.889  13.493
23332W        W82769  35.551  10.659  10.520
23333W        W82770   0.936  15.594   5.204
23334W        W82771  28.976  15.715   4.240
23335W        W82772  24.064   4.251   3.862
23336W        W82773  44.917  44.473  13.389
23337W        W82774  19.762  25.588   0.954
23338W        W82775  19.715  13.656   1.415
23339W        W82776  34.486  36.953   0.771
23340W        W82777  13.331  25.071   3.699
23341W        W82778  17.557  28.987  14.773
23342W        W82779  20.645  21.675  10.495
23343W        W82780  43.457  11.285   4.735
23344W        W82781  25.678  19.688  11.864
23345W        W82782  12.828   2.873  12.848
23346W        W82783  36.012  29.109  14.496
23347W        W82784  38.983   7.340   5.134
23348W        W82785  24.540  11.759   3.792
23349W        W82786   4.889   6.357  13.883
23350W        W82787  44.984  25.562  14.805
23351W        W82788  23.030  33.552   0.868
23352W        W82789  25.051  10.823   2.279
23353W        W82790  31.948  44.455   2.845
23354W        W82791  16.131  34.391   3.332
23355W        W82792  29.107   7.823  13.420
23356W        W82793  35.376  17.239  13.997
23357W        W82794  17.241  20.526  14.412
23358W        W82795   4.330   9.661  14.828
23359W        W82796  42.371  41.359   1.238
23360W        W82797  12.323  31.064  12.826
23361W        W82798  43.842  23.589   3.258
23362W        W82799  38.971  16.278  10.932
23363W        W82800  10.843  41.406  12.019
23364W        W82801  30.951  28.483  12.566
23365W        W82802  31.111   0.433  12.082
23366W        W82803  18.092   9.775   3.333
23367W        W82804  39.416  25.577  13.945
23368W        W82805  35.905  36.961  12.973
23369W        W82806  22.669   9.339   1.851
23370W        W82807   8.673   8.184   1.883
23371W        W82808  20.700   5.795   4.222
23372W        W82809  25.614   4.363  11.438
23373W        W82810  37.082   6.789  13.059
23374W        W82811   1.449  43.313   4.319
23375W        W82812  30.038  40.321   0.834
23376W        W82813  20.620  26.206  12.382
23377W        W82814  11.766  32.100  14.878
23378W        W82815  26.641  18.196  13.444
23379W        W82816   0.859   4.938   4.598
23380W        W82817  25.605  39.852   1.387
23381W        W82818   9.669  25.188  10.889
23382W        W82819  26.008   9.833  14.837
23383W        W82820  21.232  19.279  14.838
23384W        W82821   1.317  35.907  11.406
23385W        W82822  23.678  28.504   0.744
23386W        W82823  35.108  18.198   4.258
23387W        W82824   0.902  19.669   4.665
23388W        W82825   2.416  20.191   0.313
23389W        W82826  28.095  33.398  12.348
23390W        W82827   6.680  31.566   1.352
23391W        W82828  33.584   4.243   4.696
23392W        W82829   4.392   7.719   3.698
23393W        W82830  32.429  13.172  13.969
23394W        W82831   4.331  17.557  13.324
23395W        W82832  44.268   6.203   2.290
23396W        W82833  42.288   1.815   4.639
23397W        W82834  26.095  41.348   2.751
23398W        W82835  11.252  13.703  10.596
23399W        W82836  28.493  10.649  13.897
23400W        W82837  36.925  23.993  13.927
23401W        W82838  35.593  16.772  13.961
23402W        W82839  23.699  42.506  13.364
23403W        W82840  28.653   7.217  13.511
23404W        W82841  42.324  27.171   4.787
23405W        W82842  15.186   7.266  14.426
23406W        W82843   7.414  20.114   2.757
23407W        W82844  36.088  33.517  14.886
23408W        W82845   3.246  39.981   3.658
23409W        W82846   0.305  30.914   2.744
23410W        W82847   8.742  10.143   4.752
23411W        W82848   8.299   1.319   0.748
23412W        W82849  11.856  31.539  14.943
23413W        W82850  36.477  29.589   4.309
23414W        W82851  33.458  16.639   3.299
23415W        W82852  37.354  21.689  12.363
23416W        W82853   7.825  24.046  12.075
23417W        W82854  23.074   5.332   2.796
23418W        W82855  12.613  14.298   0.415
23419W        W82856  27.191  25.972   1.735
23420W        W82857  43.348  15.637   1.282
23421W        W82858  26.984  11.832   1.237
23422W        W82859  20.134   4.343   3.188
23423W        W82860  13.259   8.900   3.652
23424W        W82861   8.298  35.399  13.963
23425W        W82862  23.036  42.819  13.432
23426W        W82863  24.485  18.587  12.898
23427W        W82864   6.213   5.338  12.385
23428W        W82865  28.619  40.023   3.187
23429W        W82866   9.719  33.069  14.440
23430W        W82867  34.062  36.416  13.803
23431W        W82868  43.897  36.569  14.971
23432W        W82869  34.876  39.487  13.793
23433W        W82870  39.331  31.593  10.515
23434W        W82871  38.832  24.545  14.931
23435W        W82872  11.143  34.451   1.437
23436W        W82873  42.454   4.868  11.458
23437W        W82874  10.190  21.664   3.655
23438W        W82875  33.472  37.568  11.924
23439W        W82876   4.784  20.705   0.811
23440W        W82877  27.554  11.786   0.242
23441W        W82878  34.577  25.160   2.882
23442W        W82879  44.498  34.913   4.624
23443W        W82880   9.771  36.018  14.883
23444W        W82881  44.783  10.830   1.326
23445W        W82882   9.282  29.082  11.889
23446W        W82883  10.725  40.044   3.799
23447W        W82884  14.721  41.381  12.833
23448W        W82885   5.278  14.662   0.744
23449W        W82886  33.595  32.582  10.102
23450W        W82887  22.510  38.369  14.357
23451W        W82888  39.963  14.198  12.361
23452W        W82889   5.804  29.079  12.938
23453W        W82890  17.717   7.736  14.020
23454W        W82891  43.288  18.211  11.976
23455W        W82892  32.403  11.255  12.988
23456W        W82893  43.386  17.262  12.976
23457W        W82894  16.153  14.280   0.890
23458W        W82895  23.175   1.476  10.589
23459W        W82896  17.216  41.355  14.902
23460W        W82897  19.261  38.874  14.850
23461W        W82898  28.511  20.130  11.891
23462W        W82899  36.396   5.873  10.020
23463W        W82900  42.517   6.209  13.893
23464W        W82901   5.319  44.422  14.418
23465W        W82902  40.441  32.102   4.626
23466W        W82903  10.314  33.063   2.373
23467W        W82904  28.548  31.045  11.937
23468W        W82905  21.591  15.184  11.100
23469W        W82906  29.446  31.955   1.314
23470W        W82907  29.546  38.423   4.153
23471W        W82908  23.210   2.762  10.410
23472W        W82909  19.280   2.458  12.000
23473W        W82910   9.670  39.989  13.941
23474W        W82911  34.890   5.838   2.798
23475W        W82912  16.789  35.376   2.775
23476W        W82913  34.014  12.223  14.411
23477W        W82914  14.762   4.925  14.939
23478W        W82915  44.483  19.693   1.318
23479W        W82916  19.128  23.559  12.975
23480W        W82917   2.881   6.341   2.389
23481W        W82918  39.331  13.265   3.715
23482W        W82919  33.056  16.314   1.236
23483W        W82920  24.609  43.889   0.323
23484W        W82921  18.677  20.707  11.972
23485W        W82922   1.796  17.740   2.407
23486W        W82923   5.886  33.104   4.630
23487W        W82924   3.879  12.789   9.516
23488W        W82925  31.113  14.185   1.282
23489W        W82926  10.273  33.510   1.422
23490W        W82927  38.533  36.087  12.340
23491W        W82928  38.468  19.608   4.215
23492W        W82929  35.591   8.271  11.942
23493W        W82930   9.245  13.210   3.802
23494W        W82931  27.617  41.298  11.943
23495W        W82932  32.485  14.329   5.256
23496W        W82933  19.642  36.983   2.691
23497W        W82934  27.624  34.440  14.301
23498W        W82935   6.731  10.204  11.939
23499W        W82936  21.211  11.261  12.910
23500W        W82937  41.840  26.688   4.779
23501W        W82938  42.980   3.852   4.294
23502W        W82939  44.365  21.619   1.256
23503W        W82940  20.701  19.125   2.198
23504W        W82941  16.670  29.425  12.980
23505W        W82942   3.409  19.100   3.173
23506W        W82943  27.524  20.604  13.357
23507W        W82944  24.654  28.521   4.323
23508W        W82945   3.321  31.138  11.022
23509W        W82946  43.459  28.112   2.794
23510W        W82947   2.872  23.595   1.384
23511W        W82948  17.137  20.646   4.135
23512W        W82949  34.496  41.920   0.868
23513W        W82950  15.734  15.177  11.083
23514W        W82951  34.055  31.981   9.989
23515W        W82952  25.711  30.951   0.785
23516W        W82953   1.415  10.235   4.341
23517W        W82954   0.969  20.116   4.780
23518W        W82955  20.263  27.476  13.487
23519W        W82956  36.565  14.730   4.143
23520W        W82957  20.105  34.017  11.594
23521W        W82958   9.351   2.277  13.542
23522W        W82959  22.676  20.749  11.062
23523W        W82960  44.865  25.516  13.797
23524W        W82961   7.863  38.550   0.404
23525W        W82962  26.147  32.492   4.660
23526W        W82963  37.947  36.440   2.408
23527W        W82964  28.612  16.263   4.213
23528W        W82965   3.809  14.816   0.427
23529W        W82966  35.584  29.924   2.887
23530W        W82967  24.093   0.755  13.982
23531W        W82968  24.652   7.205   0.788
23532W        W82969  38.553  30.556   2.835
23533W        W82970  28.075  32.052  11.513
23534W        W82971  11.267   6.284  14.439
23535W        W82972  21.030  33.072  14.987
23536W        W82973  27.536  26.646   3.722
23537W        W82974  18.634  32.954   1.346
23538W        W82975   2.385  21.595   3.662
23539W        W82976  22.709  41.875   4.610
23540W        W82977  40.879  38.360  13.950
23541W        W82978  28.064   6.191   1.387
23542W        W82979  38.394  40.023  11.003
23543W        W82980  27.138  38.341   3.694
23544W        W82981  27.163  11.723  11.580
23545W        W82982  20.740  44.458  12.527
23546W        W82983  19.654  31.444   1.828
23547W        W82984  32.090   1.949   4.185
23548W        W82985  10.739  22.147   3.859
23549W        W82986  22.025  11.165   9.642
23550W        W82987  13.272  40.920  11.057
23551W        W82988  11.730  18.737  11.438
23552W        W82989   8.672  24.709  12.419
23553W        W82990  27.096  41.994  12.485
23554W        W82991  18.211  31.591  12.876
23555W        W82992  20.062  10.274  11.455
23556W        W82993  35.474   2.297   4.302
23557W        W82994  30.137  38.392  10.933
23558W        W82995   6.264  20.264   2.193
23559W        W82996  17.677   8.864  12.519
23560W        W82997   2.313   6.902  12.872
23561W        W82998   6.362  44.367  12.083
23562W        W82999   8.774  44.350  11.043
23563W        W83000   6.418   9.259   1.849
23564W        W83001  30.513   6.405   3.270
23565W        W83002  23.609  15.325  10.439
23566W        W83003  20.541  33.499  13.447
23567W        W83004  28.043  39.372  10.498
23568W        W83005  31.596  44.983  14.954
23569W        W83006  33.516  37.874   1.268
23570W        W83007  26.142   9.710  11.025
23571W        W83008  22.012  39.404   0.448
23572W        W83009  23.113  17.170   0.395
23573W        W83010  24.008  35.937  13.321
23574W        W83011  40.394  31.081   3.731
23575W        W83012  13.339  39.395   0.915
23576W        W83013  23.219  12.734   2.808
23577W        W83014   1.913  10.829  12.869
23578W        W83015   7.247  17.746   3.243
23579W        W83016  41.810  43.361   4.333
23580W        W83017   4.360  26.980   0.447
23581W        W83018  19.740   3.421  14.379
23582W        W83019  34.032   9.834   1.287
23583W        W83020  30.995  13.338  13.990
23584W        W83021   4.250  25.676   1.212
23585W        W83022  42.924  11.699   4.775
23586W        W83023  37.520  17.574  13.962
23587W        W83024   5.235  28.053  14.904
23588W        W83025   5.230   2.267  10.944
23589W        W83026   8.333  33.014  14.465
23590W        W83027  12.233  44.265   3.810
23591W        W83028  14.099  44.472  14.782
23592W        W83029   6.902  20.113   2.395
23593W        W83030  37.903  20.230  10.459
23594W        W83031  10.384  30.576  11.426
23595W        W83032  31.404  31.961  13.029
23596W        W83033  37.439  35.585   1.849
23597W        W83034  41.311  40.516   1.225
23598W        W83035  43.379  31.414   4.725
23599W        W83036  34.490  25.128  13.344
23600W        W83037   8.901  41.518  13.416
23601W        W83038   8.162  18.137   1.726
23602W        W83039   7.840   2.342   2.198
23603W        W83040  11.789  37.867   4.113
23604W        W83041  14.335   8.666  10.066
23605W        W83042  32.913  14.115   2.397
23606W        W83043  19.177  38.326  10.573
23607W        W83044   6.779  31.576  11.447
23608W        W83045  31.508  28.666   4.758
23609W        W83046   8.760  29.427  11.427
23610W        W83047  25.117  33.584  14.816
23611W        W83048  30.974  37.434   9.931
23612W        W83049  36.848  36.916  13.530
23613W        W83050  42.864   8.288  10.898
23614W        W83051  11.820  36.469  10.892
23615W        W83052  42.291  30.983  14.967
23616W        W83053  34.984  32.508  12.062
23617W        W83054  28.068  29.521  12.418
23618W        W83055  44.296  27.653  14.457
23619W        W83056   6.687   4.722  11.920
23620W        W83057  22.571   2.399  12.875
23621W        W83058   2.401   4.277   2.266
23622W        W83059  20.165   6.846  11.109
23623W        W83060  42.780  31.587  14.790
23624W        W83061  17.632  31.962   0.333
23625W        W83062  23.708  35.562   2.384
23626W        W83063  44.004  39.509   2.744
23627W        W83064  22.162  38.346   1.731
23628W        W83065  43.912  14.152  10.558
23629W        W83066  11.625  27.479  10.626
23630W        W83067  14.809   2.374  14.488
23631W        W83068   0.761  29.626   0.805
23632W        W83069  11.799  19.191  11.566
23633W        W83070  27.649  26.195  13.435
23634W        W83071  21.574  37.950   2.350
23635W        W83072   9.183  23.649   4.655
23636W        W83073   8.844  26.671   3.282
23637W        W83074  35.057   0.365   2.379
23638W        W83075  17.106  28.122  14.443
23639W        W83076  32.426  27.998  11.436
23640W        W83077  36.042  25.519  11.903
23641W        W83078  23.060  20.143  11.375
23642W        W83079  33.488  23.530  11.926
23643W        W83080  25.511  37.057  13.355
23644W        W83081  30.002  41.965  14.396
23645W        W83082  33.616  44.409  11.884
23646W        W83083   6.369  33.398  13.322
23647W        W83084  35.954  28.556  12.037
23648W        W83085  31.154  24.207  11.116
23649W        W83086   7.760  17.696  14.420
23650W        W83087  24.128   3.868  13.460
23651W        W83088  42.468  11.817  12.471
23652W        W83089   7.278  30.566   0.411
23653W        W83090  17.682  21.073   4.309
23654W        W83091  11.786   2.241   2.783
23655W        W83092  34.372  30.137  13.537
23656W        W83093  21.734  26.071  10.426
23657W        W83094  12.137  35.381  13.522
23658W        W83095  11.244  17.730  14.287
23659W        W83096  32.593  22.049  10.593
23660W        W83097  37.037  20.099  12.927
23661W        W83098  38.989  29.014  10.039
23662W        W83099  21.063  40.900   3.166
23663W        W83100  22.505   1.296  10.546
23664W        W83101   2.399  26.052  10.928
23665W        W83102  44.338  10.638   3.362
23666W        W83103   4.717  24.604   4.730
23667W        W83104  27.145   7.363  11.474
23668W        W83105  35.495   1.392   2.392
23669W        W83106  36.377  21.036  10.447
23670W        W83107  12.361  37.007  14.030
23671W        W83108   6.691  22.158  13.832
23672W        W83109  32.527   1.882  13.402
23673W        W83110   9.798  21.104  11.572
23674W        W83111   8.228   2.369   2.394
23675W        W83112  30.995  12.215   3.309
23676W        W83113  18.741  23.560   3.737
23677W        W83114  15.774  41.867   2.693
23678W        W83115  22.707  37.065   2.378
23679W        W83116  35.962  29.484   0.413
23680W        W83117  29.523  24.140   3.268
23681W        W83118  32.459  34.423  11.397
23682W        W83119   8.692  32.414  11.500
23683W        W83120   3.771  14.227   1.392
23684W        W83121   9.158  30.085  11.090
23685W        W83122  24.585  38.341  14.392
23686W        W83123  39.936   4.750   2.718
23687W        W83124  18.655   9.778  13.956
23688W        W83125  16.617   9.151   0.270
23689W        W83126   1.379  19.776   3.848
23690W        W83127  10.664  43.813   0.332
23691W        W83128  38.392  44.782   0.748
23692W        W83129  42.855  43.876   1.260
23693W        W83130  35.950  38.873  14.952
23694W        W83131  35.584  44.901   0.458
23695W        W83132  14.307  18.558   1.388
23696W        W83133   9.805  29.946   4.293
23697W        W83134  33.623   5.843   3.344
23698W        W83135  35.594  40.341  11.610
23699W        W83136   0.831  42.383   3.660
23700W        W83137  42.939  15.655  12.016
23701W        W83138  12.128   0.916  11.042
23702W        W83139  33.075   0.322   1.264
23703W        W83140   9.321  37.338  11.859
23704W        W83141  20.630  40.382   0.730
23705W        W83142  31.080  43.945  12.079
23706W        W83143   5.240  19.071  10.906
23707W        W83144  39.502  17.255   4.603
23708W        W83145  34.960  24.651   4.746
23709W        W83146  17.619  36.573  12.063
23710W        W83147  19.091  12.230   4.200
23711W        W83148   8.164  28.586   3.681
23712W        W83149  21.616  32.397   1.835
23713W        W83150  12.260  22.565   2.377
23714W        W83151  11.790  10.859   1.268
23715W        W83152  33.520  44.835  13.458
23716W        W83153   2.472  38.982   0.405
23717W        W83154  12.749  15.209   1.847
23718W        W83155  26.495   5.269  13.935
23719W        W83156  35.423   6.419   1.925
23720W        W83157  11.195   7.866  10.548
23721W        W83158  30.129  30.153  14.282
23722W        W83159  31.517  23.130  14.368
23723W        W83160  19.606  24.136   9.654
23724W        W83161  28.038   1.879  10.485
23725W        W83162  14.166   2.270   2.388
23726W        W83163  25.160   5.732   0.343
23727W        W83164  40.850   2.867  13.820
23728W        W83165  32.507  28.056   3.785
23729W        W83166  27.984  30.624   4.307
23730W        W83167  26.630   8.876  12.518
23731W        W83168  23.628  17.793   4.167
23732W        W83169  36.055  15.190  11.972
23733W        W83170  24.666  14.132  13.385
23734W        W83171  40.452   5.400   0.287
23735W        W83172   7.757  19.078   3.162
23736W        W83173  21.607   0.474  14.978
23737W        W83174  36.911  29.003   0.302
23738W        W83175  42.470  37.574   0.381
23739W        W83176  30.625  11.369  12.068
23740W        W83177  34.609  18.751   1.242
23741W        W83178   0.754  39.876  11.499
23742W        W83179  44.876  31.623   4.721
23743W        W83180   1.337  19.533  12.933
23744W        W83181  21.089   6.799  10.420
23745W        W83182   8.713  19.095   2.191
23746W        W83183   4.891  30.021   4.325
23747W        W83184   5.784  16.682  11.954
23748W        W83185  31.440  14.312  14.867
23749W        W83186   8.232  14.600  14.354
23750W        W83187  10.675  37.349  12.029
23751W        W83188  24.667  17.187  11.116
23752W        W83189  19.773   0.910   1.340
23753W        W83190  38.502   7.828  12.934
23754W        W83191  10.206   4.859   1.307
23755W        W83192   3.377  23.654   9.969
23756W        W83193   7.278   2.358  13.924
23757W        W83194   6.225   3.879   2.235
23758W        W83195  34.610  13.637   1.726
23759W        W83196  25.143  24.008  14.930
23760W        W83197  36.576  24.622   0.891
23761W        W83198  41.354  38.825  14.847
23762W        W83199  35.603  35.499  12.545
23763W        W83200  39.508  26.122  14.430
23764W        W83201   1.775  38.905  11.103
23765W        W83202  28.957  16.191   4.119
23766W        W83203   1.846  19.178   3.167
23767W        W83204  38.867  42.942   1.443
23768W        W83205  37.465  33.989  13.533
23769W        W83206  12.208  29.447   0.838
23770W        W83207   8.658   4.716   5.119
23771W        W83208   7.280  40.467  11.027
23772W        W83209  27.131  35.059  13.018
23773W        W83210  33.926  18.656   4.241
23774W        W83211  30.454  34.551  13.000
23775W        W83212  10.326   2.331   3.346
23776W        W83213  18.636  43.464  11.919
23777W        W83214  37.423  41.910  12.423
23778W        W83215  27.590  17.113   2.248
23779W        W83216  33.511  37.936  12.002
23780W        W83217  21.185  31.427  12.905
23781W        W83218  35.029  10.824  11.004
23782W        W83219  12.786  36.483   1.743
23783W        W83220   3.416  42.787  13.046
23784W        W83221  18.770   5.202  10.940
23785W        W83222  31.520  15.123  12.053
23786W        W83223  31.945  37.966  11.998
23787W        W83224  15.252   8.297  10.940
23788W        W83225  27.607  28.105  12.876
23789W        W83226  32.970  27.102   4.320
23790W        W83227  38.551  27.508  10.900
23791W        W83228  30.115  12.234  11.884
23792W        W83229  27.184  10.688  14.331
23793W        W83230  20.254  19.683   0.738
23794W        W83231  15.696   9.386   4.807
23795W        W83232  24.990  29.107   3.691
23796W        W83233  36.905  44.937  10.510
23797W        W83234  33.012   0.269   3.750
23798W        W83235   1.447   8.895   1.857
23799W        W83236  43.800  43.308   2.302
23800W        W83237  36.357  42.935  11.580
23801W        W83238  13.190   9.289  14.871
23802W        W83239  19.269  37.932   3.188
23803W        W83240  26.560  14.766   1.851
23804W        W83241  14.634  23.505  14.819
23805W        W83242  19.124   8.381   3.324
23806W        W83243  30.499   4.390  14.333
23807W        W83244  41.818   3.767  11.556
23808W        W83245  16.109  26.006  10.465
23809W        W83246  41.974  11.353   2.820
23810W        W83247  43.484  29.944  12.373
23811W        W83248  30.464  39.852   3.651
23812W        W83249  14.606  10.741  10.935
23813W        W83250  43.830  14.145  13.947
23814W        W83251  33.033   1.426  11.386
23815W        W83252   0.251  30.989   4.213
23816W        W83253  37.045   3.917  12.964
23817W        W83254   3.846  33.997   2.202
23818W        W83255  23.557  35.877   3.639
23819W        W83256  34.959  16.714  11.964
23820W        W83257  15.125  16.269   3.197
23821W        W83258  35.578   6.217   2.364
23822W        W83259  38.994  36.000   1.263
23823W        W83260  43.006   0.924   2.406
23824W        W83261  11.232  43.296   4.123
23825W        W83262  34.533  20.719   3.314
23826W        W83263   9.355  10.292   5.186
23827W        W83264  32.626   2.250  12.954
23828W        W83265  25.107  13.299   0.288
23829W        W83266  32.402  12.119   0.917
23830W        W83267   4.388  30.099   0.965
23831W        W83268  22.654   7.790  14.814
23832W        W83269  27.991  21.225   1.339
23833W        W83270  38.402   8.172  13.406
23834W        W83271  36.059  24.605   0.346
23835W        W83272  25.111   5.805  13.003
23836W        W83273  26.471   9.769  13.979
23837W        W83274  26.071   0.749  10.923
23838W        W83275   0.479  10.198   5.265
23839W        W83276  19.104  40.861  12.920
23840W        W83277  15.266  24.090   0.823
23841W        W83278  38.977  20.717  11.066
23842W        W83279   5.839   8.302   4.299
23843W        W83280  19.601   4.322  13.419
23844W        W83281   3.217  33.907  11.452
23845W        W83282  26.531  15.647   1.905
23846W        W83283  30.529  37.520   2.874
23847W        W83284  16.596  17.768   4.352
23848W        W83285  34.960  12.215  11.945
23849W        W83286  39.003  41.531   2.256
23850W        W83287  28.483  13.230  11.995
23851W        W83288  10.706   6.912  14.010
23852W        W83289   0.841  13.107  13.888
23853W        W83290  15.624  23.547   0.934
23854W        W83291  43.920  16.643   1.241
23855W        W83292  32.407  26.529  11.511
23856W        W83293  44.005  33.476  11.481
23857W        W83294  32.520   5.724   4.722
23858W        W83295  39.514  21.614   2.392
23859W        W83296  27.197   3.770  12.873
23860W        W83297  41.370  15.802  13.023
23861W        W83298  44.260  18.287  10.996
23862W        W83299  33.589  23.605   2.375
23863W        W83300   5.802   1.401  11.876
23864W        W83301  15.288  14.667   1.759
23865W        W83302  31.629   3.955  10.892
23866W        W83303  43.954  34.492   1.914
23867W        W83304   4.393  40.431  13.812
23868W        W83305  14.738  34.070  11.074
23869W        W83306  28.478  14.700  14.431
23870W        W83307  11.859  33.098   0.835
23871W        W83308  33.994   3.882  11.937
23872W        W83309  42.912  33.430  13.031
23873W        W83310  29.626  10.782   0.896
23874W        W83311   4.225  26.466  13.465
23875W        W83312   0.380  24.999  12.024
23876W        W83313  15.756  32.089  13.940
23877W        W83314  40.978  32.560  12.974
23878W        W83315  23.539  30.648   4.827
23879W        W83316   6.736  24.990   0.851
23880W        W83317  19.605  36.091   1.321
23881W        W83318  24.004  31.577  14.953
23882W        W83319  30.635  14.162  12.876
23883W        W83320  25.094  14.312   2.698
23884W        W83321   3.449  33.116   4.240
23885W        W83322  14.631   8.226  11.400
23886W        W83323  24.006  31.132   0.315
23887W        W83324  32.038  11.294  11.065
23888W        W83325   4.308  38.351   4.640
23889W        W83326  37.496  30.922   1.262
23890W        W83327  13.611  14.206   4.816
23891W        W83328   5.220  22.249   1.235
23892W        W83329  22.140  18.629   1.848
23893W        W83330  28.491  21.089   2.898
23894W        W83331  12.355  15.634   4.225
23895W        W83332  10.852  17.124  10.502
23896W        W83333  20.740  30.029   2.415
23897W        W83334   3.730  10.338  12.524
23898W        W83335  22.685  10.322  14.987
23899W        W83336  22.076  38.460  14.399
23900W        W83337  40.975  18.623   0.345
23901W        W83338  27.945   5.222  13.341
23902W        W83339  12.299  41.962   2.884
23903W        W83340  18.656   2.262   0.269
23904W        W83341  14.678   6.871   3.355
23905W        W83342  17.120  31.593  12.933
23906W        W83343  40.442   6.811   1.377
23907W        W83344  29.115  20.734  10.952
23908W        W83345  28.971  11.770   0.291
23909W        W83346   8.671  33.418  13.008
23910W        W83347  42.313   0.941  10.967
23911W        W83348  32.026  32.957  14.922
23912W        W83349  35.994  43.894  11.021
23913W        W83350  34.962  35.033  13.373
23914W        W83351   3.755  40.800  12.396
23915W        W83352  12.228  36.417   3.174
23916W        W83353  31.950  29.020   3.296
23917W        W83354  32.403  33.965  12.827
23918W        W83355  20.553  40.507   9.923
23919W        W83356  28.163  31.051  12.828
23920W        W83357  23.662  21.111   3.273
23921W        W83358  11.722  31.591  10.599
23922W        W83359  43.811  36.077  13.345
23923W        W83360  13.605  27.650   4.206
23924W        W83361  18.620  21.062  13.498
23925W        W83362  24.170  10.650   1.809
23926W        W83363  25.593   4.248   2.819
23927W        W83364  42.791  12.158   1.810
23928W        W83365  15.654  16.188  12.928
23929W        W83366  13.813   1.253  14.462
23930W        W83367  42.930  14.803  11.473
23931W        W83368  29.996  27.102   0.737
23932W        W83369   3.905  18.157  11.610
23933W        W83370   4.220  22.218   2.781
23934W        W83371  22.746   0.414   2.761
23935W        W83372  17.717   3.757  13.505
23936W        W83373  40.995  16.655   2.206
23937W        W83374  34.369  31.614  13.886
23938W        W83375   8.394  39.380  10.945
23939W        W83376  14.208  36.033   4.815
23940W        W83377  30.051   4.772  11.951
23941W        W83378  42.908  19.135  13.452
23942W        W83379   6.401  18.756  12.514
23943W        W83380  29.936  34.491   1.362
23944W        W83381   5.714  19.616   4.631
23945W        W83382  28.497  39.876  12.056
23946W        W83383  19.767   0.756   4.348
23947W        W83384  20.167  26.006  10.482
23948W        W83385   0.943  28.935  12.857
23949W        W83386  36.912  29.664  14.897
23950W        W83387  28.021  22.513   0.445
23951W        W83388   1.954  17.074  13.416
23952W        W83389   8.321   6.778  10.434
23953W        W83390  36.509   3.349  11.003
23954W        W83391  29.497  30.646  10.559
23955W        W83392   6.833  18.202  12.508
23956W        W83393   3.830  21.018   9.988
23957W        W83394  41.899   5.706   1.325
23958W        W83395   3.827   8.245   4.746
23959W        W83396  23.022  13.776   1.235
23960W        W83397  30.984  25.173   5.790
23961W        W83398  25.486  31.027  11.958
23962W        W83399   7.365  34.062   3.753
23963W        W83400  27.634  23.092  13.820
23964W        W83401  36.393   2.963  13.882
23965W        W83402  22.707   3.897   2.191
23966W        W83403  42.829   6.182   2.757
23967W        W83404  41.944  20.636  10.498
23968W        W83405  14.725  19.646   2.848
23969W        W83406  21.104   7.900  14.286
23970W        W83407  28.067  11.348  10.092
23971W        W83408  20.636  19.654   4.158
23972W        W83409   1.752  17.167   0.271
23973W        W83410  14.187   2.388   0.415
23974W        W83411  17.747  30.458  14.008
23975W        W83412  19.680   7.195  12.367
23976W        W83413  15.671  31.593  10.140
23977W        W83414   0.427   2.300  12.568
23978W        W83415  20.242  44.496  12.840
23979W        W83416  36.073   9.287   0.955
23980W        W83417  40.415   4.923  13.811
23981W        W83418  26.654  28.518   3.257
23982W        W83419  11.750  20.643  14.477
23983W        W83420  19.538  43.487  14.388
23984W        W83421  17.761  33.464  14.889
23985W        W83422  43.449  29.111   2.305
23986W        W83423   7.765  17.154   2.284
23987W        W83424  12.332  14.746  14.961
23988W        W83425  35.402  35.487   1.422
23989W        W83426  21.702  29.596  13.336
23990W        W83427   1.870  27.640   1.813
23991W        W83428   1.771   6.836   3.688
23992W        W83429  18.219  41.445  13.959
23993W        W83430  24.981   9.867   2.675
23994W        W83431   5.346  44.924   2.212
23995W        W83432  13.258  42.814  11.408
23996W        W83433  11.299  26.553   0.391
23997W        W83434  42.993  20.584   3.332
23998W        W83435  18.649   5.373   3.342
23999W        W83436  37.059  33.938  14.338
24000W        W83437  38.909   4.329  12.984
24001W        W83438  31.980  15.283  14.997
24002W        W83439  42.834  15.089  11.988
24003W        W83440  25.494  31.969   0.874
24004W        W83441  10.817   9.686   0.728
24005W        W83442  10.697  39.958   2.840
24006W        W83443   3.331  11.692   3.639
24007W        W83444  25.577  23.997   2.844
24008W        W83445  17.574  43.972  12.002
24009W        W83446  33.491   4.711   1.772
24010W        W83447  44.397   8.821   4.785
24011W        W83448  17.239   8.787   5.227
24012W        W83449   5.254   3.355  14.456
24013W        W83450   9.793  19.190   1.320
24014W        W83451  39.523  42.464   4.716
24015W        W83452   3.847  34.519  13.307
24016W        W83453   6.293   8.676   4.760
24017W        W83454   3.850  11.249   0.923
24018W        W83455   8.877  30.631  13.926
24019W        W83456   7.726  31.607  12.881
24020W        W83457  14.670  44.920  11.099
24021W        W83458   7.731  25.078   3.755
24022W        W83459  30.532  42.848   4.689
24023W        W83460   5.337  22.558  10.892
24024W        W83461  41.353  34.050   4.666
24025W        W83462   1.835  42.919   5.258
24026W        W83463  33.546  43.332  12.545
24027W        W83464  17.666  41.454   5.153
24028W        W83465  40.441  30.472  10.003
24029W        W83466  30.956  14.773  12.533
24030W        W83467  37.928  24.573   2.298
24031W        W83468  21.611  31.068   3.157
24032W        W83469  31.494  20.704  11.537
24033W        W83470   2.722  26.671  13.456
24034W        W83471  40.965  17.694   3.197
24035W        W83472   7.273  26.189  11.456
24036W        W83473  38.568  27.102  11.893
24037W        W83474  20.134  24.163   1.340
24038W        W83475  26.466  13.657   0.419
24039W        W83476  18.083  21.189  11.962
24040W        W83477  39.533  20.129  10.997
24041W        W83478  14.103  25.686  13.315
24042W        W83479  11.650  33.042  10.442
24043W        W83480  42.821   9.840  11.126
24044W        W83481  43.873  27.502   4.642
24045W        W83482   3.883   5.816   2.343
24046W        W83483  11.852  21.195  13.934
24047W        W83484  11.804  25.656   9.978
24048W        W83485  18.285  29.158   4.675
24049W        W83486   3.220  35.935  13.796
24050W        W83487  16.683  11.159  14.476
24051W        W83488  44.494  21.525   1.800
24052W        W83489  13.331  26.648  11.878
24053W        W83490  43.848  15.296   0.732
24054W        W83491  29.499  17.107  11.463
24055W        W83492  21.197  27.642  10.611
24056W        W83493   1.402  22.524   0.333
24057W        W83494  23.160  10.253  11.376
24058W        W83495  10.862  20.275   4.181
24059W        W83496  25.613  20.627   0.903
24060W        W83497   6.800  41.427   1.381
24061W        W83498  36.954  20.595  13.053
24062W        W83499   0.278  32.452   3.192
24063W        W83500  19.575  17.706   3.805
24064W        W83501  30.471   1.337   4.722
24065W        W83502  33.060  31.519  12.905
24066W        W83503   9.754  28.619   2.181
24067W        W83504  21.225   5.246   0.473
24068W        W83505   8.302   2.952  10.953
24069W        W83506  34.499   9.715  13.318
24070W        W83507  19.615  35.909   1.887
24071W        W83508  12.281  28.961   4.706
24072W        W83509  24.059  22.130  14.791
24073W        W83510  40.832  11.191  11.413
24074W        W83511   4.909  21.745   4.836
24075W        W83512  23.004  23.158  12.438
24076W        W83513  13.169  43.343  13.444
24077W        W83514  39.900  41.960  13.399
24078W        W83515  44.005  24.057   0.884
24079W        W83516   0.895  15.215   3.204
24080W        W83517  21.019  23.629  10.924
24081W        W83518  39.935  21.566  12.078
24082W        W83519  20.040   6.680  13.400
24083W        W83520  26.630   6.737   3.179
24084W        W83521  38.834  27.082  11.118
24085W        W83522  11.752  10.779  11.434
24086W        W83523  39.979   8.808  11.463
24087W        W83524  23.083  39.989  12.527
24088W        W83525  25.511  11.277   4.834
24089W        W83526   9.242   7.392   1.275
24090W        W83527   5.787   6.872   0.381
24091W        W83528  10.150  34.593  12.999
24092W        W83529   0.294   3.804  12.463
24093W        W83530  18.192  36.531  11.127
24094W        W83531  39.503   8.852   0.804
24095W        W83532   4.806  10.877  12.486
24096W        W83533  43.377  24.095   3.792
24097W        W83534   1.920  44.943   2.229
24098W        W83535  32.048  13.745   1.903
24099W        W83536   1.465   5.927   0.736
24100W        W83537  33.064  30.028  13.444
24101W        W83538  14.636  41.916  13.812
24102W        W83539  20.533  30.435  13.418
24103W        W83540  12.302  23.713   3.667
24104W        W83541  15.675   8.819   3.327
24105W        W83542  29.571  24.528  12.012
24106W        W83543  33.085  22.110  13.021
24107W        W83544   8.735  38.365  14.311
24108W        W83545   1.735  44.327  14.891
24109W        W83546  32.902  40.475   3.338
24110W        W83547   0.432  21.518   2.278
24111W        W83548  35.939  33.951  10.536
24112W        W83549  19.255  16.222   1.328
24113W        W83550  11.715  37.042  10.969
24114W        W83551  28.149  42.854  13.400
24115W        W83552   1.321   6.694   0.846
24116W        W83553  38.903  42.314  11.924
24117W        W83554   1.381  43.333  11.900
24118W        W83555  24.221   7.824  13.793
24119W        W83556  44.944  13.759   1.779
24120W        W83557  31.570  21.620   1.825
24121W        W83558  42.453   5.841   0.753
24122W        W83559  43.776  19.625  11.482
24123W        W83560  41.370  44.851   2.261
24124W        W83561  43.775  44.837   1.423
24125W        W83562  15.618   6.221   0.927
24126W        W83563  32.948  15.182   2.790
24127W        W83564  34.901  32.994   4.271
24128W        W83565  39.861   8.662   2.287
24129W        W83566  43.323   1.316   3.156
24130W        W83567  33.401  11.214  10.620
24131W        W83568  39.959  32.098   0.390
24132W        W83569  25.994  24.554  13.828
24133W        W83570   4.239  20.527   3.764
24134W        W83571  38.498  41.856   0.888
24135W        W83572   3.741  34.059   3.270
24136W        W83573   2.401  10.178  10.902
24137W        W83574  25.070  10.163   3.771
24138W        W83575  39.396  18.627  14.292
24139W        W83576   6.826  23.038  13.379
24140W        W83577  31.991  12.118  12.481
24141W        W83578  18.082  35.975   3.655
24142W        W83579  20.054  28.552   0.765
24143W        W83580  11.260  17.152  14.010
24144W        W83581  42.282  33.094  13.420
24145W        W83582  19.196   4.273   0.868
24146W        W83583  32.566  16.566  14.377
24147W        W83584  31.110  29.459  14.424
24148W        W83585  21.051  10.279  11.602
24149W        W83586  32.604  13.283  14.366
24150W        W83587  17.278  26.627   2.379
24151W        W83588   0.827   3.370   1.289
24152W        W83589   2.465  22.731  12.546
24153W        W83590  18.668  10.753   2.772
24154W        W83591   8.760  44.003  13.846
24155W        W83592  18.756  43.815  13.023
24156W        W83593  24.975  29.567   5.297
24157W        W83594  23.091  44.916   3.202
24158W        W83595  33.023   8.202   2.412
24159W        W83596  32.110  42.895  14.437
24160W        W83597  27.191  13.710  13.520
24161W        W83598  22.213  14.299  14.919
24162W        W83599  40.426  26.556  10.117
24163W        W83600  24.625  38.857  12.418
24164W        W83601  20.078  24.229  11.448
24165W        W83602  43.481  20.105   2.675
24166W        W83603  36.002  31.627   3.856
24167W        W83604  44.850  24.124   0.243
24168W        W83605  19.102  16.673   3.365
24169W        W83606  32.481  33.381  14.020
24170W        W83607  32.479  41.338   2.190
24171W        W83608   4.384  23.085  12.387
24172W        W83609  36.897  25.493  11.044
24173W        W83610  44.472  40.818   3.814
24174W        W83611  10.806   4.322  13.017
24175W        W83612   0.824  26.491  11.495
24176W        W83613   9.861   9.841   3.775
24177W        W83614  40.375  23.095  12.419
24178W        W83615  21.664  44.436  13.934
24179W        W83616  14.692  38.996   3.729
24180W        W83617  18.250  29.456  11.127
24181W        W83618  10.190  42.895  13.886
24182W        W83619  15.654  43.994  12.363
24183W        W83620  37.468   9.342  13.893
24184W        W83621  30.922  24.534   5.767
24185W        W83622   0.975   8.357  14.896
24186W        W83623   9.874   2.233   4.220
24187W        W83624  11.366   3.938   0.742
24188W        W83625  42.527   4.867   0.769
24189W        W83626  28.099   4.864   0.391
24190W        W83627  34.587  36.030  10.937
24191W        W83628  22.667   8.294   0.409
24192W        W83629   3.344  27.655  12.993
24193W        W83630  21.105  27.550   3.818
24194W        W83631  36.928   2.374  13.528
24195W        W83632  14.834   0.931  13.900
24196W        W83633  30.952  25.617   4.780
24197W        W83634   0.416   4.789  13.464
24198W        W83635  30.559  40.354   4.727
24199W        W83636  11.702  21.515   4.693
24200W        W83637   0.819  20.159  13.947
24201W        W83638  10.367   4.793   4.773
24202W        W83639  40.376   2.793  12.916
24203W        W83640   4.752  24.996   1.406
24204W        W83641   4.404  31.511   3.355
24205W        W83642   9.313  17.613  14.019
24206W        W83643  17.083  36.064   0.762
24207W        W83644   6.336  28.596   4.705
24208W        W83645  39.450  42.321  14.834
24209W        W83646  42.986  33.417  14.464
24210W        W83647  34.493  15.285  14.972
24211W        W83648  19.550   6.193  13.044
24212W        W83649   4.378  17.751   3.794
24213W        W83650   4.773  10.156   1.737
24214W        W83651   3.864   3.775   0.774
24215W        W83652   8.786  35.882   4.261
24216W        W83653   3.922  20.758  13.529
24217W        W83654  13.134   6.399  13.314
24218W        W83655  39.535   0.349   2.254
24219W        W83656   3.732  20.710  12.867
24220W        W83657   7.667  27.685  13.056
24221W        W83658  37.568  17.581   1.294
24222W        W83659   0.913  20.066   4.336
24223W        W83660  39.811  24.538   2.711
24224W        W83661  33.554  21.090  10.101
24225W        W83662  19.161   2.291  12.859
24226W        W83663  17.688  25.203   4.257
24227W        W83664  12.209   0.424   0.382
24228W        W83665   3.856  33.883  14.983
24229W        W83666   1.850   4.938  14.828
24230W        W83667  40.471  30.983  13.854
24231W        W83668  39.050   2.760  12.489
24232W        W83669  38.949  23.556   1.842
24233W        W83670   2.882  41.522   1.429
24234W        W83671  39.550   6.284   3.297
24235W        W83672   7.347  24.042   1.857
24236W        W83673  16.243   5.847  13.481
24237W        W83674   2.967  43.840   4.260
24238W        W83675  27.564  13.331  14.024
24239W        W83676  10.182  33.524  12.572
24240W        W83677  27.579  12.635  14.429
24241W        W83678  25.021  24.508  13.843
24242W        W83679  33.936  30.965   0.895
24243W        W83680  34.445  25.194   2.408
24244W        W83681  29.138   9.364  12.981
24245W        W83682  35.925  32.914   3.654
24246W        W83683  36.540  31.921   4.660
24247W        W83684  33.097  20.618  12.011
24248W        W83685  28.023   2.743  11.949
24249W        W83686  13.137  11.244  10.045
24250W        W83687   0.463  39.398  13.902
24251W        W83688  28.100   3.244   2.675
24252W        W83689  39.354  40.538   0.851
24253W        W83690   1.791   2.942  14.315
24254W        W83691  24.198  17.170  12.429
24255W        W83692  26.633  11.832  13.906
24256W        W83693  10.250  31.074   1.745
24257W        W83694   5.280  14.191  10.021
24258W        W83695  21.749  12.203  10.436
24259W        W83696  32.902   5.792   3.366
24260W        W83697  25.536  37.963   4.629
24261W        W83698  17.260   4.337   1.777
24262W        W83699  44.417  30.011   2.277
24263W        W83700  17.792   2.424   2.897
24264W        W83701  10.656  15.741  10.489
24265W        W83702   7.306   0.323   1.370
24266W        W83703  32.535   7.384  14.962
24267W        W83704  13.739   2.361  14.879
24268W        W83705  37.076  29.528   0.952
24269W        W83706  37.018  23.608   1.713
24270W        W83707  38.349  35.497  14.850
24271W        W83708  15.620  23.594  12.863
24272W        W83709  32.453  37.493  10.981
24273W        W83710  24.670  29.093  13.471
24274W        W83711  18.283   3.283  13.480
24275W        W83712  19.126  23.573  14.975
24276W        W83713  13.187  14.712  13.333
24277W        W83714   9.856  37.888   1.403
24278W        W83715  20.037   7.881  13.926
24279W        W83716   3.874  41.474   4.291
24280W        W83717  10.176  16.786  11.497
24281W        W83718  23.686  42.907   4.829
24282W        W83719  37.437  41.317  13.420
24283W        W83720  39.999   1.827   0.789
24284W        W83721  26.118   8.742   0.282
24285W        W83722   2.467  31.482   3.674
24286W        W83723  22.148   2.409   2.699
24287W        W83724  34.093  19.743   2.413
24288W        W83725  24.535  19.709   4.698
24289W        W83726  33.986  15.242   4.341
24290W        W83727  30.432  27.681  14.827
24291W        W83728  23.539  12.801  14.461
24292W        W83729   6.803  44.312  10.917
24293W        W83730  16.626  37.529   4.115
24294W        W83731  19.649   9.799  12.876
24295W        W83732  23.566  20.663   4.755
24296W        W83733  13.284  15.327   4.619
24297W        W83734   9.826  43.359   3.223
24298W        W83735  10.263  24.102  14.765
24299W        W83736  19.589  19.648   1.289
24300W        W83737  37.554  26.050   1.840
24301W        W83738  43.807  23.604   0.424
24302W        W83739  28.068  14.105  14.028
24303W        W83740  18.266  14.215  10.958
24304W        W83741  38.490   0.969   0.357
24305W        W83742   2.237  24.095   1.746
24306W        W83743   1.423  33.621  14.412
24307W        W83744  34.557  18.559  12.549
24308W        W83745  25.127  21.106   0.331
24309W        W83746  26.974  32.402   4.733
24310W        W83747  31.045  32.129   4.312
24311W        W83748  18.287  39.539   3.165
24312W        W83749  36.991  13.269  10.990
24313W        W83750  38.867  10.756   3.205
24314W        W83751  14.728   9.679  14.031
24315W        W83752  29.058  40.366  10.958
24316W        W83753  12.843  42.348  12.455
24317W        W83754  17.726   3.270   3.361
24318W        W83755  27.959  43.831  13.931
24319W        W83756  22.564  16.262   3.196
24320W        W83757   0.459  40.001   3.324
24321W        W83758  25.023   2.895  11.469
24322W        W83759  36.875  22.603  12.400
24323W        W83760  13.795  33.986   2.745
24324W        W83761  27.130  34.437   0.950
24325W        W83762   7.391   6.397   1.394
24326W        W83763  23.505  22.552   3.820
24327W        W83764  38.948  18.714   3.214
24328W        W83765   2.365  19.210   0.304
24329W        W83766  24.016  26.526  11.024
24330W        W83767  37.527   9.387  12.891
24331W        W83768   2.892  23.090  12.088
24332W        W83769  29.002  35.480   3.854
24333W        W83770  43.774  43.847   3.295
24334W        W83771  25.137   0.292   3.717
24335W        W83772   0.321  30.146   1.895
24336W        W83773  28.674  17.190   4.298
24337W        W83774   5.264  21.622  10.608
24338W        W83775  37.845  34.483  12.030
24339W        W83776  28.021  12.636  12.398
24340W        W83777  29.093   6.832   1.393
24341W        W83778  23.240  22.165  13.845
24342W        W83779   0.308   8.364  11.090
24343W        W83780  30.986  42.473  11.479
24344W        W83781  14.826  41.989  13.343
24345W        W83782   8.190  37.872   1.382
24346W        W83783  43.943  22.120   4.741
24347W        W83784  27.173   3.795  10.530
24348W        W83785  33.996  41.496  11.523
24349W        W83786  10.141  31.100   0.268
24350W        W83787  12.702  38.461   4.672
24351W        W83788  14.217   7.195  11.903
24352W        W83789  37.417  14.226   0.398
24353W        W83790  37.011   3.762   0.359
24354W        W83791  27.512   0.319   3.631
24355W        W83792  24.975  14.698  12.991
24356W        W83793  12.748   4.908  12.955
24357W        W83794  17.176  29.176   0.462
24358W        W83795  12.819  14.818   3.245
24359W        W83796  11.227  10.370   3.696
24360W        W83797  12.798  16.111   1.742
24361W        W83798  20.122  37.047  10.968
24362W        W83799  37.082   8.401  14.901
24363W        W83800   8.808  20.733   2.855
24364W        W83801   1.799  41.524  14.388
24365W        W83802  13.142  27.025  12.882
24366W        W83803  10.318  42.372  13.541
24367W        W83804  31.926  44.994  12.096
24368W        W83805  28.101  36.908  14.999
24369W        W83806   8.397   9.812   0.430
24370W        W83807  32.447  33.029   2.706
24371W        W83808  28.614  32.038   2.310
24372W        W83809  30.124  19.242  14.322
24373W        W83810  38.943  33.599  11.423
24374W        W83811  35.863   0.494   1.825
24375W        W83812  26.087   9.264   9.998
24376W        W83813  37.924  18.648   1.311
24377W        W83814  11.361  28.626   1.426
24378W        W83815  33.125  13.251  13.541
24379W        W83816  10.857  28.965  10.553
24380W        W83817  29.534  30.919  12.486
24381W        W83818  16.644  10.667  11.024
24382W        W83819  34.866  30.584   1.252
24383W        W83820  37.917  12.135   3.174
24384W        W83821  16.674  33.041   0.431
24385W        W83822  22.718  17.688  14.373
24386W        W83823  44.963  33.465  13.528
24387W        W83824   1.962  34.101  11.994
24388W        W83825  40.506  38.005   4.164
24389W        W83826  30.064  23.615  11.517
24390W        W83827  29.625  15.725  11.108
24391W        W83828  38.003  38.866  11.065
24392W        W83829  28.105   0.492   0.906
24393W        W83830  29.425  32.457   2.374
24394W        W83831  19.652   9.192  10.450
24395W        W83832  36.074  19.707   0.303
24396W        W83833  10.801  39.853  13.914
24397W        W83834  13.319  18.694  10.445
24398W        W83835  42.929  33.511   4.335
24399W        W83836  28.045  28.558   1.873
24400W        W83837  40.900  23.187   0.738
24401W        W83838  44.978  27.176  14.762
24402W        W83839  17.595  30.128  11.476
24403W        W83840   9.167  39.985   4.726
24404W        W83841  25.157  18.778   4.671
24405W        W83842   7.692  34.526  14.418
24406W        W83843  32.539   8.183  12.857
24407W        W83844  16.684  15.800  14.771
24408W        W83845  33.038  31.575  11.912
24409W        W83846  39.425   8.709  11.855
24410W        W83847  32.630   0.292  14.426
24411W        W83848  11.778  12.155  13.940
24412W        W83849  25.202  42.910   2.308
24413W        W83850  17.790  32.020   9.929
24414W        W83851  15.686  26.013   0.477
24415W        W83852  35.398   8.873  11.059
24416W        W83853  35.603  11.167  13.055
24417W        W83854  33.420  25.606   0.257
24418W        W83855  26.130   6.428  14.831
24419W        W83856  28.651  27.194  13.383
24420W        W83857  11.649   1.784  13.025
24421W        W83858  41.942  25.695   4.683
24422W        W83859  25.002  13.198   2.701
24423W        W83860  21.586  21.672  13.531
24424W        W83861  25.057  16.740  13.968
24425W        W83862  41.852  35.876  10.060
24426W        W83863  44.758  16.618   3.700
24427W        W83864  24.622  24.129  14.460
24428W        W83865   4.803  11.287   3.362
24429W        W83866   3.225  24.531   4.147
24430W        W83867   3.775   4.741   0.891
24431W        W83868  18.748  24.037  14.965
24432W        W83869  21.131  15.755   5.182
24433W        W83870  32.549   0.372  10.495
24434W        W83871  33.400  39.926  14.335
24435W        W83872   0.880   9.334   0.855
24436W        W83873   0.956   3.373  10.979
24437W        W83874   0.753   5.823  13.437
24438W        W83875   1.324  41.821  12.569
24439W        W83876  22.243  13.191  10.077
24440W        W83877  33.384  29.497   3.354
24441W        W83878  11.802  24.014  14.032
24442W        W83879   2.897   4.879  12.012
24443W        W83880  43.440  26.053   3.372
24444W        W83881   4.939  11.739  14.775
24445W        W83882  14.777  40.455   0.816
24446W        W83883  42.820  39.817  13.851
24447W        W83884  33.011  22.651   5.585
24448W        W83885  27.630  26.503  11.114
24449W        W83886  35.587   2.383   2.771
24450W        W83887  32.972  33.541  11.485
24451W        W83888  43.487   9.838   3.697
24452W        W83889  18.149  41.904  11.045
24453W        W83890  21.128   2.791  12.521
24454W        W83891  29.146  38.550   3.280
24455W        W83892  25.478  31.085   3.641
24456W        W83893  41.345  14.830   0.382
24457W        W83894  20.664  11.854   1.857
24458W        W83895  39.814  26.534   0.261
24459W        W83896   1.743  17.780  13.345
24460W        W83897  43.360   9.826  14.330
24461W        W83898  25.552   6.680   0.246
24462W        W83899  39.443  23.056  10.429
24463W        W83900  43.360   5.854  12.412
24464W        W83901   1.254  21.526   0.812
24465W        W83902  19.650  28.139  10.484
24466W        W83903   6.205  17.185   1.836
24467W        W83904  16.246  29.134  12.936
24468W        W83905  26.056  23.034   3.720
24469W        W83906   6.689  11.698  12.877
24470W        W83907  34.987  24.609  14.799
24471W        W83908  34.977  26.540   2.727
24472W        W83909  30.002  24.621   1.758
24473W        W83910   7.318   9.764   1.310
24474W        W83911  39.408   3.909  14.494
24475W        W83912  33.456  32.058  11.486
24476W        W83913  20.202  19.218  13.446
24477W        W83914  11.818  43.425  11.503
24478W        W83915  19.587  27.960  14.826
24479W        W83916  37.856  13.110   2.190
24480W        W83917  30.001  26.027  10.635
24481W        W83918  24.597  13.733   2.845
24482W        W83919   5.726  31.492  13.422
24483W        W83920  39.416   1.439   1.378
24484W        W83921   8.693   6.295   1.821
24485W        W83922   8.212  10.676  11.987
24486W        W83923  19.750  11.235   2.267
24487W        W83924  24.512  18.557  14.918
24488W        W83925  32.892  19.057  12.893
24489W        W83926  26.133  26.177   2.317
24490W        W83927  32.419  17.697   3.658
24491W        W83928  33.973  19.093   0.820
24492W        W83929   8.206  35.895   2.700
24493W        W83930  16.612   4.713  10.999
24494W        W83931  18.135  14.195  11.921
24495W        W83932  12.832  13.714  11.878
24496W        W83933  26.541  44.363   4.321
24497W        W83934  10.632  11.641  11.915
24498W        W83935   4.770  39.331   1.912
24499W        W83936   0.926  25.521   1.752
24500W        W83937   9.187  14.685  10.624
24501W        W83938  32.986  44.900   3.783
24502W        W83939  41.932  31.076  13.379
24503W        W83940  38.871  11.196   2.290
24504W        W83941  16.237  37.353   2.790
24505W        W83942  21.590   8.312   0.412
24506W        W83943  17.749  21.187  14.820
24507W        W83944  30.014  29.511   4.202
24508W        W83945  22.505  44.444   0.307
24509W        W83946  10.316  13.163   4.280
24510W        W83947  16.278  18.155  10.892
24511W        W83948   9.290  29.489  10.482
24512W        W83949   3.818   8.820  10.898
24513W        W83950  21.711  25.681   4.796
24514W        W83951  29.063  36.877  13.924
24515W        W83952  37.918  37.073  14.009
24516W        W83953  41.810  31.015   2.824
24517W        W83954  18.231   5.319  10.469
24518W        W83955   8.779  28.506  11.385
24519W        W83956  33.902   6.223  11.954
24520W        W83957   7.897  36.872  13.529
24521W        W83958  36.433   4.366  10.985
24522W        W83959   3.727  34.561  11.537
24523W        W83960  20.721   7.177   4.188
24524W        W83961  36.992  43.922  10.531
24525W        W83962  37.562   8.853  12.935
24526W        W83963  26.648  30.993   0.784
24527W        W83964  25.202  44.453   1.700
24528W        W83965  13.307  31.916  10.040
24529W        W83966   3.241  16.174   1.279
24530W        W83967  20.730  15.145   4.810
24531W        W83968   8.750  44.986   0.480
24532W        W83969   3.918   9.820   0.304
24533W        W83970  30.017  19.236   4.338
24534W        W83971  24.653  18.071  14.799
24535W        W83972  36.584  16.724  13.861
24536W        W83973   6.268  43.941  13.507
24537W        W83974   4.414  28.038  12.528
24538W        W83975   3.868  22.187  10.552
24539W        W83976  37.444  33.568   4.729
24540W        W83977  28.093  16.759  14.891
24541W        W83978  25.132  11.663   1.747
24542W        W83979   7.405   6.200   3.704
24543W        W83980   4.704   6.896   2.181
24544W        W83981  26.622  16.198   3.327
24545W        W83982  21.234  20.730   1.375
24546W        W83983  21.513  20.085   0.329
24547W        W83984  12.756  40.318   1.314
24548W        W83985  14.176  12.182   4.619
24549W        W83986  42.507   0.333  10.899
24550W        W83987  35.551  43.980   1.749
24551W        W83988  26.573   5.330  10.622
24552W        W83989   6.880  39.524  14.992
24553W        W83990  11.658  35.012   3.166
24554W        W83991  17.562  28.600  11.592
24555W        W83992   7.877  27.019  12.371
24556W        W83993   2.775   8.672   3.269
24557W        W83994   3.742  42.807   3.791
24558W        W83995  40.925  42.413  13.025
24559W        W83996  13.769  24.545   0.253
24560W        W83997   0.454  19.771   0.433
24561W        W83998   2.263  29.973   2.283
24562W        W83999   7.335  14.117  12.021
24563W        W84000  14.319  42.417  12.047
24564W        W84001   1.265  35.081   3.786
24565W        W84002  19.723  13.206  12.494
24566W        W84003  36.526  33.452  14.297
24567W        W84004  20.193  44.859  13.506
24568W        W84005  44.398  27.554   0.427
24569W        W84006   3.856   0.802  13.507
24570W        W84007  20.695  19.210  12.862
24571W        W84008   3.842  36.986   3.804
24572W        W84009   1.337   8.251  13.375
24573W        W84010  20.169  19.184  14.800
24574W        W84011  31.525  16.602  12.398
24575W        W84012   7.226   9.256   4.283
24576W        W84013  16.812  10.202  13.508
24577W        W84014  34.914  18.790   1.841
24578W        W84015  18.109   9.838  10.560
24579W        W84016  23.120  30.511   3.781
24580W        W84017  11.841  33.516   5.131
24581W        W84018  44.358  28.460  13.973
24582W        W84019  15.305  13.298  12.888
24583W        W84020  34.397   2.768  12.435
24584W        W84021  33.920  36.066  14.769
24585W        W84022  40.837  20.173   4.734
24586W        W84023  43.978  14.803  14.989
24587W        W84024  38.987  23.575   1.317
24588W        W84025  43.883  13.264  10.921
24589W        W84026   4.409  43.788   3.239
24590W        W84027  16.233  16.311   0.828
24591W        W84028  36.579  20.183   4.145
24592W        W84029  26.126  21.103  14.318
24593W        W84030  15.798  35.916  10.598
24594W        W84031  32.078  29.601  13.535
24595W        W84032  17.719  24.539  11.104
24596W        W84033  19.075   7.765  11.501
24597W        W84034  31.641   8.728  12.994
24598W        W84035  15.147  42.395  14.791
24599W        W84036  14.750  36.898   2.389
24600W        W84037  22.094  26.095  11.881
24601W        W84038  20.538  11.250   3.172
24602W        W84039   3.852  37.906   2.781
24603W        W84040  38.556  33.896  10.613
24604W        W84041   0.845  18.649  11.441
24605W        W84042  31.069   7.842   2.749
24606W        W84043  17.219  36.580  11.064
24607W        W84044  42.377  13.222   0.900
24608W        W84045   9.294   2.734   3.347
24609W        W84046  37.370  40.397  14.870
24610W        W84047  13.198  28.013  14.854
24611W        W84048  16.640  36.902  12.487
24612W        W84049  24.025   6.381   2.848
24613W        W84050  32.074   5.297   4.114
24614W        W84051   5.743  15.810   4.804
24615W        W84052   8.680   4.446  10.141
24616W        W84053  36.405   0.846  13.981
24617W        W84054  30.577  25.141   5.122
24618W        W84055  37.533  33.463  11.588
24619W        W84056   9.796  21.669   3.715
24620W        W84057   9.810  19.614  13.372
24621W        W84058  37.557  26.975   3.317
24622W        W84059  28.134  39.449  14.488
24623W        W84060  11.147  40.038  12.569
24624W        W84061  21.735  23.627   3.249
24625W        W84062  16.688   4.432   2.746
24626W        W84063   5.419   1.443   4.343
24627W        W84064  38.492  30.417  13.508
24628W        W84065  25.030   3.803   4.623
24629W        W84066   3.892  19.760  12.417
24630W        W84067   1.272  18.702   3.682
24631W        W84068  30.094   1.440  10.406
24632W        W84069  40.317  32.495   2.295
24633W        W84070   3.874  30.124  11.998
24634W        W84071  18.080   8.862   2.352
24635W        W84072  41.386   3.878  10.923
24636W        W84073   3.424  38.383   3.325
24637W        W84074  39.404  18.683  14.008
24638W        W84075  38.512  44.799   1.307
24639W        W84076   2.815  13.649   2.812
24640W        W84077  14.673  16.106  12.038
24641W        W84078   5.323  36.094   3.268
24642W        W84079  26.951  23.668  11.877
24643W        W84080  19.169  15.146   0.793
24644W        W84081   1.874   1.874  14.814
24645W        W84082  16.717  13.686  14.354
24646W        W84083   1.931  34.612   0.252
24647W        W84084  34.969   1.872   3.668
24648W        W84085  23.534   6.838  14.985
24649W        W84086  13.604   3.731  14.334
24650W        W84087  34.561  35.403  11.428
24651W        W84088  35.547  30.608  13.471
24652W        W84089  29.518  17.151  10.922
24653W        W84090  22.041  34.077  10.982
24654W        W84091  40.389  20.617   1.803
24655W        W84092  39.840  29.019   0.966
24656W        W84093  13.786  16.790  10.526
24657W        W84094   8.720  43.357   3.775
24658W        W84095  23.565   2.380  13.414
24659W        W84096  10.384  24.103  13.983
24660W        W84097  15.677  19.663   1.864
24661W        W84098   1.376  38.830  11.540
24662W        W84099  21.144  12.178   2.280
24663W        W84100  44.333  36.432  12.433
24664W        W84101  21.123  38.843   4.177
24665W        W84102   0.295   9.742  14.469
24666W        W84103  36.936  32.102  13.311
24667W        W84104   5.202  41.035  11.578
24668W        W84105   5.934   0.983  13.039
24669W        W84106  22.729   0.454   4.781
24670W        W84107  31.979   7.693   2.790
24671W        W84108  25.095  30.121   1.741
24672W        W84109  11.796   9.356   0.778
24673W        W84110  36.563  37.831  12.466
24674W        W84111  17.122  31.102  13.393
24675W        W84112   0.927  27.964  10.486
24676W        W84113  19.611  26.166  12.509
24677W        W84114  11.684  14.188   2.219
24678W        W84115  39.836  31.640  11.474
24679W        W84116  30.114  15.263   1.867
24680W        W84117   8.265  25.517   1.752
24681W        W84118  24.578  43.836   4.227
24682W        W84119   1.888  25.658  11.924
24683W        W84120  25.061  10.186  12.999
24684W        W84121  30.501  43.017   3.790
24685W        W84122  12.314  16.591   0.733
24686W        W84123  38.948  41.424  14.278
24687W        W84124  44.773  38.996   5.295
24688W        W84125  31.440  33.516   3.819
24689W        W84126  35.983   8.367  11.870
24690W        W84127   2.446  37.908   4.339
24691W        W84128  20.124  42.322  10.421
24692W        W84129  39.433  18.290  11.591
24693W        W84130   6.394  23.668  13.031
24694W        W84131  23.112  10.741   0.292
24695W        W84132  25.977  24.050  13.823
24696W        W84133  30.118  38.547   5.206
24697W        W84134  33.974  17.082  11.437
24698W        W84135  10.744  33.418   2.695
24699W        W84136  36.485  42.810  11.925
24700W        W84137   1.387   4.861   4.314
24701W        W84138  24.065  33.010   3.696
24702W        W84139   0.921  10.254  13.378
24703W        W84140  41.537  37.917  13.981
24704W        W84141  26.648  40.899  13.448
24705W        W84142  44.861  33.063  11.908
24706W        W84143   0.823  12.661   3.223
24707W        W84144  38.974  32.615   0.454
24708W        W84145  19.265   9.356   1.274
24709W        W84146  29.048  25.589   3.330
24710W        W84147   4.921  11.267  14.980
24711W        W84148  43.479  28.531   3.279
24712W        W84149  43.435  26.594   3.364
24713W        W84150  29.931  41.372  12.079
24714W        W84151  14.159  35.029  10.893
24715W        W84152   4.808  24.570   9.547
24716W        W84153  44.315  36.046   2.340
24717W        W84154  39.430  28.053  12.018
24718W        W84155  25.643   8.335   0.339
24719W        W84156   8.314  39.889   3.783
24720W        W84157   1.395  36.415  14.797
24721W        W84158  43.341  13.344   3.229
24722W        W84159  32.410  18.184   4.285
24723W        W84160  25.550  30.090  14.384
24724W        W84161  18.262  11.164   0.919
24725W        W84162  43.327  15.751  13.892
24726W        W84163   7.323  25.550   4.125
24727W        W84164  40.430  31.537   1.228
24728W        W84165  26.109  23.100   0.965
24729W        W84166  42.013   5.907  12.863
24730W        W84167   4.422   0.850  12.343
24731W        W84168   0.319  29.054   1.927
24732W        W84169   9.793  20.629   0.756
24733W        W84170  27.625   6.784  14.966
24734W        W84171  23.698  21.187   0.325
24735W        W84172   3.364  18.581   1.889
24736W        W84173   6.824  20.052  14.388
24737W        W84174  37.415  29.556   2.873
24738W        W84175   9.203  35.518  14.803
24739W        W84176  42.936  25.656  11.101
24740W        W84177   3.902  39.851  13.395
24741W        W84178  30.939   7.861  12.060
24742W        W84179   8.185  20.160  10.987
24743W        W84180  34.047   1.970  11.064
24744W        W84181  42.021  15.808  12.985
24745W        W84182   3.885  43.783  11.469
24746W        W84183   6.870  43.847  12.065
24747W        W84184  13.300  25.474   4.794
24748W        W84185  21.106   5.917  11.122
24749W        W84186  44.806  39.319  13.365
24750W        W84187  16.114  36.458  12.340
24751W        W84188  39.316  23.697   1.709
24752W        W84189  16.793  44.848  10.516
24753W        W84190   6.237  28.504   3.367
24754W        W84191  14.790  30.951  10.538
24755W        W84192   0.459   6.877   0.959
24756W        W84193  32.420  28.056   0.967
24757W        W84194  32.539  25.982   0.380
24758W        W84195   9.660  31.125   1.401
24759W        W84196  32.600  29.523  10.121
24760W        W84197  14.104  22.743   1.260
24761W        W84198  21.664  35.889  14.274
24762W        W84199  10.362  26.101  14.869
24763W        W84200  31.980  16.213  12.395
24764W        W84201  36.867  35.099   0.816
24765W        W84202   3.459  14.167   0.844
24766W        W84203   9.307  44.776   4.827
24767W        W84204  28.535  39.015  13.368
24768W        W84205  42.416  25.516   3.729
24769W        W84206   5.927  37.344   2.330
24770W        W84207  43.938  14.598   5.683
24771W        W84208  18.217  18.643   3.660
24772W        W84209  30.945   6.285   2.735
24773W        W84210  20.043  42.958   5.217
24774W        W84211  41.931  22.642  12.419
24775W        W84212   0.427  13.157  12.565
24776W        W84213  28.465  28.638  14.973
24777W        W84214   3.240  36.885   3.681
24778W        W84215  28.450  14.165  11.040
24779W        W84216  43.352  43.469   3.828
24780W        W84217  32.035  24.708   5.244
24781W        W84218  21.111  12.292  11.001
24782W        W84219   1.904  33.531  10.633
24783W        W84220  42.427  16.178   2.411
24784W        W84221  14.329   3.401   0.329
24785W        W84222   5.740  42.330   4.290
24786W        W84223  40.033  36.578   2.673
24787W        W84224  19.252  11.708   2.890
24788W        W84225  11.821  33.115  14.492
24789W        W84226   9.181   6.250  13.428
24790W        W84227   9.224  10.666  13.057
24791W        W84228  41.513  35.860  12.575
24792W        W84229  10.689  43.501   2.325
24793W        W84230  33.469  22.726  11.558
24794W        W84231  34.999  12.701  10.553
24795W        W84232   4.405  33.095  11.980
24796W        W84233  17.264  10.178   2.808
24797W        W84234  37.917  16.717   0.475
24798W        W84235  24.583  34.427  11.576
24799W        W84236  31.518   3.850  10.475
24800W        W84237  30.033   1.280   4.837
24801W        W84238  12.314  18.765   1.882
24802W        W84239  23.660  37.891   5.213
24803W        W84240  42.397  39.051  13.341
24804W        W84241  27.454  11.759  12.089
24805W        W84242   4.787  32.422   4.618
24806W        W84243  26.519  37.397   5.210
24807W        W84244  37.513  36.906   0.365
24808W        W84245  14.755  22.181  11.604
24809W        W84246  19.567  30.552  13.901
24810W        W84247  35.109  21.033  10.101
24811W        W84248   8.327  11.297  12.441
24812W        W84249   7.830   6.743  10.429
24813W        W84250  44.300   6.226   4.293
24814W        W84251  32.904  16.614  13.914
24815W        W84252  23.569   8.361  12.395
24816W        W84253  34.423  13.247   3.647
24817W        W84254  11.845   0.416   4.779
24818W        W84255  44.802  24.699   2.861
24819W        W84256  19.703  35.595  10.480
24820W        W84257  44.418   3.875   0.738
24821W        W84258  18.580  36.517   2.691
24822W        W84259   6.383  37.374  13.527
24823W        W84260  40.398  12.664   4.170
24824W        W84261   6.355  32.518  11.376
24825W        W84262  41.357  15.327   3.668
24826W        W84263  38.399  11.757   2.743
24827W        W84264   3.446  20.180  14.480
24828W        W84265  33.475  27.981  12.859
24829W        W84266  20.248  42.411  12.951
24830W        W84267   7.333  27.594  12.912
24831W        W84268  31.484   5.225  14.946
24832W        W84269   4.701  21.674  11.883
24833W        W84270   4.440  29.598   3.676
24834W        W84271  23.623  24.708  12.019
24835W        W84272  44.386  20.242  14.952
24836W        W84273  13.755   4.255   2.837
24837W        W84274   5.286   0.894   2.767
24838W        W84275  20.216  38.834   1.440
24839W        W84276  28.615  14.265  14.959
24840W        W84277   1.966  30.991   3.784
24841W        W84278   2.870  16.158   1.374
24842W        W84279  11.349   7.862  13.841
24843W        W84280  41.490  35.881   3.285
24844W        W84281  21.100  44.887  14.341
24845W        W84282  32.913  40.502  13.369
24846W        W84283  30.077  27.085  11.938
24847W        W84284  36.094  17.721   1.349
24848W        W84285  24.115  41.815   5.155
24849W        W84286  22.156  14.816  10.989
24850W        W84287   3.223  38.035   0.456
24851W        W84288  33.070  17.718  11.975
24852W        W84289  27.107  18.124  13.440
24853W        W84290  10.236  22.050   1.266
24854W        W84291  24.203   1.749  11.889
24855W        W84292  14.135  14.266  14.936
24856W        W84293  18.777  21.724  10.486
24857W        W84294  25.057  26.505  11.855
24858W        W84295  38.059   4.935  10.631
24859W        W84296  36.476   5.715  10.469
24860W        W84297  32.495  29.966   3.227
24861W        W84298  25.575  32.990   4.652
24862W        W84299  43.314  10.787  14.481
24863W        W84300  16.272  32.543   4.163
24864W        W84301  25.022   9.343   0.361
24865W        W84302  42.368  29.628   2.812
24866W        W84303   1.824  18.655  10.603
24867W        W84304  21.749  28.045  10.002
24868W        W84305  40.972  28.437   3.802
24869W        W84306  15.290   4.883  14.933
24870W        W84307  24.571  27.482   0.821
24871W        W84308   5.347  30.625  10.496
24872W        W84309  43.499  37.413  13.536
24873W        W84310  13.128  34.539   5.243
24874W        W84311  44.949  44.922  13.044
24875W        W84312  32.940  25.127  12.919
24876W        W84313  22.009  25.647   3.330
24877W        W84314  38.564  17.224  11.125
24878W        W84315  25.623  43.344  11.102
24879W        W84316  23.192  34.596   3.728
24880W        W84317  22.015  30.597   1.440
24881W        W84318  19.596  11.215  12.933
24882W        W84319  15.718  35.516   3.290
24883W        W84320  17.113  15.816  12.036
24884W        W84321  21.132  36.982  14.948
24885W        W84322  38.896   3.265   4.665
24886W        W84323   9.749  27.591   0.870
24887W        W84324  23.044  17.618  12.519
24888W        W84325  30.495  40.349   2.209
24889W        W84326  24.653  18.151  11.039
24890W        W84327  44.262  39.952  12.573
24891W        W84328  40.522  13.756   2.287
24892W        W84329  13.633  10.688   4.675
24893W        W84330  44.504   2.424   0.945
24894W        W84331  25.518   3.888  11.119
24895W        W84332   0.249  41.836   3.740
24896W        W84333   3.324  30.591   2.271
24897W        W84334  33.082  16.678   1.215
24898W        W84335  36.997   9.279   4.202
24899W        W84336   9.226  19.772  13.885
24900W        W84337  15.097   3.891  14.287
24901W        W84338   5.243  18.689  12.366
24902W        W84339  39.842  15.233   4.707
24903W        W84340  44.904  18.143  10.455
24904W        W84341   3.857  28.051  10.978
24905W        W84342  28.624  40.539   2.404
24906W        W84343   2.441   0.799   4.157
24907W        W84344  19.148  32.921   4.752
24908W        W84345  16.780  15.818   3.630
24909W        W84346  29.062   5.279   0.353
24910W        W84347  36.401  18.172  12.458
24911W        W84348   4.305   8.319  10.473
24912W        W84349  27.961  28.528   3.195
24913W        W84350  42.395  31.646   2.802
24914W        W84351  18.068  37.059  10.511
24915W        W84352  35.934   2.423  13.038
24916W        W84353  11.773  33.605  14.322
24917W        W84354  37.086  30.934   1.284
24918W        W84355  38.343  13.213   0.362
24919W        W84356   3.229  39.883   0.936
24920W        W84357   2.378   2.935  12.887
24921W        W84358  26.644  30.497  14.963
24922W        W84359  43.289  19.074   0.760
24923W        W84360  41.043  14.715   1.280
24924W        W84361  21.671   9.768  13.814
24925W        W84362  31.419  37.510   4.191
24926W        W84363  12.323  19.152   4.265
24927W        W84364  26.140   3.719   1.892
24928W        W84365  29.592  17.206  12.405
24929W        W84366   5.816  31.070  11.982
24930W        W84367  16.209  25.604  14.936
24931W        W84368  30.572  28.946   3.716
24932W        W84369  11.678  37.947  12.520
24933W        W84370  10.716  10.143   3.272
24934W        W84371  42.909  23.677  14.292
24935W        W84372   3.760  35.923   2.277
24936W        W84373  23.199  30.092   2.213
24937W        W84374  13.812   8.342  14.833
24938W        W84375  11.311  41.402  14.025
24939W        W84376  42.867  26.459   1.916
24940W        W84377   7.185  25.467  10.058
24941W        W84378  28.631  27.999   1.396
24942W        W84379  12.176   1.294  11.997
24943W        W84380  22.030  19.739   2.794
24944W        W84381  11.799  36.444  12.020
24945W        W84382  14.589   7.738   2.314
24946W        W84383  23.045  20.566  12.572
24947W        W84384  14.205  25.101  12.524
24948W        W84385  24.493   7.254  13.034
24949W        W84386  32.606   1.832   5.109
24950W        W84387   5.209  24.724   5.084
24951W        W84388  11.306   0.366  12.517
24952W        W84389   3.936  26.014   3.765
24953W        W84390   7.244  28.095  12.451
24954W        W84391   7.350   3.927  12.883
24955W        W84392   9.722  11.673   3.342
24956W        W84393  31.637  41.907   1.727
24957W        W84394   9.845  38.988   1.909
24958W        W84395  22.043  20.717  12.381
24959W        W84396  14.232   2.259  12.378
24960W        W84397   8.290  26.025   3.316
24961W        W84398  13.845  37.831   0.290
24962W        W84399  11.283  35.499  11.535
24963W        W84400  12.207  12.672  14.896
24964W        W84401  11.318   7.753   2.897
24965W        W84402  39.024   0.977   1.919
24966W        W84403  27.640   9.816  13.878
24967W        W84404  12.617  15.114  11.965
24968W        W84405   4.246   5.880   1.436
24969W        W84406  34.401  23.010   2.366
24970W        W84407  38.420  39.011   4.639
24971W        W84408  36.514  17.557   1.841
24972W        W84409  28.468  13.694  13.870
24973W        W84410  23.491   3.783   4.752
24974W        W84411  35.984  26.693   0.825
24975W        W84412   8.890  10.358   2.870
24976W        W84413  29.043  27.652   0.833
24977W        W84414  32.095  44.797  13.487
24978W        W84415  13.735   0.988   3.755
24979W        W84416  29.122  29.948   1.707
24980W        W84417  24.501  44.771   0.766
24981W        W84418   1.866   6.201  12.347
24982W        W84419  33.011  29.976   1.333
24983W        W84420  39.359   0.275  11.577
24984W        W84421  14.314  23.054  11.963
24985W        W84422  40.353  24.227  13.896
24986W        W84423  23.008  27.126  14.846
24987W        W84424  29.550  33.514  10.966
24988W        W84425   4.275  14.666   1.735
24989W        W84426  24.510   6.747   4.822
24990W        W84427   5.354  15.680   3.793
24991W        W84428  44.482  36.912   1.363
24992W        W84429  11.726   3.850   3.180
24993W        W84430   0.960   9.883   3.163
24994W        W84431  30.009  39.538  10.531
24995W        W84432  34.105   5.896  13.528
24996W        W84433  21.641  36.563  12.531
24997W        W84434   4.361  32.078   3.708
24998W        W84435  11.144   5.774  14.016
24999W        W84436   0.763  32.511   2.747
25000W        W84437  32.081  22.089   0.436
25001W        W84438  43.928  38.428  13.914
25002W        W84439  25.030  42.372  13.053
25003W        W84440  41.009  36.499  12.552
25004W        W84441  38.840  26.063   4.620
25005W        W84442   5.242  34.879   3.856
25006W        W84443  29.604  10.719   1.215
25007W        W84444  43.009  21.049  13.346
25008W        W84445   0.359  21.728  12.443
25009W        W84446   8.303  31.919   0.816
25010W        W84447  17.781   4.417  12.370
25011W        W84448  35.093  43.998  11.552
25012W        W84449  17.220  24.690  11.981
25013W        W84450  21.182  23.730   1.773
25014W        W84451   2.823  17.747   2.200
25015W        W84452  21.675  42.864   2.248
25016W        W84453  32.460  20.249  12.930
25017W        W84454  32.542  33.946  11.905
25018W        W84455  42.458  10.326  14.359
25019W        W84456  41.423  12.744   0.962
25020W        W84457   7.698  40.811   1.402
25021W        W84458  11.782  27.598   1.841
25022W        W84459  30.112   5.305  12.540
25023W        W84460   2.772   0.846   1.286
25024W        W84461  30.426  14.162   2.212
25025W        W84462  13.215  30.153  12.038
25026W        W84463  38.038  10.270  13.870
25027W        W84464  24.656  24.087  14.789
25028W        W84465  24.574  16.096  13.869
25029W        W84466  34.099  20.145   2.291
25030W        W84467  36.885  34.094   0.470
25031W        W84468  43.803  25.041  14.342
25032W        W84469   2.298   8.891   0.734
25033W        W84470  30.512  11.647   5.101
25034W        W84471  15.662  29.930   4.698
25035W        W84472   7.869   2.923   1.827
25036W        W84473  37.887  40.984   9.473
25037W        W84474  15.173  23.665  14.513
25038W        W84475  28.110  43.969   4.618
25039W        W84476  31.914  22.658   0.845
25040W        W84477  20.177  11.353  12.047
25041W        W84478  31.484  36.067  14.383
25042W        W84479  11.127   2.774  13.958
25043W        W84480   4.246  10.686  14.400
25044W        W84481   6.269  35.058  10.948
25045W        W84482   1.390  35.521  11.470
25046W        W84483  24.620  18.552  13.969
25047W        W84484  20.128  15.800  13.321
25048W        W84485  40.453   1.910  11.880
25049W        W84486  10.674  18.149   2.816
25050W        W84487  30.455  30.071   2.385
25051W        W84488   4.381  11.182  11.406
25052W        W84489  15.252  23.139   4.346
25053W        W84490  43.012  26.661   1.353
25054W        W84491  15.820  44.456   2.781
25055W        W84492  33.484  37.538  11.417
25056W        W84493  18.628  30.978   3.731
25057W        W84494  23.730  44.325   0.839
25058W        W84495  28.156  40.332   1.786
25059W        W84496  43.348   9.887   4.725
25060W        W84497  41.521  32.008   1.765
25061W        W84498  36.590  16.245  13.522
25062W        W84499   1.969   0.296  14.837
25063W        W84500  37.405  25.216  11.939
25064W        W84501  21.096  10.825   3.731
25065W        W84502  42.827  38.327   3.268
25066W        W84503  13.158  27.100  12.072
25067W        W84504  18.695   4.425   2.212
25068W        W84505  20.738  17.253  10.511
25069W        W84506  17.163  15.658   1.282
25070W        W84507  23.212  39.912  14.974
25071W        W84508  35.416  38.900  14.930
25072W        W84509  26.084  13.630  13.499
25073W        W84510   2.359   0.903  11.003
25074W        W84511   8.842  33.497  14.958
25075W        W84512  22.216  10.765   3.668
25076W        W84513  20.564  37.564  12.408
25077W        W84514  40.371   2.954   1.765
25078W        W84515  38.039  17.292   2.178
25079W        W84516  24.197  29.024  13.003
25080W        W84517  15.295   5.321   0.377
25081W        W84518   5.877  24.488   2.688
25082W        W84519   7.808  28.473   0.817
25083W        W84520  14.595   7.802   1.762
25084W        W84521  42.432  44.327  12.890
25085W        W84522  32.886  18.582  14.930
25086W        W84523  24.182   5.421  10.496
25087W        W84524  40.463  34.875  11.929
25088W        W84525  30.102  21.608  14.897
25089W        W84526  34.406  40.535   2.200
25090W        W84527   9.865   3.848   0.382
25091W        W84528  44.335  31.472  11.540
25092W        W84529  25.974  12.164  14.758
25093W        W84530  26.481   3.936   3.173
25094W        W84531  27.184  18.143  12.504
25095W        W84532  23.522  35.363  11.537
25096W        W84533  28.487  16.195  14.016
25097W        W84534  33.482  42.281  10.095
25098W        W84535  23.211   2.380   1.777
25099W        W84536   6.337  14.258   4.719
25100W        W84537  21.155  10.771   2.378
25101W        W84538  19.148  28.477   3.245
25102W        W84539   5.921  35.988   4.617
25103W        W84540  10.274  35.411  14.770
25104W        W84541  43.984  28.181  10.422
25105W        W84542  26.679  28.514  14.865
25106W        W84543  12.845   5.855   0.942
25107W        W84544   9.807  13.277   0.851
25108W        W84545  12.739   4.299  12.391
25109W        W84546  21.514  27.071  13.503
25110W        W84547  28.074  32.622  12.897
25111W        W84548  12.207  24.143   4.699
25112W        W84549  38.865  39.820   1.395
25113W        W84550  44.916  40.936   5.281
25114W        W84551  43.450   5.787  12.954
25115W        W84552  24.485  18.765   1.334
25116W        W84553  27.538  35.588   0.363
25117W        W84554  42.852  36.975   1.306
25118W        W84555   7.713  31.629   3.191
25119W        W84556  18.567  39.043   4.621
25120W        W84557  30.421  26.559  14.459
25121W        W84558  39.439  23.497   0.459
25122W        W84559   6.318  17.691   3.312
25123W        W84560  11.639  29.487   4.740
25124W        W84561  10.696  44.443  10.577
25125W        W84562   5.888  24.531   9.636
25126W        W84563   4.348  31.024   3.793
25127W        W84564  14.325   8.894   2.303
25128W        W84565  20.603   4.355  11.017
25129W        W84566  29.014   2.782  11.045
25130W        W84567  15.167  38.828   4.656
25131W        W84568  38.821  26.593   3.673
25132W        W84569  16.319  35.928   4.248
25133W        W84570  35.008   5.397   2.735
25134W        W84571  28.942   4.220   2.884
25135W        W84572  15.689   7.326  13.833
25136W        W84573  13.801  23.242   0.276
25137W        W84574  13.174  41.879   2.857
25138W        W84575  35.478  32.995   1.264
25139W        W84576  33.444  21.752   4.176
25140W        W84577   7.752  44.817   2.370
25141W        W84578   1.341   8.682  11.885
25142W        W84579  27.630  14.713   2.715
25143W        W84580  20.112  35.383   3.301
25144W        W84581  36.971  10.188  14.979
25145W        W84582  21.607  41.987   3.668
25146W        W84583  23.730  14.140   4.735
25147W        W84584   8.821  42.807  11.423
25148W        W84585  44.863  14.830   1.760
25149W        W84586  38.996  27.528   3.711
25150W        W84587  20.574  27.155   1.758
25151W        W84588  10.851  44.904   3.190
25152W        W84589   7.765  40.839  10.961
25153W        W84590  36.959   4.410   0.298
25154W        W84591  16.246  41.408  14.978
25155W        W84592  38.844   2.817   3.759
25156W        W84593   7.276  17.690  11.861
25157W        W84594   7.313  36.925   1.718
25158W        W84595   3.436  10.663   3.632
25159W        W84596  41.012  29.499  13.990
25160W        W84597  38.968  31.440  12.949
25161W        W84598  17.249   1.367   1.239
25162W        W84599  31.072  21.219  14.393
25163W        W84600  34.968  38.903   2.186
25164W        W84601  43.797  42.326  11.564
25165W        W84602   6.794  31.987   3.779
25166W        W84603  28.985  17.170  13.540
25167W        W84604   0.891  22.049   3.283
25168W        W84605  12.830  13.211  12.512
25169W        W84606  43.814  44.446  11.041
25170W        W84607  29.111  29.442   3.788
25171W        W84608  44.280  32.106   4.214
25172W        W84609   0.899  38.353  12.500
25173W        W84610  13.111  24.695  13.326
25174W        W84611  25.154   7.400   3.823
25175W        W84612   7.739  38.912  12.883
25176W        W84613  31.459   6.868  12.065
25177W        W84614  35.871  34.031   3.652
25178W        W84615  31.021  13.709   1.853
25179W        W84616  31.475  30.009   4.221
25180W        W84617  26.013   6.277  10.908
25181W        W84618  40.398  22.722   9.991
25182W        W84619  27.492  25.517   3.642
25183W        W84620   3.940  44.458  13.534
25184W        W84621   3.736  12.121   2.284
25185W        W84622  24.187  19.720  11.939
25186W        W84623   3.832   5.430   1.752
25187W        W84624   2.412  29.018  12.495
25188W        W84625  39.000  20.162  12.887
25189W        W84626   6.275  11.318  11.945
25190W        W84627  17.559  25.218  13.431
25191W        W84628  31.552   0.843  13.794
25192W        W84629  43.765  17.630   2.287
25193W        W84630  26.954  11.740  12.929
25194W        W84631  21.246  33.884   0.945
25195W        W84632  32.413  33.429  13.479
25196W        W84633   9.283  41.524  11.047
25197W        W84634   3.865  10.353  13.517
25198W        W84635  14.772   8.779  13.361
25199W        W84636  35.099  31.904   2.191
25200W        W84637   4.709   2.226   0.835
25201W        W84638  43.909  30.057  12.989
25202W        W84639  26.120   0.372   4.217
25203W        W84640   0.974  27.485   4.207
25204W        W84641  18.086  30.991   3.730
25205W        W84642  13.204  12.651   3.845
25206W        W84643  43.789  38.460  12.844
25207W        W84644  30.086  32.104  13.997
25208W        W84645  15.641  37.400   1.291
25209W        W84646  11.654  25.156  12.922
25210W        W84647  13.719  40.047   1.698
25211W        W84648   9.380  27.019  13.415
25212W        W84649   3.444   5.788  13.863
25213W        W84650  20.698  21.526   1.903
25214W        W84651  16.276   5.808  11.543
25215W        W84652  24.032  11.179  14.902
25216W        W84653  28.456  38.464   3.373
25217W        W84654   6.775  14.180  14.026
25218W        W84655  44.335   9.694   1.872
25219W        W84656  15.771  13.272  14.922
25220W        W84657  21.196  21.608   3.263
25221W        W84658   1.393  11.373   1.292
25222W        W84659   5.926  35.997  12.490
25223W        W84660  15.803  16.210   1.855
25224W        W84661  40.916  22.664  10.589
25225W        W84662  18.097   9.885   1.415
25226W        W84663  33.050  20.767   5.153
25227W        W84664   9.324  42.012   2.841
25228W        W84665  32.546  38.048   3.775
25229W        W84666  34.095  23.112   0.848
25230W        W84667   8.717  39.349  14.368
25231W        W84668   7.356  15.298   4.179
25232W        W84669  15.240  29.133   4.698
25233W        W84670  39.418  23.661   3.280
25234W        W84671   2.864  31.543   1.253
25235W        W84672  13.216   0.394  14.279
25236W        W84673  30.007   6.262  12.871
25237W        W84674  31.543  29.441   3.701
25238W        W84675  10.752   6.408  14.968
25239W        W84676  23.564   1.852   3.313
25240W        W84677   7.195  18.131  11.066
25241W        W84678   4.786  40.010   3.695
25242W        W84679  34.390   0.950  11.596
25243W        W84680  21.610  39.994   1.888
25244W        W84681   0.410  34.885   1.705
25245W        W84682   7.172  23.687  14.842
25246W        W84683   8.303  34.433   2.736
25247W        W84684  10.332  23.999   4.598
25248W        W84685  18.689   2.843   2.288
25249W        W84686   9.834  33.614  14.922
25250W        W84687  18.110   8.376   2.687
25251W        W84688   5.227  20.725   2.748
25252W        W84689  38.543  27.077   1.270
25253W        W84690  40.969   5.857  14.921
25254W        W84691  21.244  30.142  10.522
25255W        W84692  28.963   5.257  14.801
25256W        W84693   4.704  23.998   5.299
25257W        W84694  28.535  27.663   0.777
25258W        W84695   5.366  30.071   2.413
25259W        W84696  22.587  37.403   4.821
25260W        W84697  16.780  37.861  12.564
25261W        W84698  40.867  40.942  12.828
25262W        W84699  13.668  11.866   2.676
25263W        W84700  36.524   0.381   3.636
25264W        W84701   9.305  37.490   1.914
25265W        W84702  34.093  30.656   0.482
25266W        W84703  40.019  35.454  12.516
25267W        W84704  15.721   5.754   4.244
25268W        W84705  16.568  20.251  10.980
25269W        W84706  35.358  29.597  10.456
25270W        W84707  21.754  41.845   0.836
25271W        W84708  26.638  27.984   5.258
25272W        W84709  13.311  23.715   1.726
25273W        W84710   8.771  10.685  14.282
25274W        W84711  32.570  41.375   1.270
25275W        W84712  37.959  14.313   3.786
25276W        W84713  31.615  34.962  11.026
25277W        W84714   9.855  21.021  14.508
25278W        W84715  27.167  17.739  13.513
25279W        W84716  16.223  10.698   0.942
25280W        W84717   8.865   5.783   4.792
25281W        W84718  25.685   2.230  14.017
25282W        W84719  15.719  15.661   2.392
25283W        W84720  12.289   9.811  10.539
25284W        W84721  33.114   4.433   2.385
25285W        W84722   4.886   2.861  14.000
25286W        W84723  35.441  17.251  13.457
25287W        W84724  22.152   3.879  10.505
25288W        W84725   3.270  42.372   2.869
25289W        W84726  24.034   3.296   3.631
25290W        W84727   0.769  31.955   3.849
25291W        W84728  44.287  30.149  12.370
25292W        W84729  19.050   1.914  11.069
25293W        W84730  35.510  14.328   1.819
25294W        W84731   3.881  12.673  13.437
25295W        W84732   2.886  10.709  13.385
25296W        W84733  24.174  13.247   2.343
25297W        W84734  14.668   7.817   0.749
25298W        W84735   5.437  33.895  10.431
25299W        W84736  26.576  33.028   2.694
25300W        W84737   5.289  18.167   4.263
25301W        W84738  17.206  17.562   2.231
25302W        W84739  31.403  13.740  14.421
25303W        W84740  41.806  40.936   1.786
25304W        W84741  26.985  38.356  14.427
25305W        W84742  24.572  36.570   0.275
25306W        W84743  31.980  28.667   2.754
25307W        W84744  34.485  21.156  11.501
25308W        W84745  33.417  28.567   4.199
25309W        W84746  17.628  30.658   1.318
25310W        W84747  27.052  12.844  12.417
25311W        W84748  30.075  44.928  10.544
25312W        W84749  14.681  19.600  13.964
25313W        W84750  43.345  25.003  11.536
25314W        W84751  18.108  12.208   3.385
25315W        W84752   7.864   5.724   2.185
25316W        W84753   5.791   7.193  10.482
25317W        W84754   1.277  30.583  14.929
25318W        W84755  33.954  30.634  11.981
25319W        W84756  36.458  24.984   9.990
25320W        W84757  32.127  20.581   0.466
25321W        W84758  16.567   3.773   0.946
25322W        W84759  40.833  27.528  10.443
25323W        W84760   4.326   9.388  14.292
25324W        W84761   6.325  12.217  14.462
25325W        W84762   1.443  16.292   0.391
25326W        W84763  27.083   0.881   1.816
25327W        W84764  28.135   1.329  12.426
25328W        W84765  16.760  26.559  11.545
25329W        W84766  14.296  44.936   3.366
25330W        W84767  39.990  12.130   4.627
25331W        W84768   2.924  26.459   2.744
25332W        W84769  18.658  33.010  11.543
25333W        W84770  32.099  40.926  12.096
25334W        W84771  43.314  43.503  14.383
25335W        W84772  26.589   5.905  14.761
25336W        W84773  17.062   4.268  14.442
25337W        W84774  33.038  22.138   3.666
25338W        W84775  25.596  40.831  14.275
25339W        W84776   6.716  35.003  11.920
25340W        W84777  17.243   0.457  13.547
25341W        W84778  37.933   6.417  12.010
25342W        W84779   2.372   2.355   0.260
25343W        W84780  11.163  38.872   0.423
25344W        W84781  17.215  32.937   4.650
25345W        W84782  40.966   8.767   5.185
25346W        W84783   5.733   4.832   0.837
25347W        W84784  12.778  40.357  14.805
25348W        W84785  20.093  27.573  14.852
25349W        W84786   7.753   9.687  12.468
25350W        W84787   4.908   6.809  14.286
25351W        W84788  23.085  17.274  14.963
25352W        W84789  32.028   1.828  10.534
25353W        W84790  25.647   4.723   0.337
25354W        W84791  13.755  10.291   2.898
25355W        W84792   4.886  13.652   2.764
25356W        W84793  12.246  44.902  12.549
25357W        W84794  31.627  42.335   1.823
25358W        W84795  38.876  26.662   2.767
25359W        W84796   2.444  31.965   2.703
25360W        W84797  12.853  41.398  11.987
25361W        W84798   5.256   4.819  12.566
25362W        W84799  12.833  13.321  12.871
25363W        W84800  31.959  11.807   1.419
25364W        W84801  39.459  21.120   0.359
25365W        W84802   8.796  11.853   3.335
25366W        W84803  35.945  41.805   0.360
25367W        W84804  34.083   3.281  10.147
25368W        W84805  12.646  10.164   0.891
25369W        W84806   6.802   5.426   1.863
25370W        W84807  27.967  18.695   0.265
25371W        W84808  23.143  26.013  11.105
25372W        W84809  40.021  43.449  14.957
25373W        W84810   3.312  22.010   3.179
25374W        W84811  17.626  23.655   3.155
25375W        W84812  13.808  19.252  13.529
25376W        W84813  42.006  32.053   2.875
25377W        W84814  10.739  29.986   2.285
25378W        W84815  42.859  14.633  10.944
25379W        W84816   2.370   9.833   5.264
25380W        W84817   5.206  34.962  14.935
25381W        W84818   5.743  42.508   2.875
25382W        W84819   8.701  29.536   0.468
25383W        W84820  20.124  13.151  14.016
25384W        W84821  10.679  40.505  12.529
25385W        W84822  25.000  15.293   1.370
25386W        W84823  35.546   2.368   4.722
25387W        W84824   7.397   7.671  14.760
25388W        W84825   4.726   8.278   2.221
25389W        W84826  40.319  22.157   1.274
25390W        W84827  20.630  19.694  13.951
25391W        W84828  18.153  22.201  11.610
25392W        W84829  17.689   9.219  11.967
25393W        W84830  11.708   8.849  12.865
25394W        W84831  40.456  28.613   1.397
25395W        W84832  34.986  25.112   2.373
25396W        W84833  36.397  38.456   2.391
25397W        W84834  17.075   8.212  11.464
25398W        W84835  41.943   8.374  11.552
25399W        W84836  38.486  33.586   4.785
25400W        W84837  25.572  24.534   1.800
25401W        W84838  31.448  28.517   2.200
25402W        W84839   7.324  12.223  12.085
25403W        W84840   1.438  36.851   5.154
25404W        W84841   2.433  19.696   3.730
25405W        W84842  15.121  34.614   3.633
25406W        W84843  18.726  12.674  14.462
25407W        W84844  26.013  44.357  11.113
25408W        W84845  11.786   1.391   0.958
25409W        W84846   9.198  13.163   1.320
25410W        W84847  27.445  20.702  14.384
25411W        W84848  25.028  17.732  13.531
25412W        W84849  16.706  39.398   5.234
25413W        W84850   4.301  12.328  10.589
25414W        W84851  36.400   1.443   0.792
25415W        W84852  35.082  42.954  12.448
25416W        W84853   9.244  23.115   0.964
25417W        W84854  30.559  39.410  14.439
25418W        W84855  31.620  10.216  11.497
25419W        W84856  16.704  34.076   4.770
25420W        W84857  25.671   0.919  10.608
25421W        W84858  31.557  41.469  12.432
25422W        W84859  40.012   3.381  11.413
25423W        W84860  31.029  27.004   3.753
25424W        W84861  12.145  29.494   2.302
25425W        W84862  28.095  27.052  14.909
25426W        W84863  37.062  28.179  14.856
25427W        W84864  44.360  42.827  14.857
25428W        W84865  19.128  15.823   5.298
25429W        W84866   4.262  26.020   1.831
25430W        W84867  32.100   5.416  11.013
25431W        W84868  20.721   2.299   2.288
25432W        W84869  34.072  40.422   4.256
25433W        W84870  25.153   4.208  13.545
25434W        W84871   4.333  23.080   9.462
25435W        W84872  37.052  26.506  13.927
25436W        W84873  22.042   8.300   1.806
25437W        W84874  22.732  11.203  11.887
25438W        W84875  25.167  41.020   5.216
25439W        W84876  22.014  16.101   5.244
25440W        W84877  43.863  35.948   1.235
25441W        W84878  30.985  40.013  10.990
25442W        W84879   1.415  33.486  14.917
25443W        W84880  35.370  35.390   2.802
25444W        W84881  21.197  33.612  14.305
25445W        W84882  27.642  14.169  12.085
25446W        W84883   0.846  38.880  12.417
25447W        W84884  19.540  30.123  14.767
25448W        W84885  44.863  28.938   2.180
25449W        W84886  26.462  24.187   4.156
25450W        W84887  34.456  24.129   4.306
25451W        W84888  29.510  43.313   1.750
25452W        W84889  18.627  18.759  13.334
25453W        W84890  44.763  11.236  13.899
25454W        W84891   6.323  16.799   4.288
25455W        W84892   9.791  16.644  14.496
25456W        W84893   3.907   8.293  10.605
25457W        W84894   1.737  13.151  10.440
25458W        W84895  29.173  29.666   1.913
25459W        W84896  26.998   1.751  11.440
25460W        W84897  17.707  42.511   9.581
25461W        W84898  28.561  33.559  14.947
25462W        W84899  29.141  37.440  13.915
25463W        W84900   0.464   9.731   0.752
25464W        W84901  20.252  15.776   3.366
25465W        W84902  43.419  44.767   4.773
25466W        W84903  19.171  24.005  12.552
25467W        W84904  13.709  36.884   1.309
25468W        W84905  12.170  41.527  13.401
25469W        W84906   1.378  23.662  11.555
25470W        W84907  17.629  22.647  10.459
25471W        W84908  14.792   6.230   4.267
25472W        W84909  27.143  25.481   3.215
25473W        W84910  17.289  26.532   4.236
25474W        W84911  18.630  18.732  12.397
25475W        W84912  33.611  24.214  11.568
25476W        W84913   5.691  11.224  13.338
25477W        W84914  33.408  33.875  12.551
25478W        W84915  44.432  30.508  14.772
25479W        W84916   4.372  42.877  12.037
25480W        W84917  24.664  23.089   1.442
25481W        W84918  10.698   7.180   4.807
25482W        W84919   3.266  33.114  13.509
25483W        W84920  12.199  24.099   4.329
25484W        W84921  40.545  26.482   5.231
25485W        W84922  14.832  35.596  14.448
25486W        W84923   6.416  38.039   4.222
25487W        W84924  22.224   8.351   4.319
25488W        W84925  17.776   4.887  13.448
25489W        W84926  32.559  25.055   3.678
25490W        W84927   5.908  30.121  14.803
25491W        W84928  19.687  44.478   3.723
25492W        W84929  26.002   0.925  10.551
25493W        W84930   3.217  40.998  12.904
25494W        W84931  26.983   0.375  11.913
25495W        W84932  33.972   8.330   0.776
25496W        W84933  13.337  23.111  11.495
25497W        W84934  20.081  39.560   3.291
25498W        W84935   2.354   9.724  12.939
25499W        W84936  16.686  26.092   2.418
25500W        W84937  14.787  15.760   0.795
25501W        W84938  27.949  36.518   1.725
25502W        W84939  20.224  27.172   3.825
25503W        W84940   8.888  38.940  11.970
25504W        W84941   6.866  38.355  12.478
25505W        W84942   1.865  37.876  12.929
25506W        W84943  19.540  37.953  12.534
25507W        W84944   9.758  24.218   3.288
25508W        W84945  18.108  13.178   1.717
25509W        W84946  42.368  44.379  11.076
25510W        W84947  27.136  12.195   2.702
25511W        W84948  32.967  36.538   9.444
25512W        W84949   0.935  21.025   2.844
25513W        W84950   2.354  18.715   4.198
25514W        W84951  14.283  41.993   0.834
25515W        W84952  34.437  27.953  11.513
25516W        W84953  37.389  40.980   4.632
25517W        W84954  35.547  24.147  11.399
25518W        W84955  31.601  41.990   3.327
25519W        W84956  41.994   6.215  11.571
25520W        W84957  14.681   2.340   0.278
25521W        W84958  38.019  35.885   4.190
25522W        W84959   6.212  40.473   4.309
25523W        W84960   5.203  24.049  11.881
25524W        W84961  40.479  39.416  10.925
25525W        W84962  39.438  28.051  11.535
25526W        W84963  38.943  39.374  10.984
25527W        W84964   1.749   3.860   4.691
25528W        W84965  43.843  26.027   1.440
25529W        W84966  24.682  28.436   4.784
25530W        W84967   9.163  18.175   3.725
25531W        W84968  15.323  28.523  11.068
25532W        W84969  17.146  23.118   4.737
25533W        W84970  15.282  26.957  11.478
25534W        W84971  29.940  24.223  12.939
25535W        W84972  15.644  42.928  14.774
25536W        W84973  30.063  18.695  13.011
25537W        W84974   4.750  12.838  10.558
25538W        W84975  15.782  37.537   4.133
25539W        W84976  41.992  36.421   1.243
25540W        W84977  44.875   0.860  11.594
25541W        W84978  44.365   8.695   2.813
25542W        W84979  39.335   4.332  13.820
25543W        W84980  11.667  42.011   0.900
25544W        W84981  22.704   3.304   2.383
25545W        W84982  15.759  22.605  14.858
25546W        W84983  23.716  41.887   2.401
25547W        W84984   0.463   3.868  10.909
25548W        W84985  32.399  37.472  12.917
25549W        W84986  12.293  38.964  14.354
25550W        W84987   7.276  39.830   2.304
25551W        W84988  37.885  25.571  14.907
25552W        W84989  43.323  16.616   1.347
25553W        W84990  18.647  40.433  13.489
25554W        W84991  26.158  37.552   4.663
25555W        W84992   5.356  21.723  14.885
25556W        W84993  29.445  30.119   1.773
25557W        W84994  20.229  35.434   4.141
25558W        W84995  23.608  15.717   4.824
25559W        W84996   4.897   9.295  10.964
25560W        W84997  36.057  26.681   2.360
25561W        W84998  35.386  25.125   4.196
25562W        W84999  12.240  17.773  14.948
25563W        W85000  37.081  14.701   2.211
25564W        W85001  32.550  25.037  12.061
25565W        W85002   0.852  33.999  10.963
25566W        W85003  43.947  35.368   1.788
25567W        W85004  44.815  33.569  10.084
25568W        W85005  15.653  12.221  10.526
25569W        W85006  25.618  39.839  13.482
25570W        W85007  17.271  36.475   0.900
25571W        W85008  19.163  40.968  13.358
25572W        W85009  11.761  12.245   3.248
25573W        W85010  41.368   6.849  14.360
25574W        W85011  37.366  13.232   1.314
25575W        W85012  14.588   8.256  13.875
25576W        W85013   5.223  25.487   0.280
25577W        W85014  31.135   3.790  12.883
25578W        W85015  34.948   5.219   1.799
25579W        W85016  26.989   8.401  13.986
25580W        W85017  28.008  19.750   4.644
25581W        W85018  34.913  32.095   4.768
25582W        W85019   0.326   4.438  11.518
25583W        W85020  27.153  21.584  13.025
25584W        W85021  20.264   9.815  12.997
25585W        W85022  36.370  44.488   1.421
25586W        W85023  25.964   9.801   1.451
25587W        W85024  27.652   2.458  11.953
25588W        W85025   7.711  11.624  11.601
25589W        W85026  11.750  11.142  13.921
25590W        W85027  15.586   7.200  11.090
25591W        W85028  43.444  37.476   1.903
25592W        W85029   9.219  14.173  12.489
25593W        W85030  12.240   7.749   1.380
25594W        W85031  19.065   9.844  13.911
25595W        W85032  16.735   6.246  14.882
25596W        W85033   1.847  30.629  12.386
25597W        W85034  20.183   3.332   5.208
25598W        W85035  44.274  24.006   1.259
25599W        W85036  37.855  20.550  13.899
25600W        W85037  12.228  24.506  12.457
25601W        W85038  24.222   7.370  10.999
25602W        W85039   5.737  28.063  11.899
25603W        W85040  23.134  41.812   2.305
25604W        W85041   2.384  28.671   2.774
25605W        W85042  34.001  16.149   4.301
25606W        W85043   0.779  29.038  11.414
25607W        W85044  37.960  44.357  11.875
25608W        W85045  30.622  22.007   4.817
25609W        W85046   7.790  32.033  11.948
25610W        W85047  19.595  18.277  11.501
25611W        W85048  39.517  16.806  14.826
25612W        W85049  23.011   4.353   1.914
25613W        W85050   5.933  33.122  11.016
25614W        W85051  20.759  28.575  14.411
25615W        W85052  17.773  36.892   2.677
25616W        W85053   2.961  10.183  11.061
25617W        W85054  26.996  22.582   4.704
25618W        W85055   8.364  39.389  14.909
25619W        W85056   4.203   5.751  10.898
25620W        W85057  44.426  28.968   1.721
25621W        W85058  32.009   5.864   0.433
25622W        W85059  36.346  26.151   3.692
25623W        W85060  39.467   2.852   4.691
25624W        W85061  25.139  23.683   4.338
25625W        W85062  29.561   0.861   3.829
25626W        W85063   8.310  32.542   1.853
25627W        W85064  26.037   2.763  11.931
25628W        W85065  28.070  25.179  11.907
25629W        W85066  34.065  24.656   0.773
25630W        W85067  43.319  18.573  10.899
25631W        W85068  27.102  13.240   0.842
25632W        W85069  16.675  24.205   0.951
25633W        W85070   9.757  24.491   3.156
25634W        W85071   9.360  38.501   2.352
25635W        W85072   8.882  13.763  13.850
25636W        W85073  31.463  24.601  14.820
25637W        W85074   8.386  40.910   3.157
25638W        W85075  23.073   6.348  10.922
25639W        W85076  43.888  16.708   2.278
25640W        W85077  25.024  40.921   2.367
25641W        W85078  23.632   7.228  13.061
25642W        W85079  28.654  34.012   3.302
25643W        W85080  41.431  44.298  10.477
25644W        W85081  32.043  24.080  12.944
25645W        W85082  16.713  12.801  14.368
25646W        W85083   6.215  43.876  11.431
25647W        W85084  15.579  28.470  14.788
25648W        W85085  44.877  14.813   1.290
25649W        W85086   6.832   6.199  14.299
25650W        W85087  34.460  25.003   1.746
25651W        W85088  40.045  34.498  13.447
25652W        W85089  23.727   4.851  12.029
25653W        W85090  26.658  26.518  13.446
25654W        W85091   6.278   9.362  14.998
25655W        W85092   7.707  15.624   0.347
25656W        W85093  31.082  20.169  11.539
25657W        W85094  13.111  24.494  13.866
25658W        W85095  40.963  27.125  10.964
25659W        W85096  11.627  27.535  11.558
25660W        W85097   3.390  13.163   0.789
25661W        W85098  15.718  23.533   3.275
25662W        W85099  29.510  42.340  14.406
25663W        W85100  22.144   9.344  10.632
25664W        W85101  13.169  15.209  12.555
25665W        W85102  18.789   5.892  12.913
25666W        W85103  39.484  26.124   0.807
25667W        W85104   5.886  20.272   0.853
25668W        W85105  38.043  37.833  13.916
25669W        W85106   3.216  15.262  11.926
25670W        W85107  43.387  24.531   4.191
25671W        W85108   0.907  44.845  12.878
25672W        W85109  19.777  41.891  12.043
25673W        W85110  30.601  42.510  14.344
25674W        W85111  14.245  37.383   4.635
25675W        W85112  32.885  14.214  13.982
25676W        W85113  42.523  20.238  13.017
25677W        W85114   5.696  22.223  12.870
25678W        W85115   9.296  33.937   2.215
25679W        W85116  25.685  28.960  12.353
25680W        W85117  21.757  21.204   0.293
25681W        W85118   3.316   5.902  10.056
25682W        W85119  12.225   5.896  14.022
25683W        W85120  38.446   9.720   4.691
25684W        W85121  30.075   8.171   1.217
25685W        W85122   6.248  36.421  11.882
25686W        W85123  32.409  36.468  14.275
25687W        W85124  17.067   8.399   2.879
25688W        W85125  31.591  18.101  13.890
25689W        W85126   3.874  42.948   2.240
25690W        W85127  40.842  11.730   2.715
25691W        W85128  15.677  23.046  11.888
25692W        W85129  25.610   7.894  14.508
25693W        W85130  30.417  22.610  10.557
25694W        W85131  41.027  28.576  12.017
25695W        W85132  30.444  42.802   0.814
25696W        W85133   6.199  35.899   4.812
25697W        W85134   7.721  18.218   5.174
25698W        W85135  16.208  29.652  11.023
25699W        W85136  39.463  37.426   0.740
25700W        W85137   7.729  20.113  12.447
25701W        W85138  23.508  34.446   2.779
25702W        W85139   2.878  10.237   0.898
25703W        W85140  32.030  16.755  10.473
25704W        W85141  42.422   4.392  12.055
25705W        W85142  24.677   8.377  10.458
25706W        W85143  31.429  38.451   4.322
25707W        W85144  37.470  38.902  10.074
25708W        W85145  24.484  20.108   0.757
25709W        W85146  14.293  17.298  11.963
25710W        W85147  44.290  41.442   3.274
25711W        W85148   2.293  36.391   0.802
25712W        W85149   6.922  44.816  14.504
25713W        W85150  44.952   8.679   5.143
25714W        W85151  16.622  25.496  12.461
25715W        W85152  38.368  14.703   4.685
25716W        W85153  20.093  22.627   2.790
25717W        W85154   8.700  21.521  14.336
25718W        W85155  22.115  33.409  11.501
25719W        W85156  22.680  36.491   4.125
25720W        W85157  44.281  36.888   2.376
25721W        W85158  27.610  10.309  13.398
25722W        W85159  19.759  13.149  12.001
25723W        W85160   6.246  34.375  10.541
25724W        W85161  15.205   7.705   1.446
25725W        W85162   0.899  23.655  10.081
25726W        W85163   2.772  37.503   2.873
25727W        W85164   9.696   3.350  10.512
25728W        W85165  35.996   1.777  10.523
25729W        W85166  17.112   6.416   0.450
25730W        W85167  35.881  33.999  13.033
25731W        W85168  23.723   4.320   0.907
25732W        W85169  39.501  22.061  14.365
25733W        W85170   3.362  21.126  11.059
25734W        W85171  11.220   4.308   0.254
25735W        W85172  30.947  29.426   3.800
25736W        W85173  24.038   3.225  14.854
25737W        W85174  34.030  18.622   0.323
25738W        W85175  44.884  25.713   2.388
25739W        W85176   8.794  10.646  12.889
25740W        W85177  41.025  27.503   4.332
25741W        W85178  16.668  23.094   4.322
25742W        W85179  18.150  41.881  11.926
25743W        W85180  33.546  35.046   4.673
25744W        W85181   9.150  17.293  12.891
25745W        W85182   4.205  34.473   1.881
25746W        W85183  25.604  42.400   3.728
25747W        W85184   5.793  34.588   4.271
25748W        W85185  34.478  26.193  12.919
25749W        W85186  41.822  44.804   2.338
25750W        W85187  20.689  37.004  14.297
25751W        W85188   5.847  20.532   3.167
25752W        W85189  30.458   3.710   1.250
25753W        W85190  41.456  31.589   2.848
25754W        W85191  26.662  17.298   0.925
25755W        W85192  40.890  23.138  10.925
25756W        W85193  11.174   4.724   4.738
25757W        W85194  34.978  26.061  12.414
25758W        W85195  14.810  24.530  13.543
25759W        W85196  36.894  32.571  13.829
25760W        W85197  23.539   1.312  13.520
25761W        W85198  14.715  14.109  13.023
25762W        W85199   5.784  24.646  13.321
25763W        W85200  44.897   3.319  12.379
25764W        W85201  14.100  43.429   1.299
25765W        W85202  22.628   0.965  13.379
25766W        W85203  29.563  36.930  13.438
25767W        W85204   9.808   0.930   4.776
25768W        W85205  15.187   5.250   2.721
25769W        W85206  23.075   2.950   3.825
25770W        W85207  40.395  25.493   4.144
25771W        W85208   2.744  15.718   1.814
25772W        W85209  13.742   8.742  10.932
25773W        W85210  25.182  14.591   2.278
25774W        W85211  41.304   6.771   2.228
25775W        W85212  13.664   4.883   2.396
25776W        W85213  31.931  15.702   3.311
25777W        W85214  17.179  40.894  12.506
25778W        W85215  40.389  33.441  10.152
25779W        W85216   1.315  11.646  14.809
25780W        W85217  16.073   6.833  11.403
25781W        W85218   9.678  25.608   3.740
25782W        W85219  31.478  26.655  12.911
25783W        W85220   0.836  20.756   4.144
25784W        W85221  17.776  33.020   0.841
25785W        W85222  28.142   1.764  13.321
25786W        W85223  40.495  20.574   2.796
25787W        W85224  24.980  32.523   4.227
25788W        W85225   4.415   9.688   4.622
25789W        W85226  35.090   5.825  12.375
25790W        W85227  34.094  28.991   3.632
25791W        W85228  33.609  28.180   4.339
25792W        W85229  16.217  14.832  13.497
25793W        W85230  35.866  38.070  10.918
25794W        W85231   7.363  19.625  13.012
25795W        W85232  23.088  33.392  14.795
25796W        W85233   8.347  43.811  13.853
25797W        W85234  42.450  25.142   0.748
25798W        W85235  29.988  36.355  11.436
25799W        W85236  37.451  24.639   0.929
25800W        W85237  37.864  19.686   3.640
25801W        W85238   6.682  17.665   1.342
25802W        W85239  11.712   5.731   3.688
25803W        W85240  31.949   7.304   1.902
25804W        W85241  11.153  30.429  14.809
25805W        W85242  41.014  30.940  10.525
25806W        W85243  13.709  21.148  11.497
25807W        W85244   4.777   3.377   5.083
25808W        W85245  26.603   4.859  11.113
25809W        W85246   8.312  44.925   3.215
25810W        W85247   9.794  36.455  14.855
25811W        W85248  14.300  44.967   0.909
25812W        W85249  27.649  10.834  13.799
25813W        W85250  42.010  38.844   1.762
25814W        W85251  44.426  15.693  12.974
25815W        W85252  17.240   4.912   0.318
25816W        W85253  11.369  15.736   3.773
25817W        W85254   3.359  25.577   1.351
25818W        W85255  19.046   8.818   2.791
25819W        W85256  17.170   6.210   0.906
25820W        W85257  43.290  39.558  13.441
25821W        W85258  34.599  15.132  12.999
25822W        W85259  31.989  12.749  12.568
25823W        W85260  15.159   1.778  12.975
25824W        W85261  18.229  25.664  12.030
25825W        W85262  22.182  18.649  10.457
25826W        W85263  27.521   8.301   2.816
25827W        W85264  17.120  33.973   3.166
25828W        W85265  39.951   9.762  11.871
25829W        W85266  12.317  21.225  14.468
25830W        W85267  34.575  14.200  12.395
25831W        W85268   5.802  35.933   0.878
25832W        W85269  26.952   7.234   4.258
25833W        W85270  38.016  35.041   4.292
25834W        W85271  27.665  29.020  11.528
25835W        W85272  43.869  24.719   4.623
25836W        W85273  43.918  30.590  11.463
25837W        W85274  35.426  28.513  11.612
25838W        W85275  44.951  14.632   0.316
25839W        W85276  10.708   0.469   0.813
25840W        W85277  30.640  37.355   9.982
25841W        W85278  28.044  43.514   3.784
25842W        W85279   7.291  33.960   0.366
25843W        W85280  40.809  27.666   0.316
25844W        W85281  44.915   8.350   4.298
25845W        W85282  33.097  37.559  10.410
25846W        W85283   8.224  44.846  11.397
25847W        W85284  33.616  33.544   9.959
25848W        W85285   8.213  18.671  12.949
25849W        W85286  22.531  40.377   0.446
25850W        W85287  38.017  21.031   4.272
25851W        W85288  13.126  24.191   2.316
25852W        W85289   4.711  44.373   4.708
25853W        W85290  25.655  27.487  13.997
25854W        W85291  41.398  33.084   1.703
25855W        W85292  39.366  11.648  13.495
25856W        W85293  43.825  39.020   3.702
25857W        W85294  39.388  37.016   1.363
25858W        W85295  10.179  19.260  10.497
25859W        W85296  16.189  16.802   1.408
25860W        W85297  43.419  38.564   1.897
25861W        W85298  18.295  16.680   3.318
25862W        W85299  22.162  23.666   2.254
25863W        W85300   0.487   9.657   9.460
25864W        W85301  42.018  16.805   1.356
25865W        W85302  27.160   0.266  14.807
25866W        W85303  11.359   6.853  11.901
25867W        W85304  32.478  33.434  12.889
25868W        W85305  18.279  30.428   0.478
25869W        W85306  44.003   4.448  11.566
25870W        W85307  38.538   4.822  14.444
25871W        W85308  10.174   1.841   4.195
25872W        W85309  12.272   1.439  12.907
25873W        W85310  17.153  21.061  14.783
25874W        W85311  30.983  34.372  12.887
25875W        W85312  20.665  35.369   2.745
25876W        W85313  16.210  11.269   0.397
25877W        W85314  14.713  34.091  12.963
25878W        W85315  18.053  23.190   4.185
25879W        W85316  44.319   5.341   4.729
25880W        W85317   1.446  17.594  11.900
25881W        W85318  36.093  31.147  10.923
25882W        W85319  19.280  24.592  13.502
25883W        W85320  38.559  21.147  13.829
25884W        W85321  23.725  14.647   0.309
25885W        W85322  27.591   0.429  14.355
25886W        W85323  34.402  42.833  14.332
25887W        W85324  12.685  11.867   3.753
25888W        W85325  12.347  30.018  13.793
25889W        W85326  20.265   4.833   0.732
25890W        W85327  42.301   7.378   0.811
25891W        W85328   6.807  35.893  11.019
25892W        W85329  30.034  16.267   1.725
25893W        W85330  16.303  21.215   2.888
25894W        W85331  16.296  35.375  10.581
25895W        W85332  33.130  43.019  12.907
25896W        W85333  42.956  33.498   1.432
25897W        W85334  12.169  32.956   2.884
25898W        W85335  28.501  23.035  13.051
25899W        W85336   1.438  21.571   3.653
25900W        W85337  16.174  14.155   0.349
25901W        W85338  15.224   0.450  12.006
25902W        W85339  42.992   1.878  11.418
25903W        W85340   2.868   3.421  11.076
25904W        W85341  19.077  23.043   3.839
25905W        W85342   0.248   1.430   1.400
25906W        W85343   1.867   1.417   2.314
25907W        W85344   5.232  34.519  10.550
25908W        W85345  28.649   7.222   4.727
25909W        W85346   7.706  34.023   2.414
25910W        W85347  16.099  19.674  14.354
25911W        W85348  31.497  33.048  14.854
25912W        W85349  26.123  22.514  10.918
25913W        W85350  35.372  23.074   1.852
25914W        W85351  16.107   8.323   2.305
25915W        W85352  38.461  32.457  12.979
25916W        W85353  17.593  29.629   0.737
25917W        W85354  35.577  39.454  14.433
25918W        W85355  43.816  26.067   3.350
25919W        W85356  23.732  15.299   0.364
25920W        W85357  22.579  13.196   4.154
25921W        W85358  17.286  40.362   2.708
25922W        W85359  20.740   3.777  14.307
25923W        W85360   0.799  44.955  11.477
25924W        W85361  30.161  19.199   0.288
25925W        W85362   7.711  16.709  14.951
25926W        W85363   1.247  16.742  10.611
25927W        W85364  17.765   3.870  10.470
25928W        W85365  27.082   4.210   0.935
25929W        W85366  20.111   9.766  11.488
25930W        W85367  12.699  40.823   4.252
25931W        W85368  10.367  25.057   3.241
25932W        W85369  11.352   5.707  12.064
25933W        W85370  28.072   8.303   4.756
25934W        W85371  26.661  40.934  14.431
25935W        W85372   6.781  27.595   3.290
25936W        W85373  11.863  21.752   4.347
25937W        W85374  28.630   8.363   3.303
25938W        W85375  14.283  32.971  10.567
25939W        W85376   4.854   1.758  11.102
25940W        W85377   6.804  42.436   2.246
25941W        W85378  35.093   8.724   1.431
25942W        W85379  20.748  30.062  14.810
25943W        W85380  16.720  36.850   2.259
25944W        W85381  23.551  16.157  12.840
25945W        W85382   2.781  36.948  12.073
25946W        W85383  25.617  21.698  14.418
25947W        W85384   5.281  19.682   0.438
25948W        W85385  42.803   8.882   1.406
25949W        W85386  36.846  40.394   2.814
25950W        W85387  42.802  40.887   3.171
25951W        W85388   1.789  32.474   1.380
25952W        W85389  29.440   9.668  10.414
25953W        W85390  42.475  23.736   4.739
25954W        W85391  20.648  25.514  12.032
25955W        W85392  30.120  40.032  12.363
25956W        W85393  36.471  35.379   4.327
25957W        W85394  21.693  40.544  11.534
25958W        W85395  14.151  11.139  11.088
25959W        W85396   7.830  27.631   4.253
25960W        W85397  28.098   4.312  12.396
25961W        W85398  40.917  11.151  14.022
25962W        W85399  10.377   4.398   2.757
25963W        W85400  15.808   7.188   3.690
25964W        W85401  25.060  28.088   3.375
25965W        W85402  40.340  41.819   1.240
25966W        W85403  19.169  26.094   3.290
25967W        W85404  30.096  26.563   4.177
25968W        W85405  24.608  34.939   3.845
25969W        W85406  37.997  17.061  13.060
25970W        W85407  38.532   2.753  14.006
25971W        W85408   8.779  40.547   1.882
25972W        W85409  25.710   3.831  12.381
25973W        W85410   8.710   3.320   5.181
25974W        W85411  28.640  31.139  12.360
25975W        W85412  32.454  17.777   0.926
25976W        W85413  37.868  32.907  12.557
25977W        W85414  43.829  13.766  13.813
25978W        W85415  21.561  31.986   2.702
25979W        W85416  19.104  35.558   1.439
25980W        W85417  44.480  26.139  11.402
25981W        W85418   5.326  12.352  10.946
25982W        W85419  26.183  35.896  10.404
25983W        W85420  14.153   3.722  14.416
25984W        W85421   1.752  36.903  13.864
25985W        W85422  27.126  40.407  14.022
25986W        W85423  13.690   5.346  11.066
25987W        W85424  20.125  21.516   1.222
25988W        W85425  39.848  30.155  14.288
25989W        W85426   7.706  42.505  12.541
25990W        W85427  30.024   5.218   0.827
25991W        W85428  42.297   0.251  13.985
25992W        W85429  19.602  42.514   1.321
25993W        W85430  41.883  23.229   4.234
25994W        W85431  16.080  14.129  13.510
25995W        W85432  14.750  44.423   1.244
25996W        W85433  35.108  44.983  14.967
25997W        W85434  20.622  29.461   3.311
25998W        W85435  28.545  33.453  11.120
25999W        W85436   9.879  37.835  14.453
26000W        W85437  27.688  37.509   1.756
26001W        W85438  37.483  14.708  11.584
26002W        W85439  34.021  32.945  11.885
26003W        W85440  30.645   0.955  14.920
26004W        W85441   4.447  26.487  13.914
26005W        W85442  40.804   3.263  14.971
26006W        W85443  33.588  40.506  13.360
26007W        W85444  21.693   6.354   4.316
26008W        W85445  29.465  37.438   3.387
26009W        W85446  13.127  13.833  11.061
26010W        W85447  17.682  21.716   1.852
26011W        W85448  23.684   9.704  13.046
26012W        W85449  32.536   0.347   4.709
26013W        W85450  40.943   8.689   0.776
26014W        W85451  42.796  10.335  11.525
26015W        W85452   2.316  12.742   1.434
26016W        W85453   4.406   5.871   3.237
26017W        W85454  13.684  43.801   1.846
26018W        W85455  29.469  30.559   4.659
26019W        W85456  11.299  24.644   2.238
26020W        W85457  18.270   5.259   2.809
26021W        W85458  39.451  43.446  10.925
26022W        W85459   1.388  23.239  11.977
26023W        W85460   0.458  35.373  12.560
26024W        W85461   7.362  25.647  13.449
26025W        W85462   4.418  20.138  12.090
26026W        W85463   9.730   3.398   0.858
26027W        W85464   1.444  27.947  12.457
26028W        W85465   7.337   7.361  10.582
26029W        W85466  44.397  16.672   0.277
26030W        W85467  30.912  16.770  12.893
26031W        W85468   5.708  36.402   4.199
26032W        W85469  35.016  27.084  12.360
26033W        W85470   5.917  19.129   3.780
26034W        W85471  12.848  10.799  13.972
26035W        W85472  17.223  25.020  13.439
26036W        W85473  37.056  12.277   4.166
26037W        W85474   2.425  28.052   5.292
26038W        W85475  15.759   3.318  10.601
26039W        W85476   2.763  43.994  12.905
26040W        W85477  34.490  18.150  12.012
26041W        W85478  28.556  44.992  14.789
26042W        W85479  15.317  21.614  14.497
26043W        W85480  12.784  11.182  10.578
26044W        W85481  40.932  37.575  11.451
26045W        W85482  33.413  30.635   0.453
26046W        W85483  36.384  30.963  13.799
26047W        W85484  33.522  23.104  11.973
26048W        W85485  27.480  32.636   4.637
26049W        W85486  24.681  23.038  11.589
26050W        W85487  16.297  20.090   1.323
26051W        W85488  21.753  23.087  13.908
26052W        W85489  32.608  14.697   0.965
26053W        W85490   3.248  32.489   1.710
26054W        W85491  20.705   8.215   3.643
26055W        W85492  43.303  26.698   2.363
26056W        W85493  38.455  42.513   1.934
26057W        W85494   1.451   1.877  10.471
26058W        W85495  37.422  29.641  11.112
26059W        W85496   0.918  14.308  10.130
26060W        W85497   5.847  17.236  11.908
26061W        W85498  20.239  32.124   0.467
26062W        W85499  37.436  32.039   2.826
26063W        W85500  19.056  31.085  13.928
26064W        W85501  21.139  33.030  11.414
26065W        W85502  31.949   5.436  11.986
26066W        W85503  16.795  18.157  12.531
26067W        W85504  31.481  41.022   1.842
26068W        W85505  31.469  21.118   2.733
26069W        W85506  28.124   8.670   0.931
26070W        W85507  31.647  24.987  13.050
26071W        W85508  15.186  10.252  14.484
26072W        W85509  41.004   7.838  12.861
26073W        W85510  17.194  39.513  12.828
26074W        W85511   3.442  44.381   0.443
26075W        W85512  22.118   5.917   0.443
26076W        W85513   7.305  37.981  10.442
26077W        W85514  36.963  15.632   1.375
26078W        W85515  42.344  20.643  14.512
26079W        W85516  15.257  11.842  12.930
26080W        W85517  12.727  40.543  11.545
26081W        W85518  20.078  19.744  12.890
26082W        W85519   0.423  20.194  14.425
26083W        W85520  20.254  31.496  11.375
26084W        W85521  24.539  43.443  11.411
26085W        W85522  25.539  34.574   1.742
26086W        W85523  12.662  42.400  12.882
26087W        W85524  20.272  16.643  14.503
26088W        W85525  43.353   7.845  12.887
26089W        W85526   1.805  15.580   2.738
26090W        W85527  44.846   2.903  10.600
26091W        W85528  41.453  12.842  10.941
26092W        W85529  18.571  21.706  11.016
26093W        W85530  24.035   3.229   0.297
26094W        W85531  23.082  35.106  14.944
26095W        W85532  16.568  24.677  12.989
26096W        W85533   5.843  17.102   1.846
26097W        W85534   7.808   7.280   2.372
26098W        W85535  40.821  22.050   0.754
26099W        W85536   5.767  31.548  11.100
26100W        W85537   8.278  11.266   0.388
26101W        W85538  15.742  26.059   1.258
26102W        W85539  18.098  23.608  13.833
26103W        W85540  16.283  24.088  14.395
26104W        W85541  34.018  39.426   1.799
26105W        W85542  36.004   4.227   0.406
26106W        W85543  28.041   8.353   2.373
26107W        W85544  14.776  24.062  11.928
26108W        W85545  20.165  29.115  12.981
26109W        W85546  39.358  21.681   0.868
26110W        W85547  34.067  23.049  12.870
26111W        W85548  32.901  13.622   4.317
26112W        W85549  19.184   4.729   4.174
26113W        W85550   4.836  12.304   0.967
26114W        W85551  29.647  27.151   2.678
26115W        W85552  20.274  27.996   5.105
26116W        W85553  24.000  36.507  12.907
26117W        W85554  19.606   9.355   1.287
26118W        W85555  28.564  23.694   0.812
26119W        W85556  21.621  10.383   3.382
26120W        W85557  12.856   9.205  11.497
26121W        W85558  43.784  14.168   0.268
26122W        W85559  43.361  30.909  13.044
26123W        W85560  41.955  25.147  10.930
26124W        W85561  38.059  29.931   4.781
26125W        W85562   1.270  41.434  14.507
26126W        W85563  19.106  25.491   2.312
26127W        W85564  42.008   8.729  14.873
26128W        W85565  19.263  29.176   4.835
26129W        W85566  31.052  15.286   1.346
26130W        W85567  15.802  33.955  14.946
26131W        W85568  39.000  35.864  11.045
26132W        W85569  43.478   5.217   3.773
26133W        W85570  16.649  15.184  12.092
26134W        W85571  43.282   9.766   0.783
26135W        W85572  12.783  11.835   4.798
26136W        W85573  33.409  17.643   1.226
26137W        W85574  34.385  32.573   3.181
26138W        W85575   9.831  21.532  14.773
26139W        W85576   4.232  40.395  11.502
26140W        W85577  28.520  42.944  10.937
26141W        W85578  34.020   0.877  12.926
26142W        W85579  10.244  14.681   3.866
26143W        W85580   9.224  10.868   0.339
26144W        W85581  42.803  22.704   0.965
26145W        W85582   5.276  38.450  12.061
26146W        W85583  42.404  30.133   0.266
26147W        W85584  26.577  31.546  12.349
26148W        W85585  17.158  17.270  12.407
26149W        W85586  31.066   8.240  12.399
26150W        W85587  39.870   5.833  12.372
26151W        W85588   8.754  22.148   1.329
26152W        W85589  43.824  26.659   1.407
26153W        W85590  41.918  35.911  11.856
26154W        W85591   5.306  10.764   0.331
26155W        W85592  28.088  12.819   3.323
26156W        W85593   8.364  37.560   1.360
26157W        W85594  19.622  41.308  11.473
26158W        W85595  13.175   9.687   2.381
26159W        W85596   4.726  44.904   3.275
26160W        W85597  39.348  19.053   3.374
26161W        W85598  39.988  18.672   4.350
26162W        W85599  43.280   7.300   5.222
26163W        W85600  19.649  36.399   3.629
26164W        W85601  26.159  42.943  10.569
26165W        W85602  10.373   7.317  12.061
26166W        W85603  26.618   6.742   1.275
26167W        W85604  31.090  24.991   2.338
26168W        W85605  16.083   1.467   2.186
26169W        W85606  39.900   1.244   2.870
26170W        W85607   8.784  11.752  11.535
26171W        W85608  31.991  15.658   3.634
26172W        W85609  28.181  44.285  10.462
26173W        W85610  38.923  32.094   9.941
26174W        W85611   1.268  24.139  12.440
26175W        W85612  25.648   6.318   4.803
26176W        W85613   5.307  16.780   0.313
26177W        W85614   3.799  21.028  13.804
26178W        W85615  17.275  20.227   3.771
26179W        W85616   1.815  13.347  13.413
26180W        W85617  29.458   2.356   0.423
26181W        W85618  25.713  33.975  12.401
26182W        W85619  16.265  30.620  10.994
26183W        W85620   6.237   7.347   5.125
26184W        W85621  44.967  37.910   1.289
26185W        W85622  44.766  39.932  14.762
26186W        W85623  30.982   5.202  14.409
26187W        W85624  23.104  14.607  14.428
26188W        W85625  11.326  22.220   2.318
26189W        W85626   8.163  38.461  13.391
26190W        W85627  35.413  10.813   3.867
26191W        W85628  25.195  27.125  11.390
26192W        W85629  13.650   2.378   4.804
26193W        W85630  15.799  22.129  10.955
26194W        W85631  26.465   8.739   1.870
26195W        W85632  39.367  41.008   2.276
26196W        W85633  38.830  43.834  13.355
26197W        W85634   7.359  28.127   2.899
26198W        W85635  41.029   0.785   0.343
26199W        W85636  24.183  12.333  12.366
26200W        W85637  35.484  43.794   0.267
26201W        W85638   7.702   1.308  14.997
26202W        W85639  16.587  19.051   3.181
26203W        W85640   6.845  37.566  10.556
26204W        W85641  33.605  37.937  10.534
26205W        W85642  14.617  36.565  13.835
26206W        W85643  27.553   8.882  12.833
26207W        W85644  31.446  11.128   3.863
26208W        W85645  39.062  35.898  14.922
26209W        W85646  19.688   9.815  11.049
26210W        W85647   0.313  28.112  10.415
26211W        W85648  16.269   8.404  13.855
26212W        W85649  17.710   4.447   2.280
26213W        W85650  10.280   5.900   3.372
26214W        W85651   2.836   7.787   3.321
26215W        W85652   9.178  44.966   1.793
26216W        W85653  15.769  24.060  10.914
26217W        W85654   9.280   5.312  11.448
26218W        W85655  36.581  27.598  12.415
26219W        W85656  17.282  21.237   3.667
26220W        W85657  32.124  41.391  12.343
26221W        W85658  37.845  19.258   2.836
26222W        W85659  40.848  10.202   4.242
26223W        W85660  19.087   0.446   2.350
26224W        W85661   5.389   5.377  10.968
26225W        W85662  16.316  31.631  12.467
26226W        W85663  39.041   3.339   3.708
26227W        W85664   0.305   7.198  12.931
26228W        W85665  28.444  21.204   1.214
26229W        W85666   1.270  28.071   0.844
26230W        W85667  39.989  17.591  14.021
26231W        W85668  17.234  10.872   0.293
26232W        W85669  16.168  16.751  13.428
26233W        W85670  10.709   4.919  10.021
26234W        W85671  26.092  35.929   4.659
26235W        W85672  40.517   9.217  14.855
26236W        W85673  15.629  28.070  14.476
26237W        W85674  23.673  21.173  14.500
26238W        W85675  28.965  38.428   4.653
26239W        W85676   4.939   5.293  10.989
26240W        W85677  42.459  34.596  14.859
26241W        W85678  33.879  32.982  12.449
26242W        W85679  34.605  29.161   1.850
26243W        W85680  20.755  17.284   0.928
26244W        W85681   3.274  36.841  11.478
26245W        W85682   7.866  10.856   1.751
26246W        W85683  27.047  18.091   0.425
26247W        W85684  44.813  17.179   3.748
26248W        W85685  44.868  35.516  11.425
26249W        W85686  16.097  13.191  14.496
26250W        W85687  33.009  39.927  11.906
26251W        W85688  22.556  15.752  14.860
26252W        W85689   2.262  39.470   1.714
26253W        W85690  36.897  37.000   1.907
26254W        W85691  22.687  14.648   9.471
26255W        W85692  38.330  11.809   0.927
26256W        W85693  22.586   6.249  13.860
26257W        W85694  38.454  16.660   1.319
26258W        W85695   8.838  34.101  10.966
26259W        W85696   6.759   9.767   1.849
26260W        W85697  22.698  39.865  11.515
26261W        W85698  44.832   3.845   4.183
26262W        W85699  42.459   8.227  13.041
26263W        W85700  44.904   7.228  12.056
26264W        W85701   4.204  16.113  12.845
26265W        W85702  43.898  26.984  10.555
26266W        W85703  40.547  19.170  12.415
26267W        W85704   7.392  43.848  11.001
26268W        W85705  33.554   3.444   1.836
26269W        W85706  18.253  29.432   1.420
26270W        W85707  36.085   3.310   2.706
26271W        W85708   8.262  11.722   3.735
26272W        W85709  37.543   7.747   3.264
26273W        W85710  18.734   9.201   0.407
26274W        W85711   7.357  44.979  12.056
26275W        W85712   6.900  25.095   2.283
26276W        W85713  23.056  43.950  12.858
26277W        W85714  22.692   3.350   1.743
26278W        W85715  22.689  16.666   4.172
26279W        W85716  24.109  24.691   0.831
26280W        W85717  28.989  43.856   4.259
26281W        W85718  13.175  31.091   4.727
26282W        W85719  25.623  38.894  11.867
26283W        W85720  20.163  38.431  13.336
26284W        W85721  42.488  38.480  11.450
26285W        W85722  22.604   5.739   3.185
26286W        W85723  40.412  35.958  11.987
26287W        W85724  43.499  21.212   3.860
26288W        W85725  24.579   9.386  11.452
26289W        W85726  43.789  34.111  13.849
26290W        W85727   2.849  19.664  12.887
26291W        W85728  30.021  35.072  12.533
26292W        W85729  10.668  11.793   2.838
26293W        W85730  22.203  41.867  11.944
26294W        W85731  39.371   9.715  10.478
26295W        W85732  42.378  31.584  12.950
26296W        W85733  16.201   6.376   4.814
26297W        W85734   2.286   1.904   4.213
26298W        W85735  11.213   5.285   0.328
26299W        W85736  42.449   1.749   0.759
26300W        W85737  32.997  32.086   4.129
26301W        W85738  19.537  10.743   3.803
26302W        W85739  34.531  42.323   2.379
26303W        W85740  17.099  25.503   1.909
26304W        W85741  38.962  40.020   4.234
26305W        W85742   4.350   7.824  10.997
26306W        W85743   0.874  41.463  12.523
26307W        W85744   3.332  23.634  13.537
26308W        W85745  34.503  42.911  14.900
26309W        W85746  35.435   2.279  13.474
26310W        W85747  29.424  17.214   1.253
26311W        W85748   3.723   9.655   2.903
26312W        W85749  32.967  22.241   2.417
26313W        W85750  24.069  14.158   2.192
26314W        W85751  21.186  12.708  11.482
26315W        W85752   3.808  17.129  12.965
26316W        W85753  43.306  30.000  14.330
26317W        W85754  43.460  30.541  12.902
26318W        W85755   6.917  14.626  14.792
26319W        W85756  19.245  38.881  11.378
26320W        W85757  20.607  22.026   9.490
26321W        W85758   8.213  17.708   3.159
26322W        W85759   4.700  19.276  10.549
26323W        W85760  44.365  22.009   0.364
26324W        W85761  17.253  22.707  12.979
26325W        W85762  22.673  38.514   4.208
26326W        W85763  39.514  31.597   0.316
26327W        W85764  40.008  42.338   0.871
26328W        W85765  27.982  23.188   4.748
26329W        W85766  28.001  20.208  14.007
26330W        W85767   2.284  42.986   1.223
26331W        W85768  21.211   0.426   0.383
26332W        W85769  23.062  36.399  10.449
26333W        W85770  19.676   7.329   0.822
26334W        W85771  34.023   5.871   2.258
26335W        W85772  21.084   5.219   3.366
26336W        W85773  19.612  13.325   0.858
26337W        W85774  38.886  25.175   3.275
26338W        W85775  22.031  42.357  13.806
26339W        W85776  44.446   4.865   4.797
26340W        W85777  39.037  34.519  12.981
26341W        W85778   6.306  34.602   1.299
26342W        W85779  11.219  29.607  12.459
26343W        W85780  10.653   7.229   2.805
26344W        W85781  37.373  38.450   5.165
26345W        W85782  22.569   3.933  14.393
26346W        W85783   2.393  14.613  11.904
26347W        W85784  37.961  38.468   3.262
26348W        W85785   1.398   5.364  12.068
26349W        W85786  24.553  24.506  12.487
26350W        W85787  35.506  41.501  12.062
26351W        W85788  16.228  22.644  14.324
26352W        W85789   1.277  30.021   0.932
26353W        W85790  13.747   4.239  10.967
26354W        W85791  12.696  12.360  12.020
26355W        W85792   2.255  40.829   3.654
26356W        W85793  24.725  37.431   1.834
26357W        W85794  13.218  12.836  13.442
26358W        W85795   5.322  12.333  11.576
26359W        W85796   0.845  35.865  12.517
26360W        W85797  41.906  35.470  14.866
26361W        W85798  12.116  36.861   0.412
26362W        W85799  38.384  26.033  13.938
26363W        W85800  41.401  24.546  14.984
26364W        W85801   9.839  38.061   2.302
26365W        W85802  24.634   3.944  12.358
26366W        W85803  35.414  34.423   4.353
26367W        W85804  27.473  39.906   0.451
26368W        W85805  16.077  18.596   0.292
26369W        W85806  19.059  30.981  11.510
26370W        W85807  40.878   0.905  14.967
26371W        W85808  30.424   4.302   1.782
26372W        W85809  14.747  21.264   1.700
26373W        W85810  25.021  35.063   3.806
26374W        W85811   9.687  23.003  13.414
26375W        W85812  37.405  38.364  11.045
26376W        W85813  32.451  42.316   2.735
26377W        W85814  35.446  44.807  10.500
26378W        W85815   1.968  23.536  11.474
26379W        W85816  29.522   1.339  12.576
26380W        W85817   0.770  20.626   0.447
26381W        W85818  30.927  24.049   3.683
26382W        W85819   1.775  25.029  11.040
26383W        W85820  29.600  44.926   3.215
26384W        W85821  15.160   4.401  13.377
26385W        W85822  33.895  30.068  10.932
26386W        W85823  26.180   9.387  12.945
26387W        W85824  19.255  33.565   3.239
26388W        W85825  29.079  11.720   3.313
26389W        W85826  34.494   8.239   0.318
26390W        W85827  35.462  32.002   4.290
26391W        W85828   8.765  12.856  10.944
26392W        W85829  34.979  38.542   5.157
26393W        W85830  21.673   9.767   2.759
26394W        W85831  23.610  42.431  11.087
26395W        W85832   9.258  14.785   1.370
26396W        W85833   4.776  16.201  12.047
26397W        W85834  36.973  27.031   0.414
26398W        W85835  42.511  34.492   3.683
26399W        W85836  15.694  23.512  14.910
26400W        W85837  41.817  20.565   1.417
26401W        W85838  33.970  23.707   2.847
26402W        W85839  32.915  38.414  12.459
26403W        W85840  37.542  41.332  10.500
26404W        W85841   1.774  44.798  13.504
26405W        W85842  19.557  28.585   2.718
26406W        W85843  33.593  29.069  12.508
26407W        W85844  43.990  42.032  12.937
26408W        W85845   4.833  29.038   3.655
26409W        W85846  17.716  33.978   3.148
26410W        W85847  25.504  16.203  10.465
26411W        W85848  11.773   1.271  10.638
26412W        W85849  35.913  28.589  11.043
26413W        W85850  25.183  16.076   3.802
26414W        W85851  28.608  21.642   3.767
26415W        W85852  13.327   7.844   1.271
26416W        W85853  11.711  28.061  14.934
26417W        W85854  41.433  35.586   1.847
26418W        W85855  39.376  39.543   1.347
26419W        W85856  11.162   3.937   3.653
26420W        W85857  20.136  42.988   0.373
26421W        W85858  25.053  12.214   0.735
26422W        W85859  29.012  19.042   4.832
26423W        W85860  12.805  41.303   4.820
26424W        W85861   1.927   6.846   3.192
26425W        W85862  29.042  35.556  12.950
26426W        W85863  10.170  12.753  14.344
26427W        W85864  38.544  16.614  12.869
26428W        W85865  31.642  27.587   3.329
26429W        W85866  19.537   4.806   0.316
26430W        W85867  11.855  31.989  11.102
26431W        W85868   5.851  20.256  12.894
26432W        W85869  14.786  25.105  14.818
26433W        W85870  33.489  35.477  13.064
26434W        W85871  27.015   0.939  10.026
26435W        W85872  26.687   3.440   0.266
26436W        W85873  24.535   5.848   1.413
26437W        W85874  32.134  29.473  13.029
26438W        W85875   2.892  17.592   5.205
26439W        W85876  20.565   8.813   0.292
26440W        W85877  19.233  17.138  10.451
26441W        W85878   5.749   5.288   1.319
26442W        W85879  31.907  12.215  10.439
26443W        W85880  35.093  18.620  10.456
26444W        W85881  44.984  18.622  12.427
26445W        W85882  25.634   1.799  13.806
26446W        W85883  39.559  13.130  12.922
26447W        W85884  41.325   7.278  11.435
26448W        W85885  35.567   2.768  12.064
26449W        W85886  18.095  30.496   1.752
26450W        W85887  42.458  19.549   3.151
26451W        W85888  37.357  41.482  14.830
26452W        W85889   0.948  41.527  13.905
26453W        W85890  44.276  15.582   0.944
26454W        W85891  11.634   6.255  12.921
26455W        W85892  32.399   2.259   3.238
26456W        W85893  23.679  11.242   4.303
26457W        W85894  43.329  22.073  12.353
26458W        W85895  14.222  18.281   1.905
26459W        W85896  43.509  28.629  11.487
26460W        W85897   1.456   5.281   1.321
26461W        W85898  44.453  37.857   4.170
26462W        W85899  28.097   9.764   2.406
26463W        W85900  31.073  24.583   1.858
26464W        W85901  32.414  43.821  10.994
26465W        W85902  42.292  24.048  14.973
26466W        W85903  38.456   2.465  13.405
26467W        W85904  44.783  16.658  12.983
26468W        W85905  28.519  36.046  13.366
26469W        W85906  12.658  35.579   4.220
26470W        W85907   0.897  31.982  11.111
26471W        W85908   5.798   6.260   2.700
26472W        W85909  40.428  13.732  14.844
26473W        W85910  22.557   4.427  13.358
26474W        W85911  14.330  41.878  14.369
26475W        W85912  25.024  20.741  13.835
26476W        W85913  35.435  24.555   3.297
26477W        W85914  18.271  43.910   0.837
26478W        W85915   3.768  28.139   4.799
26479W        W85916  27.000  16.580   3.849
26480W        W85917  20.747  44.375  12.881
26481W        W85918  34.455  31.519   2.802
26482W        W85919  13.637  43.989  14.461
26483W        W85920  16.128   7.273   3.249
26484W        W85921  11.656  16.812  13.496
26485W        W85922  44.757   8.265   3.382
26486W        W85923  33.074   6.907  11.091
26487W        W85924  28.628  37.393   1.225
26488W        W85925  31.036   7.397   1.318
26489W        W85926   3.872  13.135   1.283
26490W        W85927  27.135  29.925   0.443
26491W        W85928  13.283  18.567  12.429
26492W        W85929  23.164  44.828  12.561
26493W        W85930  43.916  31.594   1.309
26494W        W85931  33.586  19.726  13.014
26495W        W85932   7.397  26.011  13.338
26496W        W85933  29.101   3.257  12.903
26497W        W85934   0.280  33.920  11.508
26498W        W85935  15.786  18.560   4.725
26499W        W85936  27.044  44.839  12.527
26500W        W85937   3.825  22.638   2.793
26501W        W85938  37.490  26.558   0.869
26502W        W85939  33.489  17.302  11.052
26503W        W85940  10.321  42.891  13.310
26504W        W85941  33.905  43.003  12.391
26505W        W85942   6.738  24.519  13.533
26506W        W85943  30.039  29.930   3.182
26507W        W85944   4.754  18.589  12.948
26508W        W85945  11.333  42.367  13.949
26509W        W85946  42.420   4.404   1.845
26510W        W85947  40.890  27.629  11.952
26511W        W85948  20.604   8.240  14.923
26512W        W85949   2.300  18.067  11.387
26513W        W85950   5.885   8.883   2.376
26514W        W85951  17.573   1.864  11.016
26515W        W85952  40.436  10.248   2.817
26516W        W85953  13.273  14.312  13.867
26517W        W85954  19.126  37.962   2.750
26518W        W85955  41.361   0.965   2.698
26519W        W85956  44.375  36.472  11.532
26520W        W85957  39.024  16.310   1.279
26521W        W85958  44.453   7.237  14.783
26522W        W85959  18.664  44.007  12.372
26523W        W85960  26.136  10.173  13.990
26524W        W85961   0.819  12.339  13.370
26525W        W85962  15.221  16.752  11.054
26526W        W85963   1.321  44.417  10.427
26527W        W85964  29.606  30.952  13.523
26528W        W85965  30.116  16.743   1.355
26529W        W85966   9.759  32.931   4.665
26530W        W85967  23.541  25.168   4.268
26531W        W85968   1.737  10.735   4.816
26532W        W85969  24.699   5.385   1.746
26533W        W85970  15.102  37.851  14.414
26534W        W85971   7.282  37.950   4.348
26535W        W85972  36.477   0.278  11.500
26536W        W85973  30.136  36.355  14.485
26537W        W85974  44.308   5.864  12.475
26538W        W85975  42.920  36.012   2.361
26539W        W85976   3.308  26.971  14.435
26540W        W85977  15.126  37.430   0.883
26541W        W85978   3.916  30.451  13.371
26542W        W85979  41.391  18.677   2.415
26543W        W85980   1.334  38.475  13.832
26544W        W85981  18.640   5.870   3.868
26545W        W85982  13.818   7.349  10.991
26546W        W85983   1.746  31.978   0.317
26547W        W85984  24.507  17.126  12.863
26548W        W85985  11.662  37.921   4.769
26549W        W85986  28.109  12.213   0.315
26550W        W85987   6.403  30.052   3.855
26551W        W85988  25.166  15.615   0.944
26552W        W85989   1.308  33.552  12.061
26553W        W85990  13.783  28.470  12.459
26554W        W85991  40.381  10.785  11.415
26555W        W85992  27.548   1.804  12.419
26556W        W85993  12.744  42.389  13.895
26557W        W85994   7.398  37.394   4.259
26558W        W85995  12.254  39.881   3.168
26559W        W85996  35.512  24.145   3.316
26560W        W85997  37.516  34.019   2.710
26561W        W85998  40.417  35.996   5.289
26562W        W85999  20.189  27.568  10.474
26563W        W86000  13.264  26.547  12.971
26564W        W86001  12.748  34.455  13.407
26565W        W86002  17.251  21.702   4.182
26566W        W86003  32.050  40.401  14.297
26567W        W86004  17.279  25.150   4.138
26568W        W86005   5.690  28.107   5.088
26569W        W86006  28.167  26.648   5.319
26570W        W86007  42.822  23.507  11.879
26571W        W86008  17.211  42.447  14.398
26572W        W86009  17.713  41.953  14.495
26573W        W86010  11.173  20.065  14.876
26574W        W86011   1.771  40.043   0.479
26575W        W86012  23.201   7.257  14.476
26576W        W86013  22.093   4.768   9.992
26577W        W86014   9.869  26.996   4.348
26578W        W86015   8.363  17.587   0.772
26579W        W86016  38.821  40.890   0.445
26580W        W86017   4.267  11.141  13.037
26581W        W86018  10.845  17.677   4.650
26582W        W86019  34.946  25.560   1.901
26583W        W86020   4.245  31.125   0.934
26584W        W86021  22.537  12.270  12.881
26585W        W86022  18.057  43.771  11.941
26586W        W86023   4.440   3.788  11.375
26587W        W86024   4.218  37.018  13.431
26588W        W86025   7.799  19.591  14.485
26589W        W86026  15.684  42.375   4.329
26590W        W86027  35.882  15.583  13.455
26591W        W86028  26.110  44.916  14.792
26592W        W86029  17.219  31.602  12.023
26593W        W86030   7.805  42.415  11.557
26594W        W86031  11.224  21.137  14.317
26595W        W86032  33.893  32.082   2.766
26596W        W86033  21.246  12.732   4.706
26597W        W86034  19.610  40.517   0.432
26598W        W86035  10.181   2.720   4.648
26599W        W86036  10.863  36.899   4.294
26600W        W86037  14.617  20.662   4.606
26601W        W86038  14.798   1.781  11.869
26602W        W86039  38.532   2.728  14.828
26603W        W86040  32.421  34.074   4.239
26604W        W86041   7.828   0.833  11.042
26605W        W86042  15.259  15.667   2.374
26606W        W86043   2.227  34.071  13.343
26607W        W86044   9.789   5.358  14.829
26608W        W86045   7.395   6.367   0.290
26609W        W86046  44.890  17.153  10.421
26610W        W86047  23.664  37.538   0.962
26611W        W86048   8.824  23.095   0.744
26612W        W86049  32.105   4.418   4.329
26613W        W86050  14.115  31.100  14.894
26614W        W86051  42.489  34.908  12.552
26615W        W86052  44.990  27.619   0.921
26616W        W86053  15.808  27.037   1.857
26617W        W86054  17.067  44.267   0.299
26618W        W86055   0.278  31.963   4.799
26619W        W86056  17.299  10.252   1.347
26620W        W86057   2.804  37.546   4.197
26621W        W86058  17.598   3.388  11.500
26622W        W86059  25.195  36.871   9.549
26623W        W86060  41.318   2.453   1.816
26624W        W86061  36.410  14.161   2.679
26625W        W86062   4.332  29.114  14.898
26626W        W86063   0.986  31.080   0.829
26627W        W86064  35.853  19.199  12.857
26628W        W86065  18.625  28.965  13.020
26629W        W86066  27.690  20.228  11.552
26630W        W86067  22.187  26.040  12.877
26631W        W86068  15.702   3.394  14.909
26632W        W86069  32.142  28.577  11.109
26633W        W86070  16.083  36.387   3.347
26634W        W86071  29.962  43.878  10.580
26635W        W86072   6.261  18.207   4.760
26636W        W86073  11.156  18.065  10.414
26637W        W86074   0.342  23.660   2.835
26638W        W86075  43.350   9.176   2.342
26639W        W86076   8.670  42.781  11.074
26640W        W86077  12.697  27.141   4.280
26641W        W86078  36.087  22.525  10.972
26642W        W86079  25.637  24.117  12.937
26643W        W86080  32.138  36.485  11.385
26644W        W86081  30.079  40.449  13.862
26645W        W86082  40.043  12.347  14.031
26646W        W86083  35.392  40.888   4.683
26647W        W86084  42.855  14.097   4.318
26648W        W86085  38.874   0.867  11.526
26649W        W86086  24.091  29.122  11.461
26650W        W86087  17.305  30.412  13.490
26651W        W86088  16.664  16.220   9.668
26652W        W86089  44.959  35.860   2.749
26653W        W86090   9.872   9.679  11.987
26654W        W86091   8.404  29.161   1.921
26655W        W86092  21.698  42.469   3.278
26656W        W86093  16.113  38.345   2.393
26657W        W86094   5.254  29.047   3.836
26658W        W86095  19.243   7.252   2.359
26659W        W86096  28.033  37.011  10.580
26660W        W86097  10.343  42.855  12.544
26661W        W86098  19.145  28.551  12.508
26662W        W86099  35.376  38.384   2.348
26663W        W86100  26.007  14.733   2.739
26664W        W86101  22.097  42.795   4.827
26665W        W86102  41.295  17.695   0.246
26666W        W86103  36.961  32.043  10.965
26667W        W86104  34.418  41.370   3.325
26668W        W86105  18.740  29.925   3.160
26669W        W86106  22.666  44.358  11.984
26670W        W86107  41.972  28.447   0.959
26671W        W86108  21.197  15.776   4.317
26672W        W86109  37.484  13.288  10.564
26673W        W86110  14.303   2.884   0.897
26674W        W86111  44.861  38.899  14.893
26675W        W86112  34.582  36.024  11.435
26676W        W86113  18.151  38.415   2.269
26677W        W86114  37.483  27.964   2.206
26678W        W86115  28.438  28.945  11.085
26679W        W86116  28.449   3.912   2.241
26680W        W86117  17.182  30.420   1.388
26681W        W86118   7.834  33.411   4.239
26682W        W86119   6.806  14.825   2.853
26683W        W86120  25.977   6.310   1.799
26684W        W86121  12.173  29.950  12.967
26685W        W86122   1.833  33.898   3.259
26686W        W86123  35.384   4.895   0.428
26687W        W86124  31.071  37.521   5.171
26688W        W86125  20.263  31.548   0.837
26689W        W86126  37.412  11.136   1.920
26690W        W86127  31.499  39.848  14.968
26691W        W86128  31.994  43.920   4.280
26692W        W86129  31.477   6.889   4.758
26693W        W86130  11.214  40.851  13.473
26694W        W86131   8.854  38.529  11.484
26695W        W86132  18.561  13.298   0.748
26696W        W86133  38.470  32.637   2.767
26697W        W86134   6.425  11.734   4.262
26698W        W86135  30.911  29.097   2.695
26699W        W86136  31.944  28.182   0.439
26700W        W86137   5.204  32.543  10.519
26701W        W86138  20.655  39.953  14.508
26702W        W86139  41.302  17.592   1.295
26703W        W86140   2.262  32.033  12.967
26704W        W86141  12.686   1.796   2.181
26705W        W86142  25.507   6.735   4.130
26706W        W86143  34.906  35.482  13.809
26707W        W86144  37.060  15.593  12.076
26708W        W86145   6.800   2.756  12.577
26709W        W86146  41.428   3.833   2.760
26710W        W86147  27.075  43.343   2.223
26711W        W86148  25.077  32.129  11.003
26712W        W86149   2.748  14.094  14.369
26713W        W86150  28.178  12.131   1.739
26714W        W86151  15.169  16.304  14.400
26715W        W86152   9.684  32.616  11.596
26716W        W86153  39.395  35.899   1.858
26717W        W86154  12.669  17.653  13.438
26718W        W86155  30.121  16.160  11.041
26719W        W86156   1.933  18.650   4.789
26720W        W86157  22.608  42.914   1.731
26721W        W86158   0.468   7.320  11.428
26722W        W86159   5.786  13.797   4.739
26723W        W86160  11.737  43.811  10.519
26724W        W86161   8.823  17.722   3.292
26725W        W86162   6.757  20.550   1.437
26726W        W86163  42.874  39.053  12.956
26727W        W86164   3.446  31.042   5.182
26728W        W86165  37.570  43.411   2.758
26729W        W86166  15.733  17.148  13.853
26730W        W86167  14.596  18.718   0.807
26731W        W86168  14.787  10.222  13.413
26732W        W86169   3.738   9.357   3.219
26733W        W86170   6.782  30.495  10.924
26734W        W86171   8.249  23.594   0.260
26735W        W86172  29.962  10.214   4.216
26736W        W86173  25.999  35.582  13.977
26737W        W86174  10.369  34.484  14.923
26738W        W86175  21.711  39.008   3.174
26739W        W86176  32.533   3.397   0.841
26740W        W86177  37.037   3.891   1.726
26741W        W86178  13.135  36.443  12.351
26742W        W86179  13.297  11.760  14.899
26743W        W86180  26.142   0.381   2.349
26744W        W86181  37.067   9.197  11.879
26745W        W86182  34.886  37.838  10.539
26746W        W86183  30.467  43.795   4.173
26747W        W86184  41.955  18.148  11.049
26748W        W86185  37.852  21.243   3.713
26749W        W86186  16.267  11.636   3.812
26750W        W86187  11.207  38.867  11.019
26751W        W86188  42.287  22.649   1.717
26752W        W86189  35.530  38.413   5.124
26753W        W86190  20.268  23.666   1.902
26754W        W86191  14.272   4.866   4.743
26755W        W86192   6.357  23.637  12.510
26756W        W86193  41.376  39.467   9.520
26757W        W86194  30.108   3.219   0.478
26758W        W86195   3.214  27.988   4.200
26759W        W86196  38.996  18.288   9.958
26760W        W86197   6.910  35.891   2.727
26761W        W86198  27.952   9.316   3.712
26762W        W86199  42.967  16.175   2.215
26763W        W86200   3.229  19.225  13.353
26764W        W86201  24.042   0.931   1.821
26765W        W86202  40.314  36.856  11.872
26766W        W86203  27.667  30.924  14.473
26767W        W86204  14.280  30.460  13.919
26768W        W86205   2.306  35.874   0.770
26769W        W86206  21.596   0.869   3.262
26770W        W86207  29.602  22.245  11.901
26771W        W86208  14.681  27.153  11.057
26772W        W86209   5.871  32.037  14.943
26773W        W86210   4.319  22.076   4.757
26774W        W86211  14.679  19.610  14.942
26775W        W86212  39.380  30.916   2.414
26776W        W86213  39.976   2.429   1.868
26777W        W86214  12.636  39.948   3.713
26778W        W86215  14.624  23.507   2.404
26779W        W86216  26.101  34.917  12.474
26780W        W86217  44.871  13.793   0.802
26781W        W86218  41.008  43.869  14.403
26782W        W86219   9.733  13.302  12.014
26783W        W86220   1.413  31.967   4.297
26784W        W86221  44.773   6.351   4.745
26785W        W86222  20.118   2.348  11.945
26786W        W86223   2.929  17.213  10.020
26787W        W86224  37.438   5.733   2.876
26788W        W86225   3.260  38.411   3.835
26789W        W86226  20.538  13.271  10.498
26790W        W86227  40.904  14.268   1.227
26791W        W86228  31.573  21.054  14.452
26792W        W86229   1.895  26.164   2.324
26793W        W86230  30.123  36.901  14.772
26794W        W86231  35.900  42.516   1.285
26795W        W86232   2.329   8.676   5.144
26796W        W86233  11.677  11.254  12.023
26797W        W86234  36.589  12.275  13.543
26798W        W86235   6.834   6.764  13.403
26799W        W86236  22.057  39.542  12.069
26800W        W86237  39.385  38.020  11.594
26801W        W86238   9.304  39.867  10.953
26802W        W86239  16.602  44.368   2.244
26803W        W86240  16.637  40.457   1.707
26804W        W86241  10.793  43.348   3.658
26805W        W86242  35.947  31.023   1.404
26806W        W86243  33.529  23.072   0.759
26807W        W86244  19.263   1.975   1.333
26808W        W86245  22.052  12.192  13.347
26809W        W86246  40.842  20.695  14.281
26810W        W86247   9.218  41.843   5.169
26811W        W86248  17.210  28.013   2.706
26812W        W86249  11.713  44.925  12.956
26813W        W86250  29.071  43.509  11.031
26814W        W86251  20.635  27.966   1.247
26815W        W86252   1.467  32.509  13.795
26816W        W86253  22.544  14.807   1.252
26817W        W86254  28.972  30.030   4.799
26818W        W86255  37.026  44.390   3.639
26819W        W86256   1.928   4.739  13.364
26820W        W86257  29.453  22.625   0.344
26821W        W86258  24.672   8.854   4.312
26822W        W86259  13.724  27.539  14.019
26823W        W86260  37.458  25.154   3.225
26824W        W86261   4.802  36.586   3.264
26825W        W86262  38.525  33.954   0.727
26826W        W86263  39.996  28.930   4.243
26827W        W86264  32.530  19.635  11.959
26828W        W86265  21.079  23.081   0.811
26829W        W86266  17.099  16.291  13.363
26830W        W86267   1.849  30.094  11.084
26831W        W86268  15.699  20.225   1.731
26832W        W86269  32.415   8.261  12.519
26833W        W86270  13.326  33.507  10.947
26834W        W86271   9.796  24.720  10.444
26835W        W86272   1.825  25.186   3.219
26836W        W86273  22.121  12.740   4.817
26837W        W86274  29.434  28.505  12.024
26838W        W86275  43.315  41.455   4.287
26839W        W86276   6.895  17.259   4.815
26840W        W86277  20.642  28.960  14.496
26841W        W86278  38.442   1.840   1.737
26842W        W86279  34.427  33.450  12.049
26843W        W86280  37.920  36.088  14.920
26844W        W86281  28.644  14.179   2.217
26845W        W86282  15.319   8.865  14.953
26846W        W86283   8.379  35.903   0.460
26847W        W86284   7.906   9.229   0.337
26848W        W86285   4.437  22.040   1.712
26849W        W86286   2.742   2.728  11.055
26850W        W86287   0.276  29.174  14.381
26851W        W86288  32.061  39.007  14.771
26852W        W86289  19.775  34.096  11.481
26853W        W86290  27.067   3.878  11.398
26854W        W86291  15.643  35.092   1.820
26855W        W86292   9.839  34.405  14.826
26856W        W86293   6.684   3.716  14.437
26857W        W86294  26.604  40.816   0.381
26858W        W86295   4.419  16.081   4.768
26859W        W86296   2.314   8.304   0.313
26860W        W86297  28.178  39.852   1.210
26861W        W86298  14.229  41.340   0.359
26862W        W86299  43.514   9.208   2.745
26863W        W86300   5.236  36.873   4.182
26864W        W86301  33.436  40.889   3.796
26865W        W86302  29.522  44.959   2.666
26866W        W86303  38.495  34.923   2.782
26867W        W86304   9.260   7.724  14.850
26868W        W86305  41.493  16.669   4.162
26869W        W86306   2.229  10.241   3.669
26870W        W86307  24.592   7.208   0.277
26871W        W86308  19.577   5.816  13.827
26872W        W86309  18.103  15.807  13.914
26873W        W86310   0.884  22.593   1.795
26874W        W86311  15.137  18.239  14.789
26875W        W86312   2.431   0.750   0.916
26876W        W86313  31.950  14.678  14.948
26877W        W86314  36.571   7.723   1.928
26878W        W86315  25.208   4.901  10.911
26879W        W86316  32.570  34.414   0.791
26880W        W86317   5.843  43.971  11.584
26881W        W86318  16.118  10.692  12.451
26882W        W86319   3.810  17.703  10.546
26883W        W86320  38.387  18.192   1.291
26884W        W86321  26.629  11.674  14.458
26885W        W86322  34.051  32.923  14.941
26886W        W86323   7.875   3.805  11.894
26887W        W86324  23.239  11.670   5.102
26888W        W86325  42.860  10.685  13.394
26889W        W86326  40.411  34.020   3.697
26890W        W86327  40.349  10.237  10.033
26891W        W86328  20.642   8.873   1.346
26892W        W86329  14.748   2.423  10.450
26893W        W86330  11.136  11.658   3.149
26894W        W86331   5.758  32.092  12.983
26895W        W86332  38.511  23.130   3.332
26896W        W86333  19.163   9.346   4.821
26897W        W86334  41.039  40.938   0.279
26898W        W86335   1.291  39.377  11.489
26899W        W86336  39.915  26.607   4.603
26900W        W86337  25.492  29.025  14.839
26901W        W86338  44.761  32.615   0.793
26902W        W86339  43.501  43.304  13.869
26903W        W86340  32.409  15.263  12.469
26904W        W86341   1.755  18.260  10.942
26905W        W86342  44.837  22.633  14.768
26906W        W86343  31.535   5.393   1.874
26907W        W86344  44.919   5.295   4.173
26908W        W86345  34.549  21.253   3.183
26909W        W86346  14.738  14.231  11.460
26910W        W86347  30.446   9.668  12.846
26911W        W86348  13.282  22.212  13.808
26912W        W86349  20.638  33.993  11.588
26913W        W86350   6.702   8.190  13.044
26914W        W86351  42.896  16.174   1.309
26915W        W86352  30.477  41.828   0.339
26916W        W86353   5.920  11.162   4.237
26917W        W86354  26.975  40.853  14.949
26918W        W86355  18.730  21.088  11.449
26919W        W86356  44.477  25.041  14.860
26920W        W86357  42.864  21.106  13.002
26921W        W86358  16.594  20.139  12.026
26922W        W86359  34.471  36.458   0.784
26923W        W86360  31.621  23.644   2.200
26924W        W86361  22.070  24.977  11.118
26925W        W86362  40.802  30.966   3.692
26926W        W86363  33.529  17.742  14.793
26927W        W86364  16.650  13.240   0.289
26928W        W86365  32.459  16.752  13.891
26929W        W86366  25.662  27.485  13.436
26930W        W86367  42.876  25.171   0.885
26931W        W86368  12.705  26.982  14.860
26932W        W86369   1.902   2.782  13.362
26933W        W86370   6.280   2.439   1.863
26934W        W86371  12.800   3.905   1.782
26935W        W86372  27.647  19.540  11.887
26936W        W86373  16.659  15.228   3.362
26937W        W86374  24.619  17.207   0.288
26938W        W86375   2.233   1.405   2.396
26939W        W86376   6.818   0.746  10.440
26940W        W86377   3.311  40.877   1.338
26941W        W86378  40.023  35.400   1.426
26942W        W86379   9.340  27.550   4.606
26943W        W86380  27.623  13.220  12.365
26944W        W86381  15.719  33.062  13.533
26945W        W86382  40.984  41.529  11.458
26946W        W86383  14.234   9.298   1.379
26947W        W86384  33.557  14.308  13.945
26948W        W86385  14.746  33.031  10.924
26949W        W86386  19.108  25.704   3.190
26950W        W86387  10.648  36.920   0.929
26951W        W86388  41.864   7.686  13.518
26952W        W86389  32.434   8.354   0.450
26953W        W86390  32.972  29.139  13.537
26954W        W86391  21.753  37.836  12.928
26955W        W86392  17.621  24.974   0.893
26956W        W86393  30.116   9.775  14.312
26957W        W86394  29.620  40.542  13.941
26958W        W86395  34.068   1.389  14.021
26959W        W86396  11.352  41.344  11.393
26960W        W86397  35.589  29.479   0.805
26961W        W86398   9.178  31.947  11.006
26962W        W86399  26.661   9.155   1.231
26963W        W86400   5.919  17.752   0.840
26964W        W86401  25.190  25.076   0.959
26965W        W86402  44.420   1.326   3.669
26966W        W86403  36.552  10.806  12.519
26967W        W86404  24.052  18.759  10.903
26968W        W86405   9.741   4.823   4.155
26969W        W86406  39.488  15.585   2.385
26970W        W86407  30.506   7.309   1.269
26971W        W86408  32.533  40.945  13.896
26972W        W86409   8.353   9.299   3.749
26973W        W86410  31.079  27.661  13.030
26974W        W86411   7.179  44.785   3.813
26975W        W86412  33.096  32.589  11.422
26976W        W86413   2.919  23.650   2.751
26977W        W86414   2.960  16.601  12.377
26978W        W86415   5.273  39.468  13.449
26979W        W86416  38.877  20.168   0.816
26980W        W86417  11.655  16.572   2.314
26981W        W86418  21.642  20.100  13.039
26982W        W86419   0.976  39.390  14.906
26983W        W86420  26.541  26.074   0.289
26984W        W86421  21.232  14.642   2.877
26985W        W86422  40.335  20.767  14.849
26986W        W86423  35.477  10.715   2.399
26987W        W86424  12.795   7.758   2.233
26988W        W86425   2.745   0.758   3.847
26989W        W86426  25.206  10.322  12.360
26990W        W86427  35.905  23.513  13.920
26991W        W86428   0.460  38.059   0.337
26992W        W86429   9.260   3.887   2.243
26993W        W86430  37.370  36.411  11.994
26994W        W86431  22.230   0.431   2.702
26995W        W86432   9.678  43.912  13.038
26996W        W86433   2.371  12.810  14.902
26997W        W86434  22.702  28.017   3.371
26998W        W86435  42.321   2.935   4.270
26999W        W86436  31.944  37.375  14.999
27000W        W86437  38.385   9.371  10.622
27001W        W86438  18.661  30.980   3.230
27002W        W86439  18.556  26.166  13.054
27003W        W86440   4.890  11.293   1.353
27004W        W86441  37.011  39.437   4.186
27005W        W86442   7.233  44.768  13.061
27006W        W86443   5.260  27.993  11.484
27007W        W86444  42.493  33.491  14.393
27008W        W86445  28.637  38.372  13.813
27009W        W86446   3.417  25.209   1.348
27010W        W86447  39.462  17.800   4.142
27011W        W86448   7.815  34.434   1.874
27012W        W86449  21.155  38.409   3.857
27013W        W86450   4.936   2.282  12.854
27014W        W86451  31.611  25.479   1.846
27015W        W86452  38.368  41.856   2.297
27016W        W86453  16.659  30.956   0.766
27017W        W86454  11.369   4.830   4.137
27018W        W86455  26.459   3.375   1.336
27019W        W86456  18.663  10.829  12.475
27020W        W86457   2.901  17.265   5.084
27021W        W86458  23.206  30.636   1.235
27022W        W86459  10.382   6.346   2.323
27023W        W86460  11.785  41.870   2.797
27024W        W86461   7.311  12.828   2.884
27025W        W86462   4.928  23.688  10.042
27026W        W86463   6.326   0.928  14.817
27027W        W86464  42.383   9.850   4.726
27028W        W86465  20.548  16.588   3.857
27029W        W86466  27.119   0.780   4.216
27030W        W86467  17.781  12.262   2.677
27031W        W86468   4.254  43.987  13.385
27032W        W86469   0.473  33.487  12.066
27033W        W86470  28.600  28.095   4.643
27034W        W86471  15.327  35.511   1.346
27035W        W86472  32.433  34.371  14.397
27036W        W86473  43.443  26.154   0.860
27037W        W86474  38.926   9.740   2.856
27038W        W86475  27.170   7.301   1.356
27039W        W86476  16.232  26.480  12.416
27040W        W86477  22.716  42.347  13.326
27041W        W86478  21.092   7.257   1.356
27042W        W86479   7.186  38.063  13.508
27043W        W86480  24.553   3.400   2.670
27044W        W86481  29.614  16.794  10.905
27045W        W86482  13.738  28.594   0.257
27046W        W86483  37.947  30.917   4.212
27047W        W86484  29.150   0.930   3.317
27048W        W86485  39.527   5.237   0.420
27049W        W86486   5.867  21.564  13.064
27050W        W86487  24.168  32.493  12.878
27051W        W86488   5.866  22.035  11.044
27052W        W86489  41.875   0.298   0.289
27053W        W86490  25.103  15.675  11.453
27054W        W86491  38.868  32.956  11.590
27055W        W86492  32.496  33.442   3.762
27056W        W86493  10.827   4.367   2.345
27057W        W86494  28.671   6.386  10.908
27058W        W86495  15.691  17.575  13.469
27059W        W86496  27.522  34.897   1.433
27060W        W86497  33.032  19.104  10.596
27061W        W86498  37.337  39.984  12.056
27062W        W86499   4.941  23.575  11.591
27063W        W86500   4.808  28.094  14.424
27064W        W86501   8.340  27.541  14.972
27065W        W86502  25.972   1.754  14.972
27066W        W86503  32.575  16.635   0.363
27067W        W86504  32.414  16.170  10.915
27068W        W86505  37.578  36.443  14.838
27069W        W86506  30.628  42.805  11.447
27070W        W86507  37.538  28.044  14.018
27071W        W86508  20.759   4.328   4.644
27072W        W86509  20.128  36.416   4.802
27073W        W86510   4.803  13.748   1.365
27074W        W86511  34.998  23.589  14.451
27075W        W86512   2.911  22.114   0.770
27076W        W86513  44.991  35.072   3.832
27077W        W86514  40.948   2.797  11.038
27078W        W86515  16.155  44.984  11.025
27079W        W86516  38.540  41.515   0.762
27080W        W86517  19.148  15.104   4.730
27081W        W86518   3.929  27.953   2.812
27082W        W86519   8.654  14.096  13.854
27083W        W86520  41.962  32.449  10.957
27084W        W86521   6.264  30.547   4.632
27085W        W86522  27.626  28.661   0.918
27086W        W86523  22.047  25.661  14.009
27087W        W86524  25.987  18.170   2.280
27088W        W86525  19.084   8.192  13.367
27089W        W86526  40.387  44.907   3.261
27090W        W86527  43.796  27.092  11.898
27091W        W86528  38.058   6.766  10.558
27092W        W86529  33.915  38.352   0.805
27093W        W86530  37.869   1.813   1.330
27094W        W86531   5.276  14.110   1.426
27095W        W86532  36.848  40.367   5.123
27096W        W86533  29.139  12.829  11.974
27097W        W86534   4.929  21.620  11.101
27098W        W86535  20.636  24.545   1.440
27099W        W86536  13.218  16.570  14.424
27100W        W86537  14.279  23.184  14.391
27101W        W86538  18.602   6.839  14.431
27102W        W86539   4.729  33.571   2.305
27103W        W86540  10.182  28.440   0.286
27104W        W86541  41.974  25.078  11.862
27105W        W86542  21.538  16.106  11.008
27106W        W86543  44.888  39.385   1.764
27107W        W86544  23.543   2.927  11.567
27108W        W86545  31.069  11.763   1.402
27109W        W86546   6.192  29.099  12.904
27110W        W86547  29.476  25.603  13.356
27111W        W86548  33.409  13.607  14.509
27112W        W86549  29.627  18.676   4.636
27113W        W86550  39.514  10.708  11.469
27114W        W86551  20.602  30.066  14.316
27115W        W86552  16.657  24.658   3.252
27116W        W86553   5.723  32.999   0.788
27117W        W86554  25.200  29.659   0.324
27118W        W86555  26.094  41.902   0.284
27119W        W86556   3.946   4.923   4.705
27120W        W86557  18.277   3.950   1.277
27121W        W86558   1.303  12.731  11.539
27122W        W86559  20.228   8.240   0.752
27123W        W86560  19.251  11.367  10.439
27124W        W86561   9.865  16.217   0.345
27125W        W86562  29.032  18.078   1.401
27126W        W86563  10.248   0.262  13.823
27127W        W86564  38.428  33.440   2.891
27128W        W86565  38.558  41.380  14.441
27129W        W86566  39.009  16.710   2.877
27130W        W86567  18.064  17.083   1.898
27131W        W86568   4.313  40.510   1.313
27132W        W86569  33.423  17.683  12.398
27133W        W86570  28.935  13.179   1.856
27134W        W86571   2.441  21.662   4.675
27135W        W86572  33.474  40.535  10.019
27136W        W86573   0.745   3.827   2.760
27137W        W86574  32.400   7.723   4.803
27138W        W86575  23.522  26.487  10.570
27139W        W86576   3.930  21.519  12.879
27140W        W86577  15.293  17.605  14.875
27141W        W86578  27.547   1.483  11.916
27142W        W86579  14.253  42.286   5.698
27143W        W86580   7.911   5.305  11.375
27144W        W86581  13.133  41.963  10.580
27145W        W86582  12.683  10.138  13.845
27146W        W86583   2.301  35.504  10.534
27147W        W86584  17.672  19.277  14.821
27148W        W86585  23.144  43.813  11.984
27149W        W86586  14.810  32.471   3.293
27150W        W86587  35.957  31.508  11.998
27151W        W86588  13.299  18.146  10.125
27152W        W86589  24.621   2.894   1.233
27153W        W86590  10.840   4.362   3.236
27154W        W86591  12.856   5.279  11.388
27155W        W86592  36.567  13.131   4.834
27156W        W86593  27.157  40.386  14.318
27157W        W86594  14.685   3.796  12.838
27158W        W86595  12.798  19.682  11.015
27159W        W86596  14.732  29.936   1.913
27160W        W86597  21.263  37.077   1.255
27161W        W86598   0.415  18.729   0.729
27162W        W86599  30.569  39.372   5.196
27163W        W86600  26.088  37.521  10.158
27164W        W86601   4.207  21.533   4.754
27165W        W86602  42.471  30.042   4.715
27166W        W86603  26.623  15.661  10.580
27167W        W86604  20.223  25.632   1.408
27168W        W86605   4.411  17.203   1.244
27169W        W86606  40.902  29.502  14.791
27170W        W86607   2.947   9.282  14.367
27171W        W86608   4.888  23.689   5.295
27172W        W86609   3.712  34.505   4.330
27173W        W86610  24.639  10.270   4.744
27174W        W86611  31.932  42.839  10.461
27175W        W86612  10.362   6.334  11.999
27176W        W86613  33.519  26.695  10.540
27177W        W86614  35.962  13.667  11.447
27178W        W86615  21.526  13.312  14.511
27179W        W86616  31.594  43.810  13.993
27180W        W86617  35.042  37.402   3.747
27181W        W86618  36.052  32.400  14.012
27182W        W86619  44.754  22.221  12.457
27183W        W86620  31.080  30.470  11.093
27184W        W86621  14.172  35.071   3.150
27185W        W86622  23.554  40.994   1.912
27186W        W86623  35.054  25.164   5.217
27187W        W86624   0.462  34.577   4.156
27188W        W86625   2.780  13.788  10.079
27189W        W86626  44.879  42.867  13.865
27190W        W86627  33.875  40.531   4.714
27191W        W86628  37.444  31.033   0.875
27192W        W86629  10.790   7.813   4.808
27193W        W86630   7.876  24.686   0.923
27194W        W86631   1.898   6.370  13.937
27195W        W86632  19.214  17.110   3.203
27196W        W86633  34.460  37.835  13.971
27197W        W86634  38.444  39.505  14.014
27198W        W86635  18.744  29.663   5.191
27199W        W86636  27.044  33.551   1.252
27200W        W86637   0.831  23.191  12.345
27201W        W86638  29.550   0.293   4.226
27202W        W86639  37.530  29.058   3.383
27203W        W86640  43.343  18.621   3.255
27204W        W86641  37.008  24.157   4.156
27205W        W86642   4.851  44.813  12.014
27206W        W86643  35.604  43.006   2.294
27207W        W86644  38.934  31.422  13.434
27208W        W86645  10.698  33.955   4.692
27209W        W86646  38.339  23.072   4.246
27210W        W86647  11.664  39.412   4.636
27211W        W86648  40.374  19.262   1.424
27212W        W86649  44.332  37.978   3.630
27213W        W86650  32.114   4.760   2.857
27214W        W86651  21.712   7.258   0.863
27215W        W86652  39.948  32.620   4.165
27216W        W86653  11.861  36.361   0.309
27217W        W86654  21.168   7.277  14.818
27218W        W86655  28.458  11.843  11.959
27219W        W86656  22.512  15.178   0.473
27220W        W86657  42.391   4.896   2.189
27221W        W86658  21.189  10.352   0.388
27222W        W86659  27.607  36.375  10.128
27223W        W86660  37.369  32.130  13.013
27224W        W86661  11.705  29.113  10.464
27225W        W86662   1.937  38.028  12.394
27226W        W86663   1.414  21.571   2.705
27227W        W86664   0.828   7.832   4.345
27228W        W86665  21.065  22.716   0.243
27229W        W86666  21.058  26.517  14.305
27230W        W86667  43.919  10.662  13.910
27231W        W86668  41.040   4.394  13.971
27232W        W86669   5.805  36.523   2.837
27233W        W86670  20.252  38.510   3.264
27234W        W86671  10.679  15.278  14.387
27235W        W86672   7.218  26.629   9.620
27236W        W86673  29.021  22.694   2.264
27237W        W86674  38.027  41.470  12.428
27238W        W86675   3.408  37.834   2.277
27239W        W86676   0.934  42.970   3.820
27240W        W86677   1.952  12.857   1.811
27241W        W86678   0.382  11.725  12.030
27242W        W86679  38.020  36.508  14.446
27243W        W86680  15.740  22.529   3.857
27244W        W86681  42.836  28.946  14.983
27245W        W86682   5.744  33.938   4.725
27246W        W86683  36.883   5.921   4.835
27247W        W86684  36.347  33.518   0.328
27248W        W86685  13.607  36.526   2.346
27249W        W86686   8.774   3.225  10.469
27250W        W86687  20.586  25.034   0.814
27251W        W86688   6.314  15.126   4.760
27252W        W86689  10.359  16.217  10.527
27253W        W86690  17.161  28.453   0.320
27254W        W86691  13.808  15.249   0.403
27255W        W86692  23.646  26.465   2.844
27256W        W86693  26.476  14.790  14.329
27257W        W86694   7.736  24.196  10.550
27258W        W86695  35.015   4.356  14.410
27259W        W86696  34.606   6.775   3.326
27260W        W86697  16.207  35.919   0.305
27261W        W86698  18.234   7.189   1.934
27262W        W86699   6.789  26.165   0.788
27263W        W86700  10.851  34.037  13.015
27264W        W86701  36.052  21.048   1.233
27265W        W86702   2.772  11.151   2.897
27266W        W86703  26.652  24.688   5.291
27267W        W86704   9.679  23.712  10.994
27268W        W86705  34.896  29.154   3.315
27269W        W86706   2.770   2.249  12.895
27270W        W86707  27.107  42.788   0.459
27271W        W86708  11.334  18.752   4.230
27272W        W86709  44.353  15.313   2.299
27273W        W86710  22.067  39.978   2.822
27274W        W86711  26.194  34.518  12.915
27275W        W86712   0.361  39.823   4.223
27276W        W86713  15.192   8.267   4.726
27277W        W86714  21.254  32.058   4.748
27278W        W86715  41.333  34.084  12.502
27279W        W86716  36.510  10.258  14.894
27280W        W86717   2.819   0.401  12.949
27281W        W86718  15.578   8.294   4.271
27282W        W86719   4.749  26.516  12.908
27283W        W86720  30.106  41.416   2.743
27284W        W86721   9.290  30.058  13.052
27285W        W86722  14.832  11.815   1.216
27286W        W86723   6.422  15.099  12.835
27287W        W86724  14.326  15.103  12.919
27288W        W86725  14.135   4.913   3.871
27289W        W86726  25.708  18.686  10.438
27290W        W86727   5.406   1.340   3.264
27291W        W86728  12.151  32.981  12.886
27292W        W86729  29.565  22.597   0.881
27293W        W86730  27.944  10.669  11.567
27294W        W86731  44.914   9.821   0.815
27295W        W86732  42.380  26.621  13.390
27296W        W86733   2.928  23.209   0.345
27297W        W86734  14.218  31.502   2.346
27298W        W86735  32.107  43.905  14.400
27299W        W86736   6.814  34.925   1.748
27300W        W86737  22.245  12.834   9.983
27301W        W86738   4.427   3.385   3.788
27302W        W86739  25.535  12.183  14.384
27303W        W86740   7.374  21.169  14.925
27304W        W86741  17.294  17.075  12.971
27305W        W86742   0.389  17.700  12.355
27306W        W86743  35.386  29.428   0.372
27307W        W86744  32.976  28.094  12.849
27308W        W86745  15.272   0.254  10.985
27309W        W86746  11.648  28.572   0.453
27310W        W86747  40.874   2.310  14.477
27311W        W86748  44.297   2.322  14.307
27312W        W86749  34.979  26.637   3.658
27313W        W86750   7.305  43.284  12.470
27314W        W86751  22.194  16.226   4.772
27315W        W86752  22.189  13.643   1.868
27316W        W86753  12.327   7.370   0.914
27317W        W86754   9.294  37.057   3.263
27318W        W86755  10.836  44.002  13.313
27319W        W86756  39.997  34.532  12.096
27320W        W86757   0.927  28.570  13.020
27321W        W86758  29.994  30.074   0.761
27322W        W86759  23.595  21.070   1.331
27323W        W86760   8.696  23.057  11.573
27324W        W86761  44.965  43.826   3.732
27325W        W86762  29.519  13.812   0.327
27326W        W86763  19.251  26.017   4.640
27327W        W86764  33.879   0.794  13.390
27328W        W86765  19.583  25.980  12.910
27329W        W86766  39.350  35.501  12.934
27330W        W86767  44.500   6.909  14.855
27331W        W86768   2.899  15.578   2.726
27332W        W86769  32.608  40.926   2.824
27333W        W86770  23.031  44.814  11.486
27334W        W86771  41.022   9.249  10.927
27335W        W86772  10.676   8.751  14.369
27336W        W86773  39.323   7.863   3.760
27337W        W86774  43.442  14.173  11.934
27338W        W86775  42.981   2.947   2.890
27339W        W86776  35.948   4.895  11.954
27340W        W86777  30.517   8.890   0.353
27341W        W86778  29.986   5.742   3.752
27342W        W86779   7.296  13.286  10.892
27343W        W86780  22.560  39.494   2.387
27344W        W86781   9.191  37.993   0.276
27345W        W86782  24.532  30.923   1.835
27346W        W86783  18.554   9.372  14.366
27347W        W86784  34.605   5.748   1.319
27348W        W86785   7.780   0.487  12.366
27349W        W86786  31.025  20.110   2.414
27350W        W86787   9.212  25.060  12.392
27351W        W86788   1.339  37.475   5.161
27352W        W86789  22.079  36.882   9.636
27353W        W86790  33.589  11.302   3.866
27354W        W86791  35.994   5.873   2.237
27355W        W86792  15.624  38.982  14.922
27356W        W86793   4.932   9.691   3.808
27357W        W86794  44.351   5.361   3.706
27358W        W86795  10.379   7.382  14.939
27359W        W86796  36.850  34.921   1.901
27360W        W86797   3.216  20.145  12.437
27361W        W86798  21.180  33.890  12.081
27362W        W86799   9.252  13.753  10.559
27363W        W86800  21.575   7.343   4.831
27364W        W86801  38.003  44.757   1.368
27365W        W86802  28.933  37.387   3.346
27366W        W86803  38.039  24.018   0.846
27367W        W86804   2.271   4.754  12.406
27368W        W86805  41.867  20.699   2.210
27369W        W86806   2.864  14.163   3.327
27370W        W86807   6.351  25.012  12.933
27371W        W86808  30.569   7.249  12.944
27372W        W86809  43.764  41.018   0.447
27373W        W86810  38.531  12.814   2.313
27374W        W86811  30.641  19.646   2.333
27375W        W86812   8.662  21.032  11.877
27376W        W86813  20.629  17.249   2.186
27377W        W86814   3.773  22.596  10.458
27378W        W86815  10.813  29.488   0.728
27379W        W86816   4.709  17.079   0.851
27380W        W86817  21.685  26.614   2.749
27381W        W86818   2.359  21.544   0.930
27382W        W86819  12.355  18.255  13.889
27383W        W86820  13.228  22.172   0.859
27384W        W86821  18.658  29.504   4.795
27385W        W86822  37.902  29.053  13.477
27386W        W86823  14.257  28.628  11.007
27387W        W86824  16.707   0.837  12.929
27388W        W86825   8.186  19.183   2.829
27389W        W86826  14.280  31.117  11.878
27390W        W86827  27.171  41.326   0.255
27391W        W86828  17.282  14.722  14.301
27392W        W86829  21.049  29.483   2.673
27393W        W86830  44.981  28.670   3.383
27394W        W86831  31.012   4.785  14.836
27395W        W86832   2.743  28.540   0.804
27396W        W86833   4.444   7.306   4.346
27397W        W86834   9.156  39.426  12.464
27398W        W86835  39.488  40.817   1.445
27399W        W86836   3.729  14.179   5.293
27400W        W86837   2.797   3.334  11.968
27401W        W86838  20.613  41.382   3.246
27402W        W86839  39.460   0.477  10.404
27403W        W86840   2.446  19.768  13.307
27404W        W86841  20.075  12.336  13.952
27405W        W86842  19.618   0.365   1.763
27406W        W86843  25.087  17.647  14.797
27407W        W86844  13.615  37.043   2.676
27408W        W86845   0.844   4.313  11.460
27409W        W86846   7.852  26.209   0.789
27410W        W86847  43.004   1.848   3.209
27411W        W86848  24.211  43.786  11.386
27412W        W86849   5.336   3.769   2.225
27413W        W86850   0.908   1.912   4.315
27414W        W86851   0.373   9.841   4.602
27415W        W86852   7.180  42.867   3.823
27416W        W86853   1.899   2.870  10.975
27417W        W86854  12.762  44.951   0.960
27418W        W86855   5.293   4.235   4.683
27419W        W86856  21.705  17.162   3.819
27420W        W86857  36.017   1.764  13.371
27421W        W86858  44.944  27.954   0.914
27422W        W86859  33.917  31.569   4.703
27423W        W86860  28.602  37.842  11.446
27424W        W86861  22.634  16.608   3.666
27425W        W86862  17.282  32.635  14.311
27426W        W86863  17.203  23.024   1.839
27427W        W86864   2.350  23.040  12.889
27428W        W86865  15.323  25.608   0.930
27429W        W86866  27.194   8.799  14.878
27430W        W86867  28.135   6.757   0.767
27431W        W86868  41.900  17.789  13.840
27432W        W86869   2.934  23.711   3.161
27433W        W86870  33.076  26.539   4.292
27434W        W86871  26.469  36.089   1.746
27435W        W86872  22.184  42.894  11.422
27436W        W86873  43.270  23.084   3.783
27437W        W86874  16.784   6.315   0.349
27438W        W86875  26.008  34.910   1.736
27439W        W86876  25.690  44.874  12.992
27440W        W86877  26.532  41.951  12.515
27441W        W86878  27.526  12.761   0.329
27442W        W86879  39.536  28.176   0.427
27443W        W86880  18.701  34.936   4.779
27444W        W86881  40.427  36.430   1.836
27445W        W86882  20.719   9.212   4.183
27446W        W86883  12.759  18.166  11.111
27447W        W86884  40.387  16.180  10.443
27448W        W86885  20.076  21.565  13.889
27449W        W86886  15.655   7.206  12.376
27450W        W86887   5.837  21.064   3.320
27451W        W86888  18.692  18.174   0.399
27452W        W86889  35.054   1.432   4.316
27453W        W86890  22.699  39.420  12.974
27454W        W86891  31.425  41.809   0.388
27455W        W86892   5.231  18.162  12.460
27456W        W86893  28.488  23.716   2.793
27457W        W86894  17.227  22.667   2.881
27458W        W86895  28.172  34.930   1.368
27459W        W86896  42.990  30.952  11.015
27460W        W86897   4.766  24.035   9.941
27461W        W86898  34.606   5.760  10.574
27462W        W86899   7.392  10.845  14.391
27463W        W86900  38.032  42.947   2.284
27464W        W86901  30.483   0.461   4.658
27465W        W86902  26.116  19.641  12.440
27466W        W86903  20.587  38.854   1.313
27467W        W86904  24.014  36.456   0.476
27468W        W86905   4.805   0.329  11.577
27469W        W86906   4.315  21.712   3.655
27470W        W86907   5.238  25.149  12.532
27471W        W86908  13.170  43.891  13.958
27472W        W86909   1.815  24.173   3.255
27473W        W86910  40.429  29.059  13.792
27474W        W86911  23.694  17.748  12.499
27475W        W86912  11.808   1.780   1.256
27476W        W86913  42.879  18.779   4.137
27477W        W86914  43.988  34.074  11.582
27478W        W86915  39.373  22.043   2.212
27479W        W86916  31.094  32.457  10.528
27480W        W86917  22.730  43.813   0.823
27481W        W86918  24.698  34.035   2.751
27482W        W86919  13.314  13.740   1.286
27483W        W86920  15.324   4.313   4.117
27484W        W86921  26.998   2.803  11.101
27485W        W86922  32.013  15.201   3.265
27486W        W86923  33.512  23.166   3.163
27487W        W86924  39.005  28.087   0.735
27488W        W86925  40.418  14.165  11.865
27489W        W86926  21.071  26.536  12.410
27490W        W86927  16.752  25.968   4.234
27491W        W86928  44.912   7.286  10.487
27492W        W86929  37.350  30.633  14.391
27493W        W86930  13.306  10.636  11.060
27494W        W86931  30.639  13.808   4.143
27495W        W86932  17.800   3.952  12.974
27496W        W86933   7.904  29.622   4.768
27497W        W86934  37.396  35.029   2.747
27498W        W86935   3.267  30.132  10.517
27499W        W86936   1.882  23.565   0.304
27500W        W86937  16.585   6.345   2.887
27501W        W86938  19.670  11.783  12.899
27502W        W86939   6.333  20.066  13.528
27503W        W86940  39.994   4.209  10.582
27504W        W86941   8.183  17.232  11.930
27505W        W86942  22.151   4.302  13.431
27506W        W86943  29.642  32.396  12.369
27507W        W86944   8.231  39.846  11.423
27508W        W86945  12.271   9.195  11.105
27509W        W86946  12.317  11.140   0.872
27510W        W86947   6.191  11.839   3.304
27511W        W86948  11.363  32.527   2.248
27512W        W86949   5.780   2.281   3.747
27513W        W86950  21.054   4.711   1.211
27514W        W86951  23.195  23.017   2.784
27515W        W86952  16.603  43.386  14.338
27516W        W86953  34.402   8.704   3.210
27517W        W86954  19.690  40.044   2.814
27518W        W86955  36.492  25.997  13.370
27519W        W86956   2.293  38.029  13.345
27520W        W86957  18.241  37.434   3.249
27521W        W86958  25.701   4.343   0.873
27522W        W86959  18.051  10.373  12.387
27523W        W86960  25.139  34.113   2.414
27524W        W86961  35.064  33.022  14.896
27525W        W86962  27.141  12.765   5.235
27526W        W86963  34.418  42.469  10.434
27527W        W86964  28.677  19.146   2.821
27528W        W86965   0.426   7.328  14.361
27529W        W86966  42.475  31.520   1.427
27530W        W86967  10.792  34.572  13.806
27531W        W86968  43.987  38.060   0.964
27532W        W86969  18.050  26.519  11.470
27533W        W86970  36.099  21.041  10.467
27534W        W86971  17.282  18.268  11.965
27535W        W86972   5.434  39.501  11.589
27536W        W86973  19.577  34.580   1.874
27537W        W86974  37.518  23.130   1.880
27538W        W86975  43.846  36.586   3.723
27539W        W86976  16.264  13.845  13.970
27540W        W86977  27.452  27.105   0.751
27541W        W86978   2.382  19.120   2.765
27542W        W86979   5.201  29.537  12.539
27543W        W86980  23.228  27.017  14.330
27544W        W86981  25.112  38.548  10.988
27545W        W86982  43.350  27.002  10.484
27546W        W86983   0.969  43.858   1.304
27547W        W86984  44.920  38.987   4.776
27548W        W86985  41.994  44.433   2.413
27549W        W86986  37.949  21.072   1.806
27550W        W86987  14.105  37.550   2.260
27551W        W86988   6.865  32.408   4.820
27552W        W86989   4.426  18.780   1.237
27553W        W86990  36.967  42.789  14.330
27554W        W86991  29.022  37.865   9.674
27555W        W86992  35.380  31.410  11.418
27556W        W86993  43.805  14.749  10.578
27557W        W86994  12.699  28.578  12.094
27558W        W86995  35.913  33.103  13.930
27559W        W86996  13.677  32.024  10.949
27560W        W86997   5.233  17.138  13.824
27561W        W86998  12.189  36.537  12.545
27562W        W86999   2.784  18.564   0.461
27563W        W87000  17.720  14.272  13.446
27564W        W87001  35.952   0.859   0.815
27565W        W87002  27.979  16.623  11.088
27566W        W87003  30.484  27.042   1.828
27567W        W87004  10.176  34.024  11.603
27568W        W87005  19.634  40.826  12.013
27569W        W87006  21.072  36.403   2.864
27570W        W87007  19.726  10.171   4.690
27571W        W87008  14.238  31.118  14.304
27572W        W87009   4.401  41.993  10.959
27573W        W87010  24.635  37.926   2.211
27574W        W87011   9.337  11.280  10.931
27575W        W87012  39.462  18.610   0.868
27576W        W87013  25.680  32.889  13.541
27577W        W87014  26.011  17.227  10.613
27578W        W87015  36.961  27.086   4.748
27579W        W87016  12.330  44.793  12.877
27580W        W87017  19.655  34.451  14.274
27581W        W87018  12.143  38.936  12.938
27582W        W87019   2.302  20.735  12.951
27583W        W87020  15.262  27.066   0.430
27584W        W87021   3.408  17.241  12.463
27585W        W87022  43.347   4.437   4.303
27586W        W87023   2.322  29.153  10.109
27587W        W87024  20.141   3.292  11.082
27588W        W87025  37.382  15.739   2.395
27589W        W87026   3.367  24.044   4.146
27590W        W87027  37.338  17.747   0.367
27591W        W87028  43.454   0.822   3.271
27592W        W87029  33.609  28.940  11.480
27593W        W87030  18.608  29.969  13.006
27594W        W87031  39.444  19.615   1.399
27595W        W87032  42.299  16.076  10.444
27596W        W87033   7.676  43.401  11.379
27597W        W87034  33.961  37.451   2.389
27598W        W87035  17.123  29.598   2.778
27599W        W87036  37.060  39.397  12.997
27600W        W87037  12.840  33.931  10.957
27601W        W87038   5.922  27.502  12.059
27602W        W87039  26.640   9.794   4.806
27603W        W87040  25.165  28.984  14.452
27604W        W87041   4.413  16.580  12.948
27605W        W87042  40.443  20.610  13.421
27606W        W87043  41.497  40.980  11.028
27607W        W87044  16.804  28.183   1.763
27608W        W87045  41.904  32.885  13.979
27609W        W87046  19.128  32.996  13.055
27610W        W87047   6.230  28.517  10.107
27611W        W87048  18.050  31.010  13.311
27612W        W87049  20.133  23.230  13.457
27613W        W87050  39.443  44.374  13.336
27614W        W87051  25.677   4.906   4.811
27615W        W87052  34.442  12.270  11.887
27616W        W87053   6.865   1.880   3.800
27617W        W87054   0.839  35.894  11.896
27618W        W87055   9.294   3.741   3.204
27619W        W87056  37.835   8.220  12.530
27620W        W87057  13.217   0.333  13.351
27621W        W87058  35.995   6.387   1.885
27622W        W87059  41.451  30.002  14.419
27623W        W87060  26.989  30.024   3.648
27624W        W87061  14.804  42.991  10.967
27625W        W87062  41.979  41.445  13.806
27626W        W87063  38.517  40.983   2.411
27627W        W87064   6.690  13.763   1.719
27628W        W87065  17.709   6.392  11.377
27629W        W87066  38.483  44.338   1.340
27630W        W87067   8.263  42.973  12.539
27631W        W87068   9.691  34.380  10.530
27632W        W87069  41.993  14.325  12.824
27633W        W87070  23.066  27.026   3.687
27634W        W87071  14.825  27.964  10.954
27635W        W87072  23.091  35.481   1.323
27636W        W87073  28.942  18.213  11.899
27637W        W87074  17.147  33.984   4.600
27638W        W87075  40.503  44.411   5.087
27639W        W87076   6.378   8.355  13.828
27640W        W87077  42.424  38.545   3.740
27641W        W87078   1.970  36.073   2.187
27642W        W87079   6.256  15.744   0.353
27643W        W87080  12.310  20.177  14.764
27644W        W87081   6.253  40.940  13.530
27645W        W87082  36.354  14.098   2.230
27646W        W87083  36.995  10.839   0.420
27647W        W87084  14.625  25.001   0.798
27648W        W87085  37.008  15.196  14.997
27649W        W87086  33.500   1.276  13.396
27650W        W87087  34.109   4.903  14.961
27651W        W87088  12.353  27.663  14.961
27652W        W87089  22.618  43.433   3.685
27653W        W87090  29.542  24.982  14.921
27654W        W87091  33.565  34.614   0.794
27655W        W87092   2.237  19.665  14.974
27656W        W87093   8.161   9.820  14.284
27657W        W87094  13.633  10.747   4.144
27658W        W87095   7.353  41.828  10.936
27659W        W87096  43.407   0.759   2.356
27660W        W87097   5.214  30.604   0.832
27661W        W87098  35.979  22.038   3.849
27662W        W87099  40.486  21.154  10.578
27663W        W87100   8.803  21.675  10.449
27664W        W87101  14.168   9.167   0.939
27665W        W87102  29.469  20.754   0.372
27666W        W87103  41.840  15.606   0.320
27667W        W87104   8.879  13.137   2.246
27668W        W87105  32.940   4.335   4.709
27669W        W87106  37.879  21.635   4.251
27670W        W87107  23.052   4.833  10.448
27671W        W87108  31.439  30.516   0.404
27672W        W87109  15.131  40.401  11.457
27673W        W87110  36.948  16.150   2.899
27674W        W87111  14.261  11.255   3.751
27675W        W87112  13.766  41.044  12.066
27676W        W87113  43.364   1.296  13.475
27677W        W87114  32.086  24.556  13.482
27678W        W87115  20.763  23.511   0.879
27679W        W87116   5.259  13.172   0.865
27680W        W87117  21.716  17.699  12.922
27681W        W87118  44.907  26.513  11.994
27682W        W87119  34.100  19.222  10.472
27683W        W87120  16.265  23.631  13.472
27684W        W87121   5.887  42.492   4.622
27685W        W87122   3.312  43.821  13.952
27686W        W87123  39.882  32.082  12.910
27687W        W87124  40.953  26.019  11.059
27688W        W87125  23.585  30.932   3.344
27689W        W87126  24.544  20.145  11.493
27690W        W87127  15.697  37.502   3.852
27691W        W87128  20.168  16.730  10.441
27692W        W87129  34.547  42.946   4.696
27693W        W87130   5.864   5.754   1.339
27694W        W87131   4.417  34.022   2.240
27695W        W87132   6.307   5.438  14.351
27696W        W87133  33.553  27.987   0.860
27697W        W87134  43.889  28.084  11.417
27698W        W87135  32.630   0.857  12.021
27699W        W87136  44.419  33.434  12.060
27700W        W87137   7.697  34.440   3.288
27701W        W87138  43.338   7.757   4.819
27702W        W87139  13.194  23.028  13.435
27703W        W87140   8.726  18.269  10.480
27704W        W87141  27.945  32.045   2.413
27705W        W87142  33.469  28.031  14.492
27706W        W87143  12.315  43.876  14.852
27707W        W87144  21.058  40.974  11.021
27708W        W87145  38.389  40.542   0.341
27709W        W87146  29.986  10.195   4.825
27710W        W87147  13.127  25.573   2.191
27711W        W87148   4.287  43.926   4.709
27712W        W87149  22.525  18.547   4.349
27713W        W87150  18.774  25.093  10.037
27714W        W87151  21.683   0.348  10.580
27715W        W87152  40.371   9.760  12.953
27716W        W87153  17.740   2.801  13.354
27717W        W87154   6.701  13.760   0.258
27718W        W87155  37.524  42.888   4.294
27719W        W87156  32.483   4.755  14.900
27720W        W87157   6.735  32.088  13.912
27721W        W87158   9.663   0.805   2.340
27722W        W87159  26.507   8.836  10.927
27723W        W87160  13.839  16.719   3.849
27724W        W87161   8.185  16.131  11.043
27725W        W87162  42.790  37.015  12.008
27726W        W87163   3.829  44.960   3.163
27727W        W87164  35.545  38.464   4.627
27728W        W87165   3.264   8.179  13.367
27729W        W87166  12.183  37.941   3.796
27730W        W87167  31.554  18.269   1.410
27731W        W87168   5.807  17.567  10.496
27732W        W87169  13.205  13.739  13.432
27733W        W87170  22.097  35.963   1.904
27734W        W87171  19.705   0.789  11.955
27735W        W87172  27.477   1.420  11.415
27736W        W87173  36.084   2.743  13.360
27737W        W87174  22.038  28.156  11.507
27738W        W87175  36.030  41.495  13.484
27739W        W87176  14.108  21.744   3.299
27740W        W87177  42.848  13.764  11.024
27741W        W87178   2.959  11.712   3.345
27742W        W87179  26.618   6.880   1.896
27743W        W87180  14.696  24.591  12.556
27744W        W87181  15.821  17.603   3.761
27745W        W87182  26.597  18.612  14.888
27746W        W87183  40.374  13.302   3.286
27747W        W87184  20.248   3.305  10.584
27748W        W87185  10.665   2.248  14.933
27749W        W87186  39.552  39.809  14.480
27750W        W87187  21.557  23.496   4.739
27751W        W87188  37.373   5.874  11.941
27752W        W87189   7.196  28.111  13.535
27753W        W87190  28.071  43.477   3.209
27754W        W87191  24.225  27.966   2.792
27755W        W87192  23.167   5.232  12.439
27756W        W87193   4.751   8.674  13.380
27757W        W87194   1.830  21.230  14.287
27758W        W87195   8.847   4.744  12.988
27759W        W87196   6.209  25.596  14.953
27760W        W87197   9.162  16.217   1.779
27761W        W87198  42.864   8.192   0.402
27762W        W87199  30.919  36.897  14.799
27763W        W87200  32.486  21.563  14.937
27764W        W87201  26.133  24.487  14.885
27765W        W87202  25.988  29.058   0.893
27766W        W87203  30.508  36.466  13.419
27767W        W87204  38.878  20.154  10.595
27768W        W87205  32.064  27.943   2.704
27769W        W87206  33.104  31.003   2.833
27770W        W87207  20.761  25.154  12.355
27771W        W87208  34.494  21.210   0.936
27772W        W87209  30.920  15.633  11.882
27773W        W87210  24.656  13.149  11.559
27774W        W87211   9.360  26.609   0.894
27775W        W87212  30.607  42.001  12.021
27776W        W87213  17.131   9.345   3.825
27777W        W87214   3.756   0.841   4.778
27778W        W87215  21.258  10.712   0.840
27779W        W87216  43.870   2.228   2.311
27780W        W87217  23.614  40.995  12.526
27781W        W87218  33.126   5.202   4.799
27782W        W87219  23.080  15.618  12.823
27783W        W87220  20.574  27.026   3.275
27784W        W87221  33.127  30.421  12.888
27785W        W87222  37.555   0.429  11.458
27786W        W87223  37.486  25.593   2.239
27787W        W87224  23.116  28.538  12.510
27788W        W87225  30.928   0.271   3.729
27789W        W87226  25.077  40.843  12.409
27790W        W87227  10.329  30.114  12.570
27791W        W87228  27.686  32.470  13.798
27792W        W87229  17.235  24.661  12.990
27793W        W87230  38.555  23.094  10.573
27794W        W87231   4.942  26.671  13.355
27795W        W87232  11.764  36.565   3.191
27796W        W87233  12.123  21.113   5.309
27797W        W87234  29.130   7.186   4.679
27798W        W87235  17.765   9.375   4.817
27799W        W87236  11.661  40.048   1.827
27800W        W87237  36.058  11.306   1.429
27801W        W87238  16.235  36.477   4.263
27802W        W87239  42.784  16.811   0.861
27803W        W87240   7.771  39.414   3.326
27804W        W87241   2.890  26.646   4.797
27805W        W87242  21.023  18.194   0.914
27806W        W87243  27.593  33.060   2.177
27807W        W87244  21.720  11.849   4.201
27808W        W87245   7.295   8.787   2.355
27809W        W87246   8.732  19.769   1.259
27810W        W87247  35.964   6.330  12.569
27811W        W87248  36.919  11.169  14.409
27812W        W87249  16.625   3.808  10.969
27813W        W87250  43.437  38.388  12.471
27814W        W87251  39.976   7.912   0.449
27815W        W87252  22.040  14.141   1.818
27816W        W87253  29.127  34.924   1.409
27817W        W87254  31.973  33.896  11.379
27818W        W87255  24.565  41.924  12.509
27819W        W87256  42.935  11.301   3.794
27820W        W87257  22.023  31.070  13.352
27821W        W87258  42.397   8.826  13.429
27822W        W87259  26.541  44.323  10.639
27823W        W87260  42.929  32.921  10.006
27824W        W87261  14.774  43.357   1.708
27825W        W87262   8.843  38.055   0.251
27826W        W87263  38.991  40.025   2.823
27827W        W87264  34.372  29.432  10.441
27828W        W87265   4.733  31.526  12.537
27829W        W87266  29.167  12.760   4.306
27830W        W87267  32.944   6.251   1.805
27831W        W87268  14.821   7.899   3.708
27832W        W87269   4.274   3.711   1.232
27833W        W87270  36.996  16.222   1.836
27834W        W87271  15.113  38.416  11.949
27835W        W87272  26.678  36.010   2.337
27836W        W87273   3.415  22.011  11.504
27837W        W87274  36.439  39.478   1.316
27838W        W87275  15.767  30.582  11.975
27839W        W87276  26.985   3.349  10.427
27840W        W87277  42.501  40.311   2.273
27841W        W87278  37.918  32.915   1.912
27842W        W87279  25.128  39.899   5.203
27843W        W87280  26.171  40.340   0.272
27844W        W87281  44.365  33.046   3.296
27845W        W87282  12.264  39.531  11.507
27846W        W87283   9.790  44.837  13.922
27847W        W87284  44.456  43.363   2.228
27848W        W87285  34.053  18.555  11.418
27849W        W87286  32.940  21.747   3.731
27850W        W87287  15.819   2.295  11.570
27851W        W87288  15.278  31.027   2.275
27852W        W87289  24.124  25.497   1.282
27853W        W87290  20.616  27.164   4.627
27854W        W87291  21.156  13.740  14.377
27855W        W87292   1.369   1.901  13.063
27856W        W87293  29.604  36.572  13.476
27857W        W87294  38.541  11.265  11.067
27858W        W87295  42.490  36.982   0.739
27859W        W87296  34.428  41.826   4.158
27860W        W87297  27.595  35.580  13.046
27861W        W87298   5.808  37.530  13.850
27862W        W87299   2.245  30.957  13.019
27863W        W87300  27.192  39.840   2.230
27864W        W87301  26.005   8.863  10.560
27865W        W87302  44.486  40.373  13.050
27866W        W87303  17.212  25.549   4.772
27867W        W87304   0.886  44.828  14.425
27868W        W87305  14.196  31.099   1.856
27869W        W87306   4.804   3.321  14.432
27870W        W87307   6.690  20.676   3.280
27871W        W87308  29.628   2.266   3.795
27872W        W87309  10.666  40.478   1.826
27873W        W87310  41.792   3.760   1.789
27874W        W87311   5.753  40.822  11.061
27875W        W87312   9.306  15.683   2.252
27876W        W87313  12.748  35.559   0.371
27877W        W87314  43.981  36.020   0.464
27878W        W87315  14.213  38.466   2.375
27879W        W87316   9.168  26.525   5.248
27880W        W87317   5.840   7.338   0.338
27881W        W87318  21.231   7.692  14.880
27882W        W87319  29.024  37.892   5.133
27883W        W87320  14.753  23.088  12.559
27884W        W87321  26.030  38.071  13.415
27885W        W87322  35.373   2.396  12.948
27886W        W87323  13.837  17.620   1.919
27887W        W87324  24.589   2.783   4.270
27888W        W87325   9.865  29.070   2.781
27889W        W87326   8.888  13.170   1.385
27890W        W87327  33.549   1.349  11.407
27891W        W87328  30.451  41.005  14.309
27892W        W87329  30.509  18.116  13.346
27893W        W87330  22.022  41.847   1.894
27894W        W87331  41.840  17.589   4.168
27895W        W87332  37.908  33.471  13.898
27896W        W87333   7.670  22.539   3.705
27897W        W87334  27.456  15.248   1.910
27898W        W87335  25.020   1.321  14.412
27899W        W87336  12.168  39.477   4.345
27900W        W87337  43.433  20.098  14.424
27901W        W87338  15.099  10.674  13.413
27902W        W87339   6.346   2.912   3.331
27903W        W87340  40.812  24.131  11.909
27904W        W87341  44.803  44.388  14.928
27905W        W87342  36.492  16.105  12.560
27906W        W87343  17.720  39.484   0.922
27907W        W87344  34.904  25.617  14.006
27908W        W87345   4.767  13.292   3.812
27909W        W87346  22.526   0.266  10.131
27910W        W87347  25.963   9.885  12.496
27911W        W87348  28.528  23.172   3.860
27912W        W87349  43.939  31.600   2.844
27913W        W87350  10.807  27.682   1.404
27914W        W87351  19.775   6.785  13.824
27915W        W87352  36.095  24.153   2.761
27916W        W87353  13.761  34.580  12.576
27917W        W87354   1.337  22.608   2.882
27918W        W87355  39.395  30.443   3.332
27919W        W87356  43.360   2.335  14.820
27920W        W87357  12.240  12.190   3.277
27921W        W87358  15.808  26.586   4.606
27922W        W87359  12.341  42.914   4.726
27923W        W87360  40.533  23.141   3.374
27924W        W87361   1.286  17.175   3.737
27925W        W87362  36.355  13.633   2.822
27926W        W87363  16.783  34.449   0.293
27927W        W87364   6.715   7.707  12.408
27928W        W87365  29.033  25.123   2.356
27929W        W87366   1.825  27.021   0.826
27930W        W87367  13.129  37.839   3.201
27931W        W87368   0.969  20.195  14.396
27932W        W87369  20.041   3.220  13.485
27933W        W87370  31.528   5.769  10.890
27934W        W87371  32.940  16.740   2.287
27935W        W87372  38.516  11.327   1.803
27936W        W87373  25.627  17.774  11.583
27937W        W87374  29.002  28.128  11.517
27938W        W87375  44.773  21.138   2.185
27939W        W87376  44.812   3.426  14.848
27940W        W87377  22.699  30.540   2.663
27941W        W87378  18.093  31.494  12.511
27942W        W87379  33.515  21.616  11.920
27943W        W87380  37.019  31.523  13.503
27944W        W87381  29.965  15.770  11.031
27945W        W87382  43.919  44.379   2.251
27946W        W87383   9.179  26.559   1.734
27947W        W87384  23.726  32.142  12.037
27948W        W87385  29.634   6.202   0.897
27949W        W87386  32.438  37.389   3.631
27950W        W87387   4.221  14.198  14.947
27951W        W87388  32.476  40.823  14.413
27952W        W87389  30.590  39.837  14.978
27953W        W87390   2.469  20.727   1.765
27954W        W87391  28.155   7.686  13.933
27955W        W87392  14.276   2.876  14.948
27956W        W87393   1.303   1.791  14.387
27957W        W87394  33.507  24.555   2.742
27958W        W87395   5.229   6.389   1.921
27959W        W87396   8.306  42.499  13.918
27960W        W87397  15.263  28.583   1.723
27961W        W87398  36.896  24.019  12.036
27962W        W87399  19.711  31.040   3.813
27963W        W87400   8.783   1.742   0.891
27964W        W87401   7.246  21.030   0.838
27965W        W87402   4.819   0.408  10.415
27966W        W87403   5.709   1.904   2.256
27967W        W87404   9.313  18.743   4.259
27968W        W87405  24.686   9.716  13.821
27969W        W87406  39.808   9.287  13.497
27970W        W87407  28.586  41.475   2.734
27971W        W87408  23.146  28.470  13.451
27972W        W87409  27.954   3.379   0.951
27973W        W87410  38.017  11.791  12.528
27974W        W87411   2.250  38.407  12.442
27975W        W87412  17.703   6.763  13.502
27976W        W87413  23.990  37.517   4.789
27977W        W87414   9.287   3.888   2.816
27978W        W87415   2.462   6.893   2.689
27979W        W87416  25.023  13.644  14.983
27980W        W87417  17.714  20.698   0.959
27981W        W87418  19.184   0.331  12.372
27982W        W87419   8.323  26.954  14.942
27983W        W87420  19.675  30.547  14.806
27984W        W87421  23.033  23.700  13.863
27985W        W87422  29.425  39.941   9.998
27986W        W87423  37.503   5.238  12.459
27987W        W87424   3.334   6.234  11.414
27988W        W87425  24.041  21.682   2.258
27989W        W87426  33.048   3.442  14.491
27990W        W87427  17.585   0.389  14.795
27991W        W87428  20.205  13.661  14.323
27992W        W87429  20.249  20.085   2.196
27993W        W87430   1.769  10.736   0.407
27994W        W87431  41.353   4.804   1.376
27995W        W87432   0.900  11.357  11.868
27996W        W87433  43.825  44.464  13.518
27997W        W87434   3.880   3.460   1.841
27998W        W87435  44.930  40.310   1.258
27999W        W87436  43.314  26.694  14.027
28000W        W87437  28.552  29.582   2.417
28001W        W87438  41.476  39.464  13.043
28002W        W87439  14.756  25.182   5.275
28003W        W87440   8.333  19.674  11.918
28004W        W87441  15.165  27.157  13.423
28005W        W87442   0.925  24.090  13.839
28006W        W87443  44.281  11.814   1.719
28007W        W87444   0.810  14.198  14.768
28008W        W87445  39.504  28.635  13.853
28009W        W87446  21.137  19.187   3.197
28010W        W87447  25.998  28.035  14.431
28011W        W87448  25.491  31.417  12.415
28012W        W87449  38.977  41.308  12.570
28013W        W87450  15.196  22.635  13.030
28014W        W87451  26.563  23.619   3.176
28015W        W87452  26.470  16.296  14.762
28016W        W87453  22.655   9.732   9.962
28017W        W87454  23.046   4.876   1.772
28018W        W87455  36.389   3.745   0.316
28019W        W87456  43.016  31.612   2.280
28020W        W87457   7.307  38.046   1.340
28021W        W87458  17.777  43.295  14.848
28022W        W87459  12.764  41.467   2.807
28023W        W87460  14.672  24.585   3.853
28024W        W87461  37.905  35.897  10.412
28025W        W87462  31.551  29.028  10.619
28026W        W87463  13.620  24.668  12.387
28027W        W87464  36.453  41.931   5.166
28028W        W87465   8.876  44.300   3.864
28029W        W87466  29.605  41.006   0.437
28030W        W87467  36.938  21.674  10.996
28031W        W87468   2.303  40.325   2.318
28032W        W87469  41.467  40.935  11.515
28033W        W87470   8.370   2.795  14.838
28034W        W87471   0.787  20.562  10.475
28035W        W87472  35.020   9.389  13.934
28036W        W87473  44.436  24.643   3.351
28037W        W87474  39.847   2.827  10.637
28038W        W87475  43.790  34.578   3.638
28039W        W87476  15.653  43.935   3.195
28040W        W87477  35.959  23.987  12.887
28041W        W87478  24.093  32.017   1.276
28042W        W87479  10.641  39.519   1.719
28043W        W87480   6.786  13.221  10.992
28044W        W87481   6.864  35.096  14.327
28045W        W87482  22.537  15.755  12.897
28046W        W87483   1.292  42.317  14.351
28047W        W87484  42.898  16.231  14.429
28048W        W87485  34.065  39.957   0.960
28049W        W87486   4.331  44.004   2.882
28050W        W87487  23.712  14.650   1.819
28051W        W87488   9.313  25.623   3.775
28052W        W87489   9.387   7.886   3.778
28053W        W87490  36.453  22.520   1.263
28054W        W87491   0.293  44.759  11.546
28055W        W87492   8.222  31.016  14.873
28056W        W87493  13.173  27.121  12.358
28057W        W87494  19.168  24.504  13.891
28058W        W87495   2.300  34.915  11.124
28059W        W87496  10.371  30.016   2.759
28060W        W87497  23.696  31.987  12.547
28061W        W87498  43.313  12.185  14.490
28062W        W87499  31.563  16.756  10.947
28063W        W87500   5.755   4.753   0.371
28064W        W87501  37.987  36.892  13.052
28065W        W87502  41.350  32.036  11.115
28066W        W87503  16.666   8.178   3.226
28067W        W87504  23.014  11.717   1.368
28068W        W87505  26.470  35.868   9.963
28069W        W87506  26.014  24.041  14.366
28070W        W87507  32.521  37.930  13.962
28071W        W87508  33.896  41.837   4.616
28072W        W87509  42.525  38.353  14.821
28073W        W87510  36.883  11.642  14.918
28074W        W87511  13.168  22.554   3.678
28075W        W87512  28.664  29.623  12.923
28076W        W87513  33.567  32.488   4.222
28077W        W87514   6.241  27.659   0.771
28078W        W87515  26.962  33.057  14.301
28079W        W87516  26.992  30.001   0.750
28080W        W87517  17.576  44.452  13.527
28081W        W87518  27.171  42.818  14.968
28082W        W87519   5.854  29.016   3.718
28083W        W87520  37.054  33.948   2.226
28084W        W87521  10.331  21.717  10.581
28085W        W87522  35.979  23.599   2.742
28086W        W87523  26.152  34.973  11.933
28087W        W87524  18.112  22.633  12.562
28088W        W87525  15.655  10.332   2.277
28089W        W87526  24.029  29.070  11.860
28090W        W87527  29.109   6.324   0.865
28091W        W87528  29.653  38.832  13.949
28092W        W87529  28.186  14.646  13.039
28093W        W87530  34.985  34.006  14.500
28094W        W87531   1.910   3.346   0.326
28095W        W87532  24.027   7.710   2.373
28096W        W87533   9.827  39.347  14.443
28097W        W87534  43.356  41.951  12.383
28098W        W87535  24.019  12.147  13.488
28099W        W87536  26.493   8.196  13.447
28100W        W87537   7.752  14.201  13.000
28101W        W87538   1.483  26.540  13.425
28102W        W87539  21.757  14.226   4.352
28103W        W87540  39.375  31.468  11.382
28104W        W87541  38.819  10.384  12.850
28105W        W87542  44.492   7.359  10.563
28106W        W87543  35.938   0.486   0.955
28107W        W87544   9.284  21.087   0.393
28108W        W87545  27.010  31.582  11.428
28109W        W87546  32.999  23.567  10.110
28110W        W87547  44.270  41.969  14.833
28111W        W87548  37.040  13.298   1.743
28112W        W87549  15.627   1.807   2.224
28113W        W87550  22.134  22.250  14.980
28114W        W87551   3.744  19.731  11.539
28115W        W87552  17.219  31.905  12.059
28116W        W87553  17.794   0.855  11.051
28117W        W87554  23.650  42.515   1.751
28118W        W87555  30.491   6.741  12.568
28119W        W87556  18.125  30.470   0.826
28120W        W87557   1.972   6.688   1.897
28121W        W87558  32.564   5.737  14.400
28122W        W87559  19.735  17.785  14.873
28123W        W87560  28.522  10.288  11.401
28124W        W87561  36.535  17.082  14.323
28125W        W87562  17.122   5.867  12.394
28126W        W87563  22.081  20.765  10.485
28127W        W87564  43.869  34.088  12.879
28128W        W87565  11.266  30.115   1.790
28129W        W87566  37.951   4.815  13.007
28130W        W87567  16.601  31.073   2.897
28131W        W87568   2.906   6.345   0.369
28132W        W87569   0.929  44.838  10.458
28133W        W87570   0.818  29.143   1.406
28134W        W87571  34.597  44.922  13.409
28135W        W87572  34.952  43.460  12.090
28136W        W87573  38.503  12.275   4.784
28137W        W87574  16.232  15.293  10.561
28138W        W87575  25.589  34.045  10.572
28139W        W87576  14.331  24.586   4.199
28140W        W87577  34.392  28.931  11.061
28141W        W87578  13.153  34.883  14.023
28142W        W87579  41.993  18.587  10.622
28143W        W87580  11.729   5.290   2.851
28144W        W87581  23.081  38.977  12.381
28145W        W87582  31.509  32.980   1.739
28146W        W87583   5.360  18.204  13.002
28147W        W87584  23.060  27.941   4.805
28148W        W87585  11.190  20.060   3.192
28149W        W87586  23.103  25.023   2.876
28150W        W87587  21.740  41.989  10.427
28151W        W87588  17.720  40.453  14.505
28152W        W87589  10.191  39.830  13.396
28153W        W87590  23.525   3.298  12.850
28154W        W87591  29.041   9.180   1.365
28155W        W87592  39.020  25.208   0.320
28156W        W87593   1.870  34.966  11.380
28157W        W87594  17.753  28.540  10.964
28158W        W87595  42.831  16.096   2.703
28159W        W87596   3.244  38.969   0.788
28160W        W87597  16.260  35.570  11.598
28161W        W87598  41.033  32.893   1.408
28162W        W87599  42.885  28.661   2.880
28163W        W87600   8.291  19.278  14.981
28164W        W87601  42.376   3.221   4.786
28165W        W87602  21.071   2.263  13.984
28166W        W87603  22.630  44.389   4.231
28167W        W87604  35.077  15.164  10.440
28168W        W87605   3.724  26.199  14.292
28169W        W87606  32.059   3.876   2.884
28170W        W87607  34.612  41.314  10.521
28171W        W87608  42.334  29.154   1.861
28172W        W87609  34.917  15.171   3.160
28173W        W87610  33.480  22.068   4.263
28174W        W87611  42.946  21.649   0.335
28175W        W87612  23.620  39.821  13.999
28176W        W87613  28.007  31.030   3.778
28177W        W87614  23.185  29.154   4.626
28178W        W87615  12.727  25.071   4.663
28179W        W87616  28.030  15.193  13.991
28180W        W87617  19.705  17.721   4.802
28181W        W87618  37.038  14.325  11.388
28182W        W87619  35.986  37.417   4.145
28183W        W87620  30.650  17.195   0.931
28184W        W87621  25.694  23.078  13.966
28185W        W87622   6.827  27.176  14.299
28186W        W87623   9.260   7.838   5.290
28187W        W87624  30.596   1.482   3.857
28188W        W87625   6.304   9.377   3.780
28189W        W87626  33.037  15.791  12.046
28190W        W87627  37.874  40.850  13.426
28191W        W87628  36.032  36.083  10.977
28192W        W87629  10.711  21.529   4.150
28193W        W87630  38.482   7.909   1.219
28194W        W87631  10.805   9.352   3.844
28195W        W87632  28.508  27.453   1.339
28196W        W87633  24.508  31.028   3.329
28197W        W87634  38.055  32.421   4.258
28198W        W87635  41.417  27.959  13.805
28199W        W87636   4.862  36.862   4.333
28200W        W87637  24.604  14.156  12.427
28201W        W87638   8.818   3.938   2.293
28202W        W87639  21.147  33.444  13.464
28203W        W87640  38.364   1.453   1.879
28204W        W87641  10.651  27.032   1.808
28205W        W87642   8.776   8.697  12.077
28206W        W87643   6.768   3.323  10.893
28207W        W87644  25.661  17.169  10.031
28208W        W87645  11.773  41.440  12.351
28209W        W87646  28.460  27.497  11.128
28210W        W87647  11.768  40.949  14.405
28211W        W87648   0.263  22.671   4.787
28212W        W87649  38.834  34.878   1.830
28213W        W87650  19.224  35.107   0.843
28214W        W87651  31.476  36.897  11.608
28215W        W87652   1.313  15.818   0.940
28216W        W87653  11.708   2.341   0.308
28217W        W87654  19.283  10.739   4.662
28218W        W87655  15.187  38.994  14.920
28219W        W87656   6.428  14.277  14.969
28220W        W87657   7.740  28.137   2.302
28221W        W87658  24.010  15.816   1.738
28222W        W87659  26.968  42.320   4.236
28223W        W87660  32.515  41.860   3.836
28224W        W87661  22.109  17.655  11.966
28225W        W87662  44.373   9.669   2.271
28226W        W87663  29.983  17.691   0.874
28227W        W87664  32.968  18.708   1.873
28228W        W87665  42.984  20.029  14.492
28229W        W87666  31.581  10.810   4.177
28230W        W87667  28.474  14.722   0.406
28231W        W87668  42.963   3.955  13.885
28232W        W87669  29.596   2.919   1.325
28233W        W87670   6.815  44.789   4.762
28234W        W87671  24.546  25.216   0.881
28235W        W87672  37.387  24.625   1.411
28236W        W87673  21.627  42.447  12.538
28237W        W87674  42.488  16.205  14.890
28238W        W87675   2.300   3.787   3.762
28239W        W87676  24.209  38.325   3.354
28240W        W87677  22.625  19.056  12.972
28241W        W87678  32.012  44.847  14.333
28242W        W87679   0.931   7.688   2.815
28243W        W87680  21.599   0.274   1.450
28244W        W87681  28.657  22.103   0.262
28245W        W87682  24.675   3.741  11.897
28246W        W87683   2.348   4.435  14.888
28247W        W87684  42.795   1.857   1.897
28248W        W87685  32.508  43.289  13.936
28249W        W87686   8.790  40.990   2.194
28250W        W87687   8.874  29.107   2.759
28251W        W87688  39.054  36.507  14.894
28252W        W87689  12.292  35.983  14.389
28253W        W87690   1.365  33.882  13.364
28254W        W87691  10.370  36.446  13.904
28255W        W87692  39.396  44.862  14.032
28256W        W87693  20.713  39.461  11.596
28257W        W87694  41.403   7.840   1.438
28258W        W87695  25.083  23.502  14.888
28259W        W87696   3.861  21.737  11.950
28260W        W87697   3.785  21.750  10.641
28261W        W87698  33.406   5.209  12.077
28262W        W87699   6.319  41.886   2.734
28263W        W87700  22.053  35.900   3.753
28264W        W87701  42.527  42.391  14.851
28265W        W87702  20.722   5.761   0.765
28266W        W87703  18.729  19.159   0.306
28267W        W87704  32.000  44.391   3.752
28268W        W87705  15.303  44.835  11.520
28269W        W87706  19.643  14.317   0.746
28270W        W87707  38.995  40.335  14.833
28271W        W87708  25.675  27.593  10.560
28272W        W87709  44.898  21.544   4.615
28273W        W87710  10.281  32.526   3.844
28274W        W87711   2.312  20.148   1.306
28275W        W87712  32.440  31.552   4.608
28276W        W87713  27.112  35.479  13.377
28277W        W87714  11.287  10.261  12.426
28278W        W87715   9.866   7.725   1.429
28279W        W87716  17.267  22.126   4.145
28280W        W87717  12.712  44.468   4.175
28281W        W87718  15.229   8.194   1.788
28282W        W87719   0.908  43.846  12.550
28283W        W87720  13.802  12.329  12.080
28284W        W87721  36.491  13.803  14.945
28285W        W87722  24.004  43.850  13.370
28286W        W87723  19.780  39.930   1.719
28287W        W87724  39.948  41.518  13.981
28288W        W87725   9.645   5.321  13.499
28289W        W87726  41.818  33.442   4.620
28290W        W87727   6.809   9.238  14.807
28291W        W87728   8.353  16.801  12.983
28292W        W87729  29.948  14.215   3.818
28293W        W87730   5.222  44.761  11.938
28294W        W87731  18.574  29.439   2.187
28295W        W87732   1.451  19.195   2.182
28296W        W87733  24.031  40.838   0.831
28297W        W87734   0.985  26.685   1.842
28298W        W87735  17.154  14.728  11.049
28299W        W87736   9.802  17.763   1.235
28300W        W87737  15.822  12.283  12.456
28301W        W87738  24.077  29.454   3.696
28302W        W87739  21.077  13.342   5.172
28303W        W87740  40.826   3.766  12.982
28304W        W87741  27.663  19.707  10.487
28305W        W87742  21.682  20.046   1.758
28306W        W87743  13.204  18.145   4.142
28307W        W87744   6.257  41.945  14.377
28308W        W87745  32.508  28.561   0.428
28309W        W87746   2.377  25.583   2.740
28310W        W87747   2.374  43.906   2.391
28311W        W87748  14.284  32.890   4.710
28312W        W87749  27.066   4.931   3.833
28313W        W87750   6.424  37.452   5.084
28314W        W87751  14.320  31.001   5.288
28315W        W87752  12.791   5.733  12.833
28316W        W87753  43.396  17.617  13.969
28317W        W87754  12.272  29.091  12.892
28318W        W87755  20.548  36.015  14.287
28319W        W87756  24.098  10.713   2.702
28320W        W87757  31.023  39.047  11.396
28321W        W87758   3.214  23.236   3.664
28322W        W87759  22.070  43.994   3.261
28323W        W87760  41.810  36.560   0.961
28324W        W87761  41.400   9.697  12.001
28325W        W87762  30.990  10.784   2.708
28326W        W87763   7.257  35.436   2.861
28327W        W87764   9.338  37.873   1.303
28328W        W87765  10.231  30.517   9.950
28329W        W87766  17.740   9.780  11.089
28330W        W87767  15.790  10.841   4.229
28331W        W87768  38.892   7.702   4.663
28332W        W87769  26.667  22.722  13.044
28333W        W87770  17.173   8.239  11.992
28334W        W87771  17.623  16.100  14.767
28335W        W87772  10.660   8.673   3.146
28336W        W87773  14.239   3.855  13.794
28337W        W87774  24.639  15.593   3.815
28338W        W87775  14.656  26.966  12.969
28339W        W87776  33.385   6.695  12.882
28340W        W87777  28.666  31.153   1.248
28341W        W87778  32.099   1.376  14.026
28342W        W87779  22.505   1.304   3.788
28343W        W87780   8.741  26.972   0.769
28344W        W87781  15.802  11.190   1.431
28345W        W87782  41.347  30.435  12.932
28346W        W87783  24.999  30.931   4.330
28347W        W87784  31.977  32.030   5.173
28348W        W87785  23.609  20.524   1.886
28349W        W87786  31.077  43.855   4.173
28350W        W87787  37.939  40.502  14.882
28351W        W87788  35.917  42.309  13.377
28352W        W87789  26.092  37.540  13.546
28353W        W87790  28.440   1.946   0.757
28354W        W87791  20.576  17.771   0.954
28355W        W87792  11.622   2.782  11.995
28356W        W87793   6.194  10.375   4.602
28357W        W87794  24.660  43.992  13.534
28358W        W87795  36.379  43.009   0.865
28359W        W87796  24.221   5.705   1.342
28360W        W87797  32.138  17.640  14.317
28361W        W87798  13.806  38.826   1.880
28362W        W87799  11.688  38.542   0.934
28363W        W87800  23.087  40.449  13.395
28364W        W87801  41.014  25.541   0.256
28365W        W87802  19.685  26.126   4.820
28366W        W87803  33.037  40.988   1.225
28367W        W87804  12.279   5.407  14.379
28368W        W87805  12.310  12.273  10.632
28369W        W87806  32.582   1.756   2.208
28370W        W87807  23.638  15.099   3.738
28371W        W87808  26.970  14.740  14.365
28372W        W87809  15.229  42.389   2.180
28373W        W87810   9.179  27.561   0.830
28374W        W87811  21.663  42.833   5.314
28375W        W87812  19.650  17.676  12.460
28376W        W87813  43.791  13.321  14.811
28377W        W87814   4.309  26.072  12.823
28378W        W87815  25.972  22.577   3.304
28379W        W87816  30.155   2.728   1.783
28380W        W87817  18.071  39.890  11.053
28381W        W87818  26.188  31.111   0.375
28382W        W87819  39.973  40.334  14.015
28383W        W87820   1.400   0.784  11.031
28384W        W87821  39.888  19.167  14.980
28385W        W87822   5.231  16.733   4.342
28386W        W87823  39.974  36.860   3.302
28387W        W87824  20.701   6.731  12.884
28388W        W87825  22.140  15.287   2.881
28389W        W87826   5.797  21.165  12.553
28390W        W87827  15.105  31.464  12.005
28391W        W87828   5.719  34.547  12.492
28392W        W87829  17.620  33.572   3.343
28393W        W87830  35.051   2.835   2.836
28394W        W87831  13.335   2.231  12.022
28395W        W87832  42.493  23.045  14.827
28396W        W87833  16.119   2.916  13.057
28397W        W87834   4.226  30.124   3.171
28398W        W87835  38.564  26.958   4.254
28399W        W87836  16.729  18.631  10.938
28400W        W87837   4.364  10.713   2.823
28401W        W87838  13.741  36.006   2.341
28402W        W87839  34.045  18.092  10.977
28403W        W87840   8.225  23.152   0.843
28404W        W87841  10.720  31.977  14.439
28405W        W87842  10.808   6.757  11.372
28406W        W87843  42.412  39.512  14.490
28407W        W87844  23.099  15.758   4.722
28408W        W87845   5.691  32.077   0.757
28409W        W87846  10.342  28.131  10.532
28410W        W87847  12.792   5.870  10.454
28411W        W87848   2.797   5.260   2.370
28412W        W87849  19.681  43.421   0.950
28413W        W87850   0.426   4.304  14.335
28414W        W87851  27.016  29.101  10.459
28415W        W87852  42.371  15.260   3.386
28416W        W87853  38.375  11.673  14.845
28417W        W87854  18.709   2.917   1.767
28418W        W87855  24.577  44.477  11.423
28419W        W87856   9.196   2.279  11.505
28420W        W87857  19.738  22.091  11.929
28421W        W87858  30.641  11.303   2.833
28422W        W87859  22.728   8.826  13.933
28423W        W87860  30.998  26.044  13.355
28424W        W87861  37.007  28.023  13.855
28425W        W87862  40.455  41.340  10.417
28426W        W87863   5.353  10.168  14.862
28427W        W87864  21.614  24.174  11.499
28428W        W87865  35.383  33.501  10.906
28429W        W87866  35.063  27.130  10.919
28430W        W87867  31.645   4.757  12.354
28431W        W87868   7.824  16.732  13.906
28432W        W87869   1.382   1.480   3.340
28433W        W87870  38.485  15.683  12.958
28434W        W87871  20.143   7.884   4.706
28435W        W87872  42.295   5.339   0.324
28436W        W87873   1.473   4.314   0.832
28437W        W87874  27.167  40.827  11.475
28438W        W87875  11.717  40.400  14.026
28439W        W87876   0.384   2.856  13.931
28440W        W87877  11.845  41.310  12.010
28441W        W87878  29.151  43.005   0.321
28442W        W87879  20.661  34.453  10.452
28443W        W87880  39.987  21.220  10.944
28444W        W87881  36.055  36.377   0.758
28445W        W87882  38.531  39.382  13.018
28446W        W87883  13.296  23.661  11.002
28447W        W87884  35.470   8.869  12.844
28448W        W87885  37.902  28.076   2.765
28449W        W87886  38.866  32.434   2.245
28450W        W87887  15.608  21.060   0.802
28451W        W87888  44.498  26.572   4.345
28452W        W87889  44.274  28.012  13.450
28453W        W87890  11.835  10.712   0.954
28454W        W87891  14.787  37.844   0.329
28455W        W87892  18.142  16.717   1.718
28456W        W87893  15.180   7.384   2.254
28457W        W87894  29.424  15.280   0.282
28458W        W87895  24.062  25.591   2.361
28459W        W87896  32.932  11.372   4.118
28460W        W87897  13.106  30.963   0.928
28461W        W87898  23.049  25.042   3.289
28462W        W87899   3.905   2.348   2.186
28463W        W87900   3.859  32.965  14.831
28464W        W87901  38.348  16.689  14.879
28465W        W87902  26.473   3.246   1.702
28466W        W87903  13.802   4.850  11.534
28467W        W87904  21.620  11.713  11.038
28468W        W87905  43.329  29.077   4.206
28469W        W87906   4.352  34.575   2.189
28470W        W87907  24.027  18.738   5.245
28471W        W87908   0.779   2.750  12.051
28472W        W87909  27.492  22.698   2.217
28473W        W87910   6.693  19.779  12.959
28474W        W87911  39.428   8.870   1.728
28475W        W87912   3.396  26.532  14.820
28476W        W87913  10.365  34.412  14.351
28477W        W87914  36.380  24.141   4.706
28478W        W87915   0.832   2.788  13.821
28479W        W87916  39.894  10.275   0.850
28480W        W87917   8.862   9.154   4.232
28481W        W87918  12.234  23.720  13.976
28482W        W87919  12.325   3.770   2.230
28483W        W87920   6.325   5.315   2.241
28484W        W87921  42.871  26.070  13.380
28485W        W87922  37.401  26.168   2.221
28486W        W87923  20.144  24.212   2.236
28487W        W87924  28.003  24.545   3.323
28488W        W87925   9.169  19.750  11.028
28489W        W87926  41.042   4.317   0.856
28490W        W87927  26.080   6.791  12.384
28491W        W87928  29.455   4.292  10.428
28492W        W87929  39.545  38.509   4.297
28493W        W87930  21.741   2.743  11.396
28494W        W87931  33.549   4.866  13.792
28495W        W87932  39.465  32.015   0.761
28496W        W87933  44.352  16.133  10.512
28497W        W87934  38.341   1.879  13.449
28498W        W87935   1.283  15.583   4.133
28499W        W87936  16.649  27.594  14.376
28500W        W87937   2.344  37.521   2.339
28501W        W87938  38.966  28.166   0.308
28502W        W87939  28.143  39.975  14.855
28503W        W87940  32.081   5.201   1.394
28504W        W87941  32.012  11.243   1.415
28505W        W87942  11.660  27.990  13.482
28506W        W87943  41.955  18.604   0.816
28507W        W87944  30.915  10.778  14.968
28508W        W87945  40.045   7.328   4.200
28509W        W87946  25.659  37.480   5.632
28510W        W87947   9.342   0.822   4.830
28511W        W87948  32.031  13.166   4.180
28512W        W87949  12.618  16.139  11.917
28513W        W87950  20.623   5.823  12.975
28514W        W87951  41.845  37.982  11.910
28515W        W87952  31.438  28.052  12.059
28516W        W87953   1.774   0.365  11.531
28517W        W87954   5.707  33.003  13.032
28518W        W87955  14.814  32.957   4.745
28519W        W87956  19.534  29.434   4.302
28520W        W87957   6.790  43.505   4.632
28521W        W87958  26.624  42.802  13.545
28522W        W87959   3.814  33.603   3.655
28523W        W87960  18.572   2.380  11.455
28524W        W87961  17.694  41.871  13.014
28525W        W87962  38.996   5.351  14.400
28526W        W87963   9.211  12.649  12.079
28527W        W87964  24.988  12.675   3.308
28528W        W87965  22.724  23.572  10.406
28529W        W87966  16.211  22.233  14.937
28530W        W87967  37.919  27.657  12.439
28531W        W87968  26.645  26.487   1.346
28532W        W87969  27.952   4.747  10.540
28533W        W87970  34.961  11.327  13.481
28534W        W87971  34.429  25.656   0.827
28535W        W87972  20.042   9.195   1.791
28536W        W87973  14.261  38.555  13.524
28537W        W87974  27.592  23.178   4.735
28538W        W87975  14.684   2.314  13.935
28539W        W87976   3.340  11.830   4.201
28540W        W87977  29.117  11.715   2.874
28541W        W87978  21.081   6.785   3.291
28542W        W87979   1.258  19.089   4.604
28543W        W87980  20.192  11.691  10.923
28544W        W87981  36.049  23.194  14.423
28545W        W87982  37.943  26.977   4.263
28546W        W87983  27.491  11.143  11.980
28547W        W87984   4.708   3.458   4.295
28548W        W87985  28.140  24.113   5.137
28549W        W87986  43.406  11.771   0.754
28550W        W87987  44.474   2.296  13.971
28551W        W87988  18.767   2.732  12.442
28552W        W87989  16.252  26.490   3.766
28553W        W87990  32.992  38.850   2.781
28554W        W87991  14.632   8.298   1.801
28555W        W87992  33.929   2.734  12.395
28556W        W87993   3.399  31.565   0.798
28557W        W87994   8.405   4.879   4.743
28558W        W87995  36.009  18.776   4.284
28559W        W87996  37.019   0.432   2.780
28560W        W87997  15.117  31.449   3.643
28561W        W87998  32.583  27.541   1.877
28562W        W87999  21.556   4.402   3.664
28563W        W88000  23.182  36.994   1.711
28564W        W88001  11.209   2.926   4.148
28565W        W88002  25.121  14.773   3.728
28566W        W88003  44.435  38.903   0.860
28567W        W88004   1.817  12.156  12.530
28568W        W88005  18.240  21.258  10.549
28569W        W88006  10.258  37.541  13.339
28570W        W88007  25.522  37.965   3.250
28571W        W88008  44.332  41.469  13.046
28572W        W88009   8.742  21.227  10.919
28573W        W88010  14.291  14.627  10.547
28574W        W88011  24.107  27.974  11.024
28575W        W88012  24.176  33.407  13.849
28576W        W88013  36.051  44.867  13.446
28577W        W88014  37.871  41.016   2.731
28578W        W88015  40.405   3.308   0.894
28579W        W88016  27.942   3.721  11.475
28580W        W88017  35.482  41.312   4.338
28581W        W88018  39.050  28.105  13.379
28582W        W88019  37.367  35.515  13.001
28583W        W88020   6.191  25.108  10.609
28584W        W88021  28.543  39.451   0.840
28585W        W88022  18.546  38.969   5.093
28586W        W88023  44.881   1.395  12.076
28587W        W88024   8.383   3.391   0.734
28588W        W88025  38.328  24.536   0.734
28589W        W88026  25.573  22.089   3.321
28590W        W88027  23.030  23.714   0.817
28591W        W88028  33.060   8.338   4.188
28592W        W88029  33.027  12.680   2.865
28593W        W88030  16.708   5.767   2.236
28594W        W88031  17.198  33.574  12.433
28595W        W88032   1.475  15.689  10.888
28596W        W88033  15.268  28.171   0.242
28597W        W88034  27.067  42.967  10.633
28598W        W88035  28.096  10.739   1.826
28599W        W88036   1.943  18.579  13.904
28600W        W88037  27.461  44.358   2.772
28601W        W88038  19.159  21.019  10.079
28602W        W88039  27.063  39.941   9.992
28603W        W88040  21.528  33.954   4.794
28604W        W88041  34.108   2.355   1.747
28605W        W88042  23.547   4.322  11.884
28606W        W88043  27.671  40.002  13.921
28607W        W88044   2.914  24.224   3.801
28608W        W88045  30.971  44.271  12.026
28609W        W88046  37.900  44.997  13.545
28610W        W88047  36.423  37.072   3.168
28611W        W88048  35.394  32.053   4.743
28612W        W88049   9.350   3.884   4.321
28613W        W88050   3.889  42.027  12.344
28614W        W88051   7.842  34.940   4.817
28615W        W88052  28.642  25.050  10.891
28616W        W88053  41.872  30.968  13.936
28617W        W88054  35.928  25.162   0.467
28618W        W88055  14.314  43.853   0.469
28619W        W88056   2.384  24.173   1.307
28620W        W88057  15.159  29.578   1.400
28621W        W88058  14.168  27.447  14.806
28622W        W88059  36.866  20.681   1.829
28623W        W88060  15.299   2.439  14.794
28624W        W88061  18.145   9.732  11.948
28625W        W88062  27.512  27.040  12.412
28626W        W88063  29.579  22.500  14.802
28627W        W88064  36.896   1.745  11.378
28628W        W88065   5.398  42.900  10.061
28629W        W88066  44.988  17.679  10.633
28630W        W88067  38.336  13.655  11.526
28631W        W88068   2.787  27.956   0.323
28632W        W88069  32.921   2.431  12.404
28633W        W88070  12.836  43.785  10.571
28634W        W88071   4.431  28.474  14.410
28635W        W88072  28.128  10.333  12.030
28636W        W88073   0.769  28.576  11.938
28637W        W88074  38.343  11.635   1.913
28638W        W88075  23.150   8.878  12.929
28639W        W88076   6.216   1.789   2.785
28640W        W88077   0.946  10.303  11.070
28641W        W88078   8.266  34.022  12.893
28642W        W88079   3.860  21.205  11.123
28643W        W88080   2.951  20.534   3.339
28644W        W88081   1.397  37.843  14.475
28645W        W88082   8.662   0.944  10.984
28646W        W88083  38.499   5.389  10.531
28647W        W88084  42.882  24.517   2.348
28648W        W88085  38.051  30.057  11.907
28649W        W88086  32.511  39.431   2.348
28650W        W88087  29.957  27.010   1.923
28651W        W88088  28.057  11.835  13.529
28652W        W88089   5.746  12.672  10.634
28653W        W88090   8.292  18.561   4.120
28654W        W88091  20.138  41.814  12.065
28655W        W88092  26.485   8.162   3.385
28656W        W88093  23.002  11.291   2.859
28657W        W88094  11.334  15.132   4.336
28658W        W88095  35.910  25.139   3.836
28659W        W88096  26.559  27.005  13.815
28660W        W88097   1.342  17.255  13.966
28661W        W88098  35.395  18.134   0.409
28662W        W88099  14.190  29.461   5.197
28663W        W88100  31.027  37.866   4.176
28664W        W88101  37.486  15.139  14.286
28665W        W88102  27.639  22.571  11.091
28666W        W88103  40.840  41.807  13.542
28667W        W88104  25.109  19.271  13.420
28668W        W88105  35.022  29.045  11.888
28669W        W88106   4.854  19.204  12.939
28670W        W88107  11.313  19.137   3.160
28671W        W88108  15.298  43.793  13.306
28672W        W88109  12.742  40.409  14.322
28673W        W88110  39.381  26.488  14.288
28674W        W88111  21.149  17.195   5.198
28675W        W88112  32.627  22.055  10.938
28676W        W88113   5.854  25.137   2.390
28677W        W88114  18.551  27.545  12.392
28678W        W88115   5.847  27.143   4.800
28679W        W88116  21.096  44.926  13.956
28680W        W88117  39.986  36.349   4.649
28681W        W88118  30.082   6.895  13.849
28682W        W88119  18.172  31.042  12.529
28683W        W88120  31.527  42.933  13.825
28684W        W88121  32.416   9.352  11.998
28685W        W88122  29.985  25.695   0.731
28686W        W88123  33.085  12.619   4.328
28687W        W88124  35.029  23.020  10.594
28688W        W88125  31.621   3.783   3.198
28689W        W88126  35.911   1.411  12.961
28690W        W88127  28.018   0.316   3.377
28691W        W88128  37.880  19.545  12.096
28692W        W88129  39.412   3.341  10.430
28693W        W88130  33.107  13.262   0.737
28694W        W88131  23.697  39.515   3.795
28695W        W88132  22.170  29.118  10.523
28696W        W88133  20.088  15.734   0.428
28697W        W88134  44.327  10.756  11.058
28698W        W88135  22.644  13.223   0.839
28699W        W88136  27.660  14.829   4.241
28700W        W88137  21.741  44.276   1.369
28701W        W88138  22.672  34.066   3.197
28702W        W88139   0.377  40.017   2.782
28703W        W88140  16.124  44.951   4.607
28704W        W88141  18.730   5.268  12.526
28705W        W88142   8.279  35.008  14.824
28706W        W88143   7.901  27.490   3.689
28707W        W88144  39.468  29.431  10.621
28708W        W88145  33.468  10.156  10.982
28709W        W88146  18.192   1.824   0.342
28710W        W88147  14.768  37.370   4.125
28711W        W88148  44.362   6.910  10.910
28712W        W88149  22.036  42.014   3.358
28713W        W88150  38.820   8.163   3.346
28714W        W88151   6.390  44.481  13.364
28715W        W88152  31.053  21.182   4.759
28716W        W88153   4.773  23.007   2.844
28717W        W88154   2.410  13.115  10.916
28718W        W88155  25.483  31.960  12.564
28719W        W88156  25.523  39.491   2.307
28720W        W88157  12.745  11.157   0.762
28721W        W88158  39.482  32.064   3.190
28722W        W88159  18.081  43.002  14.825
28723W        W88160   5.771   8.203  13.379
28724W        W88161   0.909  19.645  13.925
28725W        W88162  37.340  13.723   4.833
28726W        W88163  33.384  43.799  13.840
28727W        W88164  17.102  35.983   0.365
28728W        W88165   2.789  11.359  13.388
28729W        W88166  32.099  10.724  11.550
28730W        W88167   4.785  33.097  12.538
28731W        W88168  16.698   9.336  13.500
28732W        W88169   5.332  43.424  11.985
28733W        W88170  24.564   8.195   0.791
28734W        W88171  37.045  40.877  10.494
28735W        W88172  25.213   9.715   9.650
28736W        W88173  22.581  26.602  11.553
28737W        W88174  44.359  20.683   4.742
28738W        W88175   0.366  17.070   1.880
28739W        W88176   3.403  11.319   2.779
28740W        W88177  22.062  17.209   1.212
28741W        W88178  30.534  20.601   0.967
28742W        W88179  42.889  42.498   1.736
28743W        W88180   8.270  24.654   1.332
28744W        W88181  14.782  16.599  13.923
28745W        W88182  35.080  29.611   1.430
28746W        W88183  44.966  42.455   4.681
28747W        W88184   0.460  38.440  13.537
28748W        W88185  21.123  42.804  12.838
28749W        W88186  38.444  24.014  10.466
28750W        W88187  39.533  27.108  14.825
28751W        W88188   7.783  11.735   1.889
28752W        W88189  37.992  34.438  12.997
28753W        W88190   4.403   6.321  12.009
28754W        W88191  32.047  18.205  10.001
28755W        W88192  18.661  10.350  11.094
28756W        W88193  14.600  39.387   9.644
28757W        W88194  41.475   5.834  12.382
28758W        W88195  21.735  19.751  11.969
28759W        W88196   2.320  42.018  13.409
28760W        W88197  12.168  44.935  12.008
28761W        W88198  42.995  19.572  12.882
28762W        W88199  38.958  43.898   3.198
28763W        W88200   7.263  36.380   1.315
28764W        W88201  10.850  28.951   4.339
28765W        W88202  13.272  20.681   1.857
28766W        W88203  24.092   2.722  11.594
28767W        W88204  40.465  14.156   0.913
28768W        W88205  32.914  36.003   3.164
28769W        W88206  32.526  43.773  13.385
28770W        W88207  22.086  11.819   2.349
28771W        W88208  40.328  22.556   5.269
28772W        W88209  31.635  43.781  11.478
28773W        W88210   2.924  36.854   3.748
28774W        W88211  10.197  15.138  14.000
28775W        W88212  30.956  38.523   2.880
28776W        W88213  42.491  23.668  14.953
28777W        W88214  28.580  25.150  14.482
28778W        W88215  16.089  43.438  13.844
28779W        W88216  10.719  44.913   4.691
28780W        W88217  41.789   5.754  12.010
28781W        W88218  20.106   6.282   2.845
28782W        W88219   1.346  19.542   2.305
28783W        W88220  37.952   8.671  10.522
28784W        W88221  22.215  25.542   1.912
28785W        W88222  17.217  15.604   4.656
28786W        W88223  24.556  27.114  14.915
28787W        W88224  21.140  25.089  12.474
28788W        W88225  34.440  19.227   1.318
28789W        W88226  27.652  29.143  12.062
28790W        W88227  34.920   4.795  13.315
28791W        W88228  23.078   4.327   1.332
28792W        W88229   9.778  10.184   0.775
28793W        W88230  14.223  29.103  11.937
28794W        W88231  18.206  37.010   1.766
28795W        W88232  20.569  38.857  10.920
28796W        W88233  13.680   8.377  10.628
28797W        W88234  14.740   5.688   4.766
28798W        W88235  21.747  36.091   3.300
28799W        W88236   2.327  26.483   0.354
28800W        W88237  33.999   7.276   0.733
28801W        W88238  35.094  16.583  13.417
28802W        W88239  22.730  18.141  13.868
28803W        W88240   1.438  18.171   0.735
28804W        W88241  19.534   7.218   3.769
28805W        W88242  40.846  22.611  12.370
28806W        W88243  35.861  38.823   1.778
28807W        W88244  21.107  23.546  13.826
28808W        W88245  29.994   4.839  13.852
28809W        W88246  40.404  34.948   0.431
28810W        W88247  35.369   7.796   1.258
28811W        W88248  42.344  17.562  10.956
28812W        W88249  39.318  16.639   3.330
28813W        W88250  25.504  13.708  12.831
28814W        W88251  12.777  19.111   3.207
28815W        W88252   8.821  22.188   1.880
28816W        W88253  25.117  42.519  12.342
28817W        W88254  16.669  43.836  11.471
28818W        W88255  26.955  34.068   4.292
28819W        W88256  19.206  38.931   1.813
28820W        W88257  33.461   0.783  10.464
28821W        W88258  35.513  37.986  11.494
28822W        W88259  17.787   0.829   0.328
28823W        W88260  24.499  36.872  10.035
28824W        W88261   3.839  25.020   2.203
28825W        W88262  23.618  32.506  13.548
28826W        W88263  17.061  13.684   2.254
28827W        W88264  20.266   1.403  14.511
28828W        W88265   2.957  42.483  12.561
28829W        W88266  40.548  26.190  11.887
28830W        W88267  39.374  34.452  12.539
28831W        W88268  22.184  12.312   2.246
28832W        W88269  19.752  39.543   2.746
28833W        W88270  19.664   4.835   0.735
28834W        W88271  40.471  11.184  10.631
28835W        W88272  40.539   3.833  13.330
28836W        W88273   3.827   3.393   9.944
28837W        W88274  20.750  23.514  10.463
28838W        W88275   7.340  11.776   0.788
28839W        W88276   9.774  41.012  11.496
28840W        W88277  35.969  26.513   2.667
28841W        W88278  24.544  15.297  14.437
28842W        W88279  12.699  26.461  13.967
28843W        W88280  30.079  33.476   3.213
28844W        W88281  34.456   6.846   4.141
28845W        W88282  20.578   7.815   3.372
28846W        W88283  17.584  32.902   2.277
28847W        W88284  19.556  27.614  11.526
28848W        W88285  24.173  39.447   1.424
28849W        W88286  28.962  28.540  11.509
28850W        W88287  41.452   5.887   0.302
28851W        W88288  21.132  26.151  10.915
28852W        W88289   9.787  27.446   2.406
28853W        W88290  15.706  40.383   2.764
28854W        W88291   4.906  10.733   1.353
28855W        W88292  21.049  11.325  10.607
28856W        W88293  43.344   8.245   3.816
28857W        W88294   5.322  44.772   3.220
28858W        W88295   5.747  20.561  13.455
28859W        W88296  26.143  25.580   1.929
28860W        W88297   1.314  23.550   2.337
28861W        W88298  19.126  17.107   0.729
28862W        W88299  14.170  36.909   2.703
28863W        W88300  12.771  36.017   4.191
28864W        W88301   4.852  42.901  14.799
28865W        W88302  13.163  11.804   1.410
28866W        W88303  30.580  23.544  13.945
28867W        W88304  17.751  24.652  13.958
28868W        W88305  23.996  24.160   0.354
28869W        W88306  18.277  17.576   2.688
28870W        W88307  10.315   6.829   0.474
28871W        W88308  43.813   8.700   3.650
28872W        W88309  43.832   1.468   4.724
28873W        W88310   2.755  42.402  10.467
28874W        W88311  25.147  28.574  12.896
28875W        W88312  32.075  19.087  12.078
28876W        W88313   0.947  37.537  10.407
28877W        W88314   8.878  31.420   3.812
28878W        W88315   0.807  19.745   3.671
28879W        W88316  36.081  27.622   0.792
28880W        W88317   1.738  25.505  12.863
28881W        W88318   2.436  40.919  11.448
28882W        W88319  11.655  11.781  12.537
28883W        W88320  10.672  34.370  11.580
28884W        W88321  37.868  13.639   2.880
28885W        W88322  31.153  21.549   0.305
28886W        W88323   2.386   1.878   1.694
28887W        W88324   3.430   6.777   4.120
28888W        W88325  43.981  40.023   3.724
28889W        W88326  37.518  42.816  14.465
28890W        W88327  17.261  36.098  13.474
28891W        W88328  15.593   1.938   4.645
28892W        W88329  17.298  31.531  11.612
28893W        W88330   8.275   5.431   2.291
28894W        W88331   5.752  15.136  11.503
28895W        W88332  18.781  29.501  12.554
28896W        W88333  24.611  26.668   1.252
28897W        W88334   3.280  26.699   2.180
28898W        W88335  22.651   0.803  14.315
28899W        W88336  43.961  23.106   2.860
28900W        W88337  41.471  26.097  13.425
28901W        W88338   6.790   9.803  13.934
28902W        W88339  44.279  33.040   0.739
28903W        W88340   0.338  27.456  14.466
28904W        W88341  16.662   6.265   4.737
28905W        W88342  36.863  23.135   3.236
28906W        W88343  16.659   6.718  14.416
28907W        W88344   8.754  38.393   2.670
28908W        W88345   8.317  36.084   4.229
28909W        W88346  15.618  13.295  14.435
28910W        W88347  26.055  32.539   0.868
28911W        W88348  19.259   0.779   0.734
28912W        W88349   0.787  13.708  14.364
28913W        W88350  27.056  35.543  13.893
28914W        W88351  34.576   0.486   2.664
28915W        W88352  37.020  34.918  13.030
28916W        W88353  17.719  12.302   3.228
28917W        W88354  39.886  22.699   4.795
28918W        W88355  31.459  13.824  11.054
28919W        W88356  16.075  19.040  14.365
28920W        W88357   1.854  12.359  11.922
28921W        W88358   2.933   1.909   0.799
28922W        W88359  23.668  25.025  11.125
28923W        W88360  37.538  19.574  13.801
28924W        W88361  38.475  36.004  10.995
28925W        W88362  26.204   3.239  13.914
28926W        W88363  32.917  29.492   4.696
28927W        W88364  38.517  42.418   0.374
28928W        W88365  14.098  29.071  13.918
28929W        W88366  28.527  27.541  14.912
28930W        W88367  30.058  32.453   1.355
28931W        W88368  16.255  16.265  12.580
28932W        W88369  44.301  24.201  12.916
28933W        W88370   7.346  13.778  10.441
28934W        W88371  17.076  38.021   1.406
28935W        W88372  14.756  32.092   1.242
28936W        W88373  18.581   2.790  10.409
28937W        W88374   0.373  41.349   0.393
28938W        W88375   1.290  26.607   0.755
28939W        W88376   5.285   7.327  12.442
28940W        W88377   3.714  29.629   1.745
28941W        W88378  11.237  35.593   4.318
28942W        W88379  12.748  13.798   3.239
28943W        W88380  28.646  27.647   4.253
28944W        W88381   6.907   1.257  12.991
28945W        W88382  10.137  12.775   1.404
28946W        W88383  39.504  24.114  13.352
28947W        W88384  38.029   7.377  10.966
28948W        W88385   5.229   4.910  11.601
28949W        W88386  24.167  43.331   0.337
28950W        W88387  16.171  24.075  10.418
28951W        W88388   4.257  43.771  11.443
28952W        W88389  16.271  21.669  11.414
28953W        W88390  18.703  26.051   0.419
28954W        W88391  34.559  34.485   3.645
28955W        W88392  10.764   0.800   2.791
28956W        W88393   9.839  42.510   2.285
28957W        W88394  35.004  28.639  14.946
28958W        W88395  21.193  43.903  14.846
28959W        W88396  23.638   8.842  13.822
28960W        W88397  21.161  29.045  14.405
28961W        W88398   7.213   1.429   1.291
28962W        W88399  44.983  20.259  14.889
28963W        W88400  41.397  10.380   9.994
28964W        W88401  18.705  26.061   3.288
28965W        W88402   9.864  20.094  10.410
28966W        W88403   9.661  20.634  14.014
28967W        W88404  21.046   3.861  13.312
28968W        W88405  35.573  41.366  13.042
28969W        W88406  33.424  30.543   4.213
28970W        W88407   4.373  12.845   2.415
28971W        W88408  13.661   7.851   3.726
28972W        W88409  10.148  42.801  11.979
28973W        W88410  20.574   2.792   4.776
28974W        W88411  37.381  35.379  12.056
28975W        W88412  29.509   0.896  14.418
28976W        W88413   7.744  37.884   4.153
28977W        W88414  16.718  44.470   9.535
28978W        W88415  19.072   1.752   1.882
28979W        W88416  32.429  24.502  10.594
28980W        W88417  32.107  13.183  10.961
28981W        W88418  43.352  32.115  13.848
28982W        W88419  36.960   0.858  11.373
28983W        W88420  36.093  43.844  12.460
28984W        W88421  27.596   4.400   2.328
28985W        W88422  16.267  29.595   3.375
28986W        W88423  22.744  17.190   1.825
28987W        W88424   0.832  10.148  11.587
28988W        W88425  36.043  31.142  11.372
28989W        W88426  28.626  19.680   3.305
28990W        W88427  19.160  12.265   3.246
28991W        W88428   7.207  44.411   1.891
28992W        W88429  15.632  33.496  14.917
28993W        W88430   8.865  12.194  12.069
28994W        W88431  22.571  14.287  10.441
28995W        W88432   4.219  15.088   2.758
28996W        W88433  39.419  26.161   2.411
28997W        W88434  14.117  37.000   3.364
28998W        W88435  21.589  28.967   1.875
28999W        W88436  23.160  40.815   3.228
29000W        W88437  27.144   6.769   2.385
29001W        W88438  29.516  33.112   0.399
29002W        W88439   7.390  14.210  13.798
29003W        W88440  41.834  12.651   3.652
29004W        W88441  40.872  39.824   0.405
29005W        W88442  41.042  44.440   3.748
29006W        W88443  30.108  39.874  13.492
29007W        W88444   9.783   6.233  13.420
29008W        W88445  32.482  34.996   4.244
29009W        W88446  39.945  18.576   3.333
29010W        W88447  24.000  15.633  14.858
29011W        W88448  39.360  17.748  10.908
29012W        W88449  30.443  15.328   3.827
29013W        W88450  21.528  40.340   9.990
29014W        W88451  13.257   1.762  13.406
29015W        W88452  28.648  41.924  14.901
29016W        W88453  41.979  17.564  10.550
29017W        W88454  43.466  24.154   4.597
29018W        W88455   0.375  41.443   3.821
29019W        W88456  29.974  20.154   3.649
29020W        W88457  32.966  16.155  14.405
29021W        W88458  19.245  30.525   1.379
29022W        W88459  10.729  43.333   1.393
29023W        W88460  26.462  39.365  10.152
29024W        W88461  10.786   0.355  12.381
29025W        W88462  38.373   2.379   2.815
29026W        W88463  19.689  33.898  13.879
29027W        W88464  34.441  33.108  10.453
29028W        W88465  19.537  18.141   2.898
29029W        W88466  24.617  19.570   4.289
29030W        W88467  36.898  32.528   1.263
29031W        W88468  10.749  41.941  11.992
29032W        W88469   2.472   7.183  10.057
29033W        W88470  35.491  43.968   4.247
29034W        W88471  33.567  32.098   1.727
29035W        W88472  22.585  24.489   1.778
29036W        W88473  27.941   1.898  12.389
29037W        W88474  14.724  28.100   0.465
29038W        W88475  11.243  16.229   4.236
29039W        W88476  24.127  35.578   3.759
29040W        W88477   6.269  41.900  12.573
29041W        W88478  15.811  11.668  11.924
29042W        W88479  28.946  38.013   4.779
29043W        W88480  33.077  41.858  10.967
29044W        W88481  16.653   6.717   1.240
29045W        W88482  40.873  35.074  14.449
29046W        W88483  26.554   3.728  14.500
29047W        W88484  22.547  11.651   2.242
29048W        W88485  27.988  25.472  13.909
29049W        W88486  32.991   0.328  12.433
29050W        W88487  43.974  35.386  12.096
29051W        W88488  33.537  10.842   2.263
29052W        W88489  41.965   8.308   0.835
29053W        W88490  16.634  20.215   1.223
29054W        W88491  42.330  34.020  14.790
29055W        W88492  14.120  17.660   4.300
29056W        W88493  34.571  17.707  13.016
29057W        W88494  16.243   9.844  11.973
29058W        W88495  41.408  26.590  12.866
29059W        W88496  18.709  28.486   2.741
29060W        W88497  16.282  25.188   3.184
29061W        W88498  32.125   0.954  10.576
29062W        W88499   3.731  29.617   2.314
29063W        W88500  27.598  41.948   2.668
29064W        W88501   8.711  12.344  14.307
29065W        W88502  41.896   4.908   4.218
29066W        W88503   7.324  15.241   1.282
29067W        W88504  41.891  40.486  11.104
29068W        W88505  23.624  12.688  13.826
29069W        W88506  23.232  41.351  11.049
29070W        W88507   5.722  15.234  14.473
29071W        W88508  22.692  33.571   5.204
29072W        W88509  19.761  43.959  14.459
29073W        W88510  11.142  38.875   2.766
29074W        W88511  36.971  43.464   4.639
29075W        W88512  13.683  34.581   1.787
29076W        W88513  33.478  39.493  13.962
29077W        W88514   8.807   5.418   2.191
29078W        W88515   3.791   1.405  14.440
29079W        W88516  34.554  14.123   1.212
29080W        W88517  37.458  23.547  14.963
29081W        W88518  13.127  44.360  12.901
29082W        W88519  42.915   3.796   2.781
29083W        W88520   1.439   0.473   4.340
29084W        W88521  13.179  12.175   2.275
29085W        W88522   1.352   6.916  11.921
29086W        W88523  26.622  18.777   1.389
29087W        W88524  24.676   1.898   4.837
29088W        W88525  34.950  41.976   2.265
29089W        W88526  44.369  34.079   4.140
29090W        W88527  38.910   6.713  11.915
29091W        W88528  24.160  39.545  14.871
29092W        W88529  14.127  13.114  14.889
29093W        W88530  33.588  12.809   3.325
29094W        W88531   6.232  35.888   4.136
29095W        W88532  11.637  38.903  13.332
29096W        W88533   1.297  31.125  14.505
29097W        W88534  17.134  38.850   0.484
29098W        W88535  37.832  40.876   4.654
29099W        W88536  43.998  38.842  10.644
29100W        W88537  15.223   5.700   0.460
29101W        W88538   9.321  44.487  14.903
29102W        W88539  25.678  13.292  14.328
29103W        W88540   7.375  19.041   2.337
29104W        W88541  21.645  31.620  14.836
29105W        W88542  19.276  36.518   2.267
29106W        W88543  16.278  43.298  13.431
29107W        W88544   6.678  30.055  10.910
29108W        W88545  18.730   9.815   2.366
29109W        W88546  28.435  11.827   0.272
29110W        W88547  15.651  30.010   0.351
29111W        W88548  36.001  40.878  14.514
29112W        W88549  22.189  34.536   1.740
29113W        W88550   9.870   6.729   4.240
29114W        W88551  23.577  30.967  13.835
29115W        W88552  24.982  36.949   4.318
29116W        W88553  39.057   0.957   0.275
29117W        W88554   5.792  38.972   1.248
29118W        W88555  39.497  30.014  13.316
29119W        W88556  22.132   4.743   4.175
29120W        W88557  30.094  43.938  14.503
29121W        W88558  24.673  31.940   0.301
29122W        W88559  13.836   9.389  10.638
29123W        W88560  33.990  37.436   1.755
29124W        W88561  18.764  15.157  13.040
29125W        W88562  18.213  10.837  14.997
29126W        W88563  39.517  26.568   2.857
29127W        W88564  15.197   8.244   0.838
29128W        W88565  31.999  40.525   2.309
29129W        W88566   0.826  10.144   3.730
29130W        W88567  35.871  44.446   0.783
29131W        W88568  24.714  10.177   3.365
29132W        W88569  29.097  26.144   0.476
29133W        W88570  29.014  40.040  12.917
29134W        W88571  26.549   4.437   0.780
29135W        W88572  12.840  23.568   0.380
29136W        W88573  28.617  27.973  13.522
29137W        W88574  26.957   3.318   0.432
29138W        W88575  38.401   2.392   1.419
29139W        W88576  16.239  13.791   3.843
29140W        W88577  16.670  31.021   1.803
29141W        W88578   5.319  33.057  11.518
29142W        W88579  42.938  26.019   2.777
29143W        W88580   3.225  23.639  14.350
29144W        W88581   2.841  27.633   9.587
29145W        W88582  21.071  37.497  10.157
29146W        W88583  33.130   0.901  13.961
29147W        W88584   1.732  10.287  12.379
29148W        W88585  22.008  27.587  11.430
29149W        W88586   1.450   1.262  11.560
29150W        W88587  31.005  37.832  10.559
29151W        W88588  13.195  39.868  12.420
29152W        W88589  39.474  16.129  11.915
29153W        W88590  11.750  28.551   1.913
29154W        W88591  26.053   5.357  14.832
29155W        W88592  13.162  29.649   3.816
29156W        W88593  36.867   1.241  12.921
29157W        W88594   0.884   4.856   2.303
29158W        W88595  11.144  29.490  12.874
29159W        W88596   3.872   0.925  10.120
29160W        W88597  36.869  42.918  14.963
29161W        W88598  25.634  16.079  12.063
29162W        W88599  30.983  35.088   4.762
29163W        W88600  22.700  13.747  12.438
29164W        W88601  12.634  25.638  13.545
29165W        W88602  38.929   7.721   0.476
29166W        W88603  29.170  29.602   4.827
29167W        W88604  14.256  41.038  10.099
29168W        W88605  16.592  43.004  10.499
29169W        W88606  11.652  11.811  10.623
29170W        W88607  27.951  28.450  12.397
29171W        W88608  37.845  10.879  14.991
29172W        W88609  39.057  21.579  13.370
29173W        W88610  12.185   9.342   3.754
29174W        W88611  14.660  15.659  11.481
29175W        W88612   4.382  30.508   3.238
29176W        W88613  38.567  18.278   2.321
29177W        W88614  35.463   5.713   0.471
29178W        W88615  16.302  10.382  11.893
29179W        W88616  11.711  40.996  11.959
29180W        W88617  40.933   8.861   3.305
29181W        W88618  23.101  40.339   0.773
29182W        W88619  10.202  42.409  12.363
29183W        W88620  33.567  40.845  11.942
29184W        W88621  42.029  18.117  10.577
29185W        W88622   3.874  17.659  12.982
29186W        W88623  41.420  44.896   0.325
29187W        W88624  27.063  26.992   1.314
29188W        W88625  23.986   7.866  14.879
29189W        W88626   8.179  11.628   3.199
29190W        W88627  44.275  13.337   0.772
29191W        W88628   1.265  39.050  14.395
29192W        W88629  29.926   0.902  14.422
29193W        W88630  37.917  41.041   1.365
29194W        W88631   5.380  41.422  14.934
29195W        W88632  38.568   0.473   4.167
29196W        W88633  23.620  17.143   4.751
29197W        W88634  13.137   9.270  11.068
29198W        W88635  37.511  12.673   0.902
29199W        W88636  33.947   9.357   2.242
29200W        W88637  31.944  16.118   2.899
29201W        W88638  24.124  18.558  10.642
29202W        W88639   4.862  32.445   2.349
29203W        W88640   8.387   6.353   1.235
29204W        W88641  33.472  40.411   2.705
29205W        W88642  11.356  31.557  11.984
29206W        W88643  21.628  39.529   1.722
29207W        W88644  18.655  18.770   1.768
29208W        W88645  39.529  43.454   2.232
29209W        W88646   1.237   5.778   2.819
29210W        W88647  30.561  13.330  11.532
29211W        W88648  44.814   0.311  12.366
29212W        W88649   3.424  12.799   0.752
29213W        W88650   6.795   1.734  12.006
29214W        W88651  28.072  43.999   2.744
29215W        W88652   2.912  24.162   0.828
29216W        W88653  10.693   8.692   1.823
29217W        W88654  28.540  28.588  14.475
29218W        W88655   8.806  27.956   4.740
29219W        W88656  38.958   7.863   1.277
29220W        W88657  27.688   9.164   4.287
29221W        W88658  34.964   4.331  12.832
29222W        W88659  10.780  12.317  14.941
29223W        W88660  38.373  34.931   3.223
29224W        W88661   1.464  10.855   5.096
29225W        W88662   5.388  24.493  10.083
29226W        W88663   5.423  15.226   9.451
29227W        W88664   9.328  36.037   3.762
29228W        W88665  15.175  17.131   4.305
29229W        W88666  15.650  36.360  11.999
29230W        W88667  17.583  38.924   1.909
29231W        W88668  13.250  27.530  10.617
29232W        W88669   3.254   1.363  13.425
29233W        W88670  15.823   7.798   2.382
29234W        W88671  31.562  32.981  12.495
29235W        W88672  18.740  29.648   0.830
29236W        W88673  12.753  38.929  12.407
29237W        W88674  36.531  32.497   3.231
29238W        W88675  16.103  33.457  12.418
29239W        W88676  11.154  33.988   0.830
29240W        W88677  20.197  10.341   4.171
29241W        W88678  26.696  13.685  13.346
29242W        W88679   7.234  38.958  13.030
29243W        W88680  15.606  31.644   3.284
29244W        W88681  37.971  21.630   3.660
29245W        W88682  30.139  27.543   4.712
29246W        W88683   4.809  20.258   4.181
29247W        W88684  27.593  21.225  13.972
29248W        W88685  13.161   0.938   3.655
29249W        W88686   7.667  42.955   1.824
29250W        W88687  30.090   2.300   0.265
29251W        W88688  23.491  21.090  12.928
29252W        W88689  41.415  29.173   2.228
29253W        W88690  41.295   3.240  14.833
29254W        W88691  27.651  40.885   0.323
29255W        W88692  15.173   6.366   3.689
29256W        W88693  24.698  44.957  13.308
29257W        W88694   4.823  36.059  14.865
29258W        W88695  44.784  13.827   0.294
29259W        W88696  10.636  38.542   4.230
29260W        W88697  42.469   1.968   3.166
29261W        W88698   9.329  35.404  11.973
29262W        W88699  41.795  20.600  14.330
29263W        W88700  19.123  11.791  13.925
29264W        W88701  30.026  22.202   5.642
29265W        W88702  23.559  26.120  11.524
29266W        W88703  24.671  42.482  11.098
29267W        W88704  16.208  31.128   2.414
29268W        W88705  20.153  32.969   0.843
29269W        W88706  32.907  37.895  10.526
29270W        W88707   9.668  25.213  11.407
29271W        W88708  21.103   3.229  12.562
29272W        W88709  41.982  13.734  14.379
29273W        W88710  17.133  20.249  10.615
29274W        W88711  34.954  42.010  12.047
29275W        W88712   5.254  40.376  12.554
29276W        W88713   2.726  42.360  12.910
29277W        W88714  38.431   0.949  11.900
29278W        W88715  24.072  32.423   3.304
29279W        W88716  11.193  29.499  13.805
29280W        W88717  38.480  37.360   4.606
29281W        W88718  43.767  25.199  10.596
29282W        W88719  17.735   7.212  14.887
29283W        W88720  11.176   8.329   1.707
29284W        W88721   7.860  44.470  10.047
29285W        W88722  25.010   3.303  10.585
29286W        W88723   9.772  28.186   3.756
29287W        W88724  13.662  20.096   2.338
29288W        W88725  28.041  43.883  11.430
29289W        W88726  14.822  10.737   0.937
29290W        W88727   5.322   9.730   3.385
29291W        W88728  18.601  43.781   0.764
29292W        W88729  27.470  39.992  12.041
29293W        W88730  29.484  18.107  10.522
29294W        W88731   7.199  24.220  12.427
29295W        W88732   4.891   0.342  11.927
29296W        W88733  33.028  39.366  14.497
29297W        W88734  40.979   1.367   2.230
29298W        W88735   9.754  17.139   4.771
29299W        W88736  11.293  22.148  14.886
29300W        W88737  14.330  14.618  12.524
29301W        W88738  14.103  35.509   3.326
29302W        W88739   5.317  24.025   3.769
29303W        W88740  39.061  38.820   3.320
29304W        W88741   7.336  10.362   1.376
29305W        W88742  33.959  39.441   3.867
29306W        W88743  29.514  27.554   4.319
29307W        W88744  23.200  27.666  13.994
29308W        W88745  27.459  20.193   1.433
29309W        W88746  20.049   7.731   1.242
29310W        W88747  42.460   0.890   4.766
29311W        W88748  19.683  34.451   3.251
29312W        W88749  31.544  24.713   0.858
29313W        W88750  44.758  42.399  10.539
29314W        W88751  23.178  28.086   0.921
29315W        W88752  14.209   1.335   0.809
29316W        W88753  43.946  23.191   0.422
29317W        W88754  37.950   8.891   1.762
29318W        W88755  35.013  42.498   1.932
29319W        W88756  43.450  35.051   0.801
29320W        W88757  40.011  10.682   3.647
29321W        W88758   0.269  19.762  10.580
29322W        W88759  24.544  35.365  10.551
29323W        W88760  41.931   1.275  10.563
29324W        W88761  22.040  29.660   4.709
29325W        W88762  20.661   0.387   1.286
29326W        W88763  14.779   2.319  13.452
29327W        W88764   5.291  39.347   1.759
29328W        W88765  26.567  18.551   3.828
29329W        W88766  21.749  28.479   4.795
29330W        W88767  38.945  40.823   0.918
29331W        W88768  43.996  41.485   0.771
29332W        W88769   4.899  37.341   0.801
29333W        W88770  37.015  32.428   3.225
29334W        W88771  14.631  26.165   2.197
29335W        W88772   6.702   8.706  10.952
29336W        W88773  26.552   9.664  11.892
29337W        W88774   6.800  41.003   4.189
29338W        W88775  18.716  28.655   0.355
29339W        W88776  34.117  32.084   2.381
29340W        W88777   5.705   7.744  12.431
29341W        W88778  43.782  15.661   2.251
29342W        W88779  16.179  15.123   1.350
29343W        W88780  23.591  35.367   0.395
29344W        W88781   1.415  11.687  11.538
29345W        W88782  33.624  44.919  13.009
29346W        W88783   0.316  39.379   2.340
29347W        W88784  17.799  22.065  11.591
29348W        W88785  18.657  34.868  13.518
29349W        W88786   6.841  22.733  13.518
29350W        W88787  32.028  30.060  11.955
29351W        W88788   8.259   6.828   1.726
29352W        W88789  22.547   2.728  10.940
29353W        W88790   5.792  27.096  11.101
29354W        W88791  10.778  43.990  13.043
29355W        W88792  25.978   5.932   1.426
29356W        W88793  15.285  11.789  14.323
29357W        W88794   9.729  31.976  11.583
29358W        W88795  11.202   1.797   4.710
29359W        W88796  38.534  42.463  12.488
29360W        W88797   8.199   8.867  12.913
29361W        W88798  44.441  40.533   2.790
29362W        W88799  25.632  33.891  11.858
29363W        W88800   6.407   1.871   4.684
29364W        W88801   6.859   3.444  13.400
29365W        W88802  22.681  30.417  11.548
29366W        W88803  25.546   2.882  11.396
29367W        W88804  36.525   8.725   2.322
29368W        W88805  12.126  21.218   3.672
29369W        W88806  34.897  43.999   3.339
29370W        W88807   4.922   9.825   4.747
29371W        W88808  13.687  36.021   2.894
29372W        W88809  32.493  37.480  14.349
29373W        W88810  16.281   2.835   3.373
29374W        W88811  15.188  21.619  13.982
29375W        W88812  38.413  11.351   4.748
29376W        W88813   5.310  37.932   3.734
29377W        W88814  22.648  19.608   1.233
29378W        W88815  40.334  33.101  10.607
29379W        W88816  35.362  13.132   0.850
29380W        W88817  15.237  19.572  13.827
29381W        W88818   7.312  32.917  12.853
29382W        W88819  20.613   9.829   0.835
29383W        W88820  44.398  29.014  11.526
29384W        W88821  41.339  35.097  11.897
29385W        W88822  36.578   3.402  14.853
29386W        W88823   4.309  42.416  12.427
29387W        W88824  25.183   4.848  12.490
29388W        W88825  14.110  27.950   2.725
29389W        W88826  15.188  31.407   0.909
29390W        W88827   1.370  25.692   4.750
29391W        W88828  27.044  33.017   1.753
29392W        W88829   9.157  38.508  10.556
29393W        W88830  27.135  11.848   2.261
29394W        W88831  31.465  39.503   2.349
29395W        W88832  10.767  23.659   1.696
29396W        W88833  10.639  15.110  10.563
29397W        W88834  31.495  31.141  14.981
29398W        W88835  36.955  20.075   3.286
29399W        W88836  34.449   3.757  13.854
29400W        W88837  15.617  35.456   2.812
29401W        W88838  14.106   1.830   0.909
29402W        W88839  32.489  16.598  12.032
29403W        W88840   4.290  13.780   1.429
29404W        W88841  19.752  38.057   4.263
29405W        W88842  25.064  20.535   4.619
29406W        W88843  22.623  42.928  13.025
29407W        W88844  42.869   7.303   1.405
29408W        W88845  18.295  32.615  14.405
29409W        W88846   5.901  27.002  11.997
29410W        W88847  30.417  37.830  14.814
29411W        W88848  44.848  19.086  12.018
29412W        W88849  13.265   9.343  13.815
29413W        W88850   8.875  31.594  10.896
29414W        W88851  44.762  24.493  14.493
29415W        W88852  18.682  25.680  14.278
29416W        W88853   0.331  27.049   2.866
29417W        W88854  21.251   8.679   4.293
29418W        W88855  27.592   5.388  12.385
29419W        W88856  22.035   5.333   4.796
29420W        W88857   3.929   8.186  11.501
29421W        W88858  22.705  32.117   1.749
29422W        W88859   0.833  36.468  14.951
29423W        W88860  37.968  15.795   4.646
29424W        W88861  30.108   1.314  11.510
29425W        W88862  26.162  19.681   1.406
29426W        W88863  28.619  35.982  12.084
29427W        W88864  13.139  44.858  11.466
29428W        W88865  24.193  34.023  11.393
29429W        W88866  34.052  30.054   1.263
29430W        W88867   8.306  29.980   0.873
29431W        W88868  28.476   4.231   1.883
29432W        W88869  27.445  10.639  14.356
29433W        W88870  42.322  15.260  14.483
29434W        W88871  25.678  21.742   9.563
29435W        W88872  41.897  23.181   4.608
29436W        W88873  10.800  16.731   2.245
29437W        W88874  30.630   5.751   1.825
29438W        W88875  31.454  27.486   3.736
29439W        W88876  28.633  39.000  13.044
29440W        W88877  34.452  22.626  10.026
29441W        W88878  41.371  44.455  14.954
29442W        W88879  41.379  11.326  11.429
29443W        W88880   2.432  27.048  10.446
29444W        W88881  11.364  19.678  11.605
29445W        W88882  37.449   7.395  12.911
29446W        W88883  29.597   6.778   0.343
29447W        W88884  34.932   5.864   0.288
29448W        W88885  36.389  32.086  11.117
29449W        W88886  17.193   3.404   4.293
29450W        W88887  22.545  18.651  14.779
29451W        W88888  10.808  42.424  14.443
29452W        W88889  16.166  24.015   4.144
29453W        W88890  29.168  42.333   3.343
29454W        W88891  44.460  24.136  11.887
29455W        W88892   0.750  35.431  11.558
29456W        W88893  32.090   5.837  14.432
29457W        W88894  31.923   1.333  11.083
29458W        W88895  27.504   2.265  12.457
29459W        W88896  17.197   2.893  12.082
29460W        W88897  15.604  18.575   5.704
29461W        W88898  43.326  27.604  10.434
29462W        W88899  12.855  16.148   0.383
29463W        W88900   3.261   7.878  13.404
29464W        W88901  29.503  38.832   4.217
29465W        W88902  20.659   6.721   3.178
29466W        W88903  40.394  26.510  11.932
29467W        W88904   6.247  23.589  14.392
29468W        W88905  39.470  23.054  11.441
29469W        W88906  35.870  44.900   4.608
29470W        W88907  42.933  30.935   1.873
29471W        W88908  32.139  24.088  14.019
29472W        W88909  25.211  23.102  13.338
29473W        W88910  35.594  26.598   0.321
29474W        W88911  43.813  24.116   2.291
29475W        W88912   5.919   5.201  14.865
29476W        W88913   2.749  36.951   1.426
29477W        W88914  13.752  18.101  11.885
29478W        W88915  26.101  39.842   5.738
29479W        W88916  38.456  30.444  12.381
29480W        W88917  41.390   5.380   0.765
29481W        W88918   1.951  18.161  13.345
29482W        W88919  35.022  24.707   5.152
29483W        W88920  27.533   9.829  11.061
29484W        W88921  38.948  22.221   2.370
29485W        W88922  32.041   6.373  12.931
29486W        W88923  19.269  21.197   2.263
29487W        W88924  42.484   3.883  12.875
29488W        W88925  20.051  43.889  10.916
29489W        W88926  19.559  39.874  11.526
29490W        W88927  36.355  35.469  13.459
29491W        W88928   2.352   1.946  11.085
29492W        W88929   8.192  20.239  12.910
29493W        W88930   5.701  39.369   4.616
29494W        W88931  39.900  41.911   3.236
29495W        W88932  28.580  32.616  12.346
29496W        W88933  41.435   9.716  12.887
29497W        W88934  35.071  31.622  11.438
29498W        W88935  25.528  31.923   5.288
29499W        W88936   7.371  15.098  10.453
29500W        W88937   2.789   1.811   1.900
29501W        W88938  10.278  16.243   1.361
29502W        W88939  25.087   5.788   2.407
29503W        W88940  13.731   8.851  12.027
29504W        W88941  41.390  37.502  10.913
29505W        W88942  16.797  12.612   2.274
29506W        W88943  12.315  43.384   2.257
29507W        W88944   6.407  10.230   1.362
29508W        W88945  22.649  26.969   2.262
29509W        W88946  22.714   7.671  14.380
29510W        W88947  42.876  30.019  13.027
29511W        W88948   7.174  14.779  10.622
29512W        W88949  42.454  33.541   4.234
29513W        W88950  32.059  37.974  12.976
29514W        W88951   2.916  43.907  11.876
29515W        W88952  19.273   9.287  11.520
29516W        W88953  26.145  43.389   0.863
29517W        W88954   8.709  10.242   1.848
29518W        W88955  17.089  11.171  13.903
29519W        W88956   0.942  12.329   0.361
29520W        W88957  28.166  13.792   4.663
29521W        W88958  15.782  44.267  13.468
29522W        W88959  22.218   3.220  11.533
29523W        W88960  30.158  10.187  13.051
29524W        W88961  11.236  36.908   0.348
29525W        W88962   7.250  36.539   3.656
29526W        W88963   8.657  41.816  11.941
29527W        W88964   5.801  15.289   1.741
29528W        W88965  23.984  18.693   4.768
29529W        W88966  25.172  18.119   4.176
29530W        W88967  28.184  24.229   9.972
29531W        W88968  13.166  17.799  11.008
29532W        W88969  10.712  37.929   4.705
29533W        W88970  39.036  41.381   1.373
29534W        W88971  30.948  21.170  13.803
29535W        W88972   8.310   4.731  11.919
29536W        W88973  26.062  32.093  13.940
29537W        W88974  17.656  40.932   1.811
29538W        W88975   8.300  18.165  12.824
29539W        W88976  44.998   7.225  11.069
29540W        W88977  13.133  19.087   1.285
29541W        W88978   9.793  33.606   2.895
29542W        W88979  11.721  35.474   0.407
29543W        W88980  22.027  18.062   4.680
29544W        W88981  36.056  37.409   4.697
29545W        W88982  42.484   8.866  14.797
29546W        W88983   4.940   7.175   2.369
29547W        W88984   9.870  33.413   1.896
29548W        W88985   7.669  31.416  13.840
29549W        W88986  38.450  42.297   1.378
29550W        W88987  36.553  25.566   1.411
29551W        W88988   6.738  44.993   0.818
29552W        W88989  19.223  15.089   0.259
29553W        W88990   0.464  34.007   0.966
29554W        W88991  13.235  33.002  12.507
29555W        W88992  22.164  14.808   4.683
29556W        W88993   1.346  16.680  12.472
29557W        W88994  40.982   7.811  12.456
29558W        W88995   8.761  40.007   4.641
29559W        W88996  35.469  32.432  12.077
29560W        W88997  31.920  37.861  10.957
29561W        W88998  32.616  18.765   3.861
29562W        W88999  21.531  13.249  12.347
29563W        W89000   0.395  37.467   2.209
29564W        W89001  13.349   1.368   4.693
29565W        W89002   1.842  25.468  14.957
29566W        W89003  41.850  19.757   4.671
29567W        W89004  25.483  18.146  13.856
29568W        W89005   8.852  20.624   0.933
29569W        W89006  23.695   0.426   1.841
29570W        W89007  19.061  27.639   4.829
29571W        W89008  13.737  24.201  14.813
29572W        W89009  30.040  37.967   2.724
29573W        W89010  23.219   0.341   1.815
29574W        W89011   5.207  27.450   4.797
29575W        W89012  35.358  17.755  13.313
29576W        W89013  17.670  39.013   3.804
29577W        W89014   5.279  37.968   2.345
29578W        W89015  18.079   0.846   0.443
29579W        W89016   7.854   2.329  13.421
29580W        W89017  27.470   1.956  13.055
29581W        W89018  39.820  17.669  14.911
29582W        W89019  28.503   2.728   2.738
29583W        W89020  37.904  11.262   0.742
29584W        W89021  34.480  20.177   3.720
29585W        W89022  31.129   0.398   0.330
29586W        W89023  31.591   1.283  12.564
29587W        W89024   4.213  40.917   3.786
29588W        W89025  27.997   4.443  11.557
29589W        W89026  16.813  29.447  14.358
29590W        W89027  11.803  25.618  10.548
29591W        W89028  40.464  13.797  14.397
29592W        W89029  11.740   8.404   0.811
29593W        W89030  32.944  26.557  14.817
29594W        W89031  11.727   9.360  10.914
29595W        W89032  20.210  43.771   0.289
29596W        W89033  30.949  31.075  11.910
29597W        W89034  40.353  43.298  14.411
29598W        W89035  36.364  39.949   5.645
29599W        W89036  39.029  14.712  12.037
29600W        W89037  13.314  16.195   0.848
29601W        W89038  11.747  43.280   1.746
29602W        W89039  26.486  16.265  11.864
29603W        W89040  24.160  16.296   1.768
29604W        W89041   1.460   1.341  13.847
29605W        W89042  26.458  19.172  13.817
29606W        W89043   4.733  15.107   3.639
29607W        W89044  37.578  36.971  14.498
29608W        W89045   3.273   9.366   1.728
29609W        W89046  16.319  24.581  14.933
29610W        W89047   5.932  10.146  12.094
29611W        W89048  25.982  18.269   0.898
29612W        W89049  10.678  11.751   1.304
29613W        W89050  20.179  28.981   1.268
29614W        W89051   7.670  30.481  13.940
29615W        W89052  33.028   3.282   2.346
29616W        W89053  25.617   9.701  10.091
29617W        W89054   3.842   1.440  12.912
29618W        W89055  22.070  12.344  13.835
29619W        W89056  20.563  29.959  10.562
29620W        W89057  21.019   1.816   2.331
29621W        W89058  37.377  41.475   2.761
29622W        W89059  16.628  27.494   2.251
29623W        W89060  32.985  16.201   0.888
29624W        W89061  41.479  24.116   4.797
29625W        W89062  19.621   5.325  10.611
29626W        W89063   5.842  19.767  12.535
29627W        W89064  43.383  32.475  14.937
29628W        W89065   3.920  22.667   0.305
29629W        W89066  14.174  39.915  11.373
29630W        W89067  12.823  23.092   0.902
29631W        W89068  19.621  29.959  13.017
29632W        W89069  29.448   3.444  13.941
29633W        W89070   1.425  17.706  14.463
29634W        W89071  12.235  23.088  14.005
29635W        W89072  30.569  40.508  13.821
29636W        W89073  12.705  34.088   1.212
29637W        W89074   6.379  22.063  11.440
29638W        W89075   5.250  16.771   3.708
29639W        W89076  19.639  41.974  13.455
29640W        W89077  36.538   4.312  13.891
29641W        W89078  13.702  40.929  10.000
29642W        W89079  15.236   6.739  14.489
29643W        W89080  27.487  37.365   3.641
29644W        W89081  19.597  40.451  13.440
29645W        W89082  32.596   7.736  12.346
29646W        W89083  11.269  30.458  14.331
29647W        W89084  32.451  35.362   2.681
29648W        W89085  40.911  42.904  11.518
29649W        W89086  31.150  18.135  14.477
29650W        W89087  22.533  34.506   2.672
29651W        W89088  29.966   4.837  12.827
29652W        W89089  35.053   1.872  12.042
29653W        W89090  19.623  42.369   0.307
29654W        W89091   9.878  43.875   0.738
29655W        W89092  35.565  17.263   1.895
29656W        W89093  11.368  22.225   0.244
29657W        W89094   2.776   0.748  14.894
29658W        W89095   4.902  41.031  11.484
29659W        W89096  35.935  22.026  13.948
29660W        W89097  29.547  16.191   4.295
29661W        W89098   0.462   5.732   0.774
29662W        W89099   4.870   8.883   1.261
29663W        W89100   1.250   6.213  13.969
29664W        W89101   2.802  44.292   1.856
29665W        W89102  11.141  15.733   2.261
29666W        W89103  13.799  27.049   2.728
29667W        W89104   0.434  21.129   1.278
29668W        W89105   9.275  25.673   2.840
29669W        W89106  16.111  35.449   0.904
29670W        W89107  18.631  39.997  11.552
29671W        W89108   6.677  44.345  12.388
29672W        W89109  28.529   3.258   2.807
29673W        W89110  30.630  27.639  10.598
29674W        W89111   4.314  41.418  14.829
29675W        W89112  24.991  25.092  13.535
29676W        W89113  18.192  39.469  10.557
29677W        W89114  15.802  28.033   3.775
29678W        W89115  44.766  18.058   4.827
29679W        W89116  37.843  39.027  12.426
29680W        W89117  22.521   1.773   9.923
29681W        W89118  23.031  19.706  10.071
29682W        W89119  15.187  26.511   0.382
29683W        W89120  43.348  14.122   3.294
29684W        W89121  22.692  28.472  12.512
29685W        W89122  38.947  35.994   1.812
29686W        W89123   9.749  25.651   0.414
29687W        W89124  31.627  26.644  14.020
29688W        W89125  35.490  23.217   1.234
29689W        W89126  36.006  32.976   2.362
29690W        W89127  16.703  14.704  14.935
29691W        W89128  19.535  44.294  14.391
29692W        W89129  12.802  21.737   3.249
29693W        W89130  36.072  31.071   2.182
29694W        W89131  11.754   3.295   0.752
29695W        W89132  40.012  11.218  11.068
29696W        W89133  16.200   0.353   2.874
29697W        W89134   5.741  33.550   1.748
29698W        W89135   9.209   9.771  11.960
29699W        W89136  41.813  43.018   3.718
29700W        W89137  27.116  20.168   4.646
29701W        W89138  22.626  13.299   0.251
29702W        W89139  10.665   3.774  14.023
29703W        W89140  41.873  21.156   0.383
29704W        W89141   2.246  34.508   0.941
29705W        W89142  15.799  36.072   1.286
29706W        W89143  37.884   5.305   4.316
29707W        W89144  30.469   1.308   0.460
29708W        W89145   3.244  14.772  14.432
29709W        W89146  26.508   8.267  11.500
29710W        W89147  32.527  24.600   3.367
29711W        W89148   7.804  11.151   0.417
29712W        W89149   3.275  21.018   3.689
29713W        W89150  32.988  33.886   1.733
29714W        W89151  33.082  10.193   3.751
29715W        W89152  23.123   7.904   1.413
29716W        W89153  41.983   7.696   0.382
29717W        W89154  22.071  32.435  11.982
29718W        W89155  13.321  21.181   5.187
29719W        W89156  33.519  11.320   3.256
29720W        W89157  25.121  41.900   0.468
29721W        W89158  22.579  18.188   1.748
29722W        W89159  35.595  33.959  14.868
29723W        W89160   4.250   7.307  11.956
29724W        W89161  12.149  37.858   2.349
29725W        W89162   7.210  36.350  12.052
29726W        W89163   4.391  14.618  14.968
29727W        W89164   0.488  39.337   3.766
29728W        W89165  29.093  12.674   4.783
29729W        W89166  13.220   1.334   3.224
29730W        W89167   9.325  33.022  14.498
29731W        W89168  12.668  34.442  10.577
29732W        W89169  43.781  24.099  14.854
29733W        W89170   3.274  10.295  10.444
29734W        W89171  32.470   2.754  14.900
29735W        W89172  27.002  25.975  12.072
29736W        W89173  11.145  35.983  11.941
29737W        W89174   0.494  26.484  12.058
29738W        W89175  10.357   6.768  14.504
29739W        W89176   8.691   9.828   0.828
29740W        W89177  19.098  32.084  13.505
29741W        W89178  36.026  39.553  13.354
29742W        W89179  19.572  30.920   1.807
29743W        W89180  35.913   9.651   4.617
29744W        W89181  17.064  33.517   0.280
29745W        W89182  36.947   6.698   2.337
29746W        W89183   1.826  27.017   4.830
29747W        W89184  40.508  43.860   3.856
29748W        W89185  14.278  26.035  12.873
29749W        W89186   0.336  31.548   2.682
29750W        W89187  44.807  10.782  14.502
29751W        W89188  26.136  17.284  12.560
29752W        W89189  26.494  18.626  10.893
29753W        W89190  27.611  14.596  14.455
29754W        W89191  34.612  43.903   3.757
29755W        W89192  36.018   8.713  14.936
29756W        W89193  13.613   9.364  11.056
29757W        W89194  28.539  33.952  13.436
29758W        W89195  18.643  43.892  13.311
29759W        W89196   1.929  17.269   4.177
29760W        W89197  36.001   4.392  11.886
29761W        W89198  22.596   6.206   4.345
29762W        W89199  32.948   9.284   4.142
29763W        W89200  30.475  25.569  13.793
29764W        W89201   9.704   0.411  11.076
29765W        W89202  20.194  23.732  14.915
29766W        W89203   7.874  18.178   2.378
29767W        W89204   6.387   2.283   0.371
29768W        W89205   8.768   4.279  12.409
29769W        W89206   0.855  32.527  11.519
29770W        W89207   1.742  41.986  11.127
29771W        W89208  38.340  22.236   0.778
29772W        W89209   6.862  36.382  14.455
29773W        W89210  26.689  23.091   4.607
29774W        W89211  25.478  39.974  14.299
29775W        W89212  43.328  28.008  10.535
29776W        W89213  23.034  34.028  11.957
29777W        W89214  38.033  12.141  14.022
29778W        W89215  15.225  12.196  13.485
29779W        W89216  14.221  33.446   1.296
29780W        W89217  11.138  30.550   1.825
29781W        W89218  21.515  41.907   1.853
29782W        W89219  26.011  17.598   1.398
29783W        W89220  28.590  11.627   4.641
29784W        W89221   6.220  19.235  13.857
29785W        W89222  42.493  20.182   3.274
29786W        W89223   7.747  42.789   4.196
29787W        W89224  28.563  32.011   4.633
29788W        W89225  13.762  36.503   2.817
29789W        W89226  37.054  19.632  11.606
29790W        W89227  10.876   1.897   0.343
29791W        W89228  32.955  10.699  13.424
29792W        W89229  12.362  41.371   4.220
29793W        W89230  24.096  42.488   3.841
29794W        W89231  41.988  38.908  13.829
29795W        W89232  32.609   1.731   3.704
29796W        W89233  45.000   1.365   0.423
29797W        W89234   7.871  20.028  10.486
29798W        W89235   1.291  14.259  13.795
29799W        W89236   3.714  17.800  14.857
29800W        W89237  16.774  14.122  13.341
29801W        W89238  36.421  13.328   1.924
29802W        W89239  23.645  28.980  14.372
29803W        W89240  11.233  38.928   2.304
29804W        W89241  44.974  38.996   2.300
29805W        W89242  14.723  32.630   3.726
29806W        W89243  23.673  13.318  11.592
29807W        W89244  20.184  28.552  11.981
29808W        W89245  24.607  37.027   4.707
29809W        W89246  32.455  26.457   3.159
29810W        W89247  23.004  21.263   4.309
29811W        W89248  17.063  11.668   1.212
29812W        W89249   1.370   1.298   4.330
29813W        W89250   0.358  22.109  12.349
29814W        W89251  13.676  37.863  14.898
29815W        W89252  17.643  44.893   0.776
29816W        W89253  18.169  31.129   0.383
29817W        W89254  15.314  40.994   5.238
29818W        W89255  24.096  44.486   2.290
29819W        W89256  10.879  34.101  12.391
29820W        W89257  37.846   3.781  10.965
29821W        W89258  39.558  38.419  12.558
29822W        W89259  12.782   2.760   0.336
29823W        W89260   5.812  20.651  12.571
29824W        W89261   7.230   3.407   3.851
29825W        W89262  18.736   4.223  14.975
29826W        W89263  31.120   5.729  13.435
29827W        W89264  12.805  36.896  10.926
29828W        W89265  10.730  17.096  13.893
29829W        W89266  10.711  40.390   4.187
29830W        W89267  21.230  10.800  14.514
29831W        W89268   4.862  12.815   0.948
29832W        W89269  17.206  14.218  14.914
29833W        W89270  21.758  42.509  11.909
29834W        W89271  18.665  14.336  13.486
29835W        W89272  35.488  15.267   1.742
29836W        W89273   0.910  31.005   4.674
29837W        W89274  21.643   9.689  12.368
29838W        W89275   9.149  14.758   4.618
29839W        W89276  11.769  39.890  12.045
29840W        W89277  23.187   0.916  13.863
29841W        W89278   1.359  12.849  13.467
29842W        W89279   9.645  35.463   2.303
29843W        W89280  10.773  19.727  10.959
29844W        W89281   1.305   5.922   3.783
29845W        W89282  40.453   1.341   0.872
29846W        W89283  11.766   2.836   0.959
29847W        W89284  10.829  16.771  13.925
29848W        W89285  21.641  36.930  10.601
29849W        W89286  42.026   3.718   2.361
29850W        W89287  27.115  36.427   1.403
29851W        W89288  44.307   7.321   3.240
29852W        W89289   3.461   8.676  11.486
29853W        W89290  42.925  10.174   4.603
29854W        W89291  43.007  31.955   3.724
29855W        W89292  38.046  34.387  12.545
29856W        W89293  35.589  43.932   4.626
29857W        W89294   4.254  13.165   2.300
29858W        W89295   2.929  23.693  10.639
29859W        W89296   3.868  28.598  14.830
29860W        W89297  24.524   7.230   1.745
29861W        W89298  23.122  25.518   2.858
29862W        W89299  15.101  11.795   4.699
29863W        W89300   8.184  35.528   1.880
29864W        W89301  29.152  43.343   3.278
29865W        W89302  20.671  43.339  10.937
29866W        W89303  14.746  21.027   4.237
29867W        W89304  40.917  41.458   4.318
29868W        W89305  43.765   6.380  10.972
29869W        W89306  44.908   0.372   3.834
29870W        W89307  36.908   9.835   4.291
29871W        W89308  14.828   2.249  12.992
29872W        W89309  15.719  17.688  12.852
29873W        W89310  28.521  30.054  14.456
29874W        W89311  42.853   0.272   0.323
29875W        W89312  25.060  25.484  13.545
29876W        W89313  23.642   2.749  13.942
29877W        W89314  25.708  22.015  11.397
29878W        W89315  15.654  23.113   3.740
29879W        W89316  11.333  15.165   4.618
29880W        W89317  22.700  23.727   4.146
29881W        W89318  27.989   2.364   0.791
29882W        W89319  28.444   2.273  12.938
29883W        W89320  26.549  23.141   3.352
29884W        W89321  14.595   5.435   3.686
29885W        W89322   4.809   2.331  10.618
29886W        W89323   2.399   6.847   0.944
29887W        W89324  12.750  18.185   0.248
29888W        W89325  35.506  18.548   3.778
29889W        W89326  36.937  41.037   3.197
29890W        W89327  40.861  12.170   2.825
29891W        W89328  28.931  22.729  10.959
29892W        W89329  27.070  31.487  14.394
29893W        W89330  10.826  31.645  13.826
29894W        W89331  24.987  34.555   2.877
29895W        W89332  13.324  41.309   1.708
29896W        W89333  29.096  28.569  10.580
29897W        W89334  30.125   9.833   1.328
29898W        W89335  12.126  32.941   4.161
29899W        W89336  38.993   3.783  12.928
29900W        W89337  25.103  20.667   0.939
29901W        W89338   8.219  24.554  13.817
29902W        W89339   9.335  13.712   1.770
29903W        W89340  27.031  25.644  13.886
29904W        W89341  39.914   0.309  10.592
29905W        W89342  38.013  12.664   1.235
29906W        W89343  36.917   0.406  13.833
29907W        W89344  15.821  43.320  14.881
29908W        W89345  35.990  19.063  14.845
29909W        W89346  27.123  19.704   4.287
29910W        W89347  31.022  30.483   3.748
29911W        W89348  23.661   5.421  13.490
29912W        W89349  25.567  17.192  14.768
29913W        W89350  12.768  31.049  11.960
29914W        W89351  24.092  13.348  10.519
29915W        W89352  18.593  21.174   3.326
29916W        W89353  36.451  22.502   0.913
29917W        W89354  13.258  18.256  14.964
29918W        W89355  25.178   9.768  12.074
29919W        W89356  12.686   2.452   4.177
29920W        W89357  16.168  42.414  13.846
29921W        W89358  34.514  36.928  12.473
29922W        W89359  38.835  24.097   1.760
29923W        W89360   1.322  32.616  12.085
29924W        W89361   4.816   2.278   5.169
29925W        W89362  24.483   6.389  11.440
29926W        W89363  35.886   1.742  12.053
29927W        W89364  36.034  19.123  10.941
29928W        W89365   8.826  14.745  10.446
29929W        W89366  32.984   5.303   1.892
29930W        W89367  15.698  34.910   2.683
29931W        W89368  40.002  43.336   3.721
29932W        W89369   0.985  35.412   0.871
29933W        W89370   3.851  12.201   2.864
29934W        W89371  17.724  44.814   3.218
29935W        W89372  10.695   2.403   0.875
29936W        W89373   6.755  30.026  10.419
29937W        W89374   3.829  42.808  12.380
29938W        W89375  13.203  13.199   0.276
29939W        W89376   7.298  30.518   2.187
29940W        W89377  17.587  42.782  14.962
29941W        W89378   1.324   5.332  13.453
29942W        W89379  25.502   7.238  11.481
29943W        W89380  21.585  17.640  10.443
29944W        W89381  11.282  16.146  11.021
29945W        W89382  10.154  42.297   1.391
29946W        W89383  16.272  38.565  11.542
29947W        W89384   4.885  40.955   2.237
29948W        W89385  28.586  10.306  12.964
29949W        W89386   2.343  35.896  12.884
29950W        W89387  19.264   8.363   3.767
29951W        W89388  36.985  44.849   3.255
29952W        W89389  42.863  31.421  13.521
29953W        W89390  44.470  42.019   3.264
29954W        W89391  12.261   0.878   3.801
29955W        W89392  34.120  37.462   1.396
29956W        W89393   9.365  26.062   3.184
29957W        W89394   5.689  20.091  12.411
29958W        W89395  30.467  29.970  12.469
29959W        W89396  36.565  37.362   0.787
29960W        W89397  37.055   2.778   2.670
29961W        W89398  13.212   4.804   3.809
29962W        W89399  41.507  13.123   0.249
29963W        W89400  37.001  34.101   4.331
29964W        W89401  32.125  14.186   3.226
29965W        W89402  40.853  37.840  10.037
29966W        W89403  38.436  35.062  12.570
29967W        W89404  40.481  41.337   2.828
29968W        W89405  21.085  27.112  12.931
29969W        W89406  41.371  34.543  11.098
29970W        W89407  22.592  28.623   1.774
29971W        W89408  12.706  38.031   4.322
29972W        W89409  14.824   1.441   1.697
29973W        W89410   5.298  19.739  12.458
29974W        W89411  30.104  39.813   2.341
29975W        W89412   6.246  33.423   3.208
29976W        W89413  37.414  34.473   3.329
29977W        W89414  33.935  14.257   3.214
29978W        W89415  14.670  43.941   9.652
29979W        W89416   7.403  17.092   4.817
29980W        W89417  19.246  31.035   3.680
29981W        W89418  37.435   7.758  10.949
29982W        W89419  43.325  30.045  10.423
29983W        W89420  16.253  25.032   3.695
29984W        W89421  17.202  17.709   2.891
29985W        W89422  28.442  36.504   0.424
29986W        W89423  14.722  38.869   3.248
29987W        W89424  25.559  15.673   2.415
29988W        W89425  24.984   3.305   4.258
29989W        W89426  44.915  11.830  13.820
29990W        W89427  11.779  34.870  12.087
29991W        W89428  23.617  18.097  13.858
29992W        W89429  21.706  19.046  11.379
29993W        W89430  34.460  14.600   1.775
29994W        W89431  22.030  12.195  12.841
29995W        W89432  40.491  26.593  12.399
29996W        W89433  10.280  36.393  11.856
29997W        W89434  10.782   5.245   3.278
29998W        W89435  29.114  31.510  11.914
29999W        W89436  38.856  17.659  13.797
30000W        W89437  41.316  26.532   2.736
30001W        W89438  25.677  19.547   3.772
30002W        W89439  29.934   8.779  14.899
30003W        W89440   9.162  38.433   1.233
30004W        W89441  29.165  37.850   0.309
30005W        W89442  27.165   3.709   1.920
30006W        W89443   3.304  38.966  14.394
30007W        W89444   7.223  34.934   2.756
30008W        W89445  17.189  41.334   2.412
30009W        W89446  37.000   0.941   4.116
30010W        W89447  10.229  41.313   1.880
30011W        W89448  20.676  33.569  12.935
30012W        W89449  25.534  38.054   2.826
30013W        W89450   5.705  35.949  11.056
30014W        W89451  34.539  18.145   3.828
30015W        W89452  40.973  15.620   3.310
30016W        W89453   5.771  36.498   0.858
30017W        W89454   2.468  23.036   2.729
30018W        W89455  25.992  15.810   4.155
30019W        W89456  12.704  44.335  11.403
30020W        W89457   0.769  30.520   0.302
30021W        W89458   3.861  13.180  13.364
30022W        W89459  18.710  23.518  11.116
30023W        W89460   7.869   7.869  14.493
30024W        W89461  40.457  22.545  12.452
30025W        W89462  25.990  44.874   0.361
30026W        W89463  25.189   0.881  11.558
30027W        W89464  32.634   0.814  14.861
30028W        W89465  19.179  37.062  11.868
30029W        W89466  43.899   1.332  10.916
30030W        W89467  25.639  34.948   1.820
30031W        W89468  31.977  32.948  14.363
30032W        W89469   8.686  42.783   0.243
30033W        W89470   6.224  31.560   2.418
30034W        W89471  26.073  22.528   2.219
30035W        W89472  11.693   5.904  10.602
30036W        W89473  37.849  27.968   1.376
30037W        W89474  32.952  29.648   3.292
30038W        W89475  22.532   8.697   4.709
30039W        W89476  21.162  35.470   2.887
30040W        W89477  43.401  44.285   0.766
30041W        W89478  39.388  13.130   4.259
30042W        W89479  34.611  13.205   0.429
30043W        W89480  37.042  44.820  12.904
30044W        W89481   4.715   0.746  11.972
30045W        W89482  19.187  41.038   2.210
30046W        W89483  24.716  21.114   3.761
30047W        W89484  37.497   9.878  14.863
30048W        W89485   4.271  12.831   1.867
30049W        W89486  26.170  10.213  10.146
30050W        W89487   5.819  35.454  11.931
30051W        W89488  35.078  11.745  10.638
30052W        W89489  26.134  40.835  14.805
30053W        W89490  25.053  23.509   3.234
30054W        W89491  40.903  23.708  13.320
30055W        W89492  42.012  23.659   0.936
30056W        W89493  14.753   6.792  11.871
30057W        W89494  37.385  34.386   0.907
30058W        W89495   6.347  12.656  14.910
30059W        W89496  40.462  22.608   1.450
30060W        W89497  26.082   4.752   9.937
30061W        W89498  42.903  17.622  10.533
30062W        W89499  41.824  14.796  14.797
30063W        W89500  42.424   6.685   3.745
30064W        W89501  33.604  16.254  12.009
30065W        W89502  22.172  15.316  13.042
30066W        W89503  33.875  37.070   4.712
30067W        W89504  15.676  44.927   0.457
30068W        W89505  14.710  10.366   3.672
30069W        W89506   4.337  39.843   3.254
30070W        W89507  31.995  17.143   0.337
30071W        W89508  13.315  23.518  14.497
30072W        W89509  42.328   3.305   1.323
30073W        W89510  35.929  43.434  11.857
30074W        W89511  44.505  26.506   4.756
30075W        W89512  29.110  22.658  12.016
30076W        W89513  37.442  38.935  12.533
30077W        W89514   4.422  24.645  11.869
30078W        W89515  42.412   9.215   4.755
30079W        W89516  43.456  33.092   4.128
30080W        W89517  16.688  41.789   3.259
30081W        W89518  35.079   8.365  10.446
30082W        W89519  17.136  14.688  14.819
30083W        W89520  35.368   7.896  14.301
30084W        W89521  13.248   7.377   3.204
30085W        W89522  24.539  23.624   3.316
30086W        W89523  40.816  30.623   4.623
30087W        W89524  43.863  30.491  14.455
30088W        W89525   8.865  33.410   2.227
30089W        W89526  41.459  41.475  13.917
30090W        W89527  18.083  16.658  14.455
30091W        W89528   3.728  28.017  12.571
30092W        W89529  35.853  13.249  12.084
30093W        W89530  36.047  11.696  10.420
30094W        W89531  29.611  10.208  11.529
30095W        W89532  33.547  25.132   0.928
30096W        W89533   7.257  34.057  10.511
30097W        W89534  35.884  43.327   4.157
30098W        W89535  13.656   8.866   3.193
30099W        W89536   7.226   3.346  14.367
30100W        W89537   4.875   5.897   0.352
30101W        W89538  18.147  25.026   0.473
30102W        W89539  19.279  20.581  10.557
30103W        W89540  22.202   7.874  10.628
30104W        W89541  26.102  28.976   0.293
30105W        W89542  35.453  30.925  11.405
30106W        W89543   5.382   2.323  10.446
30107W        W89544  22.076   4.842   2.230
30108W        W89545  15.661  11.701  12.429
30109W        W89546  26.038  33.432  13.512
30110W        W89547  32.547   6.682   4.157
30111W        W89548   8.298  39.422   2.722
30112W        W89549  19.217  36.525   4.775
30113W        W89550  29.658  42.430  12.044
30114W        W89551  19.708  44.300   4.686
30115W        W89552   0.885  33.620  13.917
30116W        W89553  27.632   9.159  12.484
30117W        W89554   2.304  44.468   0.853
30118W        W89555  40.829  25.675   0.811
30119W        W89556  25.135   5.908   1.354
30120W        W89557  36.588   4.311  14.820
30121W        W89558  22.029   5.809  13.922
30122W        W89559  23.037  16.772   2.750
30123W        W89560  15.812  29.023   4.711
30124W        W89561  18.228  30.151  12.393
30125W        W89562  32.567   3.293   3.825
30126W        W89563  10.161  44.999  13.852
30127W        W89564  23.612  20.547  13.328
30128W        W89565   2.800  16.274  11.925
30129W        W89566  22.191  31.449   4.816
30130W        W89567  19.040  33.398   0.318
30131W        W89568  31.917   2.777   0.939
30132W        W89569  30.961  40.889  11.977
30133W        W89570  38.847  38.832  10.913
30134W        W89571  13.127  38.457   3.304
30135W        W89572   9.644  28.506   3.381
30136W        W89573  39.046  38.997   4.790
30137W        W89574  25.505  31.923   1.867
30138W        W89575  22.064  32.072   4.236
30139W        W89576  43.514  22.174  14.428
30140W        W89577   1.974  30.107   0.735
30141W        W89578  23.694  42.019   3.276
30142W        W89579   7.813  40.335   0.444
30143W        W89580   6.825  44.319  13.348
30144W        W89581  34.493  43.503  13.020
30145W        W89582   4.741  35.950   1.308
30146W        W89583  38.438  21.019  11.960
30147W        W89584  24.218   4.932   3.734
30148W        W89585  39.513  23.670   2.777
30149W        W89586  28.537  42.855  13.926
30150W        W89587  11.352  17.629   2.258
30151W        W89588  38.976   1.835   2.312
30152W        W89589  34.503  35.539  13.530
30153W        W89590  42.486   8.339   4.695
30154W        W89591   1.333  34.018   5.316
30155W        W89592   7.907   9.816  13.516
30156W        W89593   3.266  12.192  13.394
30157W        W89594  37.027  41.497  12.444
30158W        W89595  44.908  26.118  10.943
30159W        W89596  17.615  20.246   3.840
30160W        W89597  44.477  10.729   3.815
30161W        W89598  39.879   5.842  14.498
30162W        W89599  41.022  21.571   3.166
30163W        W89600  18.150  19.244   3.822
30164W        W89601  30.591  44.465   3.754
30165W        W89602  30.961  13.748   1.431
30166W        W89603  42.029   6.233  14.927
30167W        W89604  33.550  16.266   4.631
30168W        W89605  39.994  10.342  12.493
30169W        W89606  31.921  42.909  13.392
30170W        W89607   7.410   9.863   3.198
30171W        W89608   3.254  19.114   0.388
30172W        W89609  26.203  37.429  10.937
30173W        W89610  43.778  18.732   3.846
30174W        W89611  22.067  11.232   2.777
30175W        W89612  15.248  10.685   2.262
30176W        W89613  17.666  28.981  13.859
30177W        W89614  18.572  30.925   4.136
30178W        W89615  42.965  22.170   4.175
30179W        W89616  19.141  29.067   1.336
30180W        W89617  41.854  41.404  10.913
30181W        W89618  28.662  17.095  11.910
30182W        W89619  40.027  21.225   0.867
30183W        W89620   2.962  39.017  11.385
30184W        W89621  11.763  22.611   2.321
30185W        W89622  24.221   7.667  13.478
30186W        W89623  37.505  11.812   1.368
30187W        W89624   4.888  25.182  13.541
30188W        W89625  21.226  31.642   1.732
30189W        W89626  30.630  14.639   2.361
30190W        W89627  14.698  30.469   2.234
30191W        W89628  32.469   0.948   0.365
30192W        W89629  22.539  43.462  11.997
30193W        W89630  36.855   8.257   2.224
30194W        W89631  26.994  19.717  11.428
30195W        W89632  11.820  43.855   2.792
30196W        W89633  40.471  10.850  11.978
30197W        W89634  43.984  25.532   2.414
30198W        W89635  11.662  28.089   0.295
30199W        W89636  27.628  37.490  12.997
30200W        W89637  10.865   4.285   1.818
30201W        W89638  33.895  18.703   0.934
30202W        W89639  32.450  14.187  10.573
30203W        W89640   4.382  40.863  12.468
30204W        W89641  28.020  21.030  11.943
30205W        W89642   2.429  23.219   3.347
30206W        W89643  38.878   0.886   3.680
30207W        W89644  39.029  14.667  11.600
30208W        W89645   4.330  37.934   3.763
30209W        W89646  34.016  35.066  13.383
30210W        W89647  30.481  41.974  10.992
30211W        W89648  30.916   6.717   0.864
30212W        W89649  27.464  17.639   1.880
30213W        W89650  35.576  36.986  14.022
30214W        W89651  28.093   0.882  13.537
30215W        W89652  26.465  39.377  12.386
30216W        W89653  32.405  27.171  14.783
30217W        W89654  27.026   7.831   4.120
30218W        W89655  38.975  15.279   1.229
30219W        W89656  42.370  17.689   1.731
30220W        W89657  12.785  30.582   3.356
30221W        W89658   1.317  33.957  12.944
30222W        W89659   4.879   8.828  14.356
30223W        W89660  32.047  22.688  12.433
30224W        W89661  19.640  28.619  12.023
30225W        W89662  25.131  15.605   3.280
30226W        W89663  19.098  16.270   0.794
30227W        W89664  25.204   7.211  12.922
30228W        W89665   0.859  30.480   3.336
30229W        W89666   6.839  43.388  13.408
30230W        W89667   7.233  40.325   3.848
30231W        W89668  29.651  22.168   2.373
30232W        W89669  23.690  21.208   5.082
30233W        W89670   6.287  42.813   4.754
30234W        W89671  24.976  37.520  14.509
30235W        W89672   2.405  22.144   1.445
30236W        W89673   1.291  26.068  10.592
30237W        W89674  29.993  33.559  14.804
30238W        W89675   1.349  11.294   5.587
30239W        W89676  10.654  37.567   4.827
30240W        W89677   0.978   9.844  10.444
30241W        W89678  37.000  33.547  13.988
30242W        W89679  17.575  17.225   9.487
30243W        W89680  25.606  13.215  10.073
30244W        W89681  27.683   7.848  11.419
30245W        W89682  26.029  10.845  11.941
30246W        W89683  32.990  27.036   2.210
30247W        W89684  21.540  35.502   2.817
30248W        W89685  10.286  24.656  12.921
30249W        W89686  20.189   9.257  12.881
30250W        W89687  40.424  38.547   3.710
30251W        W89688   3.953  40.355   2.890
30252W        W89689   0.435  43.897  13.391
30253W        W89690  39.882  32.475   0.793
30254W        W89691  12.629  28.611   3.646
30255W        W89692  26.548  30.009   3.696
30256W        W89693  25.701  35.879  11.463
30257W        W89694  35.464  33.998   3.773
30258W        W89695  28.489  43.296  13.894
30259W        W89696  14.634  37.527   2.684
30260W        W89697  37.375  33.579  10.577
30261W        W89698   9.173  31.114   2.218
30262W        W89699   8.727  15.807   0.421
30263W        W89700  12.723  40.322  10.005
30264W        W89701  43.471  19.598  14.775
30265W        W89702  20.118  12.814   3.209
30266W        W89703   9.235  37.375   3.323
30267W        W89704  17.675  10.373  12.023
30268W        W89705   2.959  27.145   3.758
30269W        W89706   6.695   9.289  12.036
30270W        W89707  41.981  11.355   3.841
30271W        W89708  37.416  32.557  12.910
30272W        W89709   0.424   3.339   2.349
30273W        W89710   1.865  38.387   2.216
30274W        W89711  34.387   8.672  11.401
30275W        W89712  28.494  32.059  13.930
30276W        W89713  35.470   3.233   0.314
30277W        W89714   1.405  27.012  13.430
30278W        W89715  13.822  12.244   1.250
30279W        W89716  40.931  23.987  13.347
30280W        W89717   9.215  22.017   3.696
30281W        W89718   2.965  37.346  12.495
30282W        W89719  27.128  37.508   1.238
30283W        W89720  24.228  35.088  11.989
30284W        W89721  28.023  41.966  12.867
30285W        W89722  17.119  18.248   2.869
30286W        W89723  18.690  39.478   3.667
30287W        W89724   5.228  24.008   4.752
30288W        W89725   8.746  30.124   1.318
30289W        W89726   9.376  34.965   2.194
30290W        W89727  37.491  18.585   5.227
30291W        W89728   5.296  40.547  10.112
30292W        W89729   4.360  17.141   3.658
30293W        W89730  24.646  40.481   0.773
30294W        W89731  19.070  22.210   2.901
30295W        W89732  23.705  20.673   0.391
30296W        W89733  24.689   1.935  11.017
30297W        W89734  29.464  21.551   3.216
30298W        W89735  31.427   8.889   4.153
30299W        W89736  44.989  21.580   1.715
30300W        W89737   7.718  10.250   2.381
30301W        W89738   5.794  27.099   2.752
30302W        W89739  22.712  40.046  10.991
30303W        W89740  44.319  15.314   1.245
30304W        W89741  24.596  40.930  11.505
30305W        W89742   8.335   5.258   4.143
30306W        W89743  18.251  21.624   4.233
30307W        W89744  16.586  37.984   3.736
30308W        W89745   2.847   8.767   4.257
30309W        W89746  20.741  35.560  14.377
30310W        W89747   1.413  40.513  12.902
30311W        W89748  26.633  31.636  14.809
30312W        W89749  23.202  43.387  13.417
30313W        W89750  43.511  15.160  14.355
30314W        W89751  43.822  19.590   2.753
30315W        W89752  44.355   4.317   3.278
30316W        W89753  18.654  34.048  10.407
30317W        W89754  33.986  36.589  11.461
30318W        W89755   7.331  35.012  10.410
30319W        W89756  30.013  25.482   4.202
30320W        W89757  33.585  41.466   3.775
30321W        W89758  44.298  17.565  13.059
30322W        W89759  18.604  20.579  12.866
30323W        W89760  42.008  28.113   2.195
30324W        W89761  42.831  36.354  12.525
30325W        W89762  34.539  36.542  11.572
30326W        W89763  27.476  24.204   2.773
30327W        W89764  41.864   1.264  11.555
30328W        W89765  28.629  25.643  13.906
30329W        W89766  34.505  44.925  12.037
30330W        W89767  31.046  37.577   1.242
30331W        W89768  18.759  26.467   0.267
30332W        W89769  19.093  43.825   3.642
30333W        W89770   8.178  30.004   4.130
30334W        W89771  12.821   1.309   2.215
30335W        W89772  15.154  18.620   2.382
30336W        W89773  19.253  40.541   1.813
30337W        W89774   8.203   8.825   5.177
30338W        W89775  13.320   8.307   0.833
30339W        W89776  26.177   7.826  11.912
30340W        W89777  15.190  41.984   3.339
30341W        W89778  37.045  30.615  10.404
30342W        W89779   3.214  10.676   1.348
30343W        W89780  10.874  40.924   4.122
30344W        W89781  16.103   6.247   2.399
30345W        W89782  16.246  28.944   0.461
30346W        W89783  42.904  36.424  13.420
30347W        W89784  10.713   4.257   1.277
30348W        W89785  37.051  38.470   2.836
30349W        W89786   3.889  37.069  12.001
30350W        W89787  27.035   1.838   4.262
30351W        W89788  35.002  29.085   1.241
30352W        W89789  21.697  40.048  14.323
30353W        W89790  13.246   7.799   3.767
30354W        W89791  14.227   7.766  14.020
30355W        W89792  23.127  30.456   0.797
30356W        W89793  33.410  19.044   2.265
30357W        W89794  24.600   1.246   1.768
30358W        W89795  10.332  16.593  11.029
30359W        W89796  22.155  38.357  12.399
30360W        W89797  16.634  41.505   4.702
30361W        W89798  22.045  11.347   4.278
30362W        W89799  21.602  39.409   1.240
30363W        W89800  26.485  32.951   0.345
30364W        W89801  12.236  31.443   4.625
30365W        W89802  24.707  39.927  10.106
30366W        W89803  25.559  21.173   1.814
30367W        W89804  12.359  32.948   2.256
30368W        W89805   5.886  11.335  10.964
30369W        W89806  10.302  25.115   2.244
30370W        W89807  14.610  18.296  11.008
30371W        W89808  13.115  12.136  10.928
30372W        W89809   0.819  25.026   9.978
30373W        W89810  30.588  34.504   3.690
30374W        W89811  11.257  15.309   2.292
30375W        W89812  24.977  23.700  10.991
30376W        W89813  14.825  35.436  11.433
30377W        W89814  43.779  40.316  11.924
30378W        W89815  14.109   2.884   0.256
30379W        W89816  30.944  14.105  11.888
30380W        W89817  44.338  35.098   9.983
30381W        W89818  39.865  18.747  13.806
30382W        W89819  23.531   2.339  10.902
30383W        W89820  28.019  13.798  10.496
30384W        W89821   7.330  43.937   4.223
30385W        W89822  30.078  36.463   0.460
30386W        W89823  12.158  27.679  14.498
30387W        W89824  27.187  20.243  12.973
30388W        W89825  36.437  39.538   0.397
30389W        W89826  13.137  36.851  11.939
30390W        W89827  30.011  43.284  10.580
30391W        W89828  11.149  37.366  12.905
30392W        W89829  27.942  40.337   3.825
30393W        W89830   4.334  41.431   3.167
30394W        W89831  39.819  18.080  11.438
30395W        W89832   7.330  10.850  12.081
30396W        W89833  17.160  16.085  10.951
30397W        W89834   6.335   1.972  12.082
30398W        W89835   3.749  19.240   2.785
30399W        W89836   2.932  29.934  14.945
30400W        W89837  24.652   8.320   2.349
30401W        W89838  34.101  10.746   2.261
30402W        W89839  29.540  34.909   4.340
30403W        W89840  31.085  32.020   3.210
30404W        W89841  18.056  43.831  13.889
30405W        W89842  13.286  35.401  11.512
30406W        W89843  23.105  17.273   4.668
30407W        W89844  23.124  41.800  14.449
30408W        W89845  21.262  14.102  10.048
30409W        W89846  19.235  28.458   2.282
30410W        W89847   7.717  40.459   9.951
30411W        W89848  21.613  37.473  10.959
30412W        W89849   4.434   0.847  14.362
30413W        W89850  43.792  29.458   4.745
30414W        W89851  25.088  27.101   4.139
30415W        W89852   3.764  25.614   2.385
30416W        W89853  23.508  30.555   4.295
30417W        W89854  40.938  29.659  11.016
30418W        W89855   4.412  37.352  12.910
30419W        W89856  36.489  11.837   0.916
30420W        W89857  32.500  38.056   3.271
30421W        W89858  35.938  42.345  13.061
30422W        W89859  13.340  35.584  10.505
30423W        W89860   1.829   5.765  14.994
30424W        W89861  22.072  33.414  14.304
30425W        W89862   1.851  38.982   0.383
30426W        W89863  31.092  42.329   4.158
30427W        W89864  22.163  37.368   2.283
30428W        W89865  30.507  32.544   3.154
30429W        W89866  13.841  30.088   4.240
30430W        W89867  16.705   9.645  13.932
30431W        W89868  33.041  42.424   1.819
30432W        W89869  34.516   9.372  14.912
30433W        W89870  24.100  30.103  12.018
30434W        W89871  25.191  14.157  10.941
30435W        W89872  23.557   0.847   3.726
30436W        W89873  19.708  33.508   3.773
30437W        W89874  20.611  23.993   3.813
30438W        W89875  43.380  23.646   1.362
30439W        W89876  11.332  12.711   4.783
30440W        W89877  20.104  24.172   3.669
30441W        W89878   2.464  16.706  10.890
30442W        W89879  30.477  27.650   1.387
30443W        W89880  24.676  25.052   2.392
30444W        W89881  44.784  44.369  10.073
30445W        W89882  14.151  32.585   0.903
30446W        W89883  18.256  25.106  12.893
30447W        W89884   0.861   6.255   1.807
30448W        W89885  30.091  36.488   2.341
30449W        W89886  34.402  25.587  12.033
30450W        W89887   8.286  43.473  13.421
30451W        W89888   6.833  36.932   1.340
30452W        W89889   0.945  39.497  11.915
30453W        W89890  41.981  14.652  13.881
30454W        W89891   8.738   4.397  13.845
30455W        W89892  20.226  34.959  11.558
30456W        W89893  32.047  13.176   1.873
30457W        W89894  29.639  31.410   0.828
30458W        W89895  20.587  19.235   1.244
30459W        W89896  39.826  10.374   4.771
30460W        W89897  31.478  22.214  13.802
30461W        W89898   0.395  35.507  10.565
30462W        W89899  17.743  31.064  14.942
30463W        W89900  39.936  42.450  13.827
30464W        W89901  40.008   4.429  14.985
30465W        W89902   9.792  13.740  10.983
30466W        W89903  37.867  13.340  13.522
30467W        W89904  28.452  30.995   0.961
30468W        W89905  26.150  39.372  13.347
30469W        W89906  16.799   5.204   1.777
30470W        W89907   1.903  23.496  13.489
30471W        W89908   1.444  23.057  13.857
30472W        W89909  21.023  39.325   0.817
30473W        W89910   0.426  33.126   1.885
30474W        W89911   4.405  42.976   4.133
30475W        W89912  24.193  20.735   3.354
30476W        W89913   2.274   8.692  11.398
30477W        W89914  42.456   2.295  14.788
30478W        W89915  10.335  43.935  12.070
30479W        W89916  33.381   2.334   3.367
30480W        W89917  41.833   8.801   2.681
30481W        W89918   9.799  26.208   3.242
30482W        W89919  35.890  40.337  11.501
30483W        W89920  24.207  30.417  10.471
30484W        W89921   2.902  30.626   4.781
30485W        W89922  26.190  39.324  14.287
30486W        W89923  31.413   0.783   3.336
30487W        W89924  36.372  28.976  14.365
30488W        W89925  41.892   1.382   2.707
30489W        W89926   6.747  10.166   4.331
30490W        W89927  30.500  33.078   0.442
30491W        W89928  42.431  10.161  10.446
30492W        W89929  22.564  25.600   0.864
30493W        W89930  32.053  33.002  14.022
30494W        W89931   3.357  39.512   1.414
30495W        W89932   8.792  41.520   4.152
30496W        W89933   7.415  20.040  13.431
30497W        W89934  18.726  19.556   0.815
30498W        W89935   2.377  14.739   4.656
30499W        W89936   9.766   6.345   0.482
30500W        W89937  35.087   8.192  11.542
30501W        W89938  29.170   3.831  14.781
30502W        W89939  19.281  10.779  14.873
30503W        W89940  11.132  29.594   4.603
30504W        W89941   2.920  19.585  13.872
30505W        W89942  15.626  35.956   3.343
30506W        W89943   6.395   2.770  13.822
30507W        W89944  21.175   7.364  11.512
30508W        W89945  28.093   7.351   4.349
30509W        W89946  27.161  22.626   0.464
30510W        W89947  39.351  11.324  13.053
30511W        W89948  25.214   1.740  10.413
30512W        W89949  14.685  21.240   3.153
30513W        W89950  23.054  44.308  14.436
30514W        W89951  24.205  28.678  14.820
30515W        W89952  16.613  13.608   0.740
30516W        W89953  36.396  42.786  13.371
30517W        W89954  22.028   2.421  11.959
30518W        W89955  31.925  25.119   3.352
30519W        W89956  19.054  17.225   1.225
30520W        W89957   0.941   8.305  13.879
30521W        W89958  16.098  34.994   3.643
30522W        W89959   9.384  16.128  10.635
30523W        W89960  24.638  15.585   4.347
30524W        W89961  15.619  34.544   1.896
30525W        W89962  20.620   7.707   1.377
30526W        W89963  26.203   4.367   0.404
30527W        W89964  21.724  10.378   1.786
30528W        W89965  13.258  26.168   1.727
30529W        W89966  31.543   3.923   2.868
30530W        W89967  26.181  18.209  14.844
30531W        W89968  26.532  10.872  13.513
30532W        W89969  38.549  19.571  13.444
30533W        W89970  38.461  34.414  11.078
30534W        W89971   5.335  15.667  13.843
30535W        W89972  18.633  26.474  13.525
30536W        W89973   3.949   7.387   0.892
30537W        W89974  22.501  35.063   1.705
30538W        W89975  42.290  36.011   0.261
30539W        W89976   3.386  31.057   0.742
30540W        W89977  14.834  26.612  12.858
30541W        W89978  27.055  34.998   3.852
30542W        W89979  38.423  36.846   1.892
30543W        W89980  44.332  10.647  13.934
30544W        W89981  43.505  13.194   4.711
30545W        W89982  36.585   3.878   2.398
30546W        W89983  32.593  31.615  12.087
30547W        W89984   4.830  44.900   0.963
30548W        W89985  20.546   4.254   4.267
30549W        W89986  37.418  43.413   0.458
30550W        W89987   0.962  43.022   2.406
30551W        W89988  30.992   8.394   0.334
30552W        W89989  17.690  26.578   2.397
30553W        W89990  19.642  10.186  12.984
30554W        W89991  22.730  35.571  12.096
30555W        W89992  30.448  20.105  11.531
30556W        W89993  30.650  44.809  12.347
30557W        W89994   1.360  35.919  13.547
30558W        W89995  16.782  10.339  14.979
30559W        W89996   2.960   5.709   2.686
30560W        W89997  24.111  10.809  14.934
30561W        W89998  25.215   7.892   2.847
30562W        W89999  42.863   1.931  12.877
30563W        W90000   8.280   1.432   4.602
30564W        W90001  27.181   5.692   3.334
30565W        W90002  36.098  19.614   3.734
30566W        W90003  13.255  40.936  14.918
30567W        W90004   0.939  22.192  14.806
30568W        W90005   4.232   9.789   2.786
30569W        W90006  18.723   4.407   0.379
30570W        W90007  44.301  41.949   2.258
30571W        W90008  43.387  18.217   4.333
30572W        W90009  21.253   3.441   4.161
30573W        W90010  26.584  37.434   0.422
30574W        W90011  27.084  33.072   2.397
30575W        W90012  36.971   5.226   1.773
30576W        W90013  20.602  15.228  11.397
30577W        W90014   7.342   2.421  14.759
30578W        W90015  11.276  23.127  11.930
30579W        W90016  37.377  31.129  13.523
30580W        W90017  22.244  19.093   9.627
30581W        W90018   5.741  11.693  13.529
30582W        W90019  42.856  25.649  13.793
30583W        W90020  30.956  35.854  11.495
30584W        W90021  33.397  14.601  14.451
30585W        W90022  17.067  28.586  14.283
30586W        W90023   8.658  29.509   5.148
30587W        W90024  33.915   4.789  11.059
30588W        W90025  11.346  29.059   4.664
30589W        W90026  29.002   0.849   0.385
30590W        W90027  22.237  25.536   3.647
30591W        W90028   2.768   1.299   3.820
30592W        W90029   2.878   1.839   0.358
30593W        W90030  35.536  44.769   1.267
30594W        W90031  31.548  29.126   4.612
30595W        W90032   4.360   6.716  14.396
30596W        W90033   5.227  22.643  10.435
30597W        W90034  11.820   1.802   4.790
30598W        W90035   7.708  39.934   4.619
30599W        W90036   2.407  37.377   9.568
30600W        W90037  11.624   7.336   2.683
30601W        W90038  20.684   4.734  14.311
30602W        W90039   2.423  32.408  13.496
30603W        W90040  33.002   8.370   1.268
30604W        W90041   5.844  39.329   1.800
30605W        W90042  14.109  36.091   1.347
30606W        W90043   4.440  15.770  11.571
30607W        W90044  32.939  41.408  11.942
30608W        W90045  38.571   4.927  10.971
30609W        W90046   9.763  31.012  13.894
30610W        W90047  17.071  10.697   3.315
30611W        W90048  34.950  16.774   1.709
30612W        W90049  36.555  28.669   2.288
30613W        W90050  18.743   0.966   9.925
30614W        W90051  14.210  33.098  12.429
30615W        W90052  31.978  22.236   3.322
30616W        W90053  33.899  21.061   2.736
30617W        W90054   1.928  16.173  11.437
30618W        W90055  16.693  34.409   3.680
30619W        W90056  34.979  26.545  13.533
30620W        W90057  33.413  21.023   1.413
30621W        W90058  26.515  42.493  11.985
30622W        W90059  17.211   8.663  11.959
30623W        W90060   8.857  40.343  12.007
30624W        W90061  17.174  44.787  13.981
30625W        W90062  34.396  15.643  12.076
30626W        W90063   1.298  10.859   1.823
30627W        W90064   9.327  19.138   3.171
30628W        W90065  12.358  25.988  13.508
30629W        W90066  23.511  26.191   4.642
30630W        W90067  33.108  43.332   3.731
30631W        W90068  38.327  35.511  12.068
30632W        W90069   5.927  18.234  12.836
30633W        W90070  15.107  14.308   3.861
30634W        W90071   9.665  42.777  13.331
30635W        W90072  37.040   1.362   4.263
30636W        W90073  12.766  43.969   3.847
30637W        W90074  41.860  44.000   3.299
30638W        W90075  14.331  39.030   4.817
30639W        W90076   6.867   4.925   1.768
30640W        W90077  30.056  39.386   2.240
30641W        W90078   9.370  32.536   0.464
30642W        W90079   4.791  33.932   5.267
30643W        W90080  41.530  29.947   2.682
30644W        W90081  32.451  16.110   1.819
30645W        W90082  25.653  37.910   4.239
30646W        W90083  34.457  16.575  13.437
30647W        W90084  38.353  42.021  12.465
30648W        W90085  39.929   5.344  13.957
30649W        W90086  42.349  21.742  14.007
30650W        W90087  24.567  43.772   1.828
30651W        W90088  21.258  24.684  13.422
30652W        W90089  20.547  17.258   2.701
30653W        W90090  17.210  16.180   2.774
30654W        W90091  40.903  44.448  13.474
30655W        W90092  18.231  20.117   3.223
30656W        W90093  11.364   9.755  13.495
30657W        W90094  26.562  27.961  14.771
30658W        W90095  17.562   9.772  11.457
30659W        W90096   5.765   9.294   1.335
30660W        W90097  10.222  13.305   0.327
30661W        W90098  26.456   6.386  12.552
30662W        W90099  12.248  42.337   4.195
30663W        W90100   0.893  14.763   2.340
30664W        W90101   9.735  16.605   3.660
30665W        W90102  36.073  10.291   4.266
30666W        W90103   8.746  18.718  13.837
30667W        W90104  18.115  19.698   1.272
30668W        W90105  11.849  33.530  11.863
30669W        W90106  43.003  12.726  13.347
30670W        W90107   6.743  18.600  13.431
30671W        W90108  43.422  11.830   4.706
30672W        W90109  15.298  29.536   2.791
30673W        W90110  28.569  42.501  13.915
30674W        W90111  37.922   1.880  14.761
30675W        W90112  29.923  16.658  13.835
30676W        W90113  37.863  13.830  11.975
30677W        W90114  34.102   7.881  13.901
30678W        W90115  37.014  12.168  10.637
30679W        W90116   0.274  27.615   0.450
30680W        W90117   9.821  10.874   2.282
30681W        W90118   1.265   4.382  10.406
30682W        W90119  33.076  21.058   1.276
30683W        W90120  36.583   4.885  14.794
30684W        W90121  10.725   4.268   0.402
30685W        W90122   4.424  16.633  12.459
30686W        W90123   7.231  26.181  14.479
30687W        W90124  12.116  19.157  13.884
30688W        W90125  29.603  41.482   2.319
30689W        W90126   6.698   8.695   5.192
30690W        W90127  44.432   5.754   1.915
30691W        W90128  27.164   0.336  12.449
30692W        W90129  32.617  20.170  14.911
30693W        W90130  33.083  18.096   3.218
30694W        W90131  42.026  13.240   2.316
30695W        W90132  30.527  14.280  11.551
30696W        W90133   3.461  31.631   3.717
30697W        W90134  36.958   0.903  13.480
30698W        W90135  12.220  21.034   4.312
30699W        W90136  10.663  31.944   4.694
30700W        W90137  12.714   6.824  14.390
30701W        W90138   0.440  43.983   2.736
30702W        W90139  35.550   1.420  14.473
30703W        W90140  44.400  31.506  11.122
30704W        W90141  25.656   2.299   3.694
30705W        W90142   3.453  40.864  14.441
30706W        W90143   3.330   7.877  12.826
30707W        W90144   6.338  37.390  10.622
30708W        W90145  17.214  16.658   3.340
30709W        W90146  35.600  37.560  14.803
30710W        W90147  37.434  15.118  10.536
30711W        W90148  10.860  27.944  14.467
30712W        W90149   5.337  31.001  14.025
30713W        W90150  15.667  13.204  12.991
30714W        W90151  43.923  23.716  12.905
30715W        W90152  42.471  11.231  10.578
30716W        W90153  30.933   1.302   0.768
30717W        W90154  42.956  37.534  13.876
30718W        W90155  28.609  13.170  11.525
30719W        W90156  10.727   8.789  12.374
30720W        W90157  28.053  43.856  11.936
30721W        W90158  27.079   8.846   0.811
30722W        W90159  20.143  44.280  13.877
30723W        W90160  26.203  18.065  13.937
30724W        W90161  40.404   7.305   0.759
30725W        W90162   4.365  37.951  14.506
30726W        W90163  11.686   2.362   0.893
30727W        W90164  44.927  31.109   3.813
30728W        W90165  36.561  22.209   1.832
30729W        W90166   4.735  26.987   3.352
30730W        W90167  38.957  13.766  11.000
30731W        W90168  24.053  39.986   4.654
30732W        W90169  31.902   4.390   0.297
30733W        W90170  41.531  10.155   2.847
30734W        W90171  35.522  27.640  11.979
30735W        W90172  26.145   3.430   3.753
30736W        W90173  17.741  22.995   3.656
30737W        W90174  43.477  25.595   2.848
30738W        W90175  10.770  11.324   4.236
30739W        W90176  11.285  26.092  11.001
30740W        W90177  41.331  32.037  12.926
30741W        W90178  14.589  34.558   3.748
30742W        W90179  36.926  28.101  11.530
30743W        W90180   5.374  41.882  11.054
30744W        W90181   8.330  13.664  13.352
30745W        W90182  35.078  12.735  14.387
30746W        W90183  37.025  26.541  12.875
30747W        W90184  14.715  14.649   1.878
30748W        W90185  13.826  32.070   1.792
30749W        W90186  39.875  36.036  13.044
30750W        W90187   9.187  20.659   0.410
30751W        W90188  17.738  23.055   0.861
30752W        W90189  28.166   1.242  14.908
30753W        W90190   9.689  34.962  12.074
30754W        W90191   6.772   8.861   0.266
30755W        W90192  36.376   2.402   1.774
30756W        W90193   4.847  32.136  13.854
30757W        W90194  14.318  18.636   2.711
30758W        W90195   4.381  12.721   4.608
30759W        W90196  27.146  40.427   2.354
30760W        W90197  14.182  15.786  10.625
30761W        W90198  12.151  27.186   2.692
30762W        W90199  20.253  26.973  14.888
30763W        W90200  10.219  25.667   0.347
30764W        W90201   6.374  43.913   3.650
30765W        W90202  12.620  33.486  12.849
30766W        W90203   9.163  35.552   3.680
30767W        W90204  11.767  32.141  12.097
30768W        W90205   3.883  40.049   2.188
30769W        W90206  24.706  20.627   1.365
30770W        W90207  41.790  15.325  14.440
30771W        W90208  30.057   4.259  13.938
30772W        W90209  33.997  21.516   2.331
30773W        W90210   7.293  16.160  12.897
30774W        W90211  13.125  42.406  12.578
30775W        W90212  37.354  12.624   2.696
30776W        W90213  40.335  23.585   0.838
30777W        W90214  31.039   0.774  14.472
30778W        W90215  44.430  25.152   5.133
30779W        W90216  11.793  30.453   2.668
30780W        W90217  21.683  41.957   4.150
30781W        W90218  12.641   9.247   0.914
30782W        W90219  41.875   2.228   4.286
30783W        W90220  40.537  15.133   2.310
30784W        W90221  36.539  39.359  11.559
30785W        W90222  31.127  19.581   0.261
30786W        W90223   3.860  28.022   0.279
30787W        W90224  12.666  32.990   3.844
30788W        W90225  26.557  14.281  12.072
30789W        W90226  13.642   9.744  11.451
30790W        W90227  42.880  10.304   0.915
30791W        W90228  30.116   0.961   3.783
30792W        W90229  22.120  36.393  11.095
30793W        W90230  37.526  36.358  13.885
30794W        W90231  28.526  31.914   0.927
30795W        W90232  35.892  31.009  12.939
30796W        W90233  33.579  17.742   4.668
30797W        W90234  41.882  16.571  11.934
30798W        W90235  17.662  41.376  13.537
30799W        W90236  29.443   0.941   1.357
30800W        W90237  23.562  25.019  12.553
30801W        W90238  40.507  26.648  10.636
30802W        W90239  12.180  42.966  12.833
30803W        W90240   1.794  22.658   2.839
30804W        W90241   6.857  18.177  14.971
30805W        W90242   2.387  36.962  12.514
30806W        W90243   9.184  10.832   0.911
30807W        W90244  12.322  17.767   0.965
30808W        W90245  15.251  39.864  11.963
30809W        W90246   5.378   2.446  11.951
30810W        W90247  21.616  22.616   2.844
30811W        W90248   6.892  44.007   4.661
30812W        W90249  25.565  16.798  10.919
30813W        W90250  41.377   0.479  11.125
30814W        W90251  41.848  14.727   4.773
30815W        W90252  34.024  32.910  13.946
30816W        W90253  30.034   4.322  14.887
30817W        W90254  32.103  44.468  14.885
30818W        W90255  32.612  38.350   3.201
30819W        W90256  35.993  22.736   4.635
30820W        W90257  40.020  25.176  12.506
30821W        W90258   4.762  26.033   2.764
30822W        W90259   9.786  10.290   3.379
30823W        W90260  44.419   8.266  10.915
30824W        W90261  43.458  12.287  14.762
30825W        W90262  29.462  16.081  12.944
30826W        W90263   8.322   9.702  14.907
30827W        W90264  20.677   9.805  12.540
30828W        W90265   9.264  17.627   0.829
30829W        W90266   6.906  29.099   1.909
30830W        W90267  23.730  37.056   3.757
30831W        W90268  35.517  12.288   1.337
30832W        W90269   8.814   6.297  11.020
30833W        W90270   6.892  11.779  14.840
30834W        W90271   0.760   1.813   1.301
30835W        W90272   2.836  36.032  13.995
30836W        W90273  43.874  13.217   5.158
30837W        W90274  41.295  12.271   0.818
30838W        W90275  28.669  39.849  14.875
30839W        W90276  39.030   8.827   1.244
30840W        W90277  31.976  34.609   2.837
30841W        W90278  12.243  13.688  11.096
30842W        W90279  38.469  39.839  11.872
30843W        W90280  41.306  10.708  10.551
30844W        W90281  19.630   8.670  11.513
30845W        W90282  23.531  40.980   0.922
30846W        W90283   8.878  11.316   2.788
30847W        W90284  37.032  12.803   4.721
30848W        W90285   7.776  23.643   3.371
30849W        W90286  11.643  43.870  12.973
30850W        W90287  17.663  28.442   4.742
30851W        W90288  37.571  35.059   3.746
30852W        W90289  41.801   4.824   3.805
30853W        W90290  13.344  25.194  14.418
30854W        W90291  24.583  10.817  14.856
30855W        W90292  10.180  16.811  12.989
30856W        W90293  10.374  30.538   0.795
30857W        W90294  30.070  20.571   1.902
30858W        W90295  42.330  29.429   3.224
30859W        W90296  19.592  36.426   3.284
30860W        W90297   2.890  39.820  12.919
30861W        W90298   2.814  41.310   3.262
30862W        W90299  12.634  25.124   0.477
30863W        W90300  37.027  36.019   3.774
30864W        W90301   3.437  36.055   1.862
30865W        W90302  12.733   7.326   1.763
30866W        W90303   0.744  25.163   1.379
30867W        W90304  17.237  19.213  14.029
30868W        W90305  39.826  42.397   0.273
30869W        W90306   1.300  33.033   2.855
30870W        W90307  31.055   1.963  11.099
30871W        W90308  32.479  28.564  13.405
30872W        W90309  34.556  44.809  12.968
30873W        W90310  18.657  16.198  14.966
30874W        W90311   8.698  35.503  10.569
30875W        W90312  21.043   9.810   4.353
30876W        W90313  17.730  13.259  13.841
30877W        W90314  40.454  12.329   2.693
30878W        W90315  33.950  35.073  13.983
30879W        W90316  15.596  22.652   5.103
30880W        W90317  28.449   3.305   4.713
30881W        W90318  34.876  12.170   1.707
30882W        W90319  42.486  33.424   4.695
30883W        W90320  41.350  40.019  13.476
30884W        W90321  36.003  33.961  13.961
30885W        W90322  32.484   1.857  10.931
30886W        W90323  15.106  16.798  14.959
30887W        W90324   2.370  39.397   5.233
30888W        W90325  38.336  19.537  14.454
30889W        W90326  26.994  15.284   1.305
30890W        W90327  29.462  21.199   2.861
30891W        W90328  21.746  37.040   3.254
30892W        W90329  29.553   0.927  13.352
30893W        W90330  25.010   5.225  10.526
30894W        W90331  21.525  35.088   3.693
30895W        W90332  37.555  33.061  12.951
30896W        W90333  30.006   7.857  11.468
30897W        W90334   9.165  41.355   0.826
30898W        W90335  29.047  41.533   0.927
30899W        W90336  43.869  16.242  10.912
30900W        W90337  35.093  17.700  12.015
30901W        W90338  28.502  36.055   4.723
30902W        W90339  25.611  42.496  12.372
30903W        W90340   8.814  34.982   0.841
30904W        W90341   6.369  36.479   4.122
30905W        W90342  36.866  28.110   3.296
30906W        W90343  33.916  33.961  12.384
30907W        W90344  30.993  37.472  12.521
30908W        W90345  31.064  39.022   2.327
30909W        W90346  38.520  12.165  13.849
30910W        W90347  44.879  27.641  10.937
30911W        W90348   2.465  35.886  13.410
30912W        W90349  38.571  14.742   1.774
30913W        W90350  13.280   2.767   4.245
30914W        W90351  33.025   9.370   3.221
30915W        W90352  26.544  43.344  10.979
30916W        W90353  32.519  10.342  12.962
30917W        W90354  40.882  33.023   2.797
30918W        W90355  21.074  21.724   1.803
30919W        W90356  26.571  18.207  11.093
30920W        W90357  23.985  25.635  13.339
30921W        W90358  36.045  16.179  11.466
30922W        W90359  33.911  10.730  13.418
30923W        W90360  33.595  27.997   2.253
30924W        W90361  15.101  21.629  14.776
30925W        W90362  43.768  43.406   4.294
30926W        W90363  20.669  36.046  10.929
30927W        W90364  34.459  18.583  12.872
30928W        W90365  34.923  27.029  14.939
30929W        W90366   8.284  34.049   4.713
30930W        W90367  20.182  35.542  14.287
30931W        W90368  23.070  43.419   4.258
30932W        W90369  36.528   4.925   1.700
30933W        W90370  36.573  41.000   0.848
30934W        W90371  40.901  13.607   0.284
30935W        W90372  10.185  39.823  12.342
30936W        W90373  12.301   1.347  14.447
30937W        W90374   6.873  24.217  13.383
30938W        W90375   3.736  31.586   4.755
30939W        W90376  30.654  21.731   4.235
30940W        W90377  44.762  10.834   1.714
30941W        W90378  28.583  23.008   5.782
30942W        W90379  13.218  22.011   3.630
30943W        W90380  16.666   1.772  13.840
30944W        W90381   0.390  40.355   1.824
30945W        W90382  18.167   1.838   4.679
30946W        W90383  19.163  13.664   2.235
30947W        W90384  22.555  29.991  12.482
30948W        W90385   7.367  41.366   1.370
30949W        W90386  23.086   2.765  12.048
30950W        W90387  25.070  29.495   4.219
30951W        W90388  38.571  27.590   0.893
30952W        W90389  13.601  44.983  10.554
30953W        W90390  33.450   3.733  12.085
30954W        W90391  22.668   5.837  11.538
30955W        W90392  40.942  16.657  12.479
30956W        W90393   2.465  15.152  11.451
30957W        W90394   8.763  12.800   1.899
30958W        W90395  10.211  22.606  13.907
30959W        W90396  32.989  13.174   2.784
30960W        W90397  23.074  42.282  12.075
30961W        W90398  44.807  13.809   2.218
30962W        W90399  35.892   9.361  11.401
30963W        W90400  40.468  14.304   2.803
30964W        W90401  41.497  17.273   3.271
30965W        W90402  35.362   9.698  12.921
30966W        W90403   7.900  17.119   4.258
30967W        W90404  35.089   1.935  10.968
30968W        W90405  27.040  28.449  11.031
30969W        W90406  25.542  28.935  11.417
30970W        W90407  27.600  39.993  10.637
30971W        W90408  12.190  23.015  12.998
30972W        W90409  16.752  39.484  10.132
30973W        W90410  32.962   6.374   3.666
30974W        W90411   3.758  12.232  12.839
30975W        W90412  29.634  26.646   2.824
30976W        W90413   8.766   1.841  13.489
30977W        W90414  19.130   5.307  12.015
30978W        W90415  42.908   8.276  10.420
30979W        W90416  33.983  23.003   2.889
30980W        W90417   2.918  20.652   1.352
30981W        W90418   8.262  44.471   0.794
30982W        W90419  23.229   4.401   0.780
30983W        W90420  22.602  33.551  13.536
30984W        W90421  17.703  24.151   0.401
30985W        W90422  34.881   0.352  14.990
30986W        W90423  25.116  39.031  12.358
30987W        W90424  28.084  18.114   4.775
30988W        W90425  36.590  39.986  14.840
30989W        W90426  13.218  29.658  14.331
30990W        W90427  18.257  33.065   0.263
30991W        W90428  11.214  43.289   3.299
30992W        W90429   4.750  40.993  10.890
30993W        W90430  24.040  23.554   0.447
30994W        W90431  40.817  38.487  14.776
30995W        W90432  14.290  36.392  14.332
30996W        W90433  27.541  10.870   4.174
30997W        W90434  36.908  20.710  12.423
30998W        W90435  42.471  10.309   3.247
30999W        W90436  21.569  19.657   0.771
31000W        W90437  17.760  27.038  11.116
31001W        W90438  15.286  30.627   2.682
31002W        W90439  15.727  17.307   4.738
31003W        W90440  41.443  15.780   1.796
31004W        W90441  39.943  31.898   3.339
31005W        W90442  32.403   2.256  11.856
31006W        W90443  35.016  22.717  10.115
31007W        W90444  17.178  38.977  14.345
31008W        W90445  32.587   6.712   1.337
31009W        W90446  10.724   2.738   0.948
31010W        W90447   1.885  29.097  14.900
31011W        W90448  10.271  10.812   1.802
31012W        W90449  16.714  12.784  12.055
31013W        W90450  41.877  41.024  14.288
31014W        W90451  27.494  13.756   1.375
31015W        W90452  11.236  40.991   1.247
31016W        W90453  44.330  12.725   0.456
31017W        W90454  42.966  20.102  10.594
31018W        W90455  34.538   4.762  14.493
31019W        W90456  26.618  26.093   3.303
31020W        W90457  31.085  27.478   4.115
31021W        W90458  11.159  29.648   2.666
31022W        W90459  37.905   6.879   1.320
31023W        W90460   6.270   9.153  10.948
31024W        W90461   0.477  12.200  13.840
31025W        W90462  44.346   2.960  10.031
31026W        W90463  28.045  34.396   1.851
31027W        W90464  40.433  38.898  13.999
31028W        W90465  42.861  29.075  13.912
31029W        W90466   8.235  21.059   9.983
31030W        W90467  32.512  25.155  14.424
31031W        W90468  11.170  32.926  14.795
31032W        W90469  15.777  29.149   0.356
31033W        W90470   6.912   2.867  14.861
31034W        W90471  34.587   4.739   4.781
31035W        W90472  28.561  34.879  13.376
31036W        W90473   5.864  31.064   4.698
31037W        W90474  17.677  23.059  10.490
31038W        W90475  37.363  21.661   5.214
31039W        W90476  26.127   1.834   3.335
31040W        W90477  14.100  26.639   2.271
31041W        W90478  16.618  10.868  11.972
31042W        W90479   3.305  18.635   1.219
31043W        W90480  20.139  38.030  13.509
31044W        W90481  33.469  32.621  13.810
31045W        W90482  18.222  20.041  14.780
31046W        W90483   7.696   6.244  14.906
31047W        W90484  38.353  43.305   0.858
31048W        W90485   3.411   9.194  12.440
31049W        W90486  34.438  19.720  14.852
31050W        W90487  43.844  14.230   4.337
31051W        W90488  44.449  41.830  10.919
31052W        W90489  18.155  25.504   3.848
31053W        W90490  44.409   4.843  13.986
31054W        W90491  42.505  42.876  10.559
31055W        W90492  24.154  36.951  11.068
31056W        W90493  42.515  37.923  13.032
31057W        W90494  29.613  27.942  11.880
31058W        W90495  10.798  17.291  14.948
31059W        W90496  19.604  37.011   0.455
31060W        W90497  26.172  21.676  14.876
31061W        W90498  40.403  35.560   0.437
31062W        W90499  17.732  35.056  13.838
31063W        W90500  36.032   2.807  14.311
31064W        W90501  19.238  18.547  12.571
31065W        W90502  13.603  42.006  13.543
31066W        W90503  18.597  36.524   4.139
31067W        W90504  29.510  12.614  10.495
31068W        W90505   4.829  29.494  11.442
31069W        W90506  14.105  29.074   1.393
31070W        W90507  11.373  22.101  12.919
31071W        W90508  41.846  38.063   4.708
31072W        W90509  18.610  19.617   1.355
31073W        W90510  20.751  42.448   0.244
31074W        W90511  23.068   6.334   4.670
31075W        W90512  39.915  44.830   2.828
31076W        W90513   2.255   3.386  12.393
31077W        W90514   4.902   5.376   2.830
31078W        W90515  39.944  31.631   3.384
31079W        W90516  30.023  20.028  14.291
31080W        W90517   7.750  40.417  10.940
31081W        W90518  19.589  23.156   0.269
31082W        W90519   8.193  14.766  12.481
31083W        W90520  11.731  40.899  14.770
31084W        W90521  26.194  23.630  12.466
31085W        W90522  10.864  38.432   1.320
31086W        W90523   3.384  20.094   0.387
31087W        W90524  35.026  26.086   4.288
31088W        W90525  11.288  17.658  10.898
31089W        W90526  30.627  24.541   3.359
31090W        W90527  24.151  23.241   3.154
31091W        W90528   2.452  25.154   1.254
31092W        W90529  35.016   4.448  13.885
31093W        W90530  39.347   8.346   1.441
31094W        W90531  14.729  18.740   3.828
31095W        W90532  26.018  43.494  11.443
31096W        W90533  36.360  27.545   1.328
31097W        W90534  36.951  37.513   3.268
31098W        W90535  13.756   1.819  14.935
31099W        W90536  25.199   4.770  11.523
31100W        W90537  23.152   2.736   1.364
31101W        W90538  35.081  36.549  12.464
31102W        W90539   4.707  17.146  11.858
31103W        W90540  24.679  40.402  11.600
31104W        W90541  36.077   2.891   4.319
31105W        W90542  44.845  31.924   1.384
31106W        W90543  14.818  16.200   3.267
31107W        W90544  42.396  19.155  14.815
31108W        W90545  27.068  33.397  10.627
31109W        W90546   9.715   9.863   2.840
31110W        W90547  17.095  37.925  14.448
31111W        W90548  34.033  30.961  13.527
31112W        W90549   4.700  19.622  12.878
31113W        W90550  38.927  11.750   1.379
31114W        W90551  27.117  34.882  13.478
31115W        W90552   8.707  43.428  13.957
31116W        W90553  18.268   2.848   3.746
31117W        W90554  10.372   0.437   0.261
31118W        W90555  32.944  27.668   2.296
31119W        W90556  28.615  42.320   2.877
31120W        W90557   4.388  44.801   0.283
31121W        W90558  23.175  37.373  10.917
31122W        W90559   2.304  44.858   1.254
31123W        W90560   9.704   4.326   0.273
31124W        W90561  34.059  29.090   5.144
31125W        W90562   4.379  23.542   3.763
31126W        W90563   5.726  38.547   0.306
31127W        W90564  15.317  25.075   3.669
31128W        W90565  41.437  44.836   1.406
31129W        W90566  19.541  19.684   2.351
31130W        W90567  40.986  20.243   2.204
31131W        W90568   9.706  23.546   0.741
31132W        W90569   6.889  26.133  13.959
31133W        W90570  22.614   5.934  12.009
31134W        W90571   5.348  41.376  11.098
31135W        W90572  37.457  14.678   4.740
31136W        W90573  11.784  19.043  11.126
31137W        W90574   3.288  35.465  12.046
31138W        W90575   8.721  26.975   1.904
31139W        W90576  24.206   8.784  13.358
31140W        W90577  15.607   2.384   4.304
31141W        W90578  39.884   9.681  13.930
31142W        W90579   0.285  44.907   4.672
31143W        W90580  21.712  30.570   0.944
31144W        W90581  12.822  41.367   2.352
31145W        W90582  42.974  38.350   0.463
31146W        W90583  22.588  14.681  12.918
31147W        W90584  41.478  38.001   9.934
31148W        W90585  27.088  26.034  13.835
31149W        W90586   8.266  37.403   5.201
31150W        W90587  15.649   7.812   1.854
31151W        W90588  36.964  42.369  14.821
31152W        W90589  29.542  31.144   1.933
31153W        W90590  19.265  18.210   5.779
31154W        W90591  26.537  32.461   2.355
31155W        W90592  37.024  19.545   0.922
31156W        W90593  30.421   5.266  12.390
31157W        W90594  42.864  13.213  13.437
31158W        W90595  38.568  12.248   0.469
31159W        W90596  34.031   3.447   4.677
31160W        W90597  31.990  32.522   2.686
31161W        W90598  42.866  23.660  13.918
31162W        W90599  13.629   5.354   2.781
31163W        W90600  43.875   8.214   2.374
31164W        W90601  14.339  18.176   3.331
31165W        W90602  34.489   2.453   2.667
31166W        W90603  15.782  29.426   2.341
31167W        W90604   6.747  38.037   1.338
31168W        W90605  23.612   8.196  13.405
31169W        W90606  35.596   8.690  11.566
31170W        W90607  38.891  21.194  11.998
31171W        W90608  36.889   6.355   4.801
31172W        W90609   1.975  33.446  12.030
31173W        W90610  23.563  44.377  14.820
31174W        W90611  20.237  36.971   2.870
31175W        W90612  12.799  24.666   3.711
31176W        W90613  35.949  16.284   3.334
31177W        W90614  24.610  35.584  11.949
31178W        W90615  40.850  35.359   3.720
31179W        W90616  23.101   7.289  12.911
31180W        W90617  24.206  18.138   4.346
31181W        W90618   5.789  12.675   0.415
31182W        W90619  20.174  15.674   1.871
31183W        W90620  43.417  10.640  12.005
31184W        W90621  35.468  41.489   0.310
31185W        W90622  35.475  11.723  13.929
31186W        W90623  16.135  34.947  14.835
31187W        W90624  36.492  24.608  12.350
31188W        W90625   5.226   8.199  10.408
31189W        W90626   8.822  42.978   9.940
31190W        W90627   5.736  30.488   0.860
31191W        W90628  15.736  33.481   1.419
31192W        W90629   8.286  24.151  13.839
31193W        W90630  32.601  44.489  12.571
31194W        W90631  23.575  38.454   3.340
31195W        W90632  20.704  12.852  12.455
31196W        W90633  30.657  35.890  14.822
31197W        W90634   9.649  39.542  11.431
31198W        W90635  13.229   4.871  10.892
31199W        W90636  31.417  38.870   9.929
31200W        W90637   2.841   6.856   0.304
31201W        W90638  32.938  30.488   3.772
31202W        W90639  29.642  10.769   4.784
31203W        W90640   9.648  25.161   2.307
31204W        W90641   3.939  32.096  10.918
31205W        W90642  44.300   8.856   1.920
31206W        W90643  33.463  38.044   5.187
31207W        W90644   5.305   6.902   3.705
31208W        W90645  26.022   0.886  12.482
31209W        W90646  21.073  23.624   1.409
31210W        W90647  40.473  23.040  14.512
31211W        W90648   8.796  35.865  11.531
31212W        W90649  18.156   9.776  14.870
31213W        W90650  36.987  20.548  13.487
31214W        W90651  28.496  41.331  14.845
31215W        W90652  28.978  40.520  14.016
31216W        W90653  12.333  10.231   3.184
31217W        W90654  31.581   9.849   4.744
31218W        W90655  42.811  18.252  11.978
31219W        W90656  39.520  12.794  14.505
31220W        W90657  29.170   9.857   0.801
31221W        W90658   7.350  36.385  14.779
31222W        W90659  17.632  39.375  14.917
31223W        W90660   0.863   2.271   4.272
31224W        W90661  13.127  14.775   2.675
31225W        W90662  30.000  25.120  11.421
31226W        W90663  28.112  24.591  12.431
31227W        W90664   2.293  14.737  13.464
31228W        W90665  36.072  40.390  12.936
31229W        W90666  22.613  13.606   1.403
31230W        W90667  36.079  30.913  12.454
31231W        W90668  38.518  32.027  12.493
31232W        W90669  27.559   3.261  12.545
31233W        W90670  41.790  39.836  14.801
31234W        W90671  28.466  17.647  11.943
31235W        W90672   4.893  43.937  14.782
31236W        W90673  40.481  25.573   0.305
31237W        W90674   5.238  40.866   1.246
31238W        W90675  31.061  21.557   9.572
31239W        W90676  40.540  20.051  10.987
31240W        W90677  24.044  40.838   1.390
31241W        W90678  18.710  35.085   4.281
31242W        W90679   0.790  39.424   5.690
31243W        W90680   6.324   0.844   2.325
31244W        W90681  20.174  32.958   0.405
31245W        W90682  18.266  24.655  10.630
31246W        W90683   2.956  15.223   2.871
31247W        W90684  32.014  12.311  14.771
31248W        W90685   2.236  42.338  14.450
31249W        W90686  33.961  33.381  13.331
31250W        W90687  32.554  17.078   2.742
31251W        W90688  20.173  17.741   3.323
31252W        W90689  11.148  42.944   1.890
31253W        W90690  32.576   0.303  11.443
31254W        W90691   6.917  34.386   4.810
31255W        W90692  35.967   2.315  13.442
31256W        W90693   1.897  28.603  13.438
31257W        W90694   7.872  19.223  12.843
31258W        W90695   9.685  23.204   1.283
31259W        W90696  10.217  12.278  14.981
31260W        W90697  22.194  28.474  14.766
31261W        W90698   2.844   9.845   4.742
31262W        W90699  15.108   6.867  10.499
31263W        W90700   2.354  23.179  13.366
31264W        W90701  14.298  40.809  13.831
31265W        W90702   8.307  37.457  13.541
31266W        W90703  30.069   9.798   0.747
31267W        W90704  29.533  25.557   3.256
31268W        W90705  37.496  15.712   1.379
31269W        W90706  38.407   5.696   0.303
31270W        W90707  41.033  40.045  14.323
31271W        W90708  24.710   7.825   2.853
31272W        W90709  40.038  31.093   1.928
31273W        W90710  14.272  41.359  14.984
31274W        W90711  11.192  39.832  13.406
31275W        W90712  22.231  36.512   4.236
31276W        W90713  15.126  41.383   0.828
31277W        W90714  19.726  28.661  11.496
31278W        W90715  20.180  21.150   0.767
31279W        W90716  25.166  32.391  13.933
31280W        W90717  31.584   7.834   0.442
31281W        W90718   4.337  31.419   2.768
31282W        W90719  14.641  19.780   4.629
31283W        W90720  21.136  36.855   5.254
31284W        W90721  21.087  39.898  14.769
31285W        W90722   8.773  23.672  14.384
31286W        W90723  30.583  27.117  11.590
31287W        W90724  31.033  22.678   1.340
31288W        W90725   1.790   8.863   2.796
31289W        W90726  13.650  40.482   9.467
31290W        W90727   3.840  44.827   2.796
31291W        W90728   9.720  10.756   0.465
31292W        W90729  42.958  19.536  12.042
31293W        W90730  33.569  44.925   3.685
31294W        W90731  12.175  40.472   2.260
31295W        W90732  10.214  17.105   5.162
31296W        W90733  18.751  35.974   0.364
31297W        W90734  12.178  26.986   3.300
31298W        W90735  16.733  17.571   5.744
31299W        W90736   8.658   6.335  14.308
31300W        W90737  24.214   8.667  12.041
31301W        W90738  41.827  25.482   3.366
31302W        W90739  14.179  12.644   0.816
31303W        W90740  37.395   0.757   0.963
31304W        W90741  26.170  34.086   2.878
31305W        W90742  12.343  24.184  12.878
31306W        W90743   2.458  34.889  11.996
31307W        W90744  30.431  10.640  13.335
31308W        W90745  36.002  40.887   1.281
31309W        W90746  20.121   6.765  14.968
31310W        W90747  41.883  28.000  12.904
31311W        W90748  37.462  11.277   0.349
31312W        W90749  32.618  41.005  12.471
31313W        W90750   6.248  42.886  12.835
31314W        W90751   7.371  11.774  14.392
31315W        W90752   9.243   6.337  12.353
31316W        W90753   7.284  22.647   2.676
31317W        W90754  42.860  42.490  14.396
31318W        W90755  41.366  24.224   3.819
31319W        W90756  30.473  25.641   3.862
31320W        W90757   1.743  26.122  14.396
31321W        W90758   1.795  14.112   0.371
31322W        W90759  40.866  20.043   4.230
31323W        W90760  25.974   2.773  13.350
31324W        W90761  17.140  13.215   2.211
31325W        W90762  39.823   6.885   1.321
31326W        W90763   8.809  30.013  11.973
31327W        W90764  10.671  31.526  10.978
31328W        W90765   3.869  11.356   4.324
31329W        W90766  30.446  18.644   1.441
31330W        W90767  38.494  39.335   4.172
31331W        W90768   1.478   9.184   4.165
31332W        W90769  19.279  40.807   4.262
31333W        W90770  24.649  15.705   0.837
31334W        W90771  14.730  26.195  14.308
31335W        W90772   9.229  20.052   0.452
31336W        W90773  14.738   5.225   3.155
31337W        W90774  16.214  41.490  14.459
31338W        W90775   8.655  14.738   3.360
31339W        W90776  17.697   7.184  13.531
31340W        W90777  43.833  42.462   2.814
31341W        W90778   1.306  17.766   2.216
31342W        W90779   2.865   1.308   2.188
31343W        W90780  31.072  10.369  14.938
31344W        W90781  25.592   6.712   4.815
31345W        W90782   1.830  32.922  13.335
31346W        W90783  14.255  20.189  14.362
31347W        W90784  11.165  12.618  14.448
31348W        W90785  42.858  37.385  13.392
31349W        W90786   4.761  31.059   3.800
31350W        W90787  10.716  32.993  13.449
31351W        W90788  10.151   8.194   3.163
31352W        W90789  25.182   6.711   0.459
31353W        W90790  12.187  19.072  13.412
31354W        W90791  25.645  12.852   5.094
31355W        W90792  29.607  39.559  11.462
31356W        W90793   2.243   9.654   0.448
31357W        W90794  17.645  44.946   9.926
31358W        W90795   7.774   1.760  14.303
31359W        W90796   1.952  29.523   2.268
31360W        W90797  28.085  27.494  12.506
31361W        W90798  21.659  32.627   2.713
31362W        W90799  33.423  30.052  14.340
31363W        W90800  11.821   9.234  11.451
31364W        W90801  24.065   6.244  14.822
31365W        W90802   0.782  18.626  12.825
31366W        W90803  21.017   3.837   2.286
31367W        W90804  30.604  19.584   0.321
31368W        W90805  30.137   9.237  12.470
31369W        W90806  20.170  36.966  13.544
31370W        W90807  35.102  24.691   3.749
31371W        W90808   3.401   2.863  12.548
31372W        W90809  31.614  12.270   2.270
31373W        W90810  19.623  40.903  14.388
31374W        W90811  38.948  24.706  13.935
31375W        W90812  15.312  30.471  13.337
31376W        W90813  31.548  34.038  12.511
31377W        W90814   1.295  38.374  13.322
31378W        W90815  20.045  28.102   1.356
31379W        W90816  17.078  17.577  10.911
31380W        W90817  15.751   9.834   2.895
31381W        W90818  34.964  27.535  13.464
31382W        W90819  30.031  42.780   0.353
31383W        W90820  29.558  44.976   4.225
31384W        W90821  19.256   5.791  14.313
31385W        W90822  17.790   5.905   2.316
31386W        W90823  18.761  10.163   4.729
31387W        W90824  12.842  37.562  13.508
31388W        W90825  15.659  43.315   3.207
31389W        W90826   8.747  25.159  11.492
31390W        W90827   1.271  44.983   1.818
31391W        W90828   2.395  33.414  12.016
31392W        W90829   5.200  18.642  12.994
31393W        W90830   8.873  30.576   3.204
31394W        W90831  40.888  17.784  13.309
31395W        W90832  38.395  23.206  12.432
31396W        W90833  12.694   3.219   0.791
31397W        W90834  30.437  22.576   0.957
31398W        W90835  12.338  12.718  14.307
31399W        W90836  28.961   1.769  13.972
31400W        W90837  27.153   5.733   0.242
31401W        W90838  35.872  34.116   0.434
31402W        W90839  35.862  25.644   3.242
31403W        W90840  21.182  29.106   0.798
31404W        W90841  39.403   8.249   2.901
31405W        W90842  29.429  24.549   1.774
31406W        W90843  12.231  42.997   3.806
31407W        W90844  41.458  29.453   3.849
31408W        W90845  30.962  29.075   1.703
31409W        W90846  44.799  42.795  11.393
31410W        W90847   9.300  11.848  12.914
31411W        W90848  20.108  17.076   9.466
31412W        W90849  36.431  23.630   1.805
31413W        W90850  24.586   7.871   2.353
31414W        W90851  21.668  11.253  11.488
31415W        W90852  43.948  21.608  11.870
31416W        W90853  35.872  39.837  12.062
31417W        W90854   3.838   0.982  14.944
31418W        W90855   7.764   1.901  13.869
31419W        W90856  16.122  44.307  11.412
31420W        W90857  40.469  26.995   0.855
31421W        W90858   6.727  30.421   1.805
31422W        W90859  26.985  27.097  11.465
31423W        W90860  18.269  29.644  12.879
31424W        W90861  36.520  15.155  10.633
31425W        W90862   0.392  31.642  14.295
31426W        W90863  36.862   6.712   4.178
31427W        W90864  39.831  39.948  11.909
31428W        W90865   6.372  38.931   2.892
31429W        W90866   8.173   0.778  14.891
31430W        W90867  25.039   4.222   0.370
31431W        W90868  44.489   0.955   4.299
31432W        W90869  12.665  13.326   4.770
31433W        W90870   5.364  25.218  11.599
31434W        W90871   1.932  14.151   5.285
31435W        W90872   8.204  44.357  13.437
31436W        W90873  38.407  42.020   2.675
31437W        W90874  29.497  23.091  13.461
31438W        W90875  16.277  40.355  14.460
31439W        W90876   7.846  16.638  12.574
31440W        W90877  42.973  42.469   3.651
31441W        W90878   8.203  12.662   4.707
31442W        W90879  43.020   3.278   4.175
31443W        W90880  30.601   3.792   2.248
31444W        W90881  18.107  44.286   4.789
31445W        W90882  40.541  32.016  10.564
31446W        W90883  33.579  10.746  10.973
31447W        W90884   9.875   1.767   1.379
31448W        W90885  36.848  32.110   1.886
31449W        W90886  14.251  14.692   2.322
31450W        W90887  19.752  21.182   1.414
31451W        W90888   7.784  36.013  13.024
31452W        W90889   4.815  29.006   4.827
31453W        W90890  19.658   5.399  12.846
31454W        W90891  18.693   9.816   0.946
31455W        W90892  43.411  32.064   1.398
31456W        W90893  34.569   1.790   1.699
31457W        W90894  38.975  42.443   0.841
31458W        W90895  18.065   2.841  13.945
31459W        W90896  36.514   3.284   3.684
31460W        W90897   8.323  25.472  10.626
31461W        W90898  11.813   5.367   0.910
31462W        W90899  39.387  27.482  12.968
31463W        W90900  27.554  24.679   4.248
31464W        W90901  29.947  14.738  14.783
31465W        W90902  22.065  39.814  13.052
31466W        W90903   6.794   6.424  12.488
31467W        W90904   5.705  20.067  10.579
31468W        W90905  43.289  39.028   1.422
31469W        W90906   7.845  22.007  12.397
31470W        W90907  19.691   3.443   1.245
31471W        W90908  19.622  22.133  10.141
31472W        W90909  11.781   6.292  11.491
31473W        W90910  18.285  14.754   2.784
31474W        W90911  26.531  44.275   0.428
31475W        W90912   1.966  43.460   0.263
31476W        W90913  23.058  35.083   2.261
31477W        W90914  38.355  42.337   4.733
31478W        W90915  40.420  24.690   2.690
31479W        W90916  26.573  41.789   0.761
31480W        W90917  26.539  21.161   3.709
31481W        W90918  19.741  33.126  12.497
31482W        W90919  29.097  19.779   4.663
31483W        W90920  33.499   9.265  11.995
31484W        W90921  40.504  24.010   4.164
31485W        W90922  35.540  31.065  14.953
31486W        W90923  26.667  40.853   4.285
31487W        W90924  44.789  14.223   3.357
31488W        W90925  32.069   3.347  11.881
31489W        W90926  12.247  30.954   3.228
31490W        W90927  40.504   5.295  10.570
31491W        W90928  23.547  25.133  11.538
31492W        W90929  12.654   1.922  14.920
31493W        W90930  12.817   2.898  11.901
31494W        W90931  40.354  36.420   4.338
31495W        W90932  12.352  39.347  14.284
31496W        W90933  10.276  24.012   2.837
31497W        W90934   1.817   9.736   1.422
31498W        W90935  22.179  26.034   0.294
31499W        W90936  44.260  27.596  10.487
31500W        W90937   8.203  38.541   3.766
31501W        W90938  44.302  29.986   0.891
31502W        W90939   3.244   1.926   3.851
31503W        W90940  30.459  22.122   5.739
31504W        W90941  14.156  19.561   2.391
31505W        W90942  34.537  37.428   4.209
31506W        W90943   9.753   1.323   0.245
31507W        W90944   3.914  21.204   2.196
31508W        W90945  26.060  11.822   3.859
31509W        W90946   8.316  26.650   4.713
31510W        W90947  33.968   2.933  11.601
31511W        W90948  42.873  42.822  11.085
31512W        W90949  43.275  20.076   4.793
31513W        W90950   7.722  40.465  10.539
31514W        W90951  42.955  40.850  10.546
31515W        W90952  33.910  15.577   3.678
31516W        W90953  38.329  42.395   3.734
31517W        W90954  43.401  34.615  10.153
31518W        W90955  28.127  21.244   3.823
31519W        W90956  32.129  14.718  14.429
31520W        W90957   9.172  33.990  11.987
31521W        W90958   0.830  29.642  11.087
31522W        W90959  44.422  38.403  12.987
31523W        W90960  35.399  43.386  10.930
31524W        W90961   5.317  28.936  12.973
31525W        W90962  30.593   3.262   4.272
31526W        W90963   9.312  29.659  11.929
31527W        W90964  18.258  40.866   2.355
31528W        W90965  44.498  21.058   2.179
31529W        W90966  10.145   9.679   0.836
31530W        W90967  31.460  24.544   1.775
31531W        W90968  22.111  13.213   4.710
31532W        W90969  20.662  36.419   0.385
31533W        W90970  20.139  14.132   0.733
31534W        W90971  44.338  29.620   1.883
31535W        W90972  18.246  43.943  14.960
31536W        W90973  20.719  27.947  13.457
31537W        W90974  30.648  33.582   1.268
31538W        W90975  13.706  43.415  14.889
31539W        W90976  38.469  40.800  14.455
31540W        W90977  40.432   5.913   3.802
31541W        W90978  40.814  36.526  14.795
31542W        W90979  11.784  42.791  10.483
31543W        W90980   0.952  33.123  13.434
31544W        W90981   2.443   9.735  11.028
31545W        W90982  14.276  13.622   1.795
31546W        W90983  23.227  28.632  11.434
31547W        W90984  35.545  43.955   0.941
31548W        W90985  15.738   2.301   1.351
31549W        W90986  28.441   0.856  11.935
31550W        W90987  10.230  27.446  14.358
31551W        W90988  38.978  25.626  14.005
31552W        W90989  21.522  19.175  13.962
31553W        W90990  27.034  28.489   2.706
31554W        W90991   3.834  37.032   4.620
31555W        W90992   9.877   8.332   4.313
31556W        W90993  39.861  41.417  12.387
31557W        W90994  11.861  41.821   1.716
31558W        W90995  24.152  42.491  14.922
31559W        W90996  16.671  31.519   4.602
31560W        W90997   9.292  24.155  10.463
31561W        W90998   0.347  34.402   1.297
31562W        W90999   7.351  19.195  11.125
31563W        W91000  41.983  40.993   0.347
31564W        W91001  28.039  27.656  12.010
31565W        W91002  41.888  22.051  12.916
31566W        W91003  26.698  35.960  11.866
31567W        W91004   9.297  23.503   3.346
31568W        W91005   1.760  27.684   2.412
31569W        W91006  30.953   3.933   1.815
31570W        W91007  13.155  22.598   3.231
31571W        W91008  36.094   6.365  11.061
31572W        W91009  23.634  40.318  12.973
31573W        W91010  32.462  23.122  13.344
31574W        W91011  39.829  13.332   2.379
31575W        W91012  30.955   6.374  14.839
31576W        W91013  31.142   9.791  10.919
31577W        W91014  40.943  43.463   2.733
31578W        W91015  12.753  42.874  12.871
31579W        W91016  41.472  16.159  14.918
31580W        W91017  28.011  15.700   2.777
31581W        W91018  36.376  18.629   0.814
31582W        W91019  12.294  13.155  11.923
31583W        W91020   0.458  43.319   3.343
31584W        W91021  41.000   9.329  10.535
31585W        W91022  38.960  42.410   4.340
31586W        W91023   6.851  16.160   3.182
31587W        W91024  24.561  32.581   4.247
31588W        W91025  38.525   3.829  10.936
31589W        W91026  22.112   3.392   1.731
31590W        W91027  17.063  21.219   4.243
31591W        W91028  25.013  39.512  12.564
31592W        W91029  24.613  21.512  14.332
31593W        W91030  34.865  10.285  10.549
31594W        W91031  36.892   8.805   0.866
31595W        W91032  39.502  44.447  12.515
31596W        W91033  31.925   6.290  13.872
31597W        W91034  35.887  40.044   1.856
31598W        W91035  10.723  41.947  12.955
31599W        W91036   3.391  37.561   2.688
31600W        W91037  12.762  44.262  12.351
31601W        W91038  17.635  42.974   3.788
31602W        W91039   4.247   6.284  14.399
31603W        W91040  44.277  23.591  14.024
31604W        W91041  24.550  19.177   0.936
31605W        W91042  23.200  32.107   1.252
31606W        W91043  27.678   0.750  13.984
31607W        W91044  30.639  26.615  14.798
31608W        W91045  10.351  18.257   1.403
31609W        W91046  36.978   3.357   2.820
31610W        W91047  33.002  15.197   3.234
31611W        W91048  16.765  38.550   9.966
31612W        W91049   0.833  40.524   4.735
31613W        W91050  35.357   3.459  14.285
31614W        W91051  25.693  41.856  13.856
31615W        W91052  32.628  25.110   0.363
31616W        W91053  16.273  19.140  13.381
31617W        W91054  38.883  26.132  10.475
31618W        W91055  30.108  40.472  12.419
31619W        W91056  29.028  27.030   3.255
31620W        W91057   0.298  35.937  13.037
31621W        W91058   5.221  13.831  14.478
31622W        W91059  26.003  38.011   2.277
31623W        W91060  29.046  15.105  12.036
31624W        W91061  20.174  32.421   0.381
31625W        W91062  28.990  32.080   4.789
31626W        W91063   5.754   4.802   4.838
31627W        W91064   8.687   7.406   4.133
31628W        W91065  35.075  31.423  10.945
31629W        W91066  34.048   1.387   3.237
31630W        W91067  14.303  11.829  13.441
31631W        W91068  42.814  10.771   2.239
31632W        W91069   2.788  44.402  13.466
31633W        W91070  12.709  30.591   0.329
31634W        W91071  22.529  40.950   3.246
31635W        W91072   3.946   5.270  13.461
31636W        W91073  34.950   1.259   1.265
31637W        W91074  44.273  16.777  14.344
31638W        W91075  32.425  33.560  12.056
31639W        W91076  20.091  16.272   1.835
31640W        W91077  28.491  34.979   0.373
31641W        W91078  11.755   5.350   3.230
31642W        W91079   4.353   7.412  14.469
31643W        W91080  39.381  37.988  12.376
31644W        W91081  24.198  41.916   0.857
31645W        W91082  38.342  29.660  14.356
31646W        W91083  35.500  28.464  10.956
31647W        W91084  27.632  20.749   3.864
31648W        W91085   4.216  27.630  11.973
31649W        W91086   7.335   9.314   0.411
31650W        W91087  16.153  17.582   2.699
31651W        W91088  13.260  21.138   4.654
31652W        W91089   0.789  21.726  10.600
31653W        W91090  14.202  41.876  13.493
31654W        W91091  13.169  30.501   4.686
31655W        W91092  18.173   4.433   0.405
31656W        W91093  21.095  33.027  11.916
31657W        W91094  33.935  22.703   1.750
31658W        W91095  18.214  35.897  12.488
31659W        W91096  31.949  17.135  13.892
31660W        W91097  32.566  41.351   0.750
31661W        W91098   3.222  28.663   2.717
31662W        W91099   8.794   6.879   3.643
31663W        W91100  13.324  39.022  13.852
31664W        W91101  42.985  16.773   3.683
31665W        W91102  44.996  33.942  11.043
31666W        W91103  33.959   6.291  11.033
31667W        W91104  18.570   7.407  13.917
31668W        W91105  19.069  31.635   0.925
31669W        W91106  43.368   1.744   3.152
31670W        W91107  41.793  33.099  14.463
31671W        W91108  30.540  31.440  13.326
31672W        W91109   6.426  33.380  14.484
31673W        W91110  15.290  33.958  11.054
31674W        W91111   7.402  34.011   1.736
31675W        W91112  12.629   9.840  10.901
31676W        W91113  35.547   8.253   0.787
31677W        W91114  35.587   3.763  11.434
31678W        W91115   1.769   8.824  11.009
31679W        W91116  20.559   7.706   3.645
31680W        W91117  26.105   7.366  10.929
31681W        W91118  14.106   0.784  12.379
31682W        W91119  34.016  11.165  13.882
31683W        W91120  23.578  26.641   1.854
31684W        W91121  27.156  29.490  14.331
31685W        W91122  32.044  29.123  12.009
31686W        W91123  32.468  15.678  10.521
31687W        W91124   9.832  28.437   4.295
31688W        W91125  34.907   8.776   3.674
31689W        W91126  10.865   0.268  11.056
31690W        W91127  11.228  35.986   2.770
31691W        W91128  35.526  14.201  12.052
31692W        W91129  35.539  38.962  10.921
31693W        W91130  27.604  26.033   2.279
31694W        W91131  19.546  36.425   0.471
31695W        W91132   1.791   7.227  13.006
31696W        W91133  33.030  24.696  11.413
31697W        W91134  23.052  30.935  11.058
31698W        W91135  34.600  19.666  12.034
31699W        W91136  34.870  12.177   2.738
31700W        W91137  36.053   4.213  14.414
31701W        W91138  26.161  40.826  12.425
31702W        W91139   6.209   3.451   4.178
31703W        W91140  29.018  28.065  14.474
31704W        W91141  17.740   8.397   0.259
31705W        W91142  40.924   6.740   0.381
31706W        W91143  34.504  41.990  11.490
31707W        W91144  40.050  16.763   0.812
31708W        W91145  15.682   5.800   1.847
31709W        W91146  15.667  23.225  12.493
31710W        W91147  39.832  24.034   3.369
31711W        W91148  22.554  38.859  14.935
31712W        W91149   2.454  36.519   1.264
31713W        W91150   1.357   3.450   3.246
31714W        W91151   8.749  21.209   1.819
31715W        W91152  12.683  22.250   2.810
31716W        W91153   6.743  42.956   2.226
31717W        W91154   1.933  30.433  13.904
31718W        W91155  37.942  23.505   2.346
31719W        W91156  15.123  36.024  12.429
31720W        W91157  26.008  26.622   3.662
31721W        W91158  12.276  11.679   4.272
31722W        W91159  24.182   8.259  11.060
31723W        W91160   8.688  37.447  13.906
31724W        W91161   3.449  24.542  11.070
31725W        W91162  22.695   4.852  11.512
31726W        W91163  41.881  21.256   2.243
31727W        W91164   4.208  21.604   1.711
31728W        W91165  17.752   3.457   3.671
31729W        W91166  44.306  12.705   9.496
31730W        W91167   9.203  35.397   0.916
31731W        W91168   9.779  29.931   3.245
31732W        W91169   9.283   6.834  13.918
31733W        W91170  44.859   6.292   9.982
31734W        W91171  19.105  16.264   4.167
31735W        W91172  17.298  20.612  13.328
31736W        W91173  16.681   6.828   1.873
31737W        W91174  15.142  28.990   3.701
31738W        W91175  38.851  17.625   3.261
31739W        W91176  43.802  27.545  12.023
31740W        W91177   2.768  38.374   1.739
31741W        W91178  18.750  43.452   0.903
31742W        W91179  32.440  18.126   0.415
31743W        W91180   4.934  32.925   3.256
31744W        W91181  31.092   5.298  12.364
31745W        W91182   0.373   8.827   1.213
31746W        W91183  20.133  30.639  10.425
31747W        W91184  26.635  37.560   2.234
31748W        W91185   8.662  10.318   1.431
31749W        W91186  31.549  21.090   4.620
31750W        W91187  40.316  19.735  14.947
31751W        W91188  44.969  10.847  11.097
31752W        W91189  25.027  36.052  11.015
31753W        W91190  25.017  16.761   2.248
31754W        W91191  27.668  35.075  14.946
31755W        W91192  16.118  36.907   2.801
31756W        W91193  17.775  25.483  13.364
31757W        W91194  36.071   0.394  11.524
31758W        W91195  43.873  18.132   4.306
31759W        W91196  23.008  39.332  11.861
31760W        W91197   3.450   5.257   3.331
31761W        W91198  20.606  30.514  13.060
31762W        W91199  14.693  36.940  11.602
31763W        W91200  23.238   0.931   2.857
31764W        W91201  16.180  12.158  10.443
31765W        W91202  35.020  37.971  13.392
31766W        W91203  44.856   8.291  13.408
31767W        W91204   3.276  23.631  13.879
31768W        W91205  24.542  22.009   3.207
31769W        W91206  17.156   0.747  14.869
31770W        W91207  26.644  30.572  10.089
31771W        W91208   5.766  40.356  14.316
31772W        W91209  25.536  18.287   4.770
31773W        W91210  25.711   6.394  14.322
31774W        W91211   6.257  24.228   2.404
31775W        W91212  39.894  37.337   0.284
31776W        W91213  26.999   2.243  10.936
31777W        W91214  25.563  40.470  11.511
31778W        W91215  14.635   1.869   2.370
31779W        W91216  16.804  16.133   1.782
31780W        W91217  28.154  30.144  11.936
31781W        W91218  14.143  14.732   1.805
31782W        W91219  26.116  13.824   1.873
31783W        W91220  26.081  39.820  12.453
31784W        W91221  32.571  32.445   4.698
31785W        W91222  21.151  40.344   3.214
31786W        W91223  41.880  17.286  14.826
31787W        W91224  15.183  44.884  12.348
31788W        W91225   0.368  41.517  10.946
31789W        W91226  44.753  35.032   1.718
31790W        W91227   4.840  10.293  13.489
31791W        W91228  34.881  15.172   2.838
31792W        W91229  22.118  10.803   4.733
31793W        W91230  38.943  38.387   3.255
31794W        W91231  42.517  14.340  10.471
31795W        W91232  44.983  40.413   2.846
31796W        W91233  17.218  18.150  10.549
31797W        W91234  44.400  29.602   3.731
31798W        W91235  41.522   2.779   3.171
31799W        W91236  18.599  22.523  11.929
31800W        W91237  39.420   0.362  13.051
31801W        W91238  34.382  26.612  12.419
31802W        W91239  22.251  17.169  11.095
31803W        W91240  26.175   3.831  10.604
31804W        W91241  37.488   1.917   9.971
31805W        W91242  34.978   5.841   3.639
31806W        W91243  33.493  38.408  11.988
31807W        W91244   8.305  20.060   2.782
31808W        W91245  41.415  44.960  13.027
31809W        W91246  30.013  13.140   2.754
31810W        W91247  15.306  13.198  14.009
31811W        W91248  20.591  36.502  12.824
31812W        W91249  13.802  34.465  11.927
31813W        W91250  16.316  20.165   0.415
31814W        W91251  14.296   3.326  12.429
31815W        W91252   4.449  23.578   2.725
31816W        W91253  36.370  11.708   5.161
31817W        W91254  10.371  44.839  13.439
31818W        W91255   0.255  32.535  12.876
31819W        W91256  14.159  41.407  13.926
31820W        W91257  41.001  41.801   1.841
31821W        W91258  16.276  23.195  14.345
31822W        W91259  18.271  44.962  14.340
31823W        W91260  22.641  24.196   0.308
31824W        W91261  36.359  27.955  14.775
31825W        W91262  16.638  31.122  11.477
31826W        W91263  21.618   8.172  10.945
31827W        W91264  35.041   6.222   4.705
31828W        W91265  39.981   3.913   2.708
31829W        W91266  42.418   3.399  13.518
31830W        W91267  42.500   4.877  13.869
31831W        W91268   7.364  14.302  10.620
31832W        W91269  36.539  27.580   1.837
31833W        W91270  30.543  22.677  12.066
31834W        W91271  21.633   4.279  11.613
31835W        W91272  25.698  30.440  13.455
31836W        W91273   9.853  16.088   0.744
31837W        W91274  25.608  35.557  10.479
31838W        W91275  33.391  40.484   0.857
31839W        W91276  30.961  40.372  13.453
31840W        W91277  29.021  43.873   3.747
31841W        W91278  33.894  30.072  10.622
31842W        W91279  36.399  40.969   1.734
31843W        W91280  29.022  25.471  14.848
31844W        W91281  30.546  27.989   0.916
31845W        W91282   4.752   4.825  12.825
31846W        W91283  14.130   4.278   1.307
31847W        W91284   9.795  19.230  13.517
31848W        W91285  30.564  31.553   3.639
31849W        W91286  39.885  10.220   3.849
31850W        W91287  34.528  24.001  12.845
31851W        W91288  33.980   1.268  13.377
31852W        W91289  29.172  44.266   4.334
31853W        W91290  39.958  14.159  10.559
31854W        W91291  42.446  38.358  13.373
31855W        W91292  38.045  31.644  12.420
31856W        W91293   0.930  13.798   3.379
31857W        W91294  25.114   0.971   1.707
31858W        W91295  11.154  37.039  12.578
31859W        W91296  35.905  39.531   1.331
31860W        W91297  25.710  40.510  13.406
31861W        W91298  28.139  43.467  10.114
31862W        W91299  20.584   7.838  14.893
31863W        W91300   5.336  31.934  14.493
31864W        W91301  43.919  26.666  14.941
31865W        W91302  17.171  36.903  13.054
31866W        W91303   6.384  20.629  12.420
31867W        W91304  30.616  38.423  11.588
31868W        W91305   2.442  31.141  10.618
31869W        W91306  18.062   4.775  11.925
31870W        W91307  20.087  38.386   2.855
31871W        W91308  32.433  38.386   2.740
31872W        W91309  27.189  21.105   2.715
31873W        W91310  38.071  42.340  14.840
31874W        W91311  21.624  32.929  10.632
31875W        W91312  14.692  23.531   5.248
31876W        W91313  21.734  37.547   2.339
31877W        W91314  27.483  23.223   5.261
31878W        W91315  31.119  31.600  10.558
31879W        W91316  11.705   5.732   4.744
31880W        W91317  22.243  25.640  10.410
31881W        W91318   2.311  34.460   3.147
31882W        W91319  15.780  13.749   2.197
31883W        W91320  24.698  19.092  11.507
31884W        W91321  30.120  17.180  11.422
31885W        W91322  40.814  11.745  11.564
31886W        W91323  37.000  38.535   5.713
31887W        W91324  33.041   7.878  10.433
31888W        W91325  23.687  15.600   0.732
31889W        W91326  37.492  20.137   1.350
31890W        W91327   2.399  10.353  13.388
31891W        W91328  16.081   6.873   1.802
31892W        W91329  27.067   4.779   2.399
31893W        W91330   0.846   9.805  13.387
31894W        W91331   9.738  37.987   4.717
31895W        W91332  36.856  24.523  10.922
31896W        W91333  29.958  31.637  11.450
31897W        W91334  25.195  31.484  13.367
31898W        W91335  33.609  17.714  13.010
31899W        W91336   6.685  16.760  10.470
31900W        W91337   7.909  36.051  12.411
31901W        W91338  22.220  31.549  14.338
31902W        W91339  17.214  40.994   1.875
31903W        W91340  26.506  16.603  12.526
31904W        W91341  11.812  14.330   0.827
31905W        W91342  18.555  36.991  12.883
31906W        W91343  14.731  30.548  14.282
31907W        W91344  16.137  31.056   0.331
31908W        W91345   2.721  13.650  14.293
31909W        W91346  26.693   0.398  11.991
31910W        W91347  19.774   8.683  11.989
31911W        W91348  27.552  36.056   2.230
31912W        W91349  19.653  25.521   1.817
31913W        W91350   8.235  20.051   4.315
31914W        W91351   2.814  36.955   4.202
31915W        W91352  23.037  23.050   5.649
31916W        W91353  13.211  39.036   4.760
31917W        W91354  29.003  24.665  14.440
31918W        W91355  20.535  31.008   4.758
31919W        W91356   9.335  41.351  14.406
31920W        W91357  16.251  44.757  12.033
31921W        W91358  21.716  29.987  13.336
31922W        W91359  14.622   2.898   3.811
31923W        W91360  13.161   6.868  12.978
31924W        W91361  44.838  28.989   2.828
31925W        W91362  11.354  27.005   2.332
31926W        W91363  14.707  38.409   2.411
31927W        W91364  30.639  32.409   2.359
31928W        W91365  32.033  35.524  11.120
31929W        W91366  44.962  19.213  14.946
31930W        W91367  15.666  32.026  14.454
31931W        W91368  12.720  44.313   3.318
31932W        W91369   0.443  17.714  11.059
31933W        W91370  17.773  39.382  14.393
31934W        W91371  39.022  40.368   2.398
31935W        W91372  36.553  29.928   4.211
31936W        W91373   1.318  27.490   1.812
31937W        W91374  38.993  31.933   2.351
31938W        W91375  39.824   1.343  13.864
31939W        W91376  20.253  12.683  12.555
31940W        W91377   7.175   8.173   2.795
31941W        W91378  28.671  25.519   2.722
31942W        W91379  20.634  26.603   1.893
31943W        W91380  34.496  31.629  13.057
31944W        W91381   3.320  44.438   4.616
31945W        W91382  11.133  11.828   2.884
31946W        W91383   5.801  23.010   3.700
31947W        W91384  10.873   0.902   3.777
31948W        W91385   5.839   8.716   3.859
31949W        W91386  44.267  41.902   4.763
31950W        W91387  33.593  33.031   4.701
31951W        W91388   5.292  25.501   3.779
31952W        W91389  31.407  20.748  11.079
31953W        W91390  25.173  14.184  12.927
31954W        W91391  15.649  30.925   3.216
31955W        W91392  33.617  29.100   3.177
31956W        W91393  36.935  25.641   4.269
31957W        W91394  12.223  16.687   2.414
31958W        W91395  41.945   2.852  12.975
31959W        W91396  20.111   9.811   0.928
31960W        W91397  14.630  25.133   0.415
31961W        W91398  34.588  39.840   1.878
31962W        W91399  26.686  20.652  13.548
31963W        W91400   2.861  42.406   1.929
31964W        W91401  12.810  20.132  10.929
31965W        W91402  44.883   7.829  10.643
31966W        W91403  27.493  23.729   3.204
31967W        W91404  44.375  33.581   0.764
31968W        W91405   3.777  18.095  14.332
31969W        W91406   2.370  18.717  13.954
31970W        W91407  30.113  36.860  12.983
31971W        W91408  14.336  13.699  14.909
31972W        W91409  44.286  34.531   0.341
31973W        W91410  35.591  21.577  14.514
31974W        W91411  27.618  23.121   0.398
31975W        W91412  24.635   8.261  13.911
31976W        W91413   6.261  27.973   2.350
31977W        W91414  13.194  33.488  14.765
31978W        W91415  19.149   5.884   2.714
31979W        W91416  28.464  23.681  14.907
31980W        W91417  33.495  14.678   2.784
31981W        W91418  29.535  36.890  14.430
31982W        W91419  27.141  34.976  12.505
31983W        W91420  12.668   9.851   4.765
31984W        W91421  44.817  44.827  14.018
31985W        W91422  26.003  18.789  14.374
31986W        W91423  32.035  39.061   1.426
31987W        W91424  42.460  43.980   2.759
31988W        W91425  23.729   1.880   2.411
31989W        W91426  12.853  10.194  10.539
31990W        W91427  25.570   8.707  10.518
31991W        W91428  34.045  11.785   2.839
31992W        W91429  33.032   1.855  10.465
31993W        W91430  44.999   0.906  14.317
31994W        W91431  12.767  17.581  11.599
31995W        W91432  29.005  16.734  13.448
31996W        W91433   5.790  27.189  11.587
31997W        W91434  38.007  13.641  14.956
31998W        W91435  12.629  39.372  14.812
31999W        W91436  17.633  43.282  13.936
32000W        W91437  30.517  31.991   0.459
32001W        W91438  18.544  28.517  13.908
32002W        W91439  13.160   1.834   3.307
32003W        W91440  19.156  19.667  13.044
32004W        W91441  43.887  35.000   5.291
32005W        W91442   1.917   5.862  12.483
32006W        W91443  30.115  38.351  12.580
32007W        W91444  37.438  11.666   0.849
32008W        W91445   8.219   1.925   3.233
32009W        W91446  22.518  41.448   4.761
32010W        W91447  41.429  41.493   0.271
32011W        W91448   2.909  44.471   4.248
32012W        W91449  21.593  29.983   0.410
32013W        W91450  20.241  18.764  13.364
32014W        W91451  44.397  20.189  11.978
32015W        W91452  43.298  29.490  12.856
32016W        W91453  18.666  22.231   4.660
32017W        W91454   8.716  15.813   4.231
32018W        W91455  23.176  41.365   2.241
32019W        W91456  37.900  29.492   4.754
32020W        W91457  19.682  20.607   2.414
32021W        W91458  42.519  31.428  13.353
32022W        W91459  19.747  38.480  11.039
32023W        W91460  13.180   3.460  14.320
32024W        W91461  14.156  14.617   0.438
32025W        W91462  43.779  36.010   4.122
32026W        W91463  11.331  41.308  12.059
32027W        W91464   7.805  32.611   3.666
32028W        W91465   4.728  42.363  12.061
32029W        W91466  36.550  20.627   1.776
32030W        W91467  17.582  35.518  11.532
32031W        W91468  43.364  25.177   0.909
32032W        W91469  12.738  11.718   2.836
32033W        W91470  26.503   2.828   0.919
32034W        W91471  21.648  32.469  14.765
32035W        W91472   6.254  26.470   3.205
32036W        W91473  31.088  25.204   3.670
32037W        W91474   3.313  22.010  14.420
32038W        W91475  39.550  35.014  12.549
32039W        W91476  18.774  30.474   2.369
32040W        W91477  21.247  41.849   3.677
32041W        W91478   8.778  12.799  12.005
32042W        W91479  29.998   5.332   0.407
32043W        W91480  41.953   0.926   5.269
32044W        W91481   7.212  44.369   0.458
32045W        W91482   1.455  11.277  11.411
32046W        W91483   6.874   1.334  14.464
32047W        W91484   4.226  42.513   1.786
32048W        W91485  17.669   8.797  14.401
32049W        W91486   6.221  36.848   4.606
32050W        W91487  31.983  15.123  10.923
32051W        W91488  39.930  33.042   4.255
32052W        W91489  23.594   9.855   2.254
32053W        W91490  31.906  26.155  11.506
32054W        W91491   7.810   1.460  14.475
32055W        W91492   5.896  27.025  13.388
32056W        W91493   3.743  41.515   0.945
32057W        W91494  30.535  20.718   4.683
32058W        W91495   6.871  21.550  14.922
32059W        W91496  11.742  37.916  11.608
32060W        W91497  22.134  41.530  12.489
32061W        W91498  19.087  26.089  12.369
32062W        W91499   7.359  28.470   1.747
32063W        W91500   9.327  25.520   5.217
32064W        W91501  39.344  26.623   0.369
32065W        W91502   2.866  33.511   1.894
32066W        W91503   0.469  40.018   5.614
32067W        W91504  16.209  43.770   2.241
32068W        W91505  23.119  41.432  14.018
32069W        W91506   7.675  21.085  14.029
32070W        W91507  38.363   9.718  11.919
32071W        W91508  39.536   0.800   4.243
32072W        W91509  34.396   9.675  12.473
32073W        W91510  12.760  17.136   0.928
32074W        W91511  44.773   2.926  10.947
32075W        W91512   5.762  30.078  14.297
32076W        W91513  29.583  36.539   2.381
32077W        W91514  22.545   9.164  13.997
32078W        W91515  11.863  36.080  11.859
32079W        W91516   4.446  13.214  12.419
32080W        W91517  42.006  37.062   1.371
32081W        W91518  42.022  26.456  11.011
32082W        W91519  22.231  37.513   4.336
32083W        W91520  17.168  32.071  10.901
32084W        W91521  14.284  20.214  11.049
32085W        W91522   8.348  11.184   1.413
32086W        W91523  37.408  13.703   1.220
32087W        W91524  14.660  29.607   3.213
32088W        W91525  23.501  28.642   1.867
32089W        W91526  44.940   4.821   2.387
32090W        W91527   5.224   1.852   4.742
32091W        W91528  31.123  17.689   2.899
32092W        W91529   0.346   3.375  12.850
32093W        W91530  36.975  17.116   3.382
32094W        W91531   8.389  18.057  11.898
32095W        W91532  41.298  38.563   3.156
32096W        W91533  37.423  32.464   0.828
32097W        W91534  40.432  13.837  13.475
32098W        W91535  32.924   0.923  13.365
32099W        W91536  37.983  37.378   2.245
32100W        W91537   6.692  23.136   0.327
32101W        W91538  14.818  17.555  14.396
32102W        W91539  31.025  25.576   2.306
32103W        W91540  21.658  10.327   3.764
32104W        W91541  42.985  10.138   3.692
32105W        W91542  12.167   8.885   0.870
32106W        W91543  22.123  35.931   4.332
32107W        W91544  22.177  26.129  14.352
32108W        W91545   0.401  14.716  12.495
32109W        W91546  16.290   3.885   3.751
32110W        W91547  32.970  16.629  14.468
32111W        W91548  39.438  44.898   1.749
32112W        W91549  29.650  28.644  12.524
32113W        W91550  30.538  18.260   2.276
32114W        W91551  27.510  11.859   1.889
32115W        W91552  24.079  31.488  13.839
32116W        W91553  39.514  43.284   0.756
32117W        W91554   2.804  26.492  14.793
32118W        W91555  14.623  33.582  12.339
32119W        W91556   1.977  23.561  14.306
32120W        W91557  19.181  44.868  14.290
32121W        W91558  23.041  38.399   9.956
32122W        W91559  43.856  32.581  12.538
32123W        W91560  27.059   3.761   2.702
32124W        W91561  17.751  29.092   2.772
32125W        W91562  38.384   4.786  10.156
32126W        W91563  32.600  40.938   1.814
32127W        W91564  28.460  17.583  14.839
32128W        W91565  20.116  10.348   3.645
32129W        W91566  30.609  10.765   2.883
32130W        W91567  39.904  16.607  12.451
32131W        W91568   9.675  16.575  10.617
32132W        W91569  32.910  33.546  13.313
32133W        W91570  36.593  35.592  11.895
32134W        W91571  17.160  11.724  11.927
32135W        W91572  31.002  27.533  14.276
32136W        W91573  25.196   9.761   9.959
32137W        W91574  19.109  21.601  11.124
32138W        W91575  39.943  25.057   2.200
32139W        W91576  32.408  28.458   4.151
32140W        W91577  25.115  23.497   2.716
32141W        W91578  17.273  38.562   3.250
32142W        W91579  21.174  44.838  12.845
32143W        W91580   9.804  43.316  12.434
32144W        W91581  33.132  34.426   2.243
32145W        W91582  41.829  33.458  10.028
32146W        W91583  16.180  38.000   1.441
32147W        W91584  41.503  31.152   1.418
32148W        W91585  31.135  38.028   1.838
32149W        W91586   6.314  27.941   3.811
32150W        W91587   3.276  37.965  13.017
32151W        W91588  11.239  24.156  13.429
32152W        W91589   1.801   3.262  14.016
32153W        W91590  44.961  10.750   3.201
32154W        W91591  41.890  41.988  12.006
32155W        W91592  19.626  44.461   0.847
32156W        W91593  36.018  30.436  13.430
32157W        W91594   1.384  36.971  13.322
32158W        W91595   0.871  27.973   2.285
32159W        W91596  22.100  16.313   3.343
32160W        W91597   7.333   9.700   3.816
32161W        W91598  21.170   6.406  13.436
32162W        W91599   6.892  10.853  14.442
32163W        W91600  21.039  17.136  14.497
32164W        W91601  38.009  40.511  12.036
32165W        W91602  33.467  41.366   4.716
32166W        W91603  15.232  20.586   0.381
32167W        W91604  13.634  43.813   4.187
32168W        W91605  21.241   6.889  14.376
32169W        W91606  40.445  28.525   0.750
32170W        W91607   4.275  23.595   5.647
32171W        W91608  21.551  25.709   2.306
32172W        W91609  32.002   2.891   2.317
32173W        W91610  15.620  10.192   0.337
32174W        W91611  22.631  15.129  14.849
32175W        W91612   4.907  29.484   3.858
32176W        W91613  43.929  19.569  14.891
32177W        W91614  37.469   6.373   2.304
32178W        W91615  24.186   6.286   4.165
32179W        W91616  30.115   3.802   1.449
32180W        W91617  21.066  31.536   0.251
32181W        W91618  43.294  15.249  12.927
32182W        W91619  41.431   3.261   2.193
32183W        W91620  32.117  24.209   5.601
32184W        W91621  29.097   1.901   0.258
32185W        W91622  14.163  20.557  11.471
32186W        W91623  22.523  42.330   2.842
32187W        W91624   4.254  23.071   4.765
32188W        W91625  29.589  30.419  13.491
32189W        W91626   9.258   8.730  14.448
32190W        W91627  39.516   5.368  11.924
32191W        W91628  29.072  37.908   5.799
32192W        W91629   4.817  25.554  13.003
32193W        W91630   7.808  25.078  12.022
32194W        W91631  15.093  37.984   2.808
32195W        W91632  13.773  11.131   0.261
32196W        W91633   5.742  39.525   4.256
32197W        W91634  42.908  13.167  12.503
32198W        W91635  44.952   7.285   0.891
32199W        W91636  39.867   1.393   3.687
32200W        W91637  27.068   1.825   3.308
32201W        W91638   5.217   5.743   4.150
32202W        W91639  11.312  41.988  10.480
32203W        W91640  44.901   8.741  13.835
32204W        W91641  14.696   0.283  13.026
32205W        W91642  33.902  39.516  13.953
32206W        W91643  12.827  19.234   2.180
32207W        W91644   4.296  43.299  11.419
32208W        W91645  19.252  44.479  12.905
32209W        W91646   4.279   8.823   0.314
32210W        W91647  31.990  28.096  14.936
32211W        W91648  29.044  37.043  10.517
32212W        W91649  39.877  18.745   3.767
32213W        W91650  30.105  21.161   0.333
32214W        W91651  37.967  25.690   3.220
32215W        W91652   5.723  41.394  13.404
32216W        W91653  14.325  28.100   4.832
32217W        W91654  11.354   2.448  13.498
32218W        W91655  31.150  40.332   0.273
32219W        W91656  32.429  24.153   2.211
32220W        W91657  22.235  27.107   0.405
32221W        W91658   0.870  23.170  14.419
32222W        W91659  30.629  31.582   0.842
32223W        W91660  23.011  41.500  14.775
32224W        W91661   6.281  27.190   2.762
32225W        W91662  28.934  29.126   4.801
32226W        W91663  12.667  10.208   4.333
32227W        W91664  15.299  16.250  10.409
32228W        W91665   3.402  36.096   1.408
32229W        W91666   8.300  22.225   0.316
32230W        W91667  37.447  35.453  14.303
32231W        W91668  30.998  40.490   4.188
32232W        W91669  21.239  26.097  12.086
32233W        W91670  10.652   2.721   4.610
32234W        W91671  42.412   9.798  14.440
32235W        W91672  43.322   7.302  13.392
32236W        W91673  39.433   1.425  12.411
32237W        W91674  31.001  20.726  13.457
32238W        W91675  27.467  31.896   1.922
32239W        W91676  40.505  14.226   4.718
32240W        W91677   3.422  35.029  13.379
32241W        W91678  25.013  28.068  13.420
32242W        W91679  25.996  39.890   5.271
32243W        W91680  26.531  10.281   2.333
32244W        W91681  27.505  13.306   1.816
32245W        W91682  20.688  39.900   2.791
32246W        W91683  21.080   9.152  14.819
32247W        W91684   5.906  15.722  13.396
32248W        W91685  28.080   3.951  10.979
32249W        W91686  33.512  11.157  14.758
32250W        W91687  40.522  20.716  12.028
32251W        W91688  42.930  24.179   2.375
32252W        W91689   0.418   6.320   0.732
32253W        W91690  20.711  31.940  14.763
32254W        W91691  32.002  32.550   3.736
32255W        W91692  23.519   1.401   4.148
32256W        W91693   1.797   2.280  13.038
32257W        W91694   0.404  19.188  11.613
32258W        W91695  21.248  32.473   4.741
32259W        W91696  43.857  23.623  13.823
32260W        W91697  36.973  22.125   2.308
32261W        W91698   1.934  37.378   4.250
32262W        W91699  20.183  44.489  13.531
32263W        W91700  34.083  35.898  13.388
32264W        W91701  33.118   2.876   1.867
32265W        W91702  28.671  43.921   0.455
32266W        W91703  25.077  29.538  10.413
32267W        W91704  37.519  38.527   3.753
32268W        W91705  34.974  13.197   1.408
32269W        W91706  43.802  42.947  13.541
32270W        W91707  43.490  30.527  11.511
32271W        W91708   2.425  28.581   1.310
32272W        W91709  11.358   9.854   1.358
32273W        W91710  19.212  17.746   3.361
32274W        W91711  30.032  41.806  14.881
32275W        W91712  36.384  40.891   2.842
32276W        W91713  33.526  38.402  12.969
32277W        W91714  25.185  23.994   4.751
32278W        W91715  15.236  14.310  14.928
32279W        W91716  38.453  19.698  12.990
32280W        W91717  24.568  29.499  12.540
32281W        W91718  15.161  26.956   4.208
32282W        W91719   4.754  37.475   3.226
32283W        W91720  23.533  22.621   1.890
32284W        W91721   9.153  32.943   0.270
32285W        W91722  25.669  23.572  12.418
32286W        W91723  23.162  15.650   0.911
32287W        W91724  42.795   0.751  14.312
32288W        W91725  31.626  43.316  14.375
32289W        W91726  10.257  40.836   0.775
32290W        W91727   9.379   7.693  13.452
32291W        W91728   0.815  30.473  12.481
32292W        W91729  35.015  39.381   0.465
32293W        W91730  12.854  32.606  11.041
32294W        W91731   6.298  43.869  13.966
32295W        W91732   8.388  42.872  13.053
32296W        W91733   4.298  29.030  13.015
32297W        W91734  15.151   9.770  13.064
32298W        W91735  23.135  22.684  11.938
32299W        W91736  18.742  25.481  13.418
32300W        W91737   6.894   9.726   3.259
32301W        W91738  37.973  19.604   4.211
32302W        W91739  34.870  38.028   2.854
32303W        W91740   2.753   1.857  12.542
32304W        W91741  21.263  16.300   0.866
32305W        W91742  27.537  44.393   4.803
32306W        W91743  16.164  29.124   0.899
32307W        W91744  31.492   6.261   1.433
32308W        W91745  22.115  20.601   3.149
32309W        W91746  36.047  34.051   4.223
32310W        W91747  22.564  10.647   4.352
32311W        W91748   3.288  21.077  13.862
32312W        W91749   2.402  22.191   4.613
32313W        W91750  29.441  14.687  11.466
32314W        W91751   6.202   1.812   3.653
32315W        W91752   5.932  26.469  13.338
32316W        W91753  18.728   7.188  13.351
32317W        W91754   4.338  22.712  12.495
32318W        W91755  10.725  41.895   0.922
32319W        W91756  40.339  24.485  11.521
32320W        W91757  27.598  25.136  14.780
32321W        W91758  18.263  34.516   2.872
32322W        W91759  26.648  35.101   3.637
32323W        W91760  20.245  10.235  11.891
32324W        W91761  31.132  33.959   1.754
32325W        W91762  33.015  26.151  14.435
32326W        W91763  41.468  38.470  13.387
32327W        W91764   1.763  44.303   4.289
32328W        W91765  42.413   7.731  13.337
32329W        W91766   7.352  40.815   1.390
32330W        W91767  10.304  38.552   0.287
32331W        W91768  27.134  40.384  10.449
32332W        W91769  29.545  30.619   2.795
32333W        W91770  35.908  15.750   4.139
32334W        W91771  21.108  11.722   2.321
32335W        W91772  11.184  11.363   0.828
32336W        W91773  10.804  43.333   0.905
32337W        W91774  20.090  41.408   5.181
32338W        W91775   8.679  39.859  12.849
32339W        W91776  20.740  24.601   1.898
32340W        W91777  23.017  39.825  13.325
32341W        W91778  24.092  34.072   2.892
32342W        W91779  40.851  24.554  14.760
32343W        W91780   5.739   5.238  11.476
32344W        W91781  11.697  30.004  10.406
32345W        W91782  44.502   5.359  13.531
32346W        W91783  10.272  39.478   0.395
32347W        W91784  15.276  41.974   1.352
32348W        W91785  14.298   5.283   1.834
32349W        W91786  29.918  42.987   1.236
32350W        W91787  29.014   2.348  11.450
32351W        W91788  38.536  34.479   3.839
32352W        W91789  39.998  35.055   1.791
32353W        W91790  21.211  23.053   5.245
32354W        W91791  20.606  36.932   0.256
32355W        W91792   3.928  43.841   0.419
32356W        W91793  41.469  13.678  13.372
32357W        W91794  33.047  34.484  11.913
32358W        W91795  17.064   7.313   9.944
32359W        W91796  10.819  10.806  12.474
32360W        W91797   7.723  11.352   4.203
32361W        W91798  35.467  15.791  12.400
32362W        W91799  19.603  34.374  13.925
32363W        W91800  32.138  11.761  11.907
32364W        W91801  26.543  18.238  14.813
32365W        W91802   2.452   2.947  13.319
32366W        W91803  37.012   7.282  13.393
32367W        W91804  18.236  22.166   1.370
32368W        W91805  26.021  25.114   0.481
32369W        W91806  29.591  37.991  14.443
32370W        W91807  38.424  15.197  12.917
32371W        W91808  22.169  44.399   3.184
32372W        W91809  27.057   1.443  14.307
32373W        W91810  21.600  35.966   0.390
32374W        W91811  36.403  29.515  14.883
32375W        W91812  44.280  37.488   1.840
32376W        W91813  34.397   5.202  14.414
32377W        W91814  12.623  25.631  11.125
32378W        W91815   5.253  15.105  14.963
32379W        W91816  44.419   5.324  12.381
32380W        W91817  24.639  33.098  14.328
32381W        W91818   7.716  42.968  14.386
32382W        W91819  36.522  41.879   0.806
32383W        W91820  30.033  10.261   1.920
32384W        W91821  15.612   0.931  12.963
32385W        W91822   5.836  37.569  10.539
32386W        W91823  27.077  25.065   0.451
32387W        W91824  42.995   0.923   0.897
32388W        W91825   9.828  11.275  11.901
32389W        W91826   6.890  18.634   1.699
32390W        W91827  32.475  25.071  12.445
32391W        W91828  41.883  36.550  13.361
32392W        W91829  26.644  14.214  12.870
32393W        W91830  44.974  24.635   0.298
32394W        W91831  29.472   8.763   2.776
32395W        W91832  32.058  42.302   4.300
32396W        W91833  37.841  12.339   3.822
32397W        W91834   7.906   1.785   0.460
32398W        W91835  42.809  30.154  14.302
32399W        W91836  20.622  12.791   1.290
32400W        W91837  19.203  42.928  11.603
32401W        W91838  40.503  40.910   2.750
32402W        W91839   3.327  10.374  13.059
32403W        W91840  23.235   3.412   0.954
32404W        W91841  21.741  18.201   0.924
32405W        W91842  36.371  33.073  13.374
32406W        W91843   7.271  22.115   1.327
32407W        W91844   8.370  36.915   0.443
32408W        W91845  29.633   0.821  10.080
32409W        W91846  40.844  40.834  12.364
32410W        W91847  31.403   3.234   0.469
32411W        W91848  43.894   0.455   3.294
32412W        W91849  18.770  37.378  11.922
32413W        W91850  13.693  28.500   1.227
32414W        W91851  20.654  40.914   0.906
32415W        W91852  44.848  40.458  12.446
32416W        W91853  33.465  41.523  10.125
32417W        W91854  44.965  34.596  12.401
32418W        W91855  16.686   2.759  13.403
32419W        W91856  10.829  16.649  13.511
32420W        W91857  33.615  14.717  12.967
32421W        W91858  38.556  24.062  11.508
32422W        W91859  17.628  26.587   2.899
32423W        W91860  29.467   6.393   4.182
32424W        W91861   7.799  23.192   1.827
32425W        W91862  42.851  24.658   3.836
32426W        W91863  15.269  17.096   0.366
32427W        W91864  43.416  21.706   3.848
32428W        W91865  20.675  16.776  13.007
32429W        W91866  26.015   3.810   3.866
32430W        W91867  30.967  22.238   3.217
32431W        W91868  15.164  27.942  10.554
32432W        W91869  15.269  34.560   4.212
32433W        W91870  11.319  15.778   1.354
32434W        W91871  16.591  42.306   3.692
32435W        W91872  26.629   4.856   2.411
32436W        W91873   5.862  22.226  10.535
32437W        W91874  34.973   6.752  11.597
32438W        W91875  40.027  22.646  10.443
32439W        W91876   1.246  24.973   0.954
32440W        W91877  24.993   0.842  12.545
32441W        W91878  18.160  21.550  11.991
32442W        W91879   7.737  43.402   1.875
32443W        W91880  42.449   3.224   0.455
32444W        W91881  24.999  39.988  10.478
32445W        W91882  44.414   6.275   5.126
32446W        W91883  24.529   9.853  10.932
32447W        W91884  38.916  21.714  12.457
32448W        W91885  18.622   4.860   0.776
32449W        W91886  30.425  44.394   4.781
32450W        W91887  35.594  16.809   2.862
32451W        W91888   0.382  24.996   5.100
32452W        W91889   3.269  20.175  14.997
32453W        W91890  28.115  14.327   1.337
32454W        W91891  36.975  23.536  13.877
32455W        W91892   6.226  36.078  12.911
32456W        W91893  10.662   7.666   3.315
32457W        W91894   4.337  33.053   1.378
32458W        W91895  11.856   4.710   1.853
32459W        W91896  30.487  24.125  12.404
32460W        W91897  16.192  39.855  14.439
32461W        W91898  32.034   9.262  12.452
32462W        W91899  44.766   9.150  13.537
32463W        W91900  10.732  30.021  13.871
32464W        W91901  33.947  34.392  14.508
32465W        W91902  16.175  26.133  13.813
32466W        W91903   2.765  18.228  11.067
32467W        W91904  17.627  42.349  10.042
32468W        W91905   0.290  38.905   4.232
32469W        W91906  36.407  12.812   4.118
32470W        W91907   8.842  30.625  11.890
32471W        W91908  43.795  14.609  11.437
32472W        W91909  10.384  11.317  13.883
32473W        W91910  16.123  35.492   3.375
32474W        W91911  16.140  39.415   2.391
32475W        W91912  10.313  29.134  10.912
32476W        W91913  40.901  12.208   3.286
32477W        W91914   8.706  31.127  10.991
32478W        W91915  11.202   2.802  10.932
32479W        W91916  15.146  21.218  10.594
32480W        W91917   5.864  14.825  14.329
32481W        W91918  20.589  24.222  11.973
32482W        W91919   5.348  11.761  10.520
32483W        W91920  44.971  39.528   2.800
32484W        W91921  11.749  12.214   3.810
32485W        W91922  30.967  11.744  12.032
32486W        W91923  13.219  34.494   2.414
32487W        W91924   0.905  27.463  12.581
32488W        W91925   2.955  31.580   3.821
32489W        W91926   7.751  30.068  11.479
32490W        W91927  41.332   0.922   1.732
32491W        W91928  19.249  10.640   1.858
32492W        W91929  42.424   8.766  13.886
32493W        W91930  36.025  43.330   3.353
32494W        W91931  14.305  29.637   4.792
32495W        W91932   3.421   2.938  14.766
32496W        W91933  34.441   5.728  12.837
32497W        W91934  28.929  17.698  14.853
32498W        W91935  23.516  10.747   4.127
32499W        W91936  31.458  12.348   4.643
32500W        W91937   0.359  19.732   3.735
32501W        W91938  41.349  44.794  12.082
32502W        W91939   7.867  44.378  13.849
32503W        W91940   2.343   8.812   4.834
32504W        W91941  10.263  34.090   1.714
32505W        W91942  25.032   4.842  13.439
32506W        W91943  39.940  14.777   2.205
32507W        W91944  39.035  12.819   3.865
32508W        W91945  42.924   7.226   3.204
32509W        W91946  36.024  33.566   2.804
32510W        W91947   8.294  11.177   2.747
32511W        W91948  21.560  35.386   4.353
32512W        W91949  13.112  26.058  10.898
32513W        W91950  12.143  15.091  14.904
32514W        W91951  36.892  41.341  11.024
32515W        W91952  24.127  36.490  10.501
32516W        W91953   7.738  31.942  10.987
32517W        W91954   9.237  41.943   3.854
32518W        W91955   9.289  28.607  13.307
32519W        W91956  43.911  43.412   3.780
32520W        W91957  27.086   2.799  11.527
32521W        W91958  14.208   0.407   3.860
32522W        W91959  10.785  43.372   4.836
32523W        W91960  34.526  21.228  13.930
32524W        W91961  18.568  11.638  13.932
32525W        W91962  20.647  33.917   2.878
32526W        W91963  41.938  18.762   1.897
32527W        W91964  31.956  40.879  10.463
32528W        W91965  11.214  25.649   4.129
32529W        W91966  35.961   3.371   0.353
32530W        W91967  37.877  29.155  13.808
32531W        W91968  18.294  33.967  10.513
32532W        W91969   7.839  22.619  14.509
32533W        W91970  15.112  44.874   4.176
32534W        W91971   9.682  25.612   1.798
32535W        W91972  34.551  28.636  11.434
32536W        W91973  14.165  31.441   0.412
32537W        W91974  30.935   8.898   1.811
32538W        W91975  37.468   2.751   4.598
32539W        W91976  38.496  19.260   0.821
32540W        W91977  21.167  22.131   5.625
32541W        W91978  19.631   9.250  12.061
32542W        W91979  43.958  21.533  11.445
32543W        W91980  34.520  34.379   0.834
32544W        W91981  31.021  11.273  12.912
32545W        W91982  17.213   5.716  13.538
32546W        W91983  39.981  14.775  11.591
32547W        W91984  12.227  22.196   3.305
32548W        W91985  12.203  11.845  13.965
32549W        W91986  13.797  23.684  11.024
32550W        W91987   9.193  14.797   3.157
32551W        W91988  38.520  22.579  14.322
32552W        W91989  20.584   9.279  12.500
32553W        W91990  15.156  22.638   4.787
32554W        W91991   1.433  37.392  14.334
32555W        W91992  33.888  32.565  14.382
32556W        W91993  21.080  28.990  10.578
32557W        W91994  13.680  14.241  11.877
32558W        W91995  13.190  29.077   3.688
32559W        W91996  39.419  26.493   2.179
32560W        W91997   5.762  24.577   2.307
32561W        W91998  41.976  33.994  11.388
32562W        W91999  34.037   4.382   0.258
32563W        W92000  38.993  27.133  13.380
32564W        W92001  25.495  15.770  13.471
32565W        W92002  23.553  15.765  14.438
32566W        W92003  30.433  13.841   1.728
32567W        W92004  33.959  27.991   3.379
32568W        W92005  12.722  18.757   1.792
32569W        W92006  43.878  38.557   2.361
32570W        W92007  29.158   0.981   1.315
32571W        W92008  28.545  38.884  14.448
32572W        W92009  35.855  16.726  13.820
32573W        W92010   3.217  30.925  14.292
32574W        W92011  35.477  18.605  11.873
32575W        W92012   8.243   9.750  12.943
32576W        W92013  20.586   6.835  14.009
32577W        W92014   7.252  18.685  10.495
32578W        W92015  36.923  38.552  11.008
32579W        W92016  21.607  22.098   2.339
32580W        W92017  43.433  42.819   4.799
32581W        W92018   1.302  21.756  11.503
32582W        W92019  18.134  34.471  12.064
32583W        W92020   3.406  39.953   0.367
32584W        W92021  43.778  13.644   2.370
32585W        W92022   5.815  25.169  10.049
32586W        W92023   0.890  26.078  14.893
32587W        W92024   8.692  23.716  12.346
32588W        W92025  43.013  27.117   0.401
32589W        W92026  17.760  29.168   1.272
32590W        W92027   0.911  23.221  13.995
32591W        W92028   0.938  42.396  10.983
32592W        W92029  11.722  28.079  12.909
32593W        W92030  21.749  18.640   3.727
32594W        W92031  34.091   4.260  11.883
32595W        W92032  32.497  38.021   1.376
32596W        W92033  32.924  32.887   4.143
32597W        W92034  19.719  11.691  11.027
32598W        W92035  31.427   7.343   3.741
32599W        W92036  36.451   5.798   1.424
32600W        W92037   2.946  38.564   4.708
32601W        W92038   9.825  17.590   3.677
32602W        W92039   4.441  19.253   1.852
32603W        W92040  35.373  30.618  12.549
32604W        W92041  40.415  26.560   3.733
32605W        W92042  44.801  38.558   1.296
32606W        W92043  11.187  29.437   1.699
32607W        W92044  21.169   1.306  12.095
32608W        W92045  28.572  23.670   9.541
32609W        W92046  11.336  25.981  12.426
32610W        W92047  28.060  19.282   0.853
32611W        W92048  21.084   0.880  10.629
32612W        W92049  12.793  14.120  12.572
32613W        W92050  11.663  35.939   9.959
32614W        W92051   8.267  34.007  14.939
32615W        W92052  41.466  17.696  14.391
32616W        W92053   2.388  17.630   0.296
32617W        W92054   7.691  41.473  10.964
32618W        W92055  39.841  29.150   2.281
32619W        W92056  39.333  27.153   2.405
32620W        W92057   6.785   9.155  13.995
32621W        W92058  30.574   8.250   3.679
32622W        W92059  17.302  28.451   3.317
32623W        W92060  12.280  13.786  14.455
32624W        W92061   4.382  40.957   2.233
32625W        W92062  32.438  12.248  12.486
32626W        W92063  42.848   4.345   4.265
32627W        W92064  35.583  27.652  11.083
32628W        W92065  15.675   9.322  11.470
32629W        W92066  34.463   6.233   1.262
32630W        W92067  33.030   9.852   2.310
32631W        W92068  17.123  27.461  11.993
32632W        W92069  24.571  33.078  11.439
32633W        W92070  27.149   2.878   4.827
32634W        W92071  27.041  33.959   0.841
32635W        W92072  35.899  28.608   3.755
32636W        W92073   8.724  43.321  12.039
32637W        W92074  40.018  32.520   4.761
32638W        W92075  38.947  38.938  13.323
32639W        W92076   4.737  14.707  10.946
32640W        W92077  32.398  24.552   3.752
32641W        W92078  44.339  15.182   4.299
32642W        W92079  27.565  19.677  13.349
32643W        W92080   7.172  27.478   3.196
32644W        W92081  12.664   4.433   2.686
32645W        W92082  30.436  31.904   0.841
32646W        W92083  38.414  39.423  10.477
32647W        W92084  23.493  43.004  11.457
32648W        W92085   1.765  26.031  13.496
32649W        W92086  33.444  35.975  14.851
32650W        W92087  18.078  33.425   3.770
32651W        W92088  13.807  20.655  13.943
32652W        W92089  26.522   3.874  11.954
32653W        W92090  14.300  44.966  10.607
32654W        W92091   0.338  13.123  12.854
32655W        W92092  28.615  13.644  12.079
32656W        W92093  31.936  16.632   3.709
32657W        W92094  15.690  38.371   2.806
32658W        W92095  14.628   1.849  11.452
32659W        W92096  35.981  11.276  14.321
32660W        W92097  33.098   9.211  13.317
32661W        W92098  35.368  35.959  12.927
32662W        W92099   5.753  14.653  13.996
32663W        W92100  20.720  22.710  14.354
32664W        W92101  19.207   4.883  11.431
32665W        W92102  21.161  16.114   1.432
32666W        W92103  15.604  43.402   0.384
32667W        W92104  34.105   7.186  11.398
32668W        W92105  30.624  18.791  10.933
32669W        W92106   4.433  30.914  10.480
32670W        W92107  29.484  13.163  13.844
32671W        W92108  37.470  39.377  12.390
32672W        W92109   8.168  21.248  11.519
32673W        W92110  28.476  25.978   3.840
32674W        W92111  35.540  19.589   2.289
32675W        W92112  34.414  24.179   2.744
32676W        W92113  30.537  36.897  13.543
32677W        W92114   5.301  42.802   3.675
32678W        W92115  30.435  38.405   0.727
32679W        W92116  43.292   1.870   3.681
32680W        W92117  33.528   6.883   0.306
32681W        W92118  41.464  34.509   2.342
32682W        W92119  28.496   0.378   1.878
32683W        W92120  42.375   1.318  14.884
32684W        W92121  38.456  37.479  12.343
32685W        W92122   7.831   7.780  13.507
32686W        W92123  16.605  12.616   0.926
32687W        W92124   8.174  27.005  11.588
32688W        W92125  24.699  10.698   0.316
32689W        W92126  42.958   4.881  10.414
32690W        W92127  41.933  22.200   2.786
32691W        W92128  18.237  26.072   4.226
32692W        W92129  41.495  15.257  13.800
32693W        W92130  32.541  23.049   2.399
32694W        W92131  28.642  12.316   5.670
32695W        W92132  30.591  40.424  13.483
32696W        W92133  23.168  36.966   4.295
32697W        W92134   8.180  38.900   2.874
32698W        W92135  30.488  13.714  11.864
32699W        W92136  12.762  15.129   4.271
32700W        W92137   7.734  10.687  13.843
32701W        W92138  17.262   8.317   3.673
32702W        W92139   7.399  13.714  11.433
32703W        W92140  32.509  14.291  13.398
32704W        W92141  37.557  43.766   3.216
32705W        W92142  32.630  20.141   2.703
32706W        W92143  35.372  13.130   3.743
32707W        W92144  28.460  17.586   4.300
32708W        W92145   6.259  34.396   1.776
32709W        W92146   3.406  33.897   4.284
32710W        W92147  22.657  44.261  13.865
32711W        W92148  40.856  26.967  14.920
32712W        W92149   3.952  25.533  14.343
32713W        W92150   6.713  11.709   4.788
32714W        W92151   4.723   8.739   0.395
32715W        W92152  19.763  31.052  11.427
32716W        W92153  20.146  14.131   3.636
32717W        W92154  40.355   7.678   1.870
32718W        W92155  15.295  32.631   1.408
32719W        W92156  43.274  34.895  10.628
32720W        W92157  21.252  19.040   1.867
32721W        W92158  40.368  26.530  11.593
32722W        W92159  13.314  31.527   1.252
32723W        W92160  20.528  20.118   0.452
32724W        W92161  36.398  38.976  11.979
32725W        W92162  28.562  15.282   0.437
32726W        W92163  26.605  17.667   3.152
32727W        W92164  20.065   4.898  13.943
32728W        W92165  37.452  10.648  12.978
32729W        W92166  10.733   2.282   0.341
32730W        W92167   1.784  37.572  13.871
32731W        W92168   7.190  40.377   2.722
32732W        W92169  21.519  18.173  12.983
32733W        W92170   5.284  10.705  13.328
32734W        W92171  34.903  18.076  10.404
32735W        W92172  36.569  42.343   5.204
32736W        W92173   1.439  23.091  14.488
32737W        W92174   7.848  43.961  10.442
32738W        W92175  18.560   3.887  12.942
32739W        W92176  11.351  12.809   3.815
32740W        W92177  33.919   3.752  10.499
32741W        W92178  39.966  16.161  13.459
32742W        W92179  21.072   4.311   0.736
32743W        W92180  32.587  31.008  12.052
32744W        W92181  15.583  24.149  10.110
32745W        W92182   3.953   7.896  14.877
32746W        W92183  15.689  20.079   0.396
32747W        W92184   9.371  34.039  12.944
32748W        W92185  36.079   2.859   0.378
32749W        W92186   4.245   7.798   2.305
32750W        W92187  32.607  29.539  14.295
32751W        W92188  19.235  22.088  10.913
32752W        W92189  28.435  37.386  11.476
32753W        W92190  19.683  14.769   1.324
32754W        W92191  20.749   7.243   0.328
32755W        W92192   0.493   0.373   0.752
32756W        W92193  30.465  13.661  13.330
32757W        W92194  38.954  29.589  13.466
32758W        W92195   1.845  23.210  13.792
32759W        W92196  33.069  40.960  12.431
32760W        W92197  18.643   9.237  11.105
32761W        W92198  14.733  27.982  10.535
32762W        W92199  25.583  26.479   2.795
32763W        W92200  12.350   7.882  12.919
32764W        W92201  30.450  41.919  13.540
32765W        W92202  33.514   9.855  14.807
32766W        W92203  43.450  44.955  12.941
32767W        W92204  37.526  13.710  10.932
32768W        W92205  25.211  35.992   3.336
32769W        W92206  26.500   0.324  13.519
32770W        W92207  21.134   1.763  10.041
32771W        W92208  11.218  37.842   3.650
32772W        W92209  25.072  13.764  12.992
32773W        W92210   2.344  26.562  12.841
32774W        W92211  35.601  24.550  11.492
32775W        W92212  10.286  41.831   3.242
32776W        W92213  29.648  20.057  14.361
32777W        W92214   7.390  19.656   0.920
32778W        W92215  11.184  14.714   0.877
32779W        W92216  25.041  23.589  13.845
32780W        W92217  13.774  36.425  10.639
32781W        W92218  26.015   9.305   5.661
32782W        W92219   1.462  19.079   0.775
32783W        W92220  43.356  18.227   3.184
32784W        W92221  22.697  31.625  12.507
32785W        W92222   5.359   8.793  12.569
32786W        W92223  30.122   8.857  12.447
32787W        W92224  40.039  10.352  14.927
32788W        W92225  32.507   5.312  10.503
32789W        W92226  18.172   6.227   2.366
32790W        W92227  19.585   6.706   4.237
32791W        W92228  35.577  11.203  14.488
32792W        W92229  39.486  15.091  13.007
32793W        W92230  31.998  33.904  12.885
32794W        W92231  44.965  29.031  14.992
32795W        W92232  44.004  29.581   3.152
32796W        W92233   9.220  20.188   2.799
32797W        W92234  38.988   4.435   2.262
32798W        W92235   6.227  35.913  11.471
32799W        W92236  10.255   6.887   3.371
32800W        W92237  39.926   4.259   3.168
32801W        W92238   0.972  35.561   4.627
32802W        W92239  30.122  32.548   3.384
32803W        W92240   7.900   3.757   0.883
32804W        W92241  16.633   8.364  14.973
32805W        W92242  23.668  19.207   1.328
32806W        W92243  22.130  29.434   2.242
32807W        W92244  43.941  41.326  12.971
32808W        W92245  14.138  28.184   0.949
32809W        W92246   8.670  18.164   3.742
32810W        W92247   6.261   6.264  14.898
32811W        W92248  37.376  33.545  12.511
32812W        W92249  10.739  42.478  10.894
32813W        W92250  25.118   0.941  14.808
32814W        W92251   5.316  33.386   9.984
32815W        W92252   3.225  29.033  11.397
32816W        W92253  42.418  17.693   0.246
32817W        W92254   5.797  40.501  10.922
32818W        W92255  26.200  38.957   3.175
32819W        W92256  18.207  37.932  11.512
32820W        W92257  41.471   2.749   3.719
32821W        W92258  24.152  23.678  14.299
32822W        W92259   4.941   5.319   1.733
32823W        W92260  23.594   6.215   0.960
32824W        W92261   8.881   5.915  10.599
32825W        W92262  12.172  41.808  13.545
32826W        W92263   3.935  24.224   2.835
32827W        W92264  16.169   3.902   3.219
32828W        W92265  40.809  44.262  11.942
32829W        W92266  31.460  14.787   0.294
32830W        W92267  32.465  24.570  14.914
32831W        W92268  34.928  26.182   2.243
32832W        W92269  34.908   6.199  12.463
32833W        W92270  36.932  42.334   0.401
32834W        W92271  28.134  29.146   9.945
32835W        W92272  16.175  27.097   0.781
32836W        W92273  40.873  38.013  13.348
32837W        W92274  29.460  31.985   4.129
32838W        W92275  33.416  28.938   1.858
32839W        W92276   1.893  25.614   2.273
32840W        W92277   9.800  26.954   3.837
32841W        W92278  32.058  44.421   1.934
32842W        W92279   1.350  26.692   3.728
32843W        W92280  41.425   3.894  11.428
32844W        W92281  24.718  23.221   1.716
32845W        W92282  30.498  17.732  14.424
32846W        W92283  31.404  19.233   0.370
32847W        W92284  36.992  34.592  11.119
32848W        W92285  21.577  13.268   3.749
32849W        W92286  40.956  27.019   2.333
32850W        W92287  41.862  10.832  14.992
32851W        W92288  43.835   4.227   1.910
32852W        W92289  36.438  21.128  11.575
32853W        W92290  21.236  19.561   2.846
32854W        W92291  25.178   7.790  11.076
32855W        W92292   3.222  11.843  13.895
32856W        W92293  24.046  12.808  14.835
32857W        W92294  31.123  31.578   3.350
32858W        W92295  36.355   7.179   4.216
32859W        W92296  30.098  26.533   3.259
32860W        W92297  40.435  21.114  11.043
32861W        W92298   8.682  23.117  14.277
32862W        W92299  17.303  31.421  10.977
32863W        W92300  44.390  25.548  14.815
32864W        W92301  38.963  29.931  11.601
32865W        W92302  30.066  16.264   3.364
32866W        W92303  10.359  24.701  13.418
32867W        W92304  29.074  12.831   0.261
32868W        W92305   6.340  15.734   3.856
32869W        W92306  26.998   9.371  11.041
32870W        W92307  41.489  20.188   4.337
32871W        W92308  31.987  24.998   0.733
32872W        W92309  40.047  33.031   2.241
32873W        W92310  39.484  21.259   4.271
32874W        W92311   5.855  41.791   3.679
32875W        W92312  42.385   7.287   2.679
32876W        W92313  24.584   1.965  13.507
32877W        W92314   2.456  40.007  10.127
32878W        W92315  17.281  17.127   9.612
32879W        W92316  12.331  14.094   1.383
32880W        W92317  42.389  30.056  11.088
32881W        W92318  35.964  29.528   4.622
32882W        W92319  42.880  37.912  11.011
32883W        W92320  20.743   1.739  10.891
32884W        W92321   5.854  12.756  13.312
32885W        W92322   8.338   8.300   2.743
32886W        W92323   2.277   6.873   2.201
32887W        W92324  20.600   4.712   9.945
32888W        W92325   5.247  28.484  13.932
32889W        W92326  42.393   8.900   3.295
32890W        W92327  16.228  11.251   4.743
32891W        W92328   6.278  25.163   1.851
32892W        W92329  15.092  30.579   3.865
32893W        W92330  13.330  42.474  12.972
32894W        W92331  22.221  19.094   0.735
32895W        W92332   8.848   0.895  14.810
32896W        W92333   2.241  34.028   1.753
32897W        W92334  19.597  37.369  13.530
32898W        W92335  15.265  21.622  10.967
32899W        W92336  25.093  27.675  11.941
32900W        W92337  10.251  35.907  10.905
32901W        W92338  40.332  23.531   5.133
32902W        W92339  25.631  29.625  12.975
32903W        W92340  23.597  23.507   1.732
32904W        W92341  41.879  24.621  12.848
32905W        W92342  11.345  33.106  14.330
32906W        W92343   0.770   2.419   3.843
32907W        W92344   7.261  19.550   0.470
32908W        W92345  42.427  15.151   0.912
32909W        W92346   2.436  35.967  14.993
32910W        W92347  22.202  44.819  11.980
32911W        W92348  28.021  33.011  12.893
32912W        W92349  41.006  11.288  13.500
32913W        W92350   9.807  44.395  13.814
32914W        W92351   6.913   2.357  14.332
32915W        W92352  40.020  36.035   2.179
32916W        W92353   6.871  23.988  11.577
32917W        W92354  26.535  13.826   3.816
32918W        W92355   2.961   8.737   4.799
32919W        W92356  22.195   2.465  13.818
32920W        W92357   7.771  20.567  10.480
32921W        W92358   6.360   9.683  14.437
32922W        W92359   8.294  23.699   0.796
32923W        W92360  33.578  39.883   3.366
32924W        W92361  40.541   3.218   2.275
32925W        W92362  17.170  10.775   2.366
32926W        W92363  11.735  13.726   4.710
32927W        W92364  40.457  41.939   3.733
32928W        W92365  37.393  12.771  11.056
32929W        W92366  38.360  24.710   1.851
32930W        W92367  21.211  30.973   5.238
32931W        W92368   5.290  41.871  11.881
32932W        W92369  17.734  22.619   4.234
32933W        W92370  33.572  10.779   3.228
32934W        W92371  41.017  12.212   2.382
32935W        W92372  18.735  11.789   4.168
32936W        W92373  24.497  25.064  12.571
32937W        W92374   1.732  44.996   1.902
32938W        W92375   1.418  34.115  10.435
32939W        W92376  29.609   2.785   3.686
32940W        W92377   5.280  34.989  12.078
32941W        W92378  40.534  24.499   0.786
32942W        W92379  10.765   5.898  13.959
32943W        W92380  18.634  21.657  12.826
32944W        W92381  19.135  10.142   1.285
32945W        W92382   3.751  27.085  11.449
32946W        W92383  44.470  34.975   0.883
32947W        W92384  28.647  44.005  11.074
32948W        W92385  31.534   2.366   4.785
32949W        W92386   1.377  42.019  13.817
32950W        W92387  25.093   9.243   9.922
32951W        W92388  32.896  24.179   2.226
32952W        W92389  12.815  17.179  11.121
32953W        W92390  20.638  14.227   3.271
32954W        W92391  31.025   9.222   0.805
32955W        W92392  23.551  21.645   2.853
32956W        W92393  42.522  24.190   0.390
32957W        W92394  40.859  39.911  14.897
32958W        W92395  13.638  28.977   1.277
32959W        W92396  16.708  11.718  13.860
32960W        W92397  16.202  14.593  12.073
32961W        W92398   2.885  20.173   2.213
32962W        W92399   5.275  14.662   2.749
32963W        W92400  33.548   2.730  11.386
32964W        W92401  37.572  22.629  11.064
32965W        W92402  17.217  29.527   3.818
32966W        W92403   4.785   8.220   2.883
32967W        W92404   6.825  35.511  11.966
32968W        W92405  43.307  39.936  13.443
32969W        W92406  32.910  18.100  11.978
32970W        W92407   3.731   7.202  12.000
32971W        W92408   6.687  10.641   3.726
32972W        W92409  15.686   9.672  10.594
32973W        W92410  37.987  23.204   2.720
32974W        W92411  33.622  20.740   1.337
32975W        W92412  16.159   3.735   4.338
32976W        W92413  40.993  39.938  12.836
32977W        W92414  16.305  34.404  12.869
32978W        W92415  38.856  43.327  14.961
32979W        W92416   7.722  15.590   4.649
32980W        W92417   1.332   0.802   1.767
32981W        W92418  22.529   9.743  11.063
32982W        W92419  39.353  14.611  11.597
32983W        W92420  41.864  23.012   1.294
32984W        W92421  12.840   5.898  12.461
32985W        W92422  37.058  38.884   4.723
32986W        W92423  20.677  27.953  10.643
32987W        W92424  23.560  40.824  14.865
32988W        W92425  35.367   6.251   0.409
32989W        W92426  25.133  35.463   0.940
32990W        W92427  15.625   2.334   4.737
32991W        W92428  10.678  18.667  14.364
32992W        W92429  10.289  17.297   1.338
32993W        W92430  34.901  16.143  10.514
32994W        W92431   5.801  13.765   4.192
32995W        W92432  34.915  30.123  13.913
32996W        W92433  40.484  18.206  13.847
32997W        W92434  23.572  29.947  13.332
32998W        W92435  34.378  28.485   4.790
32999W        W92436  29.131  24.115  10.084
33000W        W92437  44.352  12.758  10.458
33001W        W92438   5.896  19.538   3.385
33002W        W92439  18.621  23.627  12.860
33003W        W92440  34.989  20.198   3.653
33004W        W92441  28.583  15.292  12.580
33005W        W92442  37.045   5.248  13.426
33006W        W92443  38.943  13.662  14.950
33007W        W92444  16.194  17.285  14.401
33008W        W92445   2.268  29.922  13.547
33009W        W92446   1.466  36.494   1.373
33010W        W92447  44.987  29.633  10.919
33011W        W92448  13.298  22.618  13.441
33012W        W92449  43.017  34.471  11.522
33013W        W92450  32.608  34.008   0.297
33014W        W92451  23.491  25.671  10.538
33015W        W92452  38.392  44.987   1.719
33016W        W92453  33.534  24.700   1.332
33017W        W92454  38.439  23.542  12.845
33018W        W92455   3.744  40.324   1.401
33019W        W92456   7.778  44.894   3.146
33020W        W92457  14.244  15.774   0.362
33021W        W92458  15.715  38.413  14.510
33022W        W92459  25.560  42.358   1.317
33023W        W92460   1.800   8.739   4.719
33024W        W92461  38.375  44.786  11.937
33025W        W92462   6.305  10.175   2.796
33026W        W92463  16.287  16.623   3.380
33027W        W92464   3.936  28.998   1.370
33028W        W92465  19.682  23.122   3.838
33029W        W92466   1.300  28.977  12.354
33030W        W92467  19.196  28.594  10.616
33031W        W92468  34.956  38.565   3.350
33032W        W92469  30.998  25.994  11.583
33033W        W92470  36.048  14.819   2.296
33034W        W92471  13.313  39.922  10.497
33035W        W92472  22.538  16.183   1.777
33036W        W92473  23.517  39.962  12.349
33037W        W92474  11.626  33.621   1.298
33038W        W92475   2.293  18.737   1.256
33039W        W92476  34.448  21.530   4.257
33040W        W92477  27.479   2.337   3.383
33041W        W92478  36.524   9.196   2.859
33042W        W92479   7.722   9.797   4.650
33043W        W92480  12.353  35.563   3.369
33044W        W92481   9.346  33.529  13.436
33045W        W92482  28.535  36.999  12.869
33046W        W92483  18.693   1.893  11.021
33047W        W92484  31.638  22.022   3.246
33048W        W92485  30.122  23.189   0.884
33049W        W92486   5.743  21.706   3.735
33050W        W92487  39.473   6.189  13.059
33051W        W92488  44.999  29.645   3.305
33052W        W92489  36.394   5.740   3.652
33053W        W92490  33.079  34.001  13.978
33054W        W92491  13.272  27.990  14.296
33055W        W92492  20.062   8.775  10.888
33056W        W92493   9.817   5.247  10.463
33057W        W92494  40.013   8.689   0.388
33058W        W92495  40.839  21.046   2.206
33059W        W92496   3.749  25.189   3.383
33060W        W92497  19.740  29.654  11.598
33061W        W92498   8.228   0.356  11.859
33062W        W92499   1.274  18.088   3.772
33063W        W92500  28.665   1.893  14.804
33064W        W92501  37.447  13.776  10.610
33065W        W92502  14.258  36.508   0.423
33066W        W92503  38.925   6.217  10.978
33067W        W92504  16.260  36.975  11.408
33068W        W92505  27.087  30.993  14.877
33069W        W92506   4.210  25.563  11.918
33070W        W92507  24.217  27.005  11.403
33071W        W92508   2.907  37.453  10.545
33072W        W92509  21.710  19.183  10.420
33073W        W92510  21.653  16.224   4.318
33074W        W92511  23.674  25.030   4.802
33075W        W92512  29.006   7.233  12.395
33076W        W92513  17.608  38.044   0.291
33077W        W92514  16.680  19.071  11.110
33078W        W92515   5.745   6.420  10.925
33079W        W92516  12.237  24.619   4.835
33080W        W92517   6.889  12.741  12.955
33081W        W92518   1.294  39.988  14.446
33082W        W92519   4.237  19.612  13.027
33083W        W92520  11.703   6.802  14.405
33084W        W92521  28.477  14.230  13.335
33085W        W92522   7.373  24.590   4.153
33086W        W92523   7.286  30.163   0.937
33087W        W92524  43.426  18.231   1.777
33088W        W92525  15.162   7.355   4.211
33089W        W92526  39.410   0.983   3.267
33090W        W92527  26.009  35.093   0.249
33091W        W92528   2.315   8.687  12.355
33092W        W92529   6.197   6.327  13.018
33093W        W92530  44.427  11.803  10.930
33094W        W92531  22.036  19.139   3.228
33095W        W92532   2.265   4.436   1.716
33096W        W92533  10.212  26.635  10.915
33097W        W92534   0.983  23.115   4.118
33098W        W92535   1.781  29.043  14.031
33099W        W92536  12.638  11.141   1.271
33100W        W92537  30.429  13.166   4.669
33101W        W92538  40.813   7.199  10.560
33102W        W92539  41.790  18.198   3.711
33103W        W92540   3.826   4.221   0.902
33104W        W92541  20.178  42.320  10.947
33105W        W92542  27.163  14.796   2.182
33106W        W92543  34.508  35.541   3.800
33107W        W92544  23.012  26.172  11.502
33108W        W92545  42.030   7.234  12.565
33109W        W92546  31.573  10.301  11.120
33110W        W92547   6.321  30.009  11.509
33111W        W92548  11.782   4.349   2.878
33112W        W92549  21.592  26.505   1.812
33113W        W92550  35.048  11.305  12.435
33114W        W92551  25.107  32.103  14.512
33115W        W92552  37.350  28.551   0.751
33116W        W92553  13.156  18.754   3.386
33117W        W92554  10.769  11.788  12.826
33118W        W92555  30.465  17.295  11.906
33119W        W92556  17.564  21.679  11.995
33120W        W92557  25.067  34.376  12.854
33121W        W92558  21.185   1.918  11.390
33122W        W92559  22.131  17.717   9.613
33123W        W92560  43.375   3.789   2.237
33124W        W92561  24.553  22.507  11.497
33125W        W92562  23.544   1.967   4.251
33126W        W92563  26.170  38.361   3.247
33127W        W92564  17.678  42.830  10.995
33128W        W92565  24.621  27.992  13.991
33129W        W92566  24.638  30.163   0.472
33130W        W92567  36.508  11.868   1.253
33131W        W92568   1.421  40.309   0.737
33132W        W92569   3.731  33.410   0.349
33133W        W92570  34.558   1.752  11.443
33134W        W92571  12.763  22.507   4.819
33135W        W92572   8.287  27.667   3.841
33136W        W92573  16.193  31.152  14.832
33137W        W92574   2.392  25.615  13.429
33138W        W92575  27.013  21.749   9.999
33139W        W92576   5.767  25.020   5.287
33140W        W92577   8.878  19.559   2.697
33141W        W92578  19.106  36.892   1.881
33142W        W92579  34.930  32.093   3.631
33143W        W92580   5.411  24.048   1.811
33144W        W92581  26.102   7.371  13.934
33145W        W92582   1.342  18.701  13.380
33146W        W92583  15.214  38.876   2.326
33147W        W92584  14.240  32.401   2.237
33148W        W92585  25.217  36.976   0.255
33149W        W92586  40.393  20.219   0.440
33150W        W92587   2.309  19.186   3.780
33151W        W92588  32.476  36.494   3.780
33152W        W92589   6.309  39.402   0.273
33153W        W92590   1.340   2.839  14.795
33154W        W92591   3.396  31.939   3.360
33155W        W92592  33.616  23.987  13.937
33156W        W92593   3.263  28.162  11.070
33157W        W92594  42.783  42.839  10.098
33158W        W92595   2.931  12.188  14.777
33159W        W92596   1.245  11.679   4.328
33160W        W92597  27.095  10.219  11.562
33161W        W92598  39.041  19.111   3.862
33162W        W92599  30.942  11.702  12.920
33163W        W92600  16.201  33.420  14.921
33164W        W92601  35.957  44.875   3.845
33165W        W92602  28.094  22.511   5.172
33166W        W92603   7.735   4.829  10.628
33167W        W92604  22.503  32.489   2.678
33168W        W92605  35.583  19.738   3.746
33169W        W92606  35.070  28.980  13.836
33170W        W92607   8.863  27.065   2.351
33171W        W92608  15.304   3.430  10.430
33172W        W92609  14.720  11.675  11.387
33173W        W92610  16.158   8.315  13.353
33174W        W92611  22.711   8.225   3.216
33175W        W92612  33.115  40.401  14.828
33176W        W92613  36.432  31.489  13.839
33177W        W92614   1.426  37.537   3.173
33178W        W92615   9.719  33.947   0.288
33179W        W92616  39.342  25.498   0.352
33180W        W92617   5.385   7.835   0.908
33181W        W92618  20.159  44.395  10.527
33182W        W92619  44.443  35.098   3.863
33183W        W92620  11.721   6.402  13.397
33184W        W92621  18.641   3.239   2.372
33185W        W92622  14.199  24.710   0.739
33186W        W92623  35.475  21.738  14.021
33187W        W92624  37.992   3.335   3.233
33188W        W92625   3.796   2.368   2.898
33189W        W92626  28.624  40.009   4.722
33190W        W92627  37.341  38.433  14.947
33191W        W92628  22.111  39.525  11.025
33192W        W92629  29.007  19.605  12.495
33193W        W92630  28.161  17.147   1.729
33194W        W92631  19.605  21.115  10.970
33195W        W92632  10.729   0.839   1.758
33196W        W92633   0.488  20.672   2.248
33197W        W92634  31.114  16.304   2.782
33198W        W92635  10.310  15.655  13.411
33199W        W92636  15.706  23.105  14.854
33200W        W92637  29.472  11.260  11.894
33201W        W92638  18.654  27.179  12.483
33202W        W92639  18.091  14.820  11.424
33203W        W92640   5.297   0.905   9.964
33204W        W92641   9.697  42.789   2.270
33205W        W92642  33.969  12.352  12.398
33206W        W92643   5.840  16.649  12.481
33207W        W92644  19.738  39.837   4.270
33208W        W92645  17.168  19.558  12.376
33209W        W92646   2.282   4.397  11.015
33210W        W92647  19.765  16.267   3.190
33211W        W92648   4.939  22.663  10.530
33212W        W92649  13.739  17.789   4.145
33213W        W92650  23.560   8.205  12.053
33214W        W92651  18.729  13.140  12.519
33215W        W92652  20.133  28.058  11.874
33216W        W92653  39.396  36.880  13.872
33217W        W92654  28.664  19.228  12.552
33218W        W92655   2.799   0.773   4.831
33219W        W92656  40.971  15.800  11.451
33220W        W92657   6.184  12.680  14.285
33221W        W92658  25.503  22.542   3.386
33222W        W92659   8.251  15.631  10.520
33223W        W92660  16.128  44.997   0.450
33224W        W92661   1.891  30.121   4.807
33225W        W92662  12.801   3.390   0.397
33226W        W92663  44.465  39.861  10.482
33227W        W92664   7.396  17.181  12.038
33228W        W92665   5.821  28.487   2.731
33229W        W92666  23.512   5.210   2.899
33230W        W92667  26.556  19.201  10.425
33231W        W92668  21.150  40.421  11.083
33232W        W92669  41.858  40.822  11.058
33233W        W92670  32.411  41.037  13.453
33234W        W92671  16.663  35.511  13.518
33235W        W92672  25.660  10.306   4.225
33236W        W92673  34.418  41.924   1.735
33237W        W92674   7.858  37.466   2.308
33238W        W92675   4.778  19.173  13.934
33239W        W92676  16.247  34.426   4.648
33240W        W92677  18.690  12.195  10.967
33241W        W92678  14.128  29.479   4.128
33242W        W92679  35.529   5.791   3.837
33243W        W92680  17.595  38.534   4.161
33244W        W92681  24.148   1.958  13.865
33245W        W92682   5.202   2.392   0.474
33246W        W92683  42.980  31.057  12.558
33247W        W92684  41.800  22.139   1.430
33248W        W92685  22.659  24.113   3.678
33249W        W92686  24.714   7.895   1.343
33250W        W92687   1.260  11.307   0.740
33251W        W92688  41.306   4.885  14.934
33252W        W92689   4.448  29.600   3.189
33253W        W92690  34.433  37.019   1.774
33254W        W92691  13.129   8.313   4.260
33255W        W92692  16.739   5.917  12.865
33256W        W92693  18.753  37.886   0.243
33257W        W92694  21.047  13.252  10.507
33258W        W92695  13.221  17.187  12.010
33259W        W92696  43.464  29.094  11.051
33260W        W92697  25.059  34.591  14.993
33261W        W92698  30.971  10.723  10.522
33262W        W92699   3.859  19.658   4.251
33263W        W92700   7.813  24.644  12.880
33264W        W92701  28.606  42.800   1.397
33265W        W92702   0.484  30.441  11.419
33266W        W92703   2.460   6.419   3.818
33267W        W92704   5.265  34.087  14.360
33268W        W92705  38.866  25.044  14.302
33269W        W92706  20.055   3.256  11.916
33270W        W92707  24.170  41.832  13.332
33271W        W92708  21.167  23.033  11.102
33272W        W92709  36.401   5.425  11.512
33273W        W92710  14.143  42.477  14.381
33274W        W92711  26.052   0.836   1.888
33275W        W92712  43.883   7.882   3.364
33276W        W92713   0.264  39.475   9.920
33277W        W92714  41.848  32.589  10.512
33278W        W92715  33.423  39.035   2.891
33279W        W92716   3.776  39.374  14.822
33280W        W92717  31.972  23.044  13.840
33281W        W92718  44.941  30.427  10.548
33282W        W92719  10.832  18.075  13.808
33283W        W92720   3.767  15.166  10.419
33284W        W92721  35.967  24.990  11.001
33285W        W92722  20.705  34.394  13.827
33286W        W92723  19.069  24.691  12.008
33287W        W92724  23.191  15.261  12.028
33288W        W92725   8.804  34.871   3.709
33289W        W92726  22.057  17.094   0.939
33290W        W92727  14.609  37.569   1.866
33291W        W92728  31.993  14.212  11.070
33292W        W92729  28.166  37.415  11.954
33293W        W92730  19.190  40.459  14.503
33294W        W92731  31.036  34.044  12.536
33295W        W92732   9.681  38.421   4.709
33296W        W92733  28.013   5.908   1.747
33297W        W92734  14.153  23.527   0.444
33298W        W92735   1.774  32.017  12.460
33299W        W92736  24.200   4.311  12.985
33300W        W92737  10.241  12.843  12.967
33301W        W92738  39.477  22.526  13.817
33302W        W92739  17.577  16.196  13.808
33303W        W92740  35.090  36.943   3.299
33304W        W92741  23.180   7.329  12.502
33305W        W92742  33.121  20.766   4.162
33306W        W92743   9.200  13.228  10.964
33307W        W92744  10.355  10.847  10.432
33308W        W92745  29.065  21.575  12.963
33309W        W92746  34.052   9.308   2.873
33310W        W92747  37.839  39.045   3.803
33311W        W92748   2.407  39.991   1.894
33312W        W92749  24.493   9.785   1.768
33313W        W92750   9.803  20.742   1.266
33314W        W92751   8.334  28.525   2.286
33315W        W92752  21.702  31.648   1.238
33316W        W92753  32.899  26.162   2.204
33317W        W92754   7.390  31.642   3.234
33318W        W92755  29.572  28.080  13.027
33319W        W92756   5.353   9.231   4.325
33320W        W92757  31.605  32.513  14.895
33321W        W92758  14.705   4.421   0.787
33322W        W92759  10.290  38.844  12.001
33323W        W92760  33.914   6.728   3.796
33324W        W92761  26.969  27.966   1.290
33325W        W92762  18.636   2.932  13.532
33326W        W92763  19.168   3.408  11.116
33327W        W92764  22.534  30.603  10.893
33328W        W92765  39.354   9.208  11.583
33329W        W92766  20.711  25.098  14.497
33330W        W92767  37.428  40.547  14.321
33331W        W92768  18.603  31.432   3.680
33332W        W92769  42.436   2.278   2.398
33333W        W92770  31.150  41.029  14.810
33334W        W92771   8.313  24.120   3.218
33335W        W92772  40.882   9.365  12.367
33336W        W92773  34.937  20.150  14.291
33337W        W92774  20.574  19.591  11.594
33338W        W92775  32.549   8.823   5.143
33339W        W92776  16.193  27.157  11.503
33340W        W92777   9.328  29.998   4.307
33341W        W92778  22.735  38.544   9.535
33342W        W92779  42.341  35.368  11.011
33343W        W92780  26.510   5.306  12.540
33344W        W92781  39.373  10.641   4.809
33345W        W92782   2.818   3.924  14.307
33346W        W92783   4.846   6.713   3.359
33347W        W92784  27.065   3.804   0.757
33348W        W92785  38.435  22.592  12.498
33349W        W92786  15.292  22.569   4.218
33350W        W92787  19.120   6.877  12.423
33351W        W92788   8.690  20.232   2.271
33352W        W92789  29.133  34.964   2.770
33353W        W92790  40.424  38.840   3.350
33354W        W92791  23.149   8.870   4.653
33355W        W92792  21.130  43.454   1.274
33356W        W92793  12.150   1.877  10.482
33357W        W92794   8.829  12.271  11.580
33358W        W92795  25.161   0.333  14.918
33359W        W92796  23.055  29.074  13.372
33360W        W92797   0.253  31.639   3.804
33361W        W92798  38.359  42.941   2.779
33362W        W92799  44.820  38.981  11.996
33363W        W92800  35.503   9.673   4.342
33364W        W92801  22.010  28.175  12.991
33365W        W92802   4.812  41.936  10.890
33366W        W92803  26.207  23.499   1.703
33367W        W92804  11.322  33.952   1.443
33368W        W92805  16.254   4.740   2.895
33369W        W92806   1.422  31.566  13.533
33370W        W92807   2.354  13.315  14.876
33371W        W92808  28.484  28.009  10.157
33372W        W92809  25.689  37.871   0.319
33373W        W92810  38.823  28.488  11.932
33374W        W92811   7.197  40.420   1.265
33375W        W92812  15.816  10.276  14.395
33376W        W92813  30.589  38.519   4.609
33377W        W92814   9.757   8.802   2.308
33378W        W92815   5.838  13.336  14.995
33379W        W92816  15.641  22.202  12.075
33380W        W92817  10.302  12.742  11.024
33381W        W92818  22.698  17.592   2.228
33382W        W92819  21.247  17.666   1.378
33383W        W92820  17.720  10.204  11.381
33384W        W92821  13.348  25.686  12.010
33385W        W92822  36.916   5.318  12.552
33386W        W92823  26.126  28.650  12.961
33387W        W92824  30.656  18.107   1.421
33388W        W92825  20.034  13.312  10.559
33389W        W92826  25.655  27.107   1.420
33390W        W92827   8.206  21.056  13.383
33391W        W92828  11.228  34.945  11.947
33392W        W92829  31.145   7.386  12.969
33393W        W92830  31.408  14.186   3.146
33394W        W92831  29.045  40.405   2.395
33395W        W92832  27.670  30.912   0.768
33396W        W92833  28.652  16.668  10.894
33397W        W92834  39.500   0.336   1.287
33398W        W92835  29.951  29.031  14.479
33399W        W92836  42.816  30.973  14.371
33400W        W92837  43.956  19.210   1.887
33401W        W92838   0.321   9.701   3.651
33402W        W92839  34.591  25.997   2.669
33403W        W92840  32.396  38.520  13.825
33404W        W92841   0.385   2.863  14.446
33405W        W92842   4.320  34.555   4.298
33406W        W92843  20.109  13.122  11.405
33407W        W92844  23.091  22.587  10.914
33408W        W92845  30.980  38.447  10.527
33409W        W92846   2.336  40.011  11.878
33410W        W92847  31.019  23.032   1.747
33411W        W92848  38.056  38.432  14.938
33412W        W92849  42.989  15.284  13.935
33413W        W92850   3.335  13.786   2.803
33414W        W92851  29.022  22.715   5.616
33415W        W92852  15.712  14.336   0.428
33416W        W92853  25.995   8.405   1.443
33417W        W92854  14.788  28.513  11.088
33418W        W92855  33.110  19.234   1.376
33419W        W92856  15.187  22.648  11.054
33420W        W92857  22.185  24.603  11.431
33421W        W92858   8.710   9.294   1.250
33422W        W92859  35.372  26.011  14.814
33423W        W92860  10.239   2.896  14.299
33424W        W92861   6.286  26.576   9.984
33425W        W92862  40.893   3.847  10.574
33426W        W92863  28.450  16.144  11.911
33427W        W92864  20.659  11.257  10.613
33428W        W92865  14.760  25.005   2.277
33429W        W92866  34.594  20.623  12.410
33430W        W92867  37.913   5.795   3.853
33431W        W92868   6.821  19.080   1.863
33432W        W92869  44.969  35.603  13.958
33433W        W92870  15.822   6.373   2.262
33434W        W92871   6.827   8.281  13.791
33435W        W92872  11.867  37.386   0.865
33436W        W92873  14.655   9.308  14.409
33437W        W92874   2.851  17.789   1.384
33438W        W92875  15.276  42.945   2.340
33439W        W92876  31.599  10.325   4.140
33440W        W92877  28.484  40.903   1.269
33441W        W92878   4.416  40.310  14.309
33442W        W92879  40.863  22.156  13.903
33443W        W92880  27.018  11.350   1.811
33444W        W92881   5.828  26.511   1.399
33445W        W92882  37.369   1.901  13.842
33446W        W92883  43.004  15.133  11.536
33447W        W92884  16.742  41.829   9.616
33448W        W92885  10.202  10.652   0.357
33449W        W92886  37.581  20.150   5.148
33450W        W92887   9.292  41.922  11.376
33451W        W92888  44.383  35.386   3.243
33452W        W92889  26.497   5.756   2.860
33453W        W92890  38.947  15.709   3.731
33454W        W92891   5.706  13.745   0.378
33455W        W92892  22.541  14.253  11.492
33456W        W92893  26.496   1.908   1.375
33457W        W92894  17.606  27.655  14.852
33458W        W92895   0.867   5.918   1.878
33459W        W92896  13.150   0.744   4.177
33460W        W92897  22.178  43.490  11.408
33461W        W92898  30.490  43.443   2.264
33462W        W92899  37.534  42.951   2.882
33463W        W92900   8.343  26.204   4.610
33464W        W92901  14.722  28.929  11.540
33465W        W92902  38.052   8.187   4.239
33466W        W92903  27.667  11.188   2.876
33467W        W92904  35.994  29.587  14.831
33468W        W92905  30.632  10.752   4.786
33469W        W92906  44.437  29.926   4.268
33470W        W92907  31.104   9.648   4.160
33471W        W92908  12.823  40.930   1.757
33472W        W92909  21.684  36.847  13.998
33473W        W92910   1.886  37.909   3.805
33474W        W92911  30.446  19.624  10.428
33475W        W92912  23.568  31.098  14.315
33476W        W92913   6.727   0.276   4.823
33477W        W92914   2.799  33.874  11.553
33478W        W92915   3.236  39.928   4.198
33479W        W92916   3.384  23.727   0.337
33480W        W92917  20.714   5.713   4.792
33481W        W92918   3.885  36.981  14.006
33482W        W92919   3.325  40.998   2.894
33483W        W92920   0.278  35.537   2.340
33484W        W92921  15.706  12.330   2.405
33485W        W92922  28.461  11.276   2.184
33486W        W92923   7.176  35.439   0.396
33487W        W92924  22.175  22.532   1.932
33488W        W92925   9.353  14.741   1.902
33489W        W92926  12.157  11.775  13.338
33490W        W92927  30.508  17.182   4.335
33491W        W92928  19.733  42.344   3.673
33492W        W92929  20.264  26.575  13.354
33493W        W92930  31.508  39.938   0.453
33494W        W92931  14.623  38.885  11.542
33495W        W92932   7.387  13.301   4.833
33496W        W92933  36.905  35.917   4.240
33497W        W92934   0.822  36.862   2.739
33498W        W92935  34.074  42.335   4.124
33499W        W92936  43.427  24.518  13.989
33500W        W92937   8.166   5.750   1.224
33501W        W92938  36.040  29.473   3.863
33502W        W92939  21.583   3.857   4.677
33503W        W92940  20.677   1.344   2.341
33504W        W92941   1.942  29.049   1.719
33505W        W92942  42.914  43.976   2.836
33506W        W92943  44.275  21.683  13.436
33507W        W92944  39.055  37.928  11.887
33508W        W92945   9.725   5.848   2.334
33509W        W92946   6.421  40.901   0.895
33510W        W92947  17.160  38.558   5.299
33511W        W92948   3.743  21.615   3.309
33512W        W92949  34.069  21.061   0.899
33513W        W92950  17.113   3.951   0.433
33514W        W92951  32.408  33.029   2.223
33515W        W92952   2.427  18.753  11.432
33516W        W92953  10.826  28.485   0.852
33517W        W92954  36.366  35.860  12.835
33518W        W92955  28.662   8.898  12.007
33519W        W92956  41.359  13.284   3.308
33520W        W92957  44.393  21.563   0.748
33521W        W92958  25.156   7.709  12.474
33522W        W92959  11.319  32.895  12.064
33523W        W92960  36.428  16.160   0.256
33524W        W92961  39.377  36.945  10.956
33525W        W92962   0.804  18.134   0.955
33526W        W92963  15.627  25.475  13.933
33527W        W92964  27.493  10.267   5.199
33528W        W92965  13.243  14.629   0.271
33529W        W92966  16.299  29.624   0.763
33530W        W92967  29.454   2.347   3.212
33531W        W92968  35.018   5.754  13.881
33532W        W92969  19.170  40.836   3.177
33533W        W92970   4.300  29.079   2.688
33534W        W92971  16.592  40.507   2.187
33535W        W92972  19.058  15.278   1.219
33536W        W92973  41.493  20.119  13.901
33537W        W92974   5.749  29.594  11.904
33538W        W92975  38.890  40.936  12.352
33539W        W92976  14.230  11.858   2.767
33540W        W92977  32.013  24.486   1.427
33541W        W92978  21.150   7.811  11.462
33542W        W92979  39.994   5.225   3.277
33543W        W92980   8.681   4.256   1.218
33544W        W92981  11.199  32.434  12.513
33545W        W92982  30.936  15.323  12.937
33546W        W92983  32.905  35.525   0.730
33547W        W92984  14.188  10.243  10.468
33548W        W92985  39.467  30.489  12.082
33549W        W92986   3.787  10.687   1.305
33550W        W92987  43.010  25.970   1.231
33551W        W92988   5.763   5.724   2.339
33552W        W92989  36.501  22.558  12.888
33553W        W92990  12.667  24.564  14.396
33554W        W92991  38.468  12.677  11.490
33555W        W92992  43.437  40.924  10.573
33556W        W92993  14.705  20.180   2.268
33557W        W92994   3.815  30.616   3.789
33558W        W92995  35.405  40.042  12.404
33559W        W92996  40.990  38.938  13.358
33560W        W92997  26.016  18.673   2.293
33561W        W92998  16.290  22.546  11.399
33562W        W92999  31.521  34.606  13.962
33563W        W93000  25.674  21.164  12.856
33564W        W93001   5.809  44.755   3.847
33565W        W93002  31.094  14.773   4.835
33566W        W93003   3.748  17.164  14.800
33567W        W93004  44.367  27.127   0.813
33568W        W93005  29.584  43.845   2.243
33569W        W93006  21.096   5.768   0.312
33570W        W93007  27.998  22.251  10.965
33571W        W93008  34.381  34.953  14.960
33572W        W93009  22.685   1.240   2.355
33573W        W93010  22.028  32.929  12.541
33574W        W93011  26.034  35.381  11.574
33575W        W93012  26.994  34.560   3.254
33576W        W93013   0.917  19.051   3.669
33577W        W93014  20.755  41.475   2.247
33578W        W93015  34.036  28.460  11.909
33579W        W93016   8.326   2.891  13.844
33580W        W93017   1.360   4.920  11.586
33581W        W93018   4.447   5.770   3.635
33582W        W93019  14.313  39.024   1.867
33583W        W93020   6.901  42.351  14.011
33584W        W93021  17.219  17.300   2.388
33585W        W93022  12.628  10.660  10.414
33586W        W93023  33.606   4.699  11.389
33587W        W93024   3.446  23.011   4.797
33588W        W93025   7.248  12.304   0.455
33589W        W93026  42.013  42.387  11.011
33590W        W93027  41.345  22.623   3.252
33591W        W93028  23.683  35.486  11.957
33592W        W93029   7.820  37.004   1.795
33593W        W93030  36.482  15.163   4.631
33594W        W93031  20.185  14.688   3.656
33595W        W93032   0.356  21.092   2.774
33596W        W93033  35.557  21.253  12.970
33597W        W93034  18.221  27.186  12.887
33598W        W93035  39.538  11.817  12.968
33599W        W93036  32.574  31.497   3.352
33600W        W93037  43.868  33.974   1.231
33601W        W93038   8.242  24.566   1.886
33602W        W93039  21.227  16.613  12.398
33603W        W93040  28.473  32.616   4.347
33604W        W93041  39.416  19.256  11.989
33605W        W93042  23.569   5.909  11.534
33606W        W93043  20.046  19.601  13.426
33607W        W93044  22.723  38.347   0.781
33608W        W93045  26.003  44.321   2.380
33609W        W93046  30.529  25.700   4.236
33610W        W93047  43.013  38.531   0.878
33611W        W93048   2.954  39.039   0.827
33612W        W93049  24.212   2.472   0.853
33613W        W93050  16.755  38.941   0.869
33614W        W93051  14.752  23.140  11.545
33615W        W93052  13.678   3.299   4.612
33616W        W93053  15.285  35.899  13.937
33617W        W93054  16.239   6.236  12.017
33618W        W93055  16.171  23.039  12.023
33619W        W93056  42.977  32.450  11.056
33620W        W93057  38.075  12.748  14.298
33621W        W93058  14.608  28.063  13.932
33622W        W93059  44.417  36.029   0.265
33623W        W93060  31.918   5.222   3.842
33624W        W93061   8.877  16.204  14.926
33625W        W93062  31.913  15.191  11.566
33626W        W93063  19.716   7.238   2.870
33627W        W93064   9.758  42.291   3.226
33628W        W93065   1.274  35.998  13.932
33629W        W93066  44.872   4.358  11.596
33630W        W93067  10.774  10.769  14.822
33631W        W93068  13.830   9.730  13.489
33632W        W93069  36.466   3.241   1.838
33633W        W93070  20.157  20.666  14.999
33634W        W93071  37.348   4.219  11.935
33635W        W93072  39.956  33.433   4.802
33636W        W93073  44.381  44.989   3.315
33637W        W93074  42.432  35.519  13.502
33638W        W93075  16.303  28.524   0.785
33639W        W93076  36.946  39.910   4.230
33640W        W93077   1.751  26.983   3.314
33641W        W93078  42.986   8.223  14.464
33642W        W93079  18.123  17.583  14.401
33643W        W93080  32.951   7.838  11.122
33644W        W93081  10.654   3.917  10.571
33645W        W93082  29.125  21.097   1.889
33646W        W93083  33.002   8.816   5.209
33647W        W93084  14.696  12.310  14.762
33648W        W93085  27.054  18.709  12.959
33649W        W93086  24.480  15.607   1.768
33650W        W93087  31.415  38.819   5.636
33651W        W93088   5.696  23.137   2.844
33652W        W93089  10.315  13.125  13.940
33653W        W93090  10.812  29.175   2.308
33654W        W93091   4.725  14.268  13.343
33655W        W93092  10.850   9.385   1.213
33656W        W93093  27.986  16.124  13.925
33657W        W93094  26.592  34.507   4.179
33658W        W93095  17.110  15.587   2.239
33659W        W93096  31.131  30.024  13.905
33660W        W93097  14.148  18.765  11.118
33661W        W93098  39.813   5.305  12.439
33662W        W93099   1.345   9.731   0.429
33663W        W93100   4.310  25.169  14.855
33664W        W93101  30.587  30.465  12.365
33665W        W93102  36.495  26.474  10.158
33666W        W93103  42.500  31.016   3.851
33667W        W93104  38.008  27.068   2.864
33668W        W93105  14.671  16.611  11.974
33669W        W93106  39.047  24.572   0.809
33670W        W93107  16.209  36.507   4.719
33671W        W93108  32.923   9.345   0.399
33672W        W93109  15.737  27.681   1.921
33673W        W93110  32.529   0.869   2.321
33674W        W93111  34.437  13.254   2.290
33675W        W93112  25.628  39.493  14.441
33676W        W93113  36.977  23.135   1.336
33677W        W93114  32.997   4.944   4.287
33678W        W93115   7.238  11.724   1.274
33679W        W93116   7.355  42.821   4.159
33680W        W93117  27.620   1.811  10.442
33681W        W93118  21.154  20.584   3.724
33682W        W93119  39.505  12.768  13.308
33683W        W93120  40.047  19.106   2.369
33684W        W93121  16.211  38.061   2.708
33685W        W93122  12.832  30.489  14.945
33686W        W93123   1.310  24.654   4.198
33687W        W93124  13.155  22.515  12.422
33688W        W93125   9.692  38.865   0.944
33689W        W93126   0.279  42.856  12.053
33690W        W93127  22.193   7.688   2.769
33691W        W93128  40.804  40.430   2.884
33692W        W93129  39.544  26.558  12.866
33693W        W93130  44.460  43.804  14.460
33694W        W93131  39.939   1.918  11.557
33695W        W93132   5.274  15.584   4.178
33696W        W93133  22.060  29.121  14.355
33697W        W93134  40.992  39.482  12.983
33698W        W93135  22.165  23.575  10.973
33699W        W93136  42.969  30.656   1.825
33700W        W93137   6.679  34.099  12.892
33701W        W93138  20.660  29.083   1.441
33702W        W93139   5.876   0.955   4.340
33703W        W93140  13.329  18.669   0.288
33704W        W93141  43.335   6.733  13.492
33705W        W93142   6.735  27.557   0.404
33706W        W93143  43.915  43.487  14.306
33707W        W93144  29.045  35.470   2.853
33708W        W93145  23.593   2.743  14.329
33709W        W93146  20.109  25.171   2.889
33710W        W93147  40.038  26.964   3.184
33711W        W93148  34.552  31.939   2.283
33712W        W93149  35.413  23.649   0.288
33713W        W93150  12.762  26.549  13.371
33714W        W93151  43.492  11.654  13.960
33715W        W93152   0.911  37.057   3.327
33716W        W93153  33.905  43.937   0.357
33717W        W93154  35.507   3.455  13.794
33718W        W93155   0.872  21.040  14.809
33719W        W93156  32.555   7.391  11.492
33720W        W93157  17.676  26.516   0.298
33721W        W93158  36.554   2.803   4.354
33722W        W93159  44.412  44.813   2.325
33723W        W93160   5.914   0.369   3.693
33724W        W93161  19.641   4.888  10.950
33725W        W93162  32.455   3.435   1.292
33726W        W93163  37.057  12.284  14.805
33727W        W93164  29.480  17.769  12.556
33728W        W93165  14.307  24.655   1.823
33729W        W93166  29.576  44.332   3.208
33730W        W93167  43.487  21.222   0.773
33731W        W93168  32.961  12.757  10.922
33732W        W93169  20.753  24.516  12.842
33733W        W93170  10.783  39.011   1.931
33734W        W93171  18.123  11.209   3.203
33735W        W93172  42.944  29.563   1.841
33736W        W93173   1.325  22.077  13.467
33737W        W93174  37.546   2.935   0.481
33738W        W93175  44.933   6.788  14.955
33739W        W93176   3.241   4.336  13.850
33740W        W93177   0.351   4.226   2.306
33741W        W93178  20.215  41.829   2.231
33742W        W93179  37.467  11.218  10.444
33743W        W93180   7.376  28.012   2.402
33744W        W93181  24.192  26.554   0.764
33745W        W93182  15.642   5.376  14.028
33746W        W93183  25.500  26.559  13.543
33747W        W93184  37.840  22.098  13.447
33748W        W93185   2.911  19.072   1.786
33749W        W93186  28.543  16.725   2.775
33750W        W93187  40.353  21.541  13.816
33751W        W93188  32.514  40.009   9.631
33752W        W93189   4.401  14.755   3.797
33753W        W93190  17.647  20.745  12.972
33754W        W93191  29.555  13.237  10.621
33755W        W93192  10.764   3.818  13.496
33756W        W93193  43.361  14.118   9.940
33757W        W93194  38.903   6.319   3.644
33758W        W93195  14.193  18.205  13.868
33759W        W93196  28.461  37.374  11.100
33760W        W93197   9.798  16.259  11.909
33761W        W93198   4.344  17.123   2.258
33762W        W93199  33.595   9.353  14.301
33763W        W93200  29.122  44.487   2.362
33764W        W93201  14.310  19.574   0.297
33765W        W93202   4.411  17.723  11.542
33766W        W93203  10.669   9.247   3.381
33767W        W93204  15.678   9.237   4.119
33768W        W93205  41.406  16.649  13.354
33769W        W93206   3.404   9.706  14.916
33770W        W93207   5.388  33.058   3.372
33771W        W93208   7.176   9.660  14.470
33772W        W93209  43.845  10.218  11.072
33773W        W93210  33.920  39.421  13.423
33774W        W93211  40.341  19.157  11.548
33775W        W93212  10.364   0.398   2.753
33776W        W93213  36.919  29.459  13.379
33777W        W93214  21.743  37.849  11.085
33778W        W93215  41.813  26.637  14.970
33779W        W93216  25.035  28.498   1.852
33780W        W93217   1.816  27.465   2.750
33781W        W93218  32.618   1.332   0.935
33782W        W93219  39.994  41.334  10.633
33783W        W93220  44.847   0.314   2.392
33784W        W93221  14.220  30.592   4.190
33785W        W93222  13.270  44.360   2.828
33786W        W93223   9.157  10.375   3.283
33787W        W93224  32.404  38.382   5.251
33788W        W93225  27.969  33.118  13.479
33789W        W93226  40.518  31.402   1.903
33790W        W93227  40.507   8.173   4.216
33791W        W93228  11.141   5.378  10.597
33792W        W93229  34.518  21.627   0.471
33793W        W93230   6.783  44.825   3.751
33794W        W93231  31.477  31.099   1.891
33795W        W93232  42.384  33.564   0.430
33796W        W93233   2.243  20.042  13.929
33797W        W93234  16.683  16.624   9.655
33798W        W93235  13.342  16.588  13.417
33799W        W93236  14.214  33.907   3.199
33800W        W93237  14.706  43.017  11.861
33801W        W93238   3.854  23.083   4.297
33802W        W93239   0.960  33.920   0.791
33803W        W93240  23.113  36.449   4.646
33804W        W93241  43.496  11.136   3.160
33805W        W93242  41.840  39.522  12.026
33806W        W93243  10.717  44.852   1.792
33807W        W93244  10.238  43.357  13.487
33808W        W93245  25.651  30.997  13.914
33809W        W93246  29.621  33.879  13.355
33810W        W93247  12.308  34.514   2.283
33811W        W93248  40.411   6.411  13.944
33812W        W93249  20.700   8.404   0.339
33813W        W93250  37.088   6.413   2.256
33814W        W93251  42.349  16.639   2.283
33815W        W93252  31.964  14.778   2.392
33816W        W93253  21.665  32.998   2.271
33817W        W93254   3.862  23.126  13.444
33818W        W93255   7.824  42.307   1.219
33819W        W93256  12.266  34.432  13.894
33820W        W93257  37.502  34.599  14.865
33821W        W93258  16.684  26.556  13.929
33822W        W93259  37.553  25.712  10.998
33823W        W93260  36.012  27.493   3.707
33824W        W93261  36.967  33.037  12.918
33825W        W93262  10.159  23.709   0.764
33826W        W93263  42.515  21.034   0.254
33827W        W93264  18.122   4.421   2.356
33828W        W93265  30.918  13.289  11.097
33829W        W93266  28.672  29.595   2.849
33830W        W93267  22.587  15.644   1.865
33831W        W93268  39.347  37.025  11.910
33832W        W93269  24.514  20.086   2.403
33833W        W93270  15.328   4.921  14.442
33834W        W93271  21.092  32.076  11.025
33835W        W93272  30.510   6.409  14.375
33836W        W93273  33.449  21.709   0.841
33837W        W93274   2.270  32.064  12.340
33838W        W93275  18.247  43.357  13.836
33839W        W93276  36.557   0.492  12.886
33840W        W93277  27.626  42.913  14.994
33841W        W93278   0.879  37.530   0.733
33842W        W93279  43.499  31.967  12.907
33843W        W93280  40.867  40.357   4.759
33844W        W93281  16.278  11.251  14.513
33845W        W93282  13.228  38.339   3.740
33846W        W93283   3.241  26.494   1.338
33847W        W93284   2.300  27.023   4.288
33848W        W93285  12.693   9.651  13.402
33849W        W93286  44.315   5.751  14.445
33850W        W93287   6.284  23.116  12.343
33851W        W93288  32.498  39.393   1.885
33852W        W93289  37.348  10.233   4.729
33853W        W93290  33.899  27.446  10.904
33854W        W93291   1.334  34.454  13.329
33855W        W93292  16.713   0.310  11.053
33856W        W93293  33.966  30.095   3.346
33857W        W93294  29.520   0.338  13.874
33858W        W93295  25.031   2.948  13.527
33859W        W93296   1.282  41.876  13.385
33860W        W93297  11.176  17.139   1.695
33861W        W93298  20.649  33.618   1.884
33862W        W93299  17.560   8.359  14.008
33863W        W93300   4.811  21.685  13.447
33864W        W93301  39.524   9.706   4.197
33865W        W93302  20.643  38.336   2.256
33866W        W93303  43.997   9.816  14.990
33867W        W93304  16.183  24.517  14.275
33868W        W93305   4.742   6.883   1.830
33869W        W93306  19.727  27.990   4.270
33870W        W93307  38.510  23.106   1.401
33871W        W93308  32.414  43.813  12.882
33872W        W93309  12.667  40.877   2.742
33873W        W93310   5.433  40.925  11.078
33874W        W93311  36.882  11.750   4.822
33875W        W93312  41.036   9.328   0.258
33876W        W93313  10.715  19.744   1.738
33877W        W93314   8.737  38.062  14.330
33878W        W93315   0.905  21.690  14.464
33879W        W93316  42.997   4.211  12.089
33880W        W93317  28.503  35.005   1.337
33881W        W93318  28.476  17.115   1.811
33882W        W93319   5.389  14.735  10.013
33883W        W93320  25.197  40.836  12.914
33884W        W93321  13.707  31.627   3.684
33885W        W93322  11.361  23.646  11.431
33886W        W93323  24.680  30.530   0.285
33887W        W93324  13.606  42.815   2.414
33888W        W93325  13.803  18.236   4.641
33889W        W93326  41.006  23.202   2.324
33890W        W93327  16.141  13.314   1.306
33891W        W93328  44.802  41.398  14.319
33892W        W93329  35.859  11.842   4.824
33893W        W93330  43.334  30.929   4.345
33894W        W93331   4.797  21.242   5.315
33895W        W93332  19.639  28.068   0.305
33896W        W93333  35.468  13.314   0.436
33897W        W93334  35.033  19.582   2.903
33898W        W93335  25.696  24.484   4.631
33899W        W93336   8.262  11.764   0.905
33900W        W93337   3.803   1.312  10.633
33901W        W93338  20.065  38.970   2.695
33902W        W93339  16.093   6.880  13.976
33903W        W93340  11.634  33.478   1.900
33904W        W93341   9.228  17.128  10.957
33905W        W93342  16.308  37.388  10.066
33906W        W93343   8.805  14.290  10.574
33907W        W93344   8.176  26.577  10.935
33908W        W93345  19.667  14.213   5.174
33909W        W93346  37.087  35.929  11.983
33910W        W93347  18.576  33.076  10.510
33911W        W93348  37.464  44.906   1.408
33912W        W93349   0.350   6.280  11.601
33913W        W93350  40.870  28.453  11.432
33914W        W93351   1.834  43.767  13.870
33915W        W93352  15.097  13.619   1.697
33916W        W93353   9.288  30.462  14.832
33917W        W93354   7.239  12.288   1.744
33918W        W93355  13.798  31.128  13.353
33919W        W93356  38.489  23.656   1.904
33920W        W93357   5.264  14.212  13.957
33921W        W93358  34.894  14.814   3.634
33922W        W93359  26.616  29.028   0.351
33923W        W93360  12.695  13.339  10.633
33924W        W93361   2.293  23.596   3.212
33925W        W93362  12.748  31.006  14.823
33926W        W93363  42.344  24.198   3.710
33927W        W93364  30.521  14.601   4.822
33928W        W93365   9.830  25.217  14.446
33929W        W93366  12.134  15.664  13.841
33930W        W93367  40.014  29.491   0.468
33931W        W93368  23.000  14.191  10.028
33932W        W93369  21.159  15.666   9.988
33933W        W93370  20.562  29.091   4.296
33934W        W93371  33.424  24.690  12.498
33935W        W93372   6.683  41.372  11.581
33936W        W93373   8.764  28.573   1.906
33937W        W93374  31.570  27.993   2.394
33938W        W93375  23.207  33.461  10.927
33939W        W93376   1.865   9.825   3.174
33940W        W93377  26.987  14.113  12.510
33941W        W93378  24.135  28.969   0.941
33942W        W93379  22.012  25.536  12.402
33943W        W93380   3.246  18.193  12.932
33944W        W93381  30.075   0.771   1.364
33945W        W93382  15.654  32.629   2.871
33946W        W93383  29.038   2.253   4.712
33947W        W93384  25.079  31.059  13.795
33948W        W93385  35.074  14.117  10.602
33949W        W93386   1.802  25.213   1.782
33950W        W93387  34.535  19.236   1.824
33951W        W93388  18.222  20.705  10.639
33952W        W93389  38.017  41.336   0.347
33953W        W93390  42.777  16.569  13.060
33954W        W93391  26.682  41.961  11.493
33955W        W93392   0.860  16.725   2.829
33956W        W93393  22.225  40.045   2.279
33957W        W93394  34.072  36.529   4.628
33958W        W93395  15.218  20.246  11.094
33959W        W93396  16.743  40.980  10.007
33960W        W93397  22.601   6.730  14.437
33961W        W93398  44.797  25.127   4.277
33962W        W93399  39.021   9.280  10.475
33963W        W93400  22.123  23.670  13.442
33964W        W93401  42.455  14.194   3.745
33965W        W93402  43.908  37.945  12.490
33966W        W93403   3.304  25.663  11.409
33967W        W93404  21.686  26.081   1.918
33968W        W93405  33.612  21.026   3.348
33969W        W93406  32.511  20.681  14.443
33970W        W93407  38.485  15.824   4.818
33971W        W93408  25.660  11.138  10.644
33972W        W93409  41.888  22.224  14.365
33973W        W93410   3.827  37.422   1.844
33974W        W93411   2.297  35.427   2.672
33975W        W93412  41.352  27.612   1.351
33976W        W93413  33.400  33.059  10.916
33977W        W93414  10.225   6.804  13.487
33978W        W93415   4.228   2.885   0.934
33979W        W93416  12.738  39.524   4.145
33980W        W93417  43.909  42.397  10.984
33981W        W93418  30.036  12.657  13.883
33982W        W93419   5.283   7.673   3.778
33983W        W93420  26.599  35.904   5.301
33984W        W93421  14.285   8.215   4.144
33985W        W93422  26.569  43.958  11.973
33986W        W93423   6.763  19.228  10.542
33987W        W93424   3.907  22.152  14.804
33988W        W93425   2.438  11.155  13.401
33989W        W93426  44.314  13.607   0.730
33990W        W93427  30.471  38.339   4.317
33991W        W93428  44.339  12.684  12.848
33992W        W93429  27.045  34.977   1.914
33993W        W93430   5.248  16.103  12.542
33994W        W93431  11.150  44.314  10.554
33995W        W93432  29.515   9.174  14.026
33996W        W93433  29.507  18.162  11.460
33997W        W93434  33.998  22.600   9.941
33998W        W93435   0.801  22.649   1.448
33999W        W93436  36.996  23.135  13.061
34000W        W93437  34.460  17.260   0.783
34001W        W93438   2.348  32.469   3.666
34002W        W93439  15.244  28.092  12.471
34003W        W93440   1.415  15.748  13.490
34004W        W93441  11.305  11.220   4.826
34005W        W93442  10.215  44.267  12.456
34006W        W93443  33.890  11.317   4.289
34007W        W93444   0.327   7.208   2.710
34008W        W93445  35.575  19.146   4.619
34009W        W93446  44.436   3.335  11.969
34010W        W93447  44.488  13.121   0.308
34011W        W93448  25.550  45.000  13.857
34012W        W93449   9.356  27.969   9.445
34013W        W93450  33.424  27.991   3.791
34014W        W93451   8.364  19.537   2.680
34015W        W93452  41.898  40.548   4.668
34016W        W93453  16.163  14.161   5.138
34017W        W93454  41.298   8.388  13.021
34018W        W93455   1.327  13.746   2.673
34019W        W93456   9.192   8.379   1.717
34020W        W93457   2.426  23.568   1.702
34021W        W93458  21.665   9.789   2.383
34022W        W93459   9.672   1.747  12.924
34023W        W93460   8.192   2.256  14.409
34024W        W93461  23.169   4.917   1.228
34025W        W93462  26.010  13.728   2.233
34026W        W93463  10.738  21.729   1.861
34027W        W93464   9.213   2.464  11.085
34028W        W93465   5.921  41.325  14.016
34029W        W93466   6.253  16.690  12.916
34030W        W93467   4.738  10.318  13.826
34031W        W93468  11.269  25.998  14.930
34032W        W93469  38.325  27.631   1.414
34033W        W93470  36.052  22.103  10.640
34034W        W93471  38.850  32.967   2.716
34035W        W93472  22.599  27.525  12.087
34036W        W93473  19.100   0.831   3.795
34037W        W93474  27.535   5.320  13.352
34038W        W93475  20.571   1.746   2.410
34039W        W93476   0.961   3.801   1.248
34040W        W93477   8.739  16.097   2.354
34041W        W93478  44.402  24.675   2.294
34042W        W93479   0.976  22.549   3.699
34043W        W93480  25.970  12.670   3.723
34044W        W93481  30.076  17.641  13.401
34045W        W93482  23.018   5.789   2.811
34046W        W93483  36.443  10.792  12.973
34047W        W93484   7.696  36.400  13.325
34048W        W93485  21.711  29.462  10.518
34049W        W93486   9.220  14.219   4.279
34050W        W93487  15.591   6.379   2.726
34051W        W93488   3.244  28.614   4.304
34052W        W93489  12.745  17.223   3.320
34053W        W93490  29.633  24.620  13.377
34054W        W93491  19.621  32.068   3.676
34055W        W93492  23.074   8.773  12.553
34056W        W93493  39.899  30.925  14.866
34057W        W93494  39.496  33.620   1.415
34058W        W93495   5.261  30.138  14.004
34059W        W93496  32.419  36.447   3.349
34060W        W93497  17.577  33.057  14.455
34061W        W93498  31.071   7.900  14.851
34062W        W93499  34.414  39.549  13.321
34063W        W93500  40.835  22.555   4.280
34064W        W93501  21.062   9.286   4.330
34065W        W93502  40.048   9.741   2.718
34066W        W93503  21.220  42.885   3.631
34067W        W93504  24.019   4.795   1.899
34068W        W93505  32.614  25.996  12.020
34069W        W93506  34.573   9.297  10.583
34070W        W93507  22.684   7.282  14.488
34071W        W93508   4.226   9.312   1.923
34072W        W93509   8.799  42.284  11.545
34073W        W93510  40.029  42.900  13.538
34074W        W93511   9.301  11.268  11.890
34075W        W93512  13.800   1.425   3.201
34076W        W93513  33.012  33.565   3.331
34077W        W93514  44.008  32.619   1.227
34078W        W93515  44.905  26.574   2.189
34079W        W93516  20.742  15.651  13.978
34080W        W93517  10.782  32.523  13.054
34081W        W93518  12.247  21.565  12.523
34082W        W93519  17.219  21.042   2.271
34083W        W93520  29.451  13.737  13.485
34084W        W93521   9.732  22.717   4.678
34085W        W93522  12.304   5.394   3.301
34086W        W93523  15.663   7.805  13.797
34087W        W93524   2.449  30.005   0.464
34088W        W93525  14.199   4.740  14.929
34089W        W93526  44.410  35.969   3.369
34090W        W93527  42.333  22.516  12.944
34091W        W93528  34.018   4.298   0.783
34092W        W93529  30.625   0.956   2.866
34093W        W93530  18.177  23.534   0.448
34094W        W93531   6.277  39.873  14.372
34095W        W93532  17.244  43.894   2.235
34096W        W93533  44.864  26.037  14.815
34097W        W93534  23.616  25.074   2.222
34098W        W93535  42.801  37.356   1.321
34099W        W93536  27.983   7.815  14.294
34100W        W93537  33.545  23.668   5.223
34101W        W93538   1.334  31.057  12.361
34102W        W93539   6.923   6.280   4.336
34103W        W93540   8.880  23.669   0.897
34104W        W93541  13.243  31.140  13.854
34105W        W93542  36.522  36.586   3.367
34106W        W93543  32.128   5.199   0.391
34107W        W93544  42.356  18.631  12.096
34108W        W93545  30.530  26.091   4.808
34109W        W93546  22.120  29.668   2.718
34110W        W93547  23.684  25.706   1.354
34111W        W93548  19.568  15.679   1.839
34112W        W93549  44.372  43.422   2.797
34113W        W93550  38.959  36.462   4.297
34114W        W93551  18.058  29.454   0.925
34115W        W93552  25.713  24.548  14.836
34116W        W93553  43.388  38.050   1.275
34117W        W93554  18.218  16.086  12.842
34118W        W93555  35.580   8.865  12.049
34119W        W93556  35.457  11.156  11.097
34120W        W93557  33.461  11.252   1.821
34121W        W93558  30.135  29.472   3.852
34122W        W93559  14.305  34.066  12.360
34123W        W93560  33.394  32.514   3.685
34124W        W93561  30.480  14.699   3.738
34125W        W93562   3.454  44.426   2.405
34126W        W93563   7.272  34.003   0.793
34127W        W93564  13.206   2.266   4.231
34128W        W93565  19.765  17.750  12.025
34129W        W93566  12.795  30.039   0.790
34130W        W93567  23.192  43.937   3.240
34131W        W93568  36.429  37.031  11.089
34132W        W93569  30.992  34.556   1.446
34133W        W93570  17.579  33.522  10.495
34134W        W93571  14.804  23.215  13.540
34135W        W93572  43.864  28.554   1.356
34136W        W93573  32.059  13.336  13.514
34137W        W93574   1.974  22.034  13.509
34138W        W93575   0.294   3.890   3.698
34139W        W93576   4.228  10.350  13.874
34140W        W93577  16.249  14.782   4.129
34141W        W93578  39.357  13.641  10.607
34142W        W93579   4.755  34.865   1.756
34143W        W93580   2.726   5.362   2.721
34144W        W93581  32.458  18.552   4.289
34145W        W93582  16.179   1.319   3.323
34146W        W93583  17.171  27.186  11.607
34147W        W93584  39.425   3.934  10.642
34148W        W93585  31.623  36.493  12.418
34149W        W93586  27.671  21.622   2.799
34150W        W93587  34.946  17.092   0.761
34151W        W93588  43.291   1.256  12.379
34152W        W93589  13.240  23.013   4.186
34153W        W93590  25.971   5.761   3.823
34154W        W93591  18.637   3.359  11.967
34155W        W93592   7.287  39.991   0.751
34156W        W93593  23.085   7.699   3.233
34157W        W93594  19.048  19.727  12.072
34158W        W93595   4.729  22.620   1.854
34159W        W93596  28.954  35.069   1.881
34160W        W93597  26.194  44.445   4.752
34161W        W93598  31.594  16.147  14.990
34162W        W93599  31.907  11.836  10.618
34163W        W93600  28.435  19.059  13.877
34164W        W93601  20.167   9.763   4.232
34165W        W93602  18.684  34.557  12.054
34166W        W93603  43.407  21.650  11.061
34167W        W93604  31.415  34.008   0.320
34168W        W93605  25.665  36.095   2.321
34169W        W93606  20.544   0.884  10.536
34170W        W93607  38.363  34.913   1.884
34171W        W93608  10.249  21.105   2.731
34172W        W93609  10.821  32.491  10.522
34173W        W93610  23.995   6.710   4.115
34174W        W93611  26.027  18.564  14.882
34175W        W93612  41.357  21.092   4.121
34176W        W93613  36.056  42.962  11.988
34177W        W93614  20.117  24.007   4.191
34178W        W93615   7.810  20.182   2.195
34179W        W93616  28.117  42.832   1.802
34180W        W93617  21.610  28.052  14.781
34181W        W93618  18.612  23.179  12.973
34182W        W93619   2.248  36.417  12.931
34183W        W93620  28.039  44.772   0.466
34184W        W93621   5.407  36.855   1.906
34185W        W93622  27.534  25.019  10.624
34186W        W93623  22.709  18.644  11.967
34187W        W93624  15.172   6.245   1.354
34188W        W93625  25.171   3.444   3.185
34189W        W93626  11.738  39.487   2.801
34190W        W93627  31.943   5.316   1.908
34191W        W93628  13.730  28.937  10.461
34192W        W93629  40.942  10.877  11.033
34193W        W93630  15.283  24.682   1.825
34194W        W93631  25.590  12.668   3.272
34195W        W93632  41.498  36.378   2.729
34196W        W93633  38.927  11.785   3.259
34197W        W93634  14.702  43.515  10.519
34198W        W93635  37.986  20.140   2.777
34199W        W93636  34.043   1.243  10.524
34200W        W93637  24.664  12.147  12.009
34201W        W93638  32.566   6.308   0.268
34202W        W93639  14.280  30.468  11.111
34203W        W93640  20.108  25.629   4.681
34204W        W93641  22.012  27.977   4.793
34205W        W93642  19.106  22.604   4.631
34206W        W93643  19.118  20.662  12.826
34207W        W93644  42.374  42.392  10.547
34208W        W93645   3.925   7.332   9.921
34209W        W93646  23.696  40.499   2.700
34210W        W93647  38.877  15.725   1.725
34211W        W93648  38.554  29.514  11.600
34212W        W93649  15.595   5.879  10.975
34213W        W93650  39.419   8.305  11.996
34214W        W93651  22.571  25.219  10.946
34215W        W93652  39.329  43.458  14.798
34216W        W93653  12.718   1.741   4.207
34217W        W93654  12.812   2.429   0.882
34218W        W93655  16.180  24.060  13.975
34219W        W93656   3.231   9.270  11.962
34220W        W93657  21.742  11.774   1.845
34221W        W93658   2.360  29.019   1.883
34222W        W93659  12.324  29.531  14.772
34223W        W93660  42.497  14.156  13.308
34224W        W93661  44.482  39.416  10.467
34225W        W93662   2.814  36.580  14.769
34226W        W93663  27.983  18.681   3.276
34227W        W93664   6.301  30.572   9.922
34228W        W93665  29.166   8.884  14.289
34229W        W93666  31.636  20.249  14.869
34230W        W93667  10.745  19.687  13.328
34231W        W93668  25.146  39.482   3.267
34232W        W93669  41.405  24.151  13.532
34233W        W93670  31.616  28.492  11.917
34234W        W93671  17.300  38.870  11.066
34235W        W93672  27.991  28.440  10.475
34236W        W93673  24.657   2.888  13.378
34237W        W93674  28.941   8.866  14.804
34238W        W93675  27.540  37.859  12.994
34239W        W93676  43.804   9.665  12.842
34240W        W93677  15.141  23.622   4.309
34241W        W93678  26.194  41.858  13.874
34242W        W93679  26.626   1.854   3.708
34243W        W93680   3.865  22.552   4.308
34244W        W93681  39.403  42.526   3.735
34245W        W93682  42.850  31.076   1.386
34246W        W93683   4.763  10.295   9.947
34247W        W93684  27.156  41.040   2.358
34248W        W93685  10.308  44.279  13.868
34249W        W93686  35.853   8.217  13.927
34250W        W93687  42.823  43.922   3.241
34251W        W93688  20.723  21.153  14.911
34252W        W93689  22.128  29.613   1.284
34253W        W93690  43.507  20.725   0.303
34254W        W93691  24.682  28.001  10.462
34255W        W93692  18.772  25.962  10.996
34256W        W93693  41.384  18.153   4.710
34257W        W93694  25.566  10.142   0.347
34258W        W93695   5.834   8.691   0.859
34259W        W93696  35.048   8.227   1.911
34260W        W93697  33.582  21.202  14.361
34261W        W93698   8.209  23.184   4.247
34262W        W93699  36.516  33.035  12.435
34263W        W93700  35.021  11.668   4.768
34264W        W93701  22.010   7.272  13.423
34265W        W93702  11.713   2.947  14.412
34266W        W93703  10.272  33.518  13.879
34267W        W93704  43.433  17.659  12.931
34268W        W93705  17.244  44.456  12.449
34269W        W93706   0.819   3.926  11.001
34270W        W93707  30.412  15.151  10.566
34271W        W93708   2.408   7.904  10.520
34272W        W93709  34.600   8.670  13.949
34273W        W93710  33.382   3.788   2.209
34274W        W93711  15.243  21.567  13.021
34275W        W93712  42.436  37.977  14.784
34276W        W93713  23.051  12.253  13.459
34277W        W93714  32.951  37.892  14.422
34278W        W93715  13.139  27.544  11.942
34279W        W93716  12.695  34.586  13.960
34280W        W93717  35.481  44.836   4.286
34281W        W93718  20.760  39.417  10.899
34282W        W93719  41.968   0.834  12.432
34283W        W93720  40.044   9.392   0.389
34284W        W93721  35.407  28.443  10.456
34285W        W93722  29.006  31.115   4.621
34286W        W93723   6.724  39.019  13.903
34287W        W93724  15.308   6.776   1.911
34288W        W93725  22.620  16.777   1.278
34289W        W93726  18.055   5.831  11.900
34290W        W93727  16.254  12.319   2.215
34291W        W93728  13.176   5.894   4.124
34292W        W93729   0.270   2.760   2.838
34293W        W93730   2.334  16.131  12.919
34294W        W93731  38.565   6.887  14.306
34295W        W93732  39.469  29.951   4.197
34296W        W93733  33.050  27.147  14.393
34297W        W93734  21.113  19.117  13.031
34298W        W93735   9.765   1.864  14.813
34299W        W93736  32.442   8.395   2.792
34300W        W93737  11.763   3.237  14.319
34301W        W93738  12.701  38.046   3.296
34302W        W93739  37.565  30.518   3.714
34303W        W93740  29.035  31.977  14.325
34304W        W93741  24.151  21.686   0.854
34305W        W93742   5.220  34.591  13.999
34306W        W93743  14.289  40.420  10.428
34307W        W93744   7.793  42.923  11.935
34308W        W93745  41.931  43.401   0.378
34309W        W93746  17.722   7.693  10.980
34310W        W93747  14.770  13.748   4.184
34311W        W93748  22.695  33.961  11.909
34312W        W93749  25.064  38.450  14.951
34313W        W93750  25.521  25.032   0.804
34314W        W93751   2.765   1.275   4.158
34315W        W93752  15.619   7.356   2.736
34316W        W93753   7.684  26.026   9.988
34317W        W93754  43.271  33.002   3.294
34318W        W93755  17.684  44.916  13.387
34319W        W93756  16.090  33.446  13.517
34320W        W93757   5.814   0.779   3.684
34321W        W93758  28.146  14.666  11.011
34322W        W93759  17.296   3.358   0.446
34323W        W93760  16.655  30.479   4.194
34324W        W93761  24.643   8.305   2.675
34325W        W93762   5.769  26.675  12.992
34326W        W93763  28.138  24.658  13.056
34327W        W93764  22.720  42.889  13.942
34328W        W93765  22.519   9.349   0.805
34329W        W93766  19.780  24.644  12.942
34330W        W93767  40.428  41.391  11.537
34331W        W93768  23.690  12.641   4.797
34332W        W93769  43.311  20.182  14.907
34333W        W93770  23.630  38.343  14.837
34334W        W93771  18.647  18.182  11.415
34335W        W93772  20.128  30.029   3.378
34336W        W93773  39.532  19.638   2.788
34337W        W93774  10.844  42.819   0.874
34338W        W93775  10.330  16.164  11.019
34339W        W93776  12.737  24.116  10.996
34340W        W93777   0.366  42.838  11.550
34341W        W93778  17.650  42.398   1.333
34342W        W93779  35.358   0.779   4.687
34343W        W93780  32.391  22.211   4.658
34344W        W93781  12.359  44.475  11.994
34345W        W93782  26.518  43.828   4.656
34346W        W93783  13.722  42.809  14.949
34347W        W93784  36.999  14.304   4.213
34348W        W93785  35.372  38.480   3.196
34349W        W93786  44.928   9.770   2.715
34350W        W93787  19.632  23.680  10.127
34351W        W93788  12.709  26.952   3.153
34352W        W93789   5.223   2.380   2.722
34353W        W93790  38.532  25.544  10.916
34354W        W93791   2.727  19.729  12.345
34355W        W93792  38.374   8.723  11.916
34356W        W93793  31.035  22.169  11.991
34357W        W93794  35.893  16.100   4.767
34358W        W93795  44.809  32.532  12.983
34359W        W93796  13.681   1.473   3.662
34360W        W93797   1.272   2.939  13.880
34361W        W93798  30.040  22.553  12.056
34362W        W93799  33.470  21.112  10.500
34363W        W93800  14.692  32.489  13.417
34364W        W93801  15.200  31.032   1.870
34365W        W93802  42.384  17.293   1.298
34366W        W93803  28.566   2.362   4.820
34367W        W93804  32.579  26.594  12.087
34368W        W93805  25.483  40.823  12.825
34369W        W93806  10.775   6.889   1.413
34370W        W93807  25.560  40.478   3.375
34371W        W93808  40.997  19.643  11.888
34372W        W93809  37.034  33.947  11.500
34373W        W93810  43.501  43.410   0.245
34374W        W93811   4.334  33.982  10.531
34375W        W93812  18.551  44.866   1.318
34376W        W93813  14.184  24.635  13.453
34377W        W93814  41.413  36.026  11.078
34378W        W93815  44.868   3.946  11.482
34379W        W93816  43.343  29.631   0.358
34380W        W93817   2.886  36.512   0.263
34381W        W93818   4.777  40.349   1.437
34382W        W93819  18.553   7.793  14.437
34383W        W93820  32.070  24.723   4.653
34384W        W93821  15.303  23.705  11.081
34385W        W93822  32.583  42.914  14.987
34386W        W93823  10.265  41.818  10.568
34387W        W93824   2.259  31.073   4.662
34388W        W93825  29.613   0.291  11.436
34389W        W93826  12.152  39.352  11.052
34390W        W93827  41.905  34.952   3.190
34391W        W93828   7.788   4.915  10.066
34392W        W93829  32.019  39.029  12.889
34393W        W93830  37.870  42.404   3.318
34394W        W93831  23.126  40.405  13.908
34395W        W93832  21.733   4.329   2.383
34396W        W93833   7.777   7.670  12.911
34397W        W93834  15.660   0.276   1.361
34398W        W93835  38.380  35.419   4.198
34399W        W93836  33.977   7.325   1.255
34400W        W93837   3.343  25.498   3.277
34401W        W93838  15.202   2.377  10.458
34402W        W93839  34.977   6.752  13.454
34403W        W93840  14.659  37.519  13.904
34404W        W93841  28.942  10.274   3.196
34405W        W93842  40.931  10.689   4.294
34406W        W93843  16.656  40.491  14.920
34407W        W93844  20.632  39.012  13.987
34408W        W93845  16.699   5.240  11.857
34409W        W93846   0.812  34.575   1.408
34410W        W93847  14.827  22.623  11.037
34411W        W93848  35.557  28.104  12.019
34412W        W93849  17.255  20.553  10.625
34413W        W93850  22.695  15.775   2.280
34414W        W93851  16.607  29.099   3.159
34415W        W93852  26.529  33.886  11.869
34416W        W93853   0.909  12.275  14.288
34417W        W93854   4.384  22.668  11.457
34418W        W93855  13.126  26.512  11.419
34419W        W93856  31.433   3.738  12.557
34420W        W93857  17.775  41.429  12.352
34421W        W93858   1.960  34.976  14.421
34422W        W93859   7.740  33.497  12.528
34423W        W93860   1.358   4.709  13.903
34424W        W93861  33.572  21.074   0.841
34425W        W93862  22.527  22.721  13.909
34426W        W93863  15.583  26.178  12.551
34427W        W93864  32.938  13.695  12.409
34428W        W93865  17.123  38.363  14.355
34429W        W93866  44.285  20.105  12.511
34430W        W93867  15.165   0.277   4.273
34431W        W93868  44.833  26.553  12.526
34432W        W93869   8.319  30.509  12.377
34433W        W93870  26.990  44.003  12.879
34434W        W93871   6.711  43.494   0.966
34435W        W93872  21.233   1.423   1.256
34436W        W93873  30.653  23.079   4.349
34437W        W93874  31.403   0.794   4.247
34438W        W93875  37.970  34.933  14.338
34439W        W93876   4.775  36.576   0.254
34440W        W93877  27.946  25.083  13.480
34441W        W93878  16.705  15.620  12.848
34442W        W93879  14.630  29.089  10.028
34443W        W93880  35.472  39.912  11.570
34444W        W93881  14.096  38.880   2.818
34445W        W93882  20.683  33.622  11.864
34446W        W93883   0.375   7.378   0.280
34447W        W93884   0.485   0.316  13.536
34448W        W93885  12.832  44.987  13.400
34449W        W93886  36.086   6.325   1.230
34450W        W93887  28.069  13.209   4.701
34451W        W93888  42.983  32.508  13.981
34452W        W93889  24.165  26.956  13.912
34453W        W93890   7.355  27.077   3.158
34454W        W93891  12.191  33.965   3.158
34455W        W93892  21.695  14.689  10.889
34456W        W93893  14.179  12.358  11.866
34457W        W93894  20.209  33.053  12.506
34458W        W93895   3.407   7.409   2.698
34459W        W93896  44.368   7.215  13.364
34460W        W93897  24.133   0.777   2.877
34461W        W93898  25.499  42.449  14.413
34462W        W93899  35.377  19.563   0.289
34463W        W93900   5.913  26.977  14.274
34464W        W93901   9.388  28.035  11.502
34465W        W93902   5.847  33.552   3.287
34466W        W93903   0.973   0.897  14.871
34467W        W93904  40.899  24.634   3.275
34468W        W93905  14.590  43.401  14.872
34469W        W93906  16.716  35.092  11.608
34470W        W93907  22.165  20.037   3.380
34471W        W93908  35.998  36.445   3.333
34472W        W93909  41.390  14.192  11.379
34473W        W93910  26.201  12.231   2.808
34474W        W93911  40.987  10.677  14.515
34475W        W93912   0.753  23.731   2.790
34476W        W93913   1.733   2.409  11.068
34477W        W93914  36.017  35.064   1.767
34478W        W93915  20.176  40.943   4.336
34479W        W93916   1.347  24.973  10.454
34480W        W93917  13.211   4.330   0.479
34481W        W93918   5.221  32.979  11.907
34482W        W93919  25.007  37.881   3.384
34483W        W93920  23.601  36.020   0.804
34484W        W93921  25.086  19.576   1.814
34485W        W93922  43.817  25.053   0.439
34486W        W93923  28.654  38.421   1.723
34487W        W93924  40.842  33.587  14.016
34488W        W93925  34.050  17.091   2.722
34489W        W93926  42.488  39.995  14.473
34490W        W93927  41.001  33.886   4.645
34491W        W93928   6.196  28.969   4.771
34492W        W93929   5.754  44.426   1.245
34493W        W93930  41.838   6.256   1.847
34494W        W93931  24.587  22.662  12.408
34495W        W93932  19.774  18.155  12.374
34496W        W93933  42.912  15.705  13.912
34497W        W93934  19.085  31.033  11.951
34498W        W93935  32.925  17.277   1.277
34499W        W93936   6.255  20.243   3.643
34500W        W93937  19.762   3.880  11.914
34501W        W93938  31.635  16.803  13.513
34502W        W93939  12.654  13.687   0.417
34503W        W93940   3.799  27.614  13.037
34504W        W93941   5.847   7.232  12.994
34505W        W93942  24.178   5.229   1.280
34506W        W93943  34.486  44.345  13.925
34507W        W93944  39.401   5.764   0.369
34508W        W93945  43.903  29.579  10.570
34509W        W93946   7.215  23.526   4.149
34510W        W93947  37.507  16.574  13.469
34511W        W93948  21.546   6.759  14.917
34512W        W93949  36.941  23.558   4.146
34513W        W93950  17.206  14.748  12.411
34514W        W93951  42.814   9.835   1.734
34515W        W93952  19.101  17.795   2.705
34516W        W93953  24.559   7.788  10.938
34517W        W93954  16.746  43.453   1.400
34518W        W93955  24.982  36.379   2.238
34519W        W93956  15.280  32.565  14.816
34520W        W93957   4.344  31.905  11.399
34521W        W93958  16.160  11.202  13.382
34522W        W93959  29.598  15.682  14.010
34523W        W93960  20.222  25.623   0.872
34524W        W93961   4.382  21.537  11.973
34525W        W93962  33.501  37.933   9.585
34526W        W93963  38.037   0.825  11.378
34527W        W93964  35.024   9.197   3.782
34528W        W93965  28.453  41.858  13.499
34529W        W93966  10.252   0.963   2.862
34530W        W93967  28.546  17.756  12.494
34531W        W93968  33.026  34.948   4.768
34532W        W93969   8.310  35.406  12.397
34533W        W93970   1.348   3.915   4.264
34534W        W93971  16.677   8.752   5.285
34535W        W93972  21.140  32.568  11.594
34536W        W93973  15.757  17.077  10.529
34537W        W93974  41.516  10.686   4.289
34538W        W93975  29.598  40.962  11.406
34539W        W93976   9.760  40.997   0.418
34540W        W93977   5.856   6.190   1.261
34541W        W93978   9.867  34.545   0.475
34542W        W93979  37.399  21.258  10.081
34543W        W93980  44.795  10.189   1.262
34544W        W93981  24.173  36.592   3.820
34545W        W93982  10.698   1.754   4.668
34546W        W93983  34.523  25.068   0.878
34547W        W93984  34.089  33.446   4.141
34548W        W93985  31.531  36.064  14.000
34549W        W93986  30.940  16.078   3.869
34550W        W93987  10.713   8.772   5.206
34551W        W93988  13.298  39.911   1.393
34552W        W93989  40.317  34.054  13.862
34553W        W93990  17.710  24.705  11.877
34554W        W93991  26.674  35.567  10.603
34555W        W93992  11.638   1.900   2.218
34556W        W93993  13.300   3.319   1.230
34557W        W93994  14.297  21.024  13.443
34558W        W93995  38.854  37.873   0.944
34559W        W93996  13.698  36.355   1.791
34560W        W93997   0.423   3.932  12.903
34561W        W93998  13.698  32.065  10.133
34562W        W93999  19.694  29.560   2.744
34563W        W94000  31.988  28.174   2.413
34564W        W94001   3.729  27.466  14.420
34565W        W94002  38.001  22.580   0.244
34566W        W94003  42.441  42.987  11.571
34567W        W94004  36.385  44.766   4.150
34568W        W94005  37.055  29.501  14.420
34569W        W94006  25.203  44.384  14.859
34570W        W94007  14.253  25.546   4.267
34571W        W94008   5.422  29.502   3.706
34572W        W94009  43.812  12.817   5.691
34573W        W94010   7.195  33.472   4.617
34574W        W94011  42.849   2.794  11.946
34575W        W94012   9.160  32.965   1.225
34576W        W94013  15.663   4.802   0.855
34577W        W94014   6.254  33.088   2.369
34578W        W94015  22.116  16.813   0.945
34579W        W94016  15.760  30.464  12.416
34580W        W94017  27.651   7.685  13.518
34581W        W94018   7.295  24.715   2.667
34582W        W94019  36.558  12.702  10.040
34583W        W94020  31.569  19.614   2.190
34584W        W94021  38.847  35.942   0.260
34585W        W94022  21.684   2.435   1.716
34586W        W94023  38.903  37.499   0.402
34587W        W94024  37.413  21.149  13.976
34588W        W94025  28.622  29.041   0.741
34589W        W94026  28.623  13.727   3.231
34590W        W94027  12.688   5.231  10.523
34591W        W94028  44.272  19.586   3.698
34592W        W94029  11.708  33.882   2.313
34593W        W94030  24.134  15.317   2.264
34594W        W94031  13.288   2.305  13.984
34595W        W94032  12.294  17.626   2.189
34596W        W94033   3.356  32.990   1.283
34597W        W94034  32.982  16.298  10.603
34598W        W94035  12.165  41.439  13.957
34599W        W94036   4.433  16.771  13.330
34600W        W94037  29.644  23.661  14.483
34601W        W94038  26.159  39.453  10.936
34602W        W94039   1.392   8.163   0.361
34603W        W94040   0.749  43.283   1.895
34604W        W94041   5.846  44.428  14.925
34605W        W94042  31.550   0.475  14.939
34606W        W94043  32.990  31.995   0.444
34607W        W94044  22.689  14.317  11.052
34608W        W94045  37.053   3.383  12.351
34609W        W94046  21.648  31.584   2.816
34610W        W94047  10.745  35.995   0.907
34611W        W94048  29.535   6.222  13.867
34612W        W94049  12.182   8.668   4.722
34613W        W94050  39.970  43.850  10.411
34614W        W94051   3.442  26.116  13.393
34615W        W94052  24.158   0.930  10.081
34616W        W94053  18.730  44.887   2.360
34617W        W94054   9.242  23.037  12.071
34618W        W94055  43.474   4.328  13.792
34619W        W94056  27.018  27.453   4.793
34620W        W94057  37.530  39.504   1.705
34621W        W94058   3.303  24.991  13.363
34622W        W94059  40.383  35.400  10.412
34623W        W94060  25.643  15.094   0.904
34624W        W94061  36.963  26.688  11.494
34625W        W94062   1.393  11.226   2.232
34626W        W94063  11.797  34.025  11.094
34627W        W94064  25.676   1.353  10.419
34628W        W94065  18.214   5.915   0.308
34629W        W94066   9.165  29.045  10.935
34630W        W94067  26.096  35.519   3.201
34631W        W94068  24.577  10.865  12.058
34632W        W94069  19.777  40.546  12.572
34633W        W94070   0.290  24.494   4.770
34634W        W94071  40.357  35.554  10.985
34635W        W94072  31.424  28.109  11.001
34636W        W94073  18.125  34.478   4.777
34637W        W94074  17.220   0.834   1.246
34638W        W94075  34.954  40.813  13.478
34639W        W94076   9.236   5.423  14.450
34640W        W94077  18.130   8.682   3.168
34641W        W94078  18.693   3.807  13.826
34642W        W94079  33.891  23.000  12.424
34643W        W94080  36.449   2.894   1.888
34644W        W94081   6.417  16.238  10.429
34645W        W94082  22.007  30.575   3.710
34646W        W94083  30.000   9.220  13.521
34647W        W94084  24.022  23.168  12.523
34648W        W94085   1.431   2.918  11.999
34649W        W94086  33.625  35.095   4.315
34650W        W94087   3.361  37.929   0.808
34651W        W94088   2.858  36.985  13.933
34652W        W94089   8.333  22.214   2.334
34653W        W94090  14.743  16.176   1.801
34654W        W94091  19.544  19.076  11.395
34655W        W94092  16.573  28.929  14.418
34656W        W94093  13.640  18.269  13.837
34657W        W94094   1.894  15.811  12.400
34658W        W94095  42.817   4.346  14.422
34659W        W94096   0.933  11.864  12.512
34660W        W94097  35.955  28.062  11.898
34661W        W94098  32.944  29.002   2.744
34662W        W94099  28.546  19.745   3.781
34663W        W94100   4.338  13.639  12.385
34664W        W94101  36.849   8.335   3.250
34665W        W94102  37.837  13.269   4.738
34666W        W94103  27.015   6.813   4.253
34667W        W94104  35.941  32.467   2.891
34668W        W94105  44.343  36.885   4.772
34669W        W94106  29.459  29.512   5.098
34670W        W94107   0.890   5.763   3.738
34671W        W94108  21.647  24.991  12.955
34672W        W94109  31.002  18.148  11.011
34673W        W94110  37.338  18.218  10.992
34674W        W94111   1.832  36.502   3.235
34675W        W94112  31.975  17.775  13.321
34676W        W94113   7.691  22.610  12.960
34677W        W94114  11.129  29.994  13.802
34678W        W94115  17.560  28.458  11.864
34679W        W94116   1.856   2.227   2.711
34680W        W94117   0.370  38.434  14.383
34681W        W94118   4.871  41.407  12.492
34682W        W94119  20.628  28.504   3.713
34683W        W94120   8.215  15.728  14.769
34684W        W94121   3.853  22.221   0.836
34685W        W94122  13.161  44.879   4.117
34686W        W94123  16.200  30.921  11.920
34687W        W94124  20.566   6.754   4.181
34688W        W94125   7.822  39.037  14.513
34689W        W94126  43.770   9.245  11.502
34690W        W94127  20.176  16.098  14.029
34691W        W94128  40.857  11.142   3.307
34692W        W94129   4.727   2.305   1.757
34693W        W94130  35.899   2.854   1.882
34694W        W94131  22.639  44.836   1.744
34695W        W94132   1.478  38.420  12.091
34696W        W94133  28.477  16.158  13.548
34697W        W94134  30.057  33.518  13.308
34698W        W94135  30.053   2.471   2.245
34699W        W94136  25.666  44.319  11.892
34700W        W94137  36.392  21.752  14.817
34701W        W94138   5.219  18.229  13.876
34702W        W94139  10.735  36.423   2.309
34703W        W94140  10.362  28.454  12.396
34704W        W94141  14.668   7.750   2.663
34705W        W94142  14.311  26.466  12.993
34706W        W94143  32.621  30.531   3.673
34707W        W94144  23.566   4.724   1.739
34708W        W94145  28.671  12.699  11.113
34709W        W94146  30.115  11.184   2.680
34710W        W94147  16.605   1.889  10.541
34711W        W94148  20.086   9.245  12.360
34712W        W94149  36.080  20.211  11.952
34713W        W94150  10.223   1.810   4.723
34714W        W94151  23.520  30.926   1.741
34715W        W94152  16.305  14.137  14.308
34716W        W94153  38.909   4.897  12.948
34717W        W94154  15.094  44.328  10.005
34718W        W94155  15.281  44.498  14.800
34719W        W94156   7.714  31.010  11.476
34720W        W94157  32.921  22.567  12.399
34721W        W94158  15.687  38.050   4.675
34722W        W94159  15.301  13.115   0.964
34723W        W94160  18.675  39.552   2.849
34724W        W94161  24.716   2.437   1.435
34725W        W94162  23.626  22.632  14.502
34726W        W94163  36.842  13.269  11.442
34727W        W94164   5.235  33.126   2.310
34728W        W94165  17.640  44.394   3.786
34729W        W94166   7.263  15.215  14.832
34730W        W94167   2.764   9.160   2.735
34731W        W94168   7.325   5.834   3.699
34732W        W94169  28.488   6.195   1.274
34733W        W94170  12.801  16.243   2.797
34734W        W94171  23.696  13.792  14.336
34735W        W94172  42.427   0.817   0.308
34736W        W94173  16.584  28.623  12.056
34737W        W94174  33.092  34.891   1.766
34738W        W94175  44.426  21.729   3.670
34739W        W94176   1.440  42.438  13.950
34740W        W94177  40.348  16.133  14.406
34741W        W94178  23.646  34.409   2.192
34742W        W94179   4.445  33.992   0.246
34743W        W94180  24.151  34.558  13.334
34744W        W94181  13.319   5.689   2.210
34745W        W94182  34.523  11.724   3.829
34746W        W94183  26.498  16.701  11.561
34747W        W94184  15.756  11.130  12.838
34748W        W94185  13.647   9.858   3.326
34749W        W94186   7.846  18.690  10.915
34750W        W94187  32.595  14.255  14.032
34751W        W94188  35.460   7.334  13.890
34752W        W94189  34.611  44.776  10.444
34753W        W94190  40.983  41.343  11.879
34754W        W94191  37.945  26.664   1.327
34755W        W94192   1.441  17.283   1.770
34756W        W94193  27.574  28.051  10.887
34757W        W94194  32.552  27.004  12.083
34758W        W94195  24.696  27.454  11.877
34759W        W94196  22.149  33.993  12.355
34760W        W94197  37.051  37.488   4.597
34761W        W94198   6.238   7.738  11.858
34762W        W94199  34.995  38.996  12.522
34763W        W94200  11.802  23.668  10.118
34764W        W94201  44.869  28.179  11.037
34765W        W94202  40.541  15.692  14.816
34766W        W94203  14.608  10.244   1.271
34767W        W94204  17.640   6.298   0.856
34768W        W94205  39.519  33.095   1.229
34769W        W94206   0.310   9.749   2.854
34770W        W94207  37.540  34.516  11.073
34771W        W94208  21.747  28.601  13.913
34772W        W94209  17.679  16.234  12.958
34773W        W94210  11.165   1.455  10.908
34774W        W94211  21.574  24.181   0.372
34775W        W94212   3.758  37.976   0.407
34776W        W94213  43.472  25.120   1.834
34777W        W94214  26.612  29.582   4.185
34778W        W94215  32.135  29.604   4.762
34779W        W94216  10.204  17.588   0.439
34780W        W94217  32.492  15.263   1.713
34781W        W94218  36.052   5.756  13.329
34782W        W94219  20.088  36.461  12.343
34783W        W94220  36.575  34.998  13.475
34784W        W94221  23.553  44.466   0.251
34785W        W94222  43.303  39.531   2.407
34786W        W94223  41.854   4.915  11.944
34787W        W94224  44.961   7.677  14.829
34788W        W94225  31.489  17.286  12.576
34789W        W94226  36.452  19.067   1.448
34790W        W94227  29.995  35.562   3.738
34791W        W94228  29.048  35.542   4.157
34792W        W94229  25.076   6.676   2.683
34793W        W94230  23.034  23.730  11.548
34794W        W94231   8.709  39.408   0.941
34795W        W94232  44.483  26.528   0.803
34796W        W94233  31.552   4.316   2.405
34797W        W94234  31.511  30.978   0.931
34798W        W94235  43.407  38.978  12.446
34799W        W94236   6.690  39.899  13.011
34800W        W94237  41.015  19.616   4.669
34801W        W94238  38.495  43.278  14.946
34802W        W94239  14.818   8.770   1.903
34803W        W94240  11.633  38.833   0.877
34804W        W94241  39.334   9.728  14.387
34805W        W94242   6.764  44.456  14.926
34806W        W94243   2.724  43.459  11.004
34807W        W94244  22.628   3.856   4.263
34808W        W94245  34.526  43.958   4.226
34809W        W94246  21.627   0.253   1.790
34810W        W94247   7.821  23.108   3.701
34811W        W94248   5.366  36.026   1.711
34812W        W94249  12.172  39.971  11.563
34813W        W94250   1.471   8.861   3.801
34814W        W94251  22.601  37.066   3.264
34815W        W94252   3.395  17.733   1.812
34816W        W94253   8.212  24.626   4.675
34817W        W94254  27.976   6.849  13.411
34818W        W94255  20.727  17.269   5.293
34819W        W94256   0.780  18.614   4.140
34820W        W94257  18.547  33.623  10.555
34821W        W94258   5.428  34.968  14.278
34822W        W94259  20.262  31.513  10.544
34823W        W94260  17.089  10.656  10.570
34824W        W94261  15.742   4.843  12.005
34825W        W94262  36.089  29.488   2.381
34826W        W94263   6.410   9.334   2.262
34827W        W94264  22.084  13.788   0.943
34828W        W94265  23.676  38.333  12.518
34829W        W94266   9.752  35.034  13.985
34830W        W94267  26.063  12.782   2.345
34831W        W94268   2.865   3.311   2.353
34832W        W94269  34.448   2.866  13.361
34833W        W94270  43.908  21.535   1.255
34834W        W94271   3.405  10.819   1.830
34835W        W94272  32.973   2.457  14.910
34836W        W94273  17.703  44.459   2.786
34837W        W94274   2.357  19.251  11.954
34838W        W94275  37.039   2.372   4.137
34839W        W94276  22.516   5.241   1.891
34840W        W94277  32.026  36.006   4.636
34841W        W94278  34.100  17.134  13.979
34842W        W94279  38.866   2.314   3.311
34843W        W94280  38.501  42.329  14.446
34844W        W94281  15.611  29.513  11.129
34845W        W94282  26.134  14.262  13.327
34846W        W94283  44.434  31.551  10.518
34847W        W94284  17.179  10.168   1.923
34848W        W94285   2.262  18.152  11.927
34849W        W94286  41.848  15.740   1.343
34850W        W94287  14.714  38.396  14.336
34851W        W94288  24.979  13.804  11.937
34852W        W94289  15.218  41.533  12.829
34853W        W94290  41.476  24.056  11.477
34854W        W94291  27.180  35.039   0.415
34855W        W94292  23.694   2.369   2.734
34856W        W94293  18.243  20.674   3.321
34857W        W94294  23.077  18.651   1.735
34858W        W94295  24.182  31.152   3.840
34859W        W94296  30.037  10.755   4.791
34860W        W94297  30.924  30.926  11.080
34861W        W94298  22.746  19.661   4.726
34862W        W94299  20.172  31.637   4.675
34863W        W94300  23.720  28.185  13.018
34864W        W94301  25.976  44.455  11.597
34865W        W94302  27.479  41.996  10.530
34866W        W94303  13.665  34.489   3.146
34867W        W94304  25.129  26.619  13.340
34868W        W94305   5.768  12.714   3.338
34869W        W94306  42.322  35.082   2.795
34870W        W94307  11.203  32.980   2.736
34871W        W94308  43.902  13.652   1.883
34872W        W94309  37.852  28.137  11.480
34873W        W94310  42.864  18.669   2.399
34874W        W94311  38.435   3.795  13.361
34875W        W94312  41.801  21.255   5.311
34876W        W94313  12.202   0.874   2.851
34877W        W94314  27.148  36.847   3.867
34878W        W94315  38.367   4.830  12.898
34879W        W94316   4.350  12.173   1.447
34880W        W94317  14.674  15.087   4.154
34881W        W94318  16.209  44.341   2.786
34882W        W94319  41.829  15.663  14.465
34883W        W94320   9.764  28.160  12.417
34884W        W94321  37.866  42.470  12.570
34885W        W94322   2.915  44.008  11.034
34886W        W94323  13.637  39.398  14.939
34887W        W94324  33.555   5.697   2.810
34888W        W94325  31.147  31.537  11.564
34889W        W94326  25.491  33.438  12.524
34890W        W94327  30.002  34.511   0.824
34891W        W94328  28.440  15.242  13.953
34892W        W94329  42.026  41.877   2.783
34893W        W94330  18.588  34.977   3.220
34894W        W94331  11.825   1.837  14.307
34895W        W94332   3.745   3.940  10.521
34896W        W94333  21.742  36.561  11.491
34897W        W94334  43.792  44.445   3.382
34898W        W94335  37.907  28.605  14.493
34899W        W94336  15.321  16.073   1.377
34900W        W94337  31.036  39.820  12.395
34901W        W94338  33.923  32.525  12.077
34902W        W94339   1.930  33.424  13.818
34903W        W94340  20.622  13.281  14.942
34904W        W94341  22.640  29.984  10.523
34905W        W94342  32.546  30.582  13.875
34906W        W94343   6.741  41.930  10.499
34907W        W94344  41.024   1.783   3.206
34908W        W94345  15.736  38.999  14.453
34909W        W94346  39.901  28.554  10.619
34910W        W94347  23.579  12.266  12.578
34911W        W94348   6.787  22.020  12.468
34912W        W94349  24.677  15.587  13.354
34913W        W94350  30.506   4.231  13.488
34914W        W94351  10.264  36.847   0.791
34915W        W94352  18.592   3.458   4.791
34916W        W94353  39.930  42.001  14.796
34917W        W94354  37.460  44.969  13.504
34918W        W94355  29.460  30.469  12.381
34919W        W94356  36.048  37.925   2.417
34920W        W94357  41.507  10.667  11.611
34921W        W94358  30.497  41.524  12.952
34922W        W94359  12.201  23.136   4.649
34923W        W94360  43.441   1.285   2.767
34924W        W94361  20.526  29.636   3.838
34925W        W94362  19.137  18.070   0.816
34926W        W94363  36.408  34.885   1.261
34927W        W94364  25.711  31.070  10.623
34928W        W94365  24.633  30.485  14.000
34929W        W94366  41.977   5.817   3.207
34930W        W94367  32.555  24.061   3.775
34931W        W94368  17.068   8.889   2.329
34932W        W94369  31.042   0.421  11.079
34933W        W94370  15.693  31.055  12.031
34934W        W94371  38.837  44.365  11.896
34935W        W94372  20.731  27.190  13.421
34936W        W94373  12.723  21.207  11.063
34937W        W94374  43.012  33.027   0.875
34938W        W94375  17.125  35.014  14.996
34939W        W94376   1.281   6.725  11.405
34940W        W94377  20.631  23.115   2.351
34941W        W94378  30.916  12.349   3.834
34942W        W94379  30.475  44.414   2.268
34943W        W94380  28.462   0.404   2.847
34944W        W94381   4.268  28.013  11.006
34945W        W94382  36.573  19.600   0.851
34946W        W94383  16.789  36.468   4.187
34947W        W94384  40.335  33.386   1.376
34948W        W94385  43.937  15.785   3.297
34949W        W94386  38.363  19.240   4.606
34950W        W94387  15.112  29.168  13.316
34951W        W94388   7.290  33.033  10.616
34952W        W94389  31.646   7.833  10.623
34953W        W94390  16.144  41.841  12.572
34954W        W94391   5.753  34.940   1.344
34955W        W94392  38.506  28.512   1.355
34956W        W94393  32.603  44.472   9.986
34957W        W94394  36.449  41.339   2.238
34958W        W94395  43.835  16.105  13.310
34959W        W94396  42.294  27.601   4.197
34960W        W94397  14.315  42.301  12.530
34961W        W94398  22.517   1.477  10.152
34962W        W94399  25.121  44.840  14.374
34963W        W94400   9.652   1.476  11.581
34964W        W94401  18.131   1.860   3.188
34965W        W94402  21.693   4.895   2.409
34966W        W94403  36.932  10.300  10.495
34967W        W94404  44.346  14.290   3.654
34968W        W94405  34.115  22.558  12.342
34969W        W94406  43.842  36.090  11.883
34970W        W94407  37.582  19.765  13.002
34971W        W94408  44.340  38.508  11.982
34972W        W94409  37.390  19.101  14.959
34973W        W94410   9.208   4.733  10.412
34974W        W94411  33.445  34.905  10.992
34975W        W94412   3.251  29.480  14.448
34976W        W94413  14.313  22.543   4.716
34977W        W94414  19.039   7.698   3.707
34978W        W94415   1.922  33.480   1.803
34979W        W94416  33.557  35.931   0.261
34980W        W94417  19.075  18.696  13.425
34981W        W94418  25.509   3.405  11.444
34982W        W94419  34.447  43.398  11.996
34983W        W94420  17.083  29.067  11.419
34984W        W94421  42.303  43.270   4.760
34985W        W94422  15.307  36.911  13.461
34986W        W94423  21.663   7.257   2.809
34987W        W94424  44.273  14.812   4.336
34988W        W94425  28.078  18.696  10.127
34989W        W94426  23.499  32.922   0.465
34990W        W94427  39.902  24.673   1.759
34991W        W94428  37.506  41.889   0.880
34992W        W94429   5.899  10.314  12.964
34993W        W94430  23.111  19.187   2.212
34994W        W94431  28.041   3.355  14.977
34995W        W94432   5.389  33.550  11.604
34996W        W94433  13.812  21.027   0.384
34997W        W94434   6.727  41.013   2.774
34998W        W94435   0.882  39.402   3.322
34999W        W94436  40.350  10.740  14.415
35000W        W94437  32.613   3.262   4.694
35001W        W94438  42.953  19.168   3.786
35002W        W94439  29.609  16.161   4.750
35003W        W94440  31.474  15.158   0.457
35004W        W94441  24.139  19.164  11.923
35005W        W94442   3.952  43.427  10.935
35006W        W94443  31.035  13.843  13.906
35007W        W94444  37.913  14.746   2.416
35008W        W94445  25.207  17.292   2.233
35009W        W94446  19.129  17.071  14.355
35010W        W94447   5.933   7.204   2.728
35011W        W94448  24.690  11.692   1.900
35012W        W94449  37.454  39.825  14.320
35013W        W94450   5.228  43.832   1.767
35014W        W94451  14.676  36.076   0.760
35015W        W94452  29.613   2.786  10.988
35016W        W94453   8.741  20.248   3.830
35017W        W94454   6.390  30.084  12.488
35018W        W94455  31.026  33.470  14.352
35019W        W94456  18.238  19.699  14.949
35020W        W94457  26.673  44.431   9.990
35021W        W94458  34.012  32.533   1.306
35022W        W94459   4.711  25.468  11.973
35023W        W94460  26.153  27.647   3.681
35024W        W94461  29.924  26.639  12.960
35025W        W94462  30.048  15.676  12.386
35026W        W94463  33.023  17.607  13.411
35027W        W94464  26.157  23.205  14.436
35028W        W94465  40.422   4.288  13.843
35029W        W94466  41.915  23.682   3.231
35030W        W94467  17.765  11.207  13.528
35031W        W94468  22.707  40.342  11.891
35032W        W94469  11.660  30.070  11.952
35033W        W94470  21.166  37.357  11.601
35034W        W94471  28.524  24.204   5.290
35035W        W94472   7.242  21.065  11.032
35036W        W94473   9.825  24.013  13.460
35037W        W94474  18.745  24.037   3.652
35038W        W94475   2.821  30.027  14.026
35039W        W94476  42.839  31.538   4.204
35040W        W94477  35.107   3.237   9.946
35041W        W94478  24.134  20.680  11.926
35042W        W94479  14.200  36.379   4.820
35043W        W94480  18.199  35.108   2.231
35044W        W94481  20.654  27.622   4.284
35045W        W94482  38.434  20.250  10.407
35046W        W94483  14.224  16.810  13.978
35047W        W94484   1.301  27.649   0.369
35048W        W94485  42.021   3.807  12.054
35049W        W94486  37.373   0.340  12.502
35050W        W94487  19.707  38.929   0.811
35051W        W94488  26.085  36.574   0.261
35052W        W94489  25.987  41.842  13.375
35053W        W94490  16.080  30.136   3.732
35054W        W94491   8.382  32.058   2.416
35055W        W94492  28.067  32.526   1.760
35056W        W94493  34.016  11.142  13.412
35057W        W94494  32.405   1.431  12.498
35058W        W94495  25.596  24.097   4.650
35059W        W94496  24.101  37.847   3.224
35060W        W94497  37.070  35.525  12.513
35061W        W94498  40.315  24.130   2.879
35062W        W94499   0.889  33.040   3.790
35063W        W94500  16.301   5.213  11.571
35064W        W94501   1.431  22.043   1.826
35065W        W94502   8.894   0.450   1.898
35066W        W94503  22.704  42.479   1.728
35067W        W94504   2.325   3.238  12.972
35068W        W94505  34.446  44.505  11.074
35069W        W94506  32.408  17.094  13.850
35070W        W94507  23.219  11.858  14.800
35071W        W94508  26.012  25.049  13.437
35072W        W94509  34.421  13.675  13.883
35073W        W94510  16.118   6.388   3.377
35074W        W94511   9.746  37.388  13.858
35075W        W94512  38.891  19.715  11.114
35076W        W94513  37.473  27.532   4.706
35077W        W94514  28.158  31.899  14.779
35078W        W94515  16.629  42.298  12.905
35079W        W94516  44.829  30.144   1.309
35080W        W94517  41.474  36.096   0.750
35081W        W94518   0.883  32.533   3.687
35082W        W94519  39.480  19.772  12.527
35083W        W94520  36.494  17.301  10.921
35084W        W94521   0.494  33.558   0.405
35085W        W94522  24.722  43.416   4.815
35086W        W94523   6.408  26.645  13.037
35087W        W94524  41.823  13.724  13.802
35088W        W94525   6.871  28.507   3.354
35089W        W94526  36.454  31.918  10.076
35090W        W94527  32.032   4.221  13.327
35091W        W94528  28.439  31.897  12.846
35092W        W94529   0.780  30.110  11.556
35093W        W94530  18.227  33.937   4.625
35094W        W94531  11.658  24.590  12.388
35095W        W94532  38.510   6.388   0.733
35096W        W94533  26.602  15.785   5.284
35097W        W94534  40.025   5.881   3.862
35098W        W94535  29.128   5.734   0.349
35099W        W94536  41.981  44.864  11.532
35100W        W94537   1.855  42.008   3.683
35101W        W94538  11.720  37.478  11.438
35102W        W94539  43.944  20.746  11.531
35103W        W94540  30.530  19.089  13.337
35104W        W94541  13.768  22.080   4.787
35105W        W94542  15.621  23.088   2.352
35106W        W94543  27.017  18.206   4.160
35107W        W94544  42.445  28.029   3.304
35108W        W94545   7.262  16.666   0.920
35109W        W94546  21.565  25.970   2.330
35110W        W94547  30.430   4.207   4.256
35111W        W94548   4.845   9.327   3.315
35112W        W94549  33.418  25.166   3.807
35113W        W94550  28.950  20.636  10.503
35114W        W94551  43.821   3.910  12.992
35115W        W94552   3.749  28.595   3.257
35116W        W94553  14.268  44.825  11.514
35117W        W94554  43.864  30.413   1.397
35118W        W94555  44.829  29.611  10.592
35119W        W94556  38.975  15.707  12.061
35120W        W94557  38.417  22.506  12.063
35121W        W94558  31.551  14.707   2.354
35122W        W94559  36.085   0.380  14.936
35123W        W94560  19.589  17.143   0.431
35124W        W94561  32.898  44.406   1.409
35125W        W94562  39.052  12.760   5.118
35126W        W94563   3.780  11.688  14.906
35127W        W94564  20.203  25.521   1.759
35128W        W94565  35.420   1.911  10.464
35129W        W94566  34.573  14.244   4.750
35130W        W94567   6.272  30.644   1.298
35131W        W94568  22.638  32.897  14.886
35132W        W94569  42.414  22.675  12.388
35133W        W94570  25.526   2.956   2.858
35134W        W94571  28.101  25.205   1.273
35135W        W94572   2.307   2.357   0.882
35136W        W94573   3.739  33.920   1.249
35137W        W94574  30.485   6.691  12.029
35138W        W94575  27.972  37.996  14.276
35139W        W94576  44.832  28.579   2.209
35140W        W94577  39.368  25.087  10.644
35141W        W94578  28.672  44.806  12.957
35142W        W94579  20.054  18.598  12.903
35143W        W94580   7.900  27.144   1.310
35144W        W94581   8.282  22.238  14.396
35145W        W94582  10.334  31.015  13.373
35146W        W94583   5.745   6.890   4.249
35147W        W94584  25.207  13.697   1.227
35148W        W94585   5.405  35.028  10.994
35149W        W94586  44.763  32.029   4.337
35150W        W94587  37.966  27.675   1.779
35151W        W94588  30.030  26.510   4.833
35152W        W94589  10.300  10.283  13.527
35153W        W94590   5.892  15.753   1.707
35154W        W94591   9.668  36.398   3.661
35155W        W94592  22.031  40.922  11.016
35156W        W94593  19.566  20.228   4.827
35157W        W94594  15.216  35.062   3.273
35158W        W94595  12.244  44.422   0.359
35159W        W94596  11.366  35.017  12.349
35160W        W94597   1.823  16.214   0.387
35161W        W94598  17.123  40.052  11.399
35162W        W94599  33.949  41.978  12.943
35163W        W94600  18.186   6.730   0.339
35164W        W94601   3.424   0.252  10.072
35165W        W94602  35.029   7.845  13.482
35166W        W94603  33.441   2.235   2.896
35167W        W94604   0.384  17.239   0.870
35168W        W94605  31.005  42.856  12.563
35169W        W94606  30.525  30.422  13.985
35170W        W94607  26.987  14.295  10.927
35171W        W94608  11.130  11.339  10.546
35172W        W94609  44.381  26.525   3.318
35173W        W94610   1.321   2.880   3.189
35174W        W94611  10.707   7.768  13.043
35175W        W94612  32.526  34.445  12.473
35176W        W94613  25.035   3.740  13.904
35177W        W94614  33.477  42.308   1.824
35178W        W94615  20.570  20.064  13.847
35179W        W94616  10.817  43.952   2.868
35180W        W94617   7.716  30.095  13.863
35181W        W94618  23.167  41.314  13.038
35182W        W94619  33.497  44.798  11.112
35183W        W94620   8.854   2.396  12.903
35184W        W94621  32.470  11.136   3.276
35185W        W94622  22.098   4.322  11.912
35186W        W94623   7.302   0.273  13.942
35187W        W94624   9.309  27.601  12.873
35188W        W94625  31.561  38.505   3.774
35189W        W94626   5.230   0.811   4.327
35190W        W94627   6.384   4.768  11.609
35191W        W94628  24.568  26.952   3.177
35192W        W94629   8.667  27.011  10.644
35193W        W94630  35.964  25.674  12.368
35194W        W94631  14.278  44.315   4.232
35195W        W94632  21.092   6.804   4.152
35196W        W94633  44.425   9.849  10.556
35197W        W94634  20.034  12.788   1.859
35198W        W94635  20.106  25.049  10.099
35199W        W94636  37.364   3.770   4.754
35200W        W94637  10.357  11.862  14.828
35201W        W94638  31.069  42.011   9.473
35202W        W94639  17.592   6.358   1.339
35203W        W94640  18.570  25.616  10.979
35204W        W94641  22.234  31.551   3.253
35205W        W94642  21.239  23.082   2.410
35206W        W94643  23.688  16.157   4.775
35207W        W94644  21.553  24.622  13.971
35208W        W94645  19.234  40.364   1.235
35209W        W94646  15.240  34.976  13.491
35210W        W94647  38.491  33.431   1.419
35211W        W94648   5.910  26.186  11.415
35212W        W94649  20.032   8.321   4.677
35213W        W94650  17.761  37.480  10.924
35214W        W94651   5.305  37.525   4.183
35215W        W94652   3.374  34.539   2.278
35216W        W94653   8.388  20.747  10.480
35217W        W94654  24.100  26.142  11.518
35218W        W94655  30.597  37.416   3.174
35219W        W94656  40.907  17.567   1.231
35220W        W94657  33.439  29.610   2.670
35221W        W94658  22.697  14.106   1.787
35222W        W94659  42.937  24.212   5.280
35223W        W94660  30.128   2.853   4.335
35224W        W94661   2.837   0.832  13.980
35225W        W94662   9.802  41.027  14.954
35226W        W94663  16.680  15.808   0.748
35227W        W94664  23.568  10.764  12.967
35228W        W94665   0.382  14.749   1.259
35229W        W94666  35.955  11.358   0.792
35230W        W94667  43.360  36.582  14.981
35231W        W94668  38.487  13.106   4.628
35232W        W94669  38.351  17.127  14.315
35233W        W94670  11.127   9.678   2.758
35234W        W94671  18.742  14.726   5.247
35235W        W94672  13.243  33.961   3.638
35236W        W94673  20.748  40.476  12.471
35237W        W94674  39.865  40.518   3.756
35238W        W94675   5.740  44.348   2.187
35239W        W94676  41.429  15.610  12.513
35240W        W94677  35.378  25.600  14.356
35241W        W94678  20.628  27.074   0.956
35242W        W94679   1.931  33.438  12.538
35243W        W94680  23.633  38.501  12.960
35244W        W94681   4.822  14.737  14.963
35245W        W94682  29.503  39.818   2.401
35246W        W94683  28.449  38.941   3.687
35247W        W94684  33.546  23.209  14.908
35248W        W94685  22.573   1.281   1.301
35249W        W94686  10.824   9.689   4.718
35250W        W94687  23.661  41.494  12.407
35251W        W94688   8.258  17.614  14.826
35252W        W94689  27.004  23.707  12.528
35253W        W94690   8.781  37.913   4.758
35254W        W94691   0.478  28.445  14.967
35255W        W94692  17.654  26.190  11.884
35256W        W94693   0.314  40.362   0.335
35257W        W94694  35.914  16.169  14.512
35258W        W94695  27.506  26.649  13.430
35259W        W94696  12.232   9.790   4.677
35260W        W94697  26.966  16.739   1.225
35261W        W94698  34.020   3.750  14.848
35262W        W94699  26.465  42.937  14.449
35263W        W94700  36.419  44.324   2.179
35264W        W94701  14.612  24.041  12.569
35265W        W94702  27.551  44.298   3.238
35266W        W94703  42.936  16.746  14.445
35267W        W94704  32.132  32.044   0.786
35268W        W94705  23.663   8.215  10.479
35269W        W94706  34.952  41.840   0.863
35270W        W94707  32.094  10.306   4.680
35271W        W94708  26.543  21.562  13.538
35272W        W94709  18.568  22.518  11.092
35273W        W94710  10.302  12.239   1.718
35274W        W94711  15.113  11.827  12.409
35275W        W94712  15.180  14.211  13.501
35276W        W94713   2.930  15.768  13.308
35277W        W94714  12.130  43.405   0.755
35278W        W94715  11.357  26.607   1.258
35279W        W94716  43.809  27.480   4.279
35280W        W94717  38.454  21.017   1.431
35281W        W94718  21.202  10.280  12.043
35282W        W94719  13.236  30.515   4.172
35283W        W94720   3.390  40.485  13.534
35284W        W94721   4.761  41.997  13.832
35285W        W94722  22.141  32.065  12.449
35286W        W94723  33.926  15.605  14.310
35287W        W94724  14.176   1.466  14.880
35288W        W94725  39.958  16.318  12.032
35289W        W94726   0.956  32.131   3.252
35290W        W94727  20.701  29.104   0.928
35291W        W94728  23.491  10.263  11.523
35292W        W94729  33.078   1.792   4.271
35293W        W94730  37.924  10.867   2.832
35294W        W94731   5.315  33.919   4.707
35295W        W94732   6.852   5.868  14.422
35296W        W94733  17.762  30.440   3.740
35297W        W94734  12.172  27.981  11.380
35298W        W94735  29.444  19.209  11.493
35299W        W94736  42.361  14.286  13.855
35300W        W94737   0.353  37.977   3.332
35301W        W94738  29.562   7.290  14.813
35302W        W94739  40.451  44.936   0.859
35303W        W94740   7.765  40.820   3.220
35304W        W94741  15.617  22.076  12.998
35305W        W94742  41.366  23.212   4.297
35306W        W94743  33.518  20.733   0.883
35307W        W94744  29.480   4.836   2.343
35308W        W94745  18.782  38.387   0.256
35309W        W94746   7.285  37.068  14.422
35310W        W94747  23.025  23.664  11.933
35311W        W94748  39.549   2.834   0.315
35312W        W94749  36.016  29.642  11.374
35313W        W94750   0.970  42.786   0.481
35314W        W94751  15.279  28.491  13.474
35315W        W94752  38.048  30.136  11.112
35316W        W94753  38.348  17.672  14.903
35317W        W94754  42.785  12.263  12.949
35318W        W94755  15.094  10.139  13.312
35319W        W94756  14.822   2.368   3.723
35320W        W94757   6.794   1.941   2.269
35321W        W94758  19.127  35.506   1.850
35322W        W94759   4.325  16.686  10.552
35323W        W94760  43.453  21.624  14.465
35324W        W94761  17.722  37.417  13.839
35325W        W94762  35.527  20.716   2.311
35326W        W94763  15.086   3.455   3.332
35327W        W94764   4.909   9.828  12.878
35328W        W94765  28.477  35.997   3.870
35329W        W94766  28.940  32.487  10.532
35330W        W94767  26.971  40.981   0.475
35331W        W94768  32.095  14.711  13.417
35332W        W94769   6.823   1.766  13.518
35333W        W94770  37.938  34.543   3.156
35334W        W94771  27.566  32.067   2.303
35335W        W94772   5.254  13.268  12.500
35336W        W94773  15.624  43.878   0.875
35337W        W94774   5.277  25.039   1.359
35338W        W94775  40.900  17.195   3.264
35339W        W94776  15.713  26.208  10.581
35340W        W94777  36.918  23.178  13.477
35341W        W94778  14.115  27.998   3.357
35342W        W94779   0.425  11.178   1.877
35343W        W94780  27.129  15.212   9.470
35344W        W94781  24.690  37.382   2.841
35345W        W94782  37.440  24.028   2.286
35346W        W94783  36.525  11.294  10.915
35347W        W94784   0.837  21.560   1.358
35348W        W94785  15.695   4.399  13.321
35349W        W94786  27.046  42.280  13.506
35350W        W94787  23.115  24.531  10.894
35351W        W94788  14.189   5.797   1.391
35352W        W94789  23.028   3.710   3.773
35353W        W94790  39.340   6.842   1.857
35354W        W94791  37.938  11.628  13.810
35355W        W94792   3.836  17.651   4.237
35356W        W94793   4.351   1.402   3.146
35357W        W94794  44.417  23.144   4.292
35358W        W94795  32.485  21.026  14.396
35359W        W94796  33.032  25.974   0.947
35360W        W94797  41.849  29.541   4.812
35361W        W94798  22.610  17.234   5.254
35362W        W94799  14.666   1.378   3.358
35363W        W94800  39.488   3.324   4.691
35364W        W94801  38.570   1.880  10.586
35365W        W94802   1.860   2.268   1.414
35366W        W94803   0.985  26.499  14.346
35367W        W94804  22.644  20.547  12.550
35368W        W94805  18.573  39.442  12.899
35369W        W94806  29.583  36.962  10.505
35370W        W94807  17.583  33.501   1.253
35371W        W94808  36.007   8.225   0.482
35372W        W94809  18.187  22.636   4.333
35373W        W94810  11.704   4.246  11.428
35374W        W94811  17.106  34.592  11.882
35375W        W94812  23.584  20.603  10.546
35376W        W94813   2.442  44.933  11.522
35377W        W94814  42.311  16.579  13.428
35378W        W94815   9.280  22.743  14.457
35379W        W94816  32.517  11.756   1.451
35380W        W94817   9.751  15.275  14.963
35381W        W94818   3.352   3.401  10.574
35382W        W94819  21.165  21.056   0.281
35383W        W94820   1.966   2.931  11.499
35384W        W94821   5.712   9.270  14.405
35385W        W94822  38.054  16.777   1.428
35386W        W94823   3.390  20.212   2.877
35387W        W94824  21.147   4.301   3.230
35388W        W94825   4.783   3.272   4.624
35389W        W94826  24.606  13.142   1.877
35390W        W94827   8.897  35.074   2.260
35391W        W94828  15.187  39.531  13.329
35392W        W94829  19.244  20.153  10.545
35393W        W94830  40.880  20.524  13.035
35394W        W94831  40.869  38.982  13.885
35395W        W94832  11.213  35.450  11.983
35396W        W94833   6.246  37.387  12.901
35397W        W94834  16.156  12.675  13.869
35398W        W94835  29.020  25.672  11.981
35399W        W94836  24.126  43.804   3.316
35400W        W94837  30.149  20.047   5.280
35401W        W94838  33.610   7.854  12.064
35402W        W94839   3.323   5.851  13.362
35403W        W94840  13.233  13.765   0.351
35404W        W94841  20.243  22.655  11.875
35405W        W94842  14.195  10.173  11.059
35406W        W94843  12.850  16.276   2.265
35407W        W94844   1.374  16.809   0.777
35408W        W94845  32.056  33.553   1.442
35409W        W94846   9.287  34.003  10.909
35410W        W94847  17.223  18.643  12.928
35411W        W94848  34.959  36.062  13.859
35412W        W94849  35.435  18.251   2.415
35413W        W94850  19.551  10.242  12.519
35414W        W94851  41.400  26.202   2.833
35415W        W94852  38.557   0.306  13.416
35416W        W94853  11.765  17.725   2.205
35417W        W94854  41.472   5.889   3.237
35418W        W94855  21.070  35.447   3.646
35419W        W94856  36.387   3.938   1.849
35420W        W94857  36.053  10.764   0.882
35421W        W94858  41.938   1.462   1.854
35422W        W94859  15.216  27.149   3.163
35423W        W94860  27.510   6.270  11.412
35424W        W94861   5.835  39.007  14.961
35425W        W94862  34.377  37.462   3.641
35426W        W94863  23.521   9.303   1.855
35427W        W94864   3.775   2.410   3.269
35428W        W94865  23.622   0.907   1.271
35429W        W94866  27.474  43.897   1.694
35430W        W94867   8.369   5.358  12.959
35431W        W94868  31.086  26.075  14.412
35432W        W94869  27.550  21.243  12.367
35433W        W94870   8.219  29.039   0.319
35434W        W94871   8.843  38.897  11.109
35435W        W94872   2.237   4.323   0.821
35436W        W94873  36.418  34.004   1.888
35437W        W94874   3.276   1.250   1.211
35438W        W94875  20.231  39.461  10.889
35439W        W94876  18.726  19.638  10.895
35440W        W94877  39.510  35.025  10.557
35441W        W94878  32.946  29.967   4.229
35442W        W94879  39.952  19.047   1.909
35443W        W94880  39.063  33.386  13.434
35444W        W94881   9.843  17.784  13.348
35445W        W94882   7.895  37.901  11.553
35446W        W94883  25.065  16.720   0.870
35447W        W94884  26.619   1.922   1.848
35448W        W94885  37.951  31.043  11.492
35449W        W94886   1.921  22.061  13.826
35450W        W94887  33.568  31.596   3.719
35451W        W94888   0.950  36.094   0.896
35452W        W94889   9.321  41.531  10.065
35453W        W94890  20.087  10.741   1.431
35454W        W94891  21.729  29.153  11.461
35455W        W94892   1.948  29.083  10.011
35456W        W94893  23.616  17.239   4.343
35457W        W94894  22.062   5.362  14.773
35458W        W94895  21.737   4.846  10.066
35459W        W94896   8.265  28.649   4.759
35460W        W94897  41.484  20.753  11.992
35461W        W94898  12.629  22.145   4.135
35462W        W94899  17.205  10.346   3.260
35463W        W94900  31.147   1.265   1.896
35464W        W94901  39.049  34.480   0.480
35465W        W94902  15.687  42.392  14.780
35466W        W94903  13.668  34.923   0.899
35467W        W94904  30.108  44.977  14.931
35468W        W94905  33.418  28.448  10.548
35469W        W94906  33.014  38.063  14.929
35470W        W94907  10.706  30.965   4.621
35471W        W94908  28.533  38.543   1.426
35472W        W94909  36.084  29.162  13.847
35473W        W94910  10.363  28.489   1.376
35474W        W94911  16.573  32.563  13.332
35475W        W94912   5.346   7.844  11.061
35476W        W94913   0.335  36.074  12.008
35477W        W94914   1.774  30.522   0.466
35478W        W94915   0.482  24.546  11.605
35479W        W94916  34.383  32.417   0.887
35480W        W94917  30.924  27.026   0.354
35481W        W94918  38.349   7.706   4.789
35482W        W94919   0.749  15.650  10.479
35483W        W94920   7.848  31.025  11.910
35484W        W94921  20.229  44.323  11.470
35485W        W94922  22.649  22.118   4.236
35486W        W94923  12.160  15.260  13.384
35487W        W94924   3.727  43.908   1.241
35488W        W94925  38.454  32.085   2.322
35489W        W94926   7.222  27.488   2.687
35490W        W94927  27.983   0.867   0.774
35491W        W94928  21.687  36.975   0.957
35492W        W94929   0.867   7.328   3.834
35493W        W94930  36.844  30.154  11.443
35494W        W94931  38.551  22.109   4.153
35495W        W94932  36.043   5.396  12.837
35496W        W94933   3.851   3.344  13.917
35497W        W94934  17.203   7.313   2.884
35498W        W94935  34.930  41.945  12.988
35499W        W94936  39.396  17.699   1.792
35500W        W94937  17.272   3.413  11.382
35501W        W94938   8.729  15.819   5.320
35502W        W94939   4.904  36.408  11.000
35503W        W94940  33.115  14.634  13.059
35504W        W94941  35.971  20.762   1.210
35505W        W94942   6.384  14.146   3.195
35506W        W94943   1.433   1.864  12.428
35507W        W94944  38.929  33.917   0.472
35508W        W94945  35.579  13.697  11.921
35509W        W94946  31.929  33.011   3.762
35510W        W94947  42.328  44.802  12.823
35511W        W94948   8.404   9.709  11.527
35512W        W94949   6.406  32.629   0.242
35513W        W94950  14.619  19.776   5.235
35514W        W94951  20.765  44.986  12.537
35515W        W94952  18.230  14.748   2.190
35516W        W94953  35.593  13.248   2.378
35517W        W94954   2.386  36.421   4.343
35518W        W94955  37.914  19.577   0.310
35519W        W94956  10.247  22.738  13.416
35520W        W94957  10.244  19.597  14.476
35521W        W94958  34.544  12.712  14.907
35522W        W94959  38.979  33.438  13.861
35523W        W94960  35.884  37.930  12.034
35524W        W94961  20.677  20.594  11.039
35525W        W94962  11.697  18.574  14.785
35526W        W94963  37.507  24.089   1.388
35527W        W94964  22.626  35.458   1.783
35528W        W94965  25.671  43.270   1.743
35529W        W94966  37.831  30.645   0.366
35530W        W94967  44.887   2.312  14.481
35531W        W94968  21.021  29.968   4.285
35532W        W94969  14.121  18.755  12.373
35533W        W94970  27.587  11.135  14.784
35534W        W94971  27.064  21.651   2.415
35535W        W94972   2.296  42.032   2.307
35536W        W94973  24.524  18.744   0.343
35537W        W94974  10.870   5.914  14.380
35538W        W94975  18.103  39.551  13.354
35539W        W94976   6.195   8.173  13.050
35540W        W94977  30.614   0.293  12.467
35541W        W94978  10.657  29.593  13.415
35542W        W94979  24.518  30.090   2.366
35543W        W94980   6.283  16.730  10.927
35544W        W94981  32.475  25.692   4.332
35545W        W94982  15.662  38.896   3.670
35546W        W94983  23.984  15.670   2.695
35547W        W94984   9.257   3.720   1.894
35548W        W94985  23.588  36.862  11.877
35549W        W94986   2.744  13.253  14.497
35550W        W94987  37.009   2.933  12.996
35551W        W94988  26.510  29.163  12.975
35552W        W94989  29.939   6.895   2.880
35553W        W94990   1.790  24.699   2.376
35554W        W94991  20.633   8.897   1.734
35555W        W94992  38.383  37.057  13.863
35556W        W94993  26.163  23.561  10.028
35557W        W94994   0.863   2.729  12.957
35558W        W94995   0.472  26.096  12.552
35559W        W94996   5.702  17.707  11.576
35560W        W94997  38.453  39.882  10.485
35561W        W94998   7.731  14.291  14.516
35562W        W94999  40.426  33.399  12.959
35563W        W95000  12.716  36.484  14.993
35564W        W95001  22.714  29.966  11.927
35565W        W95002  17.232  21.197   1.431
35566W        W95003  14.701  25.085   3.298
35567W        W95004  23.035  13.696  12.507
35568W        W95005   0.903   5.340   2.209
35569W        W95006  40.975  38.916   2.833
35570W        W95007  19.676  32.975  14.507
35571W        W95008  19.604   8.722  13.844
35572W        W95009  34.999   6.329  10.103
35573W        W95010  21.032  42.344  12.929
35574W        W95011  28.947  10.348   3.717
35575W        W95012  18.280   4.425   3.229
35576W        W95013  17.158  20.525   2.317
35577W        W95014  33.582  18.280  12.028
35578W        W95015  40.505  15.702  12.479
35579W        W95016  11.222  42.419  11.969
35580W        W95017  26.980  19.680   5.240
35581W        W95018  17.638  31.035   0.297
35582W        W95019  16.228   1.762  11.992
35583W        W95020  13.186  25.004   2.678
35584W        W95021  25.084  33.557  13.968
35585W        W95022   7.213  20.572  11.485
35586W        W95023  13.786  12.647  12.367
35587W        W95024  26.514  36.860  14.452
35588W        W95025  39.361   7.726   2.775
35589W        W95026  31.533  42.439   4.765
35590W        W95027  20.605  23.106  11.489
35591W        W95028  15.322   3.850   0.293
35592W        W95029  19.565  15.690   2.286
35593W        W95030  16.175  29.596   0.371
35594W        W95031  41.997  10.868   1.238
35595W        W95032   3.277  25.185  10.073
35596W        W95033  15.242   5.876  12.039
35597W        W95034  28.957  18.055   4.725
35598W        W95035   8.727  42.981  12.954
35599W        W95036  13.760  20.203   4.130
35600W        W95037   0.474  32.636  14.013
35601W        W95038  35.538  42.010   0.367
35602W        W95039  18.727  32.047   0.745
35603W        W95040  26.109  12.182  13.348
35604W        W95041  16.692  31.981   2.246
35605W        W95042  26.960  42.400  12.937
35606W        W95043  15.755  20.600   0.820
35607W        W95044  14.258  26.207   1.829
35608W        W95045  37.467  40.510   3.798
35609W        W95046  40.043  26.137   4.350
35610W        W95047  37.932  42.811   0.323
35611W        W95048   2.961   7.717   4.668
35612W        W95049  22.513  11.646  10.600
35613W        W95050  19.067  23.089  11.394
35614W        W95051  37.501  20.618  13.312
35615W        W95052  31.563  27.501   5.312
35616W        W95053  27.130  16.073  11.099
35617W        W95054   0.785   6.776  13.931
35618W        W95055   2.740   2.847   4.609
35619W        W95056  25.099   9.191  13.464
35620W        W95057   4.216  40.831  14.852
35621W        W95058   8.343  17.273   3.222
35622W        W95059   4.232   8.836   1.373
35623W        W95060  30.611   2.723  14.283
35624W        W95061  37.912   7.776  11.910
35625W        W95062  24.568  38.007  11.906
35626W        W95063  20.688  20.057  10.078
35627W        W95064  40.862  38.460  13.472
35628W        W95065   6.825  28.532   1.440
35629W        W95066  25.146  20.566   1.922
35630W        W95067  34.959  17.120  11.000
35631W        W95068  34.924  21.661  11.372
35632W        W95069  29.131  21.038   3.746
35633W        W95070  17.278  19.158   2.812
35634W        W95071  18.062  21.220  13.354
35635W        W95072  28.137  18.101   0.760
35636W        W95073  17.073  32.972  11.528
35637W        W95074  23.241   0.792  12.981
35638W        W95075  29.969   1.814  14.831
35639W        W95076  36.376   7.754  11.015
35640W        W95077   1.955  14.334  11.126
35641W        W95078  39.815   3.252   0.484
35642W        W95079  39.947   3.925   1.391
35643W        W95080  37.465  26.688  13.543
35644W        W95081  38.987  24.605  11.039
35645W        W95082  16.128  16.229  12.017
35646W        W95083   6.818  20.767   0.320
35647W        W95084  15.098  42.317  13.880
35648W        W95085   5.830  14.782   2.348
35649W        W95086   7.875  38.898   3.760
35650W        W95087  30.434  44.990  11.969
35651W        W95088  24.722  26.602  13.897
35652W        W95089  44.467  44.373   4.619
35653W        W95090  16.209  38.496  10.472
35654W        W95091  17.217  34.548   0.831
35655W        W95092  26.648  14.227   2.243
35656W        W95093   2.423  32.569  10.606
35657W        W95094  41.957  37.501   3.831
35658W        W95095   4.742  13.767   0.895
35659W        W95096  41.009  14.214  10.596
35660W        W95097  28.979  36.353   3.277
35661W        W95098  31.032   1.310   2.682
35662W        W95099  44.006  37.886   4.671
35663W        W95100  23.521  38.365  13.428
35664W        W95101  21.110  41.896  13.426
35665W        W95102  34.906   5.752  12.063
35666W        W95103  34.553  18.206  10.930
35667W        W95104   8.710  17.642   2.341
35668W        W95105  40.937  27.118   1.213
35669W        W95106  17.575  44.398   0.461
35670W        W95107   3.241  33.988   2.808
35671W        W95108  25.100  39.816   2.369
35672W        W95109   1.412  35.908  14.781
35673W        W95110  19.185   0.784  11.067
35674W        W95111   1.416  40.372   4.623
35675W        W95112   0.859  40.373  14.934
35676W        W95113  41.319   5.828   0.955
35677W        W95114   5.246  10.234  12.830
35678W        W95115  27.557  29.431  11.562
35679W        W95116  30.935  40.492  10.555
35680W        W95117  40.491  34.522   5.219
35681W        W95118   8.320  35.963  12.963
35682W        W95119  26.618  37.088   0.839
35683W        W95120   1.748  16.673   0.900
35684W        W95121  29.444  43.280  13.334
35685W        W95122  27.170  31.915   4.821
35686W        W95123  23.210  36.941   3.764
35687W        W95124  24.705  31.938  11.532
35688W        W95125  14.786  22.050   4.279
35689W        W95126  29.160  11.709  10.899
35690W        W95127   2.332   1.407  14.472
35691W        W95128  32.065  35.376   0.904
35692W        W95129  41.822   3.762  13.504
35693W        W95130  19.538  17.095  10.102
35694W        W95131   2.257  22.194   3.305
35695W        W95132  18.061  40.474  14.884
35696W        W95133  29.586   9.274   4.232
35697W        W95134   6.256   7.400  11.997
35698W        W95135  13.110  38.991   1.267
35699W        W95136   0.873   2.901   1.901
35700W        W95137  17.792   5.436   4.602
35701W        W95138  28.994  41.373  12.378
35702W        W95139  30.911  20.114   4.660
35703W        W95140  15.108   5.368   4.303
35704W        W95141  20.126  12.790  14.953
35705W        W95142  33.590  37.021   3.703
35706W        W95143   1.920  19.201  12.873
35707W        W95144  29.436   8.686  11.449
35708W        W95145  14.635  30.959   1.344
35709W        W95146  34.927  33.590  13.500
35710W        W95147  13.750  39.939   0.862
35711W        W95148  19.685  21.541  10.016
35712W        W95149  35.994  38.562  12.883
35713W        W95150  44.430  17.089   3.225
35714W        W95151  15.735  43.005   1.836
35715W        W95152  39.427  14.756   4.348
35716W        W95153   9.705  33.089   3.386
35717W        W95154   3.229  14.101  14.900
35718W        W95155  11.679  44.001   3.341
35719W        W95156  27.946  24.571  10.127
35720W        W95157   1.976  11.667   0.775
35721W        W95158   3.721  32.444   2.718
35722W        W95159  10.366  38.046  10.505
35723W        W95160   3.388   4.322   0.460
35724W        W95161   7.838   3.296   4.177
35725W        W95162  41.414  33.113   0.742
35726W        W95163   6.781  41.931   3.245
35727W        W95164  30.002   5.275   1.357
35728W        W95165  16.285   1.349   4.606
35729W        W95166  16.199  36.365  11.497
35730W        W95167  36.011  34.407  14.306
35731W        W95168   6.297  27.994   4.730
35732W        W95169   4.252  30.943   4.799
35733W        W95170  24.077   4.755  13.953
35734W        W95171  35.536   4.870  12.034
35735W        W95172  17.219   1.808  13.853
35736W        W95173  38.850  36.887   3.770
35737W        W95174  41.291  42.775  10.514
35738W        W95175  42.831  17.062   1.890
35739W        W95176  23.075  27.088  13.447
35740W        W95177  42.287  27.685  12.058
35741W        W95178   3.761   3.249   1.394
35742W        W95179  28.173   5.393   3.859
35743W        W95180   7.703  39.557  11.453
35744W        W95181  44.968  41.377   3.679
35745W        W95182  25.025  43.851   2.720
35746W        W95183   1.764  15.266   9.921
35747W        W95184  26.698  13.722   3.386
35748W        W95185  42.896  30.592   1.423
35749W        W95186  17.576  25.057   1.772
35750W        W95187  25.988  16.208  12.432
35751W        W95188  13.229  23.157   1.245
35752W        W95189   5.836   8.792   1.776
35753W        W95190  23.516  34.510   4.290
35754W        W95191  42.372  15.579   3.374
35755W        W95192  31.559  42.032  11.380
35756W        W95193   8.866   8.679   0.371
35757W        W95194  18.132  16.109  13.823
35758W        W95195   1.459  31.978   3.724
35759W        W95196  25.536  44.360   0.293
35760W        W95197  17.586  40.022   1.712
35761W        W95198   9.155   7.750   0.740
35762W        W95199  11.128   8.822  12.395
35763W        W95200  12.285   0.356  13.019
35764W        W95201   3.278  31.553   1.753
35765W        W95202  42.900  21.051  13.834
35766W        W95203  36.992  22.189  13.438
35767W        W95204  39.051  28.143   4.821
35768W        W95205  16.797  13.152   0.861
35769W        W95206   1.903  21.193   2.198
35770W        W95207  10.866  30.597   2.279
35771W        W95208  24.212  30.029  12.826
35772W        W95209   2.348   9.211  12.958
35773W        W95210  10.830  22.234  11.105
35774W        W95211   7.733  34.544   0.857
35775W        W95212  12.841  44.877   0.256
35776W        W95213   2.936   2.449   1.922
35777W        W95214  26.146  24.169   1.879
35778W        W95215  18.130  37.573   1.387
35779W        W95216   0.370  20.084  13.038
35780W        W95217   3.817   0.322   3.684
35781W        W95218  24.495  30.470  12.438
35782W        W95219  42.376  41.403   4.813
35783W        W95220  21.611  35.986   0.861
35784W        W95221  44.492  10.697  11.510
35785W        W95222  41.820   1.921  11.032
35786W        W95223  37.920  31.581  11.087
35787W        W95224  22.174  35.054   3.204
35788W        W95225  38.839   1.952   1.409
35789W        W95226  31.535  29.630   4.624
35790W        W95227   8.674  32.572  12.915
35791W        W95228   3.376  12.245   3.152
35792W        W95229  12.723  11.281   3.261
35793W        W95230  20.034  20.545   4.837
35794W        W95231   2.397  16.687   4.215
35795W        W95232  25.165  35.960   4.327
35796W        W95233   6.408  15.166   2.392
35797W        W95234  20.672  38.399  11.883
35798W        W95235  32.488  22.645   4.276
35799W        W95236  31.465  36.365   1.825
35800W        W95237   6.907  41.396   2.191
35801W        W95238  24.500   3.259  14.917
35802W        W95239  28.520  29.163  11.425
35803W        W95240   1.965  30.563  10.538
35804W        W95241  32.474  37.075   1.288
35805W        W95242  23.557  44.324  14.291
35806W        W95243  21.552  31.003   0.310
35807W        W95244  29.109  17.268  11.412
35808W        W95245  26.091  31.059  13.458
35809W        W95246  30.065   8.383   0.850
35810W        W95247  14.706  43.406  14.415
35811W        W95248  33.515  22.194   1.739
35812W        W95249  20.116  31.968   4.334
35813W        W95250  28.158  18.249   1.429
35814W        W95251  30.943  36.860   1.272
35815W        W95252  35.523   0.914   3.666
35816W        W95253  28.068  38.029   0.919
35817W        W95254  42.928  24.150   2.825
35818W        W95255  33.900  30.980  11.997
35819W        W95256  32.947  21.154   2.364
35820W        W95257  22.568  14.332   0.286
35821W        W95258   1.381  42.025  10.409
35822W        W95259   3.252  13.749   3.782
35823W        W95260  32.465  29.623  12.935
35824W        W95261  19.230   1.781  14.485
35825W        W95262  35.464  24.504  14.850
35826W        W95263  12.716   6.324   1.410
35827W        W95264   5.934  26.559   2.206
35828W        W95265  10.691  23.566  14.832
35829W        W95266  33.544  24.208  12.502
35830W        W95267   6.842   1.861   0.894
35831W        W95268  39.443  39.420   4.271
35832W        W95269  32.125  41.527   0.396
35833W        W95270  18.744   8.839   2.715
35834W        W95271  22.693  42.375   0.253
35835W        W95272  36.427   8.329  12.961
35836W        W95273   5.913  11.667   4.798
35837W        W95274  38.044  37.515  14.307
35838W        W95275  12.138  42.863  13.826
35839W        W95276   2.922  35.861   2.843
35840W        W95277  10.237  19.632  13.432
35841W        W95278  37.830  32.120  13.461
35842W        W95279  22.056  31.588  13.812
35843W        W95280  18.678  37.904   0.936
35844W        W95281  44.392  25.033  11.989
35845W        W95282  20.099  25.984  12.022
35846W        W95283  19.250  33.063  12.415
35847W        W95284  11.800  15.128  11.430
35848W        W95285  36.561  31.490   1.439
35849W        W95286   9.251  33.002   1.835
35850W        W95287  15.596  33.019  13.931
35851W        W95288  35.079   3.719  10.552
35852W        W95289  23.024  22.601  14.954
35853W        W95290   3.879  42.446  13.501
35854W        W95291  28.950  22.587   0.306
35855W        W95292  43.835  38.923   9.935
35856W        W95293  15.608  22.163   2.772
35857W        W95294  18.732   7.727   3.186
35858W        W95295  35.963  36.016  14.934
35859W        W95296  27.968  41.983  10.014
35860W        W95297  34.871  37.449  12.052
35861W        W95298  33.906  29.162  14.361
35862W        W95299  36.909  20.089   1.383
35863W        W95300  37.034   5.727  14.849
35864W        W95301  18.244  12.698  12.462
35865W        W95302  32.450  28.437  12.073
35866W        W95303  37.517  21.687   0.422
35867W        W95304  30.939  30.963   2.855
35868W        W95305   1.483   5.347   1.883
35869W        W95306  19.731  33.445   0.444
35870W        W95307  24.708  30.049  11.018
35871W        W95308  38.419  13.255   3.773
35872W        W95309  10.723  43.021  12.025
35873W        W95310  28.966  22.610  12.893
35874W        W95311   8.742  39.324  10.476
35875W        W95312  20.236  12.845  12.970
35876W        W95313  23.074  33.883  12.454
35877W        W95314   7.789  23.033   4.345
35878W        W95315   9.831  41.941  14.836
35879W        W95316  17.172  15.716   3.842
35880W        W95317  36.063  31.580   1.779
35881W        W95318  20.546  15.303  12.845
35882W        W95319  38.822  38.503  12.030
35883W        W95320  29.936   4.794  13.470
35884W        W95321  20.264  40.836  12.842
35885W        W95322   7.368   8.406  11.958
35886W        W95323  34.437  23.147  13.816
35887W        W95324  32.462  38.534   3.772
35888W        W95325  19.569  10.724  14.021
35889W        W95326   7.765  32.415  11.452
35890W        W95327  18.080  44.832  11.515
35891W        W95328  33.561  12.226  11.995
35892W        W95329  25.511  28.572   2.811
35893W        W95330  43.769   1.851  13.853
35894W        W95331  14.789   0.840   1.837
35895W        W95332  15.136  21.041  10.040
35896W        W95333  43.801  17.729   1.883
35897W        W95334  24.091   7.774  11.526
35898W        W95335  23.240  21.617  10.634
35899W        W95336   6.275  37.993  14.962
35900W        W95337  43.420  14.308  11.030
35901W        W95338  12.129   8.705  11.948
35902W        W95339  25.699   4.909   2.729
35903W        W95340  27.543  18.594  11.588
35904W        W95341  38.445  21.613  11.524
35905W        W95342  41.489   7.393  13.000
35906W        W95343  22.737  17.754  11.064
35907W        W95344  37.066  14.682  11.911
35908W        W95345  42.025   3.712   4.830
35909W        W95346   5.871  43.327  10.961
35910W        W95347  13.272   1.372  13.815
35911W        W95348  34.590   7.809   3.784
35912W        W95349   7.892   8.836   4.155
35913W        W95350  21.559   6.306   9.949
35914W        W95351  15.824  25.689  12.354
35915W        W95352  10.144  17.222  14.370
35916W        W95353  14.106  11.663  11.489
35917W        W95354  30.600  24.014   1.402
35918W        W95355  30.036   2.890  12.517
35919W        W95356  42.328  40.951   4.778
35920W        W95357  20.252  34.944  13.981
35921W        W95358  26.177   2.322   4.719
35922W        W95359   0.313  24.658   4.253
35923W        W95360   1.775   9.285  14.321
35924W        W95361  25.074  18.705  13.922
35925W        W95362  12.295  43.771  11.104
35926W        W95363  33.485   0.337   4.637
35927W        W95364  19.177  25.476   4.668
35928W        W95365  33.092  37.876   2.310
35929W        W95366   4.396  13.602  10.012
35930W        W95367  17.792  29.014   3.253
35931W        W95368  21.138  27.681   2.253
35932W        W95369  23.082  12.225   0.313
35933W        W95370   1.847   2.404   0.804
35934W        W95371   4.698  38.543   4.134
35935W        W95372  42.522  38.072  12.484
35936W        W95373   4.300  33.455  13.892
35937W        W95374  10.692  25.964   1.916
35938W        W95375  37.863  21.513  14.759
35939W        W95376  25.522  12.757   2.718
35940W        W95377  31.461  29.018  12.483
35941W        W95378  24.033  29.616  13.409
35942W        W95379  16.146  42.915   5.093
35943W        W95380  26.688   4.860  14.400
35944W        W95381  16.139  26.164   0.893
35945W        W95382   6.819  37.521  11.125
35946W        W95383  36.884  20.242   4.170
35947W        W95384  22.578  24.099  13.424
35948W        W95385  22.631  23.168   1.804
35949W        W95386  30.914   3.454   1.230
35950W        W95387   1.809  19.714  12.467
35951W        W95388  44.496   9.191  10.474
35952W        W95389   6.734  42.823   3.799
35953W        W95390   2.859  15.663  10.914
35954W        W95391   7.317  34.085   4.642
35955W        W95392  17.772  41.834   4.336
35956W        W95393  28.179  31.079   1.903
35957W        W95394   2.353  34.910   4.741
35958W        W95395  34.462  37.837  10.901
35959W        W95396  13.272  14.301  10.465
35960W        W95397  12.330  31.094   4.792
35961W        W95398  41.476   6.238  11.518
35962W        W95399  22.237  18.103   1.841
35963W        W95400  26.019  36.842   4.814
35964W        W95401  19.721  18.547  12.513
35965W        W95402  36.534   1.850  13.369
35966W        W95403   3.360  38.891  11.124
35967W        W95404  35.489  38.337  14.998
35968W        W95405  41.962  10.265  14.499
35969W        W95406  38.932  35.603  14.395
35970W        W95407  28.616  36.970   5.638
35971W        W95408  40.829  27.172  13.850
35972W        W95409  25.126  36.403  14.394
35973W        W95410  26.110  15.265   4.632
35974W        W95411  23.632  29.457   0.411
35975W        W95412  16.582   2.725   2.747
35976W        W95413  27.618   7.835  14.309
35977W        W95414  10.720  38.390  13.428
35978W        W95415   6.260   5.921  14.425
35979W        W95416  38.409   1.908   3.174
35980W        W95417   8.736  26.167   0.324
35981W        W95418  33.577  38.839  14.363
35982W        W95419  34.938   3.243   1.732
35983W        W95420  10.838  39.546   2.406
35984W        W95421  13.238  44.266  13.982
35985W        W95422  21.195  35.104   1.756
35986W        W95423  27.057  41.314   2.776
35987W        W95424   5.364   1.398   4.713
35988W        W95425  40.491  26.696  12.846
35989W        W95426   8.738   6.695  14.896
35990W        W95427  41.812  17.071  11.917
35991W        W95428  18.732  16.088  13.471
35992W        W95429  13.844  42.370  14.474
35993W        W95430  42.846  30.034  14.799
35994W        W95431   0.742  30.415   0.930
35995W        W95432  23.530  29.491   0.961
35996W        W95433  42.845  24.643  14.467
35997W        W95434   4.731   4.236  12.985
35998W        W95435  39.811  44.777  11.102
35999W        W95436   2.944  42.308  13.830
36000W        W95437  35.953   1.802  12.834
36001W        W95438  29.479  41.894  14.419
36002W        W95439   3.429  23.234  13.941
36003W        W95440  43.367   6.388   0.765
36004W        W95441   4.747  31.005   1.886
36005W        W95442  35.572  10.143   0.903
36006W        W95443  27.680  39.997   3.646
36007W        W95444  18.614  16.208  14.331
36008W        W95445  26.573  42.012   3.711
36009W        W95446   4.405  38.410  11.955
36010W        W95447  29.127   9.369  12.451
36011W        W95448  17.293  18.769  11.572
36012W        W95449  38.563  21.162   5.102
36013W        W95450  32.055  11.346  12.091
36014W        W95451  11.308  32.140  14.850
36015W        W95452  26.580  44.898  11.467
36016W        W95453  17.248  15.266   4.165
36017W        W95454  10.709  38.828  10.456
36018W        W95455  21.548  31.948   3.856
36019W        W95456  25.696  29.484  10.424
36020W        W95457  39.496  38.953  13.343
36021W        W95458   9.805   1.933  11.930
36022W        W95459  31.565  18.592  11.996
36023W        W95460  42.330  19.111  11.502
36024W        W95461   6.186   8.841  11.574
36025W        W95462  10.721  40.952  13.509
36026W        W95463  14.301   4.321  11.380
36027W        W95464  25.142  16.214   3.162
36028W        W95465  11.642   4.906  14.314
36029W        W95466  27.116  23.070   1.762
36030W        W95467   9.744   4.713  10.989
36031W        W95468  35.012  29.561  12.561
36032W        W95469   8.403  14.761  13.352
36033W        W95470  42.935  21.539   4.166
36034W        W95471  13.131  20.620  12.443
36035W        W95472  23.704   8.350   3.145
36036W        W95473   7.830  35.900  10.957
36037W        W95474  27.948  14.332  11.020
36038W        W95475  25.129  20.161  11.567
36039W        W95476  40.877  43.411   4.749
36040W        W95477  29.482  34.586  13.014
36041W        W95478  35.538  42.915   1.418
36042W        W95479  31.441  16.578   4.736
36043W        W95480  18.230  38.048   0.907
36044W        W95481  23.641  28.585   2.877
36045W        W95482   2.883  24.713   3.170
36046W        W95483  27.171  36.504  14.398
36047W        W95484  31.543   1.384  13.968
36048W        W95485   7.216  29.053  13.002
36049W        W95486  27.959  23.237   2.704
36050W        W95487  41.477   2.333  10.472
36051W        W95488  15.161  35.532   0.355
36052W        W95489   1.810   3.803  13.330
36053W        W95490  16.716  37.053   4.327
36054W        W95491  15.246  19.645  14.814
36055W        W95492  42.987  35.461   9.991
36056W        W95493  28.959  29.966  13.005
36057W        W95494   6.292  14.223  10.575
36058W        W95495  38.993  24.212  13.514
36059W        W95496  14.756  11.171   3.214
36060W        W95497  36.565  40.812   2.414
36061W        W95498  16.620  34.493  13.045
36062W        W95499  17.255  36.020  10.919
36063W        W95500  40.330   1.773   0.249
36064W        W95501  33.023  27.686  10.506
36065W        W95502  36.484  26.578  11.482
36066W        W95503  38.550   2.440  11.965
36067W        W95504  16.073  34.117  10.431
36068W        W95505   9.174  32.426  13.049
36069W        W95506   7.302   3.354  13.414
36070W        W95507  17.152  30.475   4.229
36071W        W95508  34.384  21.744  12.909
36072W        W95509  44.497  40.967  13.806
36073W        W95510  33.077  12.781   0.326
36074W        W95511  37.846  19.589  14.395
36075W        W95512  41.973  31.477  12.935
36076W        W95513  12.232   4.936  11.873
36077W        W95514  22.163  24.163  11.866
36078W        W95515  12.692  28.042   3.681
36079W        W95516  40.386  43.827  11.990
36080W        W95517  18.118   0.804  11.014
36081W        W95518  36.591  24.690  14.453
36082W        W95519  24.502  40.488   2.360
36083W        W95520  10.640   2.797   4.247
36084W        W95521   7.333   0.830   2.758
36085W        W95522  19.075   3.329  10.442
36086W        W95523  30.140  36.404  12.083
36087W        W95524  29.650  30.027   2.183
36088W        W95525  39.874  15.762  12.422
36089W        W95526  38.561  36.522   0.855
36090W        W95527   3.230  26.522  12.496
36091W        W95528   9.187  40.428  12.917
36092W        W95529  16.210  42.325  10.407
36093W        W95530  21.719  13.323  13.833
36094W        W95531  31.646  14.197  11.073
36095W        W95532  10.314   4.872  12.457
36096W        W95533  23.196  28.514   0.326
36097W        W95534  20.673  21.736  12.349
36098W        W95535  13.633  22.014  14.824
36099W        W95536  43.868   3.440   9.991
36100W        W95537  31.592  32.492  14.292
36101W        W95538   2.777   0.962  12.539
36102W        W95539  36.489  41.295  13.469
36103W        W95540  21.222  44.273  11.394
36104W        W95541  10.726   2.372   4.817
36105W        W95542  16.256  19.168  10.945
36106W        W95543   3.431  35.534   2.864
36107W        W95544  29.998  15.158  12.891
36108W        W95545   1.362  37.972  11.129
36109W        W95546  21.219  36.906   3.768
36110W        W95547  26.475  35.373  14.497
36111W        W95548  42.006  39.410   1.385
36112W        W95549  26.174   8.880   1.793
36113W        W95550  24.138  11.259   3.379
36114W        W95551   2.369  18.704   2.346
36115W        W95552  21.123   1.474  12.372
36116W        W95553  23.032  12.667   4.836
36117W        W95554  44.469  17.218  14.319
36118W        W95555   7.886  15.122  12.926
36119W        W95556  28.972  36.075   1.847
36120W        W95557  44.919  27.082   0.465
36121W        W95558  24.517   2.819   1.799
36122W        W95559  17.778   7.891   0.780
36123W        W95560   2.734   5.857  12.060
36124W        W95561  35.060  42.953   3.721
36125W        W95562  28.448   3.433  11.080
36126W        W95563  16.685  23.161  14.929
36127W        W95564   4.225  33.959   3.635
36128W        W95565  33.930   5.706  14.326
36129W        W95566  15.669  30.492  14.879
36130W        W95567  24.721  18.634  11.603
36131W        W95568   5.390  21.239  14.020
36132W        W95569  20.620  28.973  11.862
36133W        W95570  18.572  34.557   9.981
36134W        W95571   0.462  21.669   1.797
36135W        W95572  36.501  12.263  12.452
36136W        W95573  43.284  14.686   0.245
36137W        W95574  13.715  35.447   1.909
36138W        W95575  21.154  27.043   2.275
36139W        W95576  13.337  32.636   3.277
36140W        W95577  34.546   9.851  10.617
36141W        W95578  13.339  24.102  11.037
36142W        W95579  18.557  44.827   4.306
36143W        W95580  18.058  39.015  14.333
36144W        W95581  25.675   6.730  11.395
36145W        W95582  11.162  17.762   3.176
36146W        W95583  13.245   3.824   4.136
36147W        W95584  28.678  28.669  12.957
36148W        W95585  16.613  20.572   2.277
36149W        W95586  19.153  13.320   3.869
36150W        W95587  43.785  43.433   2.890
36151W        W95588  28.967   7.288   0.894
36152W        W95589  43.296   1.246  10.600
36153W        W95590  25.632   8.196   1.879
36154W        W95591  16.160  20.202  12.523
36155W        W95592   2.335  33.049  11.939
36156W        W95593   2.337  20.759  12.430
36157W        W95594  36.930  33.426   4.755
36158W        W95595   1.275  29.470   0.784
36159W        W95596  23.114   7.274   1.306
36160W        W95597  39.902  41.834   2.191
36161W        W95598  11.275  30.602  10.888
36162W        W95599  34.025   8.806   2.749
36163W        W95600  33.613   8.840   1.241
36164W        W95601  28.977  14.743  12.565
36165W        W95602  33.041   8.814  13.973
36166W        W95603  14.331  12.836   4.783
36167W        W95604  22.609   5.734  13.036
36168W        W95605  23.005  36.399  12.478
36169W        W95606  28.672  22.018   1.445
36170W        W95607   1.958  31.119   0.941
36171W        W95608  32.603  38.476   0.444
36172W        W95609   7.722   0.874  10.471
36173W        W95610   6.341  20.753  11.916
36174W        W95611  12.810  25.106  11.937
36175W        W95612  30.919  33.403  12.479
36176W        W95613   2.802  37.844  12.416
36177W        W95614   4.784  19.712   0.876
36178W        W95615  24.573  44.939  14.783
36179W        W95616  26.692  20.097   2.816
36180W        W95617  21.117  25.218   1.902
36181W        W95618  42.409  43.362   3.199
36182W        W95619  28.953  29.970  10.444
36183W        W95620  11.257  15.301  14.920
36184W        W95621  31.068  21.147   5.235
36185W        W95622  16.244  41.506   0.245
36186W        W95623  29.453  27.008   0.802
36187W        W95624  19.118  33.968  12.365
36188W        W95625  25.998  43.912  13.370
36189W        W95626   8.219  32.414  10.963
36190W        W95627   2.246  23.508   0.465
36191W        W95628  30.557  26.685   0.839
36192W        W95629   9.198   5.310   2.754
36193W        W95630   9.687  33.501  10.438
36194W        W95631   0.269  22.084   2.885
36195W        W95632  11.360  34.870   1.886
36196W        W95633  19.573  11.639  10.523
36197W        W95634  20.588  16.242   0.251
36198W        W95635  30.418  22.549   4.315
36199W        W95636  19.125  34.551   0.401
36200W        W95637  31.945  29.668  12.558
36201W        W95638  43.402  41.318  13.524
36202W        W95639  30.523  18.196   1.922
36203W        W95640  28.131   1.319   1.406
36204W        W95641  16.207   6.729   3.363
36205W        W95642  41.948  13.818  12.424
36206W        W95643  42.304  10.354   0.729
36207W        W95644  11.304  13.206   4.678
36208W        W95645   1.387  18.758  12.388
36209W        W95646  17.574  27.692  13.312
36210W        W95647  31.579  12.688   0.455
36211W        W95648   6.337  19.710  13.799
36212W        W95649  41.788  15.817   3.386
36213W        W95650  13.711  26.973  11.115
36214W        W95651  35.967  27.481  12.885
36215W        W95652   5.328  13.285  10.530
36216W        W95653   1.834  29.522  10.527
36217W        W95654  25.642  27.448   2.372
36218W        W95655  41.994  32.074   1.436
36219W        W95656   7.257   1.868   0.326
36220W        W95657  21.120  41.990   5.138
36221W        W95658   2.232  44.821   3.254
36222W        W95659  34.483  38.827  13.535
36223W        W95660  33.997  13.205  14.817
36224W        W95661  11.732  15.715   0.760
36225W        W95662  20.134  21.705  11.398
36226W        W95663  21.051  16.249  14.901
36227W        W95664   9.658  17.576  14.803
36228W        W95665  23.692   5.261  12.344
36229W        W95666  20.632  32.129   4.178
36230W        W95667  11.341  17.573   1.744
36231W        W95668   2.923  39.464  13.532
36232W        W95669  15.298   0.350   3.725
36233W        W95670   0.403  42.927  14.944
36234W        W95671  10.822  23.214  11.022
36235W        W95672   6.847  19.631  13.863
36236W        W95673  10.260  31.903  14.382
36237W        W95674  42.466  11.706  10.612
36238W        W95675   0.767   1.328   1.448
36239W        W95676   8.687   3.428   2.662
36240W        W95677  30.639   0.886  14.025
36241W        W95678   2.727   8.762  10.607
36242W        W95679  34.879  43.825   0.839
36243W        W95680  13.729   2.746   3.709
36244W        W95681   3.956  40.421   4.694
36245W        W95682  11.322   5.417  12.022
36246W        W95683  33.466  17.138   3.637
36247W        W95684  21.046  28.075  11.389
36248W        W95685  18.269  35.589  12.901
36249W        W95686  14.716  17.768  11.536
36250W        W95687  15.805  41.898   0.887
36251W        W95688   8.745  27.664   5.645
36252W        W95689  34.892  30.025  14.925
36253W        W95690  30.941  12.689   2.747
36254W        W95691   4.902  43.413  10.639
36255W        W95692  21.647  32.493  13.426
36256W        W95693   2.840   0.425   1.234
36257W        W95694  29.552  37.479  14.941
36258W        W95695  22.123   2.896  12.393
36259W        W95696  34.507  12.171  10.544
36260W        W95697   8.167   0.295  12.919
36261W        W95698  33.107  25.154  13.883
36262W        W95699   6.423  31.123  12.069
36263W        W95700  33.431  16.660  10.121
36264W        W95701   8.710   8.858   3.671
36265W        W95702  37.485  12.818   1.445
36266W        W95703  44.829  27.471   1.266
36267W        W95704  43.883  36.460  11.525
36268W        W95705  31.025  44.782  12.997
36269W        W95706  38.059  32.564   3.719
36270W        W95707  29.445  36.990  12.845
36271W        W95708   9.185  21.654  11.956
36272W        W95709   1.756  40.952   0.321
36273W        W95710  26.509   8.658  13.455
36274W        W95711  31.019  39.361   4.198
36275W        W95712  18.285  33.420   0.283
36276W        W95713  23.042  26.502  14.832
36277W        W95714  32.478  16.169  13.515
36278W        W95715  10.820  38.920  12.910
36279W        W95716  26.188  17.163   1.822
36280W        W95717  40.438  43.487  13.392
36281W        W95718   2.857  18.070  11.458
36282W        W95719   2.886  35.991  11.954
36283W        W95720  18.721  39.462  13.882
36284W        W95721  44.931  10.226  14.442
36285W        W95722   2.470   7.736  14.772
36286W        W95723  17.095  15.244   4.600
36287W        W95724  14.696  44.970  14.347
36288W        W95725  18.699  10.226  12.052
36289W        W95726  27.975  39.389  11.470
36290W        W95727  32.067  40.973  13.513
36291W        W95728  42.333  28.020  13.012
36292W        W95729  11.321   9.184   3.840
36293W        W95730  42.498   8.701   3.711
36294W        W95731  33.469  18.726   2.878
36295W        W95732   2.407  37.997   0.962
36296W        W95733  28.115  21.703   4.151
36297W        W95734  29.929  40.919   1.236
36298W        W95735   5.734  10.219   1.370
36299W        W95736  44.348   0.268   3.662
36300W        W95737  23.685   8.889   1.902
36301W        W95738   5.875   6.385  12.080
36302W        W95739   2.953  18.599  11.544
36303W        W95740  22.998  22.733   5.281
36304W        W95741  39.856   7.374   3.230
36305W        W95742   8.237  34.612   1.377
36306W        W95743  30.130  31.056   1.909
36307W        W95744   5.830  32.603   3.639
36308W        W95745  19.074  18.099   2.223
36309W        W95746  16.683  16.739   5.583
36310W        W95747   2.441  41.489   1.385
36311W        W95748  15.745  26.160   2.779
36312W        W95749  39.854  18.694   2.233
36313W        W95750  42.432  33.961  14.376
36314W        W95751  44.481  38.029   1.354
36315W        W95752   3.924  30.562   3.146
36316W        W95753  36.049   0.310   2.318
36317W        W95754  44.974  42.523  14.495
36318W        W95755   7.780   3.424  14.916
36319W        W95756  29.484  37.895   4.134
36320W        W95757  22.202   5.805   2.859
36321W        W95758  30.587  34.983   0.259
36322W        W95759   4.750  44.888  10.989
36323W        W95760  22.158  29.520  14.837
36324W        W95761  37.904  38.410  11.600
36325W        W95762  33.589   5.345   0.731
36326W        W95763  29.009  24.222   0.958
36327W        W95764  30.118  37.836  14.021
36328W        W95765  40.360  31.535  13.053
36329W        W95766  39.063  15.247   0.776
36330W        W95767  23.035  27.666  14.457
36331W        W95768  42.527  15.812  10.920
36332W        W95769  40.805  34.957   4.655
36333W        W95770  19.576  30.431   0.741
36334W        W95771  41.841  16.244  12.409
36335W        W95772   8.302  43.964   1.834
36336W        W95773  20.091  25.666  13.900
36337W        W95774  22.142  14.099  12.839
36338W        W95775  42.845  26.479  14.021
36339W        W95776  33.491  40.362   0.258
36340W        W95777  20.258  42.411   3.716
36341W        W95778  27.030  14.189  11.555
36342W        W95779  17.262   7.756   4.120
36343W        W95780   7.245   6.800  10.571
36344W        W95781  23.732  22.050   0.732
36345W        W95782   2.905  25.126   3.171
36346W        W95783   9.391  18.545  11.420
36347W        W95784  19.150  21.051  14.473
36348W        W95785  28.952   6.721   0.381
36349W        W95786  42.032  12.712  14.294
36350W        W95787  29.636  11.302  14.846
36351W        W95788  33.951  27.173  11.984
36352W        W95789  42.796  41.427   2.673
36353W        W95790  20.094  19.270   5.081
36354W        W95791   5.891  42.446  10.899
36355W        W95792  40.859  17.734   0.870
36356W        W95793  13.748  38.439   1.438
36357W        W95794  25.133   9.302  14.951
36358W        W95795  17.193  27.648  12.404
36359W        W95796  28.446  22.640  12.360
36360W        W95797  33.102  21.248  11.538
36361W        W95798   9.167  37.419  11.008
36362W        W95799   9.661  24.693   2.825
36363W        W95800  17.659  26.963  14.800
36364W        W95801  33.624  24.088   5.319
36365W        W95802  10.384  33.127  13.449
36366W        W95803  22.249   8.398  10.587
36367W        W95804  41.870   5.200   3.858
36368W        W95805  10.738   1.414  11.528
36369W        W95806  29.629  11.840  12.004
36370W        W95807  39.521  15.316  13.517
36371W        W95808  19.692   1.364  10.968
36372W        W95809  37.859  24.723   3.244
36373W        W95810  41.933  19.075   3.177
36374W        W95811   5.378   6.829   0.809
36375W        W95812   1.333  23.103   3.783
36376W        W95813  23.161   9.857   2.726
36377W        W95814  15.735  28.018   0.760
36378W        W95815  25.468  35.508   0.806
36379W        W95816   3.446   4.820  14.388
36380W        W95817  25.488  42.842  14.867
36381W        W95818  41.291  39.473   4.113
36382W        W95819  44.324  42.007  10.642
36383W        W95820  14.832  34.474   0.779
36384W        W95821  42.399  30.491   0.800
36385W        W95822  35.403  14.746  11.099
36386W        W95823   5.790  16.224   1.837
36387W        W95824  23.161  43.891   0.452
36388W        W95825  40.011  15.678   0.422
36389W        W95826  28.066  23.568  12.343
36390W        W95827   2.933  42.001  14.416
36391W        W95828  42.443   2.748  13.010
36392W        W95829  15.677  34.486   0.429
36393W        W95830  21.679  44.396  10.582
36394W        W95831   3.348  26.046   0.286
36395W        W95832  16.609  15.308  13.494
36396W        W95833  18.670  33.929   2.247
36397W        W95834  37.963  11.137  14.023
36398W        W95835  26.548  11.650  10.488
36399W        W95836  17.204   8.860   0.287
36400W        W95837  24.670   3.894  11.525
36401W        W95838  10.269  28.137  14.395
36402W        W95839   2.468   3.294   3.281
36403W        W95840  42.496   1.275  12.962
36404W        W95841   3.850  44.969  14.504
36405W        W95842  43.819  29.563  14.398
36406W        W95843  37.860  41.459  13.994
36407W        W95844  23.660  11.855  12.834
36408W        W95845   0.970  11.316  11.011
36409W        W95846  21.233  12.621   2.862
36410W        W95847  32.584  20.069   0.374
36411W        W95848  38.558  19.122  13.939
36412W        W95849   4.366  44.294   3.366
36413W        W95850  29.568  32.563   1.250
36414W        W95851  28.153   3.842  13.457
36415W        W95852  43.978  38.465  11.860
36416W        W95853  24.178  37.985  11.899
36417W        W95854  35.884  15.128  13.040
36418W        W95855  39.041  23.147   1.930
36419W        W95856  16.139  12.614   2.849
36420W        W95857  36.926  40.915  14.474
36421W        W95858  12.710  26.189  10.599
36422W        W95859  37.050  37.857   4.275
36423W        W95860  38.052  35.546   3.784
36424W        W95861  34.940  10.144   3.307
36425W        W95862  22.235  41.357   1.325
36426W        W95863  44.901  25.157   1.774
36427W        W95864  42.859  24.095   1.898
36428W        W95865   9.231  40.000  12.579
36429W        W95866  23.996  12.737  11.521
36430W        W95867  30.966   1.739   1.336
36431W        W95868  43.780   8.870  12.914
36432W        W95869  10.698  37.503   4.335
36433W        W95870  18.768  33.533  12.081
36434W        W95871  31.908  27.130   4.607
36435W        W95872   0.452   7.202  10.575
36436W        W95873  29.524  43.434   0.749
36437W        W95874  41.916  32.040  13.433
36438W        W95875  38.935   9.760   2.291
36439W        W95876  32.466  40.927  13.008
36440W        W95877  43.803  22.643  12.350
36441W        W95878  16.661  18.172   4.204
36442W        W95879  30.936   4.721  10.946
36443W        W95880   9.847  32.885   1.770
36444W        W95881  13.778  44.399   3.701
36445W        W95882   3.390  36.383   5.284
36446W        W95883  14.820  19.698  10.471
36447W        W95884  21.627  41.470   4.275
36448W        W95885  20.227  13.627   0.869
36449W        W95886  14.189  12.729   2.880
36450W        W95887  19.636  26.961  11.561
36451W        W95888  41.839   9.655  13.873
36452W        W95889  21.546  10.267  14.447
36453W        W95890  39.010  40.945  13.801
36454W        W95891  43.962  35.543   4.746
36455W        W95892   8.702  25.539  11.518
36456W        W95893  41.456  23.625  14.507
36457W        W95894  17.789   5.327  10.440
36458W        W95895  15.217  44.839  13.878
36459W        W95896  14.829  26.167  13.912
36460W        W95897   9.294  27.553   1.884
36461W        W95898  17.294  36.847   0.470
36462W        W95899  24.566  35.903  11.040
36463W        W95900  20.029  31.121   0.818
36464W        W95901  24.133  42.914  12.450
36465W        W95902  28.124  14.828   0.473
36466W        W95903  17.084  15.585   0.760
36467W        W95904  18.712  18.071  14.877
36468W        W95905  11.674   3.347   2.282
36469W        W95906  28.172  42.878   9.988
36470W        W95907  24.572  27.994   4.604
36471W        W95908  44.390  41.977  13.799
36472W        W95909  19.265  15.579  12.091
36473W        W95910  24.520  11.759  13.479
36474W        W95911  31.025  36.037   2.694
36475W        W95912   5.924  18.269   1.313
36476W        W95913  10.179  12.248   2.321
36477W        W95914   3.330  37.519   2.243
36478W        W95915  28.624   1.372   1.903
36479W        W95916  19.092   8.325   0.745
36480W        W95917  26.532  21.533   0.445
36481W        W95918  39.349   3.812   0.474
36482W        W95919   3.249   1.418  12.966
36483W        W95920  19.601  29.043  14.906
36484W        W95921   7.785  14.776   2.188
36485W        W95922  19.065  19.195   9.991
36486W        W95923  22.129  24.659   4.232
36487W        W95924   1.285  42.467  12.458
36488W        W95925   1.971   3.938  14.831
36489W        W95926  20.751   0.925   4.630
36490W        W95927   0.311  22.997   1.912
36491W        W95928   8.655   0.808  10.500
36492W        W95929  21.030   4.898   2.243
36493W        W95930  25.536  16.614  14.913
36494W        W95931  16.260  12.208  13.946
36495W        W95932  43.867  13.644   2.856
36496W        W95933  23.701  26.125   2.214
36497W        W95934  28.943  32.528  11.463
36498W        W95935  32.409  41.009   0.281
36499W        W95936   5.368  43.949  10.543
36500W        W95937  11.736  19.676   4.275
36501W        W95938  13.737  18.212  13.328
36502W        W95939  17.124   7.266   2.202
36503W        W95940  41.885  20.072  11.944
36504W        W95941   4.798  25.212  12.968
36505W        W95942  37.937  43.353   3.386
36506W        W95943   8.186  14.143  11.416
36507W        W95944  17.226  24.179   3.662
36508W        W95945  24.118  34.554   2.668
36509W        W95946  26.084  18.660   1.278
36510W        W95947  27.553  28.559  10.566
36511W        W95948   7.315   8.849   3.787
36512W        W95949  19.637  44.456  11.071
36513W        W95950   0.984  10.802   0.430
36514W        W95951   7.687  12.616   1.872
36515W        W95952  11.227  19.698   4.161
36516W        W95953   6.801  15.201  11.486
36517W        W95954  12.329  29.592   1.239
36518W        W95955   3.746  10.656  11.407
36519W        W95956  10.834  35.001   2.280
36520W        W95957  10.665   3.452  14.376
36521W        W95958   2.768  38.483   4.347
36522W        W95959   2.315  32.097   9.983
36523W        W95960  43.346  25.568   0.876
36524W        W95961  29.461  21.643  11.031
36525W        W95962  44.764  10.844   0.790
36526W        W95963  29.129  27.484   1.324
36527W        W95964  41.460  36.499   4.164
36528W        W95965  17.185  41.006  11.413
36529W        W95966  26.049  17.592   4.668
36530W        W95967  39.063   9.357   1.906
36531W        W95968  27.014  31.641   3.337
36532W        W95969   1.403  25.480   1.305
36533W        W95970  32.490  44.976  10.961
36534W        W95971   1.928  35.359   0.305
36535W        W95972  26.104  34.473   0.465
36536W        W95973  26.061   1.237  13.855
36537W        W95974  14.141   9.835   1.428
36538W        W95975  39.360   5.235   4.330
36539W        W95976  32.588  26.561   2.789
36540W        W95977   4.746  11.795   9.992
36541W        W95978  12.735  24.694   2.749
36542W        W95979  17.237  37.087   1.831
36543W        W95980  36.451  11.215   3.723
36544W        W95981  14.607   8.815  12.484
36545W        W95982  14.776  27.448   2.260
36546W        W95983  24.027   8.160   2.247
36547W        W95984  31.137  37.483   0.762
36548W        W95985  24.085  14.767   4.144
36549W        W95986   4.266  37.525   3.678
36550W        W95987  13.301  26.500  11.062
36551W        W95988  11.151  24.081   3.821
36552W        W95989   2.883  26.542   4.177
36553W        W95990  31.076  27.103  11.612
36554W        W95991  24.572  14.732   3.791
36555W        W95992   8.342  30.094  12.387
36556W        W95993  15.784   3.941   2.276
36557W        W95994   6.353  18.187  10.124
36558W        W95995  27.022   1.929   2.707
36559W        W95996  25.571  36.067   4.204
36560W        W95997  18.283  12.625  14.782
36561W        W95998   8.322  42.327  11.460
36562W        W95999  41.510  29.141   4.158
36563W        W96000  28.960   2.361   2.749
36564W        W96001   9.794  17.724   4.613
36565W        W96002   8.887  10.852   3.245
36566W        W96003  12.283  40.371   0.906
36567W        W96004  35.557  38.068   3.839
36568W        W96005  14.589  25.136   3.791
36569W        W96006  28.933   3.242   0.433
36570W        W96007  40.836  22.996   4.213
36571W        W96008  36.522  13.286  11.394
36572W        W96009  31.579   6.346   1.788
36573W        W96010   4.210  12.791  13.895
36574W        W96011   8.661  15.198   2.346
36575W        W96012  28.982  37.393  11.058
36576W        W96013  34.883  43.490  12.968
36577W        W96014  15.749  28.084  14.001
36578W        W96015   0.898  16.298   1.897
36579W        W96016  15.192  15.222   1.352
36580W        W96017   9.774   5.415   0.944
36581W        W96018  42.888  10.847   1.281
36582W        W96019  38.963   5.808   1.236
36583W        W96020  13.145  13.171  12.935
36584W        W96021  38.505  39.018  11.001
36585W        W96022  18.748   6.236   1.915
36586W        W96023  21.234  38.968   9.982
36587W        W96024  32.620  28.158   1.811
36588W        W96025  27.040   1.803  10.908
36589W        W96026  22.158  14.111   2.357
36590W        W96027  38.044  35.949   2.225
36591W        W96028  31.134  27.131  14.445
36592W        W96029  20.669  30.081  14.004
36593W        W96030  41.903  14.654   1.388
36594W        W96031  18.139  24.125  11.105
36595W        W96032  39.486  36.504   0.890
36596W        W96033  32.949  35.494   0.297
36597W        W96034  40.867  25.966  11.483
36598W        W96035  26.984  25.493   3.763
36599W        W96036  34.022  28.085   4.309
36600W        W96037  40.821  34.089  14.797
36601W        W96038   7.870  23.002   2.724
36602W        W96039  44.753   0.469  12.886
36603W        W96040  18.184  29.489   4.670
36604W        W96041  22.128   5.260  11.598
36605W        W96042  19.226  12.329  12.454
36606W        W96043  35.036  26.150  11.991
36607W        W96044  42.415   5.730   2.676
36608W        W96045  43.404  10.233   0.746
36609W        W96046   0.463  23.642   4.148
36610W        W96047  13.795  18.556   4.126
36611W        W96048   5.345   7.411  10.970
36612W        W96049   1.440   0.753   0.828
36613W        W96050   0.779  43.308  13.882
36614W        W96051  30.464   2.883   0.341
36615W        W96052  22.014  17.752   0.320
36616W        W96053  30.535  33.097   1.930
36617W        W96054  38.900  19.137   0.262
36618W        W96055  13.199  29.511   3.229
36619W        W96056  31.141  24.983   4.316
36620W        W96057  38.450  25.985  13.406
36621W        W96058  24.139  19.092   5.207
36622W        W96059   5.198  34.027  10.972
36623W        W96060  20.250  43.803   2.817
36624W        W96061   6.721  18.653  14.472
36625W        W96062  16.757  38.819   5.614
36626W        W96063  19.600  25.980  10.964
36627W        W96064   1.312  34.066   1.250
36628W        W96065  29.448  11.839   5.229
36629W        W96066  25.112  16.194   1.232
36630W        W96067  44.462  25.004   4.724
36631W        W96068  14.228  15.772   2.826
36632W        W96069   2.890  12.211   9.671
36633W        W96070  36.353   9.811  12.427
36634W        W96071  13.304  44.433   1.286
36635W        W96072   9.759  24.116   4.705
36636W        W96073   0.453  26.994   4.616
36637W        W96074  26.489   9.811  13.513
36638W        W96075   1.925  21.055   1.271
36639W        W96076  29.648  13.737  11.500
36640W        W96077  25.591  40.318  10.417
36641W        W96078  37.940   6.267   1.312
36642W        W96079  20.654   6.301   2.286
36643W        W96080  24.619  19.694  13.940
36644W        W96081   6.275  15.270   0.258
36645W        W96082  21.544  14.723   1.267
36646W        W96083  35.359   4.258  13.829
36647W        W96084   1.773  20.207   0.312
36648W        W96085  23.694  41.389   2.847
36649W        W96086  15.642  25.074   1.876
36650W        W96087  32.115   3.777   0.942
36651W        W96088  42.862   2.779   4.772
36652W        W96089  44.393  13.314   5.230
36653W        W96090  12.139  13.781   1.314
36654W        W96091  28.937   3.234   3.770
36655W        W96092  24.551  16.096   4.817
36656W        W96093  15.299  29.129  11.479
36657W        W96094   5.858  13.195  14.454
36658W        W96095   7.756  34.102  13.047
36659W        W96096  24.105  37.966   9.630
36660W        W96097  20.700  15.105  13.489
36661W        W96098  44.890   2.828  11.409
36662W        W96099  19.730   2.290  13.832
36663W        W96100   6.200  34.506  12.925
36664W        W96101  29.116  44.909  13.843
36665W        W96102  44.463  33.999  14.276
36666W        W96103  22.210  32.595  11.011
36667W        W96104  37.452  32.443  14.925
36668W        W96105  29.923  38.373   3.830
36669W        W96106  27.657  29.506   3.803
36670W        W96107  12.341   9.282  13.800
36671W        W96108  22.016  13.110   0.243
36672W        W96109  31.063   3.931   3.246
36673W        W96110  38.913  26.462   2.302
36674W        W96111  10.250  24.114   1.894
36675W        W96112  31.617   2.373  12.431
36676W        W96113  29.536  25.536  12.045
36677W        W96114  25.692  12.656   9.933
36678W        W96115  25.086  26.979   1.252
36679W        W96116  24.695  42.965  10.483
36680W        W96117   3.338  43.498  11.073
36681W        W96118  20.581   4.236  12.041
36682W        W96119  15.733  11.138  10.937
36683W        W96120  24.015  25.177   4.183
36684W        W96121  13.845  29.534  14.881
36685W        W96122  42.788   7.369  11.590
36686W        W96123  12.694  19.160   2.852
36687W        W96124  35.514  32.909   1.790
36688W        W96125  17.621   1.805   3.337
36689W        W96126  41.474  12.733  14.299
36690W        W96127  33.988  22.556   5.085
36691W        W96128   0.750   3.797  13.795
36692W        W96129  33.999  14.258   2.723
36693W        W96130  25.643   0.322   0.324
36694W        W96131  17.772  25.174   4.726
36695W        W96132   0.756   6.244   0.277
36696W        W96133  39.389  32.922  10.513
36697W        W96134  27.500  26.575   9.982
36698W        W96135   6.817  15.262  13.448
36699W        W96136   5.368  32.030   4.284
36700W        W96137  31.524  39.318   9.495
36701W        W96138  21.207   8.321   2.867
36702W        W96139  28.938   4.329   0.405
36703W        W96140   0.875  33.458   2.694
36704W        W96141  42.454  29.036   0.343
36705W        W96142  13.233  22.626   5.177
36706W        W96143   1.291  41.887   0.290
36707W        W96144   0.817   1.820   3.754
36708W        W96145  29.962   6.865   4.137
36709W        W96146  30.079  18.108  14.309
36710W        W96147  20.764  22.653   2.680
36711W        W96148  29.559  18.174   1.427
36712W        W96149  33.031  20.138   4.219
36713W        W96150  29.965  32.471  14.450
36714W        W96151  27.507  21.034   2.697
36715W        W96152  43.796  18.564  10.963
36716W        W96153  15.320   7.339   4.611
36717W        W96154  41.847  22.201  14.775
36718W        W96155  23.496  23.199   0.413
36719W        W96156  20.087  41.460  12.078
36720W        W96157  40.494   6.243   3.375
36721W        W96158   8.404  40.303   0.764
36722W        W96159  35.056  32.477  11.110
36723W        W96160  29.069  29.471   3.187
36724W        W96161  39.998  35.573  12.077
36725W        W96162  38.367  25.571   2.840
36726W        W96163  27.056  33.497   2.301
36727W        W96164   9.676  29.041   1.712
36728W        W96165  35.492   2.766  10.509
36729W        W96166  10.221  10.736   4.652
36730W        W96167  39.025   6.200   1.421
36731W        W96168  43.306  35.469  14.893
36732W        W96169   2.859   3.816  13.354
36733W        W96170  25.067  42.432   2.726
36734W        W96171  30.455  20.060   0.966
36735W        W96172  44.755   7.881   0.805
36736W        W96173  21.231  43.833   1.854
36737W        W96174   4.232   4.794   4.133
36738W        W96175  22.040  40.810  13.919
36739W        W96176   3.853   8.340   3.289
36740W        W96177  34.506   8.286  12.883
36741W        W96178  32.962  29.484   4.252
36742W        W96179  39.440  21.104  13.930
36743W        W96180  42.291  11.200  11.583
36744W        W96181  27.007  41.971  12.828
36745W        W96182  15.632  36.404  12.412
36746W        W96183   5.766  27.625  13.379
36747W        W96184   1.847  40.982  10.973
36748W        W96185  26.655  21.683   5.106
36749W        W96186  15.681  29.016   4.265
36750W        W96187  44.322  36.993   1.786
36751W        W96188  40.517  27.588  14.808
36752W        W96189  17.152  41.996  13.546
36753W        W96190  43.896  13.645  10.478
36754W        W96191  39.479  36.547   4.835
36755W        W96192  16.229  42.016   1.778
36756W        W96193  14.340  31.465   3.258
36757W        W96194  19.181  19.069  12.464
36758W        W96195  30.036  24.000   0.762
36759W        W96196  21.035  10.780   1.270
36760W        W96197  44.268  25.469   3.748
36761W        W96198   1.316   2.396   1.294
36762W        W96199   0.389  37.526   5.241
36763W        W96200  28.938  25.509  12.535
36764W        W96201  33.910  34.494   2.286
36765W        W96202  35.495  13.823  11.396
36766W        W96203  13.812  20.542  12.941
36767W        W96204  31.923  40.799  13.046
36768W        W96205  27.082   2.904  14.437
36769W        W96206  42.513   9.154  11.382
36770W        W96207  19.557   7.859   2.252
36771W        W96208  30.111  22.548   2.780
36772W        W96209  44.348  37.348   0.310
36773W        W96210  20.030  37.876  10.928
36774W        W96211   7.665   6.793  14.423
36775W        W96212  34.530  19.093  14.894
36776W        W96213  10.677  29.991   1.370
36777W        W96214  27.991  12.281   4.645
36778W        W96215  28.491   0.423  12.884
36779W        W96216  34.539  34.515  12.855
36780W        W96217  16.278  30.507  10.459
36781W        W96218   8.720  17.134  12.420
36782W        W96219  28.527  10.365  14.335
36783W        W96220  35.048   0.321  11.609
36784W        W96221  17.124  13.204  13.344
36785W        W96222  34.873  25.627   4.131
36786W        W96223   5.293   2.378  13.393
36787W        W96224   6.680  21.175   0.464
36788W        W96225  37.408  13.609   1.919
36789W        W96226  13.281  39.054  11.935
36790W        W96227  42.413  27.627   0.760
36791W        W96228  20.034  14.122   4.625
36792W        W96229  43.807  10.672   3.206
36793W        W96230  13.767  38.339  10.908
36794W        W96231  18.224   8.677   1.303
36795W        W96232  21.171  42.321   2.852
36796W        W96233  12.135  39.827  10.983
36797W        W96234  24.203  41.039   0.312
36798W        W96235  38.456   2.750  11.887
36799W        W96236  17.072  13.253  14.017
36800W        W96237  11.830   4.898  10.925
36801W        W96238  21.618  10.300  13.854
36802W        W96239   3.774  19.099   4.177
36803W        W96240  29.462  39.009  13.487
36804W        W96241  31.428  41.836   1.431
36805W        W96242  30.997  18.087   3.200
36806W        W96243  30.010  16.177  14.507
36807W        W96244  33.412  19.712  10.142
36808W        W96245  44.822  19.546  12.075
36809W        W96246  39.918  29.545  10.551
36810W        W96247  37.878   6.697  14.448
36811W        W96248  18.592  16.586   3.169
36812W        W96249  40.987   0.297   0.396
36813W        W96250  38.909  42.831   2.272
36814W        W96251  28.937   7.275   2.249
36815W        W96252  26.495  31.581  12.999
36816W        W96253  13.196  34.451  10.982
36817W        W96254  30.475  28.159  14.385
36818W        W96255  27.507  24.538  14.802
36819W        W96256  23.019  41.447  11.997
36820W        W96257   2.886  11.694  13.449
36821W        W96258  30.497   5.890  13.049
36822W        W96259  28.153  16.694  11.531
36823W        W96260  42.368  30.586   1.762
36824W        W96261  24.057   0.789  11.435
36825W        W96262   5.382   0.796  14.339
36826W        W96263  22.150  43.369   2.880
36827W        W96264  31.450  38.432   1.783
36828W        W96265  26.523  40.916   0.762
36829W        W96266  10.154  21.208  11.103
36830W        W96267  18.700  19.067  10.109
36831W        W96268   7.714   5.877  14.900
36832W        W96269  30.110  25.615  14.423
36833W        W96270  37.357  32.903  11.026
36834W        W96271  39.062   5.291   1.372
36835W        W96272  35.048  29.123   1.898
36836W        W96273  13.278  16.231  14.992
36837W        W96274  27.070   7.878  13.364
36838W        W96275  37.455   8.254   3.311
36839W        W96276  29.083  19.574  10.626
36840W        W96277  15.804  18.053  12.535
36841W        W96278  41.352  43.441  13.796
36842W        W96279  30.907  28.533  13.860
36843W        W96280  19.689  36.013   4.661
36844W        W96281  35.415  39.482  11.412
36845W        W96282   1.383  38.514   0.432
36846W        W96283  18.771  36.496  13.814
36847W        W96284  32.016  26.661  11.607
36848W        W96285  13.768   6.215   0.870
36849W        W96286  18.230  28.550   1.774
36850W        W96287  33.452  16.668   1.868
36851W        W96288  11.216  25.103   2.201
36852W        W96289  24.523  42.320  13.452
36853W        W96290  42.431   3.313  14.811
36854W        W96291  16.273  19.111  12.567
36855W        W96292  26.096   9.852   4.644
36856W        W96293  19.689  28.040   2.730
36857W        W96294  44.824   2.335  11.048
36858W        W96295   8.659  21.649  13.979
36859W        W96296  37.400  23.196   3.797
36860W        W96297  38.071  37.479  13.459
36861W        W96298  26.206  22.164  10.435
36862W        W96299  43.794  34.608   5.795
36863W        W96300  40.962  38.963   4.295
36864W        W96301  22.645  35.534   4.815
36865W        W96302  33.049   5.419  12.974
36866W        W96303  11.195  18.629  11.975
36867W        W96304  21.713  11.836  12.442
36868W        W96305  39.837   2.252   2.377
36869W        W96306  42.875   0.380  11.545
36870W        W96307   3.371  29.123   4.718
36871W        W96308  20.054  44.300  14.408
36872W        W96309  15.707   8.166   2.385
36873W        W96310  31.910  42.338  14.467
36874W        W96311  43.776  10.292   1.286
36875W        W96312  25.482  34.583   0.819
36876W        W96313   1.940  10.804  10.930
36877W        W96314  38.500  43.986   3.187
36878W        W96315  19.146  24.099  11.911
36879W        W96316  22.718   7.263  11.406
36880W        W96317  32.415  26.619  13.898
36881W        W96318  13.678  23.049  13.347
36882W        W96319  22.546   0.493   0.807
36883W        W96320  14.285  15.204   4.791
36884W        W96321  22.232  39.466  13.534
36885W        W96322  37.566  19.284  11.448
36886W        W96323   4.351  30.029  11.128
36887W        W96324   8.287  43.468   3.766
36888W        W96325  11.260  36.974  11.045
36889W        W96326   7.761  41.402   1.919
36890W        W96327  35.436  33.472   3.741
36891W        W96328  16.572  10.150   2.708
36892W        W96329   5.756  38.547   2.894
36893W        W96330  28.112  41.922   3.713
36894W        W96331   0.928  23.673  13.396
36895W        W96332  27.671  28.564  14.395
36896W        W96333  34.591  19.748   2.289
36897W        W96334  31.954  18.762  14.938
36898W        W96335  25.554  28.621  10.505
36899W        W96336   3.846  22.015   3.285
36900W        W96337   8.828  42.523   1.707
36901W        W96338  38.920  32.986  11.011
36902W        W96339  35.379  16.730  11.062
36903W        W96340  28.055   9.713  10.562
36904W        W96341  44.392  14.681  10.621
36905W        W96342  35.593  27.458  14.330
36906W        W96343   4.882  11.700  12.007
36907W        W96344  21.642  42.896   2.756
36908W        W96345  24.639  15.324  14.788
36909W        W96346   2.811  28.530  12.531
36910W        W96347   1.308  14.675   1.223
36911W        W96348  34.979  39.845   2.729
36912W        W96349  13.105  13.246   1.266
36913W        W96350  23.671   8.276   4.779
36914W        W96351  18.623  10.279   1.345
36915W        W96352   3.716  35.026  10.484
36916W        W96353  19.208   3.889   4.815
36917W        W96354  25.627   5.322   4.174
36918W        W96355  13.728  21.050   4.820
36919W        W96356   4.889  24.545   0.306
36920W        W96357  27.021  21.089  11.991
36921W        W96358   8.283  41.404  11.908
36922W        W96359  29.518  25.598  14.964
36923W        W96360  32.618  36.929  14.467
36924W        W96361   3.724   8.666   1.766
36925W        W96362  43.843  31.016  13.981
36926W        W96363  22.226   3.745  10.888
36927W        W96364  13.233  18.733   4.198
36928W        W96365   6.886  14.711   1.251
36929W        W96366  42.387  40.341   0.904
36930W        W96367   9.725  16.087   2.808
36931W        W96368  29.567  34.513   4.771
36932W        W96369  21.726  44.481   2.797
36933W        W96370  13.801  35.468  14.442
36934W        W96371  17.090  28.163  10.542
36935W        W96372  22.113  38.388  13.534
36936W        W96373  42.871  26.078  14.774
36937W        W96374   8.725  35.475   3.168
36938W        W96375   6.798   1.849   4.183
36939W        W96376  36.885  13.655  11.978
36940W        W96377   2.835  24.107  14.407
36941W        W96378   4.742  37.958   0.310
36942W        W96379   0.486  27.549   0.749
36943W        W96380  19.717   5.857   4.609
36944W        W96381  43.462   4.265  13.023
36945W        W96382  40.543   4.396   0.884
36946W        W96383  21.564  27.089  11.953
36947W        W96384  36.489  25.497   4.308
36948W        W96385   1.272  29.475  13.454
36949W        W96386  32.400  34.453  10.420
36950W        W96387   4.846  44.334  14.309
36951W        W96388   9.303  19.615  13.396
36952W        W96389  34.027  19.251  10.991
36953W        W96390  27.530   0.821   3.274
36954W        W96391  19.547   0.908   5.084
36955W        W96392  34.496  24.058  11.959
36956W        W96393  11.335   7.863   1.932
36957W        W96394  25.078  31.070   3.249
36958W        W96395  33.434  24.025   2.339
36959W        W96396  32.473  32.553  13.508
36960W        W96397  23.643  31.103   2.345
36961W        W96398  26.567  40.387  14.993
36962W        W96399  22.708  33.051  10.104
36963W        W96400  13.672   8.229   1.429
36964W        W96401  14.826  16.132   4.159
36965W        W96402  19.776  16.723  14.357
36966W        W96403  19.769  25.983   1.830
36967W        W96404  33.485  42.878  10.477
36968W        W96405  36.096  28.591  14.796
36969W        W96406  17.650  25.629   4.217
36970W        W96407  26.537  11.260   1.868
36971W        W96408  20.029  42.349   5.691
36972W        W96409  15.106  40.485   1.424
36973W        W96410  41.386  24.136   1.285
36974W        W96411   0.865   4.276  11.986
36975W        W96412   8.692   6.426   0.396
36976W        W96413  44.776  33.033   1.237
36977W        W96414  32.518  28.963   2.178
36978W        W96415  24.987  43.988   3.844
36979W        W96416   6.308  31.994  11.395
36980W        W96417  22.720  19.757  11.593
36981W        W96418  22.105  14.668   3.269
36982W        W96419  20.579  26.030   4.626
36983W        W96420  35.959  15.245   2.703
36984W        W96421  33.876  20.721  11.517
36985W        W96422  25.134  29.969  10.445
36986W        W96423  12.196  16.199  14.485
36987W        W96424  42.841  41.303   0.463
36988W        W96425  11.639  34.598  12.001
36989W        W96426  10.246  29.452   9.942
36990W        W96427   0.793  17.305  14.294
36991W        W96428  29.093  17.227  13.980
36992W        W96429  15.790   6.740   1.714
36993W        W96430  26.603  18.254   2.375
36994W        W96431  37.854  27.063  10.406
36995W        W96432  44.360  44.957   4.619
36996W        W96433  41.869  34.406   2.803
36997W        W96434   8.859  28.986   0.747
36998W        W96435  29.164  41.810  14.491
36999W        W96436   0.858  42.513  11.388
37000W        W96437  41.442  17.566   2.297
37001W        W96438  10.862  42.890   4.244
37002W        W96439  38.009  35.919  13.514
37003W        W96440  26.185  33.116  14.818
37004W        W96441  40.973   7.176   2.184
37005W        W96442  44.890  38.471   2.373
37006W        W96443  12.159   0.301   2.194
37007W        W96444  35.513   8.253  13.464
37008W        W96445  10.724   2.401  14.350
37009W        W96446  44.943  33.534   3.312
37010W        W96447  44.866  18.241   0.267
37011W        W96448   4.316  33.065  12.355
37012W        W96449   6.769  10.283   3.326
37013W        W96450  44.301  42.449  11.127
37014W        W96451  41.801  12.718   1.892
37015W        W96452  23.196  13.226   4.127
37016W        W96453  23.682  28.970  13.063
37017W        W96454  28.124  36.564  10.982
37018W        W96455  31.451  32.895  10.618
37019W        W96456  31.113  44.908  11.467
37020W        W96457  25.168  16.119   9.992
37021W        W96458  23.173  41.833   1.263
37022W        W96459   2.258  11.636  12.914
37023W        W96460  19.259   9.698  10.922
37024W        W96461  30.549  15.758  12.533
37025W        W96462  14.588   0.816  12.005
37026W        W96463  34.073  33.509  11.018
37027W        W96464   6.819  29.561   9.534
37028W        W96465  41.818  19.701   0.278
37029W        W96466  12.132  37.945  12.576
37030W        W96467  39.454  20.673  12.965
37031W        W96468   7.373  34.899  11.953
37032W        W96469  24.184  40.839  12.506
37033W        W96470  34.489  22.553   3.353
37034W        W96471  39.837  10.333  11.931
37035W        W96472  33.527  15.129  13.388
37036W        W96473  23.136  42.796  13.020
37037W        W96474  39.408  42.968   1.302
37038W        W96475  12.183  37.833   1.887
37039W        W96476  13.309  43.785   0.392
37040W        W96477   0.257  20.048   2.885
37041W        W96478   5.381  21.221  12.036
37042W        W96479  24.995  30.423   2.266
37043W        W96480   4.407  40.314  13.514
37044W        W96481  25.704   7.375  13.821
37045W        W96482  21.621  32.440   3.647
37046W        W96483  10.230  29.050  10.429
37047W        W96484  33.013  14.823  11.968
37048W        W96485  14.812  35.452   0.804
37049W        W96486  20.714  23.634   5.688
37050W        W96487  40.010  21.048  13.907
37051W        W96488   4.786  44.800   3.635
37052W        W96489  15.239  27.011   2.207
37053W        W96490  19.182  12.635  14.764
37054W        W96491  21.017  22.051   2.286
37055W        W96492  36.901  43.271   2.320
37056W        W96493  30.085  25.184   4.251
37057W        W96494  37.878   7.680   2.763
37058W        W96495  31.464   5.738   0.942
37059W        W96496  15.187  16.140   5.112
37060W        W96497  14.664  26.587   0.254
37061W        W96498  33.093  14.166  12.868
37062W        W96499   0.351  26.194   4.662
37063W        W96500   4.720   6.779  14.848
37064W        W96501  40.915  11.335   1.446
37065W        W96502  25.039  24.223   3.167
37066W        W96503  43.767  26.119  11.372
37067W        W96504  13.234   9.301   3.786
37068W        W96505  35.603  44.976  11.037
37069W        W96506  13.129  36.503   4.672
37070W        W96507  23.176  23.013  12.092
37071W        W96508  30.485  40.821   0.412
37072W        W96509  25.607  36.058  12.893
37073W        W96510  21.714  22.998  12.569
37074W        W96511  12.648  41.351  12.478
37075W        W96512  34.927   0.355   1.910
37076W        W96513  15.106   1.357  13.327
37077W        W96514  13.297  14.166  13.029
37078W        W96515  37.841  40.543   3.340
37079W        W96516  44.461  23.720   2.326
37080W        W96517  11.772  14.167   4.601
37081W        W96518  19.749  26.482  12.482
37082W        W96519  31.142  18.595  10.158
37083W        W96520  15.823  39.400  14.809
37084W        W96521  32.031  33.083  10.976
37085W        W96522   8.325  19.172  10.522
37086W        W96523  28.070  43.955   1.402
37087W        W96524   3.393   9.179  10.919
37088W        W96525  44.314  22.595  11.959
37089W        W96526  29.966  19.591   9.961
37090W        W96527  40.515   2.858  13.434
37091W        W96528  17.211  21.135   3.346
37092W        W96529   5.870  32.460  10.411
37093W        W96530  36.455  35.959   3.337
37094W        W96531  40.050  12.836   3.727
37095W        W96532  19.665  42.931  12.973
37096W        W96533   3.238   3.932   0.892
37097W        W96534  24.510   2.454  12.868
37098W        W96535  35.480  12.837  14.911
37099W        W96536  32.035  25.686  11.494
37100W        W96537  41.296  22.033  14.379
37101W        W96538  26.186  43.431  14.832
37102W        W96539  31.941   8.895   2.849
37103W        W96540  24.657   2.946  11.894
37104W        W96541  32.122  21.245   1.261
37105W        W96542  11.282   5.420   1.820
37106W        W96543   3.423  32.565   4.324
37107W        W96544  37.838  36.866   0.784
37108W        W96545   2.311  11.827  14.791
37109W        W96546   4.863  23.626  10.626
37110W        W96547  32.520  10.704   3.807
37111W        W96548  41.864   1.744  10.117
37112W        W96549  16.675  35.108  10.892
37113W        W96550  11.323  21.727   2.369
37114W        W96551  16.630   6.309   2.218
37115W        W96552  38.527  15.781   2.190
37116W        W96553  26.578  23.711   9.508
37117W        W96554  39.503  17.595  12.022
37118W        W96555  18.579   3.345   1.869
37119W        W96556  21.658  14.817  12.962
37120W        W96557  40.329  31.988  12.565
37121W        W96558   2.931  16.649   1.744
37122W        W96559   6.359  22.219  12.361
37123W        W96560  15.756  24.592  14.467
37124W        W96561  13.723  35.978   1.871
37125W        W96562  43.477  37.066  13.025
37126W        W96563  44.960   6.349  10.428
37127W        W96564  28.482   2.277  11.467
37128W        W96565  30.422  31.427   1.925
37129W        W96566  32.974   5.387   0.822
37130W        W96567  42.005  39.841  10.004
37131W        W96568  22.746  25.118  14.325
37132W        W96569  17.067   5.216  13.972
37133W        W96570  39.847  11.329  12.426
37134W        W96571  12.786  14.198   3.779
37135W        W96572  20.229  38.486   1.257
37136W        W96573  27.652  38.927   0.911
37137W        W96574   2.724  22.541   4.726
37138W        W96575  36.482   8.762  10.140
37139W        W96576  10.743  10.312   1.223
37140W        W96577  29.985  42.957   4.228
37141W        W96578  34.894   4.766   1.241
37142W        W96579   1.875   0.251  12.937
37143W        W96580  34.485  27.587  13.903
37144W        W96581  16.657  23.986   0.272
37145W        W96582  22.695  40.009  14.931
37146W        W96583  31.020  37.046   0.299
37147W        W96584  35.425  25.530   0.357
37148W        W96585   3.260  30.544   2.821
37149W        W96586  21.530  13.106  10.521
37150W        W96587  32.088   5.782   3.166
37151W        W96588   8.370  38.949   4.158
37152W        W96589  43.430  44.800  13.972
37153W        W96590  32.556  23.049   2.871
37154W        W96591  32.539  23.203  14.769
37155W        W96592  42.820  12.176  12.037
37156W        W96593  44.266  11.650  11.973
37157W        W96594   1.411  29.669  11.866
37158W        W96595  38.434  40.842   2.874
37159W        W96596  40.450   5.772  13.904
37160W        W96597  38.557  21.101  14.475
37161W        W96598  34.608  17.699   1.879
37162W        W96599  28.669  29.426   4.816
37163W        W96600  27.598  26.997  13.861
37164W        W96601  19.270  15.722  10.956
37165W        W96602   5.692  33.020   2.898
37166W        W96603   2.931  15.708   0.482
37167W        W96604  44.385  36.086  12.542
37168W        W96605  29.920   1.926   2.675
37169W        W96606  35.916  18.276   0.299
37170W        W96607  21.032  17.252   3.782
37171W        W96608  38.042  15.217   0.368
37172W        W96609  23.698  32.432   2.305
37173W        W96610   2.852  19.138   0.467
37174W        W96611   3.456  34.023   0.343
37175W        W96612  17.170  26.056  12.094
37176W        W96613  14.323  31.501  11.886
37177W        W96614   4.757  40.021  11.399
37178W        W96615  22.240  37.841   4.611
37179W        W96616   6.771   2.285   3.773
37180W        W96617   0.397  17.705  14.890
37181W        W96618   3.746  31.565   3.201
37182W        W96619   8.761  26.618   1.300
37183W        W96620  38.420  39.880  13.374
37184W        W96621  11.676  10.143  13.315
37185W        W96622   3.775  36.029   5.153
37186W        W96623   8.886  27.005   3.194
37187W        W96624  34.968  13.762  13.979
37188W        W96625  22.622   4.939   2.268
37189W        W96626   8.893  42.390   4.352
37190W        W96627  13.125  11.621  10.914
37191W        W96628  28.066  17.732  12.003
37192W        W96629  28.993  33.938   4.727
37193W        W96630   2.781   3.260  11.480
37194W        W96631   8.185  22.094  10.530
37195W        W96632  16.209  21.680  12.557
37196W        W96633  34.038  19.590   3.333
37197W        W96634  41.949  15.312  14.778
37198W        W96635  13.229   4.424   1.916
37199W        W96636  10.330  29.461  11.971
37200W        W96637  22.593   3.268   3.307
37201W        W96638  37.939  22.152   2.186
37202W        W96639  31.531   2.382  13.944
37203W        W96640  44.934  19.269  10.921
37204W        W96641  16.125  28.166   4.733
37205W        W96642  26.553  21.678   3.811
37206W        W96643  28.580  35.512   4.179
37207W        W96644  42.481  41.923   1.246
37208W        W96645  38.963  27.658   2.898
37209W        W96646   5.735  38.471   4.188
37210W        W96647  27.533  10.297   9.998
37211W        W96648  40.417  29.995   2.752
37212W        W96649  21.523  15.781   0.425
37213W        W96650   2.815  29.175   2.317
37214W        W96651  43.977   8.332  12.554
37215W        W96652  29.579  41.874   4.792
37216W        W96653  44.424  38.016  10.539
37217W        W96654  10.726  21.202   0.481
37218W        W96655  37.425   8.237  12.860
37219W        W96656  32.936  40.993  14.464
37220W        W96657   4.260   8.202  10.972
37221W        W96658  17.109  27.662   3.210
37222W        W96659  36.541  40.811   4.336
37223W        W96660   7.718   6.206  12.034
37224W        W96661   6.331  21.516   1.449
37225W        W96662   7.862  32.404  12.395
37226W        W96663  16.203  30.120  13.538
37227W        W96664  36.432  16.157  10.968
37228W        W96665  34.869  16.177  11.571
37229W        W96666  13.144  38.837   4.211
37230W        W96667  44.338  42.991  13.312
37231W        W96668  18.761   1.377   4.342
37232W        W96669  27.142  35.016   4.273
37233W        W96670  34.946   3.802   4.692
37234W        W96671  10.246  19.270  12.096
37235W        W96672  23.504  23.627   4.186
37236W        W96673  12.338  10.333   3.801
37237W        W96674   6.277  38.503   2.245
37238W        W96675  42.859  38.536   2.214
37239W        W96676   6.787  25.190  11.906
37240W        W96677  39.438  12.342   3.346
37241W        W96678  11.230  20.727  10.965
37242W        W96679  28.988  35.503  14.408
37243W        W96680   5.874  36.458  14.859
37244W        W96681  35.570  22.146  14.759
37245W        W96682  34.918  35.999  12.869
37246W        W96683  24.977  26.569  12.424
37247W        W96684  44.964  14.799   4.723
37248W        W96685   6.681  14.739  13.015
37249W        W96686   5.851  24.095  13.370
37250W        W96687  42.384  12.150  11.451
37251W        W96688  24.649  43.784   2.293
37252W        W96689   9.377  20.245  14.829
37253W        W96690  16.268   9.160   0.906
37254W        W96691  34.900   9.318  10.504
37255W        W96692   6.760  10.667   0.288
37256W        W96693  17.680   4.221   3.797
37257W        W96694  33.886  13.760   2.224
37258W        W96695  12.803  18.689  13.362
37259W        W96696  37.470  33.030  12.478
37260W        W96697   3.365  41.841   2.230
37261W        W96698  22.020  37.894  10.897
37262W        W96699  35.469  41.852   2.322
37263W        W96700  41.884  28.138  10.487
37264W        W96701  31.647  11.320  14.455
37265W        W96702  12.617  31.147  11.448
37266W        W96703  10.274  34.906  14.480
37267W        W96704  12.208  28.991  11.070
37268W        W96705  20.650   8.739  12.847
37269W        W96706   3.915  22.561   0.810
37270W        W96707  35.394  11.806  12.579
37271W        W96708  16.650   0.861  11.583
37272W        W96709   6.748  27.674   4.669
37273W        W96710  39.369  43.287   0.329
37274W        W96711  13.634  41.391   2.408
37275W        W96712  16.292  22.605  10.118
37276W        W96713  40.509  14.118  13.827
37277W        W96714  42.949  37.831   4.704
37278W        W96715  20.164  43.498   9.616
37279W        W96716  22.242  42.789   0.739
37280W        W96717  10.723  39.952  11.943
37281W        W96718   1.259  11.849   3.859
37282W        W96719   7.781   9.800   2.292
37283W        W96720   9.156   1.941   3.662
37284W        W96721  18.169  26.543   1.765
37285W        W96722  33.414  36.998   1.874
37286W        W96723  32.141  23.090  14.425
37287W        W96724  37.358  15.237   1.920
37288W        W96725   7.271  10.262  11.538
37289W        W96726  44.795  26.480  13.024
37290W        W96727  20.736   8.836   3.340
37291W        W96728  38.528  14.128  13.056
37292W        W96729  11.743  28.071   1.280
37293W        W96730   2.386  32.023  12.032
37294W        W96731  41.441  13.225   4.808
37295W        W96732  41.507   2.760   2.842
37296W        W96733  13.836  12.132  13.331
37297W        W96734   0.801  37.363  10.905
37298W        W96735   2.454  20.187  11.923
37299W        W96736  18.166  11.362   1.308
37300W        W96737   6.349  33.391  11.479
37301W        W96738   5.294   9.785  12.543
37302W        W96739  27.950  10.683   4.298
37303W        W96740  27.150   4.858   2.845
37304W        W96741  33.408   7.679   4.708
37305W        W96742  17.701   2.261   4.114
37306W        W96743  21.037  28.141   0.888
37307W        W96744   0.419  21.066  13.862
37308W        W96745  26.636   2.279   3.350
37309W        W96746  27.453   3.868  12.429
37310W        W96747   5.194   8.374  14.427
37311W        W96748  13.111  32.452  11.411
37312W        W96749  11.242  16.242   3.715
37313W        W96750  41.016  13.119  14.344
37314W        W96751  22.161   9.866  12.921
37315W        W96752  33.054  14.683   1.218
37316W        W96753   2.236  35.451   0.360
37317W        W96754  36.518   6.861   2.681
37318W        W96755  27.192  39.341  12.969
37319W        W96756  27.991  29.594  10.933
37320W        W96757  21.570   9.783  14.497
37321W        W96758  19.634  11.664   1.249
37322W        W96759   7.176  43.271   0.339
37323W        W96760  39.046  15.815   5.223
37324W        W96761   4.327  23.697   5.161
37325W        W96762  23.017  29.079   2.684
37326W        W96763  28.526   2.280  14.494
37327W        W96764  26.132  20.767   3.740
37328W        W96765  41.385  21.229  14.470
37329W        W96766  33.406   8.901   2.759
37330W        W96767  22.092  37.048  14.406
37331W        W96768  24.513   0.916  11.885
37332W        W96769  31.506   2.262   2.219
37333W        W96770  32.926  44.461   3.642
37334W        W96771  13.311  43.467  14.999
37335W        W96772  27.014   6.235   0.288
37336W        W96773  22.598  40.450   5.712
37337W        W96774  41.978  11.256   2.256
37338W        W96775  36.896  18.643   4.126
37339W        W96776  42.379  44.853   2.330
37340W        W96777  35.889   5.819   1.278
37341W        W96778   6.730  40.445  13.547
37342W        W96779  35.919  10.288   3.167
37343W        W96780  44.003  29.018  11.928
37344W        W96781  30.982  42.010   2.711
37345W        W96782   7.814  10.848  14.516
37346W        W96783  36.979   2.933   1.423
37347W        W96784   1.875   1.434  12.844
37348W        W96785  28.992  32.899  13.868
37349W        W96786   1.240  17.558   2.787
37350W        W96787  35.536  23.085  12.480
37351W        W96788  10.194  17.229  12.076
37352W        W96789  42.029  35.432   2.210
37353W        W96790  36.084  20.767  14.322
37354W        W96791   3.322   0.897   0.851
37355W        W96792  27.076   6.745  11.405
37356W        W96793   0.817  10.187  10.420
37357W        W96794   3.238  15.609   9.674
37358W        W96795  30.625  26.150   0.803
37359W        W96796   8.891  10.788   0.951
37360W        W96797  27.633  18.096  12.394
37361W        W96798  23.225  44.436  10.951
37362W        W96799  34.968  13.342   0.373
37363W        W96800  39.523  14.682   1.422
37364W        W96801  11.311  29.569  14.916
37365W        W96802  20.069   0.974  13.024
37366W        W96803   6.687  12.287  12.918
37367W        W96804  25.489  36.400   9.497
37368W        W96805  40.977   6.300   3.633
37369W        W96806  42.482  12.341  14.396
37370W        W96807  14.246   8.388  12.574
37371W        W96808  33.618   8.691   3.292
37372W        W96809  31.420  13.307   0.369
37373W        W96810  38.910  12.745  14.275
37374W        W96811  20.245  43.478   3.781
37375W        W96812  35.975  21.145  11.492
37376W        W96813  21.563   8.746  12.011
37377W        W96814  32.564  16.597   1.755
37378W        W96815   7.335  18.761   1.770
37379W        W96816  36.045  24.673   2.419
37380W        W96817  37.976  24.515  14.448
37381W        W96818   7.188  26.070   3.749
37382W        W96819   2.257   8.812   2.686
37383W        W96820  16.795  14.184   1.714
37384W        W96821  25.524  42.419   1.745
37385W        W96822  23.576  33.910   0.256
37386W        W96823  41.424  21.531  12.461
37387W        W96824   2.728  16.094   2.847
37388W        W96825  44.977  35.602  11.097
37389W        W96826  24.487   0.342  11.102
37390W        W96827  39.881  19.173  12.980
37391W        W96828  21.660  32.904   1.889
37392W        W96829   9.802  43.300  14.006
37393W        W96830  25.478  33.529  10.935
37394W        W96831  22.996  42.424  13.477
37395W        W96832  32.635  35.100  12.872
37396W        W96833  44.456  25.469   4.137
37397W        W96834   2.413  20.251   4.647
37398W        W96835  19.646   6.197  14.783
37399W        W96836  43.853  12.764   2.217
37400W        W96837  43.989  29.588  11.432
37401W        W96838  34.406   2.961  13.892
37402W        W96839   3.243  31.562  13.846
37403W        W96840  28.493  42.995  11.503
37404W        W96841  28.548  39.341   5.230
37405W        W96842  10.781  24.157   3.195
37406W        W96843  40.848  29.169   1.882
37407W        W96844  41.464   8.809  10.593
37408W        W96845   5.399  15.797   1.264
37409W        W96846  27.173   4.833  14.943
37410W        W96847   9.350  40.416   1.832
37411W        W96848  42.297  35.472   5.233
37412W        W96849  42.809  35.480  11.540
37413W        W96850  20.142   2.792  10.476
37414W        W96851  20.632  26.550  11.423
37415W        W96852  38.075  33.424  13.364
37416W        W96853  39.029  12.261  14.490
37417W        W96854  32.618  41.448  14.001
37418W        W96855  18.061   0.485   3.683
37419W        W96856   8.864  39.878  13.912
37420W        W96857  33.986   9.390  10.413
37421W        W96858   9.244  38.471   4.764
37422W        W96859  36.930  42.282   3.163
37423W        W96860  19.547  17.154   3.280
37424W        W96861   3.723   3.811   3.165
37425W        W96862  24.488   2.414   2.217
37426W        W96863   1.348  17.128   2.295
37427W        W96864   5.822   8.228  10.894
37428W        W96865  26.542  37.889   1.294
37429W        W96866   6.845  18.577  14.883
37430W        W96867  22.048  21.739   1.899
37431W        W96868  10.277  32.063   1.269
37432W        W96869  24.519  36.557   4.834
37433W        W96870  10.808  33.985  13.460
37434W        W96871  23.048  27.533   1.240
37435W        W96872  14.317  10.790   0.450
37436W        W96873  35.390  18.080   3.670
37437W        W96874  33.423  41.466   1.354
37438W        W96875  36.097  34.427   4.805
37439W        W96876  33.464  17.241  11.904
37440W        W96877  38.949  17.132  12.347
37441W        W96878  36.055  14.827   1.733
37442W        W96879  26.183  37.905   1.933
37443W        W96880  21.204  20.709   2.373
37444W        W96881   2.737  12.325  10.546
37445W        W96882  37.962   2.462  13.877
37446W        W96883  32.945  21.210  11.097
37447W        W96884  26.508  23.496   1.829
37448W        W96885  32.115   9.643  11.071
37449W        W96886  41.009  34.524  11.463
37450W        W96887  32.987   7.267   1.864
37451W        W96888   7.264  11.137   0.357
37452W        W96889  40.977   9.656  12.019
37453W        W96890  20.639  20.231   2.260
37454W        W96891  25.529   8.867  13.331
37455W        W96892  36.894  25.208   4.217
37456W        W96893  29.173  14.667   0.469
37457W        W96894  28.646   7.176  10.403
37458W        W96895  27.051   5.345   0.324
37459W        W96896  17.618   1.327  10.894
37460W        W96897  31.936  25.599   2.717
37461W        W96898  14.819  26.037  11.581
37462W        W96899  23.059  16.694   2.289
37463W        W96900   0.913  12.688   2.275
37464W        W96901  41.933   3.899  10.413
37465W        W96902   7.825  24.653   2.221
37466W        W96903  26.977   0.822  13.039
37467W        W96904  29.644  20.187  13.446
37468W        W96905  43.846  25.015   1.722
37469W        W96906  28.142  25.608   4.146
37470W        W96907  39.357  25.028  11.411
37471W        W96908  36.093  19.711  12.471
37472W        W96909   3.915  33.926  12.936
37473W        W96910  28.066  15.163  14.855
37474W        W96911   4.414  38.865   4.831
37475W        W96912  39.973   1.416  10.891
37476W        W96913  15.673   1.811   3.276
37477W        W96914  38.344  38.919  14.950
37478W        W96915  40.959  16.707  13.868
37479W        W96916  26.622  15.787   2.402
37480W        W96917  21.631  15.728   3.729
37481W        W96918  39.846  17.701  10.941
37482W        W96919  14.832   1.769   0.451
37483W        W96920   8.665  19.277  14.406
37484W        W96921  34.594  37.533  14.315
37485W        W96922  41.495  40.336   4.174
37486W        W96923  16.681  14.237   2.256
37487W        W96924  12.302  26.157   4.757
37488W        W96925   4.932  35.078   2.662
37489W        W96926   2.741  18.229  13.900
37490W        W96927  43.921   8.827  14.508
37491W        W96928  24.540   2.335  10.494
37492W        W96929  21.721   4.851  12.998
37493W        W96930  12.156   7.825  14.949
37494W        W96931  18.657   0.290  14.315
37495W        W96932  12.139   6.887   3.258
37496W        W96933  31.434   0.896  10.619
37497W        W96934  43.456  19.701  13.877
37498W        W96935  29.649  31.585  12.495
37499W        W96936   1.822  37.029   4.828
37500W        W96937  32.523  21.577  12.061
37501W        W96938  27.600  33.000   1.288
37502W        W96939  25.145  25.146   0.336
37503W        W96940  24.561  12.801   1.831
37504W        W96941   7.860  14.605   2.734
37505W        W96942  40.502  29.150  10.042
37506W        W96943  42.453   3.318  13.966
37507W        W96944   8.303  43.929   3.178
37508W        W96945  27.626   3.709  14.763
37509W        W96946  40.428   0.866   4.630
37510W        W96947  15.681  26.685  14.916
37511W        W96948  36.438  28.157   0.778
37512W        W96949  44.789   0.433  11.093
37513W        W96950  36.440  10.847  11.088
37514W        W96951   0.422   9.855   2.254
37515W        W96952   3.849  25.656  11.047
37516W        W96953   0.813  20.566   1.802
37517W        W96954  30.498   0.416  12.934
37518W        W96955  30.564  19.094   0.893
37519W        W96956  27.165   5.824  13.539
37520W        W96957  11.643   9.197  13.335
37521W        W96958  23.691   1.284  12.426
37522W        W96959  44.450  10.879  10.522
37523W        W96960  15.651  16.800  13.452
37524W        W96961   2.429  19.125  13.040
37525W        W96962   8.398  27.045  10.115
37526W        W96963   7.398  19.670   2.220
37527W        W96964  16.733   2.262  11.010
37528W        W96965   4.893  11.152   0.406
37529W        W96966  26.701  43.957  13.849
37530W        W96967  36.435   8.214  13.400
37531W        W96968  27.495   9.283  14.330
37532W        W96969  20.255  16.781   2.351
37533W        W96970   7.300  21.560   4.345
37534W        W96971  13.321  18.737  13.418
37535W        W96972  23.191  24.622   3.194
37536W        W96973   8.242   1.465  13.536
37537W        W96974  11.712  26.010   4.246
37538W        W96975  36.584   7.247   9.933
37539W        W96976  25.187  31.963  13.488
37540W        W96977  26.095  43.506  12.985
37541W        W96978  22.046  38.973  13.845
37542W        W96979  10.259  14.823  10.933
37543W        W96980  19.604  42.304  12.563
37544W        W96981  17.604   9.177  11.104
37545W        W96982  23.112   1.245   1.278
37546W        W96983  29.457  19.597   3.680
37547W        W96984  38.483  33.102  14.017
37548W        W96985  22.733  16.729   1.913
37549W        W96986   9.679  20.751  13.463
37550W        W96987  40.473  14.696  11.917
37551W        W96988  20.188  10.834   3.748
37552W        W96989  44.771   6.705   2.306
37553W        W96990  14.754  19.579   3.253
37554W        W96991  21.695  14.220  11.474
37555W        W96992  34.111  39.812   3.166
37556W        W96993  25.616  22.073  10.530
37557W        W96994  33.097  27.119   3.318
37558W        W96995   6.258  29.042  12.007
37559W        W96996  32.409  31.915  10.086
37560W        W96997   3.835  11.218  11.058
37561W        W96998  17.578  18.056  13.523
37562W        W96999  17.690  37.044  14.889
37563W        W97000   0.492  15.185  13.483
37564W        W97001  38.924  44.760  13.475
37565W        W97002   2.754  24.015  11.487
37566W        W97003  44.461  17.063   2.190
37567W        W97004  18.616  14.201  13.990
37568W        W97005  33.480  38.034   3.367
37569W        W97006  15.320  13.681   3.796
37570W        W97007  32.420  44.268   3.284
37571W        W97008  17.599  32.106   3.238
37572W        W97009  15.292  10.314  14.897
37573W        W97010  10.213  11.258   4.306
37574W        W97011   7.844  15.646   1.217
37575W        W97012   1.825  18.636  11.395
37576W        W97013   3.949  37.938  13.525
37577W        W97014  14.276  42.293   3.378
37578W        W97015  32.587  15.637  10.080
37579W        W97016  20.198   7.668   0.465
37580W        W97017   3.881  28.444   1.410
37581W        W97018  43.993   1.351  13.438
37582W        W97019  23.672   2.274  14.467
37583W        W97020  36.872  14.700  10.447
37584W        W97021  31.631   4.294   0.885
37585W        W97022  40.932  34.068   0.436
37586W        W97023  30.595   3.918  12.402
37587W        W97024   4.281  42.416   3.701
37588W        W97025  12.663  12.642  14.942
37589W        W97026   1.901  39.434   4.259
37590W        W97027  24.077   1.840   0.259
37591W        W97028  17.213  44.485  10.043
37592W        W97029  41.937  15.240  11.551
37593W        W97030  19.566   4.230   1.409
37594W        W97031   8.284   8.897  12.031
37595W        W97032  32.455  16.581   4.310
37596W        W97033   9.822  44.793   1.751
37597W        W97034  30.044  40.018   4.153
37598W        W97035  16.213   3.763  12.437
37599W        W97036  37.362  28.011   1.803
37600W        W97037  28.981   4.939  14.018
37601W        W97038   8.303  35.873   2.247
37602W        W97039  32.049  28.534  11.901
37603W        W97040  18.238   2.943   2.765
37604W        W97041  10.751  43.908   3.174
37605W        W97042   8.887   9.843  13.355
37606W        W97043  30.029  40.990  11.572
37607W        W97044  32.013   8.658   3.855
37608W        W97045  20.757  29.455  10.617
37609W        W97046  24.521  12.774  13.353
37610W        W97047   8.301  12.856   3.701
37611W        W97048  30.473  33.423  12.383
37612W        W97049  16.750   1.307   4.741
37613W        W97050  24.152   9.272  13.313
37614W        W97051  33.560  24.176   5.638
37615W        W97052  16.274  10.751  10.466
37616W        W97053  16.244  41.902   2.854
37617W        W97054  16.215  40.405   0.328
37618W        W97055  19.115  40.524   0.808
37619W        W97056  37.462   9.734   2.753
37620W        W97057   7.333  42.460   2.872
37621W        W97058  41.448  43.885  11.121
37622W        W97059  20.199  25.022   3.270
37623W        W97060  41.458  36.984   3.226
37624W        W97061  29.121  28.478  12.363
37625W        W97062  18.724  33.094   3.827
37626W        W97063  36.436  27.043   2.859
37627W        W97064  27.067  34.485   4.158
37628W        W97065   4.756   3.757   0.779
37629W        W97066  22.119  35.015  13.458
37630W        W97067   7.255  10.754   3.369
37631W        W97068  36.591  44.377   4.266
37632W        W97069  32.025  14.112   2.262
37633W        W97070  12.704  27.586   1.418
37634W        W97071   7.333   1.479  11.464
37635W        W97072  17.239  10.872  11.378
37636W        W97073   0.458  23.528   2.267
37637W        W97074  11.733  38.851   2.706
37638W        W97075  11.188   2.840   2.740
37639W        W97076  33.519  33.559   1.397
37640W        W97077   3.777  22.143   1.852
37641W        W97078  42.367   6.201   2.363
37642W        W97079  44.816  21.158  14.989
37643W        W97080  41.507  10.221  12.576
37644W        W97081   8.681  33.563   2.669
37645W        W97082  14.690  41.297  11.555
37646W        W97083  38.827   0.780  12.552
37647W        W97084  35.973  19.126   0.253
37648W        W97085  16.141   7.261   2.747
37649W        W97086  33.402  16.313  10.067
37650W        W97087  13.294  35.106   3.340
37651W        W97088   7.250  22.109  11.009
37652W        W97089  24.122  44.904  13.897
37653W        W97090  42.303   1.771  10.894
37654W        W97091  31.135  40.933   0.424
37655W        W97092  42.890  36.867  13.958
37656W        W97093  11.689  25.169  14.796
37657W        W97094   4.732   3.946  11.433
37658W        W97095  40.414   0.838  14.826
37659W        W97096  34.533  34.472  10.901
37660W        W97097  38.934  19.687   0.254
37661W        W97098   3.310  39.345  11.000
37662W        W97099  35.526   7.881  13.526
37663W        W97100   4.315  26.495   0.920
37664W        W97101  38.557  17.138   1.421
37665W        W97102  38.013  22.615   4.286
37666W        W97103   4.258  42.423   2.722
37667W        W97104  31.405  33.945   3.836
37668W        W97105  43.295  20.635  13.951
37669W        W97106  16.711  30.104  10.495
37670W        W97107  11.806  39.982  14.342
37671W        W97108  22.190  27.024  12.501
37672W        W97109  31.492  35.043   4.637
37673W        W97110  40.052  42.863   0.338
37674W        W97111   2.335   9.152   4.194
37675W        W97112  42.800  36.079   0.453
37676W        W97113   3.443   2.434   1.742
37677W        W97114  22.594  32.479   3.823
37678W        W97115  39.484  36.003  11.597
37679W        W97116  22.204  12.257  12.446
37680W        W97117   0.348   9.222   3.242
37681W        W97118  25.468   3.316  11.104
37682W        W97119  25.083   5.883   4.789
37683W        W97120  31.448  15.787   1.901
37684W        W97121  27.546  41.926  13.043
37685W        W97122   4.716  14.652  13.520
37686W        W97123  34.953  27.502  14.968
37687W        W97124  12.840  15.665  14.430
37688W        W97125  30.563  32.618  12.528
37689W        W97126   1.243   2.923   1.847
37690W        W97127   6.774  14.706  12.558
37691W        W97128   3.352  35.425  13.323
37692W        W97129  34.548  27.021   0.447
37693W        W97130  43.902  11.733  14.823
37694W        W97131  27.115   2.273  12.460
37695W        W97132  14.337  14.194   4.337
37696W        W97133  16.602   3.354   4.319
37697W        W97134  42.390  42.823   2.328
37698W        W97135  41.323  35.447   1.398
37699W        W97136  13.835   2.735  11.580
37700W        W97137  28.149  14.157  14.785
37701W        W97138  17.785  10.705   0.886
37702W        W97139   3.839   9.281   3.863
37703W        W97140  12.664  18.758   1.387
37704W        W97141  37.059   4.414   3.151
37705W        W97142   5.274  10.156  11.381
37706W        W97143  42.404   0.955   3.825
37707W        W97144  12.715  33.563   1.794
37708W        W97145  22.149  18.215  14.009
37709W        W97146  25.178  18.271   1.334
37710W        W97147  40.425  44.766   3.741
37711W        W97148  18.790  15.113   5.574
37712W        W97149   3.219  14.828   0.340
37713W        W97150  26.590  29.529  13.901
37714W        W97151   7.279   6.314  13.441
37715W        W97152  11.743  26.997  13.979
37716W        W97153  11.703  44.869   0.386
37717W        W97154  16.278  33.510   3.275
37718W        W97155   4.324   3.412   0.790
37719W        W97156  10.222  13.627   0.741
37720W        W97157   4.385  44.955   3.768
37721W        W97158   2.276   5.872   4.261
37722W        W97159  17.191  26.014  12.398
37723W        W97160   4.705  19.559  10.994
37724W        W97161  33.008  34.053   2.822
37725W        W97162  40.326   1.857   3.751
37726W        W97163  13.838   9.331  11.882
37727W        W97164  32.988  17.105  10.544
37728W        W97165   5.405  19.581   4.671
37729W        W97166  34.068   1.285   3.736
37730W        W97167  36.396  29.546  13.310
37731W        W97168  31.414   1.242   4.701
37732W        W97169   9.876   8.706   3.365
37733W        W97170  31.979  16.231  10.555
37734W        W97171  30.604  26.630  10.941
37735W        W97172  42.341  14.791  13.799
37736W        W97173  23.049  27.679   0.267
37737W        W97174  26.521  30.921   5.283
37738W        W97175  11.839  44.837   3.230
37739W        W97176  42.421  30.582   3.264
37740W        W97177  10.709  36.420  13.884
37741W        W97178   5.342   9.808   3.757
37742W        W97179   4.234   7.806  13.423
37743W        W97180  14.670   2.354  11.126
37744W        W97181  16.783  19.090  14.428
37745W        W97182  33.422  38.959   3.244
37746W        W97183  39.936  22.702   3.254
37747W        W97184  32.094  38.940   9.568
37748W        W97185   6.261  38.406   0.339
37749W        W97186  31.572  44.947   0.851
37750W        W97187   1.785  25.610  11.399
37751W        W97188  31.587  43.974   0.294
37752W        W97189  30.988  31.014   1.831
37753W        W97190   6.710  37.368   4.818
37754W        W97191  40.026  19.284  11.037
37755W        W97192  21.173  38.337   0.740
37756W        W97193   0.746   0.864  14.011
37757W        W97194  36.066  29.632  11.944
37758W        W97195  16.222   8.716  13.966
37759W        W97196  42.461  44.866   0.832
37760W        W97197  20.074   4.756  10.913
37761W        W97198  44.955  41.338   4.164
37762W        W97199  22.703  33.127  13.454
37763W        W97200  43.349  37.526   0.932
37764W        W97201  11.852  28.140   0.805
37765W        W97202   1.269  26.025   1.742
37766W        W97203  39.959   3.851  11.563
37767W        W97204  36.888   4.324  14.892
37768W        W97205  12.210  10.305   0.840
37769W        W97206  24.999   8.210   3.303
37770W        W97207  23.672   3.399  10.563
37771W        W97208  32.917  42.281  13.999
37772W        W97209  40.008  43.507   0.831
37773W        W97210  20.051   1.904   4.823
37774W        W97211  35.023  16.608  11.510
37775W        W97212  21.110   3.300  11.474
37776W        W97213  29.616   1.815   3.302
37777W        W97214  13.794  10.712   1.768
37778W        W97215  15.317   7.728  12.347
37779W        W97216   4.784  44.759  13.336
37780W        W97217  10.229   6.848  14.864
37781W        W97218   8.239   2.786   1.394
37782W        W97219  40.345  13.278   4.794
37783W        W97220  11.326  24.561   0.412
37784W        W97221  29.065  33.448   2.703
37785W        W97222  18.271  17.632  12.062
37786W        W97223  33.579  23.726  10.415
37787W        W97224  25.493   7.680  10.578
37788W        W97225   9.336  11.243  14.407
37789W        W97226  26.048  21.634  13.327
37790W        W97227  37.879  28.972   0.845
37791W        W97228  41.414  30.979   4.249
37792W        W97229  23.205  22.620   2.847
37793W        W97230  28.052  36.930   3.189
37794W        W97231  29.113   9.751  10.613
37795W        W97232  25.574   2.960   4.824
37796W        W97233  43.852  19.081   0.482
37797W        W97234   2.336  35.522  14.817
37798W        W97235  25.189  31.547  12.462
37799W        W97236  29.576  19.776   2.319
37800W        W97237  12.225   1.253   0.358
37801W        W97238  29.131  15.631  12.429
37802W        W97239  43.836  19.208   2.178
37803W        W97240   3.900  32.398   3.774
37804W        W97241  18.728  14.806   0.833
37805W        W97242  19.697  12.679   4.769
37806W        W97243   5.805  38.851   0.473
37807W        W97244  26.596  12.815  14.981
37808W        W97245  35.472  41.972  14.847
37809W        W97246  27.088   8.373  12.381
37810W        W97247  39.015  10.161   1.337
37811W        W97248   4.242  20.160   3.799
37812W        W97249  33.515  40.312  14.968
37813W        W97250  21.643  33.976  10.917
37814W        W97251  42.317   9.150  10.562
37815W        W97252  13.832  26.191   4.651
37816W        W97253  12.187   6.904   4.209
37817W        W97254  26.190  37.544  13.984
37818W        W97255  42.494   8.854  11.997
37819W        W97256  21.651   1.425  13.948
37820W        W97257  13.799  31.981   1.421
37821W        W97258   0.989  28.629   4.718
37822W        W97259  27.114   9.240   2.847
37823W        W97260  25.589  16.309  11.386
37824W        W97261  15.630  20.686  10.583
37825W        W97262  34.558   7.735  14.804
37826W        W97263  17.561  41.538   4.812
37827W        W97264   1.936  14.284   3.786
37828W        W97265  24.503  25.642  12.393
37829W        W97266  10.759  29.072  11.480
37830W        W97267  39.523   2.246   1.784
37831W        W97268  14.122  32.124   2.871
37832W        W97269  15.159   8.696  13.819
37833W        W97270  21.068  18.586  11.461
37834W        W97271  11.177  12.358   2.212
37835W        W97272   6.861  25.061  12.375
37836W        W97273  41.004  18.117   4.674
37837W        W97274  29.519  10.785   3.758
37838W        W97275  10.674  23.497   2.747
37839W        W97276  43.453   5.403   0.304
37840W        W97277  26.662  41.035   1.364
37841W        W97278  39.863  17.229   0.864
37842W        W97279   6.892  28.616   3.749
37843W        W97280  22.646  21.032   0.778
37844W        W97281  35.472   3.782  13.826
37845W        W97282  30.976  41.404   1.728
37846W        W97283   7.787  34.884  13.330
37847W        W97284  29.527   3.337  11.999
37848W        W97285  44.959  13.736  13.430
37849W        W97286  37.885   8.857  13.043
37850W        W97287   6.251  40.353  12.966
37851W        W97288  21.093   7.363  11.972
37852W        W97289   7.193  37.505  12.453
37853W        W97290  41.345  35.040  14.821
37854W        W97291   6.353  17.272   3.233
37855W        W97292   2.325  28.988  14.781
37856W        W97293  21.095  20.219   0.436
37857W        W97294   1.370  35.957   0.789
37858W        W97295  13.260   6.340   2.256
37859W        W97296  14.656  36.068   2.232
37860W        W97297  24.037  34.483   1.869
37861W        W97298  38.941  18.109   4.188
37862W        W97299  28.529   7.225   0.271
37863W        W97300  12.616  12.834   3.240
37864W        W97301  38.893   9.242  11.940
37865W        W97302  37.557  15.770  14.451
37866W        W97303   5.900  36.850  14.376
37867W        W97304   7.256  20.225  14.922
37868W        W97305  21.261   4.397   2.411
37869W        W97306  29.495  44.863   3.838
37870W        W97307  37.403  24.559   2.777
37871W        W97308   5.697  15.185  12.044
37872W        W97309   4.741  30.550   3.791
37873W        W97310  42.842   8.284  13.031
37874W        W97311  29.426  20.621   2.720
37875W        W97312  35.071  28.941   9.937
37876W        W97313   9.696   7.191   1.433
37877W        W97314  14.212  37.383   1.449
37878W        W97315  40.859   9.817  12.439
37879W        W97316  36.069  20.187  13.426
37880W        W97317  30.478   8.192  12.437
37881W        W97318  43.383  12.638  11.524
37882W        W97319  23.074   6.849  13.432
37883W        W97320  36.896  11.289  13.522
37884W        W97321  15.298   7.173   0.855
37885W        W97322   4.903  12.762   1.391
37886W        W97323   1.799   4.279   2.236
37887W        W97324  43.338  27.989   4.177
37888W        W97325  12.246  10.768   1.215
37889W        W97326  18.593  12.273   1.706
37890W        W97327  17.171   6.345  12.921
37891W        W97328  36.845  34.582   2.665
37892W        W97329  19.760  33.043  11.890
37893W        W97330  43.900  39.064   4.634
37894W        W97331  35.943  17.212   0.936
37895W        W97332  17.277   0.749   3.348
37896W        W97333  16.632  18.674   0.800
37897W        W97334  35.489  40.410  13.864
37898W        W97335   3.299  32.048   4.815
37899W        W97336  12.808   7.234  14.304
37900W        W97337  31.967  21.634  13.809
37901W        W97338  32.068  16.163   3.789
37902W        W97339  20.701  26.062  10.407
37903W        W97340  18.772  41.913  12.520
37904W        W97341  36.999  14.683  14.402
37905W        W97342  40.832  37.989  12.965
37906W        W97343  36.080  17.205   4.669
37907W        W97344  37.939  43.478  10.999
37908W        W97345  30.582  37.861   2.781
37909W        W97346  33.440  14.651  11.547
37910W        W97347   9.661  43.821  11.079
37911W        W97348   5.288  21.683   4.245
37912W        W97349   8.189  29.159  11.884
37913W        W97350   5.427   9.327  11.873
37914W        W97351  30.514  38.864   2.234
37915W        W97352  26.530  21.068  14.287
37916W        W97353  21.104   0.287  10.526
37917W        W97354  27.636   4.205   1.757
37918W        W97355  38.447   2.368  10.552
37919W        W97356   3.798   3.712   2.769
37920W        W97357  17.757   5.352   4.119
37921W        W97358  12.199  24.004   3.379
37922W        W97359  26.996  15.659   1.387
37923W        W97360   9.263  11.647   4.813
37924W        W97361  29.974   7.854  13.040
37925W        W97362  17.666   3.834   1.874
37926W        W97363  23.693   4.886  12.557
37927W        W97364  44.425  24.705  14.335
37928W        W97365   1.862  37.573  13.451
37929W        W97366  29.941  20.238  13.010
37930W        W97367  42.930   0.252   4.311
37931W        W97368   8.380  18.169  13.522
37932W        W97369  15.117  34.922  12.071
37933W        W97370  36.366  18.557  13.878
37934W        W97371   3.427   5.416   2.806
37935W        W97372  39.848  26.551   3.781
37936W        W97373  34.987  34.601  11.445
37937W        W97374   7.789   5.703  11.085
37938W        W97375  22.509  32.041  11.109
37939W        W97376  10.164   5.823   4.756
37940W        W97377   5.855   0.354   0.897
37941W        W97378  31.443  40.538   3.811
37942W        W97379  21.181   3.933  14.485
37943W        W97380  31.133  25.505  14.941
37944W        W97381  13.334  44.871  11.000
37945W        W97382  28.161  30.014  11.396
37946W        W97383  30.550  42.470  11.023
37947W        W97384  30.123  30.995  13.399
37948W        W97385  13.764  14.641   2.754
37949W        W97386  30.505  42.311  13.351
37950W        W97387  43.005  31.935   9.956
37951W        W97388  28.038  27.627  13.853
37952W        W97389  24.485  34.424  10.510
37953W        W97390  40.944   7.783   3.180
37954W        W97391  30.008  33.600   0.256
37955W        W97392  28.584  10.864  10.142
37956W        W97393  16.722  36.583  14.922
37957W        W97394  35.985  34.423  13.383
37958W        W97395  40.353  28.648  11.600
37959W        W97396  16.180   2.390  13.987
37960W        W97397  19.612  28.066  14.296
37961W        W97398   1.823  27.690  11.564
37962W        W97399  10.737  44.942  13.417
37963W        W97400  26.544  16.754   1.396
37964W        W97401  43.773  19.581   3.759
37965W        W97402   4.409  17.102  11.084
37966W        W97403  36.041  13.801  14.823
37967W        W97404  19.210  26.166  13.030
37968W        W97405  22.248  10.157   0.407
37969W        W97406  22.099  37.895   3.836
37970W        W97407  37.040  38.491  10.480
37971W        W97408   8.245  15.727   1.866
37972W        W97409  34.116  28.541  14.848
37973W        W97410  11.653  12.173  11.411
37974W        W97411   7.320  35.957   2.309
37975W        W97412   5.923  40.924  14.277
37976W        W97413  40.053  29.602  13.950
37977W        W97414  26.094  28.455  11.874
37978W        W97415   0.460  24.203  11.029
37979W        W97416   4.354  32.617  11.446
37980W        W97417  12.132  42.829  10.154
37981W        W97418   4.832   6.255  11.461
37982W        W97419  13.650  28.006   0.292
37983W        W97420   9.162  37.991  14.320
37984W        W97421  44.300  41.456   9.982
37985W        W97422   0.318   8.317   3.826
37986W        W97423  13.617   0.267   4.337
37987W        W97424  24.529  22.136   2.397
37988W        W97425  10.825  33.081   0.728
37989W        W97426  21.600   9.228  11.379
37990W        W97427  27.586  40.970  11.375
37991W        W97428  16.603  19.622   1.420
37992W        W97429  17.743  12.691  14.360
37993W        W97430  19.087   4.300   3.300
37994W        W97431  29.158  25.693   0.382
37995W        W97432  16.092  36.953  12.847
37996W        W97433   1.408  23.061  13.043
37997W        W97434  37.373   9.224   3.356
37998W        W97435  28.642  21.570   1.833
37999W        W97436  29.977   1.237  14.936
38000W        W97437  31.975  18.634   1.894
38001W        W97438  10.291  35.891   3.178
38002W        W97439  34.376  13.632   0.794
38003W        W97440   0.911  18.694   1.797
38004W        W97441  30.119  37.422  11.524
38005W        W97442  31.128   8.192   0.768
38006W        W97443  31.127  22.007   1.832
38007W        W97444  18.609  29.111   2.249
38008W        W97445  11.818  29.612   4.260
38009W        W97446   5.931  43.953  12.017
38010W        W97447  22.744  29.489  10.552
38011W        W97448  24.620  36.857   3.330
38012W        W97449  44.806  41.003  13.425
38013W        W97450  28.550  43.833   3.278
38014W        W97451  29.969  36.070   3.800
38015W        W97452  20.653  20.737  11.372
38016W        W97453  21.235   2.904  11.612
38017W        W97454  31.507  36.436  14.314
38018W        W97455  12.252  33.124   3.351
38019W        W97456   0.905  32.604   0.838
38020W        W97457   8.355  17.692  12.374
38021W        W97458   7.232  20.712   0.808
38022W        W97459  28.569   6.715   2.340
38023W        W97460  21.548  26.495  11.074
38024W        W97461  11.779   0.264  14.899
38025W        W97462  43.451  21.547  13.041
38026W        W97463  35.004   0.898  11.491
38027W        W97464  40.966  35.940   2.707
38028W        W97465  18.613   1.896   0.766
38029W        W97466  32.427   6.244  13.955
38030W        W97467  16.771  40.042   1.892
38031W        W97468   2.807  12.630   1.734
38032W        W97469  20.081  37.945  11.440
38033W        W97470  29.130   1.338  14.782
38034W        W97471  18.683   1.458  12.400
38035W        W97472  11.194  15.241  13.450
38036W        W97473  16.133   6.328   4.335
38037W        W97474  35.002   6.266  14.972
38038W        W97475   2.844  38.459   2.870
38039W        W97476  37.574  42.926   3.353
38040W        W97477   2.942   0.852   3.187
38041W        W97478  28.951  14.315   3.739
38042W        W97479  19.049  21.049  13.005
38043W        W97480  35.947  35.074  14.369
38044W        W97481  22.676  20.637   3.817
38045W        W97482  19.678  12.226  10.968
38046W        W97483  39.951  35.856  11.571
38047W        W97484  12.254  32.925   1.340
38048W        W97485   6.196  26.629   2.312
38049W        W97486  41.496   7.716   4.292
38050W        W97487   3.442   2.463   5.122
38051W        W97488   6.266  26.067  12.940
38052W        W97489  15.801   1.850  12.088
38053W        W97490  12.651  31.639   2.245
38054W        W97491  33.102  21.533   4.627
38055W        W97492  40.809  38.350  11.406
38056W        W97493  21.603   8.738   9.981
38057W        W97494   7.247  36.985  10.574
38058W        W97495  33.456  44.889   2.864
38059W        W97496   5.932   6.687   1.724
38060W        W97497  24.225   1.376   0.326
38061W        W97498  15.144   6.829   1.367
38062W        W97499   7.250  13.308  12.058
38063W        W97500  20.151  19.700   5.141
38064W        W97501  27.145  24.678   2.350
38065W        W97502   8.289  35.897  14.362
38066W        W97503  10.244  29.564  11.028
38067W        W97504  36.060  33.433  12.393
38068W        W97505  10.368  39.954   3.180
38069W        W97506  14.675  23.999   3.770
38070W        W97507  37.837  43.421  12.968
38071W        W97508  25.058   8.175   4.694
38072W        W97509  30.513   3.370   1.746
38073W        W97510  40.917  12.724  10.966
38074W        W97511  22.505  40.510   2.398
38075W        W97512  32.136   5.774  13.988
38076W        W97513  41.329   9.152  12.471
38077W        W97514  16.284  27.121   2.416
38078W        W97515  44.370  27.116  14.774
38079W        W97516   7.399  28.114   0.795
38080W        W97517  32.047   0.350   2.892
38081W        W97518  33.948  42.523  11.880
38082W        W97519  44.763  14.229  14.291
38083W        W97520  13.311  42.980   0.466
38084W        W97521  17.195  28.519   2.345
38085W        W97522   4.259  44.859  10.521
38086W        W97523  25.195  23.993   2.211
38087W        W97524   8.209  11.300   2.221
38088W        W97525  27.053  21.134   0.391
38089W        W97526  21.582  27.547  11.553
38090W        W97527  11.626  43.412   3.846
38091W        W97528  14.267  26.142  12.543
38092W        W97529  31.418  18.579   4.240
38093W        W97530  26.526  37.835  12.419
38094W        W97531   8.744  13.265   2.769
38095W        W97532  18.664   7.279   2.397
38096W        W97533   3.859  17.595   1.427
38097W        W97534  38.562   0.958  13.542
38098W        W97535   0.313  36.387   2.185
38099W        W97536  21.744  39.834  11.555
38100W        W97537  32.025  38.404   4.330
38101W        W97538  20.105  19.664  14.476
38102W        W97539   4.429  31.901  11.093
38103W        W97540  14.202   9.247  14.326
38104W        W97541  31.041  27.651  11.876
38105W        W97542  28.982  30.482  13.407
38106W        W97543   5.358  39.044  11.977
38107W        W97544   5.702  34.470  11.009
38108W        W97545  38.514  38.359  13.385
38109W        W97546  20.715  30.632   4.727
38110W        W97547  39.865  17.090  13.478
38111W        W97548  15.229   4.428   1.932
38112W        W97549  37.353  32.589   4.350
38113W        W97550  20.647  24.479  10.622
38114W        W97551  17.797  36.550   4.831
38115W        W97552  20.607  20.546   2.181
38116W        W97553  23.188  26.115   1.781
38117W        W97554   1.362  29.112  14.324
38118W        W97555  31.930   9.779  11.544
38119W        W97556  12.193  40.959   4.167
38120W        W97557  34.070  23.221  14.996
38121W        W97558  28.577  27.076  10.963
38122W        W97559  35.400   0.926  11.412
38123W        W97560   6.754   6.786   1.318
38124W        W97561  41.981  20.745   3.784
38125W        W97562  22.237  24.219  13.983
38126W        W97563  12.276   4.878  12.566
38127W        W97564  19.219  39.891   5.106
38128W        W97565  43.781  21.620   0.401
38129W        W97566  26.107   1.765   0.772
38130W        W97567  31.441   5.238   4.667
38131W        W97568  11.808  15.212   2.319
38132W        W97569  32.911  44.366  14.516
38133W        W97570  31.587   0.971   1.892
38134W        W97571  21.559  42.327   4.643
38135W        W97572  43.392  21.641   4.834
38136W        W97573  32.082  14.124  14.956
38137W        W97574  28.044   9.271   4.235
38138W        W97575  11.645  17.700  14.911
38139W        W97576  22.552  31.017  12.922
38140W        W97577  29.078  14.622   3.690
38141W        W97578  22.099   6.297   1.800
38142W        W97579  10.857  39.323   4.142
38143W        W97580  23.199   1.879  13.331
38144W        W97581   8.824  25.114   1.899
38145W        W97582  26.090  13.600   4.747
38146W        W97583  37.400   5.912   1.285
38147W        W97584  26.546  41.793   1.872
38148W        W97585  23.707  16.594   1.409
38149W        W97586  31.923   8.162  13.383
38150W        W97587  42.484   5.392  12.358
38151W        W97588  25.016  33.000  14.341
38152W        W97589   2.409   3.874  10.995
38153W        W97590  21.158  31.108   4.308
38154W        W97591  40.366   0.776   3.684
38155W        W97592  13.115  22.651  14.926
38156W        W97593  36.513  22.082   4.348
38157W        W97594  10.861   6.818   2.744
38158W        W97595  38.902   8.750   0.357
38159W        W97596  35.959  22.223   1.284
38160W        W97597  22.719  40.932  12.416
38161W        W97598  25.484  11.681   4.345
38162W        W97599  10.284   6.235  11.500
38163W        W97600  21.664  19.208  14.975
38164W        W97601  38.859  33.501   1.700
38165W        W97602  19.048  29.082   3.746
38166W        W97603  35.108  28.047  14.366
38167W        W97604  14.146  10.221   1.866
38168W        W97605  10.379  12.313   0.465
38169W        W97606  25.099  23.169   1.371
38170W        W97607  38.380  23.219   1.910
38171W        W97608  30.981  40.455  10.088
38172W        W97609   0.812  33.518  12.877
38173W        W97610  12.337  43.284   3.675
38174W        W97611   9.822  39.877  12.002
38175W        W97612  19.087  43.995   2.288
38176W        W97613  36.873  25.013   2.853
38177W        W97614   4.823  37.395  13.828
38178W        W97615  34.483   5.932   2.728
38179W        W97616  27.488  30.936   2.767
38180W        W97617  19.775  25.562  12.096
38181W        W97618  37.881  30.528  13.345
38182W        W97619  27.680  16.705   1.810
38183W        W97620  41.304   8.396  13.963
38184W        W97621  37.985   6.695  14.794
38185W        W97622  38.406   7.860  13.464
38186W        W97623  12.849  30.585   2.191
38187W        W97624  41.945  38.871   4.826
38188W        W97625  13.251  43.987   0.890
38189W        W97626  22.252   2.854   0.345
38190W        W97627  21.034  26.010   1.288
38191W        W97628  43.928   9.272   0.441
38192W        W97629  44.277  16.754   2.361
38193W        W97630  35.853  20.069  10.495
38194W        W97631   1.977   5.315  14.504
38195W        W97632  10.184  13.788   2.419
38196W        W97633   7.685  13.238   3.720
38197W        W97634  42.799   6.788   0.784
38198W        W97635  16.127  36.086  13.364
38199W        W97636   7.360   6.244   2.205
38200W        W97637  16.571  39.462   1.813
38201W        W97638  19.557   8.846   3.780
38202W        W97639  36.959  15.678  14.986
38203W        W97640  25.997  32.087  13.029
38204W        W97641  21.027  25.500  14.409
38205W        W97642   0.932  35.537   0.432
38206W        W97643  43.327  27.675  11.591
38207W        W97644  10.712   1.288   0.956
38208W        W97645  12.835  41.806   1.815
38209W        W97646  29.444  10.694  14.854
38210W        W97647  32.530  20.136   1.786
38211W        W97648  24.100   1.255   3.696
38212W        W97649  20.765   7.240   3.849
38213W        W97650  15.788  11.848   4.832
38214W        W97651  20.120   6.878   1.323
38215W        W97652  32.558   9.691  13.807
38216W        W97653  21.089  39.356  13.314
38217W        W97654   2.396   8.835  13.877
38218W        W97655  29.096   5.762   2.744
38219W        W97656  27.081  38.014   4.704
38220W        W97657  44.403  29.483   4.690
38221W        W97658  13.758  41.860  14.008
38222W        W97659  13.759  16.796   0.399
38223W        W97660  40.418  24.491  12.398
38224W        W97661  30.486   7.869   2.817
38225W        W97662  31.603  14.666   4.784
38226W        W97663  35.967  44.424  14.498
38227W        W97664  25.188   1.420  10.619
38228W        W97665  30.088  28.140  12.440
38229W        W97666  12.154  13.693   0.337
38230W        W97667  32.400  12.293  10.601
38231W        W97668  23.112  39.361   2.732
38232W        W97669  32.538  43.009   1.341
38233W        W97670  23.079  44.860  14.809
38234W        W97671  37.931  44.452   2.401
38235W        W97672  13.303  37.565   1.860
38236W        W97673  23.690   7.699   1.275
38237W        W97674  36.912  12.804  11.415
38238W        W97675  35.931  42.525  14.462
38239W        W97676   4.434  14.789  12.894
38240W        W97677  24.662  30.657  14.297
38241W        W97678   6.832   0.922   2.354
38242W        W97679  30.094  14.191   3.356
38243W        W97680   4.245  42.855   1.414
38244W        W97681  42.429  34.052  10.907
38245W        W97682  10.721  16.189   0.375
38246W        W97683   3.299   1.828   4.145
38247W        W97684  33.382  11.802  14.016
38248W        W97685  31.523  39.021  14.483
38249W        W97686  14.246  19.707   1.921
38250W        W97687  22.178  15.322   1.436
38251W        W97688  18.777  44.948   3.160
38252W        W97689   5.282   3.744   3.852
38253W        W97690  31.951  34.018  12.029
38254W        W97691  31.551  33.023  11.128
38255W        W97692  13.688  31.614   4.151
38256W        W97693  18.779  44.285  11.036
38257W        W97694   2.871  23.722   1.818
38258W        W97695  27.106  22.547   1.313
38259W        W97696  43.285  10.211  10.407
38260W        W97697  32.898  10.381   4.807
38261W        W97698  43.933  40.345  11.541
38262W        W97699  23.511   2.747  11.874
38263W        W97700  36.981   8.680   0.289
38264W        W97701  17.257  24.005   2.237
38265W        W97702   9.812  36.487   1.842
38266W        W97703  21.554  42.485  10.590
38267W        W97704  33.450  27.048   3.820
38268W        W97705  35.531  14.222   3.236
38269W        W97706  31.517  20.041  13.880
38270W        W97707  15.689  18.742   1.768
38271W        W97708  19.663   4.311   3.669
38272W        W97709  43.455  21.588   1.211
38273W        W97710  11.752  30.542  10.139
38274W        W97711  14.638  11.196   2.877
38275W        W97712  42.307  40.012   5.229
38276W        W97713  44.794  34.411  13.539
38277W        W97714  10.841  26.499   0.917
38278W        W97715   9.795  18.712  11.000
38279W        W97716  26.138  30.980   3.653
38280W        W97717  23.078  28.975  13.874
38281W        W97718   1.891  34.608  13.439
38282W        W97719  38.881  18.773   1.855
38283W        W97720   3.408   3.746  14.916
38284W        W97721  39.440  10.343   2.725
38285W        W97722  41.886  12.767   4.781
38286W        W97723   6.356  27.634  14.846
38287W        W97724  41.458  11.363  14.294
38288W        W97725  38.959  21.640   0.792
38289W        W97726  17.605   8.873  10.515
38290W        W97727  21.220   7.735   4.728
38291W        W97728  37.008  35.585   0.387
38292W        W97729  42.804  20.226   0.914
38293W        W97730   5.926   9.792   2.756
38294W        W97731  33.503  29.035  12.034
38295W        W97732  16.135   4.358   0.858
38296W        W97733  27.105  13.737   1.368
38297W        W97734   1.819   2.396   0.442
38298W        W97735   9.321  12.124   2.294
38299W        W97736  15.665  15.096   1.242
38300W        W97737   4.760  27.065   1.430
38301W        W97738   1.892  39.343   1.855
38302W        W97739  27.008  14.678   3.207
38303W        W97740  29.642  29.076   3.348
38304W        W97741  34.896  19.148   4.238
38305W        W97742  40.456  38.907   2.248
38306W        W97743   1.476   1.446  11.081
38307W        W97744  28.069  36.013  11.511
38308W        W97745  20.227  41.951   0.298
38309W        W97746  42.451   6.221   1.794
38310W        W97747   3.770   2.298  14.828
38311W        W97748  22.231  20.252   1.742
38312W        W97749  22.604   5.882   4.813
38313W        W97750  27.520  19.703   3.812
38314W        W97751  23.556  23.579  14.329
38315W        W97752  34.091  15.114  12.942
38316W        W97753   1.949  21.257   4.284
38317W        W97754  40.537  26.138   4.703
38318W        W97755   2.808  32.490  12.382
38319W        W97756  26.112  42.442  13.539
38320W        W97757  30.987   7.184   3.755
38321W        W97758  15.661   8.885   3.664
38322W        W97759  37.954  17.215  10.452
38323W        W97760  42.952  41.463  10.036
38324W        W97761  13.761  41.852  11.550
38325W        W97762   9.272   8.850  10.439
38326W        W97763  22.671   2.938   3.818
38327W        W97764  11.299  40.045  14.891
38328W        W97765  12.265  35.860   0.441
38329W        W97766  30.496  30.912   3.351
38330W        W97767   6.386  29.956   9.588
38331W        W97768  11.257   7.190  11.001
38332W        W97769  17.708   5.711   4.145
38333W        W97770  24.139   7.325   0.781
38334W        W97771   2.813  33.501  14.875
38335W        W97772  30.134  24.115  14.998
38336W        W97773   9.728   0.824   3.832
38337W        W97774  37.568  16.577  11.910
38338W        W97775  20.558  39.465  11.905
38339W        W97776  26.159  39.544  11.421
38340W        W97777  21.229  15.308  10.501
38341W        W97778  10.744  29.665   2.309
38342W        W97779  22.667  44.806  13.350
38343W        W97780  16.678  37.518   0.756
38344W        W97781   9.254  14.104   5.235
38345W        W97782  42.434  21.757  14.850
38346W        W97783  21.634  12.643   4.823
38347W        W97784   9.230  15.592   2.782
38348W        W97785  12.742  20.095   0.466
38349W        W97786   4.877  12.770  14.465
38350W        W97787   8.315  37.982  10.576
38351W        W97788   1.361  11.669  11.910
38352W        W97789  18.189  22.527   0.327
38353W        W97790  42.457  33.566   2.403
38354W        W97791  41.790  12.823   4.288
38355W        W97792   4.915  30.981  13.432
38356W        W97793  24.492  17.715   1.820
38357W        W97794  13.809  44.494   4.157
38358W        W97795  20.667  44.825  13.947
38359W        W97796  11.186  11.137  12.981
38360W        W97797  10.161  23.218  12.833
38361W        W97798  27.977  42.410   1.843
38362W        W97799  24.622  21.619   3.252
38363W        W97800  41.324  12.176  12.982
38364W        W97801  14.132   4.247  13.839
38365W        W97802  40.408   0.403   1.212
38366W        W97803  32.477  10.150  10.633
38367W        W97804   1.447   5.290   0.253
38368W        W97805   3.903  36.504  14.418
38369W        W97806   0.961   9.288  12.478
38370W        W97807  17.139  34.387   3.148
38371W        W97808  20.103  16.229   2.708
38372W        W97809  14.131   6.420  13.938
38373W        W97810  32.505  29.176   1.849
38374W        W97811  39.424  30.591   4.734
38375W        W97812  20.125  21.625  12.975
38376W        W97813   2.422  34.424   0.321
38377W        W97814  13.333  19.125  11.903
38378W        W97815  35.955   5.896  14.948
38379W        W97816  13.328  20.033   3.771
38380W        W97817  30.012  42.356   4.617
38381W        W97818  30.950  17.089   4.156
38382W        W97819  32.501   0.336  10.067
38383W        W97820  24.176  16.186  10.964
38384W        W97821  39.447  40.414  13.855
38385W        W97822  39.825  34.555   3.270
38386W        W97823  41.483  37.386   0.965
38387W        W97824  11.723  33.089  11.872
38388W        W97825  23.542  14.275   9.935
38389W        W97826  26.659  13.814  12.354
38390W        W97827  15.255   7.845  11.025
38391W        W97828  19.069   3.360  11.604
38392W        W97829   0.937  34.079   3.817
38393W        W97830  16.202  32.546  14.892
38394W        W97831  21.139  12.241  13.502
38395W        W97832  22.040  29.020   3.725
38396W        W97833  42.497  19.610   1.424
38397W        W97834  24.150  34.070   0.798
38398W        W97835   0.280  29.639  10.996
38399W        W97836  18.578  31.403  11.488
38400W        W97837  35.435   0.861  10.951
38401W        W97838  34.028  22.653  11.454
38402W        W97839  16.192   2.337  12.565
38403W        W97840  11.320   9.816  11.402
38404W        W97841  19.075  27.175  11.411
38405W        W97842  17.132  32.471   0.457
38406W        W97843  39.948  33.626  13.426
38407W        W97844  44.431  29.584  10.466
38408W        W97845  42.510  39.480   3.740
38409W        W97846  23.216  34.434  12.985
38410W        W97847  42.976  27.559   3.204
38411W        W97848  30.095  29.987   4.771
38412W        W97849  27.536  24.573  11.390
38413W        W97850   0.841  11.658   3.152
38414W        W97851  40.531   0.299  10.550
38415W        W97852  33.402  18.235   0.455
38416W        W97853  32.573  13.843   4.766
38417W        W97854  35.534   1.828   4.727
38418W        W97855  16.315  37.997   0.476
38419W        W97856   8.211  19.091  12.550
38420W        W97857  21.626  27.489   0.386
38421W        W97858  28.575   8.807   0.362
38422W        W97859  40.894  16.599  14.307
38423W        W97860  35.527  37.372  11.124
38424W        W97861  35.098  19.685  14.818
38425W        W97862   7.863  12.715   5.299
38426W        W97863   1.886  19.754   0.310
38427W        W97864  36.510  28.058  12.572
38428W        W97865  36.426   6.343  14.773
38429W        W97866   6.389  10.856   3.836
38430W        W97867  32.577   9.243   1.854
38431W        W97868  42.430   6.898   4.170
38432W        W97869   9.362  17.743  14.352
38433W        W97870   1.348  39.912   0.279
38434W        W97871  36.032  16.664   2.343
38435W        W97872  44.495  10.234  14.845
38436W        W97873  33.472  31.027  14.287
38437W        W97874   5.843   0.786  14.782
38438W        W97875  12.755  24.663  13.524
38439W        W97876  19.605   7.723  14.476
38440W        W97877  14.273  38.915   4.247
38441W        W97878   8.250  10.184   1.923
38442W        W97879  44.853  12.766  13.509
38443W        W97880  38.852  30.154  14.993
38444W        W97881  22.081  36.068   1.407
38445W        W97882  17.240   7.697   2.817
38446W        W97883  19.778  18.587  10.525
38447W        W97884   8.256  23.667  11.977
38448W        W97885  25.988  11.701  11.408
38449W        W97886  35.058  30.993   2.378
38450W        W97887   1.383  40.839   0.370
38451W        W97888  32.425  11.197  14.760
38452W        W97889  29.038  41.332  11.423
38453W        W97890  44.813  34.556  11.963
38454W        W97891  34.397  33.383  14.869
38455W        W97892  23.123  41.017  11.429
38456W        W97893  25.589  32.439  12.462
38457W        W97894  25.496  14.798  14.971
38458W        W97895  43.807  11.278  13.038
38459W        W97896  32.087   7.746   0.913
38460W        W97897  14.199  36.965  11.403
38461W        W97898   7.254  10.320   2.405
38462W        W97899  22.633  36.916  12.529
38463W        W97900  19.086  17.575  11.054
38464W        W97901  24.018  33.887  14.940
38465W        W97902   8.307   4.929  13.519
38466W        W97903  21.217  36.384   2.188
38467W        W97904  29.456   5.344  14.898
38468W        W97905  41.310  32.604   1.287
38469W        W97906  43.768  34.949  14.327
38470W        W97907   6.347  31.416   4.306
38471W        W97908  10.858   0.942   3.261
38472W        W97909  21.018   3.322  13.058
38473W        W97910  35.907  29.600  12.850
38474W        W97911   9.235   4.908   0.388
38475W        W97912  24.608  28.504  12.527
38476W        W97913   4.944  38.036   5.174
38477W        W97914  37.045  26.657  10.539
38478W        W97915  29.058   1.375   4.168
38479W        W97916  10.359  42.512  11.597
38480W        W97917  16.117  18.592   1.822
38481W        W97918   6.206  22.249  13.008
38482W        W97919  38.343   5.743  11.569
38483W        W97920   5.391  19.654  14.913
38484W        W97921  23.147  12.184  14.449
38485W        W97922   6.785  17.613  12.410
38486W        W97923  44.330  31.499  14.873
38487W        W97924  15.609  29.658  12.876
38488W        W97925  40.442   2.299   3.817
38489W        W97926  42.827   0.263  14.423
38490W        W97927  25.602  41.345   0.445
38491W        W97928   5.849   2.955   2.833
38492W        W97929   7.800  22.221   0.748
38493W        W97930  36.925  43.930   4.339
38494W        W97931  38.955   1.923   0.801
38495W        W97932  17.763  27.029   4.806
38496W        W97933  32.134  25.563  14.805
38497W        W97934  18.749  36.006   2.670
38498W        W97935  32.120  17.245  13.384
38499W        W97936   0.409  19.771   1.890
38500W        W97937  24.141  23.214  10.534
38501W        W97938  23.705  44.988  14.473
38502W        W97939  14.827  18.276   4.233
38503W        W97940   1.765  16.270  14.306
38504W        W97941  16.305   9.150   3.753
38505W        W97942  31.586  35.089   3.808
38506W        W97943  30.004  25.671   4.780
38507W        W97944  33.603  24.166  14.990
38508W        W97945  24.044  26.475   2.185
38509W        W97946  34.414  20.601  11.604
38510W        W97947   7.718  31.056  14.776
38511W        W97948  40.862   7.413   3.253
38512W        W97949   8.234  36.053   3.792
38513W        W97950   5.848  43.314  11.866
38514W        W97951  17.571   1.924   4.338
38515W        W97952  28.474  17.193  14.281
38516W        W97953  23.231  41.304   3.828
38517W        W97954  34.112  38.882  10.946
38518W        W97955   9.371  36.418  10.640
38519W        W97956  25.046  41.904  14.943
38520W        W97957  13.838  25.611   4.662
38521W        W97958  14.336   9.714  14.428
38522W        W97959  17.153  25.968   1.236
38523W        W97960  23.573  12.159   1.865
38524W        W97961  20.548  11.729   1.277
38525W        W97962  25.554   4.791  14.332
38526W        W97963   0.762  19.619  13.422
38527W        W97964  40.411   6.676  10.957
38528W        W97965  31.552   8.289  11.955
38529W        W97966  23.082  40.536   4.146
38530W        W97967   6.814  11.302  10.542
38531W        W97968   2.920  30.557  12.088
38532W        W97969   3.866  43.373  11.974
38533W        W97970  44.402  21.529  11.438
38534W        W97971  21.195  44.362  13.338
38535W        W97972  37.508   3.361  14.019
38536W        W97973  24.984   8.332   3.690
38537W        W97974  16.118   6.769  10.540
38538W        W97975  30.003  41.042   0.379
38539W        W97976  41.791  19.088   3.732
38540W        W97977   2.747  27.043   0.728
38541W        W97978  18.170   6.315  10.559
38542W        W97979   6.691  41.496   1.870
38543W        W97980  29.487   8.755  10.985
38544W        W97981  29.094  30.455   1.304
38545W        W97982   5.789  29.493   3.654
38546W        W97983  35.457  27.192   0.335
38547W        W97984  21.239   7.238   3.725
38548W        W97985  29.620  16.280  13.527
38549W        W97986  40.339  27.681  11.077
38550W        W97987  39.028  30.088  14.461
38551W        W97988  14.297  39.966   9.997
38552W        W97989  41.461  22.580  13.510
38553W        W97990   3.792  23.612  11.414
38554W        W97991  41.471   4.857   0.783
38555W        W97992  10.700  38.924  11.473
38556W        W97993   8.810  19.719  12.341
38557W        W97994  17.063  16.648  14.770
38558W        W97995   7.739  12.278   4.802
38559W        W97996  17.278  24.992  13.871
38560W        W97997   2.832  27.987  12.454
38561W        W97998   0.918  16.768  13.884
38562W        W97999   7.223   7.364  13.325
38563W        W98000   3.946  16.306  11.066
38564W        W98001  14.282   0.322  14.893
38565W        W98002  44.813  32.906   5.711
38566W        W98003   0.859  43.840  14.884
38567W        W98004   9.151  19.579  14.984
38568W        W98005  26.614  34.596  13.340
38569W        W98006  30.118  34.053   0.425
38570W        W98007  18.230  43.297  12.901
38571W        W98008   2.766   6.242   1.723
38572W        W98009  14.741  29.036  10.930
38573W        W98010  31.522  12.617  12.553
38574W        W98011  28.523  23.010   1.371
38575W        W98012  35.466  20.723  12.994
38576W        W98013  21.073  18.590  12.924
38577W        W98014   5.363  21.570   1.370
38578W        W98015  24.112   3.740   3.689
38579W        W98016  21.095  30.540   4.622
38580W        W98017  16.111  44.843   3.788
38581W        W98018  25.041  17.773  12.957
38582W        W98019  27.057  14.127  13.022
38583W        W98020   6.905  44.871  13.888
38584W        W98021  23.996   0.842  12.046
38585W        W98022  29.608  39.038   4.837
38586W        W98023  20.181  32.453   4.148
38587W        W98024  14.124  10.818  11.393
38588W        W98025  30.656  32.460  12.878
38589W        W98026  18.195  24.700   1.234
38590W        W98027  14.617  19.640  14.437
38591W        W98028  31.437  34.404  12.951
38592W        W98029  16.318  27.130  10.422
38593W        W98030  43.850  13.840  12.971
38594W        W98031  26.493  35.990  13.496
38595W        W98032  29.961   1.773   4.727
38596W        W98033  30.478  36.925   2.285
38597W        W98034  34.893  40.020  11.085
38598W        W98035  41.873  30.043   4.230
38599W        W98036  15.303  24.714  11.472
38600W        W98037   0.360   7.901  13.882
38601W        W98038   7.363  33.620  11.882
38602W        W98039   4.857   0.430   1.278
38603W        W98040  22.154  18.726  12.905
38604W        W98041  39.892  16.752   3.182
38605W        W98042   0.815  30.509  12.035
38606W        W98043  26.604  16.702  13.972
38607W        W98044  20.230  23.581  12.837
38608W        W98045  33.926  26.596   2.776
38609W        W98046   9.187  11.718   2.298
38610W        W98047  32.923   5.907  14.280
38611W        W98048  15.157  29.069  14.480
38612W        W98049  17.077   2.881  11.594
38613W        W98050   4.874   5.921   0.777
38614W        W98051   5.322  25.194   5.171
38615W        W98052   7.378  31.998  14.972
38616W        W98053  33.036  40.915   2.782
38617W        W98054   2.239  34.103  10.613
38618W        W98055  21.607   7.906  10.462
38619W        W98056  23.573  30.088  13.827
38620W        W98057  18.546  36.034   3.328
38621W        W98058  40.006  43.799   3.245
38622W        W98059  34.870  34.521   4.701
38623W        W98060   8.875  26.691   3.756
38624W        W98061  12.688  39.024   0.337
38625W        W98062  36.458   7.896  13.037
38626W        W98063  28.658  21.131  14.938
38627W        W98064   5.916  19.681  13.493
38628W        W98065  14.779   9.232   0.288
38629W        W98066  20.128  15.089  13.829
38630W        W98067  10.347  28.564   2.303
38631W        W98068   8.804  17.240  10.409
38632W        W98069  37.569  12.158   2.696
38633W        W98070  41.511  33.003  11.902
38634W        W98071  22.017  34.881   2.263
38635W        W98072  13.735  35.488  11.014
38636W        W98073   3.229  24.484  11.546
38637W        W98074  14.598   5.198  13.512
38638W        W98075  13.113   4.830  12.574
38639W        W98076  42.466   4.761  11.942
38640W        W98077   1.942  20.760  14.824
38641W        W98078  10.655   2.949   1.821
38642W        W98079  13.637  13.747   4.192
38643W        W98080  31.036  19.537   1.890
38644W        W98081  16.742  20.699  14.920
38645W        W98082   4.784  19.259  11.497
38646W        W98083  37.041  29.576  12.823
38647W        W98084   5.919   9.687   2.182
38648W        W98085  23.011  41.795   0.334
38649W        W98086   3.817  30.444  10.966
38650W        W98087  12.265  14.766  11.044
38651W        W98088  44.468  39.460   4.114
38652W        W98089  34.536   7.319   2.354
38653W        W98090  35.051  37.525  14.007
38654W        W98091  26.105  15.086  11.409
38655W        W98092  26.616   3.833  11.530
38656W        W98093  23.734  10.351  12.068
38657W        W98094  32.531  22.566  13.440
38658W        W98095  16.193   6.781   0.863
38659W        W98096   3.739  27.570  14.989
38660W        W98097  10.365   0.455   3.647
38661W        W98098  22.235  14.256  11.875
38662W        W98099   3.774   3.875  13.914
38663W        W98100   2.924  28.171   1.327
38664W        W98101  18.171   5.394   3.702
38665W        W98102  17.612  30.040   1.722
38666W        W98103  23.665  38.379   2.753
38667W        W98104  21.663  24.184  13.832
38668W        W98105  35.998   6.692  10.934
38669W        W98106  36.038  26.625  13.901
38670W        W98107  35.988  24.100   3.213
38671W        W98108   7.732  28.662  10.986
38672W        W98109  11.166  42.381  12.402
38673W        W98110  20.537  30.539   2.874
38674W        W98111  14.324  38.077  12.574
38675W        W98112   7.407   9.167   2.716
38676W        W98113   1.837  16.721  12.081
38677W        W98114  18.686   2.273   3.852
38678W        W98115  16.724  42.965   3.223
38679W        W98116  11.794  44.272  14.001
38680W        W98117  19.575  23.192  10.940
38681W        W98118  12.361  19.116  12.502
38682W        W98119  42.876   4.909   1.802
38683W        W98120  23.064  25.558   0.248
38684W        W98121  37.389  42.930   2.404
38685W        W98122   3.233   8.374   1.918
38686W        W98123  20.129  31.999  12.890
38687W        W98124  29.037  29.545  10.938
38688W        W98125   0.304  34.890  12.881
38689W        W98126  42.001  25.165  12.829
38690W        W98127  39.480  23.556  12.356
38691W        W98128  24.226  12.265   1.921
38692W        W98129  26.495   5.332   3.692
38693W        W98130  19.081  36.509   2.810
38694W        W98131  20.633  25.584  13.543
38695W        W98132  38.469  28.675  10.939
38696W        W98133  32.062  39.438  14.413
38697W        W98134  43.501  28.485   1.899
38698W        W98135   4.301   0.286   4.191
38699W        W98136  40.020   5.911   1.253
38700W        W98137   0.401  37.041   0.932
38701W        W98138  10.375   9.703  14.827
38702W        W98139  19.066  30.557  14.398
38703W        W98140   0.482  36.424  14.321
38704W        W98141  33.438  12.358  10.917
38705W        W98142   1.251  41.504   0.950
38706W        W98143   4.393   1.430  13.512
38707W        W98144  40.337  35.531   4.137
38708W        W98145   4.247  15.818   5.292
38709W        W98146   8.363  32.594  12.015
38710W        W98147  22.619  37.549  14.011
38711W        W98148   2.836  44.001   3.791
38712W        W98149   9.704  40.918  14.503
38713W        W98150  10.823  38.891  10.986
38714W        W98151  14.810  31.415  11.108
38715W        W98152   5.816  16.203   3.308
38716W        W98153  11.652  38.356  10.538
38717W        W98154   3.313  29.001  12.971
38718W        W98155  15.811   1.298  13.527
38719W        W98156  10.319  22.645   2.197
38720W        W98157  31.458   4.737   1.224
38721W        W98158   5.359  35.487   4.282
38722W        W98159  29.099  41.477  13.974
38723W        W98160  42.883   3.724  10.968
38724W        W98161  21.174  24.511   3.382
38725W        W98162  10.812  12.617  13.964
38726W        W98163  26.958  39.451  10.058
38727W        W98164  13.695  41.870   3.340
38728W        W98165  33.567  33.984  13.545
38729W        W98166  44.393  35.435  11.431
38730W        W98167   1.839  42.441  12.383
38731W        W98168   1.748   1.842  11.890
38732W        W98169  23.639  18.118   4.157
38733W        W98170  20.686  43.503  11.451
38734W        W98171   8.251  40.325   1.239
38735W        W98172   4.901  44.410  12.917
38736W        W98173  24.168  25.604   3.729
38737W        W98174  19.568  33.087   0.426
38738W        W98175   3.381   7.375  14.852
38739W        W98176  42.355   1.280  11.559
38740W        W98177  27.977  39.510   4.132
38741W        W98178   2.914  21.582  13.363
38742W        W98179  36.882  13.676   3.790
38743W        W98180  19.647  16.745   2.370
38744W        W98181  26.664  41.478  12.361
38745W        W98182  28.461   4.275  14.025
38746W        W98183  19.651  19.178   3.804
38747W        W98184  19.120   0.295  11.944
38748W        W98185  17.145  12.149  11.507
38749W        W98186  27.066  24.048   3.303
38750W        W98187  18.599  29.443   3.366
38751W        W98188  21.186   7.415   9.946
38752W        W98189  20.532  17.671  14.508
38753W        W98190  42.437   4.793  10.965
38754W        W98191  36.477  35.858  10.019
38755W        W98192  36.474  13.188   4.320
38756W        W98193  28.990  10.710  12.498
38757W        W98194  32.113  10.644   1.359
38758W        W98195  23.683  33.409   1.297
38759W        W98196  21.104  42.984  14.797
38760W        W98197  43.358  16.642  13.945
38761W        W98198  31.954   6.752   3.315
38762W        W98199  11.858   5.345   4.119
38763W        W98200  13.199  41.518  12.570
38764W        W98201  15.660  22.651   1.933
38765W        W98202  44.372  26.618  12.067
38766W        W98203   7.756   9.178   0.810
38767W        W98204  15.109   9.775   4.694
38768W        W98205  12.203  25.048  14.398
38769W        W98206   9.739   7.359   3.361
38770W        W98207  13.704   5.727  14.949
38771W        W98208  30.563  38.445  14.403
38772W        W98209   9.754  39.879   4.295
38773W        W98210  28.532  38.992   1.886
38774W        W98211  26.611  20.690  10.914
38775W        W98212  20.100  38.012   4.727
38776W        W98213   5.833   5.425  10.406
38777W        W98214  34.926   5.359   0.406
38778W        W98215  18.555  40.513   1.439
38779W        W98216   3.781  40.912   4.637
38780W        W98217  42.023  17.693   1.417
38781W        W98218  13.736  40.460  10.587
38782W        W98219  31.534  28.554  13.025
38783W        W98220  20.712  36.051   0.829
38784W        W98221  26.491  39.927   3.285
38785W        W98222  24.090  10.768   2.354
38786W        W98223  37.953  41.969   1.275
38787W        W98224   9.848   7.682  11.985
38788W        W98225   2.734  38.326   1.283
38789W        W98226  15.628  18.553   3.829
38790W        W98227   4.358   4.332  14.952
38791W        W98228  28.531   5.819   3.221
38792W        W98229  13.173  39.314  13.535
38793W        W98230   6.821  11.134   4.137
38794W        W98231  39.901  21.089   2.696
38795W        W98232  38.459  32.905   4.290
38796W        W98233  16.284  32.897  13.898
38797W        W98234   7.388  24.711  13.863
38798W        W98235   8.398  29.940  10.520
38799W        W98236  13.287  42.400  13.449
38800W        W98237  35.498  24.546  10.580
38801W        W98238  10.200  27.522  12.959
38802W        W98239  22.588   9.167  14.463
38803W        W98240   2.839  17.284   2.346
38804W        W98241  34.960  16.215  12.009
38805W        W98242  10.737   5.398  12.024
38806W        W98243  18.259  11.327  14.000
38807W        W98244  37.409  44.839  12.433
38808W        W98245  27.572  22.516   0.898
38809W        W98246  38.996   7.750  13.540
38810W        W98247  14.301  11.238  11.487
38811W        W98248  33.995  39.930   0.372
38812W        W98249  42.297  41.801  12.088
38813W        W98250   4.777  12.847  11.582
38814W        W98251  36.011  42.980  11.101
38815W        W98252  21.540  21.111   5.240
38816W        W98253   2.245  22.655  14.820
38817W        W98254   6.352   9.152  13.340
38818W        W98255  30.493  11.283  11.072
38819W        W98256  19.683  27.971  12.001
38820W        W98257  14.267   7.707   1.447
38821W        W98258   2.966  23.702   4.660
38822W        W98259  26.641  12.827  12.848
38823W        W98260  36.357   5.313  11.014
38824W        W98261  34.443  19.577  13.029
38825W        W98262   0.778   8.725  11.125
38826W        W98263  31.588  44.849  11.966
38827W        W98264  26.596   7.909   1.257
38828W        W98265  14.684   8.172   2.319
38829W        W98266  30.487  29.481   0.945
38830W        W98267  38.046   4.251  13.527
38831W        W98268  28.600   3.277   0.249
38832W        W98269  14.095  22.625  11.086
38833W        W98270  16.288  36.576  11.019
38834W        W98271  25.193  19.215  12.000
38835W        W98272  14.595  13.273   0.328
38836W        W98273   3.808  15.328  12.445
38837W        W98274  44.494  42.804   9.968
38838W        W98275  14.727   9.369   1.903
38839W        W98276  33.992  13.113   1.420
38840W        W98277  24.510  29.113   1.398
38841W        W98278  26.578  33.924  14.966
38842W        W98279  18.202  37.531   4.808
38843W        W98280  23.227  13.298  11.436
38844W        W98281  29.154   4.893  13.440
38845W        W98282  18.250  31.623   2.718
38846W        W98283  27.027  35.519   4.751
38847W        W98284  25.077  27.691  11.429
38848W        W98285  11.806   7.327  13.847
38849W        W98286  21.529  28.501  11.901
38850W        W98287  22.669  35.360   2.796
38851W        W98288  19.139  28.453   0.869
38852W        W98289   8.351   0.438   0.312
38853W        W98290   2.740   0.917   4.269
38854W        W98291  30.415  20.163  14.922
38855W        W98292   8.769  28.082  10.595
38856W        W98293  25.635  38.065   3.849
38857W        W98294  25.689  44.998   4.130
38858W        W98295  41.890  38.522   3.678
38859W        W98296  42.941   2.350  13.506
38860W        W98297  15.253  18.645   4.646
38861W        W98298  20.224  24.658   0.762
38862W        W98299  12.789  38.822  11.467
38863W        W98300   2.963  33.111  12.964
38864W        W98301  15.766  27.122   2.307
38865W        W98302  40.430  37.983  11.018
38866W        W98303  22.021   1.398  13.832
38867W        W98304  12.613  30.631   3.716
38868W        W98305  23.586  19.216   1.850
38869W        W98306  10.688  25.560   1.420
38870W        W98307  25.516  17.118  11.469
38871W        W98308   4.940  17.690   4.775
38872W        W98309   2.455  39.928  11.554
38873W        W98310  37.353  29.922  10.416
38874W        W98311  37.456  21.740   4.355
38875W        W98312  18.295  12.223  13.056
38876W        W98313  27.479  42.786  11.477
38877W        W98314  40.433  34.606   4.759
38878W        W98315   6.280   0.451  10.931
38879W        W98316  13.344  23.717  11.874
38880W        W98317  26.485   5.421  11.383
38881W        W98318  14.603  16.183  14.817
38882W        W98319  21.515  29.024  14.346
38883W        W98320  18.287   1.901  13.048
38884W        W98321   2.963   1.399  14.992
38885W        W98322  12.231  29.447  10.431
38886W        W98323  36.023  32.981   0.784
38887W        W98324  35.072   7.371   3.841
38888W        W98325  33.429  21.732   2.699
38889W        W98326  15.184   0.950  11.534
38890W        W98327  28.026  42.487  14.862
38891W        W98328  44.298  28.547  10.552
38892W        W98329   0.854  25.486  10.949
38893W        W98330   0.270  34.996   4.350
38894W        W98331  24.542  25.191   2.846
38895W        W98332  21.602  38.375   3.377
38896W        W98333  40.016  24.132   2.277
38897W        W98334  36.572  32.933  14.492
38898W        W98335  10.653  25.075  11.520
38899W        W98336  43.378  39.430   0.755
38900W        W98337  43.973  15.823  12.354
38901W        W98338   1.253   6.214   0.460
38902W        W98339  24.038  11.684   2.749
38903W        W98340  29.968  12.819  11.544
38904W        W98341  12.159  10.834   4.346
38905W        W98342  43.875  32.894  13.062
38906W        W98343   2.760  32.964  10.600
38907W        W98344  20.042  30.652  13.815
38908W        W98345  12.642  28.054  13.488
38909W        W98346   8.796   0.296  14.483
38910W        W98347  24.982  32.552  14.763
38911W        W98348  21.151  16.085   1.806
38912W        W98349  12.661  10.142   1.287
38913W        W98350  23.089  23.526   4.339
38914W        W98351  44.979  10.278   0.461
38915W        W98352  14.120  44.943   4.348
38916W        W98353  41.525   7.732  14.861
38917W        W98354  18.581  11.631   1.912
38918W        W98355   5.860  24.139   2.784
38919W        W98356  12.290  40.017   3.850
38920W        W98357  41.394  37.560   1.281
38921W        W98358  25.192  41.883  10.569
38922W        W98359  44.986   2.270  12.480
38923W        W98360   0.284  16.634   4.731
38924W        W98361  44.431  40.974  11.001
38925W        W98362  12.825  21.241  14.000
38926W        W98363  34.049  21.749  11.975
38927W        W98364   3.366  33.526  11.375
38928W        W98365  34.036  16.176  13.504
38929W        W98366   3.807  24.074   3.250
38930W        W98367  41.794  14.220   1.353
38931W        W98368  11.788   5.390  12.564
38932W        W98369  43.461  13.205  10.630
38933W        W98370  24.184  18.149   2.214
38934W        W98371   2.427  20.574  14.315
38935W        W98372   8.394  16.265  10.467
38936W        W98373   7.246  35.541  11.931
38937W        W98374   8.319  14.760   1.902
38938W        W98375  37.976   3.920  11.531
38939W        W98376   0.797  10.691   4.597
38940W        W98377  14.285  32.939   0.286
38941W        W98378  22.039  16.237   1.218
38942W        W98379  22.720  21.224  10.521
38943W        W98380  37.562  24.596   0.273
38944W        W98381   4.362   2.903   1.424
38945W        W98382   2.949   1.927   2.823
38946W        W98383  27.673  40.988   1.319
38947W        W98384   8.872  35.497   2.268
38948W        W98385  28.676  39.472   2.408
38949W        W98386   2.769  43.489  12.352
38950W        W98387  34.555  42.446  13.488
38951W        W98388  16.293  40.341   2.764
38952W        W98389   0.320   4.748   1.265
38953W        W98390  16.144  18.585  12.396
38954W        W98391  11.797  31.007  13.397
38955W        W98392  19.135  43.378   3.640
38956W        W98393   6.790  32.032  14.326
38957W        W98394  24.993   9.757  14.924
38958W        W98395   0.750  34.876  11.597
38959W        W98396   4.815  32.463  11.504
38960W        W98397  14.223  39.034  13.847
38961W        W98398  17.785  30.075   1.437
38962W        W98399   4.884  28.561   2.266
38963W        W98400  30.655   5.899  12.440
38964W        W98401   1.240  10.712   0.919
38965W        W98402  37.344  26.457  13.955
38966W        W98403  11.315  29.150   4.159
38967W        W98404  31.012  27.949  12.006
38968W        W98405  36.444  15.135  11.584
38969W        W98406   4.317  18.262   0.309
38970W        W98407  21.527  21.557  14.399
38971W        W98408  41.972  16.102  10.909
38972W        W98409  34.890   3.838  13.341
38973W        W98410   6.694   8.711   3.850
38974W        W98411   8.715   0.924  11.482
38975W        W98412  29.637  39.477   1.449
38976W        W98413  21.681  31.010  13.463
38977W        W98414  18.144  32.991  14.439
38978W        W98415   5.387   2.375  12.895
38979W        W98416  33.408  38.942  12.035
38980W        W98417  34.594  25.158  14.848
38981W        W98418  18.211  11.858   1.920
38982W        W98419  33.998   1.776  14.832
38983W        W98420  15.734  38.538   4.147
38984W        W98421   4.398  38.414   3.233
38985W        W98422  20.748  16.572  12.035
38986W        W98423  31.090  32.979  11.443
38987W        W98424   9.190  20.760  14.959
38988W        W98425  22.599  20.694   0.966
38989W        W98426  25.709  36.373  13.349
38990W        W98427  22.204  10.220   2.267
38991W        W98428  11.139   5.220   4.775
38992W        W98429   2.938  24.172  11.871
38993W        W98430  15.788  27.657   3.294
38994W        W98431  21.752   3.840  11.407
38995W        W98432  36.443  34.043  11.858
38996W        W98433  11.357  27.098   0.795
38997W        W98434  16.232  31.585   0.313
38998W        W98435  28.109  42.476   4.304
38999W        W98436   8.691  32.613  14.773
39000W        W98437  12.289  16.756   4.696
39001W        W98438  26.977  36.589   1.883
39002W        W98439  23.525  27.542  13.030
39003W        W98440  22.252  38.537   2.854
39004W        W98441  25.591  19.539   4.125
39005W        W98442  38.920   6.810   0.867
39006W        W98443   0.922  13.130  14.981
39007W        W98444  26.584  43.509   0.756
39008W        W98445  29.981  13.766   1.237
39009W        W98446  11.296  43.930   1.700
39010W        W98447  27.190  37.982  12.499
39011W        W98448  18.195  10.753   3.317
39012W        W98449  11.135  25.136   3.384
39013W        W98450   6.741  15.774  11.546
39014W        W98451  13.139   8.324  10.540
39015W        W98452  20.765   5.922   1.309
39016W        W98453  27.004  26.599   0.783
39017W        W98454   5.228   2.928  11.966
39018W        W98455  37.398  27.455  13.348
39019W        W98456  18.167  21.568   0.755
39020W        W98457  22.079  16.306   5.739
39021W        W98458   7.690  35.579  13.317
39022W        W98459  22.192  15.761  10.016
39023W        W98460   1.959  28.522   3.782
39024W        W98461   4.205  33.954  14.772
39025W        W98462   7.845  37.376  10.506
39026W        W98463  10.728   1.448  13.501
39027W        W98464  35.410  44.262  13.526
39028W        W98465  32.997  21.233  10.601
39029W        W98466  19.134  12.164   1.313
39030W        W98467  35.031  43.271   4.333
39031W        W98468  12.836   4.414   3.685
39032W        W98469   7.678   0.800   0.748
39033W        W98470  35.594  29.527  14.440
39034W        W98471  37.389  36.431  11.018
39035W        W98472  32.412  14.339  10.960
39036W        W98473  26.199  16.254   1.862
39037W        W98474  17.257  37.505  13.061
39038W        W98475   9.193  12.785   1.255
39039W        W98476  34.043  31.525  11.443
39040W        W98477  30.428  19.540  14.506
39041W        W98478  43.469   5.410  13.043
39042W        W98479  23.096  38.545   3.653
39043W        W98480  12.740  37.469   3.845
39044W        W98481  23.225  22.520   3.369
39045W        W98482   9.764  41.879   3.716
39046W        W98483  11.338   2.398   3.207
39047W        W98484  42.923  20.133   4.691
39048W        W98485   7.671   6.805   0.447
39049W        W98486  28.470  11.649  13.985
39050W        W98487   9.665  36.964  13.411
39051W        W98488  17.307  44.830  13.522
39052W        W98489   1.776  33.591   4.140
39053W        W98490   7.815  15.297  11.375
39054W        W98491   9.393   5.310   3.332
39055W        W98492  36.900   4.268   1.339
39056W        W98493  29.611  29.502   1.777
39057W        W98494   3.792  16.733   3.173
39058W        W98495  44.344  28.548   3.650
39059W        W98496  13.207  39.901   3.656
39060W        W98497  26.616  13.736   5.086
39061W        W98498  43.973  23.021   1.411
39062W        W98499  34.962   7.824   2.395
39063W        W98500   3.772  24.703   3.302
39064W        W98501  33.498  39.454   1.860
39065W        W98502  21.244  23.605   2.835
39066W        W98503  38.044  31.575  13.489
39067W        W98504   1.791  14.329  12.936
39068W        W98505  18.159   5.204  12.967
39069W        W98506  21.209   2.226   0.310
39070W        W98507  14.643  21.554  13.374
39071W        W98508   5.689   0.977   1.337
39072W        W98509  44.296  23.607  12.365
39073W        W98510  21.099   7.228  12.507
39074W        W98511   3.920   9.338  14.988
39075W        W98512  36.547  23.015   4.772
39076W        W98513  19.120  31.034  13.423
39077W        W98514  12.706   6.768  11.869
39078W        W98515  31.600  38.987  11.464
39079W        W98516   8.349   4.944   1.773
39080W        W98517   4.852  14.648   1.764
39081W        W98518  23.206  13.114   3.861
39082W        W98519  32.477  39.434  12.893
39083W        W98520  31.055   3.442  13.026
39084W        W98521  25.574  13.140  12.867
39085W        W98522  29.078  38.962  12.478
39086W        W98523   4.943  40.997   1.271
39087W        W98524   6.823   7.220   2.892
39088W        W98525   2.735   8.310  11.065
39089W        W98526  32.961  28.095   0.943
39090W        W98527  12.814   8.192  12.827
39091W        W98528  23.999   7.181  13.870
39092W        W98529  23.139  13.266  11.981
39093W        W98530   8.669  31.064  13.821
39094W        W98531  32.929  42.886  11.054
39095W        W98532   5.267  28.125   0.833
39096W        W98533   7.314  23.661   3.362
39097W        W98534   6.298  18.084   0.909
39098W        W98535  23.199  43.277  14.973
39099W        W98536  20.590   5.430  12.500
39100W        W98537  29.034   1.757   4.336
39101W        W98538   2.424  40.356   0.840
39102W        W98539  35.558  11.808   0.470
39103W        W98540  44.890   0.756  12.358
39104W        W98541  39.842  18.569  13.392
39105W        W98542  39.941  38.836   1.294
39106W        W98543  10.187  43.289  11.907
39107W        W98544  22.169  12.740  11.097
39108W        W98545  16.630   5.721  13.836
39109W        W98546  21.246  35.861   2.370
39110W        W98547   1.359   7.188   2.262
39111W        W98548   0.319  42.826   3.818
39112W        W98549  39.355  35.013   3.374
39113W        W98550   5.696  18.758   3.726
39114W        W98551  35.915  22.501  14.008
39115W        W98552  42.312  20.028  13.307
39116W        W98553  22.669  32.429  14.429
39117W        W98554  41.977  16.166   2.675
39118W        W98555  35.468  20.610  13.868
39119W        W98556   4.224  37.471  14.766
39120W        W98557  13.299  30.132  11.006
39121W        W98558  28.966  28.002   3.148
39122W        W98559  44.355  41.965  11.423
39123W        W98560  30.591  15.135  14.783
39124W        W98561   9.659  13.185   4.123
39125W        W98562   6.251  29.430  12.863
39126W        W98563   9.225   0.465  13.051
39127W        W98564  25.040  43.449  11.502
39128W        W98565  38.045   0.974   1.415
39129W        W98566  41.998  39.967   2.405
39130W        W98567  27.174  22.652  11.017
39131W        W98568  44.006   9.348  14.476
39132W        W98569  28.608  44.890  12.045
39133W        W98570  11.194  17.709  10.422
39134W        W98571  27.056  20.223  10.988
39135W        W98572  28.971  44.397  12.074
39136W        W98573  10.251   2.749   3.851
39137W        W98574   5.374  31.007  11.447
39138W        W98575  18.664   8.846   2.211
39139W        W98576  19.097  24.057   3.636
39140W        W98577  28.561  36.504   2.380
39141W        W98578   2.928  26.130  10.490
39142W        W98579   1.828   5.709   2.359
39143W        W98580  20.728  12.294   2.326
39144W        W98581   3.352  21.261  10.549
39145W        W98582  18.656  18.691   0.415
39146W        W98583   8.833  11.351   0.846
39147W        W98584   7.798   1.325   0.963
39148W        W98585  36.029  44.797  12.451
39149W        W98586  19.187  42.367   2.214
39150W        W98587  34.053  20.744  10.907
39151W        W98588  12.613   0.468  12.834
39152W        W98589   7.209   8.752   4.132
39153W        W98590   8.694   9.746   1.722
39154W        W98591  23.110  41.875  14.796
39155W        W98592   4.303  28.082   4.281
39156W        W98593  31.607  35.526  12.993
39157W        W98594   0.346  10.873   3.863
39158W        W98595  11.800   6.379   2.680
39159W        W98596   9.277  30.512  14.302
39160W        W98597  36.014   2.408   1.809
39161W        W98598  40.859  22.518   3.358
39162W        W98599  27.562  22.561  10.467
39163W        W98600   4.757  15.177  11.390
39164W        W98601  29.588   2.288   0.757
39165W        W98602  32.120  11.789  12.422
39166W        W98603  39.904  39.459  12.905
39167W        W98604  28.443   7.224  12.366
39168W        W98605  42.849  34.555   4.339
39169W        W98606   3.344  14.206   4.120
39170W        W98607  21.554  23.606  10.432
39171W        W98608   0.783  23.650   3.291
39172W        W98609  36.390  19.764   1.343
39173W        W98610  30.076  18.075   4.218
39174W        W98611  41.464  35.591  14.324
39175W        W98612  42.879  33.906   3.277
39176W        W98613  30.531  10.288  12.894
39177W        W98614  30.459  38.066  13.404
39178W        W98615  20.269  36.547  13.939
39179W        W98616  23.148   3.314  11.577
39180W        W98617  15.207  12.703   1.760
39181W        W98618  36.893   6.280   4.241
39182W        W98619  39.538  28.011   4.213
39183W        W98620   7.671  13.148   2.313
39184W        W98621  38.877   3.446   0.803
39185W        W98622  44.980  23.003  14.890
39186W        W98623   9.649  14.770  12.366
39187W        W98624  38.553  16.158   3.710
39188W        W98625  34.550  18.626  13.917
39189W        W98626  35.072  14.232  14.812
39190W        W98627   2.422  30.433  13.836
39191W        W98628  44.933  43.807   3.217
39192W        W98629  38.819  44.290   4.299
39193W        W98630  11.666   2.310   2.336
39194W        W98631  28.096   0.858   0.320
39195W        W98632  19.176  11.654   2.386
39196W        W98633  38.559  34.002   1.768
39197W        W98634   2.764  34.872  14.864
39198W        W98635  23.519  35.437   4.231
39199W        W98636  12.154  21.674   2.415
39200W        W98637  35.894  36.995   4.828
39201W        W98638  24.094  33.948   3.764
39202W        W98639   2.852  24.532  11.073
39203W        W98640  27.514  27.145   4.786
39204W        W98641  12.202  34.609  11.863
39205W        W98642  44.296  40.928  12.371
39206W        W98643  37.368  16.608   2.788
39207W        W98644  11.645  39.896   1.232
39208W        W98645  21.687  28.616   0.909
39209W        W98646  21.551  24.567   0.469
39210W        W98647  14.283  16.754   0.812
39211W        W98648  31.466  28.064  14.784
39212W        W98649  14.324  10.182   5.192
39213W        W98650  40.885   4.299  14.910
39214W        W98651  18.663   2.898  11.499
39215W        W98652   0.295   6.841  14.830
39216W        W98653  29.154  12.784   9.527
39217W        W98654  14.626   6.327   3.698
39218W        W98655  14.594  21.221   2.316
39219W        W98656   4.873  15.803   5.093
39220W        W98657   4.745   1.832   3.210
39221W        W98658  35.486  39.028  13.970
39222W        W98659  26.186  11.776   1.720
39223W        W98660  24.564  36.420  10.899
39224W        W98661  44.481  31.997  12.485
39225W        W98662  36.538  33.618  12.880
39226W        W98663  25.084  42.847   3.710
39227W        W98664   7.374  39.916  13.350
39228W        W98665  39.955  24.990  11.479
39229W        W98666  37.436  12.707  14.858
39230W        W98667  19.082   3.918   1.253
39231W        W98668  43.458  34.440   4.744
39232W        W98669   3.861  39.333   0.362
39233W        W98670  29.067   0.793   4.757
39234W        W98671  11.295  22.542   3.754
39235W        W98672  43.293  35.938  13.889
39236W        W98673  28.521  42.456   1.281
39237W        W98674   2.810   7.195   0.761
39238W        W98675  34.428  15.790  11.405
39239W        W98676  40.008  23.019  10.544
39240W        W98677   8.384   7.291   2.746
39241W        W98678  21.195  30.493   2.689
39242W        W98679  43.905  20.751   4.640
39243W        W98680  14.330  38.897  12.563
39244W        W98681   9.781  28.017  11.124
39245W        W98682  19.661  12.726  10.411
39246W        W98683  24.504  30.973  11.575
39247W        W98684  12.735  41.028   3.147
39248W        W98685   4.339  39.031  14.940
39249W        W98686  12.359  27.180   4.629
39250W        W98687  24.590  30.027   1.252
39251W        W98688   5.819  16.133  14.502
39252W        W98689  11.260  36.956  10.466
39253W        W98690   4.330  11.758  12.856
39254W        W98691  18.149  14.793  14.461
39255W        W98692  20.244  19.739  12.347
39256W        W98693  15.662   6.704  13.527
39257W        W98694  42.485  32.485  14.940
39258W        W98695   9.332   1.414  14.964
39259W        W98696  10.231  23.541   1.325
39260W        W98697  22.698  37.021   0.956
39261W        W98698  20.526  41.354   4.795
39262W        W98699  32.910   9.210   1.833
39263W        W98700   0.337  14.709   4.147
39264W        W98701  15.254  37.005  10.891
39265W        W98702  27.150  43.002   2.328
39266W        W98703   2.803  41.516   0.810
39267W        W98704   5.756  28.660   1.392
39268W        W98705  12.360  20.216  12.578
39269W        W98706  22.180   3.434   0.862
39270W        W98707   3.411   5.330   0.833
39271W        W98708  25.602  43.807  11.871
39272W        W98709  30.472  34.563  14.400
39273W        W98710  41.989  25.114   3.375
39274W        W98711   6.866  26.982  12.988
39275W        W98712   0.276  18.128   3.209
39276W        W98713   6.347  26.480  11.079
39277W        W98714  37.070  15.822  14.370
39278W        W98715  39.053   7.736  12.446
39279W        W98716  17.089  21.744   3.341
39280W        W98717   9.229  27.157  14.824
39281W        W98718  29.621   1.753  11.069
39282W        W98719  14.801  16.247  11.076
39283W        W98720  17.264   9.195  11.893
39284W        W98721  34.540  42.855  13.451
39285W        W98722  18.125   5.904  12.888
39286W        W98723  18.735   0.335  14.998
39287W        W98724  36.982  16.239  13.337
39288W        W98725  28.130  28.655   0.243
39289W        W98726  22.125   0.758   1.269
39290W        W98727  22.635  42.385  11.400
39291W        W98728  12.294  19.755  14.416
39292W        W98729  12.353  27.965  10.889
39293W        W98730  35.457  32.537  12.876
39294W        W98731  37.404  14.202  11.949
39295W        W98732  34.054  20.557  12.990
39296W        W98733  26.605  31.521  11.890
39297W        W98734  26.951  19.648   4.615
39298W        W98735  39.952  39.473   2.685
39299W        W98736  19.563   1.387   4.203
39300W        W98737  17.174  14.339  11.522
39301W        W98738  23.604   3.375  12.499
39302W        W98739  40.971  10.856  13.916
39303W        W98740  26.628  29.017   1.354
39304W        W98741  43.343  41.494   3.361
39305W        W98742  13.805  33.442  12.428
39306W        W98743  10.664  34.609  12.416
39307W        W98744  34.539  44.342   0.333
39308W        W98745   9.385  19.175  11.395
39309W        W98746   9.328  26.661   4.165
39310W        W98747  22.167  34.448  12.020
39311W        W98748   8.824  36.018  14.497
39312W        W98749  36.439   6.392   4.627
39313W        W98750  14.255  17.198   4.188
39314W        W98751   9.257  31.099   2.700
39315W        W98752  24.525  19.546  14.802
39316W        W98753  11.203  43.895  10.446
39317W        W98754  12.780  17.292   4.712
39318W        W98755  27.483  12.213  14.397
39319W        W98756   9.728  25.657  14.991
39320W        W98757  38.403   1.317  12.556
39321W        W98758  36.530  31.547   0.447
39322W        W98759  43.444  27.649   4.747
39323W        W98760  14.166   2.460  13.352
39324W        W98761  28.447  17.588   1.414
39325W        W98762  25.522  44.889  11.058
39326W        W98763  10.206  25.197  14.390
39327W        W98764  34.409  27.536  14.412
39328W        W98765   1.816  44.760  13.978
39329W        W98766  15.117  41.802   4.631
39330W        W98767  41.941  30.050  12.372
39331W        W98768  37.448  40.401  10.575
39332W        W98769  37.978  43.321   2.837
39333W        W98770  15.256   5.770  14.783
39334W        W98771   7.222  33.503   2.746
39335W        W98772  14.157  42.030   3.658
39336W        W98773  20.264  35.545  12.369
39337W        W98774  35.029  19.609   4.735
39338W        W98775  23.652  20.680   3.659
39339W        W98776  15.788  12.267  14.900
39340W        W98777  39.883  13.761  14.864
39341W        W98778  36.902  39.520   0.766
39342W        W98779  21.158   2.749  14.020
39343W        W98780  39.971  17.227  12.965
39344W        W98781  14.333   5.388   4.829
39345W        W98782   5.879  43.889   2.354
39346W        W98783  19.207  30.101   3.656
39347W        W98784   6.244  33.877   2.725
39348W        W98785  29.595   0.841   0.896
39349W        W98786  27.951  41.525  13.373
39350W        W98787  44.396  41.527  13.906
39351W        W98788  35.103   9.353  11.924
39352W        W98789  16.278  26.103   3.167
39353W        W98790  10.828  32.626  14.481
39354W        W98791   4.212  35.886  10.563
39355W        W98792  25.114  36.074  14.440
39356W        W98793  23.175  41.305   5.250
39357W        W98794  25.624  30.032  11.420
39358W        W98795  19.131  11.220  13.852
39359W        W98796  36.481  21.046   0.911
39360W        W98797   8.287  28.660  10.458
39361W        W98798   9.393  41.889  11.071
39362W        W98799  35.956  24.037   0.383
39363W        W98800   7.180   5.201   4.723
39364W        W98801   7.271  27.163   5.253
39365W        W98802  40.889  13.329   3.710
39366W        W98803  30.553  15.773  11.504
39367W        W98804   3.413  25.113  10.628
39368W        W98805  30.920  18.759   4.625
39369W        W98806  19.550   9.664   4.335
39370W        W98807  24.536  35.021  13.820
39371W        W98808  38.023  40.991   2.233
39372W        W98809  13.310  26.524   3.850
39373W        W98810   8.815  35.489   2.840
39374W        W98811  26.972   5.696   0.950
39375W        W98812  18.746  44.762  13.955
39376W        W98813  23.173   5.804   0.417
39377W        W98814  11.706  31.099   3.765
39378W        W98815  31.505  13.744  13.049
39379W        W98816  11.256  32.633   1.756
39380W        W98817  18.079  34.528   1.418
39381W        W98818  35.586  25.666   3.178
39382W        W98819   5.407  31.550   1.310
39383W        W98820   8.895  15.655  11.594
39384W        W98821  37.833   4.739   0.334
39385W        W98822  44.008  44.329  12.898
39386W        W98823  16.793  16.581  14.426
39387W        W98824  23.528  22.596  11.379
39388W        W98825   9.855  24.055  11.940
39389W        W98826  34.580   4.881   2.267
39390W        W98827  10.838  17.704  13.337
39391W        W98828  18.093  38.075  13.937
39392W        W98829  42.452  44.348   2.673
39393W        W98830  22.726  27.630   4.291
39394W        W98831  13.257   0.940   2.819
39395W        W98832  10.781  20.238  14.839
39396W        W98833  30.485  22.074  14.344
39397W        W98834  42.993   9.854  13.399
39398W        W98835  38.499   1.378   3.707
39399W        W98836  35.897  13.195   1.232
39400W        W98837  20.551  44.479  13.409
39401W        W98838   9.695   6.818   3.814
39402W        W98839  40.504   1.807  13.324
39403W        W98840  32.050   8.783  13.054
39404W        W98841  44.380   2.790  13.822
39405W        W98842   6.377   0.377  13.007
39406W        W98843  25.639   1.412  12.014
39407W        W98844  26.472  32.020   4.120
39408W        W98845  42.314  18.791  12.365
39409W        W98846  29.930   7.887  10.534
39410W        W98847  27.641  34.394  12.384
39411W        W98848  40.506   8.829  14.399
39412W        W98849   7.269  30.467  12.556
39413W        W98850  31.104  29.613  11.519
39414W        W98851  19.130  26.136   0.843
39415W        W98852  36.955  36.520  14.020
39416W        W98853  23.576  18.095  12.031
39417W        W98854  39.498  35.995  13.509
39418W        W98855  36.868   0.797   0.258
39419W        W98856  32.626  33.015  11.969
39420W        W98857  26.062  23.608   0.340
39421W        W98858  44.448  19.559   1.864
39422W        W98859  39.966   3.398   2.340
39423W        W98860  16.173   7.341  13.850
39424W        W98861  36.865   5.420   0.942
39425W        W98862  38.068  25.624   1.855
39426W        W98863  33.921  18.642   4.767
39427W        W98864   2.823  14.774   2.302
39428W        W98865  25.632   9.732  11.531
39429W        W98866  11.667  34.478  14.464
39430W        W98867   7.834  29.628  11.878
39431W        W98868  27.483  36.897  14.947
39432W        W98869  37.489  11.141  13.997
39433W        W98870  23.692  11.280  11.940
39434W        W98871  24.178  29.647  11.442
39435W        W98872   2.316   2.957   4.273
39436W        W98873  19.215  19.743   0.352
39437W        W98874  44.431  28.636  13.494
39438W        W98875   6.219  42.908  12.466
39439W        W98876  25.519  17.684  13.908
39440W        W98877  11.831  31.073   2.825
39441W        W98878  36.065  23.529   1.840
39442W        W98879  17.669  16.229   1.224
39443W        W98880   7.210   5.861  11.124
39444W        W98881  24.042  30.016   0.451
39445W        W98882  30.938  28.054   1.369
39446W        W98883  26.682   4.358  13.062
39447W        W98884  23.586  11.808   1.425
39448W        W98885   5.874  22.201   0.868
39449W        W98886  26.465  38.868   2.347
39450W        W98887  30.015   5.288   2.214
39451W        W98888  20.565  17.121   1.695
39452W        W98889  39.529  38.852   1.369
39453W        W98890  21.688  12.136   0.266
39454W        W98891  31.444  29.093   3.632
39455W        W98892   9.661  10.688  12.044
39456W        W98893  20.587  34.887  10.996
39457W        W98894   0.921  14.287  13.801
39458W        W98895  16.620  43.514   4.130
39459W        W98896   1.358  20.737  10.578
39460W        W98897   5.327   3.831   0.379
39461W        W98898  29.128  19.667   4.324
39462W        W98899  41.524   7.880  11.047
39463W        W98900   6.412  34.574   2.844
39464W        W98901  37.020  38.330  11.488
39465W        W98902  26.077  31.475   1.309
39466W        W98903  18.626  17.191   2.198
39467W        W98904   0.924  11.681   3.676
39468W        W98905  28.184  16.149   1.357
39469W        W98906   0.456  27.071   2.289
39470W        W98907   0.856  22.129  10.923
39471W        W98908   3.904   5.899  12.887
39472W        W98909   1.371  10.239   2.355
39473W        W98910  24.661   8.244  11.955
39474W        W98911   7.393  37.382   2.740
39475W        W98912  22.590  11.180  11.108
39476W        W98913  40.426  44.896   2.667
39477W        W98914   1.447  14.308   5.107
39478W        W98915  27.970  39.883  10.597
39479W        W98916  42.361  33.495  10.474
39480W        W98917  30.472  23.704  14.933
39481W        W98918   8.865  30.523  10.629
39482W        W98919  31.117   0.983   1.270
39483W        W98920  35.012  43.461  14.380
39484W        W98921  21.679  27.098   4.752
39485W        W98922  33.458  12.665   0.475
39486W        W98923  12.723   5.344   4.623
39487W        W98924  13.268  30.453   0.848
39488W        W98925  12.148  25.585   4.254
39489W        W98926  33.544  14.822   9.933
39490W        W98927  43.446  27.185  12.351
39491W        W98928  16.092  38.354  14.343
39492W        W98929  27.552  34.460  13.888
39493W        W98930  16.132  31.469   3.663
39494W        W98931  23.631  44.947  13.947
39495W        W98932   7.786   7.769   3.662
39496W        W98933  23.136  16.114   5.310
39497W        W98934  40.908  34.941  14.906
39498W        W98935   3.332   9.166   0.348
39499W        W98936  27.478   6.302   4.131
39500W        W98937  28.550  35.556   3.813
39501W        W98938   3.823  37.504  14.422
39502W        W98939  36.570  29.459   1.343
39503W        W98940  42.905   4.435  10.085
39504W        W98941  32.921  43.863   4.244
39505W        W98942  12.817  15.627  11.944
39506W        W98943   5.883  32.596  14.281
39507W        W98944  24.161  10.353  12.917
39508W        W98945   6.691   7.319  10.624
39509W        W98946  19.645  38.844  10.570
39510W        W98947   6.408  29.466   2.206
39511W        W98948   3.307   1.901  11.122
39512W        W98949  11.345  18.589  14.376
39513W        W98950  16.291  24.569  12.990
39514W        W98951  10.745  18.108  12.082
39515W        W98952  22.224  35.964  14.953
39516W        W98953  21.712  13.328  14.977
39517W        W98954  22.526  22.622  13.468
39518W        W98955  20.041   2.361   3.307
39519W        W98956  10.383  15.697  12.447
39520W        W98957  41.004  17.693  12.002
39521W        W98958  30.948  17.258   2.196
39522W        W98959  32.057  19.054  13.006
39523W        W98960  12.154  40.041  12.971
39524W        W98961  25.103  26.180   0.831
39525W        W98962  43.948  11.311  10.006
39526W        W98963  14.194  37.385  11.613
39527W        W98964   2.865  18.607   2.308
39528W        W98965  35.467  42.823  12.564
39529W        W98966  38.899  43.804   4.203
39530W        W98967  13.801   5.256   3.725
39531W        W98968  16.185  23.735  11.434
39532W        W98969  18.055   0.303   1.806
39533W        W98970  22.705  29.478  14.291
39534W        W98971  12.619   0.891   3.764
39535W        W98972   3.745  29.445   3.291
39536W        W98973  20.716  32.907  12.493
39537W        W98974   4.887  31.590  10.145
39538W        W98975  18.728  37.543   3.311
39539W        W98976  42.876  10.745  12.558
39540W        W98977  15.649  44.959  10.600
39541W        W98978   5.813  15.749  13.880
39542W        W98979   5.721  27.155   4.292
39543W        W98980   4.852  25.610  12.439
39544W        W98981  43.810  43.849   3.675
39545W        W98982  32.005  32.929   2.743
39546W        W98983  38.040   5.332  11.074
39547W        W98984   6.815  15.158  10.515
39548W        W98985   0.301  41.400   4.678
39549W        W98986  33.526  31.616  14.332
39550W        W98987  22.719  17.724   2.798
39551W        W98988  34.412   7.862  13.904
39552W        W98989  37.516  16.294   2.709
39553W        W98990  27.000  16.163  12.078
39554W        W98991  20.209  30.590   0.825
39555W        W98992  41.029  22.219   4.315
39556W        W98993  21.079  23.226  11.547
39557W        W98994  20.721   6.193  12.367
39558W        W98995   1.476   4.918   3.660
39559W        W98996  15.683  31.643  14.022
39560W        W98997   3.321  30.117  11.003
39561W        W98998  28.465  26.973  11.916
39562W        W98999  25.677   1.943   3.252
39563W        W99000   5.912  12.149   2.780
39564W        W99001  44.010  16.602   1.742
39565W        W99002   1.956  34.901   0.438
39566W        W99003   8.678  24.680  14.338
39567W        W99004  18.744  13.614  11.898
39568W        W99005  39.943  30.082  11.484
39569W        W99006  29.166  16.191   2.184
39570W        W99007  30.547  15.800  11.995
39571W        W99008  42.863  12.753   0.836
39572W        W99009  12.161  42.936  11.115
39573W        W99010  16.666   8.715   4.669
39574W        W99011  24.621  36.552  14.862
39575W        W99012  12.765  43.408  13.418
39576W        W99013  25.992  29.117   2.767
39577W        W99014   2.281  33.541  14.909
39578W        W99015  28.101  38.904   3.700
39579W        W99016   0.338  13.622  12.024
39580W        W99017  30.048   1.374  12.342
39581W        W99018   0.899  13.190  14.338
39582W        W99019  17.227  35.948   4.274
39583W        W99020   5.693  26.552  13.804
39584W        W99021   4.943  10.694   0.834
39585W        W99022   8.694  35.085  14.323
39586W        W99023  23.549  29.015   2.237
39587W        W99024  37.341   8.230   3.797
39588W        W99025  14.103  31.416  12.934
39589W        W99026  20.103  13.347   2.888
39590W        W99027   5.921  22.089  11.992
39591W        W99028  13.267  27.985   2.845
39592W        W99029  18.294  26.653   2.842
39593W        W99030  22.038  35.917   4.795
39594W        W99031   1.350  10.748   0.308
39595W        W99032  33.983  11.826  14.850
39596W        W99033  39.834   2.302   3.338
39597W        W99034  13.119  37.903  14.506
39598W        W99035  26.186  13.702  12.993
39599W        W99036   0.408   3.341  10.998
39600W        W99037   6.738  10.204  11.085
39601W        W99038   0.352  36.908  12.550
39602W        W99039  31.151  14.301  13.862
39603W        W99040  41.469  18.614  12.029
39604W        W99041  24.565  28.635   0.848
39605W        W99042   8.858   4.325  13.398
39606W        W99043  27.623   5.408   0.315
39607W        W99044  17.681  16.204   2.304
39608W        W99045   7.350  21.137   2.813
39609W        W99046  40.917  13.802   0.829
39610W        W99047  25.962   6.352  10.617
39611W        W99048  25.155  41.292  11.574
39612W        W99049   6.865  21.573  11.468
39613W        W99050  17.798  44.986   2.344
39614W        W99051  39.917   8.747  13.899
39615W        W99052  40.926  29.011   0.357
39616W        W99053  31.426  38.842  10.480
39617W        W99054  10.359  19.581  12.094
39618W        W99055   2.898  10.305   2.723
39619W        W99056  23.679  16.751  14.283
39620W        W99057  37.531  30.976   2.872
39621W        W99058  29.477   2.761  13.879
39622W        W99059  10.369  30.034   3.833
39623W        W99060  31.918   1.770  11.447
39624W        W99061  10.220  42.945  11.468
39625W        W99062  37.543  36.911   4.138
39626W        W99063  20.640  20.247   4.654
39627W        W99064  12.173   6.811  14.812
39628W        W99065  14.674  17.667   4.245
39629W        W99066   9.215  14.162  13.996
39630W        W99067  30.053  23.582   2.370
39631W        W99068  30.526  21.609   4.836
39632W        W99069  40.924  30.978   0.799
39633W        W99070  38.566  33.023   2.855
39634W        W99071  32.400  21.260   1.732
39635W        W99072  14.754  26.493  10.543
39636W        W99073  27.997  29.513  14.307
39637W        W99074  35.988   7.366   2.349
39638W        W99075  31.122  35.023   5.234
39639W        W99076  31.575  37.458   2.404
39640W        W99077   7.789  33.535  14.400
39641W        W99078   2.442  29.122  11.378
39642W        W99079  36.865   7.333   2.705
39643W        W99080   3.710  41.980  12.949
39644W        W99081  37.978  26.135   1.397
39645W        W99082  28.467  40.402  12.090
39646W        W99083  25.476   0.262   0.810
39647W        W99084  13.781  18.213   3.265
39648W        W99085  42.918  38.066  12.503
39649W        W99086  40.851  42.288  10.625
39650W        W99087  40.912  38.932  10.992
39651W        W99088  15.763  33.548  11.039
39652W        W99089  29.133   9.854   0.382
39653W        W99090  28.023  41.976  13.795
39654W        W99091  32.938  13.671  14.389
39655W        W99092  23.037  23.228  12.925
39656W        W99093  33.005  20.719   9.936
39657W        W99094  17.152  20.041  11.875
39658W        W99095   8.871  27.582   3.296
39659W        W99096  40.540  30.915   1.368
39660W        W99097  36.066  32.600  10.474
39661W        W99098  32.417   2.324   2.197
39662W        W99099  14.711  27.147  10.462
39663W        W99100  32.915  11.813  14.419
39664W        W99101  18.680  35.479  10.510
39665W        W99102   6.788   5.762   1.326
39666W        W99103   1.825   2.304  11.888
39667W        W99104  21.679  15.694   4.665
39668W        W99105  10.842  24.066  13.367
39669W        W99106   9.252  30.651   4.725
39670W        W99107  11.313  34.932  14.508
39671W        W99108  29.641  30.096   3.148
39672W        W99109  15.655  17.091   2.763
39673W        W99110  43.329  31.586  12.559
39674W        W99111  34.116  44.785  12.457
39675W        W99112  43.460  30.118   4.768
39676W        W99113   3.287  10.221   1.421
39677W        W99114  14.247  23.027  11.062
39678W        W99115  33.022  35.470  14.944
39679W        W99116   4.730  21.614   2.813
39680W        W99117  28.460  43.316   3.668
39681W        W99118  42.509  11.691   2.668
39682W        W99119  39.997   6.406  14.437
39683W        W99120  15.203  42.924   1.396
39684W        W99121  39.904  14.823   2.774
39685W        W99122  24.577  17.777   3.817
39686W        W99123   6.723  28.513   0.417
39687W        W99124  25.148  23.191  11.414
39688W        W99125  12.236  44.767  11.079
39689W        W99126  24.624   6.793   1.358
39690W        W99127   5.777   1.760   3.287
39691W        W99128   3.771  13.759  14.472
39692W        W99129  38.895  20.159   2.835
39693W        W99130  30.638   6.328  10.446
39694W        W99131  15.301  20.733  10.477
39695W        W99132   9.340  35.965   4.621
39696W        W99133  12.287  14.825   2.728
39697W        W99134  35.921  13.651  13.818
39698W        W99135  26.126  36.910  11.976
39699W        W99136  15.649  28.105  13.338
39700W        W99137  31.992  41.879   3.148
39701W        W99138  42.791  33.625   2.250
39702W        W99139  22.180   4.766   1.223
39703W        W99140  28.185  41.381  12.431
39704W        W99141  17.629  40.874  14.487
39705W        W99142  20.686   7.253   2.240
39706W        W99143  30.925  33.876   1.427
39707W        W99144  10.344   9.718  10.927
39708W        W99145   7.773  44.772   3.786
39709W        W99146  35.578   5.336   4.668
39710W        W99147  11.367  13.718   4.300
39711W        W99148   4.351   2.364  14.959
39712W        W99149  28.532  32.548   0.836
39713W        W99150  30.594  18.264   2.818
39714W        W99151  10.365   8.256  11.420
39715W        W99152  25.596  28.471   0.740
39716W        W99153  13.770  38.993   3.380
39717W        W99154   8.363  28.023  11.862
39718W        W99155  42.297  34.443   0.938
39719W        W99156  34.893   7.352  14.510
39720W        W99157  32.040  38.543  13.839
39721W        W99158  30.500  39.026  10.902
39722W        W99159  27.134  30.481  11.977
39723W        W99160  42.007  14.278  11.975
39724W        W99161   8.317  22.655  12.889
39725W        W99162  37.905  33.937  11.105
39726W        W99163  44.882  41.938   4.140
39727W        W99164  32.423  36.559   1.296
39728W        W99165  33.517  44.323   4.743
39729W        W99166  44.936  38.833   4.343
39730W        W99167   7.409  12.827  11.482
39731W        W99168   5.209  27.624  13.999
39732W        W99169   6.306  35.491   4.658
39733W        W99170   2.729  22.181  11.564
39734W        W99171  13.209  43.779   1.753
39735W        W99172  16.218   4.344  10.561
39736W        W99173   5.831  25.143   1.401
39737W        W99174  43.967  33.881   0.765
39738W        W99175   9.386  13.711  14.759
39739W        W99176  18.656  43.940   3.343
39740W        W99177   7.878  33.935   3.166
39741W        W99178  40.371  22.733  10.571
39742W        W99179  21.205  28.476  10.951
39743W        W99180  15.790  29.660   5.094
39744W        W99181   4.404  26.464   1.264
39745W        W99182   8.300  25.978  10.910
39746W        W99183  36.572  24.038  13.791
39747W        W99184  31.465  19.230   3.308
39748W        W99185  32.125  29.488  14.767
39749W        W99186   3.369  29.062   1.309
39750W        W99187  20.167  13.250  11.048
39751W        W99188  14.179   2.265  12.857
39752W        W99189  34.448  42.427   4.286
39753W        W99190   9.315  31.120  14.297
39754W        W99191   8.302  14.627   3.237
39755W        W99192  11.785   7.265   0.790
39756W        W99193  43.491  33.980  12.492
39757W        W99194  41.400  17.139   2.299
39758W        W99195  19.638  36.591   2.684
39759W        W99196  41.008  36.032  13.326
39760W        W99197  30.446  40.463   2.752
39761W        W99198   1.320  39.399   1.787
39762W        W99199  42.880  10.714  11.950
39763W        W99200  20.115  21.653   4.326
39764W        W99201  21.704  36.430   3.821
39765W        W99202  19.135  44.817  11.005
39766W        W99203  24.723  25.155  13.536
39767W        W99204  42.449  25.530  13.941
39768W        W99205   4.394  15.578  14.397
39769W        W99206  16.797  44.382  13.385
39770W        W99207  22.653  43.857  14.798
39771W        W99208   0.299  43.332   3.703
39772W        W99209  29.957  38.515   4.301
39773W        W99210  41.855  34.607  11.960
39774W        W99211  27.497  38.431  12.522
39775W        W99212  41.009  24.504  14.382
39776W        W99213  22.118  21.202   5.316
39777W        W99214   2.755  24.170   0.390
39778W        W99215  17.068  26.965  13.961
39779W        W99216  30.589  41.011   5.230
39780W        W99217  30.064  14.193  11.909
39781W        W99218  12.363  20.645  12.886
39782W        W99219  43.812  34.915  14.763
39783W        W99220  14.176   2.825  12.437
39784W        W99221  13.316  28.174  13.359
39785W        W99222   7.886  44.810   0.943
39786W        W99223   8.390   2.926  12.983
39787W        W99224  15.295   8.394  12.408
39788W        W99225  35.412  30.111  13.807
39789W        W99226   7.228  40.333  13.473
39790W        W99227  26.671  44.272   4.619
39791W        W99228  17.645   8.716  11.402
39792W        W99229   7.878   4.311   0.891
39793W        W99230  34.390   0.779  11.071
39794W        W99231  41.956  21.560  11.932
39795W        W99232  11.302  41.399   0.921
39796W        W99233  30.608   5.689  11.384
39797W        W99234  39.381   6.208  14.346
39798W        W99235  10.636   7.900   2.188
39799W        W99236   0.951   8.362  12.940
39800W        W99237   0.423   9.818   5.173
39801W        W99238  14.826  35.072  14.309
39802W        W99239  13.125  29.604   1.893
39803W        W99240  29.630   6.209  12.001
39804W        W99241  25.095   3.456  13.316
39805W        W99242  31.476  25.088   3.224
39806W        W99243  12.147  32.091   4.736
39807W        W99244  27.526  22.062   2.239
39808W        W99245  31.941  18.682  12.911
39809W        W99246  30.564  24.990   0.944
39810W        W99247  37.069  44.852   1.812
39811W        W99248  19.736  35.092  10.462
39812W        W99249   0.799   9.297   4.134
39813W        W99250  43.319  34.520  13.794
39814W        W99251   0.392   6.708  12.340
39815W        W99252   8.885  13.352  10.412
39816W        W99253   3.750  24.988   3.735
39817W        W99254   6.903  13.236   1.233
39818W        W99255  38.819  26.478   4.740
39819W        W99256  23.506  35.076   0.476
39820W        W99257  12.143   0.467   1.441
39821W        W99258  36.885  32.578   0.421
39822W        W99259  28.544  32.067   1.924
39823W        W99260  40.893  42.381   2.854
39824W        W99261  12.120  17.153   3.804
39825W        W99262   3.306  37.033  14.887
39826W        W99263  42.007  22.112   4.315
39827W        W99264  15.709  13.749  10.443
39828W        W99265  19.201  34.916   4.613
39829W        W99266   3.804  24.164  10.954
39830W        W99267  43.959  37.881  13.795
39831W        W99268  41.950  29.127  10.423
39832W        W99269  12.747   2.430  10.406
39833W        W99270   5.886   2.911  11.378
39834W        W99271   7.318  28.982  11.913
39835W        W99272   0.830  44.885   0.802
39836W        W99273  18.609   8.172   0.820
39837W        W99274  25.037  33.893   2.701
39838W        W99275  19.605  14.827   3.831
39839W        W99276   7.669  39.425  10.448
39840W        W99277  15.309  27.686  13.888
39841W        W99278  27.088   7.311   0.434
39842W        W99279   2.725  16.079   4.662
39843W        W99280   0.791  24.167  13.350
39844W        W99281  32.974  10.221   2.666
39845W        W99282   2.939  12.768   2.365
39846W        W99283  10.768  36.578   3.301
39847W        W99284  20.230  18.589   3.148
39848W        W99285  25.544  34.946  10.461
39849W        W99286  32.933  24.707   3.726
39850W        W99287  22.634  15.110   2.815
39851W        W99288   3.789  43.021  11.380
39852W        W99289   2.367   9.218  12.579
39853W        W99290  34.000  23.992   9.459
39854W        W99291  28.137  31.455  14.498
39855W        W99292  41.296  33.574   1.771
39856W        W99293  40.333  31.966  14.448
39857W        W99294  18.296  20.217  13.378
39858W        W99295  33.483  10.299   4.649
39859W        W99296   3.215  40.806   3.651
39860W        W99297  39.926  25.659   0.771
39861W        W99298  36.473  33.390  12.423
39862W        W99299  15.190  39.393   1.694
39863W        W99300   6.739  16.113  10.608
39864W        W99301  31.990  15.601  13.359
39865W        W99302  16.266  31.132   0.928
39866W        W99303  17.711  36.447   4.296
39867W        W99304  23.575  21.131   1.734
39868W        W99305  14.660  34.971   4.749
39869W        W99306  35.370   4.253   3.780
39870W        W99307  33.896  11.342  11.371
39871W        W99308  10.294  40.019  13.802
39872W        W99309  33.418  43.841  13.483
39873W        W99310  10.178  10.340  12.996
39874W        W99311  20.238  24.228   1.835
39875W        W99312  28.597   3.297   5.215
39876W        W99313  43.968  39.862  12.378
39877W        W99314  12.767   3.888   4.754
39878W        W99315  31.950  15.200  10.462
39879W        W99316  23.663   2.923  12.384
39880W        W99317  20.106  11.262   1.778
39881W        W99318  39.460  43.473  13.545
39882W        W99319  16.121  34.063  12.557
39883W        W99320   6.917   8.333   4.763
39884W        W99321   5.891  18.272  11.112
39885W        W99322   3.827  31.495   0.803
39886W        W99323  41.347  41.398   3.680
39887W        W99324  34.526  19.108   0.296
39888W        W99325  21.163  24.065   0.245
39889W        W99326  18.059  14.335  12.351
39890W        W99327   0.335  33.553   3.810
39891W        W99328  27.516  13.833  14.511
39892W        W99329  22.212   9.226  14.442
39893W        W99330  39.030  28.140   2.255
39894W        W99331  22.134  42.476   2.391
39895W        W99332  23.638  22.087  12.999
39896W        W99333  22.723  29.640  10.116
39897W        W99334   3.282  30.999  11.574
39898W        W99335  32.942  37.372   1.768
39899W        W99336  15.269  11.829   0.918
39900W        W99337  35.947  14.113  10.916
39901W        W99338  26.686  33.896   1.278
39902W        W99339  22.122  28.618  11.488
39903W        W99340  34.604  21.038  10.493
39904W        W99341   7.191   9.248  10.929
39905W        W99342   4.284  24.134   1.331
39906W        W99343   7.320  15.623  12.970
39907W        W99344  15.302   3.278   2.399
39908W        W99345  12.216  11.767  14.932
39909W        W99346   5.194  13.234  13.479
39910W        W99347  43.371  44.292  13.008
39911W        W99348  31.135  38.918  13.055
39912W        W99349  28.131   4.854  10.961
39913W        W99350  14.234  25.014  11.033
39914W        W99351   3.921  36.422   1.311
39915W        W99352  43.884  41.427  14.875
39916W        W99353  43.820  38.972  14.938
39917W        W99354  44.312   2.814  10.612
39918W        W99355  20.528  20.543  10.083
39919W        W99356  35.989  41.904  12.010
39920W        W99357   4.723   8.329  12.999
39921W        W99358   3.386   1.442  10.413
39922W        W99359   8.679  31.036   3.298
39923W        W99360  10.226  19.652   4.131
39924W        W99361  28.526   6.276  11.483
39925W        W99362  14.258  18.693   2.336
39926W        W99363  22.179  23.089   1.744
39927W        W99364  40.354  41.487   4.280
39928W        W99365   7.722  30.520   0.436
39929W        W99366  26.673  13.714   2.663
39930W        W99367  14.628  27.503  14.926
39931W        W99368   4.211  11.367  14.921
39932W        W99369  28.565  27.593   2.374
39933W        W99370  43.448  34.864  12.439
39934W        W99371  14.210  43.305  13.954
39935W        W99372  38.031  30.951  13.924
39936W        W99373  23.540  22.024  14.398
39937W        W99374  30.027   5.836  13.038
39938W        W99375   3.799  27.520   0.346
39939W        W99376  42.988   3.441  11.861
39940W        W99377  36.020  11.667  12.831
39941W        W99378  41.867  40.883   3.824
39942W        W99379   4.740  22.075   0.480
39943W        W99380  42.412   0.417  10.570
39944W        W99381  22.593  34.463   0.387
39945W        W99382   0.491  20.711   3.739
39946W        W99383  12.237  42.402   4.769
39947W        W99384  25.475  31.402   3.328
39948W        W99385  34.406  20.604  13.822
39949W        W99386  14.206  44.949   1.441
39950W        W99387  24.622  30.636   4.793
39951W        W99388   4.208  10.179  12.356
39952W        W99389  11.366   7.740   0.736
39953W        W99390  41.350  24.999   0.434
39954W        W99391  21.112  14.829  13.336
39955W        W99392  41.495  34.423   0.967
39956W        W99393   7.229  21.606  13.843
39957W        W99394  11.674  30.929  14.891
39958W        W99395  30.011  34.092  10.584
39959W        W99396  13.789  28.169  14.338
39960W        W99397  44.495   4.705   4.278
39961W        W99398  22.528  13.141  12.541
39962W        W99399  37.408   4.758  13.007
39963W        W99400   1.935  40.836  14.858
39964W        W99401   3.218   7.809  14.975
39965W        W99402  26.459  40.932   2.748
39966W        W99403  15.103  11.148  11.048
39967W        W99404  43.299   3.910  11.543
39968W        W99405  14.095  43.952   5.185
39969W        W99406  35.419  30.526   1.363
39970W        W99407   7.265  21.137  12.879
39971W        W99408  27.668  22.008   2.890
39972W        W99409  43.402  30.644   2.374
39973W        W99410   2.426   6.857  13.536
39974W        W99411  32.454  27.024   4.681
39975W        W99412  41.458  14.308   4.663
39976W        W99413  15.766  23.238   1.781
39977W        W99414  16.218   2.731  13.428
39978W        W99415  21.058  38.561   3.213
39979W        W99416   1.412  31.135  10.573
39980W        W99417  26.979  28.162  11.016
39981W        W99418  36.951  14.169  13.055
39982W        W99419  14.094   2.725  14.459
39983W        W99420  44.465   2.472  11.055
39984W        W99421  32.911  26.672   0.328
39985W        W99422  13.789   4.784   4.712
39986W        W99423  15.708  10.152   2.697
39987W        W99424  32.616  35.074   1.726
39988W        W99425   2.265  28.169  11.860
39989W        W99426  42.469  33.920  13.865
39990W        W99427  32.569  38.819   1.424
39991W        W99428  31.986  31.440  13.497
39992W        W99429  11.799  10.250   1.313
39993W        W99430  41.306  34.607   4.180
39994W        W99431   2.385  15.796  10.621
39995W        W99432  20.686  37.414  14.906
39996W        W99433  11.712  18.633   1.698
39997W        W99434  28.475  18.689  10.498
39998W        W99435  16.571  19.544  14.507
39999W        W99436  39.376  29.532  10.894
40000W        W99437  30.034   6.702  12.545
40001W        W99438  14.180  23.555  13.900
40002W        W99439  12.685   0.308  13.899
40003W        W99440  30.938  39.950   2.312
40004W        W99441  14.278  24.678   3.788
40005W        W99442   7.844   1.423   3.694
40006W        W99443  30.938  16.110   3.310
40007W        W99444  10.687   1.275  14.010
40008W        W99445  30.000  18.699   2.415
40009W        W99446  15.313  11.772  12.024
40010W        W99447  38.995  12.793   2.888
40011W        W99448  13.122  35.860   5.305
40012W        W99449  44.783  12.157   3.814
40013W        W99450  19.276  15.669   9.536
40014W        W99451  20.588  36.884   4.684
40015W        W99452  22.538   1.312  13.427
40016W        W99453  21.256  21.058  12.933
40017W        W99454   6.792  23.546   4.155
40018W        W99455  14.261  23.715  10.622
40019W        W99456  43.765  33.938   1.748
40020W        W99457  29.044  43.293  10.413
40021W        W99458   9.811  29.080   4.783
40022W        W99459   7.739   0.356  11.949
40023W        W99460  36.410   7.357  13.389
40024W        W99461  28.972  20.224   0.403
40025W        W99462  13.844  28.006  14.920
40026W        W99463   2.297  25.103   2.221
40027W        W99464   3.305  20.201  10.564
40028W        W99465   3.829   1.739  12.984
40029W        W99466  33.560  33.500   4.233
40030W        W99467  22.717  27.544  12.507
40031W        W99468  16.593   4.220   0.294
40032W        W99469  15.155  17.734  12.039
40033W        W99470  37.534  40.884   1.292
40034W        W99471   6.776  21.020  11.048
40035W        W99472   3.438   0.484  10.428
40036W        W99473  18.783   3.423   3.658
40037W        W99474  25.475  38.999   0.833
40038W        W99475   6.913  41.937  13.340
40039W        W99476  41.292  15.593   3.282
40040W        W99477  22.207  36.402   1.399
40041W        W99478  32.911   5.789  13.036
40042W        W99479  16.073  13.614  14.406
40043W        W99480  36.053  44.325   3.148
40044W        W99481  35.430  15.809  14.912
40045W        W99482  34.870   5.269   3.343
40046W        W99483  19.740  29.630   0.356
40047W        W99484  44.385  19.574   4.713
40048W        W99485  39.008  17.276  14.333
40049W        W99486  31.087   5.818  10.974
40050W        W99487  19.683  22.195   3.315
40051W        W99488  29.920  14.758   3.193
40052W        W99489  25.528  10.192  14.896
40053W        W99490  38.046   5.220  12.347
40054W        W99491  15.661  14.613  13.402
40055W        W99492  36.085  15.603   1.858
40056W        W99493  18.173  24.093  14.447
40057W        W99494  39.328   2.406  14.880
40058W        W99495  11.334  20.761  13.014
40059W        W99496  24.230   4.732  11.018
40060W        W99497  14.100  44.325   3.811
40061W        W99498  31.126  23.189  14.334
40062W        W99499  22.999  23.043   2.316
40063W        W99500  11.305  25.082   0.382
40064W        W99501   1.854   9.198   3.790
40065W        W99502  26.587  20.252  12.574
40066W        W99503   9.165  34.487  10.963
40067W        W99504  15.294  13.256  12.426
40068W        W99505   6.866   4.795   0.348
40069W        W99506   0.756   3.219   2.325
40070W        W99507  17.620  33.480   4.827
40071W        W99508  23.717  29.660  13.347
40072W        W99509  19.548  38.880   3.673
40073W        W99510  10.272   4.339   4.354
40074W        W99511   3.412  24.201  13.885
40075W        W99512   0.489  24.189   1.253
40076W        W99513  40.991  14.094  12.419
40077W        W99514   0.920   2.765   2.731
40078W        W99515  12.782   5.694   0.407
40079W        W99516  37.428  42.435  12.383
40080W        W99517   6.822   2.308   4.703
40081W        W99518  20.098   3.461   4.653
40082W        W99519  13.312  15.590  14.869
40083W        W99520  16.109   1.315  11.104
40084W        W99521  31.054   5.740  14.000
40085W        W99522  26.602  24.628  10.626
40086W        W99523  12.245  41.455  11.391
40087W        W99524  33.435  15.114   0.361
40088W        W99525  44.760   9.170  11.413
40089W        W99526  31.976   9.730  14.026
40090W        W99527   1.812   2.347  13.836
40091W        W99528  13.609  29.482  11.438
40092W        W99529  32.032  33.595   3.681
40093W        W99530  18.654   0.448   2.327
40094W        W99531   6.788  21.704   1.445
40095W        W99532   2.424   7.774   5.194
40096W        W99533  22.039  24.973   3.374
40097W        W99534  40.416   7.871  14.410
40098W        W99535  14.219  35.917   2.208
40099W        W99536  30.523   7.711  14.350
40100W        W99537  23.986  30.934   4.259
40101W        W99538  42.928  18.085  11.040
40102W        W99539  32.576  29.648  11.938
40103W        W99540  35.469   5.894   3.302
40104W        W99541  35.517   9.831  11.544
40105W        W99542  41.537  17.172   4.140
40106W        W99543   5.255  29.129  10.430
40107W        W99544  42.310  18.563   1.289
40108W        W99545  39.868  18.073  12.944
40109W        W99546  25.102  15.135  12.474
40110W        W99547   1.449  18.742   2.899
40111W        W99548  28.536  21.646  13.919
40112W        W99549  43.764  35.494  14.509
40113W        W99550  30.035  22.011  14.421
40114W        W99551  15.311  36.865  14.397
40115W        W99552   8.896  41.869  10.536
40116W        W99553   3.279  28.625   4.681
40117W        W99554   9.301  36.076  14.793
40118W        W99555  43.764   2.723  12.860
40119W        W99556  31.492  19.163   0.836
40120W        W99557  27.584  43.489  12.962
40121W        W99558  13.647   2.309  12.489
40122W        W99559  10.877  23.039  14.914
40123W        W99560  21.240  39.959   4.615
40124W        W99561  21.529  19.692   4.154
40125W        W99562  36.410   8.182   4.264
40126W        W99563  39.518  32.560   3.713
40127W        W99564  12.148  40.925   0.278
40128W        W99565   5.216   8.663  13.453
40129W        W99566  27.582  26.120   0.422
40130W        W99567  18.758  10.729   1.878
40131W        W99568   0.812  39.397  11.084
40132W        W99569   9.803  44.779  13.519
40133W        W99570  22.160   1.808   4.598
40134W        W99571  12.292  42.000   4.311
40135W        W99572  18.288  14.258   3.278
40136W        W99573  28.128  44.296  12.940
40137W        W99574  40.943  15.328  13.901
40138W        W99575  25.543  40.987   2.380
40139W        W99576  40.447  20.742  13.975
40140W        W99577  40.446  25.626  11.120
40141W        W99578   4.363  11.852   3.188
40142W        W99579  42.377  22.146   1.332
40143W        W99580  34.574  15.202   3.149
40144W        W99581  40.517   9.221   1.824
40145W        W99582  32.415  26.654   0.385
40146W        W99583   9.676  10.754   2.831
40147W        W99584  16.291  27.631   1.308
40148W        W99585   0.982  33.954  14.920
40149W        W99586  32.419   9.304   3.373
40150W        W99587  24.138  18.711   2.219
40151W        W99588  13.696  12.808   1.238
40152W        W99589  29.541   8.787  14.897
40153W        W99590  44.497  21.702  12.483
40154W        W99591  12.183  28.064  12.896
40155W        W99592  27.096  34.938  14.888
40156W        W99593   7.695  27.498   0.386
40157W        W99594  14.660   1.928  11.005
40158W        W99595  18.668  12.769   0.803
40159W        W99596  34.017  11.161   1.263
40160W        W99597  18.718  16.655   0.813
40161W        W99598  33.553  43.284   0.249
40162W        W99599  33.544  35.369  11.528
40163W        W99600   6.373  26.984   3.264
40164W        W99601  34.433  36.969  13.960
40165W        W99602  28.003  25.036   4.344
40166W        W99603  40.984  37.497  13.015
40167W        W99604  36.044   6.320   3.708
40168W        W99605  25.116  27.174  13.854
40169W        W99606  39.400  10.737  14.455
40170W        W99607  29.106   8.194   2.789
40171W        W99608  40.868  32.008   2.844
40172W        W99609   2.935  23.001  10.595
40173W        W99610  41.849  16.619  13.931
40174W        W99611  38.327  25.214   1.310
40175W        W99612   3.433  11.339  13.000
40176W        W99613  33.878  19.621   3.657
40177W        W99614  18.234  39.378   0.959
40178W        W99615  33.401  12.717  14.310
40179W        W99616  26.087  37.461   2.711
40180W        W99617  33.121  42.376  11.926
40181W        W99618  30.545   7.303   3.640
40182W        W99619  10.147  11.757  12.947
40183W        W99620  16.090  19.189  14.974
40184W        W99621  12.686  16.659  11.096
40185W        W99622  22.034  37.994  13.025
40186W        W99623  29.032   0.896  13.021
40187W        W99624   9.283  32.028   0.332
40188W        W99625  22.570  31.961   2.832
40189W        W99626  20.274  32.429   1.833
40190W        W99627  12.117   5.223   1.378
40191W        W99628  41.913  16.142  13.795
40192W        W99629  22.221  15.790  13.419
40193W        W99630  33.464  27.947  11.058
40194W        W99631  33.925  14.106  13.824
40195W        W99632  35.557  29.450   1.706
40196W        W99633   8.288  10.698  14.823
40197W        W99634  42.975  35.574   4.240
40198W        W99635   3.945   0.469  12.952
40199W        W99636   1.909  29.071  12.030
40200W        W99637  30.134  42.874   3.737
40201W        W99638  10.851  22.742  14.459
40202W        W99639  13.789  35.503  13.016
40203W        W99640  38.462  14.739   3.177
40204W        W99641  25.511  18.133  10.645
40205W        W99642  27.499   7.666   2.738
40206W        W99643  41.430  11.278   1.776
40207W        W99644  27.670  17.096   4.725
40208W        W99645  17.568   4.428  14.987
40209W        W99646  10.372  35.472   2.342
40210W        W99647  43.407  13.771  11.103
40211W        W99648  22.616  19.246  13.452
40212W        W99649  33.549   7.202   0.846
40213W        W99650  23.605   9.752   3.180
40214W        W99651  35.104   7.868  12.506
40215W        W99652   9.187  10.154  11.510
40216W        W99653  10.191  16.642  14.289
40217W        W99654  15.655   3.838   4.823
40218W        W99655  19.068  38.010   1.806
40219W        W99656  36.465  33.876   4.320
40220W        W99657  24.106   4.702   2.850
40221W        W99658  18.658   5.256  14.299
40222W        W99659  21.144  23.711  14.841
40223W        W99660   7.783  28.032  14.904
40224W        W99661  41.923  28.486   4.641
40225W        W99662  22.092  40.320  14.830
40226W        W99663  17.280  22.615   0.818
40227W        W99664   8.330  43.853  12.904
40228W        W99665  27.447  30.126   4.605
40229W        W99666  37.948  24.211   1.830
40230W        W99667  21.738  14.231  12.452
40231W        W99668  29.556  17.758  14.386
40232W        W99669  14.193  27.982  12.926
40233W        W99670  37.848  15.137   2.894
40234W        W99671  29.616  33.533   1.411
40235W        W99672  41.439  32.575  13.888
40236W        W99673  22.065   0.896   3.756
40237W        W99674  19.183  27.003  13.861
40238W        W99675  21.560  31.537   3.284
40239W        W99676  43.960  29.466  13.979
40240W        W99677  14.803  13.654  10.497
40241W        W99678  18.292  17.667  12.541
40242W        W99679  32.520   7.705  13.401
40243W        W99680  12.839  18.198  14.399
40244W        W99681   6.680  27.029  10.446
40245W        W99682   5.933  29.084  14.308
40246W        W99683  43.764   0.325  13.881
40247W        W99684  40.052  29.169   3.700
40248W        W99685   9.302  28.067   2.251
40249W        W99686  40.520  25.575  10.558
40250W        W99687  16.799  39.917  12.486
40251W        W99688  12.713  39.917   0.871
40252W        W99689  38.326   4.733  14.860
40253W        W99690  17.613  26.595   3.657
40254W        W99691  17.673  12.252   1.434
40255W        W99692  30.657  38.392  14.883
40256W        W99693   1.784  22.588   4.795
40257W        W99694  44.897  25.997   2.373
40258W        W99695  34.384   3.766  12.840
40259W        W99696  13.656  22.624   1.426
40260W        W99697  18.725   0.931   5.235
40261W        W99698  42.878  18.668  14.792
40262W        W99699  17.618  25.106   2.272
40263W        W99700  33.052  17.671   3.681
40264W        W99701  18.104   4.251  12.014
40265W        W99702  40.333  44.926  14.932
40266W        W99703  28.641  31.449   4.645
40267W        W99704  44.269   2.750   2.299
40268W        W99705  10.831   5.892   4.666
40269W        W99706  14.796  28.023   3.791
40270W        W99707  20.662   1.938   2.710
40271W        W99708   9.381  18.609   2.222
40272W        W99709  22.167  20.100  11.407
40273W        W99710  41.942   1.843  12.540
40274W        W99711  21.072  29.043  12.382
40275W        W99712  27.131   5.696  11.075
40276W        W99713  27.675   5.339  12.901
40277W        W99714  26.046  15.758   2.235
40278W        W99715  25.604  36.497  10.450
40279W        W99716  10.785   3.281   2.393
40280W        W99717  39.949   5.321   0.803
40281W        W99718   0.963  34.391  11.889
40282W        W99719  37.039  42.908   4.122
40283W        W99720   8.727  24.506  12.026
40284W        W99721  10.309  11.187  12.384
40285W        W99722   8.387   8.191  13.030
40286W        W99723  14.333  24.191  14.477
40287W        W99724  12.693   1.270  12.972
40288W        W99725  11.734  17.598   0.942
40289W        W99726  33.459  14.175   1.822
40290W        W99727  19.149  43.939  11.448
40291W        W99728  17.178  37.958  12.831
40292W        W99729   8.388  39.555  11.399
40293W        W99730  27.136  29.005   2.894
40294W        W99731   0.955  40.461  13.383
40295W        W99732  12.279  17.069   3.194
40296W        W99733  16.116  35.882  12.556
40297W        W99734  19.671  14.725   2.720
40298W        W99735  42.330  28.535  11.398
40299W        W99736  14.706  12.258   1.259
40300W        W99737   6.798  14.785  10.927
40301W        W99738  41.474  26.978  14.807
40302W        W99739  23.593   4.813   9.981
40303W        W99740  44.441  38.042  14.280
40304W        W99741  10.275  14.608   0.942
40305W        W99742   8.163  23.140   3.774
40306W        W99743   7.343   5.898  13.018
40307W        W99744  12.819   5.872   2.178
40308W        W99745   2.853  10.741  14.356
40309W        W99746  17.765  14.094  14.453
40310W        W99747  42.986  11.210   2.287
40311W        W99748   6.698  37.414   2.390
40312W        W99749  20.157  41.533  10.134
40313W        W99750   6.217   2.828  14.411
40314W        W99751  13.623  11.219   4.156
40315W        W99752  25.180  19.654   4.284
40316W        W99753  11.689   8.173   1.891
40317W        W99754  13.284  37.890  13.330
40318W        W99755  20.187   2.752   1.308
40319W        W99756  22.244  15.812   2.182
40320W        W99757  25.690  12.132  12.516
40321W        W99758  35.519  10.869   2.716
40322W        W99759  24.563   4.208  13.312
40323W        W99760   5.336  35.548  11.981
40324W        W99761  37.499  11.710   4.632
40325W        W99762  10.861   7.788   4.328
40326W        W99763  32.917  30.097  11.899
40327W        W99764  24.211  24.689  14.003
40328W        W99765  20.656  21.087  13.470
40329W        W99766   3.825   6.853   0.823
40330W        W99767  35.440  10.823  10.945
40331W        W99768  27.504  30.459   3.655
40332W        W99769  43.784  37.474  14.476
40333W        W99770  41.313  40.408  10.934
40334W        W99771  30.546  24.066   3.356
40335W        W99772  19.249  15.225   2.752
40336W        W99773  17.616  13.736   2.347
40337W        W99774  34.508  38.921   2.722
40338W        W99775  35.012  10.281   1.781
40339W        W99776   8.221  44.364   1.308
40340W        W99777   2.301  21.062  12.842
40341W        W99778  24.103  19.726   3.292
40342W        W99779  42.971   9.237   1.703
40343W        W99780  29.077  32.911  11.415
40344W        W99781  29.476  28.049   9.955
40345W        W99782  15.670   8.262   0.457
40346W        W99783  22.698   6.313   1.440
40347W        W99784  23.714  17.699   0.379
40348W        W99785  40.932  37.397  10.512
40349W        W99786  40.360  27.456   1.233
40350W        W99787  34.970  14.747   1.297
40351W        W99788   3.870  29.031  11.485
40352W        W99789   7.377   8.344  14.818
40353W        W99790   7.667  18.677  13.944
40354W        W99791   4.814   9.233  12.471
40355W        W99792   8.380  28.187   2.411
40356W        W99793  10.190  26.951  13.437
40357W        W99794   9.839  18.666   1.741
40358W        W99795  36.022  38.887  13.044
40359W        W99796  22.176  26.659   4.236
40360W        W99797  35.915  28.597   2.813
40361W        W99798  14.799  42.927  13.440
40362W        W99799  36.349  13.624  13.348
40363W        W99800   4.339  20.550   2.696
40364W        W99801  37.579  12.197  12.095
40365W        W99802  13.845  44.486  14.987
40366W        W99803  31.606  21.749   2.215
40367W        W99804  12.117  21.028   3.311
40368W        W99805  10.836  26.110  14.864
40369W        W99806   6.881  30.465   3.336
40370W        W99807  29.430  29.445  10.963
40371W        W99808  41.905  33.892   4.609
40372W        W99809   9.655  21.617  13.885
40373W        W99810   3.861  42.982   3.238
40374W        W99811  33.566  25.965  14.998
40375W        W99812  14.325  13.743   3.701
40376W        W99813  13.264  31.408   3.340
40377W        W99814  41.318  11.257   2.853
40378W        W99815  23.218   1.477  13.371
40379W        W99816  28.571  23.561  11.880
40380W        W99817  24.692   1.873   3.762
40381W        W99818  41.366   8.826  13.832
40382W        W99819  19.198  44.880   2.324
40383W        W99820   2.858  34.932   3.651
40384W        W99821  44.893  44.350  12.982
40385W        W99822  44.980   8.212   0.248
40386W        W99823  37.945  24.583  12.960
40387W        W99824  24.690  10.331  11.887
40388W        W99825  20.619  13.603  13.346
40389W        W99826  34.537   4.415  11.564
40390W        W99827  34.874   9.774   3.260
40391W        W99828  32.619  32.969   4.628
40392W        W99829  25.555  41.881  12.958
40393W        W99830   9.156   7.343  11.508
40394W        W99831  30.577  27.082  14.835
40395W        W99832  32.615  25.690   3.185
40396W        W99833  30.142  11.792  14.762
40397W        W99834  30.936  17.740  12.009
40398W        W99835  36.909  44.393  11.508
40399W        W99836  30.586   8.325   4.817
40400W        W99837   6.407  15.616   4.290
40401W        W99838  40.027  11.729   3.641
40402W        W99839  20.120  26.078   2.259
40403W        W99840  20.092   2.245   3.764
40404W        W99841  10.651  25.481   0.851
40405W        W99842   0.971  17.063  10.002
40406W        W99843  12.265  24.483   4.178
40407W        W99844  30.098  10.861  11.866
40408W        W99845   5.738  43.925  14.882
40409W        W99846   7.242  43.793  13.919
40410W        W99847  23.138  44.425  13.403
40411W        W99848  36.035   2.409   0.302
40412W        W99849  29.058  34.490   2.372
40413W        W99850  36.394  27.453  11.008
40414W        W99851   8.173  13.705   0.911
40415W        W99852  24.665  21.192  14.346
40416W        W99853  22.046  29.661   0.829
40417W        W99854  18.706  25.168   5.116
40418W        W99855  41.379  38.042  13.389
40419W        W99856  20.181  43.316   0.284
40420W        W99857  44.918  29.427  14.837
40421W        W99858  22.999  42.824   2.714
40422W        W99859   2.330   0.360   0.921
40423W        W99860  31.530  27.071   3.834
40424W        W99861  13.760  32.451  13.534
40425W        W99862   7.676  43.509  13.464
40426W        W99863   4.743  18.755  12.360
40427W        W99864  40.970  29.558  14.341
40428W        W99865   0.349  29.050  12.064
40429W        W99866  32.498  24.161   1.718
40430W        W99867  36.490  10.792   3.299
40431W        W99868   9.819  22.725   4.200
40432W        W99869  32.978  39.035   2.410
40433W        W99870  31.930   6.827   1.834
40434W        W99871  25.574  12.835   0.458
40435W        W99872  19.095  43.008   4.683
40436W        W99873  26.511  14.098   3.680
40437W        W99874  25.104  33.028  11.887
40438W        W99875   1.815  30.966   0.464
40439W        W99876  40.874  22.686   1.780
40440W        W99877  39.404  30.558   0.438
40441W        W99878  29.954   1.770  13.835
40442W        W99879   2.468  31.073  14.310
40443W        W99880  11.629  14.770   1.221
40444W        W99881  27.985  19.191  11.372
40445W        W99882  20.598   1.828  12.824
40446W        W99883  42.994  33.067  12.027
40447W        W99884  44.395   8.388  11.441
40448W        W99885  30.499  34.576   4.672
40449W        W99886  37.416   5.322  11.894
40450W        W99887  20.082  18.727   0.379
40451W        W99888  35.976  32.081   5.167
40452W        W99889  19.183  13.617  14.279
40453W        W99890  25.109  34.405  11.066
40454W        W99891  42.439  39.513   4.227
40455W        W99892  12.852  11.264   4.144
40456W        W99893  17.722  42.986   0.476
40457W        W99894  14.688  34.561  10.988
40458W        W99895   0.468   0.969   1.369
40459W        W99896  12.799  24.978   2.280
40460W        W99897   8.826  27.645  10.965
40461W        W99898  44.363   5.348  11.579
40462W        W99899  36.850  38.886   2.883
40463W        W99900  16.601  17.133   0.869
40464W        W99901  21.122  43.003   1.359
40465W        W99902  15.259  40.919   2.210
40466W        W99903   8.810   5.359  11.448
40467W        W99904  19.213  31.016  14.467
40468W        W99905  32.001  37.020   4.338
40469W        W99906  35.472   4.779  10.601
40470W        W99907  14.613   8.272   4.817
40471W        W99908  17.559  34.468  10.465
40472W        W99909  26.031  28.132  12.829
40473W        W99910   4.414  24.193   1.831
40474W        W99911  40.023  33.106   4.804
40475W        W99912   7.188  16.233  14.762
40476W        W99913  16.811   8.811  10.497
40477W        W99914  38.852  31.085  14.436
40478W        W99915  16.249  13.813  11.533
40479W        W99916  36.479   1.735  11.007
40480W        W99917  15.206   5.836  12.349
40481W        W99918  20.103  40.499  10.081
40482W        W99919   3.283   0.277  13.374
40483W        W99920  22.504  43.331   0.726
40484W        W99921  39.422  30.612  12.553
40485W        W99922  22.234  24.189   4.623
40486W        W99923   5.697  42.301  14.356
40487W        W99924  37.964  41.909   0.313
40488W        W99925  39.326  29.032   2.256
40489W        W99926  11.644  30.549  14.781
40490W        W99927   8.180  38.998   1.320
40491W        W99928   3.759   4.847  10.025
40492W        W99929   1.736  35.368   4.231
40493W        W99930  33.965  22.700  11.018
40494W        W99931   4.793  38.934   0.273
40495W        W99932  16.195  13.713   1.249
40496W        W99933  23.651   5.844   1.243
40497W        W99934  39.006  16.173  11.610
40498W        W99935  29.131   1.904   3.715
40499W        W99936  10.176  18.097   2.335
40500W        W99937  36.505  41.992   3.204
40501W        W99938  21.560  21.190   1.236
40502W        W99939  27.122  40.328   4.166
40503W        W99940  13.294   3.265  12.428
40504W        W99941  11.355  43.808  14.988
40505W        W99942  42.926   1.418  11.490
40506W        W99943   0.318   8.841   2.260
40507W        W99944  20.082  36.859  12.868
40508W        W99945  15.264  36.895  13.906
40509W        W99946  22.216  32.633  10.629
40510W        W99947   3.282  19.773  12.569
40511W        W99948  15.687  33.550   3.686
40512W        W99949   7.876  41.473  12.870
40513W        W99950  16.149  30.082   2.779
40514W        W99951  29.573  26.490   3.753
40515W        W99952  25.042   7.303  13.821
40516W        W99953  35.554   3.733  10.576
40517W        W99954  44.450  31.514  13.489
40518W        W99955  19.138  14.761   0.732
40519W        W99956  21.051  26.098   1.832
40520W        W99957  28.041  21.663  13.838
40521W        W99958  24.149  19.131   1.912
40522W        W99959  32.949  23.599   5.735
40523W        W99960   2.239  16.139   1.821
40524W        W99961  40.040  20.728   1.233
40525W        W99962  37.470  14.222   3.767
40526W        W99963  41.465  23.028  14.886
40527W        W99964  13.178  37.966   2.203
40528W        W99965  42.289  26.159   2.241
40529W        W99966  26.046  26.667  14.507
40530W        W99967   3.317  24.634   2.769
40531W        W99968  42.852  44.964  11.383
40532W        W99969  41.456  36.882   3.773
40533W        W99970  35.105   2.371   4.301
40534W        W99971   7.756  32.627  10.484
40535W        W99972  33.998  28.168   4.768
40536W        W99973  13.118  30.583  13.509
40537W        W99974   9.873   2.324   3.721
40538W        W99975  26.186  15.805   3.151
40539W        W99976  10.780  29.447   0.334
40540W        W99977  11.331   5.886   4.114
40541W        W99978  35.375  34.456  14.001
40542W        W99979  31.965  34.575   1.738
40543W        W99980  16.781  36.559   4.798
40544W        W99981  23.555  14.718   2.820
40545W        W99982  43.866  36.980   3.800
40546W        W99983   2.379  28.991  10.586
40547W        W99984  29.112  18.707   2.806
40548W        W99985  34.467  19.124   2.386
40549W        W99986  13.804  23.118  11.030
40550W        W99987  43.925  39.835   4.280
40551W        W99988  15.708   2.389   2.805
40552W        W99989  12.661  34.455  12.853
40553W        W99990  12.823  38.984  14.285
40554W        W99991  15.233   5.328  11.388
40555W        W99992  32.108   9.229   4.246
40556W        W99993   7.868   1.443  10.522
40557W        W99994  19.622   9.287  13.537
40558W        W99995  27.568  18.734  12.870
40559W        W99996  16.808  11.359  10.482
40560W        W99997  12.720  29.501  13.408
40561W        W99998   7.370  28.097  11.392
40562W        W99999  43.926  33.512   2.390
40563W        W    0   8.278  13.332  12.344
40564W        W    1  21.043  13.168   1.211
40565W        W    2  20.570  31.506   0.334
40566W        W    3  44.974   6.765   0.837
40567W        W    4  14.228  25.549  10.915
40568W        W    5  12.344  16.090  13.871
40569W        W    6  42.321  21.104  13.991
40570W        W    7  17.176  34.900   2.849
40571W        W    8  29.130  38.522  14.791
40572W        W    9   1.774   0.453   2.868
40573W        W   10  44.356  38.042  10.887
40574W        W   11  39.948  18.167   4.328
40575W        W   12  17.124  40.528   9.530
40576W        W   13  38.531  42.361  13.335
40577W        W   14  35.094  22.667   4.205
40578W        W   15  22.141  18.657  14.002
40579W        W   16  34.570  39.057   0.436
40580W        W   17   7.757  17.764   4.611
40581W        W   18  22.677  25.653  12.842
40582W        W   19  42.465  10.728  12.859
40583W        W   20   9.720   9.656  12.992
40584W        W   21  22.561  34.513   0.748
40585W        W   22  26.560   8.798  14.914
40586W        W   23   9.216  19.672   5.200
40587W        W   24   6.746  10.678  11.440
40588W        W   25  13.176   5.328  13.797
40589W        W   26   8.202  16.659  14.971
40590W        W   27   9.763  38.913  13.500
40591W        W   28  16.634   2.944   0.906
40592W        W   29  17.279  25.682   4.233
40593W        W   30  20.651  41.494  10.620
40594W        W   31  41.805  40.909   1.239
40595W        W   32  41.293  35.856  14.939
40596W        W   33  39.897  15.581  10.949
40597W        W   34   3.245  24.048  14.840
40598W        W   35  23.053  10.693  12.413
40599W        W   36  15.236  26.033   3.758
40600W        W   37  11.288  26.158   2.709
40601W        W   38   4.744   6.852  12.366
40602W        W   39  23.116   9.316  13.041
40603W        W   40  38.849  38.868   5.292
40604W        W   41   0.294  40.434   2.329
40605W        W   42  24.479  19.690   3.353
40606W        W   43   2.355   7.207   2.399
40607W        W   44  17.586  27.144   3.683
40608W        W   45  34.496  34.978   0.290
40609W        W   46  16.699  39.966  10.513
40610W        W   47  17.192  34.959   1.931
40611W        W   48  33.927  12.233  12.845
40612W        W   49  42.855  21.635   0.958
40613W        W   50  39.851   8.772   3.304
40614W        W   51   8.188  39.458   2.349
40615W        W   52  27.099  15.650   1.737
40616W        W   53  21.150  29.062   2.713
40617W        W   54  41.829  42.944  13.342
40618W        W   55  10.753  24.534  13.907
40619W        W   56  12.743  26.144   1.908
40620W        W   57  11.661  43.501  10.472
40621W        W   58  16.132  25.711  13.863
40622W        W   59  39.933  17.245  10.425
40623W        W   60   1.793   4.399  11.001
40624W        W   61  14.243  10.849   3.201
40625W        W   62  38.410  44.871  12.900
40626W        W   63  23.735  19.178  14.302
40627W        W   64  41.854  29.098   1.836
40628W        W   65  43.944   5.727   4.697
40629W        W   66  40.896  30.936   1.855
40630W        W   67  42.807  18.695  12.475
40631W        W   68  43.778   7.819  10.954
40632W        W   69  33.424  21.166  11.476
40633W        W   70  35.370  30.073  14.313
40634W        W   71  31.418  17.061  10.552
40635W        W   72  20.685  36.875  12.015
40636W        W   73  44.870   3.862  14.332
40637W        W   74  29.963   8.273  14.451
40638W        W   75   4.851  42.883  12.577
40639W        W   76  26.464  31.065  12.468
40640W        W   77  33.884   5.783  12.427
40641W        W   78  35.961   1.850   3.867
40642W        W   79  19.222  38.374  13.442
40643W        W   80  26.150   2.330   0.366
40644W        W   81  42.945  42.849  13.017
40645W        W   82  37.030  40.860   1.423
40646W        W   83  38.859  10.247  10.558
40647W        W   84  33.611  43.766  11.880
40648W        W   85   2.922  39.558  14.955
40649W        W   86  11.137  24.986  11.373
40650W        W   87  30.477  37.492   2.219
40651W        W   88  33.059  18.285   3.707
40652W        W   89  21.559  28.452  14.903
40653W        W   90  28.475  17.276  13.388
40654W        W   91  31.510  31.414   4.780
40655W        W   92  29.514   8.870   4.678
40656W        W   93  14.784  13.285  13.816
40657W        W   94  30.505  33.052   4.145
40658W        W   95  29.009  12.654  12.489
40659W        W   96  37.382  12.294  11.504
40660W        W   97  11.244  25.190  13.808
40661W        W   98  44.761  24.160  11.408
40662W        W   99   4.871  30.916  11.472
40663W        W  100   6.326  19.118   3.209
40664W        W  101   9.679  35.984   0.842
40665W        W  102  17.618  44.404  12.403
40666W        W  103  43.868  13.322  13.897
40667W        W  104   7.370  37.930   1.867
40668W        W  105  42.998  13.717  14.342
40669W        W  106   3.224  24.036   2.326
40670W        W  107  15.774  39.975   0.433
40671W        W  108  13.782   1.909  12.573
40672W        W  109  43.946   9.230  11.884
40673W        W  110  31.953   3.360  10.025
40674W        W  111  41.502  15.234  13.372
40675W        W  112  37.387  15.319   2.366
40676W        W  113   0.319  37.908  11.892
40677W        W  114  24.176  41.468  14.031
40678W        W  115   5.207  44.424   3.771
40679W        W  116  36.561   1.909  14.759
40680W        W  117  29.965   3.760  11.044
40681W        W  118  22.675  32.967  12.971
40682W        W  119  13.297  14.332  13.499
40683W        W  120  44.962  31.437   0.400
40684W        W  121  20.187   8.774   2.194
40685W        W  122   9.760  13.746  14.459
40686W        W  123  32.910   8.696   0.790
40687W        W  124  28.649  43.416   0.835
40688W        W  125  21.113  14.138  14.984
40689W        W  126  39.375  22.701   4.685
40690W        W  127  27.595  14.660   1.702
40691W        W  128   8.659  20.273  14.428
40692W        W  129   3.345  32.501  12.578
40693W        W  130  20.610  28.563  11.035
40694W        W  131  32.027  37.512   2.832
40695W        W  132  24.714  29.540  10.968
40696W        W  133  43.286   7.846  13.840
40697W        W  134  21.734  37.555   1.227
40698W        W  135  26.201  33.425   0.960
40699W        W  136  35.017  38.552  13.859
40700W        W  137  17.630   4.846   3.162
40701W        W  138  24.089  42.350  11.040
40702W        W  139   2.781  41.333   3.726
40703W        W  140   5.281   8.315   1.280
40704W        W  141  21.558  34.105  12.552
40705W        W  142   3.798  20.137  13.414
40706W        W  143  39.983  24.675   3.273
40707W        W  144  36.380   3.762  10.955
40708W        W  145  39.825  20.185   3.717
40709W        W  146  41.425  35.560   0.811
40710W        W  147  12.666  18.665  14.276
40711W        W  148   0.393   2.793   3.780
40712W        W  149  32.941  13.604  13.857
40713W        W  150  12.691  30.423  13.047
40714W        W  151  10.265  13.153   5.224
40715W        W  152  42.913  27.117  10.477
40716W        W  153  40.417  15.164  12.996
40717W        W  154   7.860   7.350   1.331
40718W        W  155  37.544  11.627  10.912
40719W        W  156   0.489   2.810  14.804
40720W        W  157  17.275  18.766   4.233
40721W        W  158  38.951  12.185  10.602
40722W        W  159  37.507   2.768   3.343
40723W        W  160  38.068  15.217   3.793
40724W        W  161  40.802  33.882  11.591
40725W        W  162  22.664  19.578  13.339
40726W        W  163  16.114  25.496  14.503
40727W        W  164  15.150  16.090   1.771
40728W        W  165  37.510  37.421   1.907
40729W        W  166  44.259   4.928  13.445
40730W        W  167  27.589  18.770   0.299
40731W        W  168   5.856  15.276   4.132
40732W        W  169   4.351  11.279  10.958
40733W        W  170  14.740   4.699   1.923
40734W        W  171  15.198  39.323   2.279
40735W        W  172   2.323  39.337  10.890
40736W        W  173  24.212  35.546  11.877
40737W        W  174  28.491  33.888   0.475
40738W        W  175  24.612  19.048   0.473
40739W        W  176  36.079  20.544  11.592
40740W        W  177  26.694  43.424  13.003
40741W        W  178   3.418  16.743  14.015
40742W        W  179  43.276   2.263   0.853
40743W        W  180  16.207  24.582  10.971
40744W        W  181  13.729  17.068  14.432
40745W        W  182  30.650  12.734  14.914
40746W        W  183  27.155  37.983   0.797
40747W        W  184  13.329   3.789  13.502
40748W        W  185  36.981  21.558   2.390
40749W        W  186  23.004  11.141  12.029
40750W        W  187   9.723  12.293   0.793
40751W        W  188  39.476  15.732   1.876
40752W        W  189  40.902   0.426  11.082
40753W        W  190  18.716  19.580   1.859
40754W        W  191  40.365  33.441   1.859
40755W        W  192  37.881  31.601   2.711
40756W        W  193  38.033  43.853   2.844
40757W        W  194  15.256  41.513   1.783
40758W        W  195   5.792   6.689  11.447
40759W        W  196  39.549   5.913  10.427
40760W        W  197  44.354  19.078  11.096
40761W        W  198  32.923  42.497  11.091
40762W        W  199  39.811   6.326   2.388
40763W        W  200   0.263  41.835  10.425
40764W        W  201  12.692   9.756  11.952
40765W        W  202  32.132  30.910   5.263
40766W        W  203  40.853   8.239  13.892
40767W        W  204  37.403  19.773   1.928
40768W        W  205  40.054  37.943   4.283
40769W        W  206   2.927  35.920   4.288
40770W        W  207  38.549  31.077   3.761
40771W        W  208  21.575   4.743   4.145
40772W        W  209  12.782  39.443   3.852
40773W        W  210   2.313  43.498  14.843
40774W        W  211  13.313  33.931   1.746
40775W        W  212  42.397   2.348   1.286
40776W        W  213  28.150   0.323  13.052
40777W        W  214  30.032   6.423   4.318
40778W        W  215  31.084   4.862   1.222
40779W        W  216  27.131   4.371  12.023
40780W        W  217  13.666  18.778  13.029
40781W        W  218  26.614  28.672  11.461
40782W        W  219  26.028  32.486  13.962
40783W        W  220  11.316  27.022  10.505
40784W        W  221  16.811  17.722   5.179
40785W        W  222  21.703  32.037  11.381
40786W        W  223   0.928  27.547   2.855
40787W        W  224  10.830  17.758  13.955
40788W        W  225   9.770  38.882  11.922
40789W        W  226  35.934  42.483  11.423
40790W        W  227  11.244  18.664   1.769
40791W        W  228  14.820  15.102  12.382
40792W        W  229   5.740  16.647   2.817
40793W        W  230  21.530   6.703   3.147
40794W        W  231   9.666  17.127   3.228
40795W        W  232  36.580   5.792   1.853
40796W        W  233  43.867  28.140   2.204
40797W        W  234   2.300   9.824  14.853
40798W        W  235  23.991  38.348   1.722
40799W        W  236  28.503  12.304  11.975
40800W        W  237  31.051  25.547   0.291
40801W        W  238  20.720  30.943  13.982
40802W        W  239  10.815   9.794   1.794
40803W        W  240  42.384   8.782   4.240
40804W        W  241  23.242   9.857   0.323
40805W        W  242   3.931  18.695   0.924
40806W        W  243   1.456   4.290   2.335
40807W        W  244   5.830   8.337  11.982
40808W        W  245  43.860  34.599   0.342
40809W        W  246  41.344  21.118   0.263
40810W        W  247  24.074   3.316  12.046
40811W        W  248  24.125  36.878  12.534
40812W        W  249   1.738   0.757  13.975
40813W        W  250   7.344  40.425   3.187
40814W        W  251   7.259  15.312   2.869
40815W        W  252  37.548  13.189   3.631
40816W        W  253  40.046   1.838   3.307
40817W        W  254  33.900  25.981   2.259
40818W        W  255   1.974  10.645   0.845
40819W        W  256  29.066   7.178   1.718
40820W        W  257  40.347   3.456   2.767
40821W        W  258  12.823  38.441  13.835
40822W        W  259   1.871   2.270  11.500
40823W        W  260  10.781  32.948  14.307
40824W        W  261  14.689  19.584  12.385
40825W        W  262  24.033  39.401  10.534
40826W        W  263  36.392  17.091  13.052
40827W        W  264   2.760  43.276   3.297
40828W        W  265  22.027   6.853  13.423
40829W        W  266  11.143  13.644   0.947
40830W        W  267   6.853  42.370   0.305
40831W        W  268   0.968  34.515   1.895
40832W        W  269  20.149  22.589  14.278
40833W        W  270   9.757  41.521   4.624
40834W        W  271  12.658  35.496  10.958
40835W        W  272  41.941   2.367   2.390
40836W        W  273   3.907  28.167  14.398
40837W        W  274  38.853   7.352   2.187
40838W        W  275  16.701  23.091  11.994
40839W        W  276  33.094   4.824  14.971
40840W        W  277  12.320  30.067  12.016
40841W        W  278  13.616  27.586   2.290
40842W        W  279  35.567   9.264   1.919
40843W        W  280  36.448  14.832  13.414
40844W        W  281  34.511  39.812  10.527
40845W        W  282  28.069  13.808   2.834
40846W        W  283  35.015  21.244  13.833
40847W        W  284  26.013  35.398  12.556
40848W        W  285  22.047  37.937   0.826
40849W        W  286   3.922  29.430   1.254
40850W        W  287  17.268   5.402   2.192
40851W        W  288  15.675  41.870  13.368
40852W        W  289  39.970  38.348  10.439
40853W        W  290  37.490  43.007  14.833
40854W        W  291  27.550  30.109   1.387
40855W        W  292  24.215  27.672  14.988
40856W        W  293   6.201  15.266  14.376
40857W        W  294   1.765   3.409  12.530
40858W        W  295   5.757  21.569   4.803
40859W        W  296   1.272  40.043   2.761
40860W        W  297  30.993  38.925  14.788
40861W        W  298   0.360  40.423  12.037
40862W        W  299  36.917   0.304  13.511
40863W        W  300   5.265  22.117   3.336
40864W        W  301  28.519  24.113   1.264
40865W        W  302  20.747  15.133  10.615
40866W        W  303  11.170   5.401  11.078
40867W        W  304  20.032  31.550  11.006
40868W        W  305   7.686   1.416   1.369
40869W        W  306  42.394   1.802   1.865
40870W        W  307  15.721  26.193  13.506
40871W        W  308  37.404  17.690   4.704
40872W        W  309  16.317  31.980  14.475
40873W        W  310  42.012  31.520  13.830
40874W        W  311  10.175   7.231   4.164
40875W        W  312  41.900  34.602  12.920
40876W        W  313  16.129   8.378  12.836
40877W        W  314  21.738   1.239  12.895
40878W        W  315   3.346   6.411   0.758
40879W        W  316  40.536   6.726   2.178
40880W        W  317   7.753   4.925   5.217
40881W        W  318  22.209  24.542  14.474
40882W        W  319  17.136  12.783   1.889
40883W        W  320  21.132  21.093   5.158
40884W        W  321  41.816   4.408  14.018
40885W        W  322   7.905  29.992   2.731
40886W        W  323  33.591  10.284  13.475
40887W        W  324   6.258   6.348  13.364
40888W        W  325  43.864  12.819   5.167
40889W        W  326  38.555  42.892   3.758
40890W        W  327  25.115  23.725   5.222
40891W        W  328  25.004  25.971  10.638
40892W        W  329  19.610  31.133  12.953
40893W        W  330  38.353   9.815  13.426
40894W        W  331  14.732  16.205   4.750
40895W        W  332   3.817  27.002  14.977
40896W        W  333  22.721  18.631  12.422
40897W        W  334  44.459   7.894  12.351
40898W        W  335  20.553  19.274   0.872
40899W        W  336   8.872  26.600  14.377
40900W        W  337   2.884   2.886  11.523
40901W        W  338  23.695  21.200  14.800
40902W        W  339   4.425  12.629   1.417
40903W        W  340  19.124   4.429   2.309
40904W        W  341  23.560  37.436  13.534
40905W        W  342  26.654  38.881   0.781
40906W        W  343  12.684  33.887  13.309
40907W        W  344  44.361  13.217   1.390
40908W        W  345  41.970  12.253  11.090
40909W        W  346  41.385  23.668   2.684
40910W        W  347  14.336   0.494   1.695
40911W        W  348   9.822  13.139  13.430
40912W        W  349  12.230  30.088  12.481
40913W        W  350  41.374  19.712   0.928
40914W        W  351  26.540  28.957  11.935
40915W        W  352  17.761  10.788   1.774
40916W        W  353  29.608  34.459   0.440
40917W        W  354  17.216  32.610  13.391
40918W        W  355  34.504  24.700  12.526
40919W        W  356  24.585  25.968   4.754
40920W        W  357   4.397  33.007  14.908
40921W        W  358  16.190  38.398  10.994
40922W        W  359  39.416  28.048   1.444
40923W        W  360  21.115  24.226  14.852
40924W        W  361  35.413   4.230   0.353
40925W        W  362  41.005  22.142  11.456
40926W        W  363  18.137   1.423  14.306
40927W        W  364  25.141  43.798   0.376
40928W        W  365  31.055  15.766  10.467
40929W        W  366   0.783  32.970  14.831
40930W        W  367   4.706  32.575   3.272
40931W        W  368   4.433  39.873   4.163
40932W        W  369  11.353  41.531   4.282
40933W        W  370  12.188  20.232   3.811
40934W        W  371   8.821  11.321  13.392
40935W        W  372   4.285   2.466   2.272
40936W        W  373  10.205   8.814   1.887
40937W        W  374  29.069  44.910   4.640
40938W        W  375   6.202  23.734   1.790
40939W        W  376  19.690  37.043  10.901
40940W        W  377  26.479  37.350  13.933
40941W        W  378   4.914  43.806   0.968
40942W        W  379  43.287   8.841  11.570
40943W        W  380   2.777   5.206  11.059
40944W        W  381   3.717  19.056  10.962
40945W        W  382  43.913  29.942  14.881
40946W        W  383  18.229   4.795  11.581
40947W        W  384  31.574  29.092   1.215
40948W        W  385  24.078  43.014  10.036
40949W        W  386  13.739   8.293   2.373
40950W        W  387  15.629   4.925   1.232
40951W        W  388  15.638  32.469  14.980
40952W        W  389   5.392  44.780   0.802
40953W        W  390  18.180  12.673   4.618
40954W        W  391  11.207   9.300   3.294
40955W        W  392  14.730  21.727  14.393
40956W        W  393  29.985  39.368  11.386
40957W        W  394  16.261  22.103  11.959
40958W        W  395  41.793  40.999  11.940
40959W        W  396  32.613  25.516  13.896
40960W        W  397  32.439   6.749   1.725
40961W        W  398  31.128  37.926  14.859
40962W        W  399   6.811  32.498  12.405
40963W        W  400  27.574  35.957  10.536
40964W        W  401  29.108  31.632   4.347
40965W        W  402  37.849  13.640  13.370
40966W        W  403  15.135   8.399  13.030
40967W        W  404  20.618  18.090   0.780
40968W        W  405  21.073   3.716  12.400
40969W        W  406  11.285  11.660  11.956
40970W        W  407  32.535   3.715   0.780
40971W        W  408   4.786  21.221  14.319
40972W        W  409  12.198  23.028  14.365
40973W        W  410   0.965  20.590   1.256
40974W        W  411  25.695  16.787   2.802
40975W        W  412   8.257  10.221  14.294
40976W        W  413  16.237  43.399   0.868
40977W        W  414  24.055  19.533  10.508
40978W        W  415  23.600  18.693  11.977
40979W        W  416  34.538   9.701   1.335
40980W        W  417  39.438  17.739   0.478
40981W        W  418   5.432  11.154   4.283
40982W        W  419   2.820   3.711   2.705
40983W        W  420  35.930   0.979   2.702
40984W        W  421   5.833   5.378  13.503
40985W        W  422  39.985   6.282  13.977
40986W        W  423  11.773  14.310  14.795
40987W        W  424  15.258  14.273   2.842
40988W        W  425  10.320   9.679   3.850
40989W        W  426  28.953   7.742   0.943
40990W        W  427   8.309  15.586   2.669
40991W        W  428  20.672  12.625   1.710
40992W        W  429  19.130  44.434   4.324
40993W        W  430  31.607  38.963   3.219
40994W        W  431  10.175   2.349  11.922
40995W        W  432  23.727   6.231  13.433
40996W        W  433  36.056  39.874   2.291
40997W        W  434  28.536  37.515   0.445
40998W        W  435  16.752  28.454  13.045
40999W        W  436  41.840  44.360   1.333
41000W        W  437  41.786  27.686   3.232
41001W        W  438  41.997  22.570   3.777
41002W        W  439   9.309  37.906   4.277
41003W        W  440   8.887   4.774  11.505
41004W        W  441  44.801  30.542   1.337
41005W        W  442   2.351  42.493  12.902
41006W        W  443  27.609   4.757   0.256
41007W        W  444  33.040  40.330   0.317
41008W        W  445  14.708  21.717   3.705
41009W        W  446  23.194  40.960   1.768
41010W        W  447  25.151   8.192  10.523
41011W        W  448  30.005  25.982   0.406
41012W        W  449  14.676  20.754   1.854
41013W        W  450  13.147  39.320   4.161
41014W        W  451   7.877  37.369   9.936
41015W        W  452  33.127  25.574   1.217
41016W        W  453  32.566   7.193  10.964
41017W        W  454  33.078   6.759   4.679
41018W        W  455  42.313  12.287   4.257
41019W        W  456   3.316  32.013  14.286
41020W        W  457  43.280  27.183   4.825
41021W        W  458  11.345  42.865   1.257
41022W        W  459  23.662  31.967   2.355
41023W        W  460  10.362   9.748   0.412
41024W        W  461  25.190   9.177  11.401
41025W        W  462  10.645   9.198   2.810
41026W        W  463  36.562  26.494  13.330
41027W        W  464  17.616  12.295   4.819
41028W        W  465  24.482  21.247   0.742
41029W        W  466   8.817  24.020   1.394
41030W        W  467  43.425  23.196  13.532
41031W        W  468  13.216  16.811  14.946
41032W        W  469  19.224  27.149   3.850
41033W        W  470  23.056  20.680   4.652
41034W        W  471  15.165  10.634  12.079
41035W        W  472  25.674  41.924   1.227
41036W        W  473  18.258  29.030  14.830
41037W        W  474  17.687  33.974   4.767
41038W        W  475  27.617  35.533  10.561
41039W        W  476  25.552  37.538  13.857
41040W        W  477  10.236   1.826  14.409
41041W        W  478  12.311  31.541  13.924
41042W        W  479  28.463   9.207   1.738
41043W        W  480  34.043   0.450   0.873
41044W        W  481  27.681  31.971  14.848
41045W        W  482   4.730   7.826   0.883
41046W        W  483  34.089  37.981   2.868
41047W        W  484   0.790  21.601  13.963
41048W        W  485  29.162   0.804  11.971
41049W        W  486   6.200  24.511  11.022
41050W        W  487   5.387  16.602  11.560
41051W        W  488  16.687  36.973  14.909
41052W        W  489   6.307  15.151  12.563
41053W        W  490  15.252  25.549   2.723
41054W        W  491  38.996   5.308   1.893
41055W        W  492   9.769   1.277   3.370
41056W        W  493  32.123  36.476   0.362
41057W        W  494  26.645  21.645   4.712
41058W        W  495  23.119  17.568   5.632
41059W        W  496  36.576  22.604  10.585
41060W        W  497  21.582  41.343   2.402
41061W        W  498  22.098  29.452   3.302
41062W        W  499  22.667  39.980   0.831
41063W        W  500  32.082   4.251   1.926
41064W        W  501  38.037  24.639   0.807
41065W        W  502  31.533  30.921   2.759
41066W        W  503  16.653  12.742   2.719
41067W        W  504  15.179   3.809  11.583
41068W        W  505  44.482   3.275   0.246
41069W        W  506  40.032  11.212   2.275
41070W        W  507  31.567  37.013  10.531
41071W        W  508   0.927  41.530   1.367
41072W        W  509   7.378   1.830   4.245
41073W        W  510  33.473   0.796   1.211
41074W        W  511  41.992   3.396   0.477
41075W        W  512  16.657  20.614   4.352
41076W        W  513  15.679  12.621  14.384
41077W        W  514  35.541  20.138   1.302
41078W        W  515  21.692  12.702   4.243
41079W        W  516   8.186  22.230   3.709
41080W        W  517  32.113   3.375   1.451
41081W        W  518  43.467  40.951   0.294
41082W        W  519  17.148  20.054  10.154
41083W        W  520   3.835  34.583   4.626
41084W        W  521  30.642  31.459   4.292
41085W        W  522   9.843  43.424   3.770
41086W        W  523  25.112  44.879   3.272
41087W        W  524  18.292  42.904   0.348
41088W        W  525  26.186  42.423   4.599
41089W        W  526  35.555  40.811   1.353
41090W        W  527  33.519   2.437   3.700
41091W        W  528  32.012  23.514   0.393
41092W        W  529  22.246  21.202  12.456
41093W        W  530  27.097  22.998  13.973
41094W        W  531   9.754  12.747  13.500
41095W        W  532  38.893  10.821  11.990
41096W        W  533  43.867  12.718   1.295
41097W        W  534  41.876  12.361  12.558
41098W        W  535  31.626  18.067   2.367
41099W        W  536  40.444  22.613  11.584
41100W        W  537   7.903  41.456  13.407
41101W        W  538  43.403  17.201   2.800
41102W        W  539  36.498   4.358   1.869
41103W        W  540  38.841  17.749   0.448
41104W        W  541  20.768  26.138   1.376
41105W        W  542   8.777  24.155  14.479
41106W        W  543  16.098   5.828   4.690
41107W        W  544  42.776  27.149  13.876
41108W        W  545  16.205  18.731   4.667
41109W        W  546  19.059  19.664  10.008
41110W        W  547  29.107  29.081   2.835
41111W        W  548   0.323  41.854   0.803
41112W        W  549   4.829  38.389   3.757
41113W        W  550   5.334  44.969   0.296
41114W        W  551  39.362   0.938  12.384
41115W        W  552  12.711  37.983   2.736
41116W        W  553   0.771  14.613  13.024
41117W        W  554  41.956  29.010  13.495
41118W        W  555  44.306  44.338  12.415
41119W        W  556   2.444  25.619  14.463
41120W        W  557  31.475   4.930   0.326
41121W        W  558  21.610  40.546  10.605
41122W        W  559  25.149  21.574   3.643
41123W        W  560   1.319   1.358   0.894
41124W        W  561  37.867  33.972  13.902
41125W        W  562  25.049  11.164   3.239
41126W        W  563  36.050  14.590   4.679
41127W        W  564  31.485  17.096   4.342
41128W        W  565  31.476  20.666   2.770
41129W        W  566  13.298   2.864  12.371
41130W        W  567  13.201  37.445  10.896
41131W        W  568   3.421  21.111   3.254
41132W        W  569  37.551  41.434  12.453
41133W        W  570  41.011  15.249  11.430
41134W        W  571  17.189  44.817   4.267
41135W        W  572  12.222  12.746   3.301
41136W        W  573  20.666   2.438  13.964
41137W        W  574  43.448   6.261  14.355
41138W        W  575  16.594  15.169   3.814
41139W        W  576  21.046  26.508  13.941
41140W        W  577   5.267   1.945   0.843
41141W        W  578  34.455  11.754   0.354
41142W        W  579  24.545   2.872   0.375
41143W        W  580  15.150  30.540   1.867
41144W        W  581  34.925   4.393   0.889
41145W        W  582  44.398   4.259  10.550
41146W        W  583   6.376  20.711  14.884
41147W        W  584  35.926   8.402   2.349
41148W        W  585  36.881   1.751   2.845
41149W        W  586   8.212  24.229   4.769
41150W        W  587  32.092  29.459   0.927
41151W        W  588  24.210   6.264  10.553
41152W        W  589  30.539   9.764   2.867
41153W        W  590  37.874  22.064   1.212
41154W        W  591  24.515  10.279   3.716
41155W        W  592  15.285  27.531  14.819
41156W        W  593  33.466  28.455   1.295
41157W        W  594   2.439  43.487  10.943
41158W        W  595  32.934  18.678   2.180
41159W        W  596  15.325  12.299   4.291
41160W        W  597   6.241  39.535   1.774
41161W        W  598  21.060  35.418   0.411
41162W        W  599  24.634  39.556  12.426
41163W        W  600  17.232  20.148   4.723
41164W        W  601  43.769  16.744  14.809
41165W        W  602  34.983  24.693  11.430
41166W        W  603  12.149  13.177   1.766
41167W        W  604  43.846  16.761   3.652
41168W        W  605  36.976  23.086   2.221
41169W        W  606  44.408  34.540   4.753
41170W        W  607  12.745  12.808  10.437
41171W        W  608  12.724   4.784   3.700
41172W        W  609  29.485  12.700  12.461
41173W        W  610  28.592  11.670   2.235
41174W        W  611  37.078   7.344  14.448
41175W        W  612  38.829   6.395  11.578
41176W        W  613  10.191  30.500  10.892
41177W        W  614  43.937  43.896   2.901
41178W        W  615   3.351   5.232  11.938
41179W        W  616  33.902  38.050   4.760
41180W        W  617  10.764   1.929   2.757
41181W        W  618  38.391  22.689  14.881
41182W        W  619  22.014   3.762  14.882
41183W        W  620   8.767  20.638   1.859
41184W        W  621   8.765  33.131   0.846
41185W        W  622   4.785   6.238   2.201
41186W        W  623  23.680  27.476  10.496
41187W        W  624  26.485   4.775   3.658
41188W        W  625  16.587   3.246   3.824
41189W        W  626  24.110  33.511  14.443
41190W        W  627  11.651  25.674  13.943
41191W        W  628  16.659   3.433   4.802
41192W        W  629  25.543  22.164   2.771
41193W        W  630  35.540  28.450  12.028
41194W        W  631  29.502   7.273   2.694
41195W        W  632  12.701   6.782  14.801
41196W        W  633   4.727  26.644   0.836
41197W        W  634  34.069   5.888  13.951
41198W        W  635  15.115  33.997  13.501
41199W        W  636  38.325  23.659  12.413
41200W        W  637  10.332  25.701   4.732
41201W        W  638   5.889  13.606  11.932
41202W        W  639  34.953  36.467  14.443
41203W        W  640   1.961  29.125  13.430
41204W        W  641  25.059  14.130  12.559
41205W        W  642  13.348  27.668  13.959
41206W        W  643  15.286  19.275  12.437
41207W        W  644  15.671  19.159  12.577
41208W        W  645  17.144  39.856   2.368
41209W        W  646   7.175   7.861  10.976
41210W        W  647  24.703  15.285   4.197
41211W        W  648   7.910   8.239  13.798
41212W        W  649  19.039  13.187  14.771
41213W        W  650   2.309  30.074   4.167
41214W        W  651  35.430  24.031   0.802
41215W        W  652  44.991  44.370  13.928
41216W        W  653  11.191  36.528  13.919
41217W        W  654  38.342  27.983   4.284
41218W        W  655  18.098  25.640   0.407
41219W        W  656  33.456  42.783   1.906
41220W        W  657  14.185  16.119   3.263
41221W        W  658  17.161  44.444  13.042
41222W        W  659   6.203  16.633  11.950
41223W        W  660   0.803  44.302   0.433
41224W        W  661  29.022  35.544  14.002
41225W        W  662  39.384  13.620   1.813
41226W        W  663  22.641   7.753   3.723
41227W        W  664   5.748  12.847  14.382
41228W        W  665   1.344   6.245   1.440
41229W        W  666  25.052  17.202  11.429
41230W        W  667   5.360  33.456   1.853
41231W        W  668  40.917  10.141  10.452
41232W        W  669   4.422  39.388  11.990
41233W        W  670   7.779   2.912  13.828
41234W        W  671  36.408  17.217   0.327
41235W        W  672  26.487  34.011   0.250
41236W        W  673  25.204  34.938  12.535
41237W        W  674  10.242   5.436   3.658
41238W        W  675  14.325   4.764   2.799
41239W        W  676  19.760  19.111  10.031
41240W        W  677  19.200  14.286   1.286
41241W        W  678  33.901  16.602  11.598
41242W        W  679  41.905  16.264   0.968
41243W        W  680  30.997   7.819  10.437
41244W        W  681  12.267   5.319  14.782
41245W        W  682  42.319  14.624   2.799
41246W        W  683   8.357  23.066   0.351
41247W        W  684  22.238  31.144  10.541
41248W        W  685  31.048   7.253   9.925
41249W        W  686  29.503   6.822  11.528
41250W        W  687  36.388  43.929   1.923
41251W        W  688  40.543  13.146  11.535
41252W        W  689   3.947  30.618   4.724
41253W        W  690  29.055  39.369   3.828
41254W        W  691  10.233  44.494   2.879
41255W        W  692  43.437  44.435  13.344
41256W        W  693  22.052  15.124  10.960
41257W        W  694  16.155  13.281   2.740
41258W        W  695  27.522   1.931  14.470
41259W        W  696  10.280  42.329  10.525
41260W        W  697  39.019  36.968  13.838
41261W        W  698   6.818   0.928  14.922
41262W        W  699  23.601  30.492   1.447
41263W        W  700  30.540  16.764  13.359
41264W        W  701  24.215   9.790   3.261
41265W        W  702  35.860  15.649   2.886
41266W        W  703  39.412  12.843   2.294
41267W        W  704   1.428   9.181  11.425
41268W        W  705  33.031  14.224  10.952
41269W        W  706  17.773  35.063  12.852
41270W        W  707  38.429  33.039  14.512
41271W        W  708  40.375  34.883  11.557
41272W        W  709  14.182  22.082  13.893
41273W        W  710  11.762  37.486  11.917
41274W        W  711   0.783  38.433  14.341
41275W        W  712   2.795  40.896  14.344
41276W        W  713  27.155   6.288  12.554
41277W        W  714  18.733  42.005  11.065
41278W        W  715  42.970  41.963   1.277
41279W        W  716   3.221  21.532  14.416
41280W        W  717   5.215  25.217   3.681
41281W        W  718   0.951  33.925   0.250
41282W        W  719  13.785  36.985  14.384
41283W        W  720  42.451  29.510  11.466
41284W        W  721  40.832   2.399   1.222
41285W        W  722  34.497  31.493  14.352
41286W        W  723  40.522   8.174  10.897
41287W        W  724  10.149  26.200   0.874
41288W        W  725  42.982  29.520  12.554
41289W        W  726   8.309   6.847  12.455
41290W        W  727  42.807  15.205  14.484
41291W        W  728  22.132  19.595  11.593
41292W        W  729   5.763   8.855   4.158
41293W        W  730   8.309  20.665   3.164
41294W        W  731  12.693   8.309  14.947
41295W        W  732  26.121   2.857  13.985
41296W        W  733  15.306  13.726  14.461
41297W        W  734  30.463  25.500   5.155
41298W        W  735  22.530  29.043  11.410
41299W        W  736  16.072  42.435   4.210
41300W        W  737  32.972  16.721   0.341
41301W        W  738   7.737  22.683   0.340
41302W        W  739   4.819  37.977  12.858
41303W        W  740   3.249  31.088   1.874
41304W        W  741  14.684  34.905  10.642
41305W        W  742   3.802   1.801   3.816
41306W        W  743  11.754  35.482  14.770
41307W        W  744  18.707   7.842  11.570
41308W        W  745  44.827   5.287   1.228
41309W        W  746  24.717  40.392   1.822
41310W        W  747   3.369  43.778   4.151
41311W        W  748   7.303   1.808   1.811
41312W        W  749  24.071   3.436   2.868
41313W        W  750   6.290  42.793  14.304
41314W        W  751   9.885  31.450  12.055
41315W        W  752   4.738   5.208   2.309
41316W        W  753  19.689  16.640  14.912
41317W        W  754  19.050  15.666   1.866
41318W        W  755   1.770   5.199   3.857
41319W        W  756  34.039  21.723  12.404
41320W        W  757  27.588   2.729  14.438
41321W        W  758  13.713   4.394  10.509
41322W        W  759  38.843  42.433   5.164
41323W        W  760   1.913  19.772  10.949
41324W        W  761  35.089  23.656  11.863
41325W        W  762   6.316  20.102  13.895
41326W        W  763   9.887  15.663   4.168
41327W        W  764  25.505  30.973   1.243
41328W        W  765  27.126  19.123   0.854
41329W        W  766  25.607  35.531   3.709
41330W        W  767  31.590   1.301   2.688
41331W        W  768  43.898  41.313  11.502
41332W        W  769  14.184  42.834   2.682
41333W        W  770  23.016   9.203   3.370
41334W        W  771  44.315  40.966   2.329
41335W        W  772  10.205   8.182   2.718
41336W        W  773  39.443  31.062   0.270
41337W        W  774  27.152  41.968   1.815
41338W        W  775  35.081  14.204   5.203
41339W        W  776  29.005   1.341  10.476
41340W        W  777  29.097   8.302   0.405
41341W        W  778  42.997  20.698  11.598
41342W        W  779  14.255  40.864  14.942
41343W        W  780   3.376   2.286  13.505
41344W        W  781  32.495   6.790  14.396
41345W        W  782  36.587  27.182  13.938
41346W        W  783  10.733  12.734   0.785
41347W        W  784  25.211  40.875   5.671
41348W        W  785   8.382   7.908  14.945
41349W        W  786  12.163  10.338  10.539
41350W        W  787   2.335   4.805  10.636
41351W        W  788  41.907  17.655  13.339
41352W        W  789  16.102  44.471  14.371
41353W        W  790  28.095   5.287  14.974
41354W        W  791  40.493  17.702   1.397
41355W        W  792  18.667  35.402   4.801
41356W        W  793   8.180  31.939   2.861
41357W        W  794  40.399  36.089   3.684
41358W        W  795  29.494  13.821   2.816
41359W        W  796  19.766  12.221   1.917
41360W        W  797  43.897   4.782   4.599
41361W        W  798  24.697   1.286   3.817
41362W        W  799   8.224  41.963  14.423
41363W        W  800  32.899  31.981   0.737
41364W        W  801  26.531  20.550  11.600
41365W        W  802   6.291   9.323   0.282
41366W        W  803  25.581   6.686   1.261
41367W        W  804  20.255  22.725   1.425
41368W        W  805  40.904  33.453   3.182
41369W        W  806  27.035  18.588   2.292
41370W        W  807  31.477  26.080   1.848
41371W        W  808  26.070  37.557  10.430
41372W        W  809  30.964  43.847   2.198
41373W        W  810  14.754  22.103  10.530
41374W        W  811   9.705  36.374  13.862
41375W        W  812  37.053  40.890   4.813
41376W        W  813  31.534  34.071   1.725
41377W        W  814  10.639  22.235  13.449
41378W        W  815  15.232   0.331  11.518
41379W        W  816  36.364   6.735  11.077
41380W        W  817   7.716  25.591  10.505
41381W        W  818  37.371  37.035   2.880
41382W        W  819  29.951  40.384   4.324
41383W        W  820  26.688  30.544  10.568
41384W        W  821  37.421  12.286  10.546
41385W        W  822  29.574  16.649   1.271
41386W        W  823  38.482  10.822   3.335
41387W        W  824  34.006  42.830  14.322
41388W        W  825  18.244  25.136  14.843
41389W        W  826  13.134  43.885   4.349
41390W        W  827  36.479   4.253  12.918
41391W        W  828  31.584  17.744   4.735
41392W        W  829  42.942  28.974   0.453
41393W        W  830  39.514  21.051   2.740
41394W        W  831  44.993   9.265   0.410
41395W        W  832   1.910  14.107   4.661
41396W        W  833  27.126   8.674   3.270
41397W        W  834  33.413  21.632  12.505
41398W        W  835  13.287   5.395  14.877
41399W        W  836  31.634  38.902   2.888
41400W        W  837   0.857   3.325   3.349
41401W        W  838   6.234  38.431  14.278
41402W        W  839  19.217  18.759  14.515
41403W        W  840  29.982  26.464   0.822
41404W        W  841  36.962   2.743   4.716
41405W        W  842  15.773  13.774   3.196
41406W        W  843  33.880  44.851   1.789
41407W        W  844  12.764   4.820   0.865
41408W        W  845  28.593   9.726  10.527
41409W        W  846  31.638  27.105  13.945
41410W        W  847  25.564  10.676   2.230
41411W        W  848   8.318   9.272   4.274
41412W        W  849  19.247  43.308   1.391
41413W        W  850  22.637   0.909   0.829
41414W        W  851  11.287  28.948  12.005
41415W        W  852  17.256  34.436  12.494
41416W        W  853  41.476  36.412  10.610
41417W        W  854  10.812  25.656  12.488
41418W        W  855  10.280  30.983   5.127
41419W        W  856  26.466  41.477   4.146
41420W        W  857  37.002  19.106  13.375
41421W        W  858  31.985  29.162  10.411
41422W        W  859   3.825  31.051  14.839
41423W        W  860  14.651  17.576  11.927
41424W        W  861   7.195  11.707  13.926
41425W        W  862  10.700   9.307   4.340
41426W        W  863  24.221  44.945  11.004
41427W        W  864  32.920  36.353   4.616
41428W        W  865  44.770  18.087  13.522
41429W        W  866  26.694   1.298  12.942
41430W        W  867  18.742  33.455   0.935
41431W        W  868  44.493  31.142   0.292
41432W        W  869  11.322  29.574  11.906
41433W        W  870   5.850  32.523   4.158
41434W        W  871   5.325  19.755  11.094
41435W        W  872  27.489  25.037   2.213
41436W        W  873  40.031  13.134   4.163
41437W        W  874  30.656  17.682   3.663
41438W        W  875  24.984  24.550   1.250
41439W        W  876   4.829  36.093   3.314
41440W        W  877  27.090  18.261   3.214
41441W        W  878  40.972   2.958   3.324
41442W        W  879  39.867   6.886  11.902
41443W        W  880   7.271   5.804  10.587
41444W        W  881   5.931  37.571  14.939
41445W        W  882   6.808  24.658   0.730
41446W        W  883  35.468  11.269   4.613
41447W        W  884  13.775  17.170  11.470
41448W        W  885  40.358  20.698  11.551
41449W        W  886  21.227  27.139  13.486
41450W        W  887  30.508  17.791  13.339
41451W        W  888   8.890  42.961  14.780
41452W        W  889   7.407  39.022   1.856
41453W        W  890   0.441  36.937  10.949
41454W        W  891  30.552  15.734   1.783
41455W        W  892  31.455   5.398   3.157
41456W        W  893  23.518  25.085   3.824
41457W        W  894  42.004   9.373  12.860
41458W        W  895  25.146  26.124  12.432
41459W        W  896  41.506  10.150  12.926
41460W        W  897   1.478  43.371   1.379
41461W        W  898  37.471   8.245   0.748
41462W        W  899  32.478   9.203  12.426
41463W        W  900   8.859   2.831   1.809
41464W        W  901   5.914  18.629  10.548
41465W        W  902  20.556  28.484   0.726
41466W        W  903  16.747  11.700   2.713
41467W        W  904  25.970  42.380  14.911
41468W        W  905   4.939  36.065  12.076
41469W        W  906  42.334  40.412  11.944
41470W        W  907  17.118  40.869   0.806
41471W        W  908  38.468  41.419  10.511
41472W        W  909  28.032   0.422   2.853
41473W        W  910  39.980  31.427   1.419
41474W        W  911  18.558  34.888  14.969
41475W        W  912  35.570  32.048   3.841
41476W        W  913   1.733  40.852  11.573
41477W        W  914  30.085   7.771  14.455
41478W        W  915  30.953  20.192   1.346
41479W        W  916  37.854  18.696  13.349
41480W        W  917  12.139   3.888   3.829
41481W        W  918  43.961   5.210   0.358
41482W        W  919   1.432  38.565  13.026
41483W        W  920   5.409  17.063   2.214
41484W        W  921  38.535  31.555   2.775
41485W        W  922  39.056   7.255  12.495
41486W        W  923  28.075  30.928   0.840
41487W        W  924  19.136  17.134  11.410
41488W        W  925  12.236  39.994   1.783
41489W        W  926  22.230  30.124   1.827
41490W        W  927  30.498   5.707  10.983
41491W        W  928   6.271   3.356  11.991
41492W        W  929  13.142  27.049   0.896
41493W        W  930  37.933  29.545  14.407
41494W        W  931  43.009  18.655  11.056
41495W        W  932  30.111  27.602  11.604
41496W        W  933  13.220  34.547   1.832
41497W        W  934  43.948  24.578   3.859
41498W        W  935  23.212  26.700  10.496
41499W        W  936   2.782  32.908   0.738
41500W        W  937  41.892  38.064  10.546
41501W        W  938   1.307   5.760  12.900
41502W        W  939  22.648   7.294   3.758
41503W        W  940   5.415  24.479   2.294
41504W        W  941  14.098  27.538  14.280
41505W        W  942  19.082  35.912  13.843
41506W        W  943  27.517  28.047  13.813
41507W        W  944  35.953   9.782   4.250
41508W        W  945   2.923  10.367  10.151
41509W        W  946   1.749   1.460   4.614
41510W        W  947   9.877  41.913   0.262
41511W        W  948   9.780   2.466   0.307
41512W        W  949  34.433  43.290   3.323
41513W        W  950  31.402  25.670   0.726
41514W        W  951  37.071   4.312   4.655
41515W        W  952   6.682  15.206  12.863
41516W        W  953   7.353   9.853   4.639
41517W        W  954  14.109  26.655   3.207
41518W        W  955  31.978  21.214   0.391
41519W        W  956  18.228  32.030   1.861
41520W        W  957  17.678  36.487   3.782
41521W        W  958  36.476  14.244  12.062
41522W        W  959  22.135  20.227   2.299
41523W        W  960  31.924   5.724   1.240
41524W        W  961  35.389  38.509  14.389
41525W        W  962  31.617  19.144   2.669
41526W        W  963   8.198  12.274  14.456
41527W        W  964  44.772  43.310   4.207
41528W        W  965  33.421  16.127   2.741
41529W        W  966  34.394  30.593   1.855
41530W        W  967   1.954  20.653   3.253
41531W        W  968  13.269  33.954   2.400
41532W        W  969  38.824   6.795  11.441
41533W        W  970  17.288   6.396   1.311
41534W        W  971  17.766  17.684  14.337
41535W        W  972  15.306  41.536   0.351
41536W        W  973  39.494  36.582  12.554
41537W        W  974  12.726  19.683   0.738
41538W        W  975  34.374  10.772  12.016
41539W        W  976   6.859  33.971   0.334
41540W        W  977  19.548  14.709   0.391
41541W        W  978  26.699  23.534  13.999
41542W        W  979   5.410  32.909  11.084
41543W        W  980  33.106  13.148   1.281
41544W        W  981   6.402  24.064  13.035
41545W        W  982  11.680  27.057   2.312
41546W        W  983  14.331  29.555  13.409
41547W        W  984  17.689  13.215   4.121
41548W        W  985   0.873  23.639   0.762
41549W        W  986  33.030  30.442  12.434
41550W        W  987  43.479  30.488  13.390
41551W        W  988   6.402  37.888  13.385
41552W        W  989   1.884  43.384  11.004
41553W        W  990  26.180  24.504  12.558
41554W        W  991  15.674  33.093   9.992
41555W        W  992  33.021  44.339   0.379
41556W        W  993  30.933  38.072   1.356
41557W        W  994  12.842   1.379   0.391
41558W        W  995  13.616  27.071  14.824
41559W        W  996  31.116  38.458  13.496
41560W        W  997  24.185   1.797  12.490
41561W        W  998  30.075  22.144   1.434
41562W        W  999  26.588  40.539   3.261
41563W        W 1000  16.733  17.657   1.875
41564W        W 1001   5.334  30.051  13.009
41565W        W 1002  23.713  11.826   3.725
41566W        W 1003  11.166  19.575   2.373
41567W        W 1004  29.513  33.485  10.419
41568W        W 1005   1.946  44.331   0.397
41569W        W 1006  20.564  20.598  12.087
41570W        W 1007   6.735  25.618   1.243
41571W        W 1008  24.562   8.791  13.490
41572W        W 1009   4.748   8.231  14.342
41573W        W 1010  32.012  14.183   1.305
41574W        W 1011   3.948  29.593  13.397
41575W        W 1012  25.160   2.946   2.202
41576W        W 1013  23.990  37.048   4.273
41577W        W 1014  29.975   3.367  14.364
41578W        W 1015  30.938  33.605   2.369
41579W        W 1016  26.665  36.872  13.857
41580W        W 1017  21.572  19.199   2.331
41581W        W 1018  11.818  20.736   2.693
41582W        W 1019  31.560  24.590  11.895
41583W        W 1020  44.418  42.390   4.789
41584W        W 1021  30.963  16.289  13.851
41585W        W 1022  20.547  34.513   3.237
41586W        W 1023   7.252  29.142   2.781
41587W        W 1024  41.471  28.087  12.986
41588W        W 1025  10.249  11.329  11.529
41589W        W 1026   9.751   9.340  12.012
41590W        W 1027  24.720  20.057  12.973
41591W        W 1028  14.302   2.874   1.776
41592W        W 1029  43.924   5.761   2.355
41593W        W 1030  10.734  11.361   2.883
41594W        W 1031  38.071  18.783   2.250
41595W        W 1032  24.014  31.921  11.535
41596W        W 1033  41.026   0.285   2.884
41597W        W 1034  33.495  17.262  13.483
41598W        W 1035  44.853  35.368   3.273
41599W        W 1036  22.231  27.064   4.123
41600W        W 1037   6.844  14.280  13.024
41601W        W 1038  20.639  15.687  10.454
41602W        W 1039   1.923  19.604  12.945
41603W        W 1040  20.668  42.004  12.928
41604W        W 1041   8.732  10.674   4.218
41605W        W 1042  36.574  19.722  11.414
41606W        W 1043  33.588  10.306  14.880
41607W        W 1044  28.475  19.279   4.349
41608W        W 1045   3.291  10.188  12.534
41609W        W 1046  23.511  41.392  11.954
41610W        W 1047  44.277  36.997  12.071
41611W        W 1048  17.665  26.152   4.286
41612W        W 1049   8.799  31.560   0.299
41613W        W 1050   8.841  33.905  13.011
41614W        W 1051  40.536  38.830  10.150
41615W        W 1052  10.221   5.279   0.867
41616W        W 1053  41.002   0.453   1.907
41617W        W 1054   7.350   1.385   1.801
41618W        W 1055  25.532  37.908  10.935
41619W        W 1056   3.275  30.114  11.610
41620W        W 1057  12.726  21.584   4.330
41621W        W 1058   3.349  28.971  13.403
41622W        W 1059   6.775   6.227  12.875
41623W        W 1060  25.199  16.794  12.975
41624W        W 1061  20.055   6.853  11.598
41625W        W 1062  28.621   8.883   2.262
41626W        W 1063   9.234  30.934   4.790
41627W        W 1064  29.114  14.826  13.953
41628W        W 1065  32.123   9.801  12.049
41629W        W 1066   2.768  22.046  13.931
41630W        W 1067  14.206  44.418  10.579
41631W        W 1068  17.617  35.099   0.371
41632W        W 1069  44.781  41.974   1.776
41633W        W 1070   4.757  11.762  12.941
41634W        W 1071  26.623  21.545  12.878
41635W        W 1072  16.118  38.869   5.769
41636W        W 1073  38.563  27.674   4.828
41637W        W 1074  10.210  15.133   0.483
41638W        W 1075  20.067   3.933   4.706
41639W        W 1076  23.539  10.191   1.432
41640W        W 1077  29.610  19.129   3.644
41641W        W 1078  26.022   1.401  14.929
41642W        W 1079  22.727  33.451   3.153
41643W        W 1080  15.176  30.002  10.444
41644W        W 1081  41.329  38.384   4.319
41645W        W 1082   8.708  40.827  11.094
41646W        W 1083  18.090   6.819   4.805
41647W        W 1084  43.897   6.857  10.986
41648W        W 1085  42.486  31.093   1.433
41649W        W 1086  29.601  33.619  12.456
41650W        W 1087  39.047  44.261   3.279
41651W        W 1088  23.527  42.893   3.656
41652W        W 1089  27.167  26.160  11.399
41653W        W 1090   1.777  40.869   1.819
41654W        W 1091   0.976  42.295  14.888
41655W        W 1092  36.376  38.936   1.444
41656W        W 1093   3.736   0.473  10.923
41657W        W 1094  30.533   1.369  12.567
41658W        W 1095   3.442  13.111   3.149
41659W        W 1096  40.486  42.993   5.149
41660W        W 1097  31.032  17.210   5.117
41661W        W 1098  30.971   2.367   4.239
41662W        W 1099  17.598  40.447   2.853
41663W        W 1100  33.409   8.741   1.739
41664W        W 1101  27.516  41.443   3.722
41665W        W 1102  23.053  21.123   0.849
41666W        W 1103  29.664  10.724   4.229
41667W        W 1104  26.561  37.000   2.199
41668W        W 1105  35.540  22.156   3.178
41669W        W 1106  44.382  38.525  11.450
41670W        W 1107   6.865   6.288  11.010
41671W        W 1108  37.464  33.885  13.964
41672W        W 1109  31.516  15.113  14.505
41673W        W 1110  21.257  29.164  14.873
41674W        W 1111  14.108   8.769   1.738
41675W        W 1112  26.587   9.671   1.830
41676W        W 1113   1.345  41.930  11.049
41677W        W 1114  13.262  16.171  10.907
41678W        W 1115  25.037   6.255   0.965
41679W        W 1116  35.901  21.172   3.308
41680W        W 1117  42.314   6.861  12.391
41681W        W 1118  20.623  34.051   0.419
41682W        W 1119  22.548  11.825  14.406
41683W        W 1120  30.044  20.577  12.413
41684W        W 1121  19.173   7.667   4.237
41685W        W 1122  13.769  38.922  11.031
41686W        W 1123  37.371  22.717   4.694
41687W        W 1124  30.535  28.653  14.397
41688W        W 1125  28.935  36.097  13.035
41689W        W 1126  19.063  12.783  14.425
41690W        W 1127  33.093  36.056  14.368
41691W        W 1128  10.371  37.944  13.489
41692W        W 1129   3.787  39.943  14.943
41693W        W 1130  29.627  41.982   1.313
41694W        W 1131  35.395  19.256  10.580
41695W        W 1132   9.845  16.601   2.299
41696W        W 1133  10.727  28.015  12.424
41697W        W 1134  34.060  41.499   3.851
41698W        W 1135  28.470  13.267   4.700
41699W        W 1136  20.572  20.158   1.354
41700W        W 1137  19.045  15.776   4.824
41701W        W 1138   1.807  14.155  11.981
41702W        W 1139  24.567  25.597   2.327
41703W        W 1140  32.019  20.752  12.850
41704W        W 1141  40.915   0.966  12.413
41705W        W 1142  36.904  21.033  12.849
41706W        W 1143  39.969   6.423   1.915
41707W        W 1144  33.910  35.542  11.111
41708W        W 1145  44.332   0.788   3.870
41709W        W 1146  42.318   2.231  13.455
41710W        W 1147  19.644  30.067  11.573
41711W        W 1148  14.697  37.061  11.104
41712W        W 1149   9.856  44.912   2.373
41713W        W 1150  32.412   3.779   4.313
41714W        W 1151  21.591  30.623   4.299
41715W        W 1152  41.007  43.000   1.821
41716W        W 1153  40.924  19.074  13.844
41717W        W 1154   7.358  41.522   2.299
41718W        W 1155  40.850  41.891  12.039
41719W        W 1156  30.431  33.571  14.947
41720W        W 1157  41.981  15.692   1.737
41721W        W 1158  22.121  10.757   3.166
41722W        W 1159  25.630   3.457  12.072
41723W        W 1160   9.230  39.370  10.908
41724W        W 1161  13.675  26.103  11.015
41725W        W 1162   9.314  11.199  11.606
41726W        W 1163   8.393  24.114   4.303
41727W        W 1164  11.363   8.392   3.296
41728W        W 1165  41.454  13.221   2.803
41729W        W 1166  29.532  42.304   4.713
41730W        W 1167   7.712  26.583   0.452
41731W        W 1168  25.111   0.409  13.361
41732W        W 1169  10.331  44.770  14.509
41733W        W 1170  34.404  30.468  12.861
41734W        W 1171   9.238  35.380   1.737
41735W        W 1172  38.830  30.557  11.066
41736W        W 1173  10.330  30.052   0.448
41737W        W 1174  35.591  35.400   0.821
41738W        W 1175  34.432  13.688  11.537
41739W        W 1176   2.273  34.053   2.342
41740W        W 1177  35.488  41.377   1.796
41741W        W 1178  27.497  37.945  12.082
41742W        W 1179  21.658  39.038  10.097
41743W        W 1180  24.549  32.912  12.455
41744W        W 1181  10.681  19.558   3.863
41745W        W 1182  26.117  29.135   4.802
41746W        W 1183  31.896  12.628  10.600
41747W        W 1184  39.812  14.689  13.791
41748W        W 1185  24.552  19.593  12.475
41749W        W 1186  20.626  23.731   1.859
41750W        W 1187   8.325  28.179   3.806
41751W        W 1188  31.078  29.046   3.336
41752W        W 1189  22.644  37.027  13.359
41753W        W 1190  18.293  39.960   2.221
41754W        W 1191  36.053  16.218   3.634
41755W        W 1192  33.616  32.605  10.573
41756W        W 1193  38.530  44.837  14.491
41757W        W 1194  33.055  16.784   4.675
41758W        W 1195  41.418  39.410  13.391
41759W        W 1196  42.982  43.001  14.461
41760W        W 1197  29.483   2.452   1.295
41761W        W 1198  39.815   9.773   2.390
41762W        W 1199   5.830  43.377  10.624
41763W        W 1200   0.389  28.008   2.241
41764W        W 1201  44.298  42.431   4.283
41765W        W 1202   8.732   1.817   4.210
41766W        W 1203  31.045  25.144  12.492
41767W        W 1204  36.560  27.964   2.295
41768W        W 1205  44.453  41.292   2.863
41769W        W 1206   9.209  31.414  11.461
41770W        W 1207  35.386  22.657   2.715
41771W        W 1208  29.145  40.912   4.826
41772W        W 1209  22.705  37.555   2.360
41773W        W 1210   5.199  42.372   1.710
41774W        W 1211  17.251   9.388   0.928
41775W        W 1212  28.962  21.670  11.532
41776W        W 1213  23.653  34.549  13.037
41777W        W 1214  25.182  32.020   1.792
41778W        W 1215  22.200   1.952   4.309
41779W        W 1216  19.219   8.389   1.876
41780W        W 1217  28.107  35.549   2.217
41781W        W 1218  34.599  42.330  11.492
41782W        W 1219  33.963  40.369  14.478
41783W        W 1220  29.168  44.990  12.552
41784W        W 1221  26.099  27.583   3.228
41785W        W 1222  13.763   2.919  13.348
41786W        W 1223  40.922  38.381   3.644
41787W        W 1224   3.448  10.696   3.270
41788W        W 1225  40.361  12.180  11.049
41789W        W 1226  13.132   1.479  12.090
41790W        W 1227   6.234  23.546   2.216
41791W        W 1228   6.862   6.736   2.286
41792W        W 1229  29.982  23.166  12.003
41793W        W 1230  26.515  16.193   2.349
41794W        W 1231  31.541  11.622  13.978
41795W        W 1232  38.384  41.850  10.982
41796W        W 1233  19.667   1.245  12.511
41797W        W 1234  26.490  30.921  13.373
41798W        W 1235  37.336  20.665  13.047
41799W        W 1236  21.124   0.949  12.963
41800W        W 1237  41.445  27.094   4.336
41801W        W 1238   9.761  16.695   0.244
41802W        W 1239  10.264  34.104   0.296
41803W        W 1240  44.269   3.908  12.034
41804W        W 1241  31.133   5.381   1.300
41805W        W 1242   0.969  25.573  11.990
41806W        W 1243  44.349   1.770   2.803
41807W        W 1244  16.245  42.290   2.860
41808W        W 1245  17.692   8.284  10.518
41809W        W 1246  25.502  29.107  13.885
41810W        W 1247  14.282  12.212   3.174
41811W        W 1248  36.086  35.044  14.830
41812W        W 1249  17.243  32.630  12.479
41813W        W 1250  19.616  34.093   0.749
41814W        W 1251   1.284  41.445   1.919
41815W        W 1252  33.945  39.857   2.725
41816W        W 1253   6.880  25.073   1.859
41817W        W 1254  17.280  23.037  12.361
41818W        W 1255  10.318  41.415   3.655
41819W        W 1256  36.581  29.029  11.505
41820W        W 1257  24.037   2.835   3.334
41821W        W 1258  15.683  34.060   2.315
41822W        W 1259   1.838   8.727  14.298
41823W        W 1260  16.093  16.117  13.540
41824W        W 1261  42.401  12.256   3.152
41825W        W 1262  38.381  37.978   3.210
41826W        W 1263   1.469  40.503   1.869
41827W        W 1264  19.750  28.086   1.227
41828W        W 1265  27.979  35.969  14.429
41829W        W 1266  13.737  28.467   4.768
41830W        W 1267   1.370  39.344   3.851
41831W        W 1268  40.545  35.863  10.457
41832W        W 1269  32.595  38.953   2.831
41833W        W 1270   9.752   5.814   0.421
41834W        W 1271  34.944  33.948   1.883
41835W        W 1272   5.335   2.720   2.677
41836W        W 1273  32.104  16.810  12.828
41837W        W 1274  14.606  28.987   0.810
41838W        W 1275  18.285   6.396  10.955
41839W        W 1276  29.553  40.502  10.138
41840W        W 1277   9.881   9.280  11.517
41841W        W 1278  32.955  10.704   1.335
41842W        W 1279  40.920  12.284  13.932
41843W        W 1280   2.953   3.934   1.746
41844W        W 1281  15.585  15.151  12.429
41845W        W 1282  23.167   3.750   2.746
41846W        W 1283  16.286   5.390  13.415
41847W        W 1284  36.460   7.347  12.941
41848W        W 1285  28.609  19.110   1.779
41849W        W 1286  21.620  29.513   1.733
41850W        W 1287   4.401  18.550   2.703
41851W        W 1288  23.148  20.052   0.306
41852W        W 1289   8.673  41.452   4.729
41853W        W 1290  36.544  20.608   2.406
41854W        W 1291  22.068  21.253   2.193
41855W        W 1292   1.370  30.082  11.380
41856W        W 1293  37.340   4.331   2.327
41857W        W 1294  10.320  38.418  14.985
41858W        W 1295  16.309  12.717   2.308
41859W        W 1296  17.736  30.559   1.734
41860W        W 1297  26.556  40.525   3.837
41861W        W 1298   4.218  29.034  11.959
41862W        W 1299  38.999   5.436   3.750
41863W        W 1300  24.620  10.333  11.504
41864W        W 1301   0.779  16.209  11.576
41865W        W 1302  28.991   4.882  10.606
41866W        W 1303  24.036  24.670  10.146
41867W        W 1304  40.846  18.668   0.727
41868W        W 1305  15.208  12.821  11.125
41869W        W 1306  10.355  20.654   1.364
41870W        W 1307   3.715  29.455   2.849
41871W        W 1308  44.388  40.848   0.271
41872W        W 1309   2.886  36.918  13.459
41873W        W 1310   0.833  15.206  14.841
41874W        W 1311  38.821  29.946   0.438
41875W        W 1312  18.704  34.538  11.055
41876W        W 1313  23.025   5.256  11.998
41877W        W 1314  22.509  13.763  11.396
41878W        W 1315  26.664  38.571   0.292
41879W        W 1316  36.049   8.862   3.808
41880W        W 1317   0.299  40.964   3.325
41881W        W 1318  43.291  12.206  11.009
41882W        W 1319  43.374  14.659   3.317
41883W        W 1320  41.339   4.445   3.766
41884W        W 1321   4.741   1.934  14.346
41885W        W 1322  32.926  44.928  12.376
41886W        W 1323  11.750  19.664  10.616
41887W        W 1324  13.838  24.208   0.368
41888W        W 1325  35.446  26.994  11.536
41889W        W 1326  10.373  31.097  10.944
41890W        W 1327   3.952  18.637  14.870
41891W        W 1328   6.322  21.550  12.474
41892W        W 1329  18.214  20.159  11.979
41893W        W 1330  28.110  35.970   0.277
41894W        W 1331  43.399   6.221   1.245
41895W        W 1332  39.998   4.407  12.523
41896W        W 1333  24.495  26.990   1.415
41897W        W 1334  27.126   9.710   2.294
41898W        W 1335   3.385  14.154   1.318
41899W        W 1336  32.520  18.701   1.215
41900W        W 1337  10.868  12.662   1.848
41901W        W 1338   9.374  38.860  10.909
41902W        W 1339   6.885  43.870  13.797
41903W        W 1340   7.820  19.105  14.995
41904W        W 1341  25.161  43.989  14.783
41905W        W 1342  21.139   3.318   3.356
41906W        W 1343  31.090  35.914   1.216
41907W        W 1344  14.168  28.938  10.611
41908W        W 1345  33.512   1.801  14.435
41909W        W 1346  12.643   9.359  11.005
41910W        W 1347  14.136  19.712   3.862
41911W        W 1348  28.936  42.397   2.333
41912W        W 1349  23.713   1.288   4.837
41913W        W 1350  40.822   5.438  11.033
41914W        W 1351   1.369   6.686   0.364
41915W        W 1352  33.976  44.930   4.609
41916W        W 1353  24.697  25.108   0.365
41917W        W 1354  28.553  15.149   3.318
41918W        W 1355  16.644  41.327   4.148
41919W        W 1356   3.306  40.518   1.280
41920W        W 1357  32.504  18.275   4.831
41921W        W 1358  35.031  30.085  11.918
41922W        W 1359  35.093  39.333  12.995
41923W        W 1360   2.862  44.897   4.697
41924W        W 1361  21.613  43.883  12.010
41925W        W 1362  13.837  25.064   2.191
41926W        W 1363  10.144  26.196   1.794
41927W        W 1364  39.009  28.021   1.783
41928W        W 1365   7.730  39.821   1.740
41929W        W 1366   3.349  27.463   3.824
41930W        W 1367  16.289  24.604   2.292
41931W        W 1368  12.845  19.571  10.448
41932W        W 1369  31.147  23.060   3.712
41933W        W 1370  37.901  40.459  14.425
41934W        W 1371  16.188  15.814   3.707
41935W        W 1372  39.836   5.902  13.442
41936W        W 1373  25.190  21.694   2.674
41937W        W 1374   4.889  32.467   1.290
41938W        W 1375  33.120  25.041   0.421
41939W        W 1376   4.869  37.861   0.957
41940W        W 1377   0.455  30.990   4.659
41941W        W 1378   7.908   1.801  13.019
41942W        W 1379  23.704  29.496   2.191
41943W        W 1380   1.435  29.172  11.022
41944W        W 1381  15.222  36.035   0.317
41945W        W 1382  42.388  15.578   1.365
41946W        W 1383  33.614  37.040   0.359
41947W        W 1384  28.437  43.509  13.431
41948W        W 1385  21.542  35.103   4.648
41949W        W 1386   3.802  39.964  11.925
41950W        W 1387  32.437  43.316   4.803
41951W        W 1388  26.607   0.381  11.529
41952W        W 1389  27.963  19.088   2.714
41953W        W 1390   1.397  26.480   4.664
41954W        W 1391  32.976   9.168  11.958
41955W        W 1392  44.406  12.254  13.963
41956W        W 1393   3.869  13.217   5.710
41957W        W 1394  43.301  19.560   3.714
41958W        W 1395  28.570  39.931   4.339
41959W        W 1396  38.432  10.825  12.985
41960W        W 1397  24.681  21.204  13.870
41961W        W 1398  10.242  22.057   9.979
41962W        W 1399  33.547  35.510   9.925
41963W        W 1400  12.850  19.099   0.810
41964W        W 1401  38.346   6.267   4.294
41965W        W 1402  29.148  39.849   5.744
41966W        W 1403  11.629   5.350  12.021
41967W        W 1404  20.060  29.649  11.424
41968W        W 1405  19.211  39.323   2.247
41969W        W 1406  12.671  20.203   2.890
41970W        W 1407  35.899  22.511  14.798
41971W        W 1408   0.295  20.714  12.974
41972W        W 1409  18.745  23.610   4.667
41973W        W 1410  14.208  40.455   0.298
41974W        W 1411   2.364  15.700  10.103
41975W        W 1412  24.152  39.813  11.914
41976W        W 1413  41.793   6.306   2.720
41977W        W 1414  38.362  36.402   2.717
41978W        W 1415   8.727  33.525   1.728
41979W        W 1416  28.467  29.660  14.402
41980W        W 1417  41.037  21.181  12.554
41981W        W 1418  12.137  33.999   0.269
41982W        W 1419  44.413  24.590  13.876
41983W        W 1420   5.268  13.281   4.761
41984W        W 1421  41.892  37.476   1.715
41985W        W 1422  23.530  11.712   3.310
41986W        W 1423  12.307  30.578  12.498
41987W        W 1424  40.524  12.247  11.941
41988W        W 1425  26.000  12.650   3.347
41989W        W 1426  17.174  17.604  14.024
41990W        W 1427  34.002  29.468  14.429
41991W        W 1428  42.867  15.714   1.362
41992W        W 1429   1.773  16.208  12.833
41993W        W 1430  11.688   5.761   1.407
41994W        W 1431  30.930  42.781  14.344
41995W        W 1432  40.028  10.215   3.210
41996W        W 1433  14.750  37.490  10.556
41997W        W 1434  21.089   5.318  13.040
41998W        W 1435   9.378  28.118   3.254
41999W        W 1436  43.358   8.830  11.863
42000W        W 1437  31.009  17.180  13.323
42001W        W 1438  36.346  18.740   3.714
42002W        W 1439   1.244  13.743  14.326
42003W        W 1440  36.457   2.926  12.564
42004W        W 1441   6.397  41.997   1.217
42005W        W 1442  29.454  26.676  12.058
42006W        W 1443  39.929  23.526   0.937
42007W        W 1444  16.088   4.274  12.467
42008W        W 1445  42.871  24.497   4.270
42009W        W 1446  25.634  17.629   0.882
42010W        W 1447  25.081  24.532  11.980
42011W        W 1448  32.399   6.854   2.249
42012W        W 1449  15.105  29.946  12.343
42013W        W 1450  18.638  16.747  11.403
42014W        W 1451  32.423  30.034   0.456
42015W        W 1452   8.349  22.642   4.288
42016W        W 1453  32.116  37.477   1.243
42017W        W 1454  37.508  12.745  14.464
42018W        W 1455  11.301  11.693   1.718
42019W        W 1456  20.601  31.981   3.271
42020W        W 1457   3.314   9.875   4.224
42021W        W 1458  10.632  24.024   0.910
42022W        W 1459  24.165  16.625   1.429
42023W        W 1460   2.835  35.985   3.709
42024W        W 1461  13.144  31.485  12.379
42025W        W 1462  25.078   5.840  12.013
42026W        W 1463  34.459   8.177   0.790
42027W        W 1464  42.283  24.592   3.696
42028W        W 1465   3.799  19.138  11.888
42029W        W 1466  42.329  27.533  12.842
42030W        W 1467   8.737  36.038   1.838
42031W        W 1468   4.310  37.034  11.479
42032W        W 1469   7.854   1.916  11.450
42033W        W 1470  26.590  35.078  12.012
42034W        W 1471  15.768  32.539   4.352
42035W        W 1472  23.114  35.956   1.694
42036W        W 1473  36.932  28.639   3.811
42037W        W 1474   6.336  38.945   3.724
42038W        W 1475  40.373  40.024  11.579
42039W        W 1476  32.533  13.198   2.229
42040W        W 1477  39.925  38.908   0.774
42041W        W 1478  27.645  19.231   4.275
42042W        W 1479  12.735  30.499  10.976
42043W        W 1480  32.546  29.593   2.737
42044W        W 1481  37.903  27.655   0.337
42045W        W 1482  25.103   2.400  13.535
42046W        W 1483  44.819  21.621  12.975
42047W        W 1484   7.387  44.259   3.807
42048W        W 1485  37.381  15.687  11.463
42049W        W 1486   0.887   8.700   4.266
42050W        W 1487   5.420   5.733  11.026
42051W        W 1488  30.094  32.542   4.246
42052W        W 1489  26.097  36.888  14.301
42053W        W 1490  42.949  37.896  12.040
42054W        W 1491  19.116   6.791  12.950
42055W        W 1492   5.692  10.676   2.366
42056W        W 1493   8.863  13.819  14.960
42057W        W 1494   9.879   6.814   2.407
42058W        W 1495  32.003   3.812  11.881
42059W        W 1496   9.651  13.655   1.311
42060W        W 1497  16.112  24.672   4.166
42061W        W 1498  27.650  23.603  13.378
42062W        W 1499  39.021   0.931   2.258
42063W        W 1500  20.625  25.084  13.496
42064W        W 1501  40.017  41.404  13.534
42065W        W 1502  31.008   3.355   2.305
42066W        W 1503  32.135  38.558   9.948
42067W        W 1504  21.668  27.145   0.913
42068W        W 1505  38.468   4.441   2.375
42069W        W 1506  13.838   4.298  13.878
42070W        W 1507  31.586  31.566   1.719
42071W        W 1508  20.152   3.950   1.268
42072W        W 1509  43.400  26.046   1.433
42073W        W 1510   9.162  44.489   3.341
42074W        W 1511   1.925  23.199   4.278
42075W        W 1512  43.322  25.503   2.370
42076W        W 1513  30.153  34.991   4.835
42077W        W 1514  44.446   2.953  12.041
42078W        W 1515   4.753  41.401   4.231
42079W        W 1516  38.550  44.841  14.826
42080W        W 1517  29.137  15.677   4.774
42081W        W 1518  26.471  38.840   1.324
42082W        W 1519  11.230   4.281  14.443
42083W        W 1520  38.342  16.199  13.986
42084W        W 1521  37.379  41.302   1.213
42085W        W 1522   9.787  15.208   3.755
42086W        W 1523   4.745  25.700   2.733
42087W        W 1524  21.086  26.480   4.215
42088W        W 1525  17.085  13.195  10.907
42089W        W 1526   9.697  29.114   0.393
42090W        W 1527  17.769  20.712   4.184
42091W        W 1528   2.341  42.784  13.444
42092W        W 1529   7.766  24.561   1.232
42093W        W 1530   8.351  12.347  14.771
42094W        W 1531   8.284   3.743  11.098
42095W        W 1532  30.088  22.044  11.083
42096W        W 1533  29.531  31.144   1.436
42097W        W 1534  25.071  30.575  10.019
42098W        W 1535  31.468   6.394   2.256
42099W        W 1536  30.624  35.857  14.016
42100W        W 1537   1.844  38.911  14.943
42101W        W 1538  13.245  39.888  14.015
42102W        W 1539  29.938   7.329  11.476
42103W        W 1540  35.987   6.367  11.439
42104W        W 1541  32.038  38.944  10.969
42105W        W 1542  44.503  27.045   1.809
42106W        W 1543   2.446   6.187   1.888
42107W        W 1544  41.812  19.087   0.836
42108W        W 1545  37.981   6.826  12.008
42109W        W 1546  32.133  27.570   1.712
42110W        W 1547  12.344   2.255   4.692
42111W        W 1548  19.680  12.297  14.927
42112W        W 1549  25.666   6.744   2.861
42113W        W 1550   9.644  22.183   4.336
42114W        W 1551  24.062  18.624   0.251
42115W        W 1552  39.922   0.928   0.477
42116W        W 1553  23.103  39.348  10.463
42117W        W 1554  26.522  22.169  13.337
42118W        W 1555  40.483  34.116  10.968
42119W        W 1556   3.851  31.000   2.227
42120W        W 1557  11.284  41.003   2.192
42121W        W 1558  11.778  26.175  10.145
42122W        W 1559  11.730  10.153   2.695
42123W        W 1560   8.655  18.711  12.446
42124W        W 1561  37.423  11.218   1.318
42125W        W 1562  19.550  16.272   1.886
42126W        W 1563  40.840  27.605   3.251
42127W        W 1564  26.463   1.943  13.476
42128W        W 1565  12.677  27.539   0.730
42129W        W 1566  16.647  22.190   4.131
42130W        W 1567  28.962  27.040   4.624
42131W        W 1568  41.926   3.940  11.005
42132W        W 1569  28.090  32.570  11.088
42133W        W 1570  11.691   9.325  14.901
42134W        W 1571  12.311  22.098  13.318
42135W        W 1572  23.089  21.089   2.791
42136W        W 1573  11.162   4.753  10.134
42137W        W 1574  21.691  42.820   0.427
42138W        W 1575  15.597   0.855   4.115
42139W        W 1576  32.565  38.460   2.263
42140W        W 1577   1.314  38.494   3.667
42141W        W 1578  27.510  33.005   1.856
42142W        W 1579  38.064  37.895  13.462
42143W        W 1580  13.810   1.423   0.878
42144W        W 1581  29.425  12.289  12.504
42145W        W 1582   7.269   9.792   0.249
42146W        W 1583  35.357   7.848  14.971
42147W        W 1584  16.724   5.895  10.585
42148W        W 1585  34.383  24.633   0.391
42149W        W 1586  23.044  35.452  14.964
42150W        W 1587   3.797  26.178  12.454
42151W        W 1588  35.600  14.794   4.822
42152W        W 1589  25.580  44.461   1.405
42153W        W 1590  39.838  40.044   2.833
42154W        W 1591  37.083  18.128   4.686
42155W        W 1592  35.091  25.199   3.837
42156W        W 1593   5.851  25.693   4.272
42157W        W 1594  43.877  12.784   3.248
42158W        W 1595  31.468   1.429   1.930
42159W        W 1596  23.031  42.963  14.441
42160W        W 1597  39.904  30.414  14.884
42161W        W 1598  26.968  32.550  14.881
42162W        W 1599  39.058   7.199  14.764
42163W        W 1600   0.287  39.514  14.468
42164W        W 1601  24.617  23.037   3.263
42165W        W 1602   7.330   1.245   4.820
42166W        W 1603  33.036   2.725   4.243
42167W        W 1604   7.737  10.728   0.879
42168W        W 1605  17.188   1.407  12.005
42169W        W 1606  18.667  18.665  11.883
42170W        W 1607  17.215  43.352   1.916
42171W        W 1608  15.774  26.615   4.233
42172W        W 1609  35.436  23.161   3.829
42173W        W 1610  18.744  34.427   4.802
42174W        W 1611  35.948  18.174  13.916
42175W        W 1612  44.329  12.710  12.485
42176W        W 1613  37.836  41.325  11.438
42177W        W 1614   2.734   6.770  10.584
42178W        W 1615  32.076  19.762   0.803
42179W        W 1616   0.444  10.788   0.444
42180W        W 1617  32.001   5.861   4.804
42181W        W 1618  13.232  39.538   0.459
42182W        W 1619  30.001  29.561  13.499
42183W        W 1620  39.318  21.747  14.917
42184W        W 1621  22.028   3.376  13.882
42185W        W 1622  20.708   3.282   0.387
42186W        W 1623  18.205   6.774   3.725
42187W        W 1624  20.765  28.005   3.718
42188W        W 1625  40.904  31.645   0.763
42189W        W 1626   5.877  24.144  12.416
42190W        W 1627   2.375  36.536  12.557
42191W        W 1628  26.103  10.309   4.180
42192W        W 1629   7.710  22.650   2.182
42193W        W 1630  13.648  21.139  14.782
42194W        W 1631  13.620  37.504  12.520
42195W        W 1632  19.669  19.573   2.662
42196W        W 1633  28.183   7.390  10.475
42197W        W 1634  41.358   8.680  14.859
42198W        W 1635   2.471  42.428   0.736
42199W        W 1636   9.866  13.233  12.976
42200W        W 1637  26.676   7.354   0.248
42201W        W 1638  39.525  43.372  12.907
42202W        W 1639  15.689  27.950   5.180
42203W        W 1640   6.347   5.237   0.902
42204W        W 1641  28.061  15.120   0.388
42205W        W 1642  15.235  43.945   0.883
42206W        W 1643  22.079  22.656  14.295
42207W        W 1644  43.833   7.869   3.802
42208W        W 1645  14.672  20.713  14.017
42209W        W 1646  29.033  20.084  13.359
42210W        W 1647   0.919  29.429  12.970
42211W        W 1648  35.579  33.429  14.944
42212W        W 1649  13.178   4.705  13.042
42213W        W 1650  42.974   0.918   1.809
42214W        W 1651   1.905  32.921   4.792
42215W        W 1652  37.384  21.637   3.230
42216W        W 1653  27.163  43.783   1.252
42217W        W 1654  32.055  34.479  13.018
42218W        W 1655  12.698   2.385  14.367
42219W        W 1656  22.174   1.876  10.908
42220W        W 1657  44.454  27.126  13.896
42221W        W 1658  20.197  14.827  12.090
42222W        W 1659  33.584  20.223   3.752
42223W        W 1660  42.780   6.309   5.309
42224W        W 1661  26.093  10.359  11.945
42225W        W 1662  35.968   2.887  10.531
42226W        W 1663  20.530  10.144   0.351
42227W        W 1664   3.709  27.650   0.770
42228W        W 1665  24.548  44.489   1.874
42229W        W 1666  18.647  11.351   2.816
42230W        W 1667  12.350  21.641   2.755
42231W        W 1668   4.350  26.582  11.902
42232W        W 1669  12.174  14.195  10.573
42233W        W 1670  25.520   3.242   2.879
42234W        W 1671   0.880  44.409  11.101
42235W        W 1672  43.333   5.894   3.733
42236W        W 1673  40.428  39.060   5.182
42237W        W 1674  19.774  23.640   9.460
42238W        W 1675  39.523  17.228  14.984
42239W        W 1676  26.205  10.293   2.723
42240W        W 1677  19.187  41.330   2.766
42241W        W 1678  13.324  22.083  12.349
42242W        W 1679  17.189  43.339  11.524
42243W        W 1680  28.004  27.047   0.901
42244W        W 1681  44.372  20.120   3.748
42245W        W 1682  33.097  43.947  11.973
42246W        W 1683  30.001  28.087  11.386
42247W        W 1684   9.827   7.365  13.327
42248W        W 1685  24.722   3.320  11.861
42249W        W 1686   9.286  43.907  11.026
42250W        W 1687   7.263   0.843   3.182
42251W        W 1688  29.118  27.514  14.334
42252W        W 1689  20.218  37.082  11.995
42253W        W 1690  31.625  12.750   4.643
42254W        W 1691  44.874  13.710  12.488
42255W        W 1692  13.832  39.016  14.359
42256W        W 1693   2.781  31.603   2.414
42257W        W 1694  42.945  26.951  11.608
42258W        W 1695  27.123   3.301  13.890
42259W        W 1696  21.700  22.744  13.475
42260W        W 1697  33.543   0.921  10.935
42261W        W 1698  38.477  10.141  14.867
42262W        W 1699  37.447  21.535   4.654
42263W        W 1700   4.235   9.763  11.489
42264W        W 1701   4.324  23.144  12.975
42265W        W 1702  18.066  14.767  11.028
42266W        W 1703  41.934  25.979   0.825
42267W        W 1704  30.642  29.554   4.154
42268W        W 1705  11.139   8.266  14.275
42269W        W 1706  20.228  19.262  11.931
42270W        W 1707  14.154  20.077   3.667
42271W        W 1708  22.552  11.220   5.629
42272W        W 1709  37.063  33.018  10.590
42273W        W 1710  43.350  10.225   2.297
42274W        W 1711  20.676  24.656  11.884
42275W        W 1712  13.136  24.596  12.457
42276W        W 1713  19.597   1.396  13.408
42277W        W 1714  19.540   9.303   4.669
42278W        W 1715  17.771  11.730   2.213
42279W        W 1716   6.191  31.013  13.926
42280W        W 1717  11.141  17.757  12.386
42281W        W 1718  40.845  34.878  10.467
42282W        W 1719  13.636  21.137  13.520
42283W        W 1720  24.988   4.874   3.657
42284W        W 1721  38.504  39.401  10.997
42285W        W 1722   8.833  26.002  13.920
42286W        W 1723  31.540  33.623  12.948
42287W        W 1724  17.568  12.769  11.430
42288W        W 1725   8.810  16.776  11.944
42289W        W 1726  22.210  12.689   0.869
42290W        W 1727   5.865   1.785   0.273
42291W        W 1728  26.512  23.211  10.451
42292W        W 1729  37.532   8.260  11.532
42293W        W 1730   1.843  25.976   4.719
42294W        W 1731  21.607  40.308   1.911
42295W        W 1732   3.895   9.874  12.574
42296W        W 1733  44.898  41.029   2.697
42297W        W 1734   9.302  43.888   4.114
42298W        W 1735  22.617   9.236  13.429
42299W        W 1736  12.637   3.857   0.864
42300W        W 1737   8.228   3.237   0.445
42301W        W 1738  37.548  24.506  10.586
42302W        W 1739   3.383  22.642   1.420
42303W        W 1740  21.110  23.010   1.721
42304W        W 1741  19.749  28.102   0.877
42305W        W 1742   5.277  13.757  14.815
42306W        W 1743  33.383  25.137  13.855
42307W        W 1744  16.211  40.367  13.436
42308W        W 1745  11.325  42.522   3.262
42309W        W 1746   3.758  10.766  10.128
42310W        W 1747  43.816  26.179  14.905
42311W        W 1748  23.155   2.939   4.704
42312W        W 1749  26.468  42.030   0.422
42313W        W 1750   5.326  21.019   4.313
42314W        W 1751  41.039  34.879   2.377
42315W        W 1752   5.389  14.106   0.889
42316W        W 1753   6.860   7.894  14.493
42317W        W 1754  10.317  31.591  12.948
42318W        W 1755  39.065   5.765   1.895
42319W        W 1756  21.581   2.448  14.376
42320W        W 1757  28.125  37.955  10.997
42321W        W 1758  13.797  20.580  14.986
42322W        W 1759  29.461  15.733  14.878
42323W        W 1760  44.911  28.171  14.350
42324W        W 1761   2.343   4.861  12.861
42325W        W 1762  40.428  22.690   0.758
42326W        W 1763  21.034   0.895   4.132
42327W        W 1764  39.330   2.398  13.956
42328W        W 1765  31.992  43.869  12.536
42329W        W 1766  25.073  38.488  10.458
42330W        W 1767  24.524   6.738  10.457
42331W        W 1768  35.981  12.619   1.430
42332W        W 1769  22.072  12.287  11.862
42333W        W 1770  41.910  39.916   5.215
42334W        W 1771  21.253  13.193  11.553
42335W        W 1772  35.069  33.434   4.296
42336W        W 1773   8.746  29.629   2.795
42337W        W 1774  10.165  43.343  14.885
42338W        W 1775  22.569  34.539  10.420
42339W        W 1776   4.287  15.722   3.174
42340W        W 1777   1.771  42.455   1.233
42341W        W 1778  25.663  11.629  12.079
42342W        W 1779  30.153  39.556  14.365
42343W        W 1780  14.276  33.542  10.995
42344W        W 1781  44.313   0.255  10.581
42345W        W 1782  20.073   6.428  14.324
42346W        W 1783  27.470  24.637   2.750
42347W        W 1784  20.237  32.536  11.511
42348W        W 1785  31.951  33.571  10.916
42349W        W 1786  41.042  42.312  11.123
42350W        W 1787  12.246   8.748  12.417
42351W        W 1788  18.705  17.089  11.900
42352W        W 1789  33.538   6.784  13.817
42353W        W 1790  14.652  20.602   3.827
42354W        W 1791  14.295   3.779   1.263
42355W        W 1792  12.851  37.009   2.848
42356W        W 1793  43.864  38.954   2.827
42357W        W 1794  42.391  31.127  13.946
42358W        W 1795  35.515  23.018   0.375
42359W        W 1796   7.307  43.408  10.617
42360W        W 1797  11.285  41.887   3.698
42361W        W 1798  15.270  44.927   3.824
42362W        W 1799  40.374  35.527   2.682
42363W        W 1800  20.620   5.238  10.621
42364W        W 1801   2.957  10.750   2.214
42365W        W 1802  31.507   9.228   0.797
42366W        W 1803   1.743   0.808   3.741
42367W        W 1804  27.536  43.848  13.530
42368W        W 1805  32.042  12.756  14.294
42369W        W 1806   7.379   0.331  12.942
42370W        W 1807  42.497  25.525   4.273
42371W        W 1808  28.938  35.900   2.780
42372W        W 1809  18.743  10.667   4.729
42373W        W 1810  33.399  37.417   2.663
42374W        W 1811  31.020  13.783  11.480
42375W        W 1812  14.291  24.644  12.448
42376W        W 1813  10.674  12.323   4.762
42377W        W 1814  11.830  27.554   3.195
42378W        W 1815  37.047  41.870  13.449
42379W        W 1816  12.789  23.052  11.089
42380W        W 1817  23.643  29.462   4.345
42381W        W 1818   5.737  33.561  12.428
42382W        W 1819   8.253  12.784  10.460
42383W        W 1820  32.085   4.716  10.911
42384W        W 1821  12.244  12.186   0.481
42385W        W 1822  16.643   5.381   3.778
42386W        W 1823  27.123  10.378  14.836
42387W        W 1824  34.584  23.234   3.176
42388W        W 1825  28.666   9.155   1.318
42389W        W 1826  21.082   6.749  12.086
42390W        W 1827   3.363   7.185  13.542
42391W        W 1828  21.517  33.070  12.899
42392W        W 1829   6.329  37.367   2.706
42393W        W 1830  26.207  43.446   2.280
42394W        W 1831  41.844  34.407   1.849
42395W        W 1832  31.442   6.856   3.665
42396W        W 1833  22.144  44.502  11.400
42397W        W 1834   8.296  32.533  13.045
42398W        W 1835  19.746  36.927  14.347
42399W        W 1836  10.695  27.983  10.491
42400W        W 1837   8.738   9.707  14.283
42401W        W 1838  42.007  27.067   1.856
42402W        W 1839  35.960  34.540  13.942
42403W        W 1840  20.079  18.087   2.758
42404W        W 1841  14.191  12.291   4.328
42405W        W 1842  41.963  10.149   2.321
42406W        W 1843  35.516  15.782  12.878
42407W        W 1844  37.047  34.073  13.929
42408W        W 1845  32.030  43.422   4.645
42409W        W 1846   8.380  13.612  13.992
42410W        W 1847   0.787   5.918  12.524
42411W        W 1848  37.354   3.447   2.824
42412W        W 1849   8.265  25.183   0.377
42413W        W 1850   2.400  28.632   3.368
42414W        W 1851  43.878  25.151   4.739
42415W        W 1852  14.795  20.689  13.345
42416W        W 1853  44.984   6.233  13.360
42417W        W 1854  44.301  44.941   0.939
42418W        W 1855  12.320   7.329   2.686
42419W        W 1856  29.973  28.554  14.898
42420W        W 1857  14.260   3.311  14.980
42421W        W 1858  33.573  42.406   0.348
42422W        W 1859  43.765  19.568  10.996
42423W        W 1860  14.688  28.971   3.843
42424W        W 1861  20.688  21.591   5.615
42425W        W 1862   8.233  30.606   4.643
42426W        W 1863  12.686  34.580  14.772
42427W        W 1864   6.894  41.001   0.880
42428W        W 1865  25.088  31.532  13.855
42429W        W 1866   5.318   7.892  10.501
42430W        W 1867  43.952  29.484   1.349
42431W        W 1868  32.614   8.898  13.824
42432W        W 1869  34.919   1.290  11.453
42433W        W 1870  44.416  22.677  12.980
42434W        W 1871  14.821  20.693  11.407
42435W        W 1872  23.654   2.292   1.356
42436W        W 1873  44.386   3.409   2.785
42437W        W 1874  43.777  41.031  11.108
42438W        W 1875   7.852   4.249  12.967
42439W        W 1876  41.313  32.631  14.935
42440W        W 1877   5.854  10.783  13.504
42441W        W 1878  41.469  10.250  10.487
42442W        W 1879   2.819  40.048   0.836
42443W        W 1880  31.007  27.602  12.551
42444W        W 1881  40.537  24.035  12.405
42445W        W 1882  10.146  39.945   4.340
42446W        W 1883  43.892  31.092   4.797
42447W        W 1884   4.234  42.407   4.689
42448W        W 1885  36.066   1.948   4.671
42449W        W 1886  19.673  25.176   2.406
42450W        W 1887  12.306  24.040  11.554
42451W        W 1888  37.028  11.152  14.910
42452W        W 1889  10.252   4.324   2.357
42453W        W 1890  36.097  35.534   1.383
42454W        W 1891   2.303   8.227   4.295
42455W        W 1892  42.967  42.818   0.884
42456W        W 1893  27.956   0.446  14.312
42457W        W 1894  41.969  20.554   1.794
42458W        W 1895  19.569   3.446  11.924
42459W        W 1896  20.694   0.442   0.295
42460W        W 1897  30.079  16.680  10.530
42461W        W 1898  11.678  27.078  10.020
42462W        W 1899   7.197  31.624  13.973
42463W        W 1900  30.910  33.586   0.942
42464W        W 1901   4.864  18.261   0.776
42465W        W 1902   0.789  20.763   4.638
42466W        W 1903   8.852   8.660  14.338
42467W        W 1904  24.713  24.103  10.900
42468W        W 1905  10.251  21.706   3.324
42469W        W 1906   8.193  14.264   3.775
42470W        W 1907  43.330   4.262   2.689
42471W        W 1908  41.937  44.897  12.938
42472W        W 1909  14.650  25.560   0.354
42473W        W 1910  17.159  31.444   2.783
42474W        W 1911  25.076  19.692   3.810
42475W        W 1912  17.695   4.848   1.730
42476W        W 1913  21.515  25.676  14.930
42477W        W 1914  26.611  24.220   3.782
42478W        W 1915   6.370  40.969   2.203
42479W        W 1916  11.696   5.324  10.555
42480W        W 1917  31.568  43.360  12.888
42481W        W 1918   0.768  40.923  13.861
42482W        W 1919   8.696  40.479  10.437
42483W        W 1920  18.096  12.835   4.252
42484W        W 1921  12.752   0.787  14.888
42485W        W 1922   7.760  12.824   1.425
42486W        W 1923  22.674   2.867   2.681
42487W        W 1924   8.369  22.707  11.607
42488W        W 1925  37.403  16.657   0.375
42489W        W 1926   3.229   7.370   4.684
42490W        W 1927  31.978  28.633   4.262
42491W        W 1928  11.243  20.755  11.539
42492W        W 1929  34.885  22.032   1.911
42493W        W 1930  24.090   0.393  14.357
42494W        W 1931  19.231   8.316   0.463
42495W        W 1932   3.448  19.555  12.962
42496W        W 1933  29.976  17.587   4.331
42497W        W 1934  36.575  36.883   1.243
42498W        W 1935  26.607   5.401   2.775
42499W        W 1936   2.879  28.510  14.914
42500W        W 1937  15.798  17.116   0.869
42501W        W 1938  24.629   2.328   0.333
42502W        W 1939  11.851  44.907  14.001
42503W        W 1940   7.264  34.594   3.274
42504W        W 1941  10.325  36.375  11.445
42505W        W 1942  13.219  35.919  11.906
42506W        W 1943  21.247  13.818   1.360
42507W        W 1944  41.869  21.083  10.110
42508W        W 1945  30.142  24.599  12.855
42509W        W 1946  20.185   1.401  11.975
42510W        W 1947  41.951   8.277  14.332
42511W        W 1948  23.677  25.676   2.406
42512W        W 1949   6.314  31.012  11.600
42513W        W 1950  43.327  18.709   0.744
42514W        W 1951  19.639   2.397   4.714
42515W        W 1952   0.750  30.935  13.459
42516W        W 1953   4.888  16.634   2.838
42517W        W 1954  40.426  17.292  11.068
42518W        W 1955  10.663  27.574  11.431
42519W        W 1956  43.873  31.968   3.324
42520W        W 1957   7.340   1.424  14.326
42521W        W 1958  38.358  40.384  12.895
42522W        W 1959  35.452   2.269  13.897
42523W        W 1960  38.060  43.996  11.374
42524W        W 1961  17.592  25.572  10.494
42525W        W 1962  27.961  33.613  14.317
42526W        W 1963  31.485   0.804   2.876
42527W        W 1964  21.228   8.350   5.103
42528W        W 1965  33.905  37.465   0.461
42529W        W 1966  10.167  36.429  10.973
42530W        W 1967   8.767  36.563  13.869
42531W        W 1968  10.716  10.655   2.335
42532W        W 1969   8.872  36.929   2.818
42533W        W 1970  18.632   1.383   2.787
42534W        W 1971  21.122  18.271   3.830
42535W        W 1972  39.493  18.624   4.803
42536W        W 1973  40.977  40.834   4.775
42537W        W 1974  28.597   0.842  10.439
42538W        W 1975   9.841  25.617   4.116
42539W        W 1976   2.259  11.298   3.655
42540W        W 1977   8.787   3.443  13.503
42541W        W 1978  29.129  13.813   2.201
42542W        W 1979  32.957   5.281   3.738
42543W        W 1980   8.891  44.972  13.920
42544W        W 1981  30.098  10.662  13.045
42545W        W 1982  44.400  17.624  14.357
42546W        W 1983   1.793  31.453   0.299
42547W        W 1984  22.723  19.760  11.017
42548W        W 1985  17.728   5.778  11.489
42549W        W 1986  18.637  23.020   3.159
42550W        W 1987  23.067  18.774   4.795
42551W        W 1988   5.846  37.536  13.016
42552W        W 1989  38.526  16.700   2.244
42553W        W 1990   5.205  20.656   1.899
42554W        W 1991  33.568   4.426  12.346
42555W        W 1992   7.790   4.829   4.164
42556W        W 1993  32.993  15.100  14.444
42557W        W 1994  26.053  27.488  13.989
42558W        W 1995  34.480  43.322   4.252
42559W        W 1996  17.763  19.565  14.281
42560W        W 1997  36.932  44.795   3.709
42561W        W 1998  32.402  44.758   2.276
42562W        W 1999   0.955  20.139  12.913
42563W        W 2000  27.467   3.304   5.119
42564W        W 2001  28.512  22.166  11.928
42565W        W 2002  11.242  24.674   4.748
42566W        W 2003  23.045  29.631  11.967
42567W        W 2004   5.898  17.696  12.548
42568W        W 2005   5.694   6.676   4.735
42569W        W 2006  14.658  19.650   4.355
42570W        W 2007  12.147  28.624  13.490
42571W        W 2008  31.096  43.886  13.331
42572W        W 2009  17.115  33.512  14.816
42573W        W 2010   0.360  41.879   1.420
42574W        W 2011  23.116  44.463   4.801
42575W        W 2012  19.106  13.307   1.247
42576W        W 2013  38.059   6.318   0.894
42577W        W 2014  32.406   6.852   3.297
42578W        W 2015  26.208  23.133   3.172
42579W        W 2016  24.627  39.550   1.845
42580W        W 2017  35.576   8.214  10.602
42581W        W 2018  37.365  23.991  12.572
42582W        W 2019   5.836  30.126  11.608
42583W        W 2020  38.379  37.922  11.991
42584W        W 2021  28.464  25.131   3.185
42585W        W 2022  29.041  40.543   1.364
42586W        W 2023   5.869  40.345   4.762
42587W        W 2024  44.319  29.140  12.532
42588W        W 2025  11.679  14.161  13.430
42589W        W 2026  14.158  32.532  11.560
42590W        W 2027  22.696  33.512   3.864
42591W        W 2028  11.229  39.885   0.799
42592W        W 2029  44.472  40.337   3.718
42593W        W 2030  40.833  31.610   1.289
42594W        W 2031  24.656  21.185   4.275
42595W        W 2032  36.096  31.966  10.406
42596W        W 2033  13.304  38.471   4.815
42597W        W 2034  32.552  10.150   3.833
42598W        W 2035  40.353   4.331  12.397
42599W        W 2036  15.660  27.066  11.958
42600W        W 2037  23.563  16.119   1.843
42601W        W 2038   4.922  14.116   1.892
42602W        W 2039  44.396   3.215   3.789
42603W        W 2040   0.474  10.847   5.286
42604W        W 2041  28.097  42.288   3.852
42605W        W 2042  22.583  13.289  14.493
42606W        W 2043   3.394  33.580  13.816
42607W        W 2044   6.761   8.744   2.262
42608W        W 2045   2.881   7.359  13.017
42609W        W 2046  35.370  29.121  12.372
42610W        W 2047  17.612  34.489  13.425
42611W        W 2048  36.398  16.267   3.311
42612W        W 2049   5.791  38.855   0.840
42613W        W 2050  32.443  42.790   0.364
42614W        W 2051  40.360  25.570  13.050
42615W        W 2052  32.918  43.458   0.421
42616W        W 2053  39.556  28.603  10.982
42617W        W 2054   2.866  29.173  10.564
42618W        W 2055  14.310   9.877  10.508
42619W        W 2056  37.355  21.244   1.857
42620W        W 2057  23.130  41.465  12.513
42621W        W 2058  26.149  28.133  10.460
42622W        W 2059  20.752  40.810  12.836
42623W        W 2060  36.528  43.389   2.298
42624W        W 2061  26.607  25.013  10.929
42625W        W 2062  33.572  37.354  10.548
42626W        W 2063  16.624  30.925   4.245
42627W        W 2064  26.132  14.268  14.935
42628W        W 2065  37.034  39.049  13.424
42629W        W 2066   4.873  28.532   0.857
42630W        W 2067  43.492  40.459  14.343
42631W        W 2068   5.430  32.404   0.283
42632W        W 2069  25.041  26.685   0.435
42633W        W 2070  14.278  23.681   4.181
42634W        W 2071  18.633  17.572  10.576
42635W        W 2072   8.227  25.642   1.441
42636W        W 2073  10.664  38.525  14.841
42637W        W 2074  43.493  21.720  12.464
42638W        W 2075  24.499  18.150   2.819
42639W        W 2076  22.706   8.307   3.734
42640W        W 2077  34.591  12.330   4.605
42641W        W 2078  40.458  35.437   3.178
42642W        W 2079   5.380  25.219  13.358
42643W        W 2080   2.454   0.260   2.287
42644W        W 2081   7.256  29.638   4.705
42645W        W 2082  35.007  38.061  11.502
42646W        W 2083  44.438  11.721  13.483
42647W        W 2084  28.680  32.083   9.957
42648W        W 2085  30.130  19.712  11.574
42649W        W 2086   0.489   1.348  12.866
42650W        W 2087  33.501   4.258   1.269
42651W        W 2088  14.730  40.330   2.819
42652W        W 2089  41.993  36.488  10.068
42653W        W 2090  25.187  18.120  12.344
42654W        W 2091   8.320  22.719   1.833
42655W        W 2092  42.525  35.956   2.308
42656W        W 2093   9.284  42.321   4.775
42657W        W 2094  40.324  38.380  10.958
42658W        W 2095   7.697  37.840  13.454
42659W        W 2096  33.424   8.222  14.913
42660W        W 2097  35.382  19.128  14.413
42661W        W 2098  33.066  31.477   1.280
42662W        W 2099  19.286  12.798  13.062
42663W        W 2100  35.025  11.651   1.932
42664W        W 2101   9.667  37.527   2.203
42665W        W 2102  25.575  30.096  10.924
42666W        W 2103  38.564  29.533   0.290
42667W        W 2104  18.663   8.325  13.968
42668W        W 2105  17.128   2.936   4.174
42669W        W 2106  31.550   2.902   1.847
42670W        W 2107  26.171  24.482  12.974
42671W        W 2108  25.635  23.695  12.911
42672W        W 2109  37.979  34.076   3.761
42673W        W 2110  19.558  19.218  14.966
42674W        W 2111  38.563  38.541  10.512
42675W        W 2112  23.542  20.645  11.436
42676W        W 2113   4.776  39.347  11.391
42677W        W 2114  40.032  16.184  10.623
42678W        W 2115  16.808  13.263  11.420
42679W        W 2116  33.449  18.227  10.936
42680W        W 2117   8.788   5.714  13.874
42681W        W 2118  22.546  25.579   3.710
42682W        W 2119  41.825  40.367   1.707
42683W        W 2120  23.602   5.800  13.047
42684W        W 2121  26.016  23.019   0.366
42685W        W 2122  31.028  16.785  13.499
42686W        W 2123   8.849   4.296   0.962
42687W        W 2124  41.016  26.460   1.767
42688W        W 2125   8.174  40.942  10.479
42689W        W 2126  34.071  35.463   1.887
42690W        W 2127  40.362  20.555   1.276
42691W        W 2128  13.634  22.067  11.509
42692W        W 2129   2.730  22.035  13.326
42693W        W 2130   9.709  27.666   3.828
42694W        W 2131  25.694  19.662   2.202
42695W        W 2132  22.180   4.315  10.470
42696W        W 2133  13.765  40.464  14.843
42697W        W 2134  31.580  25.667   0.393
42698W        W 2135  11.861  38.892  11.430
42699W        W 2136  23.106  13.698  13.817
42700W        W 2137  25.210  39.381  12.094
42701W        W 2138  13.305   6.878   0.870
42702W        W 2139  17.222   2.796   1.696
42703W        W 2140   9.379  24.063   1.420
42704W        W 2141  10.727  16.316   1.253
42705W        W 2142  40.935  43.855   3.194
42706W        W 2143   9.346  39.878   3.760
42707W        W 2144  22.242   6.191   0.734
42708W        W 2145  42.868  12.825   0.309
42709W        W 2146  16.243  19.261   1.311
42710W        W 2147  32.142  39.916  12.413
42711W        W 2148  29.063  31.026  14.503
42712W        W 2149  24.113  28.021  10.023
42713W        W 2150  10.326  18.270  10.888
42714W        W 2151   5.700  23.179   4.204
42715W        W 2152  39.965  15.704   2.293
42716W        W 2153  13.350  14.297   3.804
42717W        W 2154  13.220  35.931   4.252
42718W        W 2155  27.549  15.191  12.385
42719W        W 2156   4.237  31.604  12.364
42720W        W 2157  33.511   6.881   1.698
42721W        W 2158  42.453  24.523  11.528
42722W        W 2159   6.416  16.134  14.356
42723W        W 2160  35.593  42.837  12.956
42724W        W 2161  38.016  37.848   0.740
42725W        W 2162  29.019  44.816  11.115
42726W        W 2163  10.191  29.485  10.484
42727W        W 2164  40.393   0.331  14.924
42728W        W 2165  14.721   6.753  14.440
42729W        W 2166  22.711  44.996   0.934
42730W        W 2167  40.363  11.242   4.302
42731W        W 2168  42.830  14.099   0.748
42732W        W 2169  22.744  22.674  13.035
42733W        W 2170  12.667  11.247   4.667
42734W        W 2171  23.151  40.374   2.823
42735W        W 2172   3.834  11.624  14.346
42736W        W 2173  40.364  32.528  14.303
42737W        W 2174  26.201   2.360  14.299
42738W        W 2175   8.328  31.126   4.656
42739W        W 2176  13.809  12.298  12.347
42740W        W 2177  12.804   7.373  13.901
42741W        W 2178   7.220  17.640  14.503
42742W        W 2179  42.337  28.671   2.235
42743W        W 2180   4.732  20.240   2.832
42744W        W 2181  25.999  33.583  10.530
42745W        W 2182   5.398  41.370   2.210
42746W        W 2183  10.836  37.364   2.863
42747W        W 2184  28.993  13.799  10.474
42748W        W 2185  16.792  41.864  14.960
42749W        W 2186  31.645  35.434  12.469
42750W        W 2187   3.454  31.622  12.462
42751W        W 2188  12.136  39.391  14.837
42752W        W 2189  42.351   7.881  12.500
42753W        W 2190  38.499   9.707   0.372
42754W        W 2191  36.952   5.362   3.380
42755W        W 2192  10.342  24.537   1.871
42756W        W 2193  42.927   8.892  13.344
42757W        W 2194  31.106  37.068   1.832
42758W        W 2195  33.104  20.219   0.454
42759W        W 2196  24.665  32.049  13.057
42760W        W 2197  32.431  27.015   3.234
42761W        W 2198  29.072  40.460  12.046
42762W        W 2199  43.285   3.369   0.848
42763W        W 2200  27.991  39.509   0.730
42764W        W 2201  30.137  39.993   4.649
42765W        W 2202   2.471  36.551  14.290
42766W        W 2203  29.132   9.166   1.893
42767W        W 2204  36.366   5.807   2.676
42768W        W 2205  31.131  41.790   4.738
42769W        W 2206   2.812   5.396  12.976
42770W        W 2207  42.302  30.030  12.493
42771W        W 2208  23.603   7.854   2.362
42772W        W 2209  24.591  12.194  12.832
42773W        W 2210  43.947  28.673  14.865
42774W        W 2211  35.545  24.586   2.177
42775W        W 2212  18.233  24.097   1.347
42776W        W 2213  29.519  20.664   2.378
42777W        W 2214  36.413  30.993   2.327
42778W        W 2215  13.650  37.414  14.878
42779W        W 2216  31.902  27.606  11.379
42780W        W 2217  15.272  27.574   4.753
42781W        W 2218   4.938   9.670  12.554
42782W        W 2219  34.509  33.011  13.945
42783W        W 2220  31.592  32.472   1.342
42784W        W 2221  17.250  24.988   4.808
42785W        W 2222  31.404   2.857  12.029
42786W        W 2223   7.222  25.985  12.456
42787W        W 2224   5.368   3.404  10.610
42788W        W 2225  13.162   6.895  14.403
42789W        W 2226   6.698  28.541   2.882
42790W        W 2227  33.433  35.592   2.667
42791W        W 2228  29.940  33.470  11.128
42792W        W 2229  29.092  16.744  14.799
42793W        W 2230  26.195   4.722  14.003
42794W        W 2231   1.936  36.015  13.999
42795W        W 2232  20.167  34.091   2.861
42796W        W 2233  39.535   5.270  12.492
42797W        W 2234  14.158  22.233  12.409
42798W        W 2235   6.241   9.868   2.319
42799W        W 2236  36.929  31.051   1.706
42800W        W 2237  38.542  27.031   3.272
42801W        W 2238  29.552  35.369   4.732
42802W        W 2239  37.994  23.702   4.314
42803W        W 2240   0.981  43.899   3.813
42804W        W 2241  12.680  31.002   2.375
42805W        W 2242   1.307  16.620   3.287
42806W        W 2243  22.234  44.354   0.275
42807W        W 2244  37.984   3.255   5.216
42808W        W 2245  30.033  17.754  14.409
42809W        W 2246   2.876  31.599  12.531
42810W        W 2247  36.420  41.485   1.870
42811W        W 2248  16.266  30.435  11.419
42812W        W 2249  37.398   9.356  13.435
42813W        W 2250  39.393   6.373  14.851
42814W        W 2251  20.576   2.920  13.532
42815W        W 2252   4.794  16.791   2.245
42816W        W 2253   0.342  16.805   2.282
42817W        W 2254   4.236  38.962  13.856
42818W        W 2255  16.197  43.803   4.674
42819W        W 2256  42.960   0.253   0.751
42820W        W 2257  43.011   7.304   0.817
42821W        W 2258  20.267  40.490   0.401
42822W        W 2259  18.202  35.583  13.324
42823W        W 2260  20.732  10.827   1.791
42824W        W 2261  31.989  41.931   2.232
42825W        W 2262  36.460  15.323  12.049
42826W        W 2263  34.585  16.210  12.570
42827W        W 2264  27.615  34.010   3.343
42828W        W 2265  12.827  28.030  12.839
42829W        W 2266  10.738  16.753   0.408
42830W        W 2267  38.937  29.034   3.265
42831W        W 2268  11.802   9.708   2.895
42832W        W 2269  15.728  34.097   0.408
42833W        W 2270  16.298   0.422   1.231
42834W        W 2271  22.171  42.839  10.539
42835W        W 2272  42.465   0.818  13.369
42836W        W 2273  32.461  21.237   2.373
42837W        W 2274  15.167   0.442  12.991
42838W        W 2275  13.213   5.878  12.996
42839W        W 2276  21.623  24.174   4.204
42840W        W 2277  29.645  27.168  12.939
42841W        W 2278  15.324   0.923   1.309
42842W        W 2279  11.706  32.112  10.015
42843W        W 2280   3.950   4.287   3.273
42844W        W 2281  23.669   3.311   5.160
42845W        W 2282   6.763  37.920  10.477
42846W        W 2283  34.505  40.395  13.801
42847W        W 2284  13.756  33.908  11.555
42848W        W 2285  32.116   8.257   1.745
42849W        W 2286  36.581  41.912  11.442
42850W        W 2287  44.412  18.703  12.957
42851W        W 2288  42.474  41.903   3.814
42852W        W 2289  25.647  27.973   3.838
42853W        W 2290  10.314  44.407   3.298
42854W        W 2291  18.067  19.281  14.814
42855W        W 2292  20.110  22.089  13.823
42856W        W 2293  25.124  41.294   4.290
42857W        W 2294   0.759   5.222  10.910
42858W        W 2295  44.498  25.986  12.037
42859W        W 2296   7.671  40.425   2.837
42860W        W 2297  25.096   5.352  12.564
42861W        W 2298   8.240   2.469   3.180
42862W        W 2299   8.298  12.168  10.513
42863W        W 2300  39.508   1.341  14.412
42864W        W 2301  18.652  41.807   4.167
42865W        W 2302  42.518  14.239  12.412
42866W        W 2303  32.094  41.332  11.495
42867W        W 2304  14.217  23.215   4.598
42868W        W 2305  19.232   3.448   0.430
42869W        W 2306  23.121   9.283   1.894
42870W        W 2307  11.800  30.601   2.207
42871W        W 2308   4.893  41.402   2.225
42872W        W 2309  10.280  35.088   4.267
42873W        W 2310  25.581  17.743  13.413
42874W        W 2311  34.491  40.313   1.437
42875W        W 2312  42.416  34.936   1.220
42876W        W 2313  40.305  35.903   4.162
42877W        W 2314  25.494  44.444  14.998
42878W        W 2315  27.630  38.012  12.393
42879W        W 2316  30.956  42.456  12.501
42880W        W 2317  41.433  25.632   0.952
42881W        W 2318  22.999   5.348  14.301
42882W        W 2319  36.507   0.449   9.962
42883W        W 2320  36.976  10.304  14.032
42884W        W 2321  39.886  16.232   0.855
42885W        W 2322  25.042   2.283   1.880
42886W        W 2323  24.050   0.364  13.322
42887W        W 2324  13.835   7.727   2.852
42888W        W 2325  37.403  23.048  14.926
42889W        W 2326  44.259  16.083  12.379
42890W        W 2327  29.049   7.332  14.406
42891W        W 2328  19.162   2.825  12.415
42892W        W 2329  43.942  23.546  14.419
42893W        W 2330  18.711   0.453   3.675
42894W        W 2331  14.618  29.997  12.871
42895W        W 2332  10.237  37.065   2.852
42896W        W 2333  32.479  18.108  11.438
42897W        W 2334  34.936  14.676  13.994
42898W        W 2335  35.062  35.532  14.762
42899W        W 2336   5.437  38.538  12.961
42900W        W 2337  26.141  10.216  14.501
42901W        W 2338   2.881  43.331  11.453
42902W        W 2339  27.513  34.408   2.773
42903W        W 2340  38.401  28.130  11.100
42904W        W 2341  13.783   8.676  11.587
42905W        W 2342  25.588  34.050   2.391
42906W        W 2343  18.749  10.313  11.384
42907W        W 2344  27.137  16.177  13.500
42908W        W 2345  37.352  19.210   0.923
42909W        W 2346  22.515   0.336  11.432
42910W        W 2347  18.264  30.537  10.895
42911W        W 2348  35.581  28.610   4.215
42912W        W 2349  13.110  38.494   0.367
42913W        W 2350   6.750  44.986  11.987
42914W        W 2351  15.192  38.991   3.297
42915W        W 2352   4.332  42.780   3.270
42916W        W 2353   2.266  23.122   4.705
42917W        W 2354  42.482  16.269  11.056
42918W        W 2355  40.925   6.232  12.947
42919W        W 2356  43.823  33.472   4.135
42920W        W 2357  10.757  22.678  13.313
42921W        W 2358  25.181   5.770  10.608
42922W        W 2359  12.213   4.220  14.306
42923W        W 2360  12.854  44.777  14.493
42924W        W 2361  13.327   4.398  14.391
42925W        W 2362  28.948  12.711  12.952
42926W        W 2363  34.571  17.138  11.921
42927W        W 2364  19.256  10.154   4.770
42928W        W 2365  31.920  38.432   4.780
42929W        W 2366   4.264  19.054  11.013
42930W        W 2367  13.267  14.255   4.161
42931W        W 2368  13.803   3.273  10.429
42932W        W 2369  39.556   5.311   1.212
42933W        W 2370  13.249  20.088  12.044
42934W        W 2371  14.105  37.419   0.448
42935W        W 2372  24.708  25.586  13.870
42936W        W 2373  31.431  44.932  10.436
42937W        W 2374  18.571  25.133  13.335
42938W        W 2375  27.553  23.524  10.606
42939W        W 2376  19.093  26.648   3.265
42940W        W 2377  35.943  44.396   2.374
42941W        W 2378  31.954   2.307   2.803
42942W        W 2379  23.184  26.662  14.320
42943W        W 2380  43.378  22.659  14.492
42944W        W 2381   8.314  17.121  11.092
42945W        W 2382   6.894   8.755   1.878
42946W        W 2383  33.388  16.123   3.650
42947W        W 2384  26.509  17.628  13.336
42948W        W 2385  28.510   8.286   1.394
42949W        W 2386   6.423  24.511   0.898
42950W        W 2387  39.850   7.849   4.230
42951W        W 2388  20.645  33.978   3.328
42952W        W 2389  33.535  16.289   1.811
42953W        W 2390   3.328  33.039  13.031
42954W        W 2391   2.874  35.390   5.311
42955W        W 2392  26.691  32.916  13.450
42956W        W 2393  11.355  22.052  12.554
42957W        W 2394  13.772  23.506  14.282
42958W        W 2395  23.133   7.843  10.989
42959W        W 2396  42.303  17.689   4.661
42960W        W 2397  23.034  30.458   1.919
42961W        W 2398  36.961  15.306   4.321
42962W        W 2399  21.220   7.238  13.840
42963W        W 2400  10.156   4.359  11.557
42964W        W 2401  22.543  34.991   4.756
42965W        W 2402  33.412  26.093   0.891
42966W        W 2403  40.373  14.214  10.001
42967W        W 2404  25.705  42.782  13.323
42968W        W 2405  16.253   7.316   3.630
42969W        W 2406  18.547   0.331  11.904
42970W        W 2407  27.085  30.549   1.801
42971W        W 2408   4.786  12.717   3.269
42972W        W 2409  34.483  15.738   2.241
42973W        W 2410   8.256  12.762  14.338
42974W        W 2411  25.581  20.213  11.126
42975W        W 2412  22.186  16.271   9.451
42976W        W 2413  40.914   2.405  13.842
42977W        W 2414  15.769   1.743  13.472
42978W        W 2415   0.810   2.454   4.621
42979W        W 2416  32.942   8.661  10.928
42980W        W 2417  15.609  43.918   1.873
42981W        W 2418  22.567  26.684   2.681
42982W        W 2419  36.051   9.719   2.419
42983W        W 2420   2.447  21.571   4.170
42984W        W 2421  39.858  19.119  12.488
42985W        W 2422   7.312   5.902   3.379
42986W        W 2423  15.223   3.357  14.922
42987W        W 2424  21.055  28.630   2.411
42988W        W 2425  11.133  31.568  13.900
42989W        W 2426  39.062  37.355   1.887
42990W        W 2427  34.973  33.026  13.932
42991W        W 2428  25.208   4.298  10.631
42992W        W 2429  36.854  17.298  12.839
42993W        W 2430  29.477  16.757   3.865
42994W        W 2431  11.676  24.595   3.743
42995W        W 2432  31.421  23.625  12.437
42996W        W 2433  24.567   8.849  14.505
42997W        W 2434   8.767  44.499  11.888
42998W        W 2435  12.182  30.110  10.939
42999W        W 2436   3.405  11.238   4.274
43000W        W 2437  28.521  23.118  12.345
43001W        W 2438  42.441  17.238   0.878
43002W        W 2439  33.619  26.203  13.847
43003W        W 2440  40.459   7.362  10.916
43004W        W 2441  10.304  23.683  12.392
43005W        W 2442   2.240  20.584   0.404
43006W        W 2443  30.597   7.194   3.364
43007W        W 2444   5.708   9.819   4.675
43008W        W 2445   8.245  29.933  13.386
43009W        W 2446  10.327  23.111  12.511
43010W        W 2447  10.366  27.113   0.892
43011W        W 2448  13.828  17.087   2.368
43012W        W 2449  32.906  10.683  12.427
43013W        W 2450  18.625  32.453  12.029
43014W        W 2451  11.235  23.100   4.172
43015W        W 2452  11.660   1.938  13.514
43016W        W 2453  30.967   2.868  10.531
43017W        W 2454   1.356  44.413   0.393
43018W        W 2455  41.836  33.003   1.890
43019W        W 2456   8.808  32.544   1.906
43020W        W 2457  12.208  12.780   4.206
43021W        W 2458  33.426  20.711   5.090
43022W        W 2459  22.142  44.335  14.402
43023W        W 2460  35.526  30.577  12.884
43024W        W 2461   7.786  12.666   3.762
43025W        W 2462  24.178   0.899  14.417
43026W        W 2463  40.346  34.064   4.213
43027W        W 2464   3.305  30.608  11.886
43028W        W 2465  20.067  12.847  14.425
43029W        W 2466  13.310   2.868   3.209
43030W        W 2467  34.078  28.173   9.955
43031W        W 2468  43.322  24.164   1.853
43032W        W 2469  28.650  42.919  14.893
43033W        W 2470  26.543  31.946  14.356
43034W        W 2471  32.936  27.655   1.703
43035W        W 2472  20.615  41.451  11.051
43036W        W 2473   8.695  43.819   4.244
43037W        W 2474  35.956  41.463  13.976
43038W        W 2475  38.953  31.578   1.352
43039W        W 2476  22.025  13.151  14.881
43040W        W 2477   3.860  39.351  14.489
43041W        W 2478  35.403  37.529   1.332
43042W        W 2479  44.385  32.558   2.728
43043W        W 2480  28.948   3.737   3.836
43044W        W 2481   0.320  23.495  11.495
43045W        W 2482  34.587  18.706   4.286
43046W        W 2483  33.493  26.120  13.314
43047W        W 2484  29.610  28.175   2.786
43048W        W 2485  24.098  18.191  10.956
43049W        W 2486  27.132   0.786  11.961
43050W        W 2487  31.482  32.889  11.429
43051W        W 2488  23.169  15.760  11.601
43052W        W 2489  21.745  43.331  11.562
43053W        W 2490  41.298  26.037   1.694
43054W        W 2491  14.220   9.709  13.025
43055W        W 2492  30.095  20.749   4.772
43056W        W 2493  31.494  12.319   1.385
43057W        W 2494  18.745  38.434   2.741
43058W        W 2495   0.967  32.129  13.513
43059W        W 2496  16.263  12.840  14.981
43060W        W 2497  21.141  11.195  13.408
43061W        W 2498   0.871  36.350  12.982
43062W        W 2499  27.463  11.196  12.463
43063W        W 2500  35.997  43.880   4.708
43064W        W 2501  19.052   5.809  12.009
43065W        W 2502  15.264  11.819   1.385
43066W        W 2503  44.886  31.910   3.323
43067W        W 2504  40.484   3.805   4.134
43068W        W 2505  27.080  37.440  10.522
43069W        W 2506   2.292  38.003   3.696
43070W        W 2507  27.113   8.796   5.090
43071W        W 2508  34.867   0.905  12.354
43072W        W 2509  20.225  38.382   4.325
43073W        W 2510  37.511  30.034   3.761
43074W        W 2511  24.066  27.454   2.244
43075W        W 2512   8.858   3.351  13.800
43076W        W 2513  31.981   8.397  14.343
43077W        W 2514  20.175  30.563   1.704
43078W        W 2515  42.479  13.783  14.514
43079W        W 2516   4.783  42.365   2.307
43080W        W 2517   1.394  20.588  12.835
43081W        W 2518  19.206  35.964  14.505
43082W        W 2519  44.304  36.555  14.503
43083W        W 2520  36.556  17.625  14.000
43084W        W 2521   0.350   5.799   0.421
43085W        W 2522   0.491   8.880  12.077
43086W        W 2523  34.475  29.504   2.273
43087W        W 2524  38.896  16.085   4.351
43088W        W 2525  18.558   2.425  11.113
43089W        W 2526  25.070  44.958   2.191
43090W        W 2527  19.648  10.848   2.270
43091W        W 2528  33.425   9.751  14.397
43092W        W 2529   4.849  27.601   1.741
43093W        W 2530  33.940  30.008   3.725
43094W        W 2531  11.756  10.764   2.854
43095W        W 2532   6.865  29.487  14.781
43096W        W 2533  38.331  32.459   2.233
43097W        W 2534  34.118   8.731  14.971
43098W        W 2535  19.249  22.015   0.375
43099W        W 2536  44.400  19.656  14.304
43100W        W 2537  14.308  28.663  14.946
43101W        W 2538  29.948  43.350  14.876
43102W        W 2539  10.796  21.738  11.128
43103W        W 2540  29.035  44.403  10.930
43104W        W 2541  22.189  31.073   2.372
43105W        W 2542   7.744  44.379  11.515
43106W        W 2543   8.160   6.791  13.798
43107W        W 2544  36.931  21.742   1.903
43108W        W 2545   9.349  12.723  11.018
43109W        W 2546  21.121  22.112  14.927
43110W        W 2547  30.142   2.322  13.369
43111W        W 2548  13.640   7.324  11.971
43112W        W 2549  16.149  41.479  12.505
43113W        W 2550  42.456  35.911  12.426
43114W        W 2551  31.952  12.222   0.946
43115W        W 2552  43.353  44.356  14.971
43116W        W 2553  44.944  24.694  10.602
43117W        W 2554  39.413   4.209  12.451
43118W        W 2555  17.642  43.351  10.612
43119W        W 2556  23.633  43.990   2.230
43120W        W 2557  36.077  43.839   1.749
43121W        W 2558  34.376  11.782   0.948
43122W        W 2559  11.645   7.760  13.004
43123W        W 2560  35.091  36.854   2.237
43124W        W 2561   1.741  26.631   4.354
43125W        W 2562  31.619  17.603  13.532
43126W        W 2563  39.021  13.647   0.909
43127W        W 2564   5.267   1.809   3.753
43128W        W 2565  11.708  10.719  11.902
43129W        W 2566   8.870  28.506   0.279
43130W        W 2567  31.573  35.008   3.353
43131W        W 2568  14.723  32.109   2.243
43132W        W 2569  36.922   9.291  11.065
43133W        W 2570  33.921  44.789   0.392
43134W        W 2571  17.648   1.772  14.977
43135W        W 2572  41.953   7.742  12.434
43136W        W 2573  27.969  16.810  10.637
43137W        W 2574  37.850  44.978  10.507
43138W        W 2575  36.087  32.435  12.036
43139W        W 2576  28.676  31.616  12.874
43140W        W 2577  38.368  39.976  11.464
43141W        W 2578  44.785  10.839  13.795
43142W        W 2579  19.740   2.721  11.479
43143W        W 2580  28.519  29.481  11.947
43144W        W 2581  12.142   6.304  12.382
43145W        W 2582  30.450  13.757   2.698
43146W        W 2583   1.480  43.986  10.429
43147W        W 2584  15.100   6.757  10.939
43148W        W 2585  25.531  35.366   5.168
43149W        W 2586  39.559  15.709  10.156
43150W        W 2587  41.959  24.573  10.531
43151W        W 2588   0.392  38.397   3.816
43152W        W 2589  19.223  39.410   5.200
43153W        W 2590  20.706  34.549   0.416
43154W        W 2591  21.080   2.294   4.234
43155W        W 2592  29.941  26.526  13.455
43156W        W 2593  11.250  39.480  11.937
43157W        W 2594  23.151   8.856  11.992
43158W        W 2595  22.231  13.647   2.751
43159W        W 2596  28.040  37.974  10.103
43160W        W 2597  42.822  22.237   3.319
43161W        W 2598   7.702  37.534  13.384
43162W        W 2599  36.578  38.549  11.019
43163W        W 2600  22.520   8.838   2.868
43164W        W 2601  26.646   1.731   4.166
43165W        W 2602  41.454  26.115   1.401
43166W        W 2603  35.427   8.205   2.717
43167W        W 2604  25.592  29.557   4.799
43168W        W 2605  37.355  10.762   0.817
43169W        W 2606  21.675   8.256   1.819
43170W        W 2607  38.548  20.553   4.719
43171W        W 2608  26.609  33.044  14.982
43172W        W 2609  24.173   8.205  10.644
43173W        W 2610  15.085  12.791  14.347
43174W        W 2611  23.532  38.534   0.882
43175W        W 2612  24.130  23.642   1.355
43176W        W 2613  29.010   1.278  12.045
43177W        W 2614  35.429   6.274  12.025
43178W        W 2615   5.756  28.027  11.392
43179W        W 2616  26.484  24.531   0.842
43180W        W 2617  17.268  24.672   3.642
43181W        W 2618  40.984   9.745   0.477
43182W        W 2619  21.038  38.492   1.830
43183W        W 2620  22.086  25.518   4.761
43184W        W 2621   8.680  16.225  14.402
43185W        W 2622  44.458   7.242   1.751
43186W        W 2623   3.275  25.194  13.034
43187W        W 2624  19.558  14.098  10.436
43188W        W 2625   5.770   0.375   2.313
43189W        W 2626  41.936  16.727  11.038
43190W        W 2627   5.909  29.551  11.513
43191W        W 2628  29.668  17.604  12.048
43192W        W 2629  41.867  42.965  11.123
43193W        W 2630   6.216  21.224   0.904
43194W        W 2631  13.829  22.208  13.451
43195W        W 2632  20.533   2.237  10.980
43196W        W 2633   1.393  16.609   4.835
43197W        W 2634  29.618  10.770   0.281
43198W        W 2635   8.400  40.538   2.870
43199W        W 2636  42.833  28.509   1.835
43200W        W 2637  29.971  17.301  13.982
43201W        W 2638   7.784   7.357  13.507
43202W        W 2639   0.406   9.826  14.788
43203W        W 2640  41.407   5.386   0.482
43204W        W 2641  12.304  19.048   0.903
43205W        W 2642  31.618  30.914   1.408
43206W        W 2643   2.369  36.018  13.901
43207W        W 2644  28.564  39.813   0.434
43208W        W 2645   0.401   9.811   3.177
43209W        W 2646  10.772  28.650  12.538
43210W        W 2647  38.840  29.123   5.259
43211W        W 2648  15.238  42.932   1.845
43212W        W 2649  18.771  30.421   3.146
43213W        W 2650   0.306   7.773   3.655
43214W        W 2651  14.314  31.121   3.328
43215W        W 2652  31.525  10.840  13.010
43216W        W 2653  12.237  42.853   5.134
43217W        W 2654   0.830  24.671   4.218
43218W        W 2655  34.561  20.530   4.126
43219W        W 2656   0.487  11.767   2.204
43220W        W 2657  31.988  29.031   2.177
43221W        W 2658  32.588   6.699  12.074
43222W        W 2659  26.616  42.371   3.220
43223W        W 2660   2.414   6.774   4.646
43224W        W 2661  37.012  24.544  13.318
43225W        W 2662  36.512  27.552  12.032
43226W        W 2663   3.347  29.511   0.276
43227W        W 2664  27.130  37.929   0.400
43228W        W 2665   9.864  27.483  13.332
43229W        W 2666  32.019   3.327   3.703
43230W        W 2667  33.065  20.595   0.929
43231W        W 2668  39.380  37.033   0.726
43232W        W 2669  30.992   2.855  11.385
43233W        W 2670  40.413  21.137  14.828
43234W        W 2671   5.870  39.982   2.194
43235W        W 2672  40.003   0.431   4.769
43236W        W 2673  43.498   2.355   3.749
43237W        W 2674  24.216  35.956   3.797
43238W        W 2675   9.234  25.973   4.824
43239W        W 2676  26.996  36.521   2.726
43240W        W 2677  26.561  17.797   3.849
43241W        W 2678  11.756  30.570  10.906
43242W        W 2679  43.279  44.845  12.525
43243W        W 2680  24.496  32.952  13.457
43244W        W 2681  33.940  20.131   4.192
43245W        W 2682  36.394  36.472  13.809
43246W        W 2683  40.397   9.329  12.961
43247W        W 2684  28.072  40.877   4.759
43248W        W 2685  34.958  22.097  11.583
43249W        W 2686  35.102  40.429  12.986
43250W        W 2687  42.427   8.217   0.287
43251W        W 2688  28.470  39.839   2.396
43252W        W 2689  13.707  15.822   4.260
43253W        W 2690  30.427  43.937   3.754
43254W        W 2691  11.693  15.175   3.633
43255W        W 2692  23.210  24.037  13.839
43256W        W 2693  31.995  42.991   3.796
43257W        W 2694  24.550  14.264  11.115
43258W        W 2695   5.295  24.720  10.954
43259W        W 2696   2.253  18.100  14.442
43260W        W 2697  23.690  15.807   1.334
43261W        W 2698  13.681   6.329  13.005
43262W        W 2699   2.771  21.734  11.094
43263W        W 2700  15.098  43.915   2.401
43264W        W 2701   7.255  39.378  13.850
43265W        W 2702   6.798  34.864   3.841
43266W        W 2703  17.231  19.593   1.340
43267W        W 2704   4.430  19.534  12.571
43268W        W 2705  10.664  11.702  10.533
43269W        W 2706   8.704   9.185   3.198
43270W        W 2707  19.243   6.299  13.901
43271W        W 2708  40.463  23.076  14.811
43272W        W 2709  27.967  11.272  12.060
43273W        W 2710  33.095  37.407   0.814
43274W        W 2711  16.101  13.146  14.878
43275W        W 2712   3.370  29.455  12.954
43276W        W 2713  34.973  36.038   3.197
43277W        W 2714  13.294  42.348  10.435
43278W        W 2715  40.524   2.753  12.502
43279W        W 2716  24.070  15.778  13.474
43280W        W 2717  33.583  34.416  14.767
43281W        W 2718   2.252  26.561   4.766
43282W        W 2719  12.158  27.096   1.850
43283W        W 2720  34.473  41.906   3.186
43284W        W 2721  33.889   8.406   1.416
43285W        W 2722  10.642  28.585   2.386
43286W        W 2723   1.755  44.316  13.884
43287W        W 2724  32.024   8.206  13.981
43288W        W 2725   3.243   7.189   3.657
43289W        W 2726  24.643   6.240  11.929
43290W        W 2727  15.620   0.778   5.102
43291W        W 2728   4.387  26.659  12.479
43292W        W 2729  36.461  23.659   2.325
43293W        W 2730  19.069   5.410  11.026
43294W        W 2731   4.220   4.407  14.483
43295W        W 2732  41.983   7.254  13.504
43296W        W 2733  31.117  39.537  11.471
43297W        W 2734   5.241  12.176   3.269
43298W        W 2735   8.808   7.772   3.212
43299W        W 2736  38.932   5.231   4.343
43300W        W 2737   3.389  27.182  11.931
43301W        W 2738  15.724  44.768   2.776
43302W        W 2739  28.157  42.518  12.409
43303W        W 2740  11.707   7.910  13.484
43304W        W 2741  37.007  28.594   2.189
43305W        W 2742  18.627  24.212  12.926
43306W        W 2743  14.299  43.928   1.913
43307W        W 2744   9.196   5.211   0.243
43308W        W 2745   8.191  28.444   0.758
43309W        W 2746  19.260  30.471   1.908
43310W        W 2747  17.107  24.670   1.824
43311W        W 2748   4.302   1.417  13.812
43312W        W 2749   7.900  30.586   3.285
43313W        W 2750  26.035   4.850   3.231
43314W        W 2751   2.275  18.706  10.990
43315W        W 2752  14.163   2.380  14.866
43316W        W 2753  11.826  36.469   4.691
43317W        W 2754  25.530  40.415   2.732
43318W        W 2755  37.842  15.734   2.306
43319W        W 2756   7.843   0.760  13.852
43320W        W 2757  43.940  15.690  13.956
43321W        W 2758  42.977  17.749   2.340
43322W        W 2759  13.782  41.794  12.827
43323W        W 2760  27.671  16.790   4.332
43324W        W 2761  43.799   5.351  11.492
43325W        W 2762   4.334  25.617  13.840
43326W        W 2763  23.590  10.645  12.534
43327W        W 2764  14.304  38.830   0.779
43328W        W 2765  31.140  15.204   1.765
43329W        W 2766  22.228  44.992   4.719
43330W        W 2767   1.866  18.260  14.803
43331W        W 2768  25.041  10.366   2.779
43332W        W 2769  20.678  13.642  13.798
43333W        W 2770  10.634   6.684   4.830
43334W        W 2771  14.694  34.493   2.880
43335W        W 2772  11.205   6.327  12.458
43336W        W 2773  33.914  40.806   4.169
43337W        W 2774  31.566  30.574   1.871
43338W        W 2775  11.367  12.136   4.268
43339W        W 2776  23.718  42.030  10.050
43340W        W 2777  43.274   5.435  10.632
43341W        W 2778  13.835  14.254   3.818
43342W        W 2779  12.696  27.555   2.866
43343W        W 2780  14.736  30.144   0.318
43344W        W 2781  41.957   4.945   3.328
43345W        W 2782  43.466  15.253   2.271
43346W        W 2783   7.344  22.014   4.678
43347W        W 2784  25.041  31.037   3.854
43348W        W 2785  33.444   2.733  14.497
43349W        W 2786   2.367  10.689  12.434
43350W        W 2787   4.925  20.246   3.345
43351W        W 2788  32.612  11.318   1.265
43352W        W 2789   2.913   6.916   4.288
43353W        W 2790  10.721  44.269   1.722
43354W        W 2791  29.555  27.596   1.715
43355W        W 2792  14.205   1.937   4.650
43356W        W 2793  19.615  24.076  10.081
43357W        W 2794   3.225  31.971   0.805
43358W        W 2795  44.823  19.718  14.425
43359W        W 2796  28.973   8.362   2.278
43360W        W 2797  40.347   0.339   4.201
43361W        W 2798  32.534  44.909   4.713
43362W        W 2799  36.900   0.815  14.416
43363W        W 2800   2.445  36.017   5.177
43364W        W 2801  22.746  18.690  13.362
43365W        W 2802   4.927   4.723   5.144
43366W        W 2803  40.472   0.773  12.508
43367W        W 2804   1.397  29.982  11.942
43368W        W 2805   0.983  40.813   0.408
43369W        W 2806  26.071  22.520   0.320
43370W        W 2807  38.868  40.337   3.341
43371W        W 2808  27.452  21.059   3.644
43372W        W 2809   6.887  10.282  14.893
43373W        W 2810  20.555  43.275   0.889
43374W        W 2811  30.127  44.803   3.707
43375W        W 2812   4.271  36.868  10.480
43376W        W 2813  31.061  12.176   4.672
43377W        W 2814  34.863   8.264  14.995
43378W        W 2815  33.902  28.471   2.350
43379W        W 2816   8.355   3.307  13.437
43380W        W 2817  31.615  14.679   3.843
43381W        W 2818   5.919  25.996   3.380
43382W        W 2819  22.551   6.412   0.888
43383W        W 2820  13.787  18.267   1.255
43384W        W 2821   7.215  18.616   0.857
43385W        W 2822  10.649  16.242  10.554
43386W        W 2823  10.786  32.941   4.135
43387W        W 2824   3.261  31.443  11.571
43388W        W 2825   9.691  30.040  11.086
43389W        W 2826   5.393  37.877   0.965
43390W        W 2827  18.245   3.922  12.902
43391W        W 2828  35.575   0.335   0.834
43392W        W 2829  28.017   0.864   2.723
43393W        W 2830  16.736   2.338  14.280
43394W        W 2831  16.077  32.581   4.834
43395W        W 2832  24.518  16.134  12.926
43396W        W 2833  25.022  15.674  13.958
43397W        W 2834   4.383  35.061  13.861
43398W        W 2835  40.817  15.586   2.756
43399W        W 2836   1.868  10.728   5.289
43400W        W 2837  21.173  19.686   0.274
43401W        W 2838  43.795   1.243   2.867
43402W        W 2839  21.559  35.860  14.790
43403W        W 2840  31.588   2.267   1.705
43404W        W 2841  24.013   6.418  12.469
43405W        W 2842  39.381   9.258   4.280
43406W        W 2843  33.918  13.746  14.340
43407W        W 2844  28.135  14.631  14.942
43408W        W 2845  26.128  32.612  11.433
43409W        W 2846  34.075  37.076   1.718
43410W        W 2847  36.970  11.769  13.361
43411W        W 2848   1.274  25.171   2.697
43412W        W 2849  26.169  26.569   4.799
43413W        W 2850  41.840  30.525   0.357
43414W        W 2851  28.980  11.171   3.653
43415W        W 2852   2.442  37.961  12.916
43416W        W 2853   4.431   9.830   0.386
43417W        W 2854   3.284  20.577  12.880
43418W        W 2855   2.729  34.953  13.997
43419W        W 2856  23.714  43.327  12.082
43420W        W 2857  23.646   0.856   2.902
43421W        W 2858  26.060   5.793   0.317
43422W        W 2859  29.574  44.320   3.871
43423W        W 2860   6.324  10.669   0.935
43424W        W 2861   5.217   7.173   1.353
43425W        W 2862  44.273  23.705   4.699
43426W        W 2863  12.626  16.229  13.793
43427W        W 2864  41.485  39.385   2.385
43428W        W 2865  18.109  13.821   3.842
43429W        W 2866  15.260  40.944   0.949
43430W        W 2867  18.219   4.211   1.723
43431W        W 2868  34.865   7.842   0.966
43432W        W 2869  26.061  29.091   3.634
43433W        W 2870  41.514  14.293   4.337
43434W        W 2871  10.240   4.934   5.314
43435W        W 2872  11.763  26.021  10.976
43436W        W 2873   3.357   0.433   0.927
43437W        W 2874   1.782  10.229   0.329
43438W        W 2875   7.405  19.176   1.709
43439W        W 2876  37.838  28.077   2.248
43440W        W 2877   6.183  43.843   4.766
43441W        W 2878  28.634  38.460  12.041
43442W        W 2879  10.775  18.727  13.360
43443W        W 2880  14.794   5.850  11.551
43444W        W 2881  41.518  23.147  12.925
43445W        W 2882  34.568  27.129   1.710
43446W        W 2883  19.659  23.064   0.838
43447W        W 2884  39.426  36.531  10.628
43448W        W 2885   7.195   5.328  13.001
43449W        W 2886  19.221  43.002   2.796
43450W        W 2887  31.010  28.136  10.535
43451W        W 2888  31.150   2.723   0.326
43452W        W 2889  11.186  38.520   2.775
43453W        W 2890  44.961  32.599   4.251
43454W        W 2891  41.301  22.069  11.949
43455W        W 2892   8.655  38.522  10.459
43456W        W 2893  43.465  37.410   2.840
43457W        W 2894  15.240   6.863   0.360
43458W        W 2895   9.338  36.432   0.351
43459W        W 2896  17.683  42.385  13.930
43460W        W 2897   6.313  28.448   1.717
43461W        W 2898   8.174   1.937  11.556
43462W        W 2899  30.536  30.607  11.880
43463W        W 2900  28.957  15.326  14.845
43464W        W 2901  27.506  40.340  13.344
43465W        W 2902  18.547   6.726  13.380
43466W        W 2903  13.268  26.572   1.812
43467W        W 2904  12.256  33.533  13.347
43468W        W 2905  29.027  40.335   3.670
43469W        W 2906   3.226   4.863   4.172
43470W        W 2907  44.502   7.343  11.054
43471W        W 2908  41.429  39.485   0.309
43472W        W 2909  31.638   7.318   2.845
43473W        W 2910  19.142   8.783   3.334
43474W        W 2911   1.481  26.082  14.004
43475W        W 2912  21.656   4.276  10.469
43476W        W 2913  38.997  36.419   2.351
43477W        W 2914  14.611  21.048  12.022
43478W        W 2915  19.250  15.732  12.447
43479W        W 2916  10.148  39.915   4.600
43480W        W 2917   1.838   1.474   2.851
43481W        W 2918   4.234  32.528   2.828
43482W        W 2919  38.477   8.243  13.000
43483W        W 2920  24.085  23.591  13.916
43484W        W 2921  22.511   0.958   2.676
43485W        W 2922   7.797  17.610   4.336
43486W        W 2923  12.788   9.690   1.865
43487W        W 2924  31.628  29.936   0.412
43488W        W 2925  25.981   5.319   0.767
43489W        W 2926   7.802   0.303  12.869
43490W        W 2927  27.113  36.927   4.214
43491W        W 2928  41.429  28.951   0.798
43492W        W 2929   1.922  19.259   4.294
43493W        W 2930   5.431  13.602   1.912
43494W        W 2931  14.302  23.136   1.315
43495W        W 2932  34.097  16.665   2.311
43496W        W 2933  32.939  23.679  14.986
43497W        W 2934  26.653  26.481  14.013
43498W        W 2935  44.868  38.933   0.891
43499W        W 2936  30.529   4.814  10.436
43500W        W 2937  40.362  26.078   3.654
43501W        W 2938  42.986   3.865   3.736
43502W        W 2939  17.783   2.950  12.352
43503W        W 2940  20.061  28.616  12.344
43504W        W 2941  29.554  12.753   3.836
43505W        W 2942  43.001  27.941   4.310
43506W        W 2943  30.428   1.355   1.285
43507W        W 2944   4.387  22.562   0.400
43508W        W 2945  20.727   4.706   3.221
43509W        W 2946   1.324  15.199   4.324
43510W        W 2947  23.500  28.061  13.336
43511W        W 2948   1.879  22.217   4.778
43512W        W 2949  41.832  16.170   3.865
43513W        W 2950  25.993  43.349   9.450
43514W        W 2951  41.946  36.915  14.992
43515W        W 2952  10.768   4.926   1.695
43516W        W 2953   1.893   6.265   2.790
43517W        W 2954  30.072  29.139   1.913
43518W        W 2955  22.621  36.507  13.531
43519W        W 2956   9.354  32.038  10.414
43520W        W 2957  19.075  36.874   3.207
43521W        W 2958   1.347  21.547  12.429
43522W        W 2959  39.867  33.063   0.882
43523W        W 2960  25.117  19.047   1.433
43524W        W 2961  26.172  40.376  12.971
43525W        W 2962  36.433  38.368  14.510
43526W        W 2963   8.207  44.350  11.568
43527W        W 2964  11.744  33.482   0.397
43528W        W 2965  32.016  37.387  11.966
43529W        W 2966  27.061   9.295   3.647
43530W        W 2967  42.905  18.139   0.863
43531W        W 2968   7.896  36.468  13.891
43532W        W 2969  41.902  21.642   0.836
43533W        W 2970  10.171  15.161  14.412
43534W        W 2971  14.599   9.660  13.005
43535W        W 2972   6.731  12.317   3.864
43536W        W 2973  42.397  31.108   0.308
43537W        W 2974  17.797  19.582   1.262
43538W        W 2975  12.351  42.783   1.374
43539W        W 2976  21.637   0.321  10.936
43540W        W 2977  11.266  22.556   3.260
43541W        W 2978  43.516  30.104   3.728
43542W        W 2979  43.935  28.002   1.398
43543W        W 2980  34.466   9.259   0.477
43544W        W 2981  42.456  16.734   0.303
43545W        W 2982  21.132  33.006   0.806
43546W        W 2983  23.539   3.460  10.957
43547W        W 2984  31.057  11.788  14.486
43548W        W 2985  41.414  37.469  12.540
43549W        W 2986  19.713  21.017   5.135
43550W        W 2987  28.676  41.918   0.953
43551W        W 2988  13.737  33.532   1.748
43552W        W 2989  37.412  32.469   0.282
43553W        W 2990   1.400   0.477   3.747
43554W        W 2991   1.296   9.807  12.041
43555W        W 2992   7.883  29.621  11.514
43556W        W 2993  18.665  21.688  13.536
43557W        W 2994  41.839  22.221   0.322
43558W        W 2995   0.808  15.714  12.493
43559W        W 2996  36.352   9.706  14.764
43560W        W 2997  40.478  35.468  13.905
43561W        W 2998  22.136  27.576   3.241
43562W        W 2999  30.040  28.566   4.199
43563W        W 3000  33.959  33.980  13.005
43564W        W 3001  41.041  28.095  11.109
43565W        W 3002   6.897  13.114   4.122
43566W        W 3003  16.165  25.528   2.299
43567W        W 3004  30.137  13.183   0.252
43568W        W 3005  42.488  24.551   2.666
43569W        W 3006  29.655  19.699   1.922
43570W        W 3007   1.781  30.990  14.880
43571W        W 3008   4.698  36.417  10.608
43572W        W 3009  20.555  15.710  13.040
43573W        W 3010  13.124  11.222   3.153
43574W        W 3011  31.052  12.842  13.433
43575W        W 3012  41.966  19.660  12.035
43576W        W 3013  19.606   6.870   3.251
43577W        W 3014  26.047   3.228   4.827
43578W        W 3015  29.007  23.616  12.079
43579W        W 3016  25.976  23.720   2.218
43580W        W 3017  34.925  28.535  12.398
43581W        W 3018  19.669  31.080  13.894
43582W        W 3019  28.671   3.881   0.785
43583W        W 3020  24.657  40.889   0.810
43584W        W 3021  12.303  35.045  11.449
43585W        W 3022   0.960   6.698  12.346
43586W        W 3023  11.820  40.526  14.845
43587W        W 3024   3.750   4.884   2.240
43588W        W 3025  35.416  15.639   0.471
43589W        W 3026   4.790  27.066   2.386
43590W        W 3027  10.143  35.581   1.264
43591W        W 3028  23.658  35.931  11.863
43592W        W 3029   5.265  34.443   2.419
43593W        W 3030  34.120   3.876  10.955
43594W        W 3031  36.089  40.972   2.709
43595W        W 3032  23.578  18.764   3.321
43596W        W 3033  22.588  18.246  12.423
43597W        W 3034   9.783  12.820   1.373
43598W        W 3035  33.503   1.239   0.247
43599W        W 3036  35.892   7.320   4.675
43600W        W 3037   0.314  29.925  12.533
43601W        W 3038  31.114  25.187   1.823
43602W        W 3039  11.705  34.495   2.876
43603W        W 3040  18.091  24.602   4.708
43604W        W 3041  14.116  38.983  13.546
43605W        W 3042  41.983  25.547  13.921
43606W        W 3043  42.460  29.485   4.350
43607W        W 3044  28.053  27.951   0.426
43608W        W 3045  35.571  27.533  13.876
43609W        W 3046  26.488  40.432   1.737
43610W        W 3047  28.621  33.483   2.681
43611W        W 3048  12.814  23.139   1.407
43612W        W 3049  39.887  15.266  12.577
43613W        W 3050   7.194  21.074   3.722
43614W        W 3051  11.166  27.068  12.860
43615W        W 3052  34.456  16.095  11.892
43616W        W 3053  24.552  24.978  14.424
43617W        W 3054  39.475   7.868  13.402
43618W        W 3055  31.642  25.178   5.226
43619W        W 3056  19.583  39.843   2.182
43620W        W 3057  44.894  35.477   2.808
43621W        W 3058  24.597  44.007   0.786
43622W        W 3059  41.383   6.390   3.283
43623W        W 3060  28.681  42.430  12.409
43624W        W 3061   9.705  28.618   1.337
43625W        W 3062  14.768  24.549   0.257
43626W        W 3063  34.967  39.020  14.510
43627W        W 3064  13.767   8.277  11.094
43628W        W 3065  35.454  22.135  13.960
43629W        W 3066  38.976  30.961   1.394
43630W        W 3067  13.708   5.828  12.343
43631W        W 3068  15.278  12.125   0.859
43632W        W 3069   9.359  11.673  12.496
43633W        W 3070  37.538   0.974   3.172
43634W        W 3071   3.229  28.020  10.459
43635W        W 3072  31.467  39.408  12.853
43636W        W 3073  17.562  44.834   3.769
43637W        W 3074   0.393   0.332   3.667
43638W        W 3075  16.673  22.639   1.934
43639W        W 3076  16.191  10.225  13.410
43640W        W 3077  44.309  43.975   0.843
43641W        W 3078  14.661   1.463   0.932
43642W        W 3079  41.975  29.150   5.115
43643W        W 3080   8.704  21.194   4.180
43644W        W 3081  19.235   7.325   0.374
43645W        W 3082  22.699  33.463  13.856
43646W        W 3083  16.609  16.137  10.618
43647W        W 3084  36.439  16.638   1.856
43648W        W 3085  16.609  18.195  10.503
43649W        W 3086  36.482  20.741   0.328
43650W        W 3087  27.151  11.632  14.358
43651W        W 3088  20.681  44.426   4.833
43652W        W 3089  22.583  17.718   4.667
43653W        W 3090  28.633  35.546  11.863
43654W        W 3091  42.290  24.543  14.031
43655W        W 3092  20.037  11.297   1.222
43656W        W 3093  17.247  19.744   4.218
43657W        W 3094   1.779  44.356   4.773
43658W        W 3095  36.531   0.438   1.336
43659W        W 3096  21.580  38.476  14.824
43660W        W 3097   2.467  35.918   1.770
43661W        W 3098  37.047   0.387   3.304
43662W        W 3099  16.270  44.323   3.778
43663W        W 3100  12.322  10.159  12.076
43664W        W 3101  13.327  34.410  12.966
43665W        W 3102   8.371  16.786   3.693
43666W        W 3103   0.938  33.957   2.384
43667W        W 3104   4.333  39.539  11.093
43668W        W 3105  23.653   1.460   2.812
43669W        W 3106  10.814  26.505  14.343
43670W        W 3107  15.740  18.246  12.836
43671W        W 3108   0.874  23.170   1.285
43672W        W 3109  21.582  12.273   4.235
43673W        W 3110  26.072   7.407   4.694
43674W        W 3111  38.473  23.018  10.993
43675W        W 3112   3.870  18.765  13.936
43676W        W 3113  20.191  17.268   0.955
43677W        W 3114  40.493   4.276  11.442
43678W        W 3115  12.179  40.918   4.659
43679W        W 3116  14.184  39.455  12.962
43680W        W 3117  33.067   8.185   0.807
43681W        W 3118  12.649   5.405  14.926
43682W        W 3119  26.515  38.516   1.709
43683W        W 3120  26.982  32.023  14.437
43684W        W 3121   1.840   9.865  12.401
43685W        W 3122  21.051  31.146   4.738
43686W        W 3123  14.611  30.971  12.537
43687W        W 3124  43.768  32.409  14.914
43688W        W 3125  13.331  34.938   3.678
43689W        W 3126  20.626  12.242   0.437
43690W        W 3127  40.819  22.105   2.374
43691W        W 3128   3.364  24.172   0.822
43692W        W 3129  30.041  43.771   2.186
43693W        W 3130   8.891  24.645   1.896
43694W        W 3131  26.011  12.723  14.317
43695W        W 3132  39.553  24.657  10.890
43696W        W 3133  17.283  30.944   4.286
43697W        W 3134  13.168  24.056   4.345
43698W        W 3135  26.543  22.995   1.350
43699W        W 3136  27.609  25.153  11.552
43700W        W 3137   5.194   3.344  14.856
43701W        W 3138  41.447   3.817   4.674
43702W        W 3139   9.284  39.960   0.923
43703W        W 3140  42.345  38.375  13.987
43704W        W 3141   9.704   9.830   0.863
43705W        W 3142  32.578  29.645  13.962
43706W        W 3143  16.288   7.281  12.882
43707W        W 3144   3.242  13.602   1.301
43708W        W 3145  25.569  33.056  12.383
43709W        W 3146  13.328   4.872  13.939
43710W        W 3147  22.705  22.513   3.343
43711W        W 3148  33.414   9.842   3.807
43712W        W 3149  42.469  17.248  10.627
43713W        W 3150  18.696  21.590   2.291
43714W        W 3151  24.207  15.191  14.465
43715W        W 3152  25.089  15.740   5.170
43716W        W 3153  14.181  40.993   9.490
43717W        W 3154   9.255  44.293  13.534
43718W        W 3155  43.357  13.684   1.231
43719W        W 3156  16.136  33.897   4.327
43720W        W 3157   9.847  14.819  10.422
43721W        W 3158  24.583   0.471  12.057
43722W        W 3159  26.545  41.795   2.846
43723W        W 3160  20.715   5.321   3.760
43724W        W 3161  20.230  26.537  14.759
43725W        W 3162  17.113  24.990   0.822
43726W        W 3163  23.017  24.015   2.673
43727W        W 3164  25.608  15.605   4.736
43728W        W 3165  18.760  21.651   1.748
43729W        W 3166  23.190  12.248  12.951
43730W        W 3167   4.888   7.796   5.102
43731W        W 3168  19.588  12.299  13.430
43732W        W 3169  17.704  41.822   1.695
43733W        W 3170  33.531   2.868  14.958
43734W        W 3171  40.817  30.158   0.938
43735W        W 3172  42.829  14.830   2.777
43736W        W 3173   4.264  38.332  10.639
43737W        W 3174   6.183  42.898   0.253
43738W        W 3175  41.029  28.536   1.361
43739W        W 3176  36.551   3.228  10.534
43740W        W 3177  26.584   8.345  10.572
43741W        W 3178  25.502  17.656   1.696
43742W        W 3179   7.679  15.666  12.351
43743W        W 3180  15.120   9.167   4.681
43744W        W 3181  22.593  27.670  10.919
43745W        W 3182   2.947   9.791   4.349
43746W        W 3183   6.380   7.367   4.814
43747W        W 3184  10.785  44.349   0.871
43748W        W 3185   8.832   3.449   1.859
43749W        W 3186  30.156  14.277   2.813
43750W        W 3187  12.277  41.900   4.830
43751W        W 3188  17.707  21.531  10.926
43752W        W 3189   4.707  36.849  12.827
43753W        W 3190  25.487  33.563   2.277
43754W        W 3191  11.179  10.151  14.836
43755W        W 3192  44.880  40.916  10.050
43756W        W 3193  35.041  41.019   1.357
43757W        W 3194  21.723  16.613  12.422
43758W        W 3195  10.801  30.062   4.176
43759W        W 3196   1.482  37.575   1.282
43760W        W 3197  37.971   7.753  13.966
43761W        W 3198  22.604  23.993  11.392
43762W        W 3199   3.215   9.379   3.669
43763W        W 3200  19.693  11.246  10.500
43764W        W 3201   5.720  17.096   1.226
43765W        W 3202  16.804  29.623  13.842
43766W        W 3203  30.576  40.348  14.839
43767W        W 3204   1.248  32.083  12.388
43768W        W 3205   5.386  28.954  11.483
43769W        W 3206  16.733   7.845   1.450
43770W        W 3207  19.068  32.011   0.375
43771W        W 3208  25.689  23.987  13.805
43772W        W 3209  32.003   3.436  13.061
43773W        W 3210  39.325   2.816  14.363
43774W        W 3211  12.316  15.731  13.418
43775W        W 3212   5.264  37.992  11.060
43776W        W 3213  29.461   4.888   2.713
43777W        W 3214  21.175   2.390   1.290
43778W        W 3215  37.426  35.958  14.995
43779W        W 3216  40.943   5.249  13.462
43780W        W 3217  37.083   9.835  12.001
43781W        W 3218  34.584  26.600   1.934
43782W        W 3219  22.587  11.205   5.098
43783W        W 3220  37.525  17.202  12.526
43784W        W 3221  17.707  11.309   4.617
43785W        W 3222  41.879  36.437   1.864
43786W        W 3223  41.366   1.877  12.433
43787W        W 3224  42.822  18.767  14.310
43788W        W 3225   9.676   7.310  14.283
43789W        W 3226  40.820  33.385   2.264
43790W        W 3227   4.889  32.450  11.938
43791W        W 3228   1.366  39.884  12.418
43792W        W 3229   3.823  39.459  12.062
43793W        W 3230  32.008  12.797  13.828
43794W        W 3231  30.121  38.964  13.852
43795W        W 3232  15.261  41.530  11.471
43796W        W 3233  19.187  14.240   2.248
43797W        W 3234  17.080  43.931  10.481
43798W        W 3235   0.924  27.176  13.863
43799W        W 3236   5.745  42.018  13.535
43800W        W 3237  18.175  30.438   3.172
43801W        W 3238  25.109   8.375  14.971
43802W        W 3239   4.345  38.530  13.347
43803W        W 3240   0.855  24.203  12.478
43804W        W 3241  11.826  44.327   1.768
43805W        W 3242  12.276   0.304  10.995
43806W        W 3243  10.165  23.615  10.948
43807W        W 3244   9.151  21.051   4.324
43808W        W 3245  31.013  33.427  11.552
43809W        W 3246  39.419   0.407  12.379
43810W        W 3247  28.463   1.958  13.510
43811W        W 3248  14.765  15.772  10.998
43812W        W 3249  15.139  26.583   3.631
43813W        W 3250  39.414   5.226  14.506
43814W        W 3251  11.221   1.890  14.464
43815W        W 3252  25.501  43.351   1.390
43816W        W 3253  17.109  36.362   2.358
43817W        W 3254  42.472  38.915  14.380
43818W        W 3255  42.421  18.235  13.961
43819W        W 3256   7.326  25.178  10.009
43820W        W 3257  23.120  23.147  14.927
43821W        W 3258   4.436  32.598   1.754
43822W        W 3259  38.947  23.183   2.412
43823W        W 3260  32.068  37.892  13.529
43824W        W 3261  36.552  35.542   1.218
43825W        W 3262  25.193  29.669   2.869
43826W        W 3263  16.789  16.226  14.920
43827W        W 3264  40.516  36.964  14.358
43828W        W 3265   0.284  19.582   2.771
43829W        W 3266  43.988   8.762   0.882
43830W        W 3267  40.310  28.181   1.433
43831W        W 3268   1.763  30.019  11.544
43832W        W 3269  26.496   0.261   3.170
43833W        W 3270  33.433  24.673  10.456
43834W        W 3271  25.586  18.074  12.400
43835W        W 3272  37.942  36.885   2.858
43836W        W 3273  31.992  33.423   0.851
43837W        W 3274  33.942  12.783   3.717
43838W        W 3275  25.167  35.434  13.525
43839W        W 3276  33.981  24.155   0.267
43840W        W 3277   4.720  23.149  11.584
43841W        W 3278  22.527  39.486   1.367
43842W        W 3279  39.960   7.710   4.713
43843W        W 3280  18.636  31.634  10.448
43844W        W 3281  19.743  38.462  10.444
43845W        W 3282  33.457   9.200  11.126
43846W        W 3283  32.026  16.748   2.298
43847W        W 3284  31.025  24.630   3.380
43848W        W 3285  19.212  22.671  14.483
43849W        W 3286  17.682  38.483  11.389
43850W        W 3287  28.115  13.336  11.074
43851W        W 3288  13.107  33.497  12.431
43852W        W 3289  12.681   6.902   1.916
43853W        W 3290  17.785   4.725  13.851
43854W        W 3291  16.606   7.247   0.862
43855W        W 3292  34.483  34.933  14.453
43856W        W 3293  37.573  33.962  12.078
43857W        W 3294  27.449  27.588   3.319
43858W        W 3295  20.671  23.535  14.846
43859W        W 3296  31.476  41.983  11.112
43860W        W 3297  19.211  40.474  12.427
43861W        W 3298  39.871  28.644   3.286
43862W        W 3299  21.632   6.899  11.542
43863W        W 3300  23.507  36.967  12.979
43864W        W 3301  39.550   4.310  13.346
43865W        W 3302   9.704  29.453   4.343
43866W        W 3303  31.076  35.936   0.324
43867W        W 3304  41.465  25.088   3.726
43868W        W 3305  23.703  20.122   2.705
43869W        W 3306  18.577   0.792  14.398
43870W        W 3307  33.944   0.475  14.764
43871W        W 3308  10.144   1.969  13.923
43872W        W 3309  34.019  15.708  10.914
43873W        W 3310  27.972  27.994  10.484
43874W        W 3311  28.965  41.011   3.358
43875W        W 3312  20.741  42.791  12.955
43876W        W 3313   0.858  42.288   3.268
43877W        W 3314  41.296  18.291  13.410
43878W        W 3315   9.757  20.619   1.808
43879W        W 3316  28.570  16.746  10.406
43880W        W 3317  41.006   3.322  10.579
43881W        W 3318   8.673   7.338  11.865
43882W        W 3319  30.105  29.492  10.552
43883W        W 3320  25.557  43.500   9.501
43884W        W 3321   4.287  42.842  14.781
43885W        W 3322  21.155  15.296  14.778
43886W        W 3323  29.133  32.483   2.695
43887W        W 3324  44.340   7.260   4.644
43888W        W 3325  11.326  38.438  13.482
43889W        W 3326  42.297  44.777   3.299
43890W        W 3327  21.027   6.341   0.242
43891W        W 3328  22.996  33.984   0.750
43892W        W 3329  14.739  37.541  12.998
43893W        W 3330  11.236  40.905  12.542
43894W        W 3331  40.017   2.367  11.079
43895W        W 3332  38.068  24.214  14.828
43896W        W 3333   4.884  18.253  14.775
43897W        W 3334  24.672   2.847   2.399
43898W        W 3335  18.761  28.040  13.933
43899W        W 3336  26.976  44.940  11.053
43900W        W 3337  25.067  10.300  13.402
43901W        W 3338   2.918  26.994  14.365
43902W        W 3339  39.987  21.628   4.819
43903W        W 3340  12.772  14.099  13.851
43904W        W 3341  10.876  15.087  11.483
43905W        W 3342   0.750  38.002   0.878
43906W        W 3343   2.225  28.657  13.366
43907W        W 3344  27.675  19.536   1.887
43908W        W 3345   3.928  21.749  13.854
43909W        W 3346   6.820   1.817  14.480
43910W        W 3347   3.838  23.508   1.782
43911W        W 3348  27.052  12.289   1.274
43912W        W 3349   5.872  33.066   0.299
43913W        W 3350   3.424  21.511   1.881
43914W        W 3351  39.993  27.113   2.758
43915W        W 3352  39.904  17.690   2.191
43916W        W 3353   4.864  23.494   2.350
43917W        W 3354  38.836  44.343   2.683
43918W        W 3355  34.561  35.093   3.755
43919W        W 3356  14.753  35.968  13.862
43920W        W 3357  14.616   4.755   4.201
43921W        W 3358  44.387  38.853  11.431
43922W        W 3359  27.985   9.169  12.013
43923W        W 3360  27.509   8.213  14.437
43924W        W 3361  32.068  26.581  11.054
43925W        W 3362  16.774  36.360   3.740
43926W        W 3363  34.414  15.145   2.765
43927W        W 3364  33.064  19.680   3.649
43928W        W 3365   4.922   8.283   3.720
43929W        W 3366   7.854  37.905   3.333
43930W        W 3367   7.746  41.423  11.886
43931W        W 3368  40.973  43.387  13.045
43932W        W 3369   3.804   1.427   3.779
43933W        W 3370  22.725  31.636  11.543
43934W        W 3371  37.084  32.402   4.160
43935W        W 3372  31.023  10.155  14.377
43936W        W 3373  42.334  35.506   1.247
43937W        W 3374  42.523   7.857   1.718
43938W        W 3375  23.065  14.250  13.891
43939W        W 3376  11.749  44.418   4.155
43940W        W 3377  23.193  11.210  11.430
43941W        W 3378  34.988   9.206  13.500
43942W        W 3379  32.495   3.825   3.189
43943W        W 3380  32.949  39.425   2.719
43944W        W 3381  42.294   0.880   1.743
43945W        W 3382   6.709   2.896  13.539
43946W        W 3383   5.915  33.542  10.622
43947W        W 3384  43.514  38.938   3.146
43948W        W 3385  14.200  32.583   0.431
43949W        W 3386  32.590  29.933   0.780
43950W        W 3387   1.941  25.707  13.497
43951W        W 3388  11.340  12.719  10.596
43952W        W 3389  28.041  23.196   0.354
43953W        W 3390  38.871  12.832   3.267
43954W        W 3391  22.060  19.121   5.313
43955W        W 3392   0.487   8.709  14.477
43956W        W 3393  13.772  22.594   2.780
43957W        W 3394  27.624  20.225  10.629
43958W        W 3395   2.281  29.103   0.408
43959W        W 3396  35.961   1.296   3.643
43960W        W 3397  36.030   4.919   3.338
43961W        W 3398  36.931   5.353  13.866
43962W        W 3399   4.401  17.107  11.456
43963W        W 3400  43.361  25.617  11.465
43964W        W 3401  18.549  25.522  11.931
43965W        W 3402  31.454  16.112   4.701
43966W        W 3403  19.145   5.934   1.759
43967W        W 3404  40.911   4.232   0.305
43968W        W 3405  21.053  42.855   3.330
43969W        W 3406   3.283   0.396  11.506
43970W        W 3407   4.711  11.207  12.935
43971W        W 3408   7.834  40.855  11.471
43972W        W 3409   1.955  35.367  11.412
43973W        W 3410  29.611  42.004  10.641
43974W        W 3411  39.880  35.412   2.769
43975W        W 3412  17.138   0.444   0.801
43976W        W 3413  19.750  16.311   0.750
43977W        W 3414  21.647  13.624  10.407
43978W        W 3415  18.063  17.666  10.472
43979W        W 3416  25.169  27.610  14.460
43980W        W 3417  25.978  44.365   1.333
43981W        W 3418  19.044  10.639  12.993
43982W        W 3419  19.619  37.959  10.444
43983W        W 3420   5.759   4.435  13.965
43984W        W 3421  34.483  28.055  14.777
43985W        W 3422   7.206  21.529   4.599
43986W        W 3423  28.091  14.762   1.327
43987W        W 3424   5.771  22.538  14.922
43988W        W 3425  20.720  42.455   3.196
43989W        W 3426  26.145  33.537  14.951
43990W        W 3427   2.295   1.434  12.863
43991W        W 3428  43.785  13.195   1.350
43992W        W 3429  31.074  21.093   0.264
43993W        W 3430  11.705   1.838  10.108
43994W        W 3431  10.314  24.532  13.960
43995W        W 3432   7.901  18.260   4.652
43996W        W 3433  28.658  20.142   2.817
43997W        W 3434  10.639  31.631   1.221
43998W        W 3435   9.779  15.760   0.880
43999W        W 3436  37.428  43.000  11.475
44000W        W 3437  26.703   9.758   4.120
44001W        W 3438  25.614  21.170   0.394
44002W        W 3439  41.792  18.626  11.878
44003W        W 3440  13.611  31.517   3.298
44004W        W 3441  37.899  38.561   1.865
44005W        W 3442  40.905  40.016  13.960
44006W        W 3443  17.675  31.599  12.350
44007W        W 3444  33.408   2.800  10.413
44008W        W 3445  33.494  20.689   2.850
44009W        W 3446  37.933  29.513  11.117
44010W        W 3447   5.218  11.314   4.617
44011W        W 3448  25.707  13.644  12.438
44012W        W 3449  27.591  36.443  11.127
44013W        W 3450   0.833  24.725   4.642
44014W        W 3451  13.111   0.753  11.391
44015W        W 3452  19.669  44.341  12.488
44016W        W 3453  10.822  21.112   4.688
44017W        W 3454   1.410  17.172   0.790
44018W        W 3455   1.756  39.365  12.359
44019W        W 3456  22.087  18.638   3.825
44020W        W 3457  18.163  22.109   4.223
44021W        W 3458  33.030  21.608  14.515
44022W        W 3459  28.099  44.782  10.923
44023W        W 3460  16.120  30.533   2.708
44024W        W 3461   8.894  19.595  10.020
44025W        W 3462   8.675   9.872  11.114
44026W        W 3463  15.144  33.492  12.351
44027W        W 3464   0.312  15.147  13.851
44028W        W 3465  43.841  37.965  13.481
44029W        W 3466   6.810  12.248   2.870
44030W        W 3467  25.075  10.198   9.561
44031W        W 3468  25.149  22.546  14.328
44032W        W 3469  13.221  37.472   3.711
44033W        W 3470  36.445  36.411  13.418
44034W        W 3471  33.888  31.028  12.555
44035W        W 3472  20.720  15.798  10.940
44036W        W 3473  35.389   7.894  10.937
44037W        W 3474   4.832   4.699  10.588
44038W        W 3475  34.509   7.208  11.127
44039W        W 3476  28.026   7.388  10.924
44040W        W 3477  38.455  25.692  13.884
44041W        W 3478   7.667  41.424   2.178
44042W        W 3479  41.037  29.168  10.482
44043W        W 3480  10.843   3.304  10.585
44044W        W 3481  11.346  13.696   3.662
44045W        W 3482  27.055   1.446   4.141
44046W        W 3483   1.411  17.216   3.333
44047W        W 3484  43.875  21.622  14.946
44048W        W 3485  37.076  28.148   4.176
44049W        W 3486  30.958   2.746   2.237
44050W        W 3487  28.443  27.071   2.890
44051W        W 3488  35.881   2.422  10.997
44052W        W 3489   5.895  19.252  14.965
44053W        W 3490  43.349   5.886  10.541
44054W        W 3491  33.107  43.274   2.303
44055W        W 3492  33.921   7.207   4.625
44056W        W 3493  25.086  44.882  11.128
44057W        W 3494  41.341  13.123  13.368
44058W        W 3495  24.519   4.437  11.553
44059W        W 3496  22.507  10.744   3.849
44060W        W 3497  38.957   8.849  11.384
44061W        W 3498   7.344  18.208  13.837
44062W        W 3499  44.816  23.203  13.319
44063W        W 3500  32.055  24.527  14.988
44064W        W 3501  38.565  27.506  12.067
44065W        W 3502  20.238  42.350  14.759
44066W        W 3503  37.039  42.971   3.659
44067W        W 3504   3.349  22.006  12.060
44068W        W 3505  20.041  22.178   0.767
44069W        W 3506  25.524  25.984   0.749
44070W        W 3507  43.378  44.933  11.096
44071W        W 3508   9.178  35.955  12.971
44072W        W 3509  18.742  10.705  11.005
44073W        W 3510   7.707  25.627  13.991
44074W        W 3511  22.048  35.899   3.161
44075W        W 3512  30.046   3.917   2.743
44076W        W 3513  41.825   9.393   4.837
44077W        W 3514   7.870  34.478   0.256
44078W        W 3515  36.583  15.800  11.443
44079W        W 3516  14.821  41.949   2.210
44080W        W 3517  15.650   9.646   1.240
44081W        W 3518   7.715  42.484  12.062
44082W        W 3519  10.359  22.502   4.725
44083W        W 3520  39.411  20.187   1.697
44084W        W 3521   1.421  42.833  11.127
44085W        W 3522   0.460  15.617  14.433
44086W        W 3523  41.390  32.436   2.323
44087W        W 3524  32.025  13.195   0.967
44088W        W 3525  15.323  35.589  14.362
44089W        W 3526   7.803  40.315  12.423
44090W        W 3527  27.554  27.556   3.640
44091W        W 3528  37.433  18.607   3.709
44092W        W 3529   8.205  23.698   3.274
44093W        W 3530  23.138   4.879  13.000
44094W        W 3531  25.134  15.285   3.186
44095W        W 3532  38.411  34.021   4.695
44096W        W 3533   2.236  32.015  10.435
44097W        W 3534  34.490  21.515  11.516
44098W        W 3535  28.036  28.598  10.154
44099W        W 3536  13.628  21.548   3.690
44100W        W 3537   0.335  37.421   0.448
44101W        W 3538  15.809  37.515   0.355
44102W        W 3539  39.513   9.774   1.800
44103W        W 3540  36.360  20.214   1.264
44104W        W 3541   9.296  14.284   1.861
44105W        W 3542  21.669   2.778   4.758
44106W        W 3543   9.760   0.849  12.011
44107W        W 3544  23.663  34.060  13.926
44108W        W 3545  22.224  37.916  13.804
44109W        W 3546   7.900  41.452   3.347
44110W        W 3547  20.660  42.488  10.904
44111W        W 3548   4.941  41.802   5.223
44112W        W 3549  29.971   1.814   1.404
44113W        W 3550  20.551   3.413  10.443
44114W        W 3551  42.516  31.073  14.387
44115W        W 3552  33.491   4.862   0.402
44116W        W 3553  22.560  26.632  14.819
44117W        W 3554   6.319   6.850   3.307
44118W        W 3555  29.163  27.958  12.961
44119W        W 3556   2.401  40.043   4.627
44120W        W 3557  30.637  12.212  10.460
44121W        W 3558  36.541  24.579  11.020
44122W        W 3559  36.396  29.433   3.146
44123W        W 3560  21.164  21.564   2.805
44124W        W 3561  13.274  32.912  13.997
44125W        W 3562  25.093  35.992  10.572
44126W        W 3563   5.260  26.145  12.962
44127W        W 3564   3.263  18.074   2.407
44128W        W 3565   9.793  24.578   1.283
44129W        W 3566  18.671   5.438  12.040
44130W        W 3567  37.066  10.796  11.025
44131W        W 3568  13.669  32.526  13.928
44132W        W 3569  19.589  34.031   1.349
44133W        W 3570   7.787  25.659  11.859
44134W        W 3571  34.539  22.539  10.615
44135W        W 3572  11.678   6.793   2.825
44136W        W 3573  42.373  39.395  11.879
44137W        W 3574  30.478   9.686   1.758
44138W        W 3575  42.501  10.746   1.905
44139W        W 3576  21.647  42.880  13.931
44140W        W 3577  40.308  35.383  12.466
44141W        W 3578   6.245  23.510   4.824
44142W        W 3579   0.962  17.065  10.434
44143W        W 3580  36.485  16.127   3.819
44144W        W 3581   9.811   4.919   0.883
44145W        W 3582  25.491  21.247   4.687
44146W        W 3583  14.325  34.505  11.011
44147W        W 3584   4.386  35.602   4.825
44148W        W 3585  14.231   3.396   2.762
44149W        W 3586  40.458  44.363   0.412
44150W        W 3587  37.529   1.312  13.053
44151W        W 3588   7.213  14.689  14.916
44152W        W 3589  30.939  15.219  14.828
44153W        W 3590  10.200  42.440   3.383
44154W        W 3591  38.479  40.813   0.414
44155W        W 3592   4.771   4.415   1.837
44156W        W 3593  16.118  15.172   0.930
44157W        W 3594   2.877  30.640  12.427
44158W        W 3595   9.671  44.370  14.499
44159W        W 3596  38.890  36.536  13.387
44160W        W 3597   2.236  17.749   3.383
44161W        W 3598  39.462  44.757  11.036
44162W        W 3599  37.389  11.345   4.239
44163W        W 3600  28.019  14.591  13.836
44164W        W 3601   6.886  30.988   0.808
44165W        W 3602  35.571  12.354   3.823
44166W        W 3603   9.282  29.538   2.702
44167W        W 3604   8.661  27.686   9.496
44168W        W 3605   6.293   5.208  10.499
44169W        W 3606  18.552  11.700   3.783
44170W        W 3607   4.388   5.350   2.180
44171W        W 3608  34.419  41.401   1.237
44172W        W 3609   4.312   6.728   2.277
44173W        W 3610  18.687   3.394  14.337
44174W        W 3611  13.645  31.947  12.049
44175W        W 3612  44.006  35.466  13.418
44176W        W 3613   2.964   5.688   3.766
44177W        W 3614  26.965  28.151   2.888
44178W        W 3615  25.468  26.974   2.329
44179W        W 3616   5.240   4.442   0.371
44180W        W 3617  43.299  33.076   5.657
44181W        W 3618  25.657  27.510  11.604
44182W        W 3619  27.996  15.705   4.312
44183W        W 3620   1.927   7.761   1.837
44184W        W 3621  31.637  35.908  11.970
44185W        W 3622  40.916  11.855   0.336
44186W        W 3623   6.837   9.221   3.206
44187W        W 3624  10.161  23.103   2.304
44188W        W 3625  33.903  43.511  12.087
44189W        W 3626  19.683  43.368   3.203
44190W        W 3627  14.817  30.568  12.995
44191W        W 3628   4.911  22.702   2.277
44192W        W 3629   5.215  37.834  10.514
44193W        W 3630  19.607  25.081   0.315
44194W        W 3631   9.183  12.623  14.392
44195W        W 3632  44.898  35.367  14.297
44196W        W 3633   2.766  32.577  14.762
44197W        W 3634  42.312  20.239   0.793
44198W        W 3635  17.281  28.986  14.331
44199W        W 3636  16.080  26.967  11.123
44200W        W 3637  40.546  19.628   3.791
44201W        W 3638   1.317  23.657  11.864
44202W        W 3639   2.359  38.051  11.433
44203W        W 3640  23.594   8.170  11.017
44204W        W 3641   9.208  29.611  13.989
44205W        W 3642  35.368  36.425  12.839
44206W        W 3643  11.692  25.158  12.580
44207W        W 3644  18.623   3.300  11.393
44208W        W 3645  41.034  43.461  13.945
44209W        W 3646  34.428  10.350  12.899
44210W        W 3647  33.568  26.952   4.340
44211W        W 3648  43.963  30.083  12.500
44212W        W 3649  19.725  23.082   4.293
44213W        W 3650  37.981  12.351   4.245
44214W        W 3651  32.915   2.757   4.830
44215W        W 3652  23.713   0.273  14.978
44216W        W 3653  42.409   2.951  12.048
44217W        W 3654   7.743  43.379  12.047
44218W        W 3655   3.869   1.760   1.225
44219W        W 3656  20.649  37.970  10.569
44220W        W 3657   5.749  44.283  12.342
44221W        W 3658  43.821  35.096   4.246
44222W        W 3659  41.318  30.914   3.683
44223W        W 3660  41.927  14.258  10.135
44224W        W 3661  15.285  23.571   1.733
44225W        W 3662  22.517  37.408   1.871
44226W        W 3663  16.312  12.323  12.959
44227W        W 3664  31.041   0.859   0.452
44228W        W 3665   4.906  17.800  11.585
44229W        W 3666  29.919  18.766   1.881
44230W        W 3667  33.079  42.807  10.509
44231W        W 3668  40.405  37.023   3.155
44232W        W 3669  34.895  37.988  12.461
44233W        W 3670  21.042  39.395  11.449
44234W        W 3671   3.730  10.782  10.623
44235W        W 3672  19.565  44.449   0.448
44236W        W 3673  28.666  22.540  10.030
44237W        W 3674  11.345  10.213  11.054
44238W        W 3675  11.643   8.721  10.940
44239W        W 3676  40.909  19.599  13.841
44240W        W 3677  24.004  27.190  12.407
44241W        W 3678   4.902  16.760   0.477
44242W        W 3679  11.275   4.700  12.884
44243W        W 3680  30.076  28.960  13.368
44244W        W 3681  39.960  32.549   1.322
44245W        W 3682  40.857  11.199  12.085
44246W        W 3683  26.065  23.031  11.075
44247W        W 3684  17.675   1.962  11.559
44248W        W 3685  26.044  12.285  14.371
44249W        W 3686   2.802  32.578   1.405
44250W        W 3687   5.866  14.816  11.535
44251W        W 3688  25.544   7.271  10.524
44252W        W 3689  10.307  16.221  12.348
44253W        W 3690  42.806  21.692   1.339
44254W        W 3691   3.946   9.782  14.465
44255W        W 3692  12.700  27.566  13.935
44256W        W 3693   1.308  27.670  10.403
44257W        W 3694  31.136  42.511  10.142
44258W        W 3695  32.422  33.607  12.551
44259W        W 3696  43.325  24.155  11.071
44260W        W 3697   0.384  37.561  14.853
44261W        W 3698  40.821  43.910  13.979
44262W        W 3699  10.642  23.054   1.718
44263W        W 3700  22.110  32.926  11.858
44264W        W 3701   1.798  21.174  11.379
44265W        W 3702  23.044  11.216  10.436
44266W        W 3703  16.189  18.198   2.683
44267W        W 3704  14.761   8.363   0.951
44268W        W 3705   8.711   3.879  11.604
44269W        W 3706  30.132  34.557  14.802
44270W        W 3707  37.892  44.322   1.443
44271W        W 3708  39.005  11.659   3.860
44272W        W 3709  24.668  10.169   1.243
44273W        W 3710  24.993  10.682   1.277
44274W        W 3711  32.949  31.148   0.437
44275W        W 3712  39.952  40.047   4.144
44276W        W 3713  33.973  34.047   0.422
44277W        W 3714  17.707  41.459   2.898
44278W        W 3715  38.070  15.236  13.516
44279W        W 3716  34.079  33.892   4.776
44280W        W 3717  25.558   6.184   4.123
44281W        W 3718  27.556   1.915  14.943
44282W        W 3719  21.666   9.226  14.373
44283W        W 3720   1.398  27.984  13.463
44284W        W 3721   5.302   1.821  11.939
44285W        W 3722  26.170   4.714  10.579
44286W        W 3723  22.656   2.422  11.605
44287W        W 3724  26.669  37.505   1.838
44288W        W 3725  32.941  13.155  13.884
44289W        W 3726   9.660   3.781  12.427
44290W        W 3727  23.113   9.728  11.420
44291W        W 3728  31.099   9.185  12.440
44292W        W 3729  11.190  36.473  14.346
44293W        W 3730  36.480  25.649  10.953
44294W        W 3731  16.080  22.636  14.795
44295W        W 3732  18.643   9.722   4.226
44296W        W 3733  27.640  18.138   4.660
44297W        W 3734  28.442  27.526  14.456
44298W        W 3735  18.681  31.961  12.878
44299W        W 3736  43.798  18.295   1.412
44300W        W 3737  16.178  18.585   0.769
44301W        W 3738  35.882  15.792  14.343
44302W        W 3739  15.797   9.182  14.858
44303W        W 3740  29.104  18.284   2.804
44304W        W 3741  32.499  33.109  14.990
44305W        W 3742  33.443  19.214  13.486
44306W        W 3743  19.614  19.563  12.916
44307W        W 3744  43.927   8.218   4.685
44308W        W 3745  18.163  11.784  14.291
44309W        W 3746  41.477   8.224   4.788
44310W        W 3747   4.310  22.220  13.839
44311W        W 3748  26.623  44.451  11.028
44312W        W 3749  29.510  17.286   9.924
44313W        W 3750   6.295   3.234  10.562
44314W        W 3751  13.813   3.346  12.942
44315W        W 3752   0.805   6.377  14.483
44316W        W 3753  20.767  36.391   4.722
44317W        W 3754   9.308   1.820   2.343
44318W        W 3755  44.386  31.042  11.391
44319W        W 3756  34.980   0.975  11.051
44320W        W 3757  29.951  37.527  10.922
44321W        W 3758   9.341   9.256  14.460
44322W        W 3759  23.513  37.347   3.811
44323W        W 3760  31.481  11.769   4.143
44324W        W 3761  21.567   8.896   1.757
44325W        W 3762  23.634  28.534  14.909
44326W        W 3763   5.419  32.572   3.713
44327W        W 3764   9.359  37.859  10.425
44328W        W 3765  39.342  25.069   0.393
44329W        W 3766   4.707  30.015  10.637
44330W        W 3767  35.451  24.609   4.181
44331W        W 3768  29.018  17.681  11.456
44332W        W 3769  18.176  21.048   0.788
44333W        W 3770  24.214  30.155   1.924
44334W        W 3771   4.794  25.048  10.037
44335W        W 3772  29.041  20.144  14.851
44336W        W 3773  37.060   8.198  14.287
44337W        W 3774   6.308  22.101   4.786
44338W        W 3775  36.374   2.745   0.462
44339W        W 3776   8.367  24.724  12.939
44340W        W 3777  16.718  34.932   0.902
44341W        W 3778  16.152   5.907   3.648
44342W        W 3779   5.222   7.268   4.114
44343W        W 3780   9.324  30.082   0.859
44344W        W 3781  23.679   8.683   3.386
44345W        W 3782  26.970   0.375   3.717
44346W        W 3783  28.019   2.855   3.376
44347W        W 3784  36.905  39.515   0.249
44348W        W 3785  41.999  41.511   0.910
44349W        W 3786   1.942   7.854  13.521
44350W        W 3787   9.274  41.403   3.337
44351W        W 3788  34.479  11.162  11.559
44352W        W 3789  18.626  32.550   4.669
44353W        W 3790  40.526  44.777   4.769
44354W        W 3791   6.875  34.615  11.869
44355W        W 3792   9.730  18.220  14.977
44356W        W 3793  28.579  24.050   4.812
44357W        W 3794  29.586   9.813   1.247
44358W        W 3795  43.466   8.867  12.464
44359W        W 3796  10.762  33.928  14.317
44360W        W 3797  41.817   8.663  14.028
44361W        W 3798  19.759  18.207  13.319
44362W        W 3799   1.428   6.908  10.974
44363W        W 3800   4.372  11.718  13.831
44364W        W 3801  44.873   8.200   3.847
44365W        W 3802  36.452   7.871  10.638
44366W        W 3803   6.818  44.005  13.518
44367W        W 3804  16.693  36.581   1.259
44368W        W 3805  13.608   9.787   1.254
44369W        W 3806  41.005  29.470  13.365
44370W        W 3807   0.742  32.038   2.241
44371W        W 3808  39.446  13.327  12.531
44372W        W 3809  26.192  21.716   3.774
44373W        W 3810  11.624  25.539  11.031
44374W        W 3811  22.112   1.884  12.442
44375W        W 3812  23.080  20.753   2.787
44376W        W 3813   2.424  24.523  12.071
44377W        W 3814  36.042  21.599   0.258
44378W        W 3815  13.669  10.672  13.339
44379W        W 3816  38.499  34.383  14.342
44380W        W 3817  17.795   5.333  14.855
44381W        W 3818  25.205  30.484   0.424
44382W        W 3819  12.229   1.245   2.260
44383W        W 3820  32.417  41.416  13.019
44384W        W 3821  30.974  30.077   1.449
44385W        W 3822  29.041   9.745  10.938
44386W        W 3823   2.844  32.400  14.383
44387W        W 3824   3.728  33.879   0.330
44388W        W 3825  43.306  34.115  11.549
44389W        W 3826  26.027   7.220   1.725
44390W        W 3827  30.655  23.708   2.212
44391W        W 3828  20.103  41.361   2.291
44392W        W 3829   6.836   1.858   2.751
44393W        W 3830  13.716  37.569  10.633
44394W        W 3831  13.805  20.101   3.761
44395W        W 3832  27.194  12.230   0.412
44396W        W 3833  24.010   0.433   0.442
44397W        W 3834  28.559   3.461  14.882
44398W        W 3835  35.856  28.029  12.484
44399W        W 3836   0.766   7.323  11.067
44400W        W 3837  31.503   0.334   1.405
44401W        W 3838  31.429  20.680   3.866
44402W        W 3839  40.932   3.734  14.906
44403W        W 3840  36.462  10.680  13.891
44404W        W 3841   6.909  14.659  11.520
44405W        W 3842   2.956  12.823   0.372
44406W        W 3843  34.082  29.054   0.300
44407W        W 3844   5.742  41.967   0.278
44408W        W 3845  29.547   1.409  14.004
44409W        W 3846   7.684   1.455   1.913
44410W        W 3847  39.875  11.671   0.743
44411W        W 3848  43.332   7.271  11.373
44412W        W 3849  36.928  16.182   3.298
44413W        W 3850  18.625   9.379   2.747
44414W        W 3851  28.450  25.034  13.791
44415W        W 3852  29.115  23.623   0.453
44416W        W 3853   9.378  10.785  10.594
44417W        W 3854  40.342  16.108  13.335
44418W        W 3855  25.560  19.546  11.507
44419W        W 3856  23.549  15.598   2.190
44420W        W 3857   9.744  27.020   1.839
44421W        W 3858   0.934  37.528   2.327
44422W        W 3859  20.079  15.178   3.372
44423W        W 3860  27.971  12.717  14.326
44424W        W 3861  34.435  33.398  14.435
44425W        W 3862  32.932  36.482   5.267
44426W        W 3863  10.799  29.567  14.454
44427W        W 3864  17.210  32.936  12.912
44428W        W 3865  12.793  28.672  10.457
44429W        W 3866   0.357   2.362   4.121
44430W        W 3867   2.876   8.759   3.757
44431W        W 3868   8.665  16.155   1.235
44432W        W 3869  43.484  30.118  14.911
44433W        W 3870  27.641  12.291  13.529
44434W        W 3871  28.165  41.944   4.750
44435W        W 3872  32.458   2.859   1.740
44436W        W 3873   7.220  33.561  14.441
44437W        W 3874   3.404   2.327  11.582
44438W        W 3875  40.378   6.333  13.500
44439W        W 3876  32.909  43.373  13.501
44440W        W 3877  17.183   5.812   0.386
44441W        W 3878   1.474   7.775   2.795
44442W        W 3879  12.729  20.551   3.700
44443W        W 3880  10.711  44.010   4.282
44444W        W 3881  37.527  12.612  11.375
44445W        W 3882  28.112   8.198  11.092
44446W        W 3883   1.434   7.813  13.998
44447W        W 3884  20.630   4.884   1.858
44448W        W 3885  22.725   1.797  14.958
44449W        W 3886  35.991   6.260   4.143
44450W        W 3887  13.645  42.382   4.175
44451W        W 3888   7.770  41.468  14.866
44452W        W 3889  31.112   7.682  11.556
44453W        W 3890  10.285  12.688   1.929
44454W        W 3891   4.296  25.097  11.078
44455W        W 3892  29.666  22.509  14.319
44456W        W 3893  34.982   7.266  11.063
44457W        W 3894  32.938  19.701  11.606
44458W        W 3895  10.154  28.515  11.987
44459W        W 3896  40.939  41.381   2.818
44460W        W 3897  30.931   3.232  14.844
44461W        W 3898  17.237  23.718   0.401
44462W        W 3899  32.105  26.470   0.746
44463W        W 3900  29.024  14.762   1.775
44464W        W 3901  12.662  16.192   4.781
44465W        W 3902   6.407  21.135  13.020
44466W        W 3903   9.675  33.937   3.840
44467W        W 3904  41.811  41.830  13.544
44468W        W 3905  38.428   9.272  13.900
44469W        W 3906  43.809   7.769   4.697
44470W        W 3907  36.384  39.945  12.494
44471W        W 3908  10.182  22.019   0.799
44472W        W 3909  41.331   7.314   2.381
44473W        W 3910  24.065  11.280   0.860
44474W        W 3911  18.693   8.782  14.825
44475W        W 3912  44.375  17.581  10.556
44476W        W 3913  40.381  30.492   2.338
44477W        W 3914  24.494   8.737   0.383
44478W        W 3915  29.920  11.763  10.959
44479W        W 3916   7.836  30.450   2.883
44480W        W 3917  19.151  18.234   1.333
44481W        W 3918  29.653  31.515   4.730
44482W        W 3919  40.946  13.677   2.864
44483W        W 3920  42.440  33.581   3.870
44484W        W 3921  10.668  31.099   2.780
44485W        W 3922  44.387   2.906  13.424
44486W        W 3923  40.351   5.763   0.256
44487W        W 3924  10.186  39.465  14.325
44488W        W 3925  17.767  14.322   1.253
44489W        W 3926   7.370  25.122  11.890
44490W        W 3927  17.790   1.881  12.872
44491W        W 3928   3.726  26.656  14.336
44492W        W 3929  40.897  33.896   4.234
44493W        W 3930  43.435   1.947  10.464
44494W        W 3931  35.441  21.577   1.401
44495W        W 3932  32.945  36.455   4.142
44496W        W 3933   7.740  14.268  11.906
44497W        W 3934  14.261  32.096   3.826
44498W        W 3935  15.185  43.801   4.308
44499W        W 3936  30.937  17.667   4.220
44500W        W 3937  19.648  43.795   0.730
44501W        W 3938  26.626  15.291   2.386
44502W        W 3939  30.497  30.519   4.607
44503W        W 3940   5.688  20.573  14.424
44504W        W 3941  33.379  26.619  11.859
44505W        W 3942   0.916  34.874   3.308
44506W        W 3943  29.663   8.245  11.387
44507W        W 3944  26.068  37.940  13.998
44508W        W 3945  19.743  12.618  12.546
44509W        W 3946   4.831  28.578  14.425
44510W        W 3947  20.587  42.945   0.375
44511W        W 3948  42.801  35.395  11.016
44512W        W 3949  17.067  33.450  11.943
44513W        W 3950  17.260  44.379   3.672
44514W        W 3951   0.492  16.106  14.383
44515W        W 3952  37.515   5.271  14.483
44516W        W 3953  38.363  25.966  13.057
44517W        W 3954   9.368  24.664  11.510
44518W        W 3955   4.930  10.340   4.616
44519W        W 3956  15.322  17.773   0.809
44520W        W 3957  31.938   0.294   2.306
44521W        W 3958  20.037   5.244   0.947
44522W        W 3959  12.801   2.900  13.961
44523W        W 3960  21.218  29.975   0.358
44524W        W 3961   0.453   2.314   0.375
44525W        W 3962   1.298  25.111   0.383
44526W        W 3963  39.486  17.619   3.367
44527W        W 3964  11.858  40.803  10.933
44528W        W 3965  15.272  27.569   0.347
44529W        W 3966  16.681  20.089   0.322
44530W        W 3967   8.774   1.932  14.936
44531W        W 3968  10.657   6.329  13.359
44532W        W 3969  35.475  24.006  14.319
44533W        W 3970  15.639  38.445  13.543
44534W        W 3971  39.886  26.966   4.800
44535W        W 3972  43.848  33.442   0.371
44536W        W 3973  10.762  35.935  14.446
44537W        W 3974  37.830   3.370   3.798
44538W        W 3975  30.155   6.860   0.344
44539W        W 3976   7.823   7.800   1.735
44540W        W 3977  39.314  18.759  13.325
44541W        W 3978  36.512  43.883   3.852
44542W        W 3979   0.830  14.795  12.532
44543W        W 3980  39.956  30.495  13.327
44544W        W 3981  30.562  32.478   1.309
44545W        W 3982   9.711  19.120   0.958
44546W        W 3983  33.620  42.958  11.099
44547W        W 3984  42.990  13.829   2.713
44548W        W 3985   8.342   3.898   2.346
44549W        W 3986  28.460  39.337  11.002
44550W        W 3987  25.613  30.029  10.541
44551W        W 3988   4.739   1.899  10.612
44552W        W 3989  16.642   3.925   3.339
44553W        W 3990  28.080  20.063   3.717
44554W        W 3991  32.948  34.544   3.300
44555W        W 3992  15.823  34.501  14.988
44556W        W 3993  36.401  19.147  12.917
44557W        W 3994  40.427  43.455   3.268
44558W        W 3995  16.798  37.442  12.824
44559W        W 3996  19.218  22.664   1.270
44560W        W 3997  11.183  24.655   2.806
44561W        W 3998  22.246   0.886  14.958
44562W        W 3999   2.873  39.347   4.690
44563W        W 4000  23.045  25.672  10.460
44564W        W 4001   2.795  23.988  10.932
44565W        W 4002  27.133  39.554  12.504
44566W        W 4003   2.898  12.172   4.241
44567W        W 4004  27.621  43.004  10.585
44568W        W 4005   2.379  24.654   2.824
44569W        W 4006  25.090  10.756   2.711
44570W        W 4007   0.766  44.956  12.476
44571W        W 4008  18.763  34.581  13.885
44572W        W 4009   8.816   5.286   3.350
44573W        W 4010  18.081  39.535  14.458
44574W        W 4011  40.910  43.396  14.419
44575W        W 4012  18.683  13.752  10.447
44576W        W 4013  11.761  30.602   0.838
44577W        W 4014  12.615  34.433   1.413
44578W        W 4015  37.947   4.383  10.470
44579W        W 4016  34.062  43.431  10.485
44580W        W 4017   1.344  38.850   2.754
44581W        W 4018  30.450  35.480  14.462
44582W        W 4019  21.079  36.926   2.779
44583W        W 4020  18.628  33.030  14.900
44584W        W 4021  13.708  20.538   3.356
44585W        W 4022   7.238  38.451  14.822
44586W        W 4023  42.519  35.416  14.969
44587W        W 4024  28.094  44.300   2.697
44588W        W 4025   4.324  28.041  12.048
44589W        W 4026  31.503  27.615  10.628
44590W        W 4027  23.615  21.518   0.328
44591W        W 4028   4.781  17.801   2.724
44592W        W 4029  10.811  11.201   4.600
44593W        W 4030  25.513  23.536   0.287
44594W        W 4031  31.113  35.852  12.554
44595W        W 4032  11.702  30.639  11.551
44596W        W 4033  28.528  39.994   3.661
44597W        W 4034  11.828  25.523  14.393
44598W        W 4035  42.824  35.084  13.492
44599W        W 4036  32.061  18.182  11.116
44600W        W 4037  33.454   9.235  10.412
44601W        W 4038  41.019  43.022   2.814
44602W        W 4039  18.705  16.203   2.758
44603W        W 4040  34.890  15.639  14.498
44604W        W 4041  38.557  37.024   0.262
44605W        W 4042  25.188  38.048  12.488
44606W        W 4043  39.479  14.690  14.938
44607W        W 4044  39.812  25.534  13.991
44608W        W 4045  37.045  41.923   9.534
44609W        W 4046  22.572  36.049   3.751
44610W        W 4047  14.597  35.878   4.262
44611W        W 4048  26.146   0.851  14.472
44612W        W 4049  36.507  37.019   2.301
44613W        W 4050  13.657  34.869   4.676
44614W        W 4051  25.216   1.396   0.406
44615W        W 4052  44.955  23.545   3.355
44616W        W 4053  40.416  16.695   3.821
44617W        W 4054  41.507   6.746   0.958
44618W        W 4055  24.212  32.017   2.698
44619W        W 4056  33.126  14.791   2.336
44620W        W 4057  11.818  15.709  10.119
44621W        W 4058  23.668  29.971   1.297
44622W        W 4059  12.753   4.864  11.553
44623W        W 4060  38.487  17.117   4.198
44624W        W 4061  10.791  25.218  12.006
44625W        W 4062  36.003  42.375   4.340
44626W        W 4063  24.045  21.228   2.751
44627W        W 4064  21.200  38.423  14.419
44628W        W 4065  29.522  12.239  13.860
44629W        W 4066  35.402  19.056   3.773
44630W        W 4067  10.165   3.281   3.677
44631W        W 4068  30.602   0.817  14.394
44632W        W 4069  20.271  27.022   4.253
44633W        W 4070  11.350  13.608  10.937
44634W        W 4071  31.406  42.811  10.973
44635W        W 4072  29.969  14.795  10.591
44636W        W 4073  36.518   3.385   4.744
44637W        W 4074  21.575   1.899  12.578
44638W        W 4075  24.118  15.254   1.372
44639W        W 4076   0.889  19.637   1.828
44640W        W 4077   4.866   7.187  11.966
44641W        W 4078  15.214  16.637  14.421
44642W        W 4079  22.616  28.550   4.806
44643W        W 4080  17.223  44.351  13.955
44644W        W 4081  13.713  25.664  11.418
44645W        W 4082  35.388  13.253   3.169
44646W        W 4083  41.037  39.327  14.816
44647W        W 4084  44.308  38.441  12.367
44648W        W 4085  40.372  28.957   3.786
44649W        W 4086  17.696  18.081  14.297
44650W        W 4087  14.205  11.719  12.880
44651W        W 4088  41.804   0.839  14.822
44652W        W 4089  29.080  22.179   3.678
44653W        W 4090  42.902  12.212   3.211
44654W        W 4091  30.120  32.012   0.378
44655W        W 4092  11.753  21.704   0.417
44656W        W 4093  31.938  35.360   2.844
44657W        W 4094  19.254   5.717   4.605
44658W        W 4095  24.712  18.133   0.295
44659W        W 4096  27.015   0.768  14.970
44660W        W 4097  14.757  27.523  11.008
44661W        W 4098   3.716   8.664  12.527
44662W        W 4099   1.942  27.022   1.395
44663W        W 4100  21.725  30.585  13.038
44664W        W 4101  33.390  34.967   2.816
44665W        W 4102  21.578  39.860   4.131
44666W        W 4103  10.218  22.047  11.916
44667W        W 4104  12.257  11.725  11.460
44668W        W 4105  11.732  32.458  14.280
44669W        W 4106  27.167  33.457  13.844
44670W        W 4107   5.787  35.498  11.417
44671W        W 4108  18.255   8.349   3.820
44672W        W 4109  41.405  21.519   3.741
44673W        W 4110  35.581  10.381   2.685
44674W        W 4111  30.466   5.255  11.595
44675W        W 4112   2.807   3.835   3.714
44676W        W 4113  34.380  32.003   4.212
44677W        W 4114  38.912   1.784  14.488
44678W        W 4115  16.129  26.475  13.845
44679W        W 4116  16.786  42.907   2.777
44680W        W 4117  43.314  31.612   0.885
44681W        W 4118  43.972  22.032  12.513
44682W        W 4119  10.655   4.407  13.447
44683W        W 4120  10.228  11.363   3.161
44684W        W 4121   5.740  37.883  11.910
44685W        W 4122  35.966  43.975   0.360
44686W        W 4123  12.742   4.748   1.749
44687W        W 4124  20.608   5.423   3.176
44688W        W 4125  39.966   3.716   3.799
44689W        W 4126  31.056   7.896   0.335
44690W        W 4127  16.593  38.329   3.706
44691W        W 4128  25.216   4.328   2.217
44692W        W 4129   6.822  18.263  10.577
44693W        W 4130  38.351  38.945   4.141
44694W        W 4131  33.588  12.735   5.310
44695W        W 4132  42.872  23.015   3.318
44696W        W 4133  17.779  38.500   3.747
44697W        W 4134  20.611  18.689   2.831
44698W        W 4135   4.440  14.682  10.590
44699W        W 4136  31.569  38.060   4.730
44700W        W 4137  19.168  36.461  13.407
44701W        W 4138   7.372  18.257   0.848
44702W        W 4139  15.146   7.672  12.053
44703W        W 4140   9.348  35.988  10.014
44704W        W 4141  16.700  20.759   4.806
44705W        W 4142  34.070  39.049   1.783
44706W        W 4143   9.692  41.926   1.933
44707W        W 4144  36.074  23.556   3.686
44708W        W 4145  24.027   9.243  12.943
44709W        W 4146  14.249  25.033  11.922
44710W        W 4147  35.074  35.105  11.450
44711W        W 4148  44.358   9.771  10.963
44712W        W 4149  22.046   8.388  12.835
44713W        W 4150  19.669  43.418   1.866
44714W        W 4151   6.409  10.725  11.105
44715W        W 4152   7.904  15.740   3.802
44716W        W 4153  37.999  11.851   0.380
44717W        W 4154  25.644  15.167  11.971
44718W        W 4155  37.003  31.044   4.124
44719W        W 4156   1.400  16.222  14.311
44720W        W 4157  41.952  10.702  14.323
44721W        W 4158  42.777  41.895  11.464
44722W        W 4159  38.056  33.605  10.139
44723W        W 4160  11.755  11.198   0.417
44724W        W 4161  17.103  13.191  10.578
44725W        W 4162  29.595  32.015   3.759
44726W        W 4163  20.234  32.913  12.878
44727W        W 4164  44.940  13.702  12.823
44728W        W 4165   7.845  28.597   2.742
44729W        W 4166   3.399  18.150  14.772
44730W        W 4167  20.696  31.033  14.352
44731W        W 4168  25.999  30.094   2.780
44732W        W 4169  40.923  11.349   4.688
44733W        W 4170   2.930  43.814  14.984
44734W        W 4171  27.122   2.822   2.899
44735W        W 4172  20.535  37.406   2.211
44736W        W 4173  43.417  27.979   2.193
44737W        W 4174  32.424  34.969  13.353
44738W        W 4175   6.410  28.550  10.984
44739W        W 4176  40.027  37.894  14.808
44740W        W 4177  39.547  40.509   2.669
44741W        W 4178   4.358  11.196   4.744
44742W        W 4179   9.313  41.814  10.500
44743W        W 4180   6.316  27.445   1.776
44744W        W 4181  19.090  12.329   0.251
44745W        W 4182  30.116  13.774   4.817
44746W        W 4183  18.776  10.843  13.913
44747W        W 4184   5.193   8.764  11.571
44748W        W 4185  12.245  39.828   1.273
44749W        W 4186  18.779  20.244  12.562
44750W        W 4187  32.964   6.734   4.244
44751W        W 4188  28.010  10.748   4.699
44752W        W 4189   1.951   4.759   0.786
44753W        W 4190   1.392  12.690   2.251
44754W        W 4191  31.092  26.992   1.800
44755W        W 4192  39.023  16.657  14.765
44756W        W 4193  23.196  42.385   2.844
44757W        W 4194   1.826  28.522  14.831
44758W        W 4195  25.537   9.736  12.548
44759W        W 4196  34.455  26.985   4.278
44760W        W 4197  33.894  10.298   1.380
44761W        W 4198  43.362  35.423   1.860
44762W        W 4199  36.030  28.140  11.531
44763W        W 4200   5.381   0.835   1.888
44764W        W 4201  44.766  13.256   0.434
44765W        W 4202  28.634   9.189  14.330
44766W        W 4203  31.136  16.670  10.981
44767W        W 4204   5.909  31.505   3.258
44768W        W 4205  35.463  14.202   0.745
44769W        W 4206  22.577  18.192  10.094
44770W        W 4207   0.463  30.647   2.214
44771W        W 4208  39.004  17.231  11.377
44772W        W 4209  37.908  17.648   3.210
44773W        W 4210  28.971  19.145  13.467
44774W        W 4211  38.929  23.236  10.485
44775W        W 4212  16.115  32.950  12.005
44776W        W 4213  27.117  12.229  14.020
44777W        W 4214  24.725   1.464   2.716
44778W        W 4215  31.522  14.687  10.920
44779W        W 4216   4.436   9.321   4.167
44780W        W 4217   7.185   3.279  11.517
44781W        W 4218  14.815  41.878  14.978
44782W        W 4219   0.744  29.523   9.954
44783W        W 4220  22.010  30.128  14.795
44784W        W 4221  36.351   6.705   1.916
44785W        W 4222  16.578  40.807   5.801
44786W        W 4223   6.318  36.354   3.176
44787W        W 4224  23.226  19.573  14.013
44788W        W 4225  44.340   3.903  11.484
44789W        W 4226  24.640  31.475   0.412
44790W        W 4227  23.606  38.422  13.936
44791W        W 4228  41.816  38.481  11.433
44792W        W 4229  40.902  23.018  11.609
44793W        W 4230  19.655  22.145   5.151
44794W        W 4231   5.324  30.983  10.405
44795W        W 4232  26.524  26.039   4.833
44796W        W 4233   2.900  44.304  13.041
44797W        W 4234  16.268  15.731   2.869
44798W        W 4235  12.286  38.555   0.848
44799W        W 4236  26.043  39.957   0.858
44800W        W 4237  43.000  16.237  11.026
44801W        W 4238  42.779  38.550   1.431
44802W        W 4239   0.968  24.541   2.204
44803W        W 4240  25.522   2.455  10.933
44804W        W 4241  18.279  19.113  13.534
44805W        W 4242  40.812  38.879  10.641
44806W        W 4243   0.310   2.458   2.193
44807W        W 4244   8.861  24.977   5.269
44808W        W 4245  19.657  35.472   4.123
44809W        W 4246  21.070  13.124  13.847
44810W        W 4247  10.711  30.497  13.847
44811W        W 4248  37.543  38.892   2.697
44812W        W 4249  16.573  41.963   5.657
44813W        W 4250  38.530  42.982   4.690
44814W        W 4251   4.304   6.837  13.956
44815W        W 4252  21.569  40.894   0.830
44816W        W 4253   6.218  26.095  11.905
44817W        W 4254  25.664  43.912   3.702
44818W        W 4255   3.744  11.176  10.137
44819W        W 4256  17.091  33.925   3.855
44820W        W 4257  33.429  18.779   4.334
44821W        W 4258   6.381  29.929  12.052
44822W        W 4259   6.343  18.760   4.663
44823W        W 4260   2.854   9.887  13.937
44824W        W 4261  23.996  17.221   2.764
44825W        W 4262   4.846  22.601   0.890
44826W        W 4263  34.942   3.956  12.364
44827W        W 4264  42.382   5.251   2.681
44828W        W 4265   7.180  15.785   3.218
44829W        W 4266  27.480  15.130  12.004
44830W        W 4267  33.466  35.601  11.080
44831W        W 4268  34.921  18.634   2.845
44832W        W 4269  37.552   9.708  12.928
44833W        W 4270  12.630  14.663   1.237
44834W        W 4271  11.345  39.064   1.773
44835W        W 4272   5.809  15.719   2.723
44836W        W 4273  16.084  31.087  13.918
44837W        W 4274   7.799  23.726  10.080
44838W        W 4275  14.741  10.157   3.371
44839W        W 4276  21.561  35.947  12.886
44840W        W 4277  32.459  15.687   1.930
44841W        W 4278   9.826  19.673  12.535
44842W        W 4279  27.557   3.372  12.956
44843W        W 4280  19.057   5.871  13.427
44844W        W 4281   6.899   5.825   2.781
44845W        W 4282  32.008  24.509  12.835
44846W        W 4283  43.802  40.885   5.310
44847W        W 4284   4.941   1.309  12.432
44848W        W 4285   5.425  25.541   4.141
44849W        W 4286  13.294  39.526  12.493
44850W        W 4287  18.110  26.658  13.433
44851W        W 4288  12.306   7.687   2.742
44852W        W 4289   6.398  41.829   2.338
44853W        W 4290   0.823  24.110   2.861
44854W        W 4291  17.146  42.911  13.327
44855W        W 4292   3.446  42.023  13.882
44856W        W 4293  29.023  31.927  11.513
44857W        W 4294  44.871  27.973   4.728
44858W        W 4295  23.709  25.710  14.893
44859W        W 4296  43.944  16.682  12.439
44860W        W 4297  34.091  40.513  13.893
44861W        W 4298   3.412  14.274   5.304
44862W        W 4299  39.063  18.761   0.286
44863W        W 4300  36.095  17.725   1.770
44864W        W 4301  41.949  17.149   2.297
44865W        W 4302   9.302   8.277   0.317
44866W        W 4303  11.677   6.331   3.310
44867W        W 4304  38.355  24.575  13.322
44868W        W 4305  21.610  43.457   4.787
44869W        W 4306   3.460   6.418  13.313
44870W        W 4307  39.547  26.686   1.439
44871W        W 4308  39.029  37.038   0.947
44872W        W 4309  29.564  39.384   3.156
44873W        W 4310  33.875  40.393   2.334
44874W        W 4311  32.081   4.725  10.438
44875W        W 4312  14.171  44.927   0.432
44876W        W 4313   9.724  18.160  12.916
44877W        W 4314  37.402  43.365   1.886
44878W        W 4315  31.143   4.800   4.334
44879W        W 4316  14.260  41.509   4.190
44880W        W 4317  18.640   7.838   0.929
44881W        W 4318   0.938   3.297   4.823
44882W        W 4319  12.199  34.022   4.630
44883W        W 4320   8.294  17.111   1.704
44884W        W 4321  41.031  36.033   4.277
44885W        W 4322   4.410  13.263  14.815
44886W        W 4323  36.039   2.825  12.499
44887W        W 4324  12.710   9.320   2.700
44888W        W 4325  22.681  24.642   4.695
44889W        W 4326  30.157  23.570   1.403
44890W        W 4327  34.474  24.489  11.108
44891W        W 4328  18.663  10.694   3.833
44892W        W 4329  44.967  14.607  10.471
44893W        W 4330  14.588  28.598  10.442
44894W        W 4331  16.808  27.001   2.273
44895W        W 4332  18.640  39.918  12.383
44896W        W 4333  30.563   3.850   4.766
44897W        W 4334  29.960  33.095  14.913
44898W        W 4335   5.378  11.171  14.842
44899W        W 4336  10.802   2.848  12.870
44900W        W 4337   6.369  41.967   3.200
44901W        W 4338  14.209  17.134  13.955
44902W        W 4339  14.639  43.893  12.902
44903W        W 4340  24.176  35.954  11.478
44904W        W 4341   2.857   9.395  12.840
44905W        W 4342  12.281  16.803   4.152
44906W        W 4343  39.992  30.152   2.719
44907W        W 4344  21.204  39.844   2.279
44908W        W 4345  27.542  37.421   3.246
44909W        W 4346  42.788  21.751   2.786
44910W        W 4347  10.644  16.649  10.419
44911W        W 4348  23.025   8.859  10.056
44912W        W 4349  27.057  33.614  10.059
44913W        W 4350  31.037  15.113  13.437
44914W        W 4351  10.875  15.690   3.280
44915W        W 4352  41.299  33.563   2.183
44916W        W 4353  15.714  32.554   1.245
44917W        W 4354  43.428  20.678   4.132
44918W        W 4355   1.356  37.384   3.671
44919W        W 4356  36.844   8.221   0.749
44920W        W 4357   6.349   9.354  10.474
44921W        W 4358   1.385  25.004   2.325
44922W        W 4359  34.407  27.164  13.435
44923W        W 4360  33.889  34.108  12.027
44924W        W 4361  42.445  42.396   4.652
44925W        W 4362  29.653  17.078  14.788
44926W        W 4363  14.166  31.498  11.489
44927W        W 4364  19.556  44.887  10.920
44928W        W 4365  13.730  42.345   1.396
44929W        W 4366  18.067  10.336  12.889
44930W        W 4367  11.218   1.405  14.869
44931W        W 4368  15.693  11.806   1.729
44932W        W 4369  22.712  25.596  12.071
44933W        W 4370  24.690  18.770   4.621
44934W        W 4371  34.561  28.468  12.896
44935W        W 4372  11.696   7.899  10.595
44936W        W 4373  20.714  12.742  13.420
44937W        W 4374  42.361   8.317  11.021
44938W        W 4375  29.517  43.328  11.121
44939W        W 4376  29.965  40.331  14.801
44940W        W 4377   1.283   7.819   1.926
44941W        W 4378   4.784  34.492   0.751
44942W        W 4379  11.642  20.636   0.391
44943W        W 4380  23.108   9.860   4.307
44944W        W 4381  39.858  12.844   4.705
44945W        W 4382  13.786  41.998   0.418
44946W        W 4383   4.735  36.495   4.793
44947W        W 4384   8.869  19.541  14.832
44948W        W 4385   3.924  19.194  12.987
44949W        W 4386  38.517  22.113  13.919
44950W        W 4387  33.978   4.886  12.855
44951W        W 4388  13.719   7.718   4.172
44952W        W 4389  43.328   6.684  14.478
44953W        W 4390   0.394   0.359   1.842
44954W        W 4391  37.425  44.869   3.693
44955W        W 4392   0.789  24.550   0.331
44956W        W 4393  41.513   2.738  12.887
44957W        W 4394  14.614  10.738   4.766
44958W        W 4395  44.311  44.499   3.853
44959W        W 4396  10.354   8.763  14.389
44960W        W 4397   5.688  38.529  14.408
44961W        W 4398  33.962  22.594   4.597
44962W        W 4399  24.684   8.347  14.893
44963W        W 4400  32.059  19.090  13.839
44964W        W 4401  28.558  16.699   4.809
44965W        W 4402   0.882   1.395   0.821
44966W        W 4403  35.375  25.668   2.705
44967W        W 4404  38.943   9.757   0.482
44968W        W 4405  29.608  13.332   3.380
44969W        W 4406  11.808  39.842  14.946
44970W        W 4407  15.301  18.724  11.939
44971W        W 4408   7.245  37.373  11.528
44972W        W 4409  30.912  31.566   1.711
44973W        W 4410  41.980  44.983   1.902
44974W        W 4411   1.747  29.488   4.298
44975W        W 4412  12.286  18.765   4.315
44976W        W 4413  27.180  23.997   2.367
44977W        W 4414  36.902   1.807  13.415
44978W        W 4415   4.885  20.641  13.493
44979W        W 4416  18.723   5.285  13.815
44980W        W 4417  24.085  20.034   1.274
44981W        W 4418  39.449  16.807   2.308
44982W        W 4419  32.024   9.260  11.445
44983W        W 4420  10.861  32.984   1.277
44984W        W 4421  35.907  30.424  11.000
44985W        W 4422   4.310  42.796   2.663
44986W        W 4423  27.972   2.393   1.352
44987W        W 4424   4.782   3.418   0.885
44988W        W 4425  11.350  20.054   2.391
44989W        W 4426  22.232  14.278   0.292
44990W        W 4427  18.192  32.548   0.290
44991W        W 4428   9.650  10.313   1.222
44992W        W 4429  19.645  37.395   3.795
44993W        W 4430  22.103  16.770   4.666
44994W        W 4431   7.798  43.336  14.339
44995W        W 4432   6.897  40.023  11.887
44996W        W 4433  22.190  41.382   4.307
44997W        W 4434   3.305  36.461   1.342
44998W        W 4435   7.312  23.490   2.280
44999W        W 4436  14.740  12.734   0.893
45000W        W 4437  27.167  13.204  13.837
45001W        W 4438  36.021  17.762  10.473
45002W        W 4439   1.966  44.346  11.129
45003W        W 4440  42.468  22.526   3.866
45004W        W 4441   6.386  18.112  13.826
45005W        W 4442  39.399  20.051  11.382
45006W        W 4443  23.165  23.049  10.644
45007W        W 4444  38.414   6.856  14.821
45008W        W 4445  12.649   8.847   4.761
45009W        W 4446  20.131  44.810   2.822
45010W        W 4447  17.671  36.579  14.425
45011W        W 4448  15.603  42.342  14.448
45012W        W 4449  20.198   7.826  14.986
45013W        W 4450  22.049  21.689  11.915
45014W        W 4451  32.074  14.835   1.378
45015W        W 4452  31.108  41.031   5.766
45016W        W 4453  40.902  35.416   2.782
45017W        W 4454  14.754  39.527  11.471
45018W        W 4455  27.155  21.141  14.275
45019W        W 4456  26.568  12.271   2.225
45020W        W 4457  38.507  38.890  13.339
45021W        W 4458   7.667   3.380  10.518
45022W        W 4459  10.731  14.810  12.554
45023W        W 4460   4.232  12.857   3.235
45024W        W 4461  33.626  26.544  10.937
45025W        W 4462  34.404   5.261  11.545
45026W        W 4463  11.746  38.915  13.823
45027W        W 4464  40.370  10.716  14.794
45028W        W 4465   6.791  41.504   4.807
45029W        W 4466  13.718  37.442  11.408
45030W        W 4467   2.782  14.142   5.128
45031W        W 4468   9.791  24.507   2.280
45032W        W 4469  11.300  15.597   4.762
45033W        W 4470  32.413  15.108   2.389
45034W        W 4471  35.483  21.208  11.060
45035W        W 4472  14.660  13.199  10.974
45036W        W 4473  25.711  26.497  10.582
45037W        W 4474  34.963  14.663  14.762
45038W        W 4475   2.283  19.541   3.384
45039W        W 4476  42.362   3.940  14.324
45040W        W 4477  17.654   2.330   1.238
45041W        W 4478  37.489  36.924   1.364
45042W        W 4479  13.782  40.849   0.252
45043W        W 4480   7.679  42.497  14.414
45044W        W 4481   2.311  34.381  10.495
45045W        W 4482   8.850  41.477  11.468
45046W        W 4483  37.932   8.350   2.891
45047W        W 4484   4.332   8.168   1.301
45048W        W 4485  33.451  19.255  14.348
45049W        W 4486  44.951  36.347   2.662
45050W        W 4487  11.349  39.381   2.775
45051W        W 4488  21.565  17.061  13.793
45052W        W 4489  21.687   6.184   0.264
45053W        W 4490  40.433  12.653  11.524
45054W        W 4491  44.478  36.576  12.096
45055W        W 4492  31.903  26.041  11.946
45056W        W 4493  38.055  16.773  13.961
45057W        W 4494   9.318   2.853   4.653
45058W        W 4495  44.781  11.698   1.239
45059W        W 4496  14.832  26.676   2.276
45060W        W 4497  44.320   8.287   3.711
45061W        W 4498  39.505  15.085  10.516
45062W        W 4499  26.484   5.868   3.828
45063W        W 4500   3.414  37.366   4.348
45064W        W 4501  44.965  15.700   1.347
45065W        W 4502  22.210   2.798  13.934
45066W        W 4503  35.423  22.167   0.799
45067W        W 4504  16.708  35.534   3.331
45068W        W 4505  37.484   3.225   0.387
45069W        W 4506  19.596  35.879  14.298
45070W        W 4507   1.442  30.597  12.405
45071W        W 4508  41.447  15.726   4.654
45072W        W 4509  10.710  42.483  13.483
45073W        W 4510  28.013  31.513  10.934
45074W        W 4511  24.116  38.496  14.011
45075W        W 4512  30.423  18.191  13.038
45076W        W 4513   5.424  29.463   3.384
45077W        W 4514  12.187   4.720   4.690
45078W        W 4515  37.441  17.257   0.758
45079W        W 4516   9.196  21.166   5.281
45080W        W 4517  37.937  32.399  13.827
45081W        W 4518  36.483  19.165  12.045
45082W        W 4519  19.063  40.428   2.890
45083W        W 4520  34.096  36.549  11.911
45084W        W 4521  30.475   2.235   4.352
45085W        W 4522  39.435   4.333   4.227
45086W        W 4523  30.934  33.125   3.323
45087W        W 4524  36.973  32.629   2.317
45088W        W 4525   0.989  32.901   1.274
45089W        W 4526  18.177  13.208  14.797
45090W        W 4527  16.614  35.467   1.840
45091W        W 4528  19.263  16.239   9.930
45092W        W 4529   8.319  42.428   0.245
45093W        W 4530  20.256  13.783  14.958
45094W        W 4531   0.493  37.994   2.807
45095W        W 4532  29.460  43.431   1.442
45096W        W 4533  32.600  43.931  11.901
45097W        W 4534  33.494  11.761  14.798
45098W        W 4535  10.666  25.488   3.684
45099W        W 4536  17.695  30.991  11.111
45100W        W 4537   1.978  11.750   4.656
45101W        W 4538   9.685  33.090   2.692
45102W        W 4539  41.339  36.890  13.021
45103W        W 4540  24.021   5.751  11.547
45104W        W 4541  15.183   9.777  11.381
45105W        W 4542  32.420  36.897  13.053
45106W        W 4543  30.977  17.197   0.311
45107W        W 4544  43.416  10.693  13.398
45108W        W 4545   9.378  42.875  10.029
45109W        W 4546  23.040   2.421  14.371
45110W        W 4547  28.953  18.211   2.346
45111W        W 4548  44.489   7.768  14.291
45112W        W 4549   0.434   2.308  11.865
45113W        W 4550  10.806  14.798   2.684
45114W        W 4551  14.213   5.770  13.909
45115W        W 4552  11.767  21.596  12.065
45116W        W 4553  27.115   9.188   1.382
45117W        W 4554   9.167  40.976   2.896
45118W        W 4555  37.049  41.495   0.904
45119W        W 4556   6.394  12.202  12.350
45120W        W 4557  33.469   8.856  10.972
45121W        W 4558  24.524  31.958  12.383
45122W        W 4559  23.497  31.408   1.320
45123W        W 4560  11.168  11.146   1.720
45124W        W 4561  28.663  19.215   0.965
45125W        W 4562  38.930   7.671   5.223
45126W        W 4563  28.641  28.167   4.184
45127W        W 4564  18.066  24.634   0.449
45128W        W 4565  24.551  44.762   4.602
45129W        W 4566  26.694  44.931  11.121
45130W        W 4567  15.102  13.809  10.642
45131W        W 4568  29.634   2.760  14.771
45132W        W 4569  30.611   8.861   1.854
45133W        W 4570  10.789  35.100   4.729
45134W        W 4571  43.877  31.480  12.055
45135W        W 4572  22.641  33.126   3.743
45136W        W 4573  42.847  23.122   1.811
45137W        W 4574  12.667  12.654   2.213
45138W        W 4575  12.618  33.382  13.403
45139W        W 4576   5.237  29.054   4.347
45140W        W 4577  16.204  33.902  12.968
45141W        W 4578  10.870  15.805   4.182
45142W        W 4579  26.644   6.237   4.276
45143W        W 4580  32.948   1.285   1.754
45144W        W 4581  31.540  20.757   1.700
45145W        W 4582   3.289  15.093  14.463
45146W        W 4583  37.892   6.284  11.398
45147W        W 4584  23.994  14.765   2.330
45148W        W 4585  44.981  19.269   3.744
45149W        W 4586  20.527  22.672  13.540
45150W        W 4587  42.500   2.957   3.203
45151W        W 4588   4.373   0.872   4.642
45152W        W 4589  14.697   6.802  12.484
45153W        W 4590  42.891   8.881  10.611
45154W        W 4591  43.825  11.749  14.017
45155W        W 4592  33.529   4.782   2.330
45156W        W 4593  13.245   4.434   4.753
45157W        W 4594  24.981  27.611   2.786
45158W        W 4595   6.819  35.030  12.561
45159W        W 4596  35.443  33.519   1.430
45160W        W 4597   0.310  17.683  11.986
45161W        W 4598  39.824  28.598   0.275
45162W        W 4599  36.542  15.084  12.474
45163W        W 4600  30.011  28.970  12.846
45164W        W 4601  15.710  13.336   2.692
45165W        W 4602  31.995  17.094   0.896
45166W        W 4603  34.561   1.856  12.852
45167W        W 4604  44.949  17.221   2.294
45168W        W 4605  10.734  26.176  13.986
45169W        W 4606   5.740   8.368   0.452
45170W        W 4607  38.456  26.183   1.331
45171W        W 4608  43.410  12.286  10.411
45172W        W 4609  31.897  32.910   3.268
45173W        W 4610   5.723  36.364   1.873
45174W        W 4611  11.315  29.100   3.707
45175W        W 4612  10.777  38.341   0.805
45176W        W 4613  36.360  10.328   4.637
45177W        W 4614  16.626   4.859   4.202
45178W        W 4615   2.775  19.053   1.387
45179W        W 4616  27.610  34.022   2.740
45180W        W 4617  27.193  26.004   0.786
45181W        W 4618  20.239   7.755  11.482
45182W        W 4619  32.142   0.777   4.280
45183W        W 4620  33.569  25.696   4.285
45184W        W 4621  44.430   8.757  12.526
45185W        W 4622   9.186  38.896  10.511
45186W        W 4623  17.718  29.973   4.820
45187W        W 4624  11.158  37.414   1.236
45188W        W 4625   3.809  35.490  13.856
45189W        W 4626   6.206  11.359  14.827
45190W        W 4627  31.011  12.222  10.913
45191W        W 4628  40.500  30.047   4.838
45192W        W 4629  16.078  28.482   1.740
45193W        W 4630  23.005  16.772  11.045
45194W        W 4631  22.145  39.933  14.458
45195W        W 4632  15.703  33.438   2.272
45196W        W 4633  38.045  32.987   0.340
45197W        W 4634  31.018  13.185  12.353
45198W        W 4635  29.631  27.500   4.685
45199W        W 4636  38.556   8.216  13.895
45200W        W 4637   3.955  40.528  12.401
45201W        W 4638  18.178   9.269   0.894
45202W        W 4639  28.128   3.395  14.003
45203W        W 4640  21.681  24.196   9.464
45204W        W 4641  18.563  40.537  12.422
45205W        W 4642   1.830  16.111   4.600
45206W        W 4643   2.916  11.347   3.218
45207W        W 4644  44.906  16.250   2.221
45208W        W 4645   0.396   2.393   1.933
45209W        W 4646  43.385  32.107  11.418
45210W        W 4647  42.326  28.558   4.650
45211W        W 4648  38.401  24.594  14.289
45212W        W 4649  34.870  18.243  13.854
45213W        W 4650  34.932  17.559  12.555
45214W        W 4651   2.879  41.421   4.257
45215W        W 4652  23.582   2.280   0.899
45216W        W 4653  26.662  28.961   1.701
45217W        W 4654   6.913  15.699   0.387
45218W        W 4655  27.144   4.346   1.813
45219W        W 4656   0.902  11.656  13.858
45220W        W 4657  22.008  29.139   2.668
45221W        W 4658   3.360  33.892   1.404
45222W        W 4659  38.499  25.132  13.826
45223W        W 4660  16.676  36.477   2.669
45224W        W 4661  29.020  41.446   3.707
45225W        W 4662  38.822  15.297  10.130
45226W        W 4663  43.420  26.619  14.946
45227W        W 4664   6.215  23.556   0.743
45228W        W 4665  33.093  24.722  11.938
45229W        W 4666  37.009  17.302   0.774
45230W        W 4667   9.278  16.683   1.431
45231W        W 4668  13.794   1.325  12.471
45232W        W 4669  34.396   6.784   3.668
45233W        W 4670  42.812  44.278  11.498
45234W        W 4671  16.194  30.420  13.014
45235W        W 4672  42.959  38.884  14.874
45236W        W 4673  18.679  39.560  12.404
45237W        W 4674  20.247  44.915   1.446
45238W        W 4675   4.274  30.616  14.823
45239W        W 4676  37.339  16.159  13.342
45240W        W 4677  22.507  41.943   9.490
45241W        W 4678   7.348   3.825  13.846
45242W        W 4679   9.720   3.272   1.807
45243W        W 4680  31.066  10.702   1.326
45244W        W 4681  37.458  22.030   0.801
45245W        W 4682   2.807   0.822   2.335
45246W        W 4683  32.021  39.417   1.326
45247W        W 4684  41.973  14.188   3.382
45248W        W 4685  35.070  19.569   3.149
45249W        W 4686  24.660  34.537   1.812
45250W        W 4687  14.741  39.919   0.450
45251W        W 4688  21.587  44.273   3.707
45252W        W 4689  35.578   5.902   2.302
45253W        W 4690   2.822  34.076   0.297
45254W        W 4691  12.338  38.047   3.168
45255W        W 4692  42.518  26.113   2.852
45256W        W 4693  12.279   5.718  12.392
45257W        W 4694  35.454  10.234  11.919
45258W        W 4695  31.067  39.987   0.421
45259W        W 4696  29.998   5.904   0.330
45260W        W 4697  39.934  29.554  11.027
45261W        W 4698  28.676  25.627  11.908
45262W        W 4699   9.261  23.684  11.595
45263W        W 4700  30.597  29.423  11.435
45264W        W 4701   8.668  17.119   3.686
45265W        W 4702  26.670  37.979   1.704
45266W        W 4703  24.060  13.321  11.407
45267W        W 4704  25.511  10.712   4.347
45268W        W 4705  33.111  12.200  14.466
45269W        W 4706   3.410  32.132  13.043
45270W        W 4707   0.781  34.058  10.409
45271W        W 4708   1.890  11.187   0.432
45272W        W 4709  44.937  21.613  14.817
45273W        W 4710  29.099   1.297   2.850
45274W        W 4711  15.804  26.955  12.910
45275W        W 4712  32.483  34.493   3.338
45276W        W 4713  14.628  33.982   4.647
45277W        W 4714   1.734  30.559   1.443
45278W        W 4715   9.774  25.178   1.825
45279W        W 4716  41.920  25.701  10.612
45280W        W 4717  34.882   0.843   4.677
45281W        W 4718  20.060  13.225   0.919
45282W        W 4719  44.304  44.362   0.332
45283W        W 4720  25.610   0.345  10.927
45284W        W 4721   3.271  22.595   2.377
45285W        W 4722  18.122  39.509   1.232
45286W        W 4723  12.736  26.165   0.864
45287W        W 4724  34.540  28.943   2.242
45288W        W 4725  32.123  32.972   4.625
45289W        W 4726  21.694  28.065  12.345
45290W        W 4727   9.809  32.625  13.371
45291W        W 4728  33.509  24.660  14.478
45292W        W 4729  37.361  44.986  12.062
45293W        W 4730  20.743  12.139   1.274
45294W        W 4731   0.876  44.473  13.020
45295W        W 4732  20.248   0.904   2.214
45296W        W 4733  28.016   3.882   2.730
45297W        W 4734   7.370  37.972  14.827
45298W        W 4735  17.189  43.516   4.349
45299W        W 4736  41.474  29.105  14.444
45300W        W 4737  13.180  38.957  14.436
45301W        W 4738   6.696   7.415   1.715
45302W        W 4739  26.973   4.746   0.935
45303W        W 4740  14.590  14.750  14.286
45304W        W 4741   6.697  29.668  10.518
45305W        W 4742  33.018   0.801   2.755
45306W        W 4743  43.391   7.706   2.231
45307W        W 4744  21.192  31.636  13.952
45308W        W 4745   1.880  35.012   3.371
45309W        W 4746  11.638  33.470   3.846
45310W        W 4747  34.393  26.505   4.765
45311W        W 4748  28.548  16.782   3.687
45312W        W 4749  13.812  44.307  11.587
45313W        W 4750   3.816  13.232  10.081
45314W        W 4751  24.653  11.795  12.067
45315W        W 4752  16.155  13.286   2.227
45316W        W 4753  28.444  42.400   0.407
45317W        W 4754   0.804  20.214  12.404
45318W        W 4755  31.555  28.954  14.369
45319W        W 4756   0.973  11.262  13.932
45320W        W 4757  26.955   7.404  13.522
45321W        W 4758   8.860   9.364  14.797
45322W        W 4759  16.640  29.973   2.758
45323W        W 4760  23.112  10.283  12.059
45324W        W 4761  18.068  40.895   9.528
45325W        W 4762  15.617   9.372  10.610
45326W        W 4763  10.818  16.746   4.175
45327W        W 4764  31.111  29.121   1.397
45328W        W 4765  35.025  25.051  12.092
45329W        W 4766   9.665   7.198   0.813
45330W        W 4767   6.745  32.417  13.376
45331W        W 4768   2.851   2.823   2.894
45332W        W 4769  12.300  42.954  12.502
45333W        W 4770  41.333  22.580   1.231
45334W        W 4771   5.891  18.602  13.401
45335W        W 4772  18.226   9.269  12.030
45336W        W 4773  30.546  23.572   0.808
45337W        W 4774  32.415  27.156  14.341
45338W        W 4775  36.886  40.391   0.798
45339W        W 4776  33.450  34.089   1.267
45340W        W 4777   7.716  38.015  11.879
45341W        W 4778  41.905  16.740  12.556
45342W        W 4779  31.966  41.847  13.538
45343W        W 4780   9.240  27.078  13.940
45344W        W 4781  35.448  31.579   4.816
45345W        W 4782  18.154  16.665   1.252
45346W        W 4783  23.619  44.992   0.323
45347W        W 4784  23.055  11.336   1.265
45348W        W 4785  21.512  17.139  12.359
45349W        W 4786   2.260  40.328  10.472
45350W        W 4787  41.002  26.679  12.527
45351W        W 4788   2.434  16.208  11.400
45352W        W 4789  23.196  31.023   1.885
45353W        W 4790  27.447  38.529  12.899
45354W        W 4791  30.492  19.745  11.449
45355W        W 4792  13.243  44.504  11.079
45356W        W 4793  21.109   5.746   1.789
45357W        W 4794  25.681  26.633  13.868
45358W        W 4795  16.616  31.588  13.993
45359W        W 4796  11.859  17.727   3.732
45360W        W 4797  29.039  19.180   0.858
45361W        W 4798  26.965  18.076  11.584
45362W        W 4799   3.409  16.122  12.842
45363W        W 4800  23.566  26.671  13.362
45364W        W 4801   6.354  31.986  14.954
45365W        W 4802  29.124  13.137   4.140
45366W        W 4803  43.900  23.733   1.826
45367W        W 4804  18.740  44.263   1.316
45368W        W 4805  36.556   5.801   4.654
45369W        W 4806  40.451   5.350  14.893
45370W        W 4807  39.534  19.225   1.829
45371W        W 4808   4.235  11.733  11.033
45372W        W 4809  38.823  35.070  11.511
45373W        W 4810   7.226   9.367  11.524
45374W        W 4811  20.704  24.504   3.292
45375W        W 4812  16.579   0.879  13.912
45376W        W 4813   0.850  13.651  14.946
45377W        W 4814  17.274  26.474   1.233
45378W        W 4815  43.870   7.890  11.962
45379W        W 4816  36.575   0.814  13.516
45380W        W 4817  43.855  27.064   2.887
45381W        W 4818  44.370  31.500   4.290
45382W        W 4819   3.721  24.641  12.485
45383W        W 4820   4.703  12.256  14.901
45384W        W 4821  37.065   5.922   1.720
45385W        W 4822  10.255  42.512   0.870
45386W        W 4823   5.905  12.718  13.963
45387W        W 4824   2.370  39.469   3.291
45388W        W 4825  31.439  43.286  14.912
45389W        W 4826   0.805   1.768   2.402
45390W        W 4827   8.289   2.922   4.333
45391W        W 4828  32.964   7.207  12.407
45392W        W 4829  12.666  43.434   1.288
45393W        W 4830  44.415   9.303   0.953
45394W        W 4831  22.655  27.166  13.952
45395W        W 4832   5.816   7.195  11.534
45396W        W 4833  31.965  23.080   2.183
45397W        W 4834   4.415  37.569  14.483
45398W        W 4835   3.274  28.964  13.980
45399W        W 4836  23.083  42.786   3.760
45400W        W 4837  21.230  34.980  14.510
45401W        W 4838  26.578  44.779  14.338
45402W        W 4839  29.174  37.071  11.112
45403W        W 4840   9.314  10.721   3.206
45404W        W 4841  38.997  11.129  12.486
45405W        W 4842  14.607  10.363  14.289
45406W        W 4843   1.460  18.720  14.809
45407W        W 4844  34.941  12.622  11.464
45408W        W 4845   2.359  41.438  14.922
45409W        W 4846  15.306  36.568  13.881
45410W        W 4847  19.708  21.050  12.891
45411W        W 4848   4.706  24.091   9.665
45412W        W 4849  42.837   5.404   3.238
45413W        W 4850  42.896  21.205  10.444
45414W        W 4851  13.836   2.956   0.789
45415W        W 4852  32.927  21.027   5.222
45416W        W 4853  22.620   6.337  14.983
45417W        W 4854  10.794  31.637  14.295
45418W        W 4855  14.687   2.897   2.690
45419W        W 4856  25.038  23.605   0.478
45420W        W 4857   2.880   4.872  13.379
45421W        W 4858  24.532   1.755   1.933
45422W        W 4859   8.247  21.547   3.293
45423W        W 4860  42.875   1.778   2.232
45424W        W 4861   4.205   9.798  12.026
45425W        W 4862  13.250  35.981  10.428
45426W        W 4863  35.521  12.297   0.785
45427W        W 4864  26.015  31.578   3.800
45428W        W 4865   6.825  16.090   4.320
45429W        W 4866  34.555   2.941   1.308
45430W        W 4867  14.255  25.142   0.804
45431W        W 4868   3.715  36.979  12.569
45432W        W 4869  12.754  38.389  11.597
45433W        W 4870   4.414  32.917   0.386
45434W        W 4871  18.059  33.537  10.529
45435W        W 4872  36.896  35.568   4.680
45436W        W 4873   4.825  43.780   4.683
45437W        W 4874  29.031  13.197  11.524
45438W        W 4875   8.666  36.052  14.759
45439W        W 4876  26.125   5.271   0.453
45440W        W 4877   5.890  36.352   2.287
45441W        W 4878  36.363   2.355  12.979
45442W        W 4879  40.927  14.332   0.839
45443W        W 4880  17.797  30.959  11.586
45444W        W 4881   5.907  28.569  11.045
45445W        W 4882  41.945  43.886   1.809
45446W        W 4883  17.786   9.690  13.896
45447W        W 4884  14.204   1.326   1.894
45448W        W 4885  31.506  20.152  11.960
45449W        W 4886   9.747  14.309  13.394
45450W        W 4887  29.998  31.443  14.888
45451W        W 4888   7.883  25.701   2.355
45452W        W 4889   6.726  24.110   0.966
45453W        W 4890  34.375  43.293  13.962
45454W        W 4891  38.337  40.319   1.735
45455W        W 4892  29.064  27.116   1.729
45456W        W 4893   3.354  37.904  10.455
45457W        W 4894  21.736  30.656  13.427
45458W        W 4895  20.612  12.294  11.972
45459W        W 4896  31.550  39.503   0.318
45460W        W 4897  30.641   9.380   3.237
45461W        W 4898  26.017  24.625  14.485
45462W        W 4899  42.289  34.992  13.984
45463W        W 4900  38.507   7.324   0.793
45464W        W 4901  12.719  26.480   0.255
45465W        W 4902  23.061  11.765   2.813
45466W        W 4903  32.100  36.960  11.065
45467W        W 4904   7.872  36.526   1.272
45468W        W 4905  37.451   3.725  10.628
45469W        W 4906  18.142  42.409  11.478
45470W        W 4907  14.319  28.030   2.389
45471W        W 4908  10.863  39.480   2.771
45472W        W 4909  23.205  39.373   3.374
45473W        W 4910   5.407  15.120   0.865
45474W        W 4911  28.948  12.145  10.001
45475W        W 4912  23.719  25.521   0.290
45476W        W 4913  23.589   7.244   2.730
45477W        W 4914  41.001  20.202  13.034
45478W        W 4915  15.772   5.765   2.720
45479W        W 4916  28.010  10.793  14.396
45480W        W 4917  16.111   2.801  13.959
45481W        W 4918  10.175   5.748  10.118
45482W        W 4919   9.263  11.210   0.409
45483W        W 4920  22.018  42.850  13.518
45484W        W 4921  39.860  34.906  13.040
45485W        W 4922  41.510   1.464  11.083
45486W        W 4923  29.019  38.944   1.734
45487W        W 4924  42.015  29.969   3.353
45488W        W 4925  39.064  26.024   0.288
45489W        W 4926  24.222  36.401   1.338
45490W        W 4927  39.323  37.489  14.764
45491W        W 4928   2.233  20.547  13.371
45492W        W 4929  12.662   6.910   0.928
45493W        W 4930  35.441   1.973  14.984
45494W        W 4931  11.622   5.278   3.671
45495W        W 4932  32.001  38.916   5.709
45496W        W 4933   5.735  11.198   2.763
45497W        W 4934  37.358   8.792  14.795
45498W        W 4935  16.128   2.396   1.309
45499W        W 4936  11.349  37.831  14.929
45500W        W 4937  16.082   4.395   3.756
45501W        W 4938   6.352   0.936  11.956
45502W        W 4939  11.867   4.826   5.307
45503W        W 4940  39.428  10.764   2.685
45504W        W 4941   3.758  23.092  11.061
45505W        W 4942  22.727  16.705  11.983
45506W        W 4943  28.672  15.266   2.795
45507W        W 4944   0.914  41.519  11.548
45508W        W 4945  23.095  41.507  13.542
45509W        W 4946  17.196  27.606  10.568
45510W        W 4947  22.505  33.046  12.528
45511W        W 4948  29.075  22.702   3.317
45512W        W 4949   3.337   4.834   5.191
45513W        W 4950  43.494  31.438   1.260
45514W        W 4951   1.378  21.217  12.911
45515W        W 4952   8.854  28.042  12.928
45516W        W 4953   4.433  37.404  10.614
45517W        W 4954   6.776  38.508   4.172
45518W        W 4955  40.831  43.396  13.352
45519W        W 4956   3.399  16.793   3.666
45520W        W 4957  39.391  35.966  14.953
45521W        W 4958  22.615  33.442  12.575
45522W        W 4959  18.762   0.415  12.997
45523W        W 4960  22.017  43.005  14.911
45524W        W 4961  22.628  28.046  14.457
45525W        W 4962  19.041   5.837   2.293
45526W        W 4963  35.044  12.617  13.490
45527W        W 4964  42.353  12.120   2.853
45528W        W 4965  23.227  23.535  13.362
45529W        W 4966  25.151   3.362   3.630
45530W        W 4967   6.769  33.018   0.449
45531W        W 4968  29.053   9.380   3.316
45532W        W 4969  34.100  13.747   1.862
45533W        W 4970  35.372   6.689   1.218
45534W        W 4971  40.463   5.806   1.824
45535W        W 4972  23.609   0.417   0.788
45536W        W 4973   2.805   1.269  13.318
45537W        W 4974  17.183   7.172   0.315
45538W        W 4975  38.848  39.518  13.401
45539W        W 4976  36.453  22.179  14.900
45540W        W 4977  26.986  31.589   4.707
45541W        W 4978   9.296  44.861  14.374
45542W        W 4979  16.606  37.369  13.807
45543W        W 4980   0.888  28.624   3.852
45544W        W 4981  39.523   6.702   4.283
45545W        W 4982  31.130  26.986  12.860
45546W        W 4983  41.818  11.156  14.275
45547W        W 4984  29.644  39.986  12.420
45548W        W 4985  32.097  30.631  12.999
45549W        W 4986  19.734  22.618   1.282
45550W        W 4987  32.539  11.261  11.569
45551W        W 4988  15.609   7.810   5.150
45552W        W 4989  42.482   3.406  11.425
45553W        W 4990  25.023   4.285   3.694
45554W        W 4991  44.936  34.593   0.900
45555W        W 4992  15.674   2.311  10.583
45556W        W 4993  17.678   0.428   1.712
45557W        W 4994  32.951  14.809  14.884
45558W        W 4995   8.341   2.317   4.806
45559W        W 4996  42.966  28.465   2.331
45560W        W 4997  22.658  34.404  10.029
45561W        W 4998  34.514  26.465  13.024
45562W        W 4999  37.356  31.487   3.357
45563W        W 5000  43.766  20.700  10.425
45564W        W 5001  31.454   2.300   3.786
45565W        W 5002  26.603   1.791  12.476
45566W        W 5003  31.504   8.303  14.015
45567W        W 5004   1.424  17.241  12.467
45568W        W 5005   6.386   8.732  13.861
45569W        W 5006  30.625  25.068  12.096
45570W        W 5007  15.809  28.657  11.041
45571W        W 5008  23.142  43.900   0.804
45572W        W 5009  32.518  42.899   0.944
45573W        W 5010  20.749  42.821   1.341
45574W        W 5011  35.565  33.452  10.114
45575W        W 5012  20.130  12.353   2.341
45576W        W 5013   3.379   6.410   4.639
45577W        W 5014   8.256  35.039  11.009
45578W        W 5015  41.484  44.448   4.114
45579W        W 5016  19.167  11.229   4.247
45580W        W 5017  15.620  30.945   3.762
45581W        W 5018  37.880  22.193   0.860
45582W        W 5019  22.742  41.399   4.209
45583W        W 5020   3.782   4.707  11.072
45584W        W 5021  17.201  12.615  13.416
45585W        W 5022  30.512  35.423  12.422
45586W        W 5023  35.477  36.576  14.957
45587W        W 5024  43.285   2.815   2.746
45588W        W 5025  15.610  15.324   2.246
45589W        W 5026  18.599  27.008   3.256
45590W        W 5027  30.073  42.809  13.963
45591W        W 5028  31.962  33.398   3.189
45592W        W 5029  10.341  29.114  12.437
45593W        W 5030  27.955  17.081   0.336
45594W        W 5031   1.418  28.087  14.826
45595W        W 5032  42.363  41.014  12.479
45596W        W 5033  36.488  29.517  12.048
45597W        W 5034  43.858  43.934  13.949
45598W        W 5035  10.267  34.443  12.515
45599W        W 5036  13.320  13.769  10.546
45600W        W 5037   2.355  33.521   0.387
45601W        W 5038  41.329  10.753   2.723
45602W        W 5039   0.952  33.582  14.472
45603W        W 5040  35.033   2.866   1.914
45604W        W 5041  40.399  10.791   4.242
45605W        W 5042  30.558  26.154   4.253
45606W        W 5043  31.578  28.493  10.602
45607W        W 5044  11.685  21.082  12.558
45608W        W 5045   9.179  35.956  10.983
45609W        W 5046  18.754  18.165   0.847
45610W        W 5047  12.746  15.633  14.810
45611W        W 5048   7.209   8.691  14.010
45612W        W 5049  27.116  38.482  11.462
45613W        W 5050  19.731  38.342   2.722
45614W        W 5051  39.039  43.769  14.978
45615W        W 5052  36.489  43.377  12.903
45616W        W 5053   4.404   0.327  13.505
45617W        W 5054  24.487  15.764  11.012
45618W        W 5055  32.008  24.220  14.307
45619W        W 5056   1.740  42.928   2.801
45620W        W 5057  12.120  37.434   0.786
45621W        W 5058  16.242   6.834  11.865
45622W        W 5059  26.108  19.750   2.405
45623W        W 5060  40.853  18.273  12.003
45624W        W 5061  44.401  14.701   1.303
45625W        W 5062   2.235  11.742   3.166
45626W        W 5063  35.982  29.522   3.150
45627W        W 5064   7.353   7.338   3.376
45628W        W 5065   5.891  41.968   4.165
45629W        W 5066  35.420  25.047  13.458
45630W        W 5067  23.728  12.279  11.518
45631W        W 5068  43.332  42.470   0.364
45632W        W 5069  10.728  20.060   1.780
45633W        W 5070  21.709  35.086  12.034
45634W        W 5071  33.964  34.930   4.793
45635W        W 5072  44.795  42.854   2.240
45636W        W 5073  14.114   9.822   4.672
45637W        W 5074  16.218  36.590  14.961
45638W        W 5075  43.840  39.877   9.637
45639W        W 5076  37.473  19.592   2.339
45640W        W 5077  35.422  14.610  14.761
45641W        W 5078  31.930  42.996   1.397
45642W        W 5079  29.467  26.616  14.799
45643W        W 5080  19.094  18.188  11.590
45644W        W 5081   2.939  33.003   2.228
45645W        W 5082  22.609  17.205  12.055
45646W        W 5083   1.944   5.750   0.323
45647W        W 5084  20.661  12.117   2.873
45648W        W 5085   4.877   6.184   4.780
45649W        W 5086  16.079  25.212   1.237
45650W        W 5087  38.557   7.313   4.613
45651W        W 5088  33.527  19.619  14.968
45652W        W 5089  20.172  31.073  13.311
45653W        W 5090  33.472   9.267  14.865
45654W        W 5091  30.602   9.652  10.539
45655W        W 5092  39.844   4.882  10.455
45656W        W 5093  14.182  16.753  13.011
45657W        W 5094  18.177   8.714  14.351
45658W        W 5095   6.689  24.516  12.910
45659W        W 5096  28.634  36.934  10.507
45660W        W 5097  32.070  32.055   1.383
45661W        W 5098  23.238  30.939   4.823
45662W        W 5099  31.145  15.768  13.814
45663W        W 5100  35.089  39.818   5.608
45664W        W 5101  41.342   8.402  11.598
45665W        W 5102   7.408  27.576   4.636
45666W        W 5103  20.620  23.223   3.163
45667W        W 5104  10.160  34.062   1.383
45668W        W 5105   4.801  16.189  12.412
45669W        W 5106  22.742   1.746  14.353
45670W        W 5107   7.173   8.387  13.505
45671W        W 5108  15.110  19.766   4.125
45672W        W 5109  39.972  23.726  11.012
45673W        W 5110  25.017  40.824   1.929
45674W        W 5111  19.690  12.757  14.759
45675W        W 5112  21.048   0.285  13.381
45676W        W 5113  32.442  25.595  11.867
45677W        W 5114   8.379   4.210   1.230
45678W        W 5115  11.687  17.194  10.015
45679W        W 5116  12.853  19.074   1.333
45680W        W 5117  42.506  23.703   2.321
45681W        W 5118  20.178  23.730  13.462
45682W        W 5119  38.836  34.509   4.270
45683W        W 5120  41.302  27.532   3.187
45684W        W 5121  28.998  27.661  12.006
45685W        W 5122   3.712  34.926  11.112
45686W        W 5123  22.719   3.419  11.058
45687W        W 5124  28.181  26.088  12.925
45688W        W 5125  12.256   2.879  14.805
45689W        W 5126  32.443  13.149  12.031
45690W        W 5127  23.047  27.978  11.091
45691W        W 5128  42.020  12.783   2.862
45692W        W 5129  24.562   9.320  12.566
45693W        W 5130  30.452  39.898   1.875
45694W        W 5131   8.766  37.575  10.932
45695W        W 5132  31.082  10.186   3.383
45696W        W 5133   9.301  13.630  13.455
45697W        W 5134  13.173   1.432  12.885
45698W        W 5135  21.745  30.467  11.969
45699W        W 5136  44.790  35.520  13.492
45700W        W 5137  27.988  16.667  13.437
45701W        W 5138  35.080  24.187   3.249
45702W        W 5139  23.696  24.601   3.151
45703W        W 5140  24.158   0.269  12.345
45704W        W 5141  13.326  29.447   4.157
45705W        W 5142   1.464  23.206   2.690
45706W        W 5143  30.562  16.669  11.937
45707W        W 5144  38.032   4.804   1.777
45708W        W 5145  44.985  40.422  14.324
45709W        W 5146   7.402  17.797  13.803
45710W        W 5147  10.702  39.025   4.257
45711W        W 5148  41.039  17.269  11.111
45712W        W 5149  25.055  21.596  14.936
45713W        W 5150  43.365   1.310   1.385
45714W        W 5151  40.821   5.725  12.864
45715W        W 5152  44.894  27.071   2.276
45716W        W 5153  11.783  21.239   2.697
45717W        W 5154  36.989  12.673  10.970
45718W        W 5155  14.197  19.156  14.776
45719W        W 5156  34.114  37.898   3.356
45720W        W 5157  21.057  43.415   4.234
45721W        W 5158  42.930  11.150   1.328
45722W        W 5159  43.299   4.895  13.526
45723W        W 5160  35.958  39.033   2.739
45724W        W 5161  43.875  42.960   3.158
45725W        W 5162  23.632  30.968   3.658
45726W        W 5163  13.689  42.310  12.892
45727W        W 5164  15.194  18.062  13.009
45728W        W 5165  28.039   3.264  13.508
45729W        W 5166  19.774   4.833  12.866
45730W        W 5167  20.584  14.206   2.836
45731W        W 5168  18.599  22.233  11.465
45732W        W 5169  36.463  28.975  12.081
45733W        W 5170  37.885   2.879  13.476
45734W        W 5171   8.173  34.008   0.774
45735W        W 5172  43.977  15.587   4.597
45736W        W 5173  25.010  33.120  12.547
45737W        W 5174   6.789   1.432  10.927
45738W        W 5175  18.735  25.011   3.149
45739W        W 5176   0.425  15.097   1.295
45740W        W 5177  10.164  23.684  14.804
45741W        W 5178  14.741   9.810   1.811
45742W        W 5179  22.226   7.347   4.323
45743W        W 5180  14.736  30.507   0.315
45744W        W 5181  35.058  13.712  13.008
45745W        W 5182  39.511   9.669   2.881
45746W        W 5183   5.239  28.613   2.372
45747W        W 5184  26.204  15.141   1.393
45748W        W 5185   1.316  24.537  12.408
45749W        W 5186  15.308  40.874   0.364
45750W        W 5187  23.539   9.856   4.153
45751W        W 5188   8.858  17.070   2.308
45752W        W 5189   2.808  21.756   0.744
45753W        W 5190  37.361  34.575   1.763
45754W        W 5191  21.166  22.595  14.848
45755W        W 5192  19.235   1.397   1.329
45756W        W 5193  28.045  38.015   5.168
45757W        W 5194  30.139   5.375  12.987
45758W        W 5195  37.382  32.067   3.378
45759W        W 5196   1.441  26.521  13.963
45760W        W 5197  15.193  26.647   2.775
45761W        W 5198  25.205   5.356   3.372
45762W        W 5199  40.956  41.389  13.361
45763W        W 5200   8.735  11.136   3.175
45764W        W 5201  26.201   8.870   2.701
45765W        W 5202   3.756  31.603  13.827
45766W        W 5203  16.636  17.751   0.419
45767W        W 5204  35.571  33.946   3.178
45768W        W 5205  38.447  33.500  13.546
45769W        W 5206   2.306  20.029  10.948
45770W        W 5207  42.817   7.405   2.735
45771W        W 5208   9.700  34.872  10.601
45772W        W 5209  44.900   4.830   3.824
45773W        W 5210  29.555   7.187   1.774
45774W        W 5211  10.327  32.488  13.535
45775W        W 5212  11.732   5.230  13.523
45776W        W 5213  14.260  21.022  14.326
45777W        W 5214  16.572  25.126   4.647
45778W        W 5215   4.700  29.102   0.357
45779W        W 5216  34.081  36.853   3.267
45780W        W 5217  32.471  38.337   4.206
45781W        W 5218   3.230   2.406   1.281
45782W        W 5219  33.523  19.764   4.632
45783W        W 5220  28.668  37.879   5.736
45784W        W 5221  19.133  33.469  13.014
45785W        W 5222  28.472  43.270  11.593
45786W        W 5223  43.020  28.592  14.362
45787W        W 5224   7.861  10.295  10.141
45788W        W 5225  18.108  40.042   0.350
45789W        W 5226  29.062  25.063   3.800
45790W        W 5227  10.383  22.241  11.073
45791W        W 5228  31.048   7.697   4.191
45792W        W 5229  32.993  40.541  13.907
45793W        W 5230  15.175  43.458   2.403
45794W        W 5231  12.182  24.131  14.306
45795W        W 5232  19.092  25.597  11.476
45796W        W 5233  31.588   8.329  10.495
45797W        W 5234  21.517  39.550   3.362
45798W        W 5235  28.171  33.413  13.516
45799W        W 5236  40.434  44.982   1.820
45800W        W 5237  15.703  10.274  13.388
45801W        W 5238  10.314  39.875  14.897
45802W        W 5239  22.610  20.169   1.932
45803W        W 5240   8.745  23.502  14.813
45804W        W 5241  40.011   7.250   4.735
45805W        W 5242  24.638  23.690  14.014
45806W        W 5243  24.992  22.042  13.984
45807W        W 5244  18.294  34.098   0.473
45808W        W 5245  43.312  28.652  13.479
45809W        W 5246  36.014  22.605  10.623
45810W        W 5247  31.000  12.679  12.419
45811W        W 5248  25.059  17.270   5.088
45812W        W 5249  26.978  26.993  13.927
45813W        W 5250  12.686  15.144  12.347
45814W        W 5251   6.740  28.472  11.445
45815W        W 5252  37.435  11.317   4.786
45816W        W 5253  39.996  11.272   1.902
45817W        W 5254  24.701  13.132  14.291
45818W        W 5255  29.096  11.307   1.314
45819W        W 5256  31.482  21.617   1.242
45820W        W 5257  43.902  29.475   2.206
45821W        W 5258  15.730   8.273  14.893
45822W        W 5259  23.055  33.427  11.987
45823W        W 5260  43.514  20.117  12.873
45824W        W 5261  29.543   7.856   3.716
45825W        W 5262  22.201  20.200   4.659
45826W        W 5263  37.921   7.859   0.304
45827W        W 5264  25.680   1.419   4.609
45828W        W 5265  16.689   8.179   3.680
45829W        W 5266  23.170   3.941   4.667
45830W        W 5267   0.904  44.454   2.808
45831W        W 5268  20.226  21.709   2.715
45832W        W 5269   1.927  36.908   5.689
45833W        W 5270  18.597   5.437  11.609
45834W        W 5271   3.873  15.154   1.410
45835W        W 5272  38.925  31.523  11.555
45836W        W 5273  20.719  13.684   0.826
45837W        W 5274  38.351  18.716   3.184
45838W        W 5275  23.002   7.905  12.973
45839W        W 5276  32.989  32.418  13.051
45840W        W 5277  35.954   7.371  12.026
45841W        W 5278  22.086  10.853   1.311
45842W        W 5279  41.868  40.036  10.942
45843W        W 5280  16.811  23.689  11.913
45844W        W 5281  42.833  12.688   3.303
45845W        W 5282  23.704   7.218   1.934
45846W        W 5283  16.738  24.557  14.985
45847W        W 5284  30.545  37.026   0.767
45848W        W 5285  19.617  38.048   0.446
45849W        W 5286   6.781  10.285  12.487
45850W        W 5287   2.346  44.008  13.545
45851W        W 5288  12.771  40.859  13.058
45852W        W 5289  35.085  42.457  12.535
45853W        W 5290  10.227   0.389  12.931
45854W        W 5291  10.269  32.474  11.399
45855W        W 5292   2.777  26.701  12.992
45856W        W 5293  19.282  26.108  13.322
45857W        W 5294   1.901  40.010  11.453
45858W        W 5295   4.808   3.324  13.925
45859W        W 5296  34.565  30.512   3.801
45860W        W 5297   7.785  34.469   3.831
45861W        W 5298  26.121  27.038  14.955
45862W        W 5299  16.183  35.572   2.701
45863W        W 5300  11.281  38.042   2.354
45864W        W 5301  17.660  10.191   1.356
45865W        W 5302  34.406  40.822   2.398
45866W        W 5303  37.994  41.863  12.510
45867W        W 5304  42.984  41.888  14.307
45868W        W 5305  17.608  33.116   2.830
45869W        W 5306  44.370  38.841  11.031
45870W        W 5307  22.542   5.236   0.733
45871W        W 5308  17.569  32.501  14.941
45872W        W 5309   6.839  37.034  10.432
45873W        W 5310  29.991   1.358  11.869
45874W        W 5311  30.112  27.459  13.916
45875W        W 5312  35.440  15.672  13.892
45876W        W 5313   7.832   5.226   1.916
45877W        W 5314  23.030  37.966   0.891
45878W        W 5315  35.974  40.038   0.382
45879W        W 5316  43.425  27.019  14.933
45880W        W 5317   0.298  20.111  12.073
45881W        W 5318   6.752  29.137   1.334
45882W        W 5319  37.537  34.061   3.694
45883W        W 5320  22.174  19.182  14.390
45884W        W 5321  37.389  29.036   0.245
45885W        W 5322  12.336  16.649  12.082
45886W        W 5323  18.269  44.325  11.541
45887W        W 5324   8.217  29.635   3.334
45888W        W 5325  24.988  44.894  10.437
45889W        W 5326  10.803  11.742  14.957
45890W        W 5327  44.792  26.663   2.771
45891W        W 5328  23.018  37.380  12.982
45892W        W 5329   0.858  15.281  11.527
45893W        W 5330  21.716   0.785  13.374
45894W        W 5331  17.145  12.831   1.354
45895W        W 5332  24.594  40.041  11.938
45896W        W 5333  19.604  13.217  14.817
45897W        W 5334  20.098  14.597  13.888
45898W        W 5335  28.091  36.537   3.262
45899W        W 5336  26.178  30.953   0.887
45900W        W 5337  30.048  37.974  12.571
45901W        W 5338  18.165  14.766  13.793
45902W        W 5339  29.544   6.421  14.800
45903W        W 5340   7.767   8.831   2.806
45904W        W 5341   4.348  11.748  11.565
45905W        W 5342  20.707  11.296  13.361
45906W        W 5343   1.743  44.432  14.311
45907W        W 5344  12.189  38.478  12.424
45908W        W 5345   9.754  27.522  12.352
45909W        W 5346  16.667  42.374  10.032
45910W        W 5347  22.999  30.550   3.320
45911W        W 5348  16.216  41.033  13.358
45912W        W 5349  41.802  13.280  12.062
45913W        W 5350  40.524  12.151  11.503
45914W        W 5351  20.712  28.963   3.268
45915W        W 5352  12.350  17.604  12.569
45916W        W 5353   6.262   7.672  12.471
45917W        W 5354   4.835  12.208  10.454
45918W        W 5355   2.353  31.401  13.532
45919W        W 5356   4.277  27.626   4.620
45920W        W 5357  12.815   4.260  13.028
45921W        W 5358  20.706  25.498   3.354
45922W        W 5359   8.879  22.603  10.612
45923W        W 5360   5.733   1.949  11.019
45924W        W 5361  24.220   2.465   3.183
45925W        W 5362  40.000  27.677  12.409
45926W        W 5363  27.121  34.522  10.556
45927W        W 5364  17.726  36.565  13.439
45928W        W 5365  39.054  40.519   0.268
45929W        W 5366  12.712  37.546  14.813
45930W        W 5367   5.754   0.304   4.296
45931W        W 5368  39.450  44.809  14.350
45932W        W 5369   4.783  28.116  11.865
45933W        W 5370  44.004  36.932   0.479
45934W        W 5371  17.155  16.627  14.386
45935W        W 5372  22.161  23.609  12.047
45936W        W 5373  43.326   8.693   2.289
45937W        W 5374   1.794   2.270   4.247
45938W        W 5375  27.974  15.134  10.470
45939W        W 5376  22.071  14.192  13.482
45940W        W 5377  27.135  38.325  12.486
45941W        W 5378  23.525  31.041   4.752
45942W        W 5379  16.718  11.202   3.851
45943W        W 5380  42.021  11.667  13.025
45944W        W 5381  22.037  19.650  11.093
45945W        W 5382  29.988  32.397   2.713
45946W        W 5383  42.477  14.210   4.834
45947W        W 5384  43.921  18.791  12.877
45948W        W 5385  26.469  17.123   3.735
45949W        W 5386  39.966  36.094  12.071
45950W        W 5387  18.695  13.291  14.428
45951W        W 5388  18.591   1.414  11.069
45952W        W 5389  28.594  39.012   0.787
45953W        W 5390  34.611  37.950   3.148
45954W        W 5391  26.543  11.627   2.357
45955W        W 5392  10.204  44.267  12.056
45956W        W 5393  41.491  28.650   4.208
45957W        W 5394   7.349  20.557   4.348
45958W        W 5395   5.332  27.455  14.971
45959W        W 5396  21.580  36.477  10.897
45960W        W 5397  36.575  43.380   0.304
45961W        W 5398  17.657  11.317  12.936
45962W        W 5399  38.447  24.172   3.766
45963W        W 5400   3.869  13.622   2.392
45964W        W 5401   5.777  42.835  12.979
45965W        W 5402  42.946  20.646   1.320
45966W        W 5403   9.789  21.059   2.212
45967W        W 5404   3.278   7.369  11.047
45968W        W 5405  30.050  32.930   2.356
45969W        W 5406  16.637  32.143  12.344
45970W        W 5407  15.143   3.376   1.352
45971W        W 5408  32.910   7.348   4.773
45972W        W 5409  35.852  39.935   5.174
45973W        W 5410  42.325  28.110  14.442
45974W        W 5411   7.862  34.919   3.334
45975W        W 5412  21.514  20.247   3.824
45976W        W 5413   6.920  23.207   2.275
45977W        W 5414  37.371  38.504   5.790
45978W        W 5415   2.906  35.933   2.329
45979W        W 5416   2.806  12.173   2.783
45980W        W 5417  16.302  26.681  14.358
45981W        W 5418  22.092  34.976   4.222
45982W        W 5419  25.990  21.655   4.115
45983W        W 5420  15.242  13.325   4.280
45984W        W 5421  29.992  35.920   1.748
45985W        W 5422   2.922  30.560   3.718
45986W        W 5423  24.543   6.189   0.894
45987W        W 5424  10.196  10.294  14.296
45988W        W 5425  22.123  42.303  14.466
45989W        W 5426  26.642  42.505  13.964
45990W        W 5427   1.269  43.479   3.271
45991W        W 5428  29.070   0.760  13.437
45992W        W 5429  19.222  27.516  13.845
45993W        W 5430  11.146  12.177  12.381
45994W        W 5431  10.754   9.716  13.401
45995W        W 5432  44.838  40.318   0.795
45996W        W 5433  19.776   6.305   5.093
45997W        W 5434  43.344   7.714   3.382
45998W        W 5435  12.809  11.157   2.710
45999W        W 5436  30.470   3.845   0.389
46000W        W 5437   2.276  25.057  12.369
46001W        W 5438  33.083  34.983  13.951
46002W        W 5439  39.844  43.310   4.137
46003W        W 5440  42.286  10.369   0.474
46004W        W 5441  24.631   3.717  12.861
46005W        W 5442  12.269  10.192  14.287
46006W        W 5443  34.612  14.287  10.442
46007W        W 5444   4.780  19.569   0.450
46008W        W 5445   5.345  21.578  13.344
46009W        W 5446   4.382  42.796  10.577
46010W        W 5447   8.862   8.299  11.970
46011W        W 5448  33.484  26.571   4.819
46012W        W 5449  34.556  28.469   3.636
46013W        W 5450  33.596  33.934   3.348
46014W        W 5451  28.568   6.760  12.533
46015W        W 5452  44.835  30.654   1.805
46016W        W 5453  42.296  24.604  10.586
46017W        W 5454  43.820  38.522   3.151
46018W        W 5455  10.830  34.522   1.307
46019W        W 5456  21.123  21.078   5.700
46020W        W 5457   1.887   1.802   2.784
46021W        W 5458  33.899  10.710  13.816
46022W        W 5459  19.673   0.385   2.895
46023W        W 5460  21.611  29.934  11.113
46024W        W 5461   3.367   1.366   3.357
46025W        W 5462  27.641  21.569   4.659
46026W        W 5463   6.260  38.371   1.929
46027W        W 5464  22.647  26.105  14.363
46028W        W 5465   8.681  23.063  10.447
46029W        W 5466   5.308  39.336  12.020
46030W        W 5467   3.232  40.342  14.794
46031W        W 5468   6.749  24.680  11.054
46032W        W 5469  39.886  21.066   2.414
46033W        W 5470  44.891  42.868   0.905
46034W        W 5471   6.389   4.938   2.871
46035W        W 5472   8.765  10.720   2.320
46036W        W 5473  33.536  30.612   3.832
46037W        W 5474   9.678  23.201   4.128
46038W        W 5475  25.075  40.808  11.555
46039W        W 5476  10.762  43.365  11.409
46040W        W 5477  19.244  35.894  12.024
46041W        W 5478  33.981   9.880  14.852
46042W        W 5479  27.495  41.393  12.445
46043W        W 5480  38.492   1.374   2.342
46044W        W 5481  29.963  17.703   3.747
46045W        W 5482  24.699  30.010  13.455
46046W        W 5483  11.251  19.680  12.490
46047W        W 5484  14.590  22.718   2.363
46048W        W 5485  12.131   9.168  10.436
46049W        W 5486   2.761  38.898   3.655
46050W        W 5487  28.006  29.923  11.084
46051W        W 5488  41.011  35.959  12.519
46052W        W 5489  27.960  30.940  11.511
46053W        W 5490   2.351   7.310  12.342
46054W        W 5491  22.654  29.016  11.949
46055W        W 5492  36.943   3.428   3.656
46056W        W 5493   8.704  15.104  14.771
46057W        W 5494  10.726   4.794   0.874
46058W        W 5495   8.323  16.085  12.543
46059W        W 5496  25.191  27.124   0.836
46060W        W 5497  10.789  35.893   4.150
46061W        W 5498  23.221   1.780   3.146
46062W        W 5499  26.135  30.659  14.403
46063W        W 5500  12.199   6.269   1.911
46064W        W 5501  29.521  21.523  10.043
46065W        W 5502  27.976  23.642   9.929
46066W        W 5503  26.540  19.102   2.335
46067W        W 5504   2.960  39.002   1.897
46068W        W 5505  12.846  18.700  10.982
46069W        W 5506  35.359  40.920   1.698
46070W        W 5507  30.962  11.299   0.772
46071W        W 5508  26.066   8.843  12.024
46072W        W 5509  21.199  34.454   1.210
46073W        W 5510  44.989   1.768  10.643
46074W        W 5511  30.921  12.843   3.338
46075W        W 5512   3.281  17.195   3.683
46076W        W 5513   5.289  23.133   2.722
46077W        W 5514  38.936  33.888   4.683
46078W        W 5515   5.368  37.016  14.872
46079W        W 5516   6.315   5.904  10.989
46080W        W 5517  12.246  23.506   1.365
46081W        W 5518   9.282   7.893  12.535
46082W        W 5519  19.624  30.159   3.831
46083W        W 5520  38.507  43.497  13.865
46084W        W 5521  30.932  24.219   3.302
46085W        W 5522  39.941   4.928   1.302
46086W        W 5523  21.142  11.674  12.460
46087W        W 5524  41.311  25.566   3.782
46088W        W 5525  23.004  17.270   2.183
46089W        W 5526  23.567   5.228   0.309
46090W        W 5527  22.519   0.938   3.698
46091W        W 5528  29.572  33.123   1.710
46092W        W 5529  10.804   7.277  12.377
46093W        W 5530   5.856  22.659   3.761
46094W        W 5531  29.969   3.313  11.921
46095W        W 5532  44.868  36.490  13.484
46096W        W 5533   7.209  14.705   4.346
46097W        W 5534  18.782   4.330  10.409
46098W        W 5535  29.005  33.488   3.282
46099W        W 5536  21.095  41.352  14.935
46100W        W 5537   3.390  29.565  12.015
46101W        W 5538  21.710  28.588  13.494
46102W        W 5539  38.533  37.449  11.071
46103W        W 5540  28.142  19.156  13.353
46104W        W 5541  15.174  21.057  12.036
46105W        W 5542  43.897  23.692   4.324
46106W        W 5543  36.512   0.788   3.712
46107W        W 5544  25.162   8.360  11.587
46108W        W 5545  14.099   7.679  10.509
46109W        W 5546  38.041  23.230   0.877
46110W        W 5547  19.612  15.276  13.860
46111W        W 5548   2.398  21.551  14.468
46112W        W 5549  34.461  42.926  12.345
46113W        W 5550  33.543  11.158   2.197
46114W        W 5551  36.854   4.937  10.602
46115W        W 5552   0.344  24.060  14.309
46116W        W 5553  35.098  37.461   4.141
46117W        W 5554  21.256  40.935  13.397
46118W        W 5555  34.935  30.424   3.286
46119W        W 5556   1.470  40.884   4.303
46120W        W 5557  17.196   8.749  11.027
46121W        W 5558  13.795  39.051  14.971
46122W        W 5559  18.064  30.979   1.889
46123W        W 5560  35.007  41.465  10.631
46124W        W 5561  29.172   8.897   4.164
46125W        W 5562  27.508  14.143  13.435
46126W        W 5563  37.053   4.880  10.971
46127W        W 5564   2.759  16.666   1.257
46128W        W 5565  19.672  38.568   3.830
46129W        W 5566  18.547  14.627   3.693
46130W        W 5567  38.439  23.706  14.331
46131W        W 5568  40.963  44.943  14.806
46132W        W 5569  40.420  22.678  11.068
46133W        W 5570   6.251  16.078   0.786
46134W        W 5571  37.074   1.850  12.894
46135W        W 5572  25.614  11.638   1.316
46136W        W 5573  39.529   3.834   2.415
46137W        W 5574  13.345  42.797  10.922
46138W        W 5575  16.604  25.490   2.361
46139W        W 5576   9.222  20.661   0.760
46140W        W 5577  38.969  43.349   1.217
46141W        W 5578  34.981   1.459   0.412
46142W        W 5579  14.683  21.664  11.485
46143W        W 5580  20.592  43.899   0.872
46144W        W 5581  42.811  33.000  12.529
46145W        W 5582  13.200  36.357   2.704
46146W        W 5583  30.983  21.119   1.216
46147W        W 5584  32.989  37.411  14.460
46148W        W 5585  12.822  43.841  14.799
46149W        W 5586  20.076  38.435   2.178
46150W        W 5587  32.922  28.655  13.503
46151W        W 5588  25.713   6.677   0.923
46152W        W 5589  35.372  33.405  11.864
46153W        W 5590   8.782   2.916  14.001
46154W        W 5591  20.619  34.953  14.029
46155W        W 5592   8.806  13.135  13.848
46156W        W 5593  21.138  29.515  13.960
46157W        W 5594  29.074  17.603   2.196
46158W        W 5595  16.801  21.624  14.464
46159W        W 5596  23.552   2.767   2.844
46160W        W 5597  24.560  44.402  12.565
46161W        W 5598   7.251  16.773  11.507
46162W        W 5599  34.113  24.507  13.940
46163W        W 5600   6.857  13.659   0.911
46164W        W 5601  17.169  29.173   1.912
46165W        W 5602  29.508  37.511  14.505
46166W        W 5603  28.009  19.173  14.414
46167W        W 5604   8.900  44.950   1.877
46168W        W 5605  12.303  10.675  13.402
46169W        W 5606  34.878  41.988  10.622
46170W        W 5607  30.060  19.240  12.382
46171W        W 5608   4.904  35.053  11.954
46172W        W 5609  22.580  30.622  14.928
46173W        W 5610  26.173  17.285  14.962
46174W        W 5611  35.880  42.926  13.911
46175W        W 5612   6.687  10.695   4.699
46176W        W 5613  42.904  32.015   3.295
46177W        W 5614  30.915  24.029   1.925
46178W        W 5615   3.411  15.256   1.868
46179W        W 5616   9.788  40.959  10.437
46180W        W 5617  27.179  21.050  10.569
46181W        W 5618  42.392   1.976  13.375
46182W        W 5619  35.918  43.022  14.877
46183W        W 5620  32.592  37.528   2.188
46184W        W 5621  29.091  35.019   0.884
46185W        W 5622  31.067  40.365  12.084
46186W        W 5623   4.722   1.389   2.194
46187W        W 5624  42.507  30.649  12.046
46188W        W 5625  43.967   5.306  12.954
46189W        W 5626   1.468  24.215  11.904
46190W        W 5627  23.687   4.293  11.592
46191W        W 5628  21.175  34.428  12.552
46192W        W 5629  43.397  15.186  11.079
46193W        W 5630  23.652   0.858  14.855
46194W        W 5631   1.385  40.380   3.679
46195W        W 5632   2.735  40.969  10.987
46196W        W 5633  34.443  26.110  10.971
46197W        W 5634  42.832  13.650  13.996
46198W        W 5635  18.771  42.418  13.056
46199W        W 5636  15.319  19.221  12.965
46200W        W 5637  43.439  23.616  12.899
46201W        W 5638  33.520  29.079   2.737
46202W        W 5639  25.666  11.145   3.345
46203W        W 5640  35.427   5.267  14.934
46204W        W 5641  35.559   1.302  13.800
46205W        W 5642  10.773  20.582   3.677
46206W        W 5643  31.448  43.791  11.036
46207W        W 5644   0.417  16.679  10.420
46208W        W 5645  28.085  25.967  14.802
46209W        W 5646  23.693  27.467  14.466
46210W        W 5647  21.633   6.294  13.946
46211W        W 5648  42.913  17.268   3.253
46212W        W 5649  33.029  22.174  11.057
46213W        W 5650  42.936   1.308  11.056
46214W        W 5651  18.093   4.868  13.312
46215W        W 5652  10.873  17.073  11.924
46216W        W 5653  42.940  28.511  11.919
46217W        W 5654  11.685  11.169  10.979
46218W        W 5655   5.780  31.620  12.051
46219W        W 5656   9.189  28.507   1.297
46220W        W 5657  17.693  34.002  12.381
46221W        W 5658  19.182  35.601  12.950
46222W        W 5659  19.613  29.541  14.300
46223W        W 5660   1.343   4.217  14.937
46224W        W 5661  26.506   3.331  10.548
46225W        W 5662   9.323  26.672   1.436
46226W        W 5663  19.105  29.044   3.213
46227W        W 5664  41.925   6.767   0.391
46228W        W 5665  10.292  13.812  13.831
46229W        W 5666  31.935  20.066   0.347
46230W        W 5667  16.278  37.361  14.822
46231W        W 5668  20.671  10.868  12.473
46232W        W 5669  20.664  16.789   1.375
46233W        W 5670  37.573  19.621  11.123
46234W        W 5671  36.423  35.002  14.300
46235W        W 5672  37.565  10.657  12.087
46236W        W 5673  13.311  23.223   0.804
46237W        W 5674  14.316  24.639   2.389
46238W        W 5675  28.012  26.654   1.702
46239W        W 5676  11.800  10.793  13.942
46240W        W 5677   1.418  35.511   0.880
46241W        W 5678  43.001  28.562  14.926
46242W        W 5679  13.619  12.159   4.648
46243W        W 5680  33.495   7.793  12.551
46244W        W 5681  42.995  17.166  14.431
46245W        W 5682  34.980  30.566  14.327
46246W        W 5683  14.761  43.903   2.856
46247W        W 5684  32.456  40.345   5.163
46248W        W 5685  34.108   7.213  12.907
46249W        W 5686  13.798   5.344   2.307
46250W        W 5687  18.174  33.402  12.084
46251W        W 5688  25.164  44.815  12.946
46252W        W 5689  35.533  37.541  14.430
46253W        W 5690  13.264  33.426  10.484
46254W        W 5691   4.390  40.497  12.837
46255W        W 5692   4.893  11.734  13.933
46256W        W 5693  34.948  15.157   2.194
46257W        W 5694  13.146  33.559  11.969
46258W        W 5695  35.593  35.949  14.409
46259W        W 5696  42.290  12.242   4.626
46260W        W 5697  41.876  20.130   3.286
46261W        W 5698   1.391  35.107   0.376
46262W        W 5699  28.603  16.081  11.488
46263W        W 5700  13.746  31.974   2.409
46264W        W 5701  41.865  29.482   4.219
46265W        W 5702  31.020  33.074   2.373
46266W        W 5703   6.311  35.468  13.822
46267W        W 5704  35.494  32.529   1.718
46268W        W 5705   2.340  36.953   9.934
46269W        W 5706   3.713  31.494   2.206
46270W        W 5707  29.626  11.835   4.729
46271W        W 5708  39.520   2.302  10.433
46272W        W 5709  25.105  44.428  10.494
46273W        W 5710  12.336   4.280   1.252
46274W        W 5711   8.790  11.194  10.947
46275W        W 5712  35.892  25.213   2.812
46276W        W 5713  34.045  39.974   9.544
46277W        W 5714  24.601  28.448   3.856
46278W        W 5715  33.507  23.601   3.250
46279W        W 5716  32.489  15.682   3.667
46280W        W 5717  11.776  31.917   3.744
46281W        W 5718   7.283   3.715  14.974
46282W        W 5719  34.384  37.892   4.808
46283W        W 5720  28.613  44.804   2.274
46284W        W 5721  40.505  40.043   1.807
46285W        W 5722   6.258   5.719   1.379
46286W        W 5723  41.308   1.418  14.446
46287W        W 5724  38.031  37.517  12.958
46288W        W 5725  27.491   3.293   2.335
46289W        W 5726  16.191  24.602  13.327
46290W        W 5727   1.272  16.093   1.832
46291W        W 5728   0.848   9.278   2.899
46292W        W 5729  40.547  25.190  11.456
46293W        W 5730   3.920  39.512   3.737
46294W        W 5731  40.005  18.693   4.765
46295W        W 5732  35.086  10.219   4.829
46296W        W 5733  33.444  27.455   1.712
46297W        W 5734  42.992  10.141  14.960
46298W        W 5735  23.166  36.470   1.247
46299W        W 5736   6.393  33.511   2.806
46300W        W 5737  23.616  41.366  13.804
46301W        W 5738  24.644  17.613   2.749
46302W        W 5739  12.266  22.621  14.367
46303W        W 5740  12.334   5.273  11.108
46304W        W 5741  20.163  22.035   3.690
46305W        W 5742  28.666  30.621   2.827
46306W        W 5743  13.337  39.034   0.480
46307W        W 5744   1.786  16.809  10.946
46308W        W 5745  16.655   7.746   0.289
46309W        W 5746  20.254  40.979  13.848
46310W        W 5747  20.568   7.199  10.487
46311W        W 5748  29.146  19.114   2.367
46312W        W 5749   3.931  26.965  13.841
46313W        W 5750  16.645  24.989  12.048
46314W        W 5751  18.205  23.604  12.069
46315W        W 5752   3.951  41.333  14.953
46316W        W 5753   1.351  41.861   3.213
46317W        W 5754  27.002  43.376   2.737
46318W        W 5755   0.783  36.453   0.455
46319W        W 5756  37.372  41.320   3.731
46320W        W 5757   6.890  42.480  11.117
46321W        W 5758  42.904   9.711  14.439
46322W        W 5759  33.522   7.376  14.954
46323W        W 5760  30.000  19.669  12.483
46324W        W 5761  30.490  15.788  10.899
46325W        W 5762  28.464  24.685  14.302
46326W        W 5763  32.546  31.571  14.460
46327W        W 5764  42.003   6.253   0.336
46328W        W 5765  15.328  13.623   1.313
46329W        W 5766  11.801   8.312   2.846
46330W        W 5767   0.757  11.142   5.577
46331W        W 5768  35.100  41.448  14.895
46332W        W 5769  43.447   7.732  11.441
46333W        W 5770  24.217  41.786  11.970
46334W        W 5771  38.330  18.735   4.164
46335W        W 5772  36.502  26.130   0.747
46336W        W 5773  15.757   6.676   4.809
46337W        W 5774  21.105  42.846  12.404
46338W        W 5775   9.190  22.106  13.420
46339W        W 5776  32.953  32.129  10.101
46340W        W 5777   6.349  44.769   2.767
46341W        W 5778  43.362  25.502  13.029
46342W        W 5779   5.245  11.262  12.357
46343W        W 5780  22.055  37.908   1.240
46344W        W 5781   2.309  31.445  11.551
46345W        W 5782  38.372  22.626   1.363
46346W        W 5783  26.460  14.708   3.176
46347W        W 5784  20.093  20.560  10.894
46348W        W 5785  35.956  24.099  14.872
46349W        W 5786  26.485  19.058   2.832
46350W        W 5787  19.275   3.406   4.716
46351W        W 5788  38.893  22.088  13.993
46352W        W 5789  40.523  16.673  11.004
46353W        W 5790  11.850   0.308  13.964
46354W        W 5791   9.830  42.933   4.147
46355W        W 5792   6.716  37.568  14.885
46356W        W 5793  41.326  14.788   0.762
46357W        W 5794  23.196  28.634   4.296
46358W        W 5795  23.040  43.901  12.435
46359W        W 5796  24.975  25.675   9.999
46360W        W 5797   4.764   4.422   0.896
46361W        W 5798  18.240  31.405   3.854
46362W        W 5799  19.722   8.787  14.493
46363W        W 5800   5.700  43.448   1.444
46364W        W 5801  39.335   5.304   0.810
46365W        W 5802  42.406  36.571  14.864
46366W        W 5803  23.119  33.527  13.010
46367W        W 5804  41.368   1.900  14.007
46368W        W 5805  35.935  17.696   2.247
46369W        W 5806  27.669   2.720   3.643
46370W        W 5807  25.615  20.079  12.458
46371W        W 5808  27.456  24.109  14.939
46372W        W 5809  30.078  44.450  12.996
46373W        W 5810  15.213  25.186  12.867
46374W        W 5811  20.547  26.078   4.234
46375W        W 5812  12.680  44.984   1.395
46376W        W 5813  42.432  21.070   1.853
46377W        W 5814  23.122  31.034  13.977
46378W        W 5815   4.214  13.639  11.505
46379W        W 5816   4.873  15.812   3.245
46380W        W 5817  44.862  42.807  13.516
46381W        W 5818  44.366  38.365   1.711
46382W        W 5819  15.222   9.221   2.418
46383W        W 5820   5.330  41.849   3.768
46384W        W 5821  13.795  17.146  13.803
46385W        W 5822   4.365  39.381   4.802
46386W        W 5823   6.800  37.006  14.785
46387W        W 5824  37.008  18.594   1.344
46388W        W 5825   5.242  27.982   3.750
46389W        W 5826  20.530   2.443   0.465
46390W        W 5827  14.621  44.990  13.896
46391W        W 5828  32.515  19.730   2.809
46392W        W 5829  35.358  16.317   1.404
46393W        W 5830  36.486  22.504  11.486
46394W        W 5831  31.966   0.397   1.780
46395W        W 5832   5.426  44.949   1.425
46396W        W 5833   3.932  42.005   3.666
46397W        W 5834  25.019  14.593  10.506
46398W        W 5835  19.157  28.661  14.840
46399W        W 5836   7.304   7.280   1.243
46400W        W 5837  42.812  12.154   2.226
46401W        W 5838  11.306  37.394  13.848
46402W        W 5839   9.851   0.879  13.894
46403W        W 5840  28.500  19.601   2.893
46404W        W 5841  12.639  36.479   2.331
46405W        W 5842   0.857  26.496   1.374
46406W        W 5843  39.348  31.497   2.749
46407W        W 5844  30.961  25.083   0.316
46408W        W 5845  34.983  30.488  12.985
46409W        W 5846  34.876   9.354  11.057
46410W        W 5847  44.868   0.465   0.372
46411W        W 5848  13.841  22.518  14.288
46412W        W 5849   3.260   6.303  13.019
46413W        W 5850  42.417  40.449  14.918
46414W        W 5851  34.885  15.197   0.739
46415W        W 5852   4.207  40.548   0.417
46416W        W 5853  40.011  31.045   0.865
46417W        W 5854   8.673  33.409  11.026
46418W        W 5855  26.960  38.023  13.449
46419W        W 5856  11.850  43.811   1.402
46420W        W 5857  28.602  40.423   1.258
46421W        W 5858   1.838  38.029   0.478
46422W        W 5859  28.525   8.707   1.361
46423W        W 5860   5.714  39.836   3.692
46424W        W 5861   5.842   1.462   2.770
46425W        W 5862   4.361  42.968  12.899
46426W        W 5863  41.015  34.963   3.314
46427W        W 5864  25.023   8.672   4.689
46428W        W 5865   2.750  25.176   1.385
46429W        W 5866  34.054  41.487   9.939
46430W        W 5867  27.017   6.685  14.335
46431W        W 5868  39.463   2.828  12.463
46432W        W 5869  42.885  32.440  10.605
46433W        W 5870   2.418  20.648  11.412
46434W        W 5871  24.696  16.720   0.466
46435W        W 5872  21.532   0.742   2.339
46436W        W 5873  18.197  33.995  13.355
46437W        W 5874  15.707   0.419   1.828
46438W        W 5875   3.728   9.761  12.887
46439W        W 5876  24.607   5.725   2.704
46440W        W 5877  15.814  12.122  12.067
46441W        W 5878   2.784  11.278  14.494
46442W        W 5879  17.565   7.882   3.346
46443W        W 5880  30.985   6.812   4.687
46444W        W 5881  34.442   5.384   4.619
46445W        W 5882   7.176  29.064  14.333
46446W        W 5883   1.872  17.568  10.431
46447W        W 5884  22.708  30.466   0.780
46448W        W 5885   6.779   4.804  12.526
46449W        W 5886  44.848   6.824  13.411
46450W        W 5887  43.928   7.200   1.899
46451W        W 5888  44.379  16.304  11.537
46452W        W 5889  42.453  14.700  11.965
46453W        W 5890  11.274  16.616  11.457
46454W        W 5891  16.120  43.005   9.614
46455W        W 5892  14.707  18.265  12.964
46456W        W 5893   3.735  44.803   1.282
46457W        W 5894  34.539   1.274  14.892
46458W        W 5895   5.352  44.447   0.346
46459W        W 5896  25.132  43.480  13.521
46460W        W 5897  36.899  42.029   0.916
46461W        W 5898  32.502  37.536  14.786
46462W        W 5899  11.295   9.276  11.538
46463W        W 5900  21.741   0.755   4.718
46464W        W 5901   7.725  26.080  14.338
46465W        W 5902   1.788  44.972  11.103
46466W        W 5903  20.760  20.623   1.227
46467W        W 5904  44.907  21.108  12.453
46468W        W 5905  26.526  36.467   3.306
46469W        W 5906  15.578  44.879  10.966
46470W        W 5907  40.044  31.962   3.703
46471W        W 5908  34.916  41.314  12.902
46472W        W 5909  27.594   8.801   1.441
46473W        W 5910  12.662   4.259   3.280
46474W        W 5911  40.542  10.173   2.233
46475W        W 5912  14.118  36.914  10.415
46476W        W 5913  40.384  42.331  13.372
46477W        W 5914  24.206  21.738  12.849
46478W        W 5915  33.411  36.987  12.038
46479W        W 5916  12.170  11.246  11.464
46480W        W 5917  21.144   7.198   4.125
46481W        W 5918  26.044  43.880   3.383
46482W        W 5919   3.717   3.274   3.228
46483W        W 5920   6.273  34.496   4.267
46484W        W 5921  31.950  28.156  12.355
46485W        W 5922  15.225  23.985   4.231
46486W        W 5923  31.911  29.538  10.543
46487W        W 5924   4.749  44.968   2.297
46488W        W 5925  40.948  36.434   4.776
46489W        W 5926  30.911  44.858   1.439
46490W        W 5927  32.625  41.294   3.731
46491W        W 5928  28.161  37.940   5.749
46492W        W 5929  25.111  24.984   3.806
46493W        W 5930  30.543   1.763  13.519
46494W        W 5931  38.433  41.388  13.429
46495W        W 5932   7.846  43.879   0.358
46496W        W 5933  35.386  10.834  13.359
46497W        W 5934  33.557   1.769  12.931
46498W        W 5935   1.244  14.757   0.941
46499W        W 5936  33.501  14.286   4.250
46500W        W 5937   7.273  33.119  11.913
46501W        W 5938  39.026  25.094  12.522
46502W        W 5939  20.179  19.751  13.843
46503W        W 5940  37.559   3.712  12.864
46504W        W 5941  34.023  15.329  11.397
46505W        W 5942  26.138   9.313  10.924
46506W        W 5943  22.693  26.480   3.222
46507W        W 5944  36.437  31.133  10.413
46508W        W 5945   3.743   5.291   4.268
46509W        W 5946  32.514   1.812  10.109
46510W        W 5947  27.063  37.920  14.494
46511W        W 5948   5.703  11.691   4.205
46512W        W 5949  11.712  15.117  11.105
46513W        W 5950  36.008   6.919  10.461
46514W        W 5951   8.368  24.697   3.272
46515W        W 5952  35.515  31.937   0.264
46516W        W 5953  31.100   7.320   0.317
46517W        W 5954  22.127  41.943   0.268
46518W        W 5955  37.393  17.582   4.160
46519W        W 5956  41.453  24.104   2.262
46520W        W 5957   4.416  28.184  14.891
46521W        W 5958  34.572  16.278  10.594
46522W        W 5959  32.574   4.915   0.387
46523W        W 5960   5.213   8.699   0.245
46524W        W 5961   8.732  17.259  14.796
46525W        W 5962  10.249  21.708   2.896
46526W        W 5963  44.845  30.954  12.544
46527W        W 5964  17.288   7.192  12.871
46528W        W 5965   6.195   5.291  12.846
46529W        W 5966  20.758  11.316   3.656
46530W        W 5967  16.706  43.418  14.806
46531W        W 5968   8.287  12.331   1.315
46532W        W 5969  23.636   6.701   4.614
46533W        W 5970   1.922  23.569  14.922
46534W        W 5971  10.727   9.863  12.543
46535W        W 5972  24.498  36.548  12.558
46536W        W 5973   2.833  34.026   2.842
46537W        W 5974  39.896  37.083   2.815
46538W        W 5975   5.288  21.249  14.768
46539W        W 5976  31.543  18.091  11.540
46540W        W 5977  26.596   7.801  13.456
46541W        W 5978   9.160  29.430   0.779
46542W        W 5979  31.997  35.906  10.969
46543W        W 5980  43.786   7.759  14.775
46544W        W 5981  24.100   1.897   2.681
46545W        W 5982  16.717  29.505   3.242
46546W        W 5983  23.048  42.514   2.252
46547W        W 5984  23.516  36.399   2.253
46548W        W 5985  42.512  37.840  11.939
46549W        W 5986  25.620  23.715   4.277
46550W        W 5987  27.999   3.291  14.428
46551W        W 5988   6.299  41.438  12.062
46552W        W 5989  10.822  41.486  14.864
46553W        W 5990  19.572  17.637   1.918
46554W        W 5991  13.783  26.966  12.001
46555W        W 5992  19.674   2.963   1.304
46556W        W 5993  19.727  12.755   3.225
46557W        W 5994  38.371  11.758   0.250
46558W        W 5995   5.756   4.741   4.186
46559W        W 5996  36.457  12.298  11.875
46560W        W 5997   9.298  28.507   4.126
46561W        W 5998  12.327  41.463   0.937
46562W        W 5999  13.211   3.372  14.940
46563W        W 6000  11.365  34.386  11.105
46564W        W 6001  42.332  20.748  14.778
46565W        W 6002   7.862  23.053  11.940
46566W        W 6003  43.382  30.479  10.513
46567W        W 6004   2.950  23.494  11.535
46568W        W 6005  32.100  44.807  12.484
46569W        W 6006  18.140  12.853  14.482
46570W        W 6007  20.091  12.183   3.345
46571W        W 6008  17.150   5.231  13.366
46572W        W 6009  18.672  15.148   1.814
46573W        W 6010  11.770  21.587   1.762
46574W        W 6011  13.232   4.842  11.418
46575W        W 6012   3.292  44.833  13.817
46576W        W 6013   6.391  34.551  14.304
46577W        W 6014  18.683  33.883   2.815
46578W        W 6015  12.730  31.531  14.305
46579W        W 6016  33.889  30.448   1.805
46580W        W 6017   0.809   8.768   3.774
46581W        W 6018   8.283  35.894   4.730
46582W        W 6019  39.855  22.049  14.022
46583W        W 6020  41.881  40.053  10.437
46584W        W 6021  32.914  10.351  13.320
46585W        W 6022  33.024   3.917  13.411
46586W        W 6023  30.479  41.375  14.810
46587W        W 6024  19.234   4.778   0.422
46588W        W 6025  40.871  12.120   4.817
46589W        W 6026   8.711  19.114   4.667
46590W        W 6027  38.032   8.383  11.605
46591W        W 6028   1.913  12.631   2.363
46592W        W 6029  24.710  22.249   3.672
46593W        W 6030  15.130  33.400  11.403
46594W        W 6031   9.333  21.658   0.463
46595W        W 6032  36.077  16.705  11.516
46596W        W 6033  19.745   3.395   2.337
46597W        W 6034  41.825  43.767  13.890
46598W        W 6035  22.197  21.091  14.416
46599W        W 6036  32.564   7.350  11.904
46600W        W 6037  17.270  35.109   5.227
46601W        W 6038  36.551  39.508   3.864
46602W        W 6039  34.900   7.820   4.322
46603W        W 6040  42.457  19.733   0.438
46604W        W 6041  34.482  44.920   1.392
46605W        W 6042  39.028  32.460   4.664
46606W        W 6043  19.255  36.991   0.243
46607W        W 6044  42.869  41.965   5.094
46608W        W 6045  21.590  44.770  14.022
46609W        W 6046  20.604  10.652   2.317
46610W        W 6047  16.634  22.541  10.970
46611W        W 6048   4.301  19.154  11.473
46612W        W 6049  36.882  35.995  11.507
46613W        W 6050  12.355  30.999   3.661
46614W        W 6051   2.827  14.164   0.756
46615W        W 6052  12.753  13.757   4.719
46616W        W 6053  33.503  16.154   1.280
46617W        W 6054   3.796  36.478   3.641
46618W        W 6055  39.331  35.097   2.795
46619W        W 6056  19.089  31.946   1.365
46620W        W 6057   4.242  36.088  12.045
46621W        W 6058  33.060  39.344   0.287
46622W        W 6059  44.847   5.787   0.368
46623W        W 6060  25.584  36.426   2.665
46624W        W 6061  42.458  15.808   4.120
46625W        W 6062  37.082   8.777  12.050
46626W        W 6063  29.494  23.681  11.996
46627W        W 6064  14.721  20.143  12.036
46628W        W 6065  39.553  40.533  13.503
46629W        W 6066  28.941   4.920  14.946
46630W        W 6067  36.508   8.373  14.508
46631W        W 6068  18.570   0.440   1.733
46632W        W 6069   1.241  30.492   3.311
46633W        W 6070  41.931  36.013   9.473
46634W        W 6071  21.152  17.673   4.722
46635W        W 6072  29.465  36.470  12.872
46636W        W 6073  21.057  10.372   4.767
46637W        W 6074   5.930   8.796  10.958
46638W        W 6075  19.751  16.658   3.860
46639W        W 6076   0.863  34.882   1.935
46640W        W 6077   2.340   8.757  10.594
46641W        W 6078  43.341   0.471   2.840
46642W        W 6079  23.215  21.163  11.452
46643W        W 6080  30.582  14.307   3.818
46644W        W 6081   0.304  18.549  12.431
46645W        W 6082  40.969   9.882  13.327
46646W        W 6083  17.750  13.302  10.491
46647W        W 6084  30.086  38.422   0.397
46648W        W 6085  11.846   6.264  12.031
46649W        W 6086  17.303  19.211  14.506
46650W        W 6087   3.315  17.647  14.413
46651W        W 6088  15.143  43.376   3.655
46652W        W 6089   6.824   2.827  11.386
46653W        W 6090   8.334  39.980  11.021
46654W        W 6091   2.825  17.740   0.835
46655W        W 6092  37.907  20.164  13.945
46656W        W 6093  16.754  23.987   1.369
46657W        W 6094  44.860  37.993  14.997
46658W        W 6095  36.419  30.963   3.717
46659W        W 6096  32.932   2.341   4.726
46660W        W 6097  25.207   0.332  14.365
46661W        W 6098  30.472  10.761  10.903
46662W        W 6099  26.645   9.354   4.731
46663W        W 6100  37.438  10.697   4.244
46664W        W 6101  38.470  38.458   1.733
46665W        W 6102   5.294  28.014   1.393
46666W        W 6103  20.221  42.908  13.540
46667W        W 6104   2.817  18.682  12.931
46668W        W 6105   3.354   9.184  13.438
46669W        W 6106  12.855  37.998  11.607
46670W        W 6107  34.100   4.427   4.149
46671W        W 6108  29.056  31.611   0.803
46672W        W 6109  41.001  30.540   2.313
46673W        W 6110  25.585  15.661   3.854
46674W        W 6111  44.986  15.592   1.884
46675W        W 6112  43.999  28.084   4.712
46676W        W 6113  17.762  17.111  11.515
46677W        W 6114   7.832  43.904  13.520
46678W        W 6115  41.393  27.016  10.466
46679W        W 6116  21.659  17.656   3.227
46680W        W 6117  11.293  23.209   0.407
46681W        W 6118  44.903   9.300  10.522
46682W        W 6119  16.616   8.707  14.348
46683W        W 6120  32.551  40.981   4.194
46684W        W 6121   8.770  19.109  13.007
46685W        W 6122   2.277  32.417   3.221
46686W        W 6123  37.380   3.889   0.935
46687W        W 6124  38.477  41.875  12.976
46688W        W 6125  38.004  18.550   0.385
46689W        W 6126  36.409  35.938   1.390
46690W        W 6127  33.507  26.048   2.330
46691W        W 6128  20.096  37.466   4.316
46692W        W 6129   6.767  23.604  13.438
46693W        W 6130  37.883  25.124   0.957
46694W        W 6131  16.286  42.870  14.360
46695W        W 6132  10.862  13.340   2.332
46696W        W 6133  17.225  15.322  13.874
46697W        W 6134  40.464   3.767   4.681
46698W        W 6135  24.619  17.675   4.651
46699W        W 6136  19.740  18.599  14.422
46700W        W 6137  24.713   9.757  10.643
46701W        W 6138  10.874  34.061   4.315
46702W        W 6139  15.786  18.605  10.927
46703W        W 6140  16.082  11.801   0.789
46704W        W 6141  38.491  44.395   0.323
46705W        W 6142   4.360  41.020   1.748
46706W        W 6143  40.981   8.394  14.941
46707W        W 6144  29.663  25.029  11.929
46708W        W 6145  29.930  29.123  14.830
46709W        W 6146  27.969  22.598   4.832
46710W        W 6147  37.079  40.816   2.762
46711W        W 6148  40.537  25.015   4.603
46712W        W 6149  13.117  41.018   4.625
46713W        W 6150  35.540  30.618  13.965
46714W        W 6151  42.381  22.110   4.273
46715W        W 6152  16.272   4.274  13.994
46716W        W 6153  10.195  36.055   5.207
46717W        W 6154  43.939  22.182   2.216
46718W        W 6155   8.721  27.974  13.944
46719W        W 6156   7.884  34.554   2.722
46720W        W 6157  32.420  16.136  10.526
46721W        W 6158   4.274  13.301  12.938
46722W        W 6159   0.816  40.869  10.947
46723W        W 6160   1.856  20.094  10.933
46724W        W 6161  28.002  18.107  12.845
46725W        W 6162  22.009  14.727   9.610
46726W        W 6163  26.203  16.736  12.539
46727W        W 6164  17.120  37.404  13.872
46728W        W 6165  37.552  31.154  11.434
46729W        W 6166   0.391  17.096   0.361
46730W        W 6167  19.650  11.226  12.501
46731W        W 6168   8.693  34.077  14.954
46732W        W 6169  27.522  44.479   1.779
46733W        W 6170   4.875  37.010   3.632
46734W        W 6171  40.364  11.806   1.313
46735W        W 6172  30.510  36.022  11.396
46736W        W 6173  41.975  15.232   3.819
46737W        W 6174  18.729  26.521   0.885
46738W        W 6175  39.490  20.525   4.338
46739W        W 6176  18.765   8.720  10.492
46740W        W 6177  30.947  30.064  14.931
46741W        W 6178  21.123  24.183   1.366
46742W        W 6179  28.591  24.159   2.308
46743W        W 6180  22.144  22.714  12.485
46744W        W 6181  12.245  40.521  14.362
46745W        W 6182  39.844  26.019   2.838
46746W        W 6183  16.194   2.795  11.926
46747W        W 6184  28.933  24.564  12.957
46748W        W 6185  31.585   1.438   4.310
46749W        W 6186  17.776  22.580   2.825
46750W        W 6187  37.908   2.744   0.315
46751W        W 6188  15.738   3.239  13.807
46752W        W 6189  22.570   3.320  11.947
46753W        W 6190  41.915   5.428  13.426
46754W        W 6191  14.793  33.598   3.795
46755W        W 6192   5.754  27.688  14.461
46756W        W 6193  29.618  39.495  14.336
46757W        W 6194  11.684  35.584  14.457
46758W        W 6195  32.112  24.004  13.526
46759W        W 6196  41.007  31.587   1.888
46760W        W 6197   7.674   3.769  10.982
46761W        W 6198  37.003  25.002  12.479
46762W        W 6199  43.005  21.585  14.483
46763W        W 6200  12.333  33.009  10.569
46764W        W 6201  15.111  39.941   1.232
46765W        W 6202  26.645  36.534  14.832
46766W        W 6203  11.742   0.812   0.831
46767W        W 6204  13.704  39.431   4.619
46768W        W 6205  27.527  19.609   0.770
46769W        W 6206  19.267  42.893   1.232
46770W        W 6207  44.965   6.364   2.203
46771W        W 6208  36.057   2.959   3.184
46772W        W 6209   4.289  40.329  10.637
46773W        W 6210  21.562  36.413   4.300
46774W        W 6211  15.326   0.830   3.276
46775W        W 6212  30.564  36.407   2.191
46776W        W 6213  23.081  43.493   2.799
46777W        W 6214   2.932  43.406  12.038
46778W        W 6215  14.199   6.679  12.502
46779W        W 6216  32.036  41.481   1.859
46780W        W 6217   0.872   3.321  14.959
46781W        W 6218  20.264  23.711   1.283
46782W        W 6219  29.617  13.784  12.830
46783W        W 6220   6.850  40.815  11.382
46784W        W 6221  10.841  29.155   3.793
46785W        W 6222  29.549  32.468   0.819
46786W        W 6223   0.319  15.176  15.000
46787W        W 6224  37.383  34.050   4.139
46788W        W 6225  29.012  28.958  11.445
46789W        W 6226   2.850  34.055   0.740
46790W        W 6227  42.418   9.318   0.790
46791W        W 6228  38.409   8.382   3.756
46792W        W 6229  43.388  12.146  12.549
46793W        W 6230   5.827  23.181   9.988
46794W        W 6231  31.460   6.757   2.304
46795W        W 6232  22.566  35.474  11.417
46796W        W 6233  43.878  39.315  13.324
46797W        W 6234  22.143  29.610  14.406
46798W        W 6235   9.186  21.719  14.441
46799W        W 6236  11.233  23.572   2.310
46800W        W 6237  18.672  22.686  11.411
46801W        W 6238   2.231  30.929  13.844
46802W        W 6239  34.589  38.914  14.900
46803W        W 6240  44.466  23.579   3.365
46804W        W 6241   1.800  35.441  13.388
46805W        W 6242  14.822  31.472   4.200
46806W        W 6243   0.862  12.175   2.264
46807W        W 6244  37.921   2.336   3.147
46808W        W 6245  19.736   7.212  13.333
46809W        W 6246  34.489  11.772   3.170
46810W        W 6247  20.112  41.856  13.883
46811W        W 6248  20.736  12.650  14.346
46812W        W 6249  39.353  26.956  13.932
46813W        W 6250  34.869  35.482  14.339
46814W        W 6251  40.876   6.389   3.219
46815W        W 6252  44.966  20.631  14.826
46816W        W 6253   2.278  13.663   1.358
46817W        W 6254  41.020  15.173   1.236
46818W        W 6255  41.006  32.520   1.220
46819W        W 6256  15.621   7.801   1.291
46820W        W 6257   1.382   4.901   0.835
46821W        W 6258   2.312  36.365   3.179
46822W        W 6259  29.657   7.378  13.965
46823W        W 6260  14.733   8.207   3.179
46824W        W 6261  14.741  27.658   3.770
46825W        W 6262  36.876   8.679   1.327
46826W        W 6263  10.169   1.833  12.951
46827W        W 6264  44.991  30.038  13.948
46828W        W 6265  37.514  34.391  13.903
46829W        W 6266  39.926  44.450   2.304
46830W        W 6267  17.195  36.559   0.341
46831W        W 6268   7.399   8.202   4.641
46832W        W 6269  36.488  10.656  13.503
46833W        W 6270  34.120  22.245  13.375
46834W        W 6271   8.796  34.880  10.602
46835W        W 6272  23.101  11.813   1.791
46836W        W 6273   5.246   6.276  13.535
46837W        W 6274  25.988  30.534  12.480
46838W        W 6275  34.393  36.086   1.916
46839W        W 6276  36.450  23.608  10.422
46840W        W 6277  44.497  44.360   0.792
46841W        W 6278  13.814  19.160  10.405
46842W        W 6279  40.049  15.729   1.830
46843W        W 6280  14.690  23.611   3.362
46844W        W 6281  13.291  27.459  11.532
46845W        W 6282   6.239  11.806  12.892
46846W        W 6283  41.980  19.285   4.818
46847W        W 6284  29.102   4.844   1.326
46848W        W 6285  24.645   2.907   3.745
46849W        W 6286  33.525   4.750   1.385
46850W        W 6287  36.915  37.844  10.410
46851W        W 6288  39.522  22.110  12.515
46852W        W 6289  39.373   8.741   1.381
46853W        W 6290   8.684  40.415   2.373
46854W        W 6291  25.645   1.963   1.379
46855W        W 6292   8.854  35.874  13.923
46856W        W 6293  16.800  19.118   1.729
46857W        W 6294  13.735  22.241   0.442
46858W        W 6295  13.716   3.797   0.931
46859W        W 6296  12.623  28.141   2.215
46860W        W 6297  25.208  29.002   2.324
46861W        W 6298  44.481  32.455  14.011
46862W        W 6299  35.438  15.086   0.404
46863W        W 6300  35.549   0.445   3.227
46864W        W 6301  17.757  43.962  14.760
46865W        W 6302  13.172  41.833  11.096
46866W        W 6303  33.891  24.996   1.253
46867W        W 6304   1.435  21.259  12.431
46868W        W 6305   8.768  25.637   3.677
46869W        W 6306   8.217  34.538  14.925
46870W        W 6307  29.652  22.503  13.345
46871W        W 6308  28.444  39.317  14.331
46872W        W 6309   2.767   3.884  11.570
46873W        W 6310   3.711  37.845  10.897
46874W        W 6311  26.072  25.482  10.938
46875W        W 6312  41.834  42.402   0.963
46876W        W 6313   8.207   7.699  11.457
46877W        W 6314  37.549  12.151  13.329
46878W        W 6315  24.634  15.593   2.719
46879W        W 6316  35.379  12.770  14.408
46880W        W 6317  15.121  33.562   0.286
46881W        W 6318  22.619  29.017  13.006
46882W        W 6319  40.975  16.687   0.787
46883W        W 6320  19.703   6.732  10.892
46884W        W 6321  29.512  41.346   1.408
46885W        W 6322  30.479  44.439  14.979
46886W        W 6323  30.997  26.128  10.436
46887W        W 6324  33.464  22.677   2.187
46888W        W 6325  20.529  42.006   0.352
46889W        W 6326   8.187  25.011  10.500
46890W        W 6327  24.696  34.514   4.137
46891W        W 6328  35.522  35.050   3.651
46892W        W 6329  44.927   9.372   1.221
46893W        W 6330   2.396  41.462  13.878
46894W        W 6331  33.014  27.687   4.713
46895W        W 6332  11.282  31.612   4.675
46896W        W 6333  22.142  37.469  10.576
46897W        W 6334  33.015  34.116   3.667
46898W        W 6335   0.468  14.819  11.407
46899W        W 6336   0.806   5.929  14.403
46900W        W 6337  34.524   6.282   3.151
46901W        W 6338  12.672  21.137  10.634
46902W        W 6339  44.434   7.201   0.819
46903W        W 6340  43.393  37.436  13.855
46904W        W 6341  25.699  42.970  11.945
46905W        W 6342   6.791   1.390   1.250
46906W        W 6343   4.768  13.150  13.511
46907W        W 6344   3.346  41.296  13.433
46908W        W 6345  25.086  34.471   1.415
46909W        W 6346  25.141  23.166  12.022
46910W        W 6347  23.224  27.040  11.589
46911W        W 6348   5.216  37.035   1.354
46912W        W 6349  33.524  32.439  12.992
46913W        W 6350  43.389  16.119  11.964
46914W        W 6351  29.053  36.848   2.223
46915W        W 6352  25.601  33.016   1.886
46916W        W 6353  41.839  36.910  12.473
46917W        W 6354   9.224   4.409  12.083
46918W        W 6355  28.579  28.525   4.792
46919W        W 6356  39.491  40.825   3.216
46920W        W 6357  32.394  12.799   1.885
46921W        W 6358  15.165  30.047   0.340
46922W        W 6359  23.212  27.509   3.816
46923W        W 6360  18.069  38.067  11.971
46924W        W 6361   6.783  22.722   3.335
46925W        W 6362  35.506  25.629  12.381
46926W        W 6363  23.211  18.709  11.881
46927W        W 6364  37.917  26.580  14.024
46928W        W 6365  40.946  23.038   1.335
46929W        W 6366  38.956  43.314  10.497
46930W        W 6367  24.635   8.744   5.261
46931W        W 6368   9.835  42.848   4.800
46932W        W 6369  28.492   7.677   2.694
46933W        W 6370  30.972  33.565   3.191
46934W        W 6371  13.689   8.681  10.473
46935W        W 6372  11.331  29.088  10.533
46936W        W 6373  43.842  43.297   0.731
46937W        W 6374  35.858  38.887   1.321
46938W        W 6375  40.912  36.891   4.697
46939W        W 6376  11.265  15.112  10.586
46940W        W 6377  31.606  21.608   3.834
46941W        W 6378  13.169  20.697  13.038
46942W        W 6379   7.259  21.199  10.631
46943W        W 6380  25.712  12.338   3.867
46944W        W 6381  27.020  39.830  11.896
46945W        W 6382  33.467  16.696   2.202
46946W        W 6383  18.107  33.057   4.765
46947W        W 6384  39.032   8.212   4.689
46948W        W 6385  20.113  35.427  12.876
46949W        W 6386  44.996  24.705  13.453
46950W        W 6387  44.409  12.842   5.572
46951W        W 6388  19.564   0.346  12.014
46952W        W 6389  30.628   2.844   1.803
46953W        W 6390  19.639  28.476   0.422
46954W        W 6391  13.223   3.954  14.488
46955W        W 6392   6.775  34.957  13.975
46956W        W 6393   7.822  15.716   2.726
46957W        W 6394  31.501  16.104   1.865
46958W        W 6395  33.550  18.072  10.004
46959W        W 6396  17.678  21.198  11.560
46960W        W 6397  27.174  10.747  12.351
46961W        W 6398  44.001  37.490  12.475
46962W        W 6399   8.404  34.409   4.822
46963W        W 6400   0.334   9.177   1.352
46964W        W 6401  24.021  10.842  12.084
46965W        W 6402  14.307   1.365  11.397
46966W        W 6403  38.445  43.308  14.348
46967W        W 6404  14.660   7.259  12.476
46968W        W 6405  32.584  40.359  10.482
46969W        W 6406  18.625  16.801  14.021
46970W        W 6407  35.097   7.364  14.948
46971W        W 6408  21.514  10.193  12.834
46972W        W 6409  25.146  35.531   3.764
46973W        W 6410  30.617  31.607  13.950
46974W        W 6411  30.603  39.860  11.588
46975W        W 6412   5.202  14.612   4.599
46976W        W 6413  36.041  21.695   4.719
46977W        W 6414  34.066   4.915  14.316
46978W        W 6415   0.313  25.042  13.471
46979W        W 6416  34.490   1.430  12.359
46980W        W 6417  13.280  25.029  14.902
46981W        W 6418  25.544  18.237  12.955
46982W        W 6419  12.243  32.087   2.790
46983W        W 6420  32.989  31.435   0.767
46984W        W 6421  22.653  35.991  12.352
46985W        W 6422  44.478   3.387  14.389
46986W        W 6423  43.967  31.633   4.786
46987W        W 6424  41.385  13.225  14.822
46988W        W 6425   6.209  22.668   2.384
46989W        W 6426  13.731  42.997  12.934
46990W        W 6427  31.423  32.002   1.819
46991W        W 6428   9.346  15.727  11.938
46992W        W 6429   7.249  39.816   3.754
46993W        W 6430  37.561   5.227   1.443
46994W        W 6431  12.164   4.351  11.520
46995W        W 6432   4.878  21.152   1.738
46996W        W 6433  16.126  30.626   2.338
46997W        W 6434   3.240  14.660   3.324
46998W        W 6435   0.424  21.735   1.438
46999W        W 6436  29.445  28.947   0.939
47000W        W 6437  24.542   4.784   1.251
47001W        W 6438   9.180  29.438  12.955
47002W        W 6439  41.510  39.416  11.482
47003W        W 6440  30.959   3.222   5.099
47004W        W 6441  34.883  28.635  11.072
47005W        W 6442  44.401   5.736  11.395
47006W        W 6443  42.423  27.547  10.970
47007W        W 6444  42.373   6.693   0.938
47008W        W 6445  23.550  21.148   0.769
47009W        W 6446  30.535  25.615  10.538
47010W        W 6447  19.188   3.727  14.463
47011W        W 6448  41.399  15.245  10.463
47012W        W 6449  43.269  35.940   0.419
47013W        W 6450  37.556  12.303  10.911
47014W        W 6451   4.399  30.149   0.282
47015W        W 6452  42.458   2.751   4.710
47016W        W 6453  25.981   5.883  11.464
47017W        W 6454   3.784  13.844   1.347
47018W        W 6455  17.137   8.270   2.384
47019W        W 6456   2.355  14.096   0.366
47020W        W 6457   9.236   3.830  12.857
47021W        W 6458  34.007  34.571   0.398
47022W        W 6459  40.858   5.803  11.049
47023W        W 6460  42.372  31.995   1.866
47024W        W 6461  25.699   9.355  11.602
47025W        W 6462  39.037  21.043  13.020
47026W        W 6463   3.808  16.120  13.468
47027W        W 6464  42.983  36.983  14.814
47028W        W 6465  25.969  15.136  10.993
47029W        W 6466  32.924  23.124   1.709
47030W        W 6467  33.488  28.535   0.960
47031W        W 6468  23.206  17.162   1.837
47032W        W 6469  21.022  23.238  11.926
47033W        W 6470  19.626  39.062  14.303
47034W        W 6471  17.558  34.090  10.476
47035W        W 6472   0.389   4.385  12.577
47036W        W 6473  41.995  37.497   0.956
47037W        W 6474   5.262   0.327  12.826
47038W        W 6475   2.960  39.868  12.549
47039W        W 6476  14.125  32.031  12.078
47040W        W 6477  42.371  36.969   1.294
47041W        W 6478  44.458  21.167  11.125
47042W        W 6479  27.184  14.331  13.968
47043W        W 6480  44.859  33.969   2.689
47044W        W 6481  20.215   8.229  11.605
47045W        W 6482  26.608  23.734   3.639
47046W        W 6483  22.572   4.803   3.185
47047W        W 6484  18.677  27.516  12.939
47048W        W 6485   2.243  26.073   2.768
47049W        W 6486  37.372  23.144   4.222
47050W        W 6487  41.977  13.811  11.515
47051W        W 6488   0.958  17.113   2.196
47052W        W 6489  44.453  13.205  10.033
47053W        W 6490  39.928  35.094   3.714
47054W        W 6491  21.560  23.999   0.740
47055W        W 6492  29.048  43.383   0.800
47056W        W 6493   7.171  28.166   0.259
47057W        W 6494  22.521  27.595  14.335
47058W        W 6495  31.039   5.288  14.967
47059W        W 6496  21.642  24.494  12.008
47060W        W 6497   5.289  36.074   2.209
47061W        W 6498   2.926  41.401   2.288
47062W        W 6499  14.747   5.295  12.003
47063W        W 6500   1.483  10.252  10.959
47064W        W 6501  23.568  43.288  10.988
47065W        W 6502  26.661   4.811  10.581
47066W        W 6503   6.268  37.877  14.489
47067W        W 6504  17.153   1.747   5.158
47068W        W 6505  40.350  42.959  13.881
47069W        W 6506   0.893   6.715   1.388
47070W        W 6507  35.972  36.397   0.353
47071W        W 6508  32.579  19.286   3.150
47072W        W 6509  20.267  42.779   9.987
47073W        W 6510  44.486  33.921  11.425
47074W        W 6511   9.753  11.746   2.816
47075W        W 6512  28.646  31.409   3.691
47076W        W 6513  28.955  23.013   0.307
47077W        W 6514   8.339  19.104  12.943
47078W        W 6515   3.339   7.739  10.573
47079W        W 6516  17.233   1.742  14.990
47080W        W 6517  33.401  25.189  12.963
47081W        W 6518  42.381   6.751  14.306
47082W        W 6519  13.814  27.197   3.355
47083W        W 6520  39.930   3.347   1.797
47084W        W 6521  31.106  42.778   2.306
47085W        W 6522  17.697  41.325  13.048
47086W        W 6523  34.417  25.523   3.284
47087W        W 6524  43.387  22.669   0.728
47088W        W 6525   4.840  20.077   0.293
47089W        W 6526  34.511   4.923  11.534
47090W        W 6527  20.198  23.648   5.159
47091W        W 6528   0.431  40.305   2.851
47092W        W 6529  28.141  36.405  12.963
47093W        W 6530   7.690  15.278   0.242
47094W        W 6531  29.004  33.427  13.968
47095W        W 6532  40.322  22.126   2.409
47096W        W 6533   9.330  42.349   4.233
47097W        W 6534  10.783  35.047   4.148
47098W        W 6535  23.078  32.938  12.873
47099W        W 6536  26.053  29.582   0.875
47100W        W 6537  35.440  21.104   1.262
47101W        W 6538  40.026   6.846   4.300
47102W        W 6539  43.994   3.878   4.788
47103W        W 6540  35.022   5.747   1.695
47104W        W 6541  12.199  42.833  14.998
47105W        W 6542   7.183  21.107  13.821
47106W        W 6543   1.840  37.974   1.843
47107W        W 6544  37.908   0.848  10.930
47108W        W 6545   8.660  12.659  14.911
47109W        W 6546  27.457  14.766  11.601
47110W        W 6547  17.142  24.002   3.175
47111W        W 6548  21.199  26.475   1.334
47112W        W 6549  19.215  16.700   0.871
47113W        W 6550  16.154  33.020   1.823
47114W        W 6551  40.375   4.700  11.976
47115W        W 6552  16.592  42.402   1.916
47116W        W 6553  28.455  21.080   3.839
47117W        W 6554   8.738  26.993  11.500
47118W        W 6555  41.892  33.131  14.908
47119W        W 6556  44.387  12.254  14.908
47120W        W 6557  12.167  34.884   3.249
47121W        W 6558  19.285  38.885  10.541
47122W        W 6559   7.246  21.153   0.373
47123W        W 6560  43.973  34.483   5.316
47124W        W 6561  11.824  42.931   1.826
47125W        W 6562  43.812  33.942   4.610
47126W        W 6563   2.745  29.654   0.460
47127W        W 6564  12.290  13.737   0.944
47128W        W 6565  11.338  24.069   2.192
47129W        W 6566   4.308  30.999   1.400
47130W        W 6567  27.017   8.730  12.853
47131W        W 6568  36.854  36.884   0.874
47132W        W 6569   1.934   5.400  14.006
47133W        W 6570   6.764  22.077  10.434
47134W        W 6571   3.937  11.643   4.814
47135W        W 6572  39.038   8.671   9.952
47136W        W 6573  37.953   8.694   4.235
47137W        W 6574  43.846  22.561  12.941
47138W        W 6575  15.615   6.907   0.343
47139W        W 6576  20.073   2.299  11.512
47140W        W 6577   4.847  35.581  10.642
47141W        W 6578   3.250  44.441   3.835
47142W        W 6579  17.124  11.735   5.228
47143W        W 6580  32.530  18.603   0.890
47144W        W 6581  36.515  32.594   0.939
47145W        W 6582  30.630   8.253  10.567
47146W        W 6583  14.272   0.302   1.256
47147W        W 6584  33.053  20.096   1.855
47148W        W 6585   2.868  24.528  10.507
47149W        W 6586   3.797  32.040  14.304
47150W        W 6587  26.150  17.222   1.396
47151W        W 6588  34.372  44.389  14.854
47152W        W 6589   6.865  30.008   0.323
47153W        W 6590  24.489  12.679  12.028
47154W        W 6591  30.450  36.067   3.677
47155W        W 6592  33.102  28.647   0.245
47156W        W 6593  26.963  25.140  13.932
47157W        W 6594  26.052  23.240  10.003
47158W        W 6595  43.892  12.233  12.012
47159W        W 6596  30.618  24.648  14.437
47160W        W 6597   7.211  34.999   0.853
47161W        W 6598  17.611  28.152   1.305
47162W        W 6599  21.653   0.321   0.246
47163W        W 6600  30.633  10.811  12.027
47164W        W 6601  25.963   3.277   5.225
47165W        W 6602  15.316  43.812   4.644
47166W        W 6603  30.482  31.003  13.828
47167W        W 6604  29.092  23.577  13.999
47168W        W 6605  26.983  27.613   1.322
47169W        W 6606  11.348  23.238   1.804
47170W        W 6607  16.207  25.689   0.789
47171W        W 6608  42.977   1.385  10.433
47172W        W 6609   9.165   2.247  10.494
47173W        W 6610  24.028  37.473  10.618
47174W        W 6611   6.412  25.655  13.358
47175W        W 6612  23.006  23.578  14.372
47176W        W 6613  20.165   7.179  12.907
47177W        W 6614  15.235   4.777   1.223
47178W        W 6615  31.409  13.213   1.929
47179W        W 6616  17.280  27.602  12.972
47180W        W 6617   5.791  35.531   2.345
47181W        W 6618  28.101   4.444   1.321
47182W        W 6619  40.884  29.636  10.583
47183W        W 6620  36.024  11.775   0.906
47184W        W 6621  38.930  33.976   2.854
47185W        W 6622  15.235  12.818  14.783
47186W        W 6623  38.931  42.416   4.644
47187W        W 6624  44.485   8.396  14.849
47188W        W 6625  23.035  26.118  14.862
47189W        W 6626  25.003   1.241  10.959
47190W        W 6627  42.784  19.645  13.364
47191W        W 6628  26.489  18.756   2.278
47192W        W 6629  10.789  40.902  14.764
47193W        W 6630  13.291  31.903  11.561
47194W        W 6631  24.568  33.545  14.906
47195W        W 6632  29.074  10.213   1.422
47196W        W 6633  22.596  44.787  14.955
47197W        W 6634  12.621   1.273   0.840
47198W        W 6635   2.424  28.438   4.801
47199W        W 6636  40.342  24.584   3.801
47200W        W 6637   3.290   8.825   4.116
47201W        W 6638  25.119   5.378  14.343
47202W        W 6639  38.989  36.894  14.880
47203W        W 6640   5.713  31.067  10.474
47204W        W 6641  33.045   7.826   1.762
47205W        W 6642   3.923  24.004   0.383
47206W        W 6643  42.479  20.703  12.885
47207W        W 6644  42.959   6.393  11.925
47208W        W 6645   1.299  27.463  12.935
47209W        W 6646  38.058  28.461   4.180
47210W        W 6647  38.466  19.745  11.903
47211W        W 6648  41.483  19.280   2.687
47212W        W 6649  18.260  39.386   2.728
47213W        W 6650   0.299  11.687   5.302
47214W        W 6651  42.411  16.098  11.486
47215W        W 6652   9.307  18.646   0.372
47216W        W 6653  22.010   7.866   0.741
47217W        W 6654  30.418  22.685  12.480
47218W        W 6655   7.322  24.541  11.077
47219W        W 6656  24.092  26.476   1.864
47220W        W 6657  43.424  16.633   4.765
47221W        W 6658  33.522  30.081  13.993
47222W        W 6659  33.001  21.170  12.892
47223W        W 6660   2.321  11.807  11.496
47224W        W 6661  41.826   5.799   4.127
47225W        W 6662  30.622  19.668   4.775
47226W        W 6663  28.026  43.402   1.249
47227W        W 6664  25.158   0.491  11.939
47228W        W 6665  35.886  29.596   1.836
47229W        W 6666  36.537  24.124   2.777
47230W        W 6667  31.007  26.001  12.038
47231W        W 6668   1.383  12.797   4.633
47232W        W 6669  41.913  28.038   0.911
47233W        W 6670  24.622  36.037  11.963
47234W        W 6671  10.156  34.938   5.320
47235W        W 6672   8.860  31.974  10.916
47236W        W 6673  34.547   1.974   3.760
47237W        W 6674  27.176   0.461  14.366
47238W        W 6675  41.931  28.477  12.952
47239W        W 6676   2.883  25.171  13.359
47240W        W 6677  18.624  44.463   9.961
47241W        W 6678   2.384  37.990   1.289
47242W        W 6679  32.443  44.937   2.813
47243W        W 6680   6.286   7.909   1.779
47244W        W 6681   6.331  18.629  13.902
47245W        W 6682  38.518  29.481   1.355
47246W        W 6683   6.877   5.926  11.521
47247W        W 6684  14.269  24.063  13.998
47248W        W 6685   0.750  24.710  11.475
47249W        W 6686  12.149  18.724  14.926
47250W        W 6687  44.801  10.649  13.427
47251W        W 6688   7.892  24.495  12.036
47252W        W 6689  19.199  14.610  10.071
47253W        W 6690  35.360  41.806  13.377
47254W        W 6691  39.848  39.030  12.080
47255W        W 6692  34.024  40.971   0.942
47256W        W 6693   8.280  15.198  10.414
47257W        W 6694  21.145  29.060   2.297
47258W        W 6695   8.834  20.697   3.639
47259W        W 6696  13.349  35.423   2.703
47260W        W 6697  27.494   5.688   3.745
47261W        W 6698  20.058  24.978   4.161
47262W        W 6699  25.678   8.364  12.394
47263W        W 6700  38.377   8.291  11.410
47264W        W 6701  17.164  23.491  14.314
47265W        W 6702  12.262  35.521   4.206
47266W        W 6703  42.362  39.009  12.477
47267W        W 6704  30.998  11.222  14.933
47268W        W 6705   8.279  27.538   1.286
47269W        W 6706  15.725  36.046   0.430
47270W        W 6707   8.841  19.212  12.569
47271W        W 6708  36.370   0.427   3.352
47272W        W 6709  27.629  29.968  11.535
47273W        W 6710  26.492  34.886  12.932
47274W        W 6711   7.351  13.612   2.804
47275W        W 6712   1.920  21.240  12.869
47276W        W 6713  40.979  27.491  10.952
47277W        W 6714  26.999   7.890   1.826
47278W        W 6715  33.122  31.464  11.546
47279W        W 6716   6.271  24.066   3.176
47280W        W 6717  31.921  41.813  11.538
47281W        W 6718  43.484  29.469   4.812
47282W        W 6719   1.806  29.936   2.260
47283W        W 6720   6.248  37.051   3.855
47284W        W 6721   5.298   9.259   0.742
47285W        W 6722  28.677  34.556  12.520
47286W        W 6723  14.179  23.051  13.403
47287W        W 6724   1.468   9.354   4.611
47288W        W 6725  17.286   1.753   0.843
47289W        W 6726  25.077   4.277   1.841
47290W        W 6727  15.195   8.219   2.296
47291W        W 6728   0.304  28.626   4.137
47292W        W 6729  12.788  26.526   0.781
47293W        W 6730   4.403  39.922  13.865
47294W        W 6731  40.318  37.979  11.423
47295W        W 6732  33.102  38.872  12.953
47296W        W 6733  44.321  11.693  14.953
47297W        W 6734   9.873  38.868   4.828
47298W        W 6735  30.920  24.196  11.945
47299W        W 6736  41.033  12.228  13.057
47300W        W 6737  16.601   9.331   3.230
47301W        W 6738  34.889  31.645   4.720
47302W        W 6739  20.256  11.144   0.845
47303W        W 6740  10.825  17.117  12.374
47304W        W 6741  44.380   6.413  14.327
47305W        W 6742  39.066  17.795   4.598
47306W        W 6743  25.115  24.001  11.543
47307W        W 6744  28.964  36.575   0.407
47308W        W 6745  28.466   8.252  10.937
47309W        W 6746  35.474  32.005  13.354
47310W        W 6747   2.395  33.404  10.947
47311W        W 6748  40.503  33.912   1.839
47312W        W 6749  31.560  32.501   4.759
47313W        W 6750   5.366   6.876  13.546
47314W        W 6751  38.563  35.924  14.812
47315W        W 6752  13.309  38.467   0.913
47316W        W 6753   9.235  21.754   4.137
47317W        W 6754   4.242  17.130  14.982
47318W        W 6755   7.713  30.916   4.778
47319W        W 6756  21.118   2.315  14.277
47320W        W 6757  37.474  37.504  12.504
47321W        W 6758  37.572  36.082  10.156
47322W        W 6759  33.552  14.823   0.932
47323W        W 6760   8.791   2.452  10.525
47324W        W 6761  12.631  29.575  10.986
47325W        W 6762  16.655  23.564  11.507
47326W        W 6763  17.688  20.051  11.864
47327W        W 6764  24.066   1.282  10.424
47328W        W 6765   6.882  28.153  11.892
47329W        W 6766   7.413  41.325  14.825
47330W        W 6767  43.962  44.967  12.517
47331W        W 6768   3.802   1.383  11.056
47332W        W 6769   7.271  38.483   2.821
47333W        W 6770  23.594  14.815  13.921
47334W        W 6771  29.669   2.825  11.933
47335W        W 6772   6.394  19.554  12.568
47336W        W 6773  43.923  34.016  14.949
47337W        W 6774  11.335  17.758   3.783
47338W        W 6775  16.288  22.234   4.186
47339W        W 6776   8.313   5.813   3.692
47340W        W 6777   4.726  41.965   1.274
47341W        W 6778  42.329  35.501  11.568
47342W        W 6779  26.025  25.638  12.992
47343W        W 6780   2.384  18.072  11.070
47344W        W 6781  14.679  12.661   3.287
47345W        W 6782  27.646  26.188  11.097
47346W        W 6783  36.097   9.338   3.340
47347W        W 6784  30.449  23.166   1.297
47348W        W 6785  24.155  42.298  14.388
47349W        W 6786  12.702  21.650   2.743
47350W        W 6787  12.737  43.967  11.556
47351W        W 6788  14.657  36.560  11.944
47352W        W 6789  37.025  43.494  11.929
47353W        W 6790  25.052  32.631   1.223
47354W        W 6791  18.553   2.455  13.393
47355W        W 6792  11.180   6.220  11.414
47356W        W 6793  29.952  12.798   1.732
47357W        W 6794   1.920   0.963  14.928
47358W        W 6795   0.970  16.125   2.706
47359W        W 6796  42.482  22.595   1.233
47360W        W 6797  24.140  19.767   2.887
47361W        W 6798   1.242  40.362  12.478
47362W        W 6799  25.552  32.132   4.161
47363W        W 6800  22.193  38.828   3.252
47364W        W 6801   9.698  29.640  11.891
47365W        W 6802   6.869  16.270   1.864
47366W        W 6803  42.974  32.892  11.526
47367W        W 6804  32.522  23.130  14.364
47368W        W 6805  33.984  29.170  10.468
47369W        W 6806   9.797  16.202   3.844
47370W        W 6807  20.686  41.943   3.778
47371W        W 6808   9.669  34.062  11.603
47372W        W 6809  42.318  17.286  11.966
47373W        W 6810   7.719  33.552   2.190
47374W        W 6811   7.312   6.736   3.329
47375W        W 6812  42.955  15.145  13.401
47376W        W 6813  14.325  37.351   0.896
47377W        W 6814  24.194   5.787  13.956
47378W        W 6815  33.880  43.304  10.910
47379W        W 6816  38.918  43.765   2.859
47380W        W 6817   0.409  14.704  12.918
47381W        W 6818   9.680   7.838  12.498
47382W        W 6819  16.202  26.650  12.079
47383W        W 6820  17.640  15.673   9.981
47384W        W 6821  35.420  21.059   1.853
47385W        W 6822  37.040  32.143  14.773
47386W        W 6823  36.953   7.819   1.327
47387W        W 6824  19.705  28.541  14.892
47388W        W 6825  21.606  16.679  12.014
47389W        W 6826  10.158   7.843  10.523
47390W        W 6827  28.183  37.078  11.098
47391W        W 6828  26.953   6.811  12.421
47392W        W 6829   0.290   5.691  12.435
47393W        W 6830  39.959  24.210  12.931
47394W        W 6831  12.823  33.523   3.645
47395W        W 6832   7.842   6.827   0.741
47396W        W 6833  28.014  41.531   4.801
47397W        W 6834  39.444  43.766   3.252
47398W        W 6835  40.955   6.270   4.827
47399W        W 6836  32.446  14.624  10.527
47400W        W 6837  17.226  12.691   5.284
47401W        W 6838  28.027  28.681   3.839
47402W        W 6839  43.985  39.483  13.919
47403W        W 6840  27.013  30.975  13.983
47404W        W 6841  43.976  32.497  11.583
47405W        W 6842  13.176  33.976   0.404
47406W        W 6843  41.980  30.026  10.496
47407W        W 6844  44.765  34.069   1.906
47408W        W 6845  36.965  37.433   4.117
47409W        W 6846  14.623   0.267   2.403
47410W        W 6847  18.717   3.409   0.357
47411W        W 6848  35.978  31.896   0.921
47412W        W 6849  27.488  37.043   0.367
47413W        W 6850   5.240  44.341  10.944
47414W        W 6851  26.977  27.687  13.338
47415W        W 6852  16.626  17.235  11.566
47416W        W 6853  39.973   9.355   4.181
47417W        W 6854  24.637  12.227  13.948
47418W        W 6855  41.313  31.476  12.061
47419W        W 6856  22.082  36.913   2.731
47420W        W 6857  13.719  16.796  14.293
47421W        W 6858  14.337  25.988   2.279
47422W        W 6859  16.647  29.543   0.443
47423W        W 6860   9.366  21.524  13.324
47424W        W 6861   6.755  33.092   2.739
47425W        W 6862   7.721   9.267   4.729
47426W        W 6863   4.769  31.072  10.108
47427W        W 6864  31.960  31.913   3.368
47428W        W 6865   7.840  19.102   2.720
47429W        W 6866  41.489   8.865   4.339
47430W        W 6867  31.548  16.267   1.381
47431W        W 6868  26.988  12.120   5.176
47432W        W 6869  22.602  28.976  12.481
47433W        W 6870  11.631  34.569  10.436
47434W        W 6871   8.285   7.363   1.821
47435W        W 6872   8.876  42.782  14.319
47436W        W 6873  32.506  42.874  10.940
47437W        W 6874  25.479  40.382   0.825
47438W        W 6875  20.130  41.928  13.414
47439W        W 6876  22.732  14.190  13.813
47440W        W 6877  12.708  19.112  12.403
47441W        W 6878  35.917  13.115   1.798
47442W        W 6879  20.126  24.525   0.340
47443W        W 6880  37.337  34.024  11.439
47444W        W 6881  17.090  38.415   2.792
47445W        W 6882  42.782  23.241   2.742
47446W        W 6883   0.278  29.445  14.918
47447W        W 6884  13.222  12.206  13.934
47448W        W 6885  15.224  32.022   2.733
47449W        W 6886  26.617  11.211   2.263
47450W        W 6887  32.529  12.788  10.582
47451W        W 6888  21.262   3.287   5.246
47452W        W 6889  24.058  42.005   2.386
47453W        W 6890  42.459  24.538   4.245
47454W        W 6891  22.231  15.613   5.750
47455W        W 6892  36.383  13.170  11.052
47456W        W 6893  25.196   9.373   5.243
47457W        W 6894  12.115  44.502   0.889
47458W        W 6895  40.451   6.794  14.831
47459W        W 6896  27.478   0.430   2.868
47460W        W 6897  23.001  37.349  13.514
47461W        W 6898   6.400  12.341   3.654
47462W        W 6899  32.467  26.147   3.812
47463W        W 6900  42.456  28.130  11.443
47464W        W 6901  11.774  39.979  13.487
47465W        W 6902  35.598  44.479   4.126
47466W        W 6903   8.377  20.146  12.048
47467W        W 6904  33.112  36.972  10.959
47468W        W 6905  24.561   1.340   3.270
47469W        W 6906  37.965  11.319   3.693
47470W        W 6907  41.931   3.721   2.852
47471W        W 6908  25.182  28.678  13.415
47472W        W 6909   3.321  35.857  11.477
47473W        W 6910   5.923  44.004   2.824
47474W        W 6911  13.726   1.743   4.318
47475W        W 6912  36.015  28.964   3.807
47476W        W 6913  25.109  21.690  10.931
47477W        W 6914   7.825  33.430  13.342
47478W        W 6915  34.917  34.107  13.360
47479W        W 6916  30.522  34.414   0.852
47480W        W 6917  42.397  26.594   1.325
47481W        W 6918   6.792  28.103  11.487
47482W        W 6919  14.280   7.851   0.357
47483W        W 6920  43.797  32.427   3.323
47484W        W 6921  23.016  15.256  10.524
47485W        W 6922  31.065   4.264   1.862
47486W        W 6923  20.614  10.762   3.851
47487W        W 6924  13.236   3.269   0.947
47488W        W 6925  31.612  20.253   1.417
47489W        W 6926  39.937  44.303   0.770
47490W        W 6927  29.488   1.270  14.862
47491W        W 6928  14.663  20.105   2.678
47492W        W 6929   3.279  16.771  10.137
47493W        W 6930  13.831  35.587  12.465
47494W        W 6931  43.392  14.125  10.506
47495W        W 6932  29.056  18.604  14.906
47496W        W 6933  28.667  26.118  14.485
47497W        W 6934  37.970   5.826   0.416
47498W        W 6935  28.461   7.877  12.367
47499W        W 6936  18.176  13.637  10.422
47500W        W 6937   1.812  33.417  12.996
47501W        W 6938  18.734  37.980  13.873
47502W        W 6939  30.097  28.040  10.619
47503W        W 6940  29.176  36.580  13.942
47504W        W 6941   7.901  35.856  10.538
47505W        W 6942  18.154  44.827  12.507
47506W        W 6943  16.710  14.642   4.756
47507W        W 6944   6.691  36.087   1.422
47508W        W 6945  14.735  16.629  10.061
47509W        W 6946  15.107  32.563   2.414
47510W        W 6947  15.270  22.647   1.761
47511W        W 6948  26.685  34.064   2.827
47512W        W 6949  42.393  40.327   0.263
47513W        W 6950   4.762  21.106  12.074
47514W        W 6951  21.171  32.953  13.354
47515W        W 6952  27.957  31.091   4.275
47516W        W 6953  18.778  13.796  14.916
47517W        W 6954  34.545  12.320   4.272
47518W        W 6955  42.347  16.125  12.004
47519W        W 6956  37.911  29.439   0.761
47520W        W 6957   5.349  19.117   2.854
47521W        W 6958  43.511  42.423  12.419
47522W        W 6959  34.988  26.459   0.263
47523W        W 6960  42.327  36.560   2.675
47524W        W 6961  27.099  28.633   4.317
47525W        W 6962  44.356   7.185   2.324
47526W        W 6963   6.400  19.203   4.649
47527W        W 6964  18.073  23.026  10.450
47528W        W 6965  13.818  25.550  12.444
47529W        W 6966  43.013  14.265   4.806
47530W        W 6967   6.766   3.460   2.277
47531W        W 6968   7.322  12.178   2.410
47532W        W 6969  42.356  10.870  14.860
47533W        W 6970   7.812  36.562   3.763
47534W        W 6971  18.755  24.584  11.956
47535W        W 6972  24.131   0.401   3.764
47536W        W 6973  27.031  40.004  10.563
47537W        W 6974   6.818   8.308   0.482
47538W        W 6975  25.571   3.361   0.948
47539W        W 6976  28.116  12.712  14.943
47540W        W 6977  13.313  44.852  14.975
47541W        W 6978  22.131  19.047   4.248
47542W        W 6979   9.718  25.112  13.354
47543W        W 6980  22.182   1.841  14.492
47544W        W 6981  23.641  44.942   1.329
47545W        W 6982  37.836  20.253   4.260
47546W        W 6983  34.540  28.589   1.349
47547W        W 6984  22.140  26.585  12.894
47548W        W 6985  29.539   3.379   4.673
47549W        W 6986  25.113  16.568  11.932
47550W        W 6987  27.472  24.616  10.962
47551W        W 6988   6.300  13.152   2.893
47552W        W 6989  40.434  19.607   1.899
47553W        W 6990   8.697  35.453   3.866
47554W        W 6991  43.405   6.677   4.622
47555W        W 6992  32.970  18.106  12.448
47556W        W 6993   5.357  43.834   2.406
47557W        W 6994  35.360  32.107  13.841
47558W        W 6995  42.854  15.765   5.159
47559W        W 6996  38.061   1.892  13.451
47560W        W 6997   7.799   2.398   3.194
47561W        W 6998   0.855   8.227   2.409
47562W        W 6999  40.028  24.582  10.468
47563W        W 7000  42.316  26.684   4.625
47564W        W 7001  41.829  27.582  10.062
47565W        W 7002  25.963  42.990   3.674
47566W        W 7003  11.337  40.931   0.756
47567W        W 7004  39.418  30.974   0.822
47568W        W 7005  29.937   5.882   4.124
47569W        W 7006   6.349  25.555  12.447
47570W        W 7007  17.180   4.399  14.789
47571W        W 7008  39.927  20.130  12.044
47572W        W 7009  36.984  36.865  10.430
47573W        W 7010  30.967  21.603   0.881
47574W        W 7011  42.881   4.225   3.830
47575W        W 7012   9.286  32.134  14.361
47576W        W 7013  35.931  42.783   3.167
47577W        W 7014   0.447  13.289  14.474
47578W        W 7015  15.173  38.827  12.549
47579W        W 7016  23.134  17.083   4.277
47580W        W 7017  33.984  15.100   3.812
47581W        W 7018   3.833   1.887   5.177
47582W        W 7019  27.687  44.376  12.023
47583W        W 7020  31.430  44.802  13.882
47584W        W 7021  29.115  24.563   2.829
47585W        W 7022  35.439  37.538   1.795
47586W        W 7023  39.498  20.751   0.289
47587W        W 7024  17.109  23.719   1.894
47588W        W 7025  34.481  37.915   4.234
47589W        W 7026  26.635  33.479  10.563
47590W        W 7027  16.167  37.465   1.369
47591W        W 7028  43.802   6.410  13.324
47592W        W 7029   9.646  15.790   4.823
47593W        W 7030  39.961  18.696   1.341
47594W        W 7031  30.612   4.399   4.781
47595W        W 7032   2.431  16.124   4.140
47596W        W 7033   4.345   8.314  13.419
47597W        W 7034  20.664   5.327   4.278
47598W        W 7035  18.677  32.426  11.529
47599W        W 7036  43.414   6.795   1.913
47600W        W 7037  19.727   4.720  11.604
47601W        W 7038  39.351  34.013   3.317
47602W        W 7039  42.488  14.699  11.086
47603W        W 7040  24.574   8.822   3.828
47604W        W 7041  39.812   2.873  12.551
47605W        W 7042   9.829  10.691   4.292
47606W        W 7043   3.883  35.395  14.462
47607W        W 7044   8.290  39.874  10.500
47608W        W 7045  44.844   2.244   2.761
47609W        W 7046  17.230   8.833   9.975
47610W        W 7047  22.239  11.172  14.822
47611W        W 7048  39.854  44.426   1.448
47612W        W 7049  36.903  25.039   3.839
47613W        W 7050  40.893  24.665  13.542
47614W        W 7051  35.443  40.901   0.260
47615W        W 7052  25.199   8.740   5.182
47616W        W 7053   1.973  42.986  14.345
47617W        W 7054  26.643   0.932  10.566
47618W        W 7055  21.238   3.265  10.027
47619W        W 7056  35.012  44.367   0.768
47620W        W 7057  36.482  13.782  12.916
47621W        W 7058  36.956  43.019  12.424
47622W        W 7059  26.989  16.303  10.016
47623W        W 7060  24.553  21.059  10.090
47624W        W 7061  22.573  32.432  10.527
47625W        W 7062  19.182  18.784  11.910
47626W        W 7063  13.190  37.073  11.450
47627W        W 7064  23.663  22.022  11.951
47628W        W 7065  42.410  21.225   3.664
47629W        W 7066   0.965  10.639  14.439
47630W        W 7067  40.392  29.985  10.919
47631W        W 7068  27.098  38.471   2.235
47632W        W 7069  17.643  10.722   0.295
47633W        W 7070  17.603  15.218   1.854
47634W        W 7071  27.457  10.860   2.217
47635W        W 7072  26.491  37.038   0.428
47636W        W 7073  37.897  30.054  13.318
47637W        W 7074  40.828  34.540   0.752
47638W        W 7075  22.595   1.870  10.982
47639W        W 7076  42.873  18.194  14.779
47640W        W 7077  23.117  13.816   2.784
47641W        W 7078   1.384  43.953   4.645
47642W        W 7079   0.784   4.446   4.161
47643W        W 7080   2.240  25.212   0.383
47644W        W 7081  44.486  33.560   4.146
47645W        W 7082  36.559  34.106   0.873
47646W        W 7083  30.099  10.159   3.321
47647W        W 7084  15.595   1.322   4.639
47648W        W 7085  25.630  21.615  11.095
47649W        W 7086  15.199  26.580  14.800
47650W        W 7087   0.326  28.559  12.525
47651W        W 7088   7.901  41.936  11.089
47652W        W 7089  42.792  34.521   0.791
47653W        W 7090  27.081   8.263   4.310
47654W        W 7091   1.907  17.600  11.459
47655W        W 7092  41.505  32.986  10.939
47656W        W 7093  28.159   5.273   3.206
47657W        W 7094   2.384  15.736  11.507
47658W        W 7095   3.949  26.456   3.154
47659W        W 7096  18.266  24.484  14.481
47660W        W 7097  39.939   9.271   2.298
47661W        W 7098  23.126  39.317  14.834
47662W        W 7099  14.273  19.579  12.472
47663W        W 7100   4.438  19.164   3.812
47664W        W 7101  29.057  13.787   1.719
47665W        W 7102   4.774  30.584  11.100
47666W        W 7103  25.596  31.939   9.926
47667W        W 7104  43.920  36.860   1.739
47668W        W 7105  12.231  36.535   4.278
47669W        W 7106  27.649  35.951  12.461
47670W        W 7107  23.154   5.372  13.837
47671W        W 7108  12.308  16.240  10.954
47672W        W 7109  41.436   0.765  14.855
47673W        W 7110  41.947  32.010   1.755
47674W        W 7111  41.322  27.121   4.687
47675W        W 7112   3.948  11.832   1.330
47676W        W 7113   2.444  31.104   2.412
47677W        W 7114   1.942  37.357  10.993
47678W        W 7115  40.818  39.933  13.377
47679W        W 7116  37.364  23.620   1.824
47680W        W 7117  13.258  27.578   4.250
47681W        W 7118  18.564  30.952  10.601
47682W        W 7119  26.687   7.271  14.959
47683W        W 7120  44.366   2.396   4.787
47684W        W 7121  29.010   3.257  13.508
47685W        W 7122  37.859   3.813   0.296
47686W        W 7123   8.743  27.560  13.896
47687W        W 7124   4.226   2.393  14.006
47688W        W 7125  14.324  31.124   4.297
47689W        W 7126  44.374   6.774   0.882
47690W        W 7127  10.353   3.412  13.416
47691W        W 7128  21.226   7.832   3.253
47692W        W 7129  12.213  27.468   1.932
47693W        W 7130  20.236  25.505  14.326
47694W        W 7131  26.511  36.372   1.439
47695W        W 7132  15.315  27.691   4.331
47696W        W 7133  29.506   2.231  14.844
47697W        W 7134  34.599  40.445  14.475
47698W        W 7135  21.159   1.475  14.837
47699W        W 7136   9.658  17.757  11.107
47700W        W 7137  19.735  40.895   2.381
47701W        W 7138  17.591  38.862  14.792
47702W        W 7139  16.570  38.540  12.372
47703W        W 7140  44.764  20.623  10.406
47704W        W 7141  38.987  12.156   3.654
47705W        W 7142  41.966  44.266   1.764
47706W        W 7143  22.150   9.716  11.066
47707W        W 7144   4.892  31.638  13.359
47708W        W 7145   7.814  21.753   4.724
47709W        W 7146  37.365  10.730   1.311
47710W        W 7147  15.729   0.370   4.682
47711W        W 7148  27.580   4.318  11.114
47712W        W 7149  30.147  23.659  13.493
47713W        W 7150  32.391   3.927   3.675
47714W        W 7151   8.736   1.469  11.448
47715W        W 7152  34.488  10.304  11.075
47716W        W 7153   8.819  37.046  10.513
47717W        W 7154  32.581  14.147   0.469
47718W        W 7155  18.672  36.907  13.421
47719W        W 7156  30.596  26.586  12.874
47720W        W 7157  24.714  44.272  10.973
47721W        W 7158   3.391  29.618  14.903
47722W        W 7159  33.127  27.197  10.894
47723W        W 7160  27.543  41.825  14.933
47724W        W 7161  39.052  26.633  13.330
47725W        W 7162  44.807  12.809  11.428
47726W        W 7163   5.271  14.719   5.319
47727W        W 7164  25.055  33.460  14.512
47728W        W 7165   2.768  19.681  14.460
47729W        W 7166   0.982  14.296  12.573
47730W        W 7167  13.149   3.412  11.927
47731W        W 7168  18.764   6.240  10.541
47732W        W 7169   5.715  11.257  14.450
47733W        W 7170  37.894  26.036  12.992
47734W        W 7171  33.096  36.591  14.403
47735W        W 7172  16.089   2.961   4.610
47736W        W 7173  27.624  21.748  14.310
47737W        W 7174  39.537  30.505   4.280
47738W        W 7175   9.878  29.967  10.528
47739W        W 7176  35.377  14.701  13.826
47740W        W 7177  41.935  44.898   2.795
47741W        W 7178  43.349   0.939  14.353
47742W        W 7179  24.072  24.559   0.430
47743W        W 7180  10.209  26.539   2.892
47744W        W 7181  14.135  41.878   4.318
47745W        W 7182  42.348   7.830  10.493
47746W        W 7183   0.310  26.609  13.808
47747W        W 7184  37.353  29.995  14.929
47748W        W 7185   1.786  11.257  10.435
47749W        W 7186  38.031  19.269   0.289
47750W        W 7187  14.725  34.954   0.735
47751W        W 7188  42.430  39.812   4.182
47752W        W 7189  15.577  31.985  10.448
47753W        W 7190  27.115  29.634   2.248
47754W        W 7191  44.937   3.234   0.832
47755W        W 7192  16.180  23.081  13.307
47756W        W 7193  13.786   3.239  11.074
47757W        W 7194   1.355  33.504  10.985
47758W        W 7195  12.824   9.312  14.443
47759W        W 7196  39.384  16.181   0.338
47760W        W 7197  13.190  23.136   2.738
47761W        W 7198   3.949   7.179  14.281
47762W        W 7199  14.694  32.408  10.541
47763W        W 7200   2.907   0.440   0.466
47764W        W 7201  26.112  17.270  14.287
47765W        W 7202  37.917  28.437   4.822
47766W        W 7203  33.900  24.651   4.209
47767W        W 7204   5.796  34.963  12.973
47768W        W 7205  20.620  10.662   2.808
47769W        W 7206  41.466  22.048  10.450
47770W        W 7207  10.352  10.823  13.528
47771W        W 7208  29.610  35.898   1.713
47772W        W 7209  20.523  28.947   1.694
47773W        W 7210   9.266  30.914  12.493
47774W        W 7211  43.279  32.460   2.197
47775W        W 7212  12.163  16.674   1.307
47776W        W 7213   9.325  14.698  13.901
47777W        W 7214  38.438  41.336  11.910
47778W        W 7215  23.678  33.894   4.807
47779W        W 7216   3.224  26.048   5.256
47780W        W 7217  11.835  23.014   1.727
47781W        W 7218  32.922  35.367  13.924
47782W        W 7219  19.736  15.179   2.695
47783W        W 7220  26.961  13.724   3.357
47784W        W 7221  19.674  25.701  13.940
47785W        W 7222   5.843  33.597   0.250
47786W        W 7223   9.745  23.708  13.529
47787W        W 7224   3.892  40.896   1.725
47788W        W 7225  13.652  18.173   3.660
47789W        W 7226   3.229   2.906   3.209
47790W        W 7227  24.056  33.998   1.772
47791W        W 7228  14.159  23.692  14.790
47792W        W 7229   8.164   2.805   1.856
47793W        W 7230  21.112  10.847   4.287
47794W        W 7231  12.336  25.215   1.801
47795W        W 7232   5.308  12.647   3.701
47796W        W 7233  44.919  33.553   5.583
47797W        W 7234  29.007   6.309  12.907
47798W        W 7235  29.151  16.692   4.135
47799W        W 7236  28.964  22.534   1.713
47800W        W 7237  39.547  34.952  11.951
47801W        W 7238  24.588  18.069  14.032
47802W        W 7239  29.961   2.764  11.461
47803W        W 7240  19.581  23.642   3.271
47804W        W 7241   1.862  34.114  13.991
47805W        W 7242  33.100  35.514  12.570
47806W        W 7243  14.232  16.261  13.319
47807W        W 7244  36.481  11.267   4.318
47808W        W 7245  12.125  19.234   2.329
47809W        W 7246  42.454  24.507  14.779
47810W        W 7247  38.868  25.013   4.124
47811W        W 7248  19.191   8.186   2.726
47812W        W 7249   3.807  41.346   5.275
47813W        W 7250  40.356  33.976  13.377
47814W        W 7251  18.648  16.302   0.883
47815W        W 7252  35.084   6.212   3.856
47816W        W 7253   1.295  15.660  10.624
47817W        W 7254  27.494  26.980  11.105
47818W        W 7255  24.524  41.018  10.943
47819W        W 7256   6.235  32.004   1.272
47820W        W 7257   8.775  26.971   9.675
47821W        W 7258  13.341  11.188  14.340
47822W        W 7259  41.794  32.419   4.751
47823W        W 7260  39.954  43.020  14.462
47824W        W 7261  28.613  32.574   3.656
47825W        W 7262  21.728  32.043   2.277
47826W        W 7263  15.604  15.329   1.702
47827W        W 7264  12.314  18.057  11.592
47828W        W 7265  23.213   9.223  10.004
47829W        W 7266   5.282  37.412  11.458
47830W        W 7267   7.798  43.789   2.209
47831W        W 7268  15.171  24.187  10.937
47832W        W 7269  10.726   2.749   2.824
47833W        W 7270   7.170  28.159  11.993
47834W        W 7271  24.716  35.526   5.639
47835W        W 7272  18.087  39.036  12.356
47836W        W 7273   1.250  34.438   4.153
47837W        W 7274  18.599  32.405  12.560
47838W        W 7275  31.960   2.826   3.334
47839W        W 7276  41.490  19.626   1.739
47840W        W 7277  21.620  33.942   3.275
47841W        W 7278  22.034  37.412  12.461
47842W        W 7279  27.518   9.838  13.422
47843W        W 7280   3.248  33.606   5.173
47844W        W 7281  20.151  12.658   1.412
47845W        W 7282  12.289  13.617  14.949
47846W        W 7283   5.398  30.149  14.816
47847W        W 7284  44.381   1.764   3.214
47848W        W 7285  15.686  16.291  11.575
47849W        W 7286  23.099  12.157   2.712
47850W        W 7287  25.220  17.161  12.860
47851W        W 7288  35.086  38.528   0.848
47852W        W 7289  26.642  35.994  11.086
47853W        W 7290   2.379  26.071   0.802
47854W        W 7291   2.347  25.714   0.394
47855W        W 7292  43.018  22.691  14.991
47856W        W 7293  14.632  18.164   5.159
47857W        W 7294  40.016  12.218   0.908
47858W        W 7295  11.348  19.087  12.000
47859W        W 7296   3.806  37.968   1.249
47860W        W 7297   9.751  10.255   4.783
47861W        W 7298   2.280  26.666   2.690
47862W        W 7299  26.478  32.101  11.099
47863W        W 7300  41.808  32.557   3.241
47864W        W 7301   0.434  33.556  14.327
47865W        W 7302  34.931  12.673  11.997
47866W        W 7303  26.171  42.860   3.190
47867W        W 7304   0.778   0.441   1.730
47868W        W 7305  14.683   2.727  11.915
47869W        W 7306  27.488  36.476   4.720
47870W        W 7307   1.930  31.432  11.878
47871W        W 7308  44.381  18.082   1.788
47872W        W 7309  23.541  10.274  10.103
47873W        W 7310  18.565  26.679   1.273
47874W        W 7311  18.633  29.534  11.106
47875W        W 7312  11.644  44.296   2.260
47876W        W 7313  35.391  38.488   3.652
47877W        W 7314  34.592  36.973  10.574
47878W        W 7315   2.286  16.748   1.382
47879W        W 7316  20.053  31.571   4.328
47880W        W 7317  24.215  33.395   2.240
47881W        W 7318   3.744  35.092   4.708
47882W        W 7319  34.023  43.896  11.450
47883W        W 7320  31.518   7.237  14.890
47884W        W 7321  25.167  20.047   1.288
47885W        W 7322  13.200  37.070   3.303
47886W        W 7323  12.768  27.457  14.814
47887W        W 7324   5.823  11.166  10.520
47888W        W 7325  13.840  18.255   2.212
47889W        W 7326  11.752  33.497   3.196
47890W        W 7327   7.334   9.306  12.535
47891W        W 7328  18.172  12.149   0.867
47892W        W 7329   8.399   9.313  11.023
47893W        W 7330  31.947   4.400   1.253
47894W        W 7331   1.897   4.218  12.927
47895W        W 7332  17.295  26.562   5.260
47896W        W 7333  40.821   8.341  13.423
47897W        W 7334  14.824  26.052  14.830
47898W        W 7335  18.732  37.966   3.870
47899W        W 7336  33.904   7.371  12.026
47900W        W 7337  23.070   6.811   0.381
47901W        W 7338  38.975  21.247   4.232
47902W        W 7339  17.785  29.547  11.083
47903W        W 7340  33.509  29.173  13.892
47904W        W 7341  16.627  31.120   3.857
47905W        W 7342  14.826  27.178   3.663
47906W        W 7343  16.783  19.760   0.423
47907W        W 7344  26.601  23.523  12.402
47908W        W 7345   5.721  24.986  14.434
47909W        W 7346  14.121  41.846  14.897
47910W        W 7347  30.616  20.222   2.194
47911W        W 7348  27.121  44.323  14.887
47912W        W 7349   1.829  25.160   4.658
47913W        W 7350  20.678  39.487   3.722
47914W        W 7351  24.569  11.215   0.478
47915W        W 7352  37.400  41.808  11.922
47916W        W 7353  26.031   7.190   2.343
47917W        W 7354   4.302  41.807  11.987
47918W        W 7355  39.909  31.914   1.778
47919W        W 7356   3.849  20.144  14.933
47920W        W 7357   4.783   1.767   3.811
47921W        W 7358  39.444  13.685   4.714
47922W        W 7359   4.814  41.788  13.459
47923W        W 7360  33.558  41.401  11.907
47924W        W 7361   4.797  11.311  10.579
47925W        W 7362  18.172  44.273  14.899
47926W        W 7363  28.045  10.192   1.915
47927W        W 7364  14.199  22.249   3.800
47928W        W 7365  24.109  38.914   0.767
47929W        W 7366  22.695  22.200   2.666
47930W        W 7367  28.523   1.760   2.300
47931W        W 7368  20.631  21.674  14.894
47932W        W 7369   4.404  13.840   5.134
47933W        W 7370  14.604  36.040  12.918
47934W        W 7371  24.110   8.198   3.211
47935W        W 7372  24.036  28.977   1.396
47936W        W 7373  25.008  36.413  12.865
47937W        W 7374  11.281  43.309  11.925
47938W        W 7375   7.805  37.580  12.387
47939W        W 7376  35.937  40.472   3.835
47940W        W 7377  37.544  43.993  11.606
47941W        W 7378  20.701  18.178   4.337
47942W        W 7379   7.278  41.842  12.961
47943W        W 7380  25.643   8.321   4.621
47944W        W 7381  38.907   7.401  13.907
47945W        W 7382  21.229  30.474   1.852
47946W        W 7383   6.318  37.557   0.946
47947W        W 7384  33.522  41.341  10.927
47948W        W 7385  39.493  33.950  13.802
47949W        W 7386   0.882  14.686  10.980
47950W        W 7387  38.970  17.102   1.905
47951W        W 7388  10.345  18.695  13.528
47952W        W 7389  15.599  29.650   3.298
47953W        W 7390  31.041  19.569   3.707
47954W        W 7391  28.992  24.227  13.434
47955W        W 7392   4.354   0.871   2.190
47956W        W 7393   8.200  43.410   1.863
47957W        W 7394  16.133   9.871   0.339
47958W        W 7395  39.480   9.874   3.203
47959W        W 7396  17.079  24.182  10.980
47960W        W 7397  27.165  10.362  10.419
47961W        W 7398  21.547  26.639   3.172
47962W        W 7399   5.238  11.697   1.431
47963W        W 7400   8.166  32.477  13.472
47964W        W 7401  37.341  11.180  11.566
47965W        W 7402  31.613  41.388  13.999
47966W        W 7403  42.005  12.790  13.864
47967W        W 7404  13.158   5.841  12.406
47968W        W 7405   6.831  24.580  14.030
47969W        W 7406  17.727  35.077   3.246
47970W        W 7407  13.192   1.385   1.269
47971W        W 7408  31.906  39.962   1.892
47972W        W 7409   3.913  33.073   3.221
47973W        W 7410  23.087  24.493  11.927
47974W        W 7411  26.531  18.296   0.766
47975W        W 7412  36.521  42.333  11.417
47976W        W 7413  30.150  20.053   1.434
47977W        W 7414   7.192   8.390  11.600
47978W        W 7415  29.089  23.616   2.810
47979W        W 7416  36.528  23.680  11.927
47980W        W 7417  18.611  10.199   3.275
47981W        W 7418  37.927   2.729  11.425
47982W        W 7419  19.754  38.523   0.464
47983W        W 7420  31.474  11.731   0.428
47984W        W 7421  20.526   4.825  13.951
47985W        W 7422  15.743   8.383  10.991
47986W        W 7423  17.661  22.180  12.985
47987W        W 7424  36.027  34.944   2.251
47988W        W 7425  33.953  23.103  10.490
47989W        W 7426  30.040  21.529   4.604
47990W        W 7427  24.698  44.279   3.255
47991W        W 7428  16.119  25.657   1.340
47992W        W 7429  33.943   4.365   2.257
47993W        W 7430  34.945  42.952   0.295
47994W        W 7431  33.997  27.558   0.313
47995W        W 7432  28.678  43.803   1.401
47996W        W 7433  18.691  22.695   1.372
47997W        W 7434   0.317  39.832   9.920
47998W        W 7435  19.121  42.897  14.362
47999W        W 7436  44.906  27.484   3.250
48000W        W 7437  41.473  15.181   3.330
48001W        W 7438  14.130  40.358   3.809
48002W        W 7439  25.965  19.615   4.227
48003W        W 7440  23.989   3.892   2.745
48004W        W 7441  28.472  20.680  13.952
48005W        W 7442  19.681   0.935   3.277
48006W        W 7443   1.885  38.008  10.591
48007W        W 7444  34.424  30.507   4.672
48008W        W 7445   0.788  42.984   4.604
48009W        W 7446  14.824  36.564  10.497
48010W        W 7447  24.538  29.423  12.072
48011W        W 7448  27.960  31.926  14.491
48012W        W 7449  26.141  13.730   0.392
48013W        W 7450  32.049  37.974  12.508
48014W        W 7451  13.671   4.806  13.336
48015W        W 7452   5.192  44.419   2.197
48016W        W 7453  32.599  19.639  13.857
48017W        W 7454   6.218  32.556   4.337
48018W        W 7455   4.803  21.735  13.963
48019W        W 7456  42.989  42.367   0.417
48020W        W 7457  10.308  31.602  10.942
48021W        W 7458  44.392  19.183  12.930
48022W        W 7459  20.156  10.364   3.349
48023W        W 7460   9.150  26.054  11.383
48024W        W 7461  28.448   3.732  11.571
48025W        W 7462  40.534  26.113  10.951
48026W        W 7463  24.075  39.912  14.918
48027W        W 7464   2.347  33.556  10.475
48028W        W 7465  42.030  20.616   3.279
48029W        W 7466  43.930  21.203  13.393
48030W        W 7467  34.897  42.922   2.748
48031W        W 7468   9.319   7.904   4.259
48032W        W 7469  36.371  18.198  11.560
48033W        W 7470  31.478   0.386   0.794
48034W        W 7471   6.787   7.345  13.810
48035W        W 7472   8.880  10.195  11.036
48036W        W 7473  44.853  41.856  11.390
48037W        W 7474  42.883  39.376   1.344
48038W        W 7475   8.372  17.072   0.322
48039W        W 7476  15.120   6.875   4.204
48040W        W 7477  23.646  11.203  14.979
48041W        W 7478  43.322  34.401  13.335
48042W        W 7479  22.678  21.189  14.980
48043W        W 7480  31.074  11.350   0.253
48044W        W 7481  22.221  31.060   4.290
48045W        W 7482  32.972  32.944  11.448
48046W        W 7483  38.032  27.525  10.576
48047W        W 7484   1.736  42.464   0.386
48048W        W 7485  41.787  31.094  12.507
48049W        W 7486  15.182  13.326   4.667
48050W        W 7487   8.230   8.368  13.485
48051W        W 7488  39.855  43.913   0.459
48052W        W 7489   2.750  12.283   1.321
48053W        W 7490  26.530  19.225   3.679
48054W        W 7491  31.898  18.293  14.436
48055W        W 7492  34.930  28.168  14.874
48056W        W 7493   7.224  43.894  14.845
48057W        W 7494  21.513   4.709  11.530
48058W        W 7495  33.522  12.359  10.422
48059W        W 7496   6.388   4.315   2.195
48060W        W 7497  24.633  34.380  14.788
48061W        W 7498  17.678  44.838  12.392
48062W        W 7499  25.996   0.801  11.483
48063W        W 7500  41.014  24.703   3.750
48064W        W 7501  12.703   5.305   0.473
48065W        W 7502   6.844   1.869  11.109
48066W        W 7503  39.340   2.253   1.292
48067W        W 7504  35.950  35.093  11.448
48068W        W 7505  20.077  30.576  11.436
48069W        W 7506  30.008  17.293   0.294
48070W        W 7507  39.345  30.456   2.843
48071W        W 7508  17.210  40.521  13.958
48072W        W 7509  42.800  38.466   2.663
48073W        W 7510  28.616   6.241   2.416
48074W        W 7511   3.789  27.993  13.353
48075W        W 7512   9.306  30.490  13.337
48076W        W 7513   4.438  16.272  13.521
48077W        W 7514  22.513  13.696   4.266
48078W        W 7515   4.859  37.567   1.274
48079W        W 7516  37.998  19.262   3.284
48080W        W 7517  42.344   4.931   1.779
48081W        W 7518   2.229  26.601  11.043
48082W        W 7519  24.597   9.176   4.261
48083W        W 7520   6.685  17.713   3.722
48084W        W 7521  31.470  24.200   3.232
48085W        W 7522  14.178  16.112   2.341
48086W        W 7523  38.008  29.649   4.190
48087W        W 7524   6.897  32.460   3.760
48088W        W 7525  43.925   1.752   4.203
48089W        W 7526  27.085   6.901  14.905
48090W        W 7527  18.614  21.570   4.155
48091W        W 7528  27.121  41.391   3.848
48092W        W 7529  37.371   0.474   4.683
48093W        W 7530  22.101   9.872   4.140
48094W        W 7531   5.814  35.076  12.086
48095W        W 7532  16.285  44.386  12.560
48096W        W 7533  14.781  20.554  14.485
48097W        W 7534  41.456  24.222   2.875
48098W        W 7535  34.495  30.654   2.775
48099W        W 7536  37.953  30.912   4.822
48100W        W 7537  43.285  23.534  13.946
48101W        W 7538  38.442  14.120  12.058
48102W        W 7539  37.891  37.552   1.313
48103W        W 7540  23.225  28.582  11.962
48104W        W 7541  16.712   1.735  11.040
48105W        W 7542  19.076  12.305  14.446
48106W        W 7543   6.778  43.001   0.477
48107W        W 7544  32.456   4.930   1.721
48108W        W 7545  13.109   2.769   2.692
48109W        W 7546  13.123  11.821  11.860
48110W        W 7547  24.538  41.353   4.331
48111W        W 7548  17.573  11.299   2.257
48112W        W 7549  29.627  10.260  14.402
48113W        W 7550  21.688   6.819   2.316
48114W        W 7551  41.329  32.613   3.270
48115W        W 7552  18.620  16.590  14.349
48116W        W 7553   9.204  29.163   2.763
48117W        W 7554   4.346  39.517   4.214
48118W        W 7555  34.030   8.198  13.471
48119W        W 7556  33.067  30.475   4.833
48120W        W 7557  35.387   8.263  14.457
48121W        W 7558  13.127  44.845  13.487
48122W        W 7559   9.754  40.399  10.964
48123W        W 7560   6.726  33.391   0.949
48124W        W 7561  18.100  21.190   1.258
48125W        W 7562   5.208  22.216   3.661
48126W        W 7563  39.890  36.995  12.082
48127W        W 7564  40.344  43.947  14.775
48128W        W 7565  43.906  35.061  10.422
48129W        W 7566  27.504  41.922   1.267
48130W        W 7567   8.767   2.270   2.255
48131W        W 7568  14.283  32.140   4.642
48132W        W 7569  14.270   1.749  12.848
48133W        W 7570  41.534  21.148  14.996
48134W        W 7571  31.606   8.780  14.302
48135W        W 7572  27.597   4.739  11.107
48136W        W 7573  18.623  35.022  11.601
48137W        W 7574  17.069   1.821   9.983
48138W        W 7575  34.579  25.624  14.378
48139W        W 7576  20.746  14.258   0.763
48140W        W 7577  26.207  38.072  12.053
48141W        W 7578   0.323  41.413  14.821
48142W        W 7579  34.114  23.520  12.536
48143W        W 7580  39.976   1.282   0.846
48144W        W 7581  38.420  24.986  10.588
48145W        W 7582  28.027  34.041   0.386
48146W        W 7583   9.785   9.381   1.766
48147W        W 7584  38.423  32.055  14.906
48148W        W 7585   9.239   1.734   5.273
48149W        W 7586  11.724  18.561  12.558
48150W        W 7587  10.160  43.963   1.327
48151W        W 7588  44.854  42.869   2.848
48152W        W 7589  24.230  27.566  12.991
48153W        W 7590   8.171  12.184   0.877
48154W        W 7591   8.375  36.358   1.225
48155W        W 7592  39.516  15.180   3.793
48156W        W 7593  31.125  17.579   0.816
48157W        W 7594   4.833  36.346  12.072
48158W        W 7595   8.722  27.132   5.666
48159W        W 7596   5.231  16.624   2.307
48160W        W 7597  36.031  25.570  10.432
48161W        W 7598  34.990  13.216  13.859
48162W        W 7599  26.538  39.409  14.373
48163W        W 7600  38.871  26.636  10.619
48164W        W 7601   4.231  13.809   2.318
48165W        W 7602  41.449  36.578   9.519
48166W        W 7603   9.775   8.313  13.443
48167W        W 7604  12.738  24.511  12.030
48168W        W 7605  40.815  36.425   2.214
48169W        W 7606  23.561  43.992   1.316
48170W        W 7607  35.421   5.775  14.012
48171W        W 7608  30.927  23.999  13.857
48172W        W 7609  43.014   1.245  13.496
48173W        W 7610  17.787  35.892  10.934
48174W        W 7611  15.090  15.786  11.982
48175W        W 7612  20.041   2.408  12.352
48176W        W 7613  21.525   5.413  10.924
48177W        W 7614  23.097   9.793  13.455
48178W        W 7615  14.706  11.357  10.479
48179W        W 7616   4.882  42.835  13.368
48180W        W 7617  22.113  22.707   2.708
48181W        W 7618  17.189  27.183   4.833
48182W        W 7619  35.361  42.846  13.345
48183W        W 7620  25.675  15.706   0.818
48184W        W 7621  22.160  38.992   1.782
48185W        W 7622  19.267  35.961   4.262
48186W        W 7623  30.157  15.248   3.350
48187W        W 7624   7.392  14.247  12.355
48188W        W 7625  15.231   3.445   2.733
48189W        W 7626  16.689  42.360  13.817
48190W        W 7627  31.640   4.417  11.483
48191W        W 7628   0.413   4.279  10.504
48192W        W 7629   3.740  27.948   0.809
48193W        W 7630   6.191  40.451   4.819
48194W        W 7631  36.852  30.114   0.319
48195W        W 7632  39.994  34.542  12.960
48196W        W 7633  43.369  21.541   2.762
48197W        W 7634  43.828   6.348   1.352
48198W        W 7635  11.773   5.230  14.288
48199W        W 7636  11.347  19.191  11.389
48200W        W 7637  41.868   2.271   1.792
48201W        W 7638  33.966  16.721  12.575
48202W        W 7639   7.354  40.313  14.884
48203W        W 7640   5.707  40.881   4.611
48204W        W 7641  15.318  35.576   0.899
48205W        W 7642  44.861  41.031   0.379
48206W        W 7643   7.812   3.860  14.494
48207W        W 7644  43.786  35.052   4.697
48208W        W 7645  40.033   4.808   4.218
48209W        W 7646  36.350  14.239  10.505
48210W        W 7647  19.196  30.602  13.425
48211W        W 7648  22.178  35.886  13.005
48212W        W 7649  19.113   1.342   4.797
48213W        W 7650   3.346  41.924  11.392
48214W        W 7651  16.739   7.837   3.349
48215W        W 7652  17.240   5.851   4.813
48216W        W 7653   6.753   8.362  10.538
48217W        W 7654  37.518   5.818   2.260
48218W        W 7655  13.636  26.006   0.414
48219W        W 7656  21.232   5.329  12.042
48220W        W 7657   0.455  22.559  12.452
48221W        W 7658   6.775  17.715   4.166
48222W        W 7659  23.070  18.187   4.239
48223W        W 7660  29.111  15.657  13.901
48224W        W 7661  30.550  22.704  11.100
48225W        W 7662  11.156  25.592   0.394
48226W        W 7663   9.317  40.380   4.329
48227W        W 7664  20.105  33.577  13.380
48228W        W 7665   9.152  11.241  13.930
48229W        W 7666  33.605   4.759  13.356
48230W        W 7667  41.451  31.898  11.880
48231W        W 7668   2.293  34.453   2.232
48232W        W 7669  16.247  10.786   2.831
48233W        W 7670  22.197  29.176  11.552
48234W        W 7671  30.021  12.845   2.828
48235W        W 7672  43.841  29.924  12.065
48236W        W 7673  37.056   0.279   4.313
48237W        W 7674   4.773   9.362   0.263
48238W        W 7675   3.343   6.401   5.127
48239W        W 7676  39.451  40.893  11.977
48240W        W 7677  28.041  20.677   1.713
48241W        W 7678   8.714  16.732   2.902
48242W        W 7679  17.153  24.517  13.918
48243W        W 7680  32.954  41.894  11.461
48244W        W 7681   1.879  11.168  13.528
48245W        W 7682  24.063  11.745  12.949
48246W        W 7683  43.429  11.222  12.412
48247W        W 7684   3.814  26.687   2.283
48248W        W 7685  43.312  31.579   3.805
48249W        W 7686  29.559  19.671   4.336
48250W        W 7687  33.405  37.997   2.732
48251W        W 7688  34.067   9.824  13.864
48252W        W 7689  37.934  17.098   3.860
48253W        W 7690  18.669  36.511   3.303
48254W        W 7691  39.559  44.322   4.607
48255W        W 7692  11.635  11.205  10.429
48256W        W 7693  39.446  18.057  12.972
48257W        W 7694  35.358  34.022  12.046
48258W        W 7695  34.110  15.306  13.938
48259W        W 7696  32.627  15.189   0.811
48260W        W 7697  38.906  27.020   3.341
48261W        W 7698  13.326  28.677   2.780
48262W        W 7699  17.693  32.591   4.617
48263W        W 7700  25.646  20.706   2.325
48264W        W 7701  43.324   9.734   1.398
48265W        W 7702  27.196  36.943  11.419
48266W        W 7703  31.994  37.943  13.810
48267W        W 7704  20.687  11.849  10.980
48268W        W 7705  39.945  35.536   4.140
48269W        W 7706   6.355  44.982  12.357
48270W        W 7707  30.130  26.591  12.520
48271W        W 7708  15.619  35.946  13.989
48272W        W 7709  24.701   3.784   1.822
48273W        W 7710   7.403  20.067   4.775
48274W        W 7711   5.720  29.085  14.939
48275W        W 7712  12.845  19.779   2.861
48276W        W 7713  23.168  35.918   4.687
48277W        W 7714  22.154   8.696   0.403
48278W        W 7715  11.152   9.240  12.955
48279W        W 7716  39.980  21.159   4.716
48280W        W 7717  41.997   9.729   1.754
48281W        W 7718  21.715  13.308  11.518
48282W        W 7719  20.250  21.741   2.363
48283W        W 7720  13.132  44.974   3.629
48284W        W 7721   9.302  24.071  14.473
48285W        W 7722  40.027  38.358   2.406
48286W        W 7723  15.262  37.546  13.977
48287W        W 7724   9.771   1.404   0.839
48288W        W 7725  43.293   7.854  11.919
48289W        W 7726  32.079  41.856  11.002
48290W        W 7727   4.810  13.771   3.806
48291W        W 7728  19.764  37.062   0.922
48292W        W 7729  10.653  38.464   2.774
48293W        W 7730  40.961  11.360   2.822
48294W        W 7731  29.060  10.659   2.721
48295W        W 7732  43.401  12.129   0.748
48296W        W 7733  42.029  36.578   9.459
48297W        W 7734  34.603  26.957  12.573
48298W        W 7735  42.522  40.025   1.441
48299W        W 7736  30.458  17.289   0.250
48300W        W 7737  17.230  18.194   3.276
48301W        W 7738   0.308   8.224   2.725
48302W        W 7739  41.913   5.335  11.954
48303W        W 7740  10.146  28.949  14.839
48304W        W 7741  36.352  40.372   1.844
48305W        W 7742  23.559  11.812   0.252
48306W        W 7743   2.350  19.708   2.394
48307W        W 7744  35.546  28.097   1.212
48308W        W 7745  34.459  14.803  10.612
48309W        W 7746  24.651  44.393   1.284
48310W        W 7747   5.378  17.107  14.493
48311W        W 7748  38.027  44.420   4.725
48312W        W 7749  44.278   3.862   2.876
48313W        W 7750  39.003   7.260   3.817
48314W        W 7751   3.753  34.989   0.966
48315W        W 7752  44.499  27.469   4.664
48316W        W 7753  25.041  43.476   4.692
48317W        W 7754  31.134  20.072   2.811
48318W        W 7755  28.952   8.855   5.173
48319W        W 7756  18.273  41.449   0.945
48320W        W 7757  11.174   4.924  13.519
48321W        W 7758  16.760  18.745  14.020
48322W        W 7759   5.857  15.146   2.294
48323W        W 7760  33.939  30.601  13.499
48324W        W 7761  18.129  36.959  11.090
48325W        W 7762   4.925  17.746   0.903
48326W        W 7763  27.999  10.808  12.913
48327W        W 7764  26.594  32.985   1.435
48328W        W 7765  32.984  25.698   1.761
48329W        W 7766  33.931  38.478   2.772
48330W        W 7767  18.671  11.817  10.503
48331W        W 7768  43.843  40.842  14.487
48332W        W 7769  27.137  18.697   2.716
48333W        W 7770  21.620  28.951  10.985
48334W        W 7771  37.020  41.887   2.837
48335W        W 7772   9.696  36.592   1.220
48336W        W 7773  27.115   7.201  10.500
48337W        W 7774   7.799  41.828   1.313
48338W        W 7775  20.249   4.739  12.446
48339W        W 7776  36.079  43.381  11.603
48340W        W 7777   9.860  17.138  10.580
48341W        W 7778  34.516  31.125   4.205
48342W        W 7779   4.252   3.793   3.319
48343W        W 7780  43.875  11.713  10.945
48344W        W 7781  33.505   5.197  12.516
48345W        W 7782  16.250  26.955   1.329
48346W        W 7783  31.506  40.819  14.028
48347W        W 7784  41.487  44.814  10.932
48348W        W 7785  34.612  16.183   4.836
48349W        W 7786  31.094  22.012  14.903
48350W        W 7787  28.496   7.213  11.588
48351W        W 7788  23.182  16.666   1.439
48352W        W 7789   7.863  20.138  14.301
48353W        W 7790  12.138   6.357  11.122
48354W        W 7791  10.877  27.649  13.529
48355W        W 7792  39.861  29.082  10.495
48356W        W 7793  24.065   8.811  14.810
48357W        W 7794   8.873  33.525   4.228
48358W        W 7795  13.153   3.345   4.279
48359W        W 7796  31.425   6.413  14.849
48360W        W 7797   8.748   1.940  12.832
48361W        W 7798  41.349   7.898   0.297
48362W        W 7799   7.391  21.653  12.972
48363W        W 7800  19.111   8.404  12.525
48364W        W 7801   8.306  37.468  10.561
48365W        W 7802  36.378  21.116  11.014
48366W        W 7803   7.417   3.397   0.297
48367W        W 7804  32.985  40.532   2.783
48368W        W 7805  17.676  28.630  12.415
48369W        W 7806  11.778  17.734  10.596
48370W        W 7807  30.640   5.311   0.475
48371W        W 7808  18.559   2.468   3.366
48372W        W 7809  42.448  34.395  12.987
48373W        W 7810  42.290  16.117  12.956
48374W        W 7811   6.365   8.284   3.361
48375W        W 7812  11.657  37.084  13.031
48376W        W 7813  10.236  39.510   0.844
48377W        W 7814  20.720  22.998   0.433
48378W        W 7815  10.634  39.420  13.945
48379W        W 7816  10.761  35.855   3.856
48380W        W 7817  27.959   0.788  14.030
48381W        W 7818  35.361  43.462  11.389
48382W        W 7819  25.534  10.695   3.651
48383W        W 7820  26.096  25.158  12.063
48384W        W 7821  18.223   6.742   1.927
48385W        W 7822   7.821   6.187  11.102
48386W        W 7823   1.976  22.181  14.796
48387W        W 7824  35.393  34.577   0.263
48388W        W 7825  14.258  19.775  13.834
48389W        W 7826  11.319   3.789   2.383
48390W        W 7827   9.670  30.474  13.982
48391W        W 7828  34.489   2.866  11.977
48392W        W 7829   5.292  30.469   3.868
48393W        W 7830  28.460  28.117   0.435
48394W        W 7831  44.768  12.302   0.874
48395W        W 7832  26.968  11.721  13.493
48396W        W 7833  17.693   0.269   0.808
48397W        W 7834  33.000   2.294   4.224
48398W        W 7835  38.956  20.702  14.401
48399W        W 7836  18.147   3.237  11.438
48400W        W 7837  14.163  29.147  14.297
48401W        W 7838  31.416  27.550  13.367
48402W        W 7839  16.266  22.109   0.326
48403W        W 7840   1.439  30.919  11.995
48404W        W 7841  31.460   4.797  14.763
48405W        W 7842   2.942  25.156  14.436
48406W        W 7843  23.724   8.868  12.502
48407W        W 7844  31.497  14.802  12.492
48408W        W 7845  22.638   4.331   2.232
48409W        W 7846  31.045  14.104  12.833
48410W        W 7847  12.157   9.754  13.028
48411W        W 7848  39.043  25.561   3.369
48412W        W 7849   7.792   1.264  11.522
48413W        W 7850   7.686  41.000  10.505
48414W        W 7851   7.180  42.789  13.475
48415W        W 7852   5.768  40.044  12.972
48416W        W 7853  10.144  16.194  13.028
48417W        W 7854  40.933   4.434   4.294
48418W        W 7855  19.279  12.189   1.785
48419W        W 7856   0.921  40.021  10.496
48420W        W 7857  12.356   3.413   1.429
48421W        W 7858  16.156   0.313  11.050
48422W        W 7859  37.352  35.589   4.697
48423W        W 7860  33.926  16.641  13.353
48424W        W 7861  13.173  35.456   3.692
48425W        W 7862  23.573  34.584  10.466
48426W        W 7863   3.354  40.870  10.459
48427W        W 7864  10.302  15.663  11.988
48428W        W 7865   2.298   5.201  13.884
48429W        W 7866  19.108  24.597   3.810
48430W        W 7867  36.460  33.418   1.825
48431W        W 7868  33.052  27.458   0.752
48432W        W 7869  14.238   8.210  11.568
48433W        W 7870  26.117  11.867  12.399
48434W        W 7871   7.219  17.679  14.760
48435W        W 7872  29.509  18.275  14.978
48436W        W 7873   5.920   7.905  10.597
48437W        W 7874  27.568  34.454  12.092
48438W        W 7875   7.782  38.958  13.434
48439W        W 7876  36.461  37.905   1.247
48440W        W 7877  15.741  38.439  14.986
48441W        W 7878  36.074   5.298  10.996
48442W        W 7879  36.898   0.460   1.369
48443W        W 7880  25.187  43.470  14.448
48444W        W 7881  20.037   5.376  14.430
48445W        W 7882   1.417  17.796   1.764
48446W        W 7883  34.610  27.652  13.022
48447W        W 7884  11.633  11.852   4.225
48448W        W 7885  11.857  28.507  11.610
48449W        W 7886  34.472  33.564   3.704
48450W        W 7887  13.668  22.202  10.903
48451W        W 7888   9.167  18.577   3.806
48452W        W 7889   3.929  21.141   3.779
48453W        W 7890  11.307   9.158  11.874
48454W        W 7891  39.858  24.070   0.757
48455W        W 7892   8.232  32.560  14.429
48456W        W 7893  36.374  31.043   4.325
48457W        W 7894  44.306  29.074  12.919
48458W        W 7895  13.335   7.187   2.231
48459W        W 7896   4.906   4.759   1.232
48460W        W 7897   1.865  17.111   4.777
48461W        W 7898  25.551  39.479   0.282
48462W        W 7899  37.465  42.032   0.358
48463W        W 7900  24.167  18.683   2.781
48464W        W 7901  28.476  21.036   0.320
48465W        W 7902   9.736  34.610  13.543
48466W        W 7903  27.482  16.128   1.855
48467W        W 7904  29.624   5.886   1.369
48468W        W 7905   8.718  28.451   2.342
48469W        W 7906  42.464   9.752   1.262
48470W        W 7907  41.483  12.287   2.750
48471W        W 7908  22.150  36.909   4.125
48472W        W 7909  32.104  29.466   3.751
48473W        W 7910  29.922  29.486   1.914
48474W        W 7911  29.007  14.731   0.912
48475W        W 7912  35.880  15.184   0.477
48476W        W 7913  42.791  21.073  14.275
48477W        W 7914  27.098  23.231  11.009
48478W        W 7915  40.455  15.128   4.308
48479W        W 7916  40.026  20.077  11.432
48480W        W 7917  18.128  21.699  13.859
48481W        W 7918  23.734  33.472   0.343
48482W        W 7919  44.266  10.663  12.520
48483W        W 7920  30.930  29.012  13.938
48484W        W 7921  11.804   4.448  11.959
48485W        W 7922  25.044  16.680  10.601
48486W        W 7923  30.142  15.203   1.298
48487W        W 7924   1.754  43.777   0.754
48488W        W 7925  11.769  29.605  13.879
48489W        W 7926   6.729  33.914  14.833
48490W        W 7927  31.152  31.535  14.360
48491W        W 7928  18.239   5.327   0.447
48492W        W 7929  12.732  37.429   2.231
48493W        W 7930  21.238  32.394   4.154
48494W        W 7931  11.335  40.341  14.278
48495W        W 7932  37.955  31.054  14.766
48496W        W 7933  20.571  26.617  14.881
48497W        W 7934  32.994   9.238  12.442
48498W        W 7935  10.248  15.085   4.189
48499W        W 7936  35.595  35.100  12.563
48500W        W 7937  12.842   6.271  10.484
48501W        W 7938  32.465  10.665  14.994
48502W        W 7939  42.788  34.993  12.499
48503W        W 7940   9.884  15.724  14.996
48504W        W 7941   9.670  37.442   4.208
48505W        W 7942  13.747  24.071  13.020
48506W        W 7943  27.670  41.507   4.194
48507W        W 7944   9.224   1.869   4.314
48508W        W 7945  35.052  44.841   0.295
48509W        W 7946   3.339  13.200   3.714
48510W        W 7947  26.541  42.901  12.469
48511W        W 7948  30.456  11.812   1.359
48512W        W 7949   2.309  25.109  14.458
48513W        W 7950   5.839  37.029  14.816
48514W        W 7951   2.893  23.051   3.791
48515W        W 7952  37.360   7.860  10.560
48516W        W 7953   9.182  28.642   0.741
48517W        W 7954  12.641  34.595   0.245
48518W        W 7955  39.350  12.721  10.453
48519W        W 7956  22.247  41.037  12.944
48520W        W 7957  16.236  22.086   1.316
48521W        W 7958  18.630  35.941  14.512
48522W        W 7959   7.817  22.044   1.757
48523W        W 7960  23.182  22.115   2.735
48524W        W 7961  28.489  10.682  12.970
48525W        W 7962  23.169  27.475  10.634
48526W        W 7963   6.314  22.666  12.565
48527W        W 7964  28.051   8.358  13.326
48528W        W 7965   0.274  32.415   4.326
48529W        W 7966   0.403  24.230   2.814
48530W        W 7967  15.248  43.983  13.952
48531W        W 7968  21.692   4.702  14.989
48532W        W 7969  43.330  28.675  12.836
48533W        W 7970  24.182  10.652   3.786
48534W        W 7971  10.230  19.546   1.223
48535W        W 7972  36.562   2.309  12.434
48536W        W 7973  25.136  30.429   2.886
48537W        W 7974  14.125  15.583   1.767
48538W        W 7975  35.067  24.667  12.409
48539W        W 7976   4.293  13.759   9.635
48540W        W 7977  31.059  28.665  13.055
48541W        W 7978   1.405  11.335   4.297
48542W        W 7979  41.348  15.712  11.965
48543W        W 7980  44.470  44.376   2.851
48544W        W 7981  21.570  14.630   5.137
48545W        W 7982  26.606   6.833   3.700
48546W        W 7983   7.381  37.968   2.199
48547W        W 7984  43.882  12.167  11.436
48548W        W 7985   5.817   0.488  14.509
48549W        W 7986  20.728  22.162  11.421
48550W        W 7987  43.278  23.032   0.451
48551W        W 7988  35.603  10.803   3.295
48552W        W 7989   5.833  19.105   2.224
48553W        W 7990  35.406   5.416  11.979
48554W        W 7991   8.205   6.737  14.831
48555W        W 7992  15.145  13.273  11.987
48556W        W 7993  33.887   4.823   0.309
48557W        W 7994  36.425   7.321  10.903
48558W        W 7995  21.249  22.234  12.568
48559W        W 7996  39.458  39.819  13.374
48560W        W 7997  29.453  29.514   2.684
48561W        W 7998  24.060  15.606   3.306
48562W        W 7999  35.873  27.557  13.856
48563W        W 8000  37.918  35.017   0.917
48564W        W 8001  28.540  11.714  13.544
48565W        W 8002  17.664  24.227   1.396
48566W        W 8003  39.003  31.499  12.369
48567W        W 8004  28.011  30.495  14.981
48568W        W 8005  43.304  14.673  10.442
48569W        W 8006  29.599  29.978  11.126
48570W        W 8007   5.318  26.465  11.382
48571W        W 8008  34.910  15.632  10.439
48572W        W 8009  41.895  39.950   1.281
48573W        W 8010  37.416  22.040  12.036
48574W        W 8011  35.992  34.583  11.543
48575W        W 8012  40.850  18.775  13.003
48576W        W 8013  26.117  30.527   3.761
48577W        W 8014  23.988  44.934   3.345
48578W        W 8015  44.984  25.617   3.182
48579W        W 8016  42.963   2.336   3.370
48580W        W 8017   4.431  17.747   1.438
48581W        W 8018   7.227  18.230  10.606
48582W        W 8019  26.521  40.995  11.938
48583W        W 8020  44.009  11.666  10.425
48584W        W 8021   2.870  35.464  11.440
48585W        W 8022  26.192   5.233   4.674
48586W        W 8023   7.761  44.353   1.702
48587W        W 8024  13.613  39.855   2.751
48588W        W 8025  15.672  22.624   0.749
48589W        W 8026  38.486   2.361  12.474
48590W        W 8027  25.602  36.366   4.341
48591W        W 8028  13.212  34.945   4.186
48592W        W 8029  14.312  23.006   2.356
48593W        W 8030  27.475  32.524   0.478
48594W        W 8031  36.868  30.978  10.463
48595W        W 8032   8.863  23.196   1.261
48596W        W 8033  10.191  41.343   0.844
48597W        W 8034  26.536   2.929   1.748
48598W        W 8035   7.790  24.231  14.819
48599W        W 8036  33.417  19.113   3.723
48600W        W 8037  43.298  43.500  11.511
48601W        W 8038   1.731  30.048  11.893
48602W        W 8039   8.713  26.484  14.882
48603W        W 8040  18.775  31.631  12.444
48604W        W 8041  28.498  17.289  10.007
48605W        W 8042   3.769  35.418   3.355
48606W        W 8043   2.950  29.468   0.870
48607W        W 8044   3.891   9.369   4.209
48608W        W 8045   3.815  12.669   1.220
48609W        W 8046  43.870  32.591  10.486
48610W        W 8047   8.842  42.797  13.434
48611W        W 8048  35.415  34.576  11.414
48612W        W 8049   0.938  26.567   5.315
48613W        W 8050  37.358  26.544  13.057
48614W        W 8051  42.433  10.867  11.371
48615W        W 8052  18.058  33.015   1.339
48616W        W 8053  11.190  40.845   4.134
48617W        W 8054  22.110  37.358  13.516
48618W        W 8055  39.932  42.509   1.921
48619W        W 8056   5.245  29.432   0.837
48620W        W 8057  34.118  26.620  14.501
48621W        W 8058   2.299  28.064  11.108
48622W        W 8059  30.598  25.201  10.899
48623W        W 8060  43.864  18.681   1.897
48624W        W 8061   4.761  31.608   3.709
48625W        W 8062  14.134  11.172   9.975
48626W        W 8063   4.360   3.799  10.962
48627W        W 8064  23.055  17.558   9.990
48628W        W 8065   1.814  38.325  12.349
48629W        W 8066  44.912  16.741  10.990
48630W        W 8067  12.649  39.375  14.021
48631W        W 8068  36.867  36.466  11.972
48632W        W 8069   8.355  23.553  13.413
48633W        W 8070  33.381  33.936   4.282
48634W        W 8071   8.348  41.870  11.536
48635W        W 8072   9.196   8.794  13.051
48636W        W 8073  27.097  23.187  10.615
48637W        W 8074  12.313  42.505  12.997
48638W        W 8075  23.196  13.709  13.379
48639W        W 8076  14.232  21.563   4.128
48640W        W 8077   7.747   0.930   3.349
48641W        W 8078   7.262  39.996   4.351
48642W        W 8079  20.749  40.940   4.834
48643W        W 8080  20.678  27.602  13.871
48644W        W 8081   0.339  29.039  12.473
48645W        W 8082  41.374   9.322   2.719
48646W        W 8083  38.963  29.097   1.785
48647W        W 8084   9.864  39.466  12.354
48648W        W 8085  42.343   0.485   2.679
48649W        W 8086  18.749  34.036   3.260
48650W        W 8087   9.165  21.205  14.994
48651W        W 8088   5.821  14.311  14.356
48652W        W 8089   0.860  20.219   0.406
48653W        W 8090   4.863   7.278   4.808
48654W        W 8091  25.664  31.453   0.402
48655W        W 8092  28.013  33.936  13.036
48656W        W 8093  39.485  42.788  10.531
48657W        W 8094   5.697  30.132   0.279
48658W        W 8095   5.307  33.069   3.848
48659W        W 8096  35.471   5.395  11.545
48660W        W 8097  18.708  43.508   4.608
48661W        W 8098  31.967  23.049  12.971
48662W        W 8099  34.449  30.913  14.926
48663W        W 8100  26.067  43.857   3.752
48664W        W 8101  24.716  38.075   1.223
48665W        W 8102  44.787  35.867  12.497
48666W        W 8103  30.601   1.962   3.361
48667W        W 8104  32.035  16.791  14.840
48668W        W 8105   3.757   5.690  13.859
48669W        W 8106  12.784  29.044  11.555
48670W        W 8107   3.887  27.182   0.847
48671W        W 8108  32.925  31.587   2.825
48672W        W 8109  39.050  30.085  13.890
48673W        W 8110  36.984  11.667   3.231
48674W        W 8111   1.956   6.386  14.401
48675W        W 8112  32.498  43.453   4.264
48676W        W 8113  40.425   6.368  12.877
48677W        W 8114  20.046  34.077  13.496
48678W        W 8115  25.634  32.123   1.240
48679W        W 8116  42.814  35.391   1.858
48680W        W 8117   5.815  30.016  13.483
48681W        W 8118   4.318  11.645   1.227
48682W        W 8119  25.152   2.769   3.870
48683W        W 8120  43.852  15.113   3.329
48684W        W 8121   1.785  38.363   0.938
48685W        W 8122  26.643  44.819  13.481
48686W        W 8123  28.165   4.444  12.979
48687W        W 8124  36.381  37.027   2.835
48688W        W 8125   9.163  38.992   4.829
48689W        W 8126  29.939  18.143  10.981
48690W        W 8127  26.012  19.112   0.953
48691W        W 8128  24.021   5.303  11.412
48692W        W 8129  34.583  33.920   0.927
48693W        W 8130   0.394  21.640   0.355
48694W        W 8131  21.676   0.438   4.646
48695W        W 8132   8.196  27.527   0.860
48696W        W 8133  27.042  15.265   5.287
48697W        W 8134  29.960   7.810   3.679
48698W        W 8135   0.295  17.594   0.311
48699W        W 8136  40.040   0.258   3.330
48700W        W 8137   5.925   8.784  11.986
48701W        W 8138  30.055  15.722   3.177
48702W        W 8139  10.335   5.203  13.418
48703W        W 8140  35.960   3.772   0.441
48704W        W 8141  26.597  41.319  13.469
48705W        W 8142  29.098  41.035  13.838
48706W        W 8143   0.256  39.860   9.454
48707W        W 8144  19.111  24.025   0.432
48708W        W 8145  34.008  11.342  10.918
48709W        W 8146   0.269  13.204   3.182
48710W        W 8147  29.058  21.076  12.942
48711W        W 8148  20.761  15.755   3.243
48712W        W 8149   2.920  16.098   5.715
48713W        W 8150  18.058   2.860  14.403
48714W        W 8151  17.262  38.333  11.536
48715W        W 8152  19.208  20.675   4.678
48716W        W 8153  23.102   7.909  14.320
48717W        W 8154  11.254  44.860  13.463
48718W        W 8155  44.350  38.961   2.328
48719W        W 8156  40.339  16.299   2.790
48720W        W 8157   7.399   3.890  11.930
48721W        W 8158  12.157   9.832   3.326
48722W        W 8159   9.719  19.158  11.455
48723W        W 8160  29.963  17.247   3.183
48724W        W 8161  31.984  26.157  12.407
48725W        W 8162  25.486  43.904   1.694
48726W        W 8163   9.283  35.083  13.354
48727W        W 8164  33.057  42.971  12.045
48728W        W 8165  37.562  34.934  12.507
48729W        W 8166  24.588  39.921   2.721
48730W        W 8167  39.928  10.819   1.740
48731W        W 8168  35.582  38.405  12.456
48732W        W 8169   9.235  27.639   4.272
48733W        W 8170  33.410  38.057  11.587
48734W        W 8171   7.896  35.424   3.806
48735W        W 8172  42.434  40.850  11.458
48736W        W 8173  10.844   3.321   3.794
48737W        W 8174  16.643  27.685  10.462
48738W        W 8175  32.002  31.027  12.385
48739W        W 8176   0.282  40.037  11.378
48740W        W 8177  21.595  30.448  14.510
48741W        W 8178  35.556  30.041   3.707
48742W        W 8179   0.269  22.172  13.319
48743W        W 8180  38.960   3.952   3.729
48744W        W 8181  12.151  11.706   0.261
48745W        W 8182  21.536  29.499   9.969
48746W        W 8183  32.507  40.372   2.419
48747W        W 8184  36.956  14.190   1.905
48748W        W 8185  38.427  15.129   2.662
48749W        W 8186   6.313   2.799   2.833
48750W        W 8187  17.255  27.072   0.778
48751W        W 8188  13.624   6.286   3.757
48752W        W 8189   3.852   5.388  11.966
48753W        W 8190  42.004   7.790  13.012
48754W        W 8191  14.275  11.625  10.574
48755W        W 8192  16.094  42.921  10.904
48756W        W 8193  20.526  14.634  14.411
48757W        W 8194  18.648  27.664   3.197
48758W        W 8195  15.144   3.302  12.416
48759W        W 8196  36.544   0.301   2.189
48760W        W 8197  42.010  10.828  12.967
48761W        W 8198  38.425  40.919   4.317
48762W        W 8199  27.137  34.483  13.992
48763W        W 8200  34.964  39.371   2.811
48764W        W 8201   1.814   3.713   0.781
48765W        W 8202  39.848  35.961  13.490
48766W        W 8203  33.929  10.705   1.932
48767W        W 8204   9.268  31.510  11.057
48768W        W 8205  44.409  20.619  13.873
48769W        W 8206  21.184  38.056   4.173
48770W        W 8207  30.473  39.827   0.918
48771W        W 8208  35.088   4.774  10.517
48772W        W 8209   6.798  30.096  13.031
48773W        W 8210  32.018  43.984   3.166
48774W        W 8211  31.035   1.833  14.820
48775W        W 8212  40.539  23.567  10.942
48776W        W 8213  19.731  32.916   4.126
48777W        W 8214  22.659  23.559   2.184
48778W        W 8215  38.842  22.135  11.951
48779W        W 8216   6.836  17.272   2.286
48780W        W 8217  11.236  22.222   3.267
48781W        W 8218  29.525   8.669   0.441
48782W        W 8219  14.688   5.233   1.267
48783W        W 8220  42.818  21.137   4.303
48784W        W 8221  33.915  37.510  10.549
48785W        W 8222  24.230  13.157   0.285
48786W        W 8223  10.273  39.343   3.707
48787W        W 8224  24.483  35.549   4.650
48788W        W 8225   1.351  39.925   4.198
48789W        W 8226  17.561  17.146   2.349
48790W        W 8227  17.257  40.537   0.300
48791W        W 8228  13.703  30.139   1.739
48792W        W 8229  39.364  35.380   3.769
48793W        W 8230  17.185  40.906   5.111
48794W        W 8231   7.833   9.862   0.254
48795W        W 8232  16.185  12.209  14.866
48796W        W 8233  35.935  22.717   2.212
48797W        W 8234   4.823  39.918  10.575
48798W        W 8235  19.568  40.827   3.363
48799W        W 8236  17.219  14.253   4.257
48800W        W 8237  20.656   2.381  14.323
48801W        W 8238  40.960  15.172  12.403
48802W        W 8239  21.044  17.566   2.344
48803W        W 8240  39.496  36.097   2.271
48804W        W 8241  11.844  10.372  14.453
48805W        W 8242   9.356  21.171  13.511
48806W        W 8243  30.980  42.836  11.944
48807W        W 8244  44.878  30.002  10.410
48808W        W 8245   1.389  27.509  12.437
48809W        W 8246  37.432   1.803   2.876
48810W        W 8247   3.356   5.391  12.900
48811W        W 8248  15.655  42.892  11.418
48812W        W 8249  12.328   8.827  14.319
48813W        W 8250  18.130  44.378   0.855
48814W        W 8251  37.978  18.791  13.859
48815W        W 8252  32.439   7.873   3.637
48816W        W 8253  35.369  27.145   0.786
48817W        W 8254  19.733   5.733   2.317
48818W        W 8255  13.699  42.817   1.901
48819W        W 8256   4.361  43.278  11.080
48820W        W 8257   1.809  21.128   1.907
48821W        W 8258   4.736  13.603   0.314
48822W        W 8259  41.864  24.087  11.536
48823W        W 8260   8.705   2.282  14.817
48824W        W 8261  44.814  43.391  14.330
48825W        W 8262  15.286   2.278  13.488
48826W        W 8263  28.173  19.125   4.777
48827W        W 8264  23.714  29.137  13.902
48828W        W 8265  35.017  38.886   3.280
48829W        W 8266  13.302  24.635   4.764
48830W        W 8267  13.281  16.083  13.064
48831W        W 8268  17.735   4.824   1.289
48832W        W 8269  15.592  41.518   2.192
48833W        W 8270  42.475  26.204  14.458
48834W        W 8271  32.100  25.981   2.903
48835W        W 8272  33.968  21.168   4.222
48836W        W 8273  36.552  16.674  10.520
48837W        W 8274  35.522  13.834   0.250
48838W        W 8275   7.841  41.959  12.850
48839W        W 8276  33.030  24.665   0.946
48840W        W 8277  23.711  34.117  11.541
48841W        W 8278  14.214   6.776  13.397
48842W        W 8279  10.757  10.733  14.407
48843W        W 8280  25.600  17.117  12.829
48844W        W 8281  11.305   9.242   2.827
48845W        W 8282   9.753   4.423  14.337
48846W        W 8283  21.676  39.063   4.199
48847W        W 8284  15.704  36.482  14.835
48848W        W 8285  28.568  28.030  14.766
48849W        W 8286  38.955   0.807  11.865
48850W        W 8287  34.386   8.281  11.580
48851W        W 8288  24.061  30.917  13.365
48852W        W 8289  30.117  25.671  11.109
48853W        W 8290  22.584  18.575  11.069
48854W        W 8291  17.073  23.680  14.912
48855W        W 8292  18.083   8.882  13.364
48856W        W 8293  27.949  32.019   2.681
48857W        W 8294  41.402   6.812   4.719
48858W        W 8295  29.172  18.699   4.315
48859W        W 8296  15.204   1.962  13.976
48860W        W 8297  31.913  28.028  13.333
48861W        W 8298  19.662  25.107  14.821
48862W        W 8299   3.284  33.439   0.352
48863W        W 8300   9.700   9.873  13.404
48864W        W 8301  13.338  12.617  14.032
48865W        W 8302  33.421  30.591   3.240
48866W        W 8303  31.137  29.628  11.127
48867W        W 8304   3.926   8.287  10.942
48868W        W 8305  26.058  21.045   9.659
48869W        W 8306   2.851  26.642   2.191
48870W        W 8307  38.894  24.717   3.680
48871W        W 8308  21.712  16.193   5.280
48872W        W 8309  23.182   4.738   2.843
48873W        W 8310   0.266  40.413   4.220
48874W        W 8311  28.629   4.348   4.600
48875W        W 8312  24.193  10.656  12.895
48876W        W 8313  38.395  24.061  11.967
48877W        W 8314  21.032  40.825  12.928
48878W        W 8315  40.430  36.538   0.300
48879W        W 8316  11.318  24.481   4.217
48880W        W 8317  40.863  40.978  14.818
48881W        W 8318  34.084   0.398   4.268
48882W        W 8319  39.868  23.700  12.405
48883W        W 8320  27.583   1.237   1.266
48884W        W 8321  44.842  31.031   1.710
48885W        W 8322  18.242  29.616   4.275
48886W        W 8323  23.642  19.156   3.331
48887W        W 8324  12.259   5.924  12.928
48888W        W 8325  36.938   8.763  11.603
48889W        W 8326  40.334  15.085   3.867
48890W        W 8327  10.383  44.426   0.333
48891W        W 8328  34.050  39.359  14.282
48892W        W 8329  37.377  18.293   2.741
48893W        W 8330  13.720  39.491   2.886
48894W        W 8331  41.502   1.776  11.524
48895W        W 8332  11.300   9.685   4.606
48896W        W 8333  14.790  32.561   4.808
48897W        W 8334  15.711   4.290   2.882
48898W        W 8335  43.845  33.382   1.275
48899W        W 8336  37.388  30.128  11.603
48900W        W 8337  37.551  34.935   0.778
48901W        W 8338   0.903  35.868  11.480
48902W        W 8339   6.719  30.430  11.998
48903W        W 8340   0.368  39.877  14.287
48904W        W 8341   3.461  18.561  14.514
48905W        W 8342   4.413  13.603   2.831
48906W        W 8343  44.391   5.232   3.275
48907W        W 8344   3.843  32.534   3.147
48908W        W 8345  30.584  12.838  12.507
48909W        W 8346  37.932   8.178   1.306
48910W        W 8347   6.261   6.296  13.954
48911W        W 8348  16.316  25.116   5.136
48912W        W 8349   7.703   9.198  13.972
48913W        W 8350  24.214  27.094   2.665
48914W        W 8351  20.041  18.703  11.983
48915W        W 8352   8.198  27.668  10.537
48916W        W 8353  28.070  18.759   4.823
48917W        W 8354   3.294  44.316   4.340
48918W        W 8355  37.439  23.588   4.755
48919W        W 8356  28.507  10.213   2.858
48920W        W 8357  31.918  43.429   2.754
48921W        W 8358  15.673  43.474   4.631
48922W        W 8359  42.836  11.664   3.237
48923W        W 8360  43.485  40.870  13.374
48924W        W 8361  44.262  36.348  13.988
48925W        W 8362  22.235  38.935   4.655
48926W        W 8363  21.106  26.546   4.779
48927W        W 8364  12.270  39.993  14.960
48928W        W 8365  36.473  25.544  14.017
48929W        W 8366  38.489  42.869  12.053
48930W        W 8367   1.371  26.182   3.373
48931W        W 8368  14.287  14.231   0.846
48932W        W 8369  23.692  26.004  13.413
48933W        W 8370  19.043   4.400   0.410
48934W        W 8371  28.457  19.535  13.950
48935W        W 8372  23.234  24.120  11.396
48936W        W 8373  17.191  18.092   3.732
48937W        W 8374   8.815  37.881   1.364
48938W        W 8375   4.442  36.354  12.899
48939W        W 8376   9.268  32.414   0.952
48940W        W 8377  15.167  17.206  11.930
48941W        W 8378   9.727  38.406  14.343
48942W        W 8379  41.358  17.714   2.697
48943W        W 8380   6.372  25.144   0.475
48944W        W 8381   6.807   2.450   1.783
48945W        W 8382  23.733  31.901   2.691
48946W        W 8383  28.001  15.595   0.882
48947W        W 8384  12.849  38.998   4.186
48948W        W 8385  27.687   5.721  13.323
48949W        W 8386  37.078  20.117   3.729
48950W        W 8387  24.552  42.524  12.997
48951W        W 8388   3.367  38.388  12.913
48952W        W 8389  20.602  30.502   3.854
48953W        W 8390  13.248  40.426   3.299
48954W        W 8391  17.609  12.631   3.698
48955W        W 8392  29.053  25.504   3.783
48956W        W 8393  31.126   8.351  11.859
48957W        W 8394  19.178  18.737   4.690
48958W        W 8395  20.748  10.250  11.375
48959W        W 8396  17.233  32.464   2.300
48960W        W 8397  38.014   1.363  12.368
48961W        W 8398   3.767  34.454  10.553
48962W        W 8399  20.565   8.160   2.394
48963W        W 8400  19.197   9.810   3.237
48964W        W 8401  38.935  40.827  14.424
48965W        W 8402  15.730  33.041  12.442
48966W        W 8403  19.717  44.461   3.366
48967W        W 8404  15.136  25.060  10.903
48968W        W 8405   8.327   5.207   1.739
48969W        W 8406  42.433  30.002  13.519
48970W        W 8407  34.085   3.881   1.395
48971W        W 8408  31.955  41.444  12.044
48972W        W 8409   5.195  24.179   4.224
48973W        W 8410  29.609  42.400  14.948
48974W        W 8411   6.751  42.339  12.879
48975W        W 8412  30.032  36.881   0.308
48976W        W 8413  21.197  27.991   1.361
48977W        W 8414  31.455  36.991  10.889
48978W        W 8415  37.002  34.940   2.837
48979W        W 8416  41.869  41.296   2.383
48980W        W 8417   5.216  21.263   4.726
48981W        W 8418   2.276   2.254   1.416
48982W        W 8419  21.138  18.709  14.384
48983W        W 8420  25.469  42.866  12.349
48984W        W 8421   3.915  41.853   2.199
48985W        W 8422  22.747  33.965   4.648
48986W        W 8423  31.468   5.775  10.499
48987W        W 8424  38.032  20.611  14.290
48988W        W 8425  30.441   8.768  14.398
48989W        W 8426  16.592  35.999  12.094
48990W        W 8427   1.480  15.807  11.466
48991W        W 8428  14.140  32.905   4.286
48992W        W 8429  38.015  37.482   3.867
48993W        W 8430   1.898  32.102   4.189
48994W        W 8431   2.279  42.373  13.504
48995W        W 8432   6.729  28.074   3.341
48996W        W 8433  17.672  13.350  12.342
48997W        W 8434  17.208  20.062   5.120
48998W        W 8435  38.442  11.282   0.738
48999W        W 8436  40.850   1.443   3.269
49000W        W 8437  13.619  21.220   0.761
49001W        W 8438  41.878  43.966   2.805
49002W        W 8439  39.551  41.977  11.107
49003W        W 8440  12.636  26.049  10.981
49004W        W 8441  41.476   2.799   1.873
49005W        W 8442  14.122  27.956   0.461
49006W        W 8443  31.011  41.303  14.994
49007W        W 8444   4.330  10.229   0.358
49008W        W 8445  36.373   9.371  12.491
49009W        W 8446  17.104   5.917   1.790
49010W        W 8447  41.415  14.148  10.582
49011W        W 8448  21.588  29.103  13.881
49012W        W 8449  18.738  41.431   2.376
49013W        W 8450  42.812  14.688   0.410
49014W        W 8451  38.029   0.257   0.371
49015W        W 8452  40.506  37.086  12.533
49016W        W 8453  13.151  22.167  11.924
49017W        W 8454  17.617   8.285   3.250
49018W        W 8455   1.333  44.974  13.859
49019W        W 8456  26.051  33.611  14.439
49020W        W 8457   1.884  15.329  14.975
49021W        W 8458  34.052  33.886   0.884
49022W        W 8459  41.821   7.239   1.795
49023W        W 8460  40.832   8.377  14.427
49024W        W 8461  37.484  21.051  10.626
49025W        W 8462  37.009  41.522  14.025
49026W        W 8463   0.803  39.999  13.036
49027W        W 8464  27.941  17.726   0.960
49028W        W 8465  20.652  40.370   3.259
49029W        W 8466  22.685  22.085   2.188
49030W        W 8467  21.549   9.889  12.070
49031W        W 8468  17.579  30.918   3.820
49032W        W 8469  29.539  37.067   0.249
49033W        W 8470  35.470  43.413  12.464
49034W        W 8471  14.645  23.990   4.837
49035W        W 8472  23.208   4.809   3.204
49036W        W 8473  19.729   8.205  12.407
49037W        W 8474  10.720   3.349   5.095
49038W        W 8475  15.269  22.697  11.863
49039W        W 8476  12.207   7.297   3.338
49040W        W 8477   5.720   2.451   1.272
49041W        W 8478  40.398   2.327   0.421
49042W        W 8479  30.434   5.697  14.432
49043W        W 8480  27.683  26.022   4.772
49044W        W 8481   8.272  15.586   3.738
49045W        W 8482  14.808   6.318  10.925
49046W        W 8483  24.677  29.566   4.141
49047W        W 8484  33.064  22.124   0.273
49048W        W 8485  29.590  23.149   3.255
49049W        W 8486  35.000  15.122  12.573
49050W        W 8487   7.859  16.089   1.931
49051W        W 8488   0.385  31.457   0.859
49052W        W 8489  18.167   7.822   0.401
49053W        W 8490   5.772  30.422  11.971
49054W        W 8491  25.009  44.880  11.947
49055W        W 8492  42.376   3.751   3.648
49056W        W 8493   5.437   4.830   1.272
49057W        W 8494   2.783  21.737   1.273
49058W        W 8495  43.895  20.137   0.945
49059W        W 8496   8.297  18.596  10.408
49060W        W 8497  40.839  26.097  10.489
49061W        W 8498   4.794  16.639  13.542
49062W        W 8499  38.982  21.051   2.716
49063W        W 8500   3.879   9.308   1.882
49064W        W 8501   3.341  17.639   0.962
49065W        W 8502  10.663  18.259  10.978
49066W        W 8503  44.367   3.458  13.024
49067W        W 8504  16.246  32.520  11.988
49068W        W 8505  26.097  15.624   1.303
49069W        W 8506  28.111  12.699   4.700
49070W        W 8507  42.015   8.846   1.862
49071W        W 8508  31.988  18.692   3.282
49072W        W 8509  23.553  13.207   1.297
49073W        W 8510  37.464  25.683   3.668
49074W        W 8511  19.538   9.710   4.697
49075W        W 8512   1.863  20.665  14.405
49076W        W 8513  26.087  22.223  13.810
49077W        W 8514  31.592  21.551  11.942
49078W        W 8515   8.261  12.211  11.978
49079W        W 8516  10.710  30.952  11.127
49080W        W 8517  29.039  25.072  14.908
49081W        W 8518   7.706   8.672   0.803
49082W        W 8519  14.588  12.345  11.893
49083W        W 8520  42.426  19.541  14.948
49084W        W 8521  20.634  40.529   4.789
49085W        W 8522  21.102  10.186   3.718
49086W        W 8523  34.932  17.607  14.784
49087W        W 8524  26.695  10.384   0.250
49088W        W 8525  28.146  28.108  11.886
49089W        W 8526  31.546  20.532  12.918
49090W        W 8527   4.350  35.011   2.185
49091W        W 8528  42.955  27.538   4.340
49092W        W 8529  40.449  11.768  10.007
49093W        W 8530  34.581   9.172   1.860
49094W        W 8531  38.834  29.584   2.893
49095W        W 8532  37.039  12.842  13.494
49096W        W 8533  41.369  20.190   4.704
49097W        W 8534  28.632  26.145   2.899
49098W        W 8535   1.783   6.375  14.860
49099W        W 8536   9.162   4.728   1.212
49100W        W 8537  33.881  40.958   1.920
49101W        W 8538  39.928  20.650   2.246
49102W        W 8539  44.934   2.945  14.772
49103W        W 8540  38.407  17.247  11.516
49104W        W 8541  40.833   7.333   4.295
49105W        W 8542  12.190  21.560   4.340
49106W        W 8543  13.217  32.586   4.604
49107W        W 8544  29.017  41.837   4.716
49108W        W 8545  44.349  33.013   4.209
49109W        W 8546  33.068   4.208   1.702
49110W        W 8547  32.435  11.820   1.824
49111W        W 8548   3.816   1.774   4.311
49112W        W 8549  21.665  14.246   3.319
49113W        W 8550   8.683  40.490   1.224
49114W        W 8551  18.178   6.414   3.727
49115W        W 8552  17.236  39.344   0.334
49116W        W 8553  25.508  11.211   1.800
49117W        W 8554  44.999  35.564  10.143
49118W        W 8555  40.440  20.064  14.768
49119W        W 8556  39.376  14.723   1.929
49120W        W 8557   8.739   4.239  10.598
49121W        W 8558  20.193   1.964  14.878
49122W        W 8559   5.256   3.429  13.961
49123W        W 8560  12.806  17.693   4.807
49124W        W 8561  35.449  26.554  10.556
49125W        W 8562  15.125  15.660  11.582
49126W        W 8563  43.828  30.986  14.852
49127W        W 8564  26.007  16.709  12.865
49128W        W 8565  39.861  25.708   3.717
49129W        W 8566  36.517  22.691   4.261
49130W        W 8567   0.968  38.936  13.455
49131W        W 8568   4.446  37.401   0.251
49132W        W 8569   0.923  23.561  14.975
49133W        W 8570  22.672   7.310   0.943
49134W        W 8571  19.712   7.817  12.357
49135W        W 8572  19.604   9.662   3.769
49136W        W 8573  33.484  21.201  12.916
49137W        W 8574  43.848  30.058  10.518
49138W        W 8575  31.467  41.308  12.011
49139W        W 8576  11.203  24.022  12.514
49140W        W 8577  22.125  24.620   3.695
49141W        W 8578  43.461  41.866  11.052
49142W        W 8579  29.425  16.188   1.438
49143W        W 8580  39.888  36.535   0.257
49144W        W 8581   1.251   0.953   2.307
49145W        W 8582   6.288   3.861  10.607
49146W        W 8583   8.244  34.498   2.408
49147W        W 8584   7.804  11.226  12.992
49148W        W 8585  27.472  27.043  14.477
49149W        W 8586  17.666  43.890  11.588
49150W        W 8587   6.745  20.239  13.527
49151W        W 8588  28.613   5.810  14.280
49152W        W 8589  11.716   4.718  12.091
49153W        W 8590  35.944  32.074   2.288
49154W        W 8591  17.188  27.572   3.843
49155W        W 8592  17.711   3.418   4.791
49156W        W 8593  27.662  37.373  13.435
49157W        W 8594  36.085   4.817   3.693
49158W        W 8595  32.934   7.856  11.517
49159W        W 8596  23.044  32.981   1.289
49160W        W 8597   4.848   7.369   4.134
49161W        W 8598   5.435   6.302  10.901
49162W        W 8599  23.598   6.815  12.562
49163W        W 8600  36.381  30.074   1.274
49164W        W 8601  16.260  16.754   5.640
49165W        W 8602  26.477  27.648  13.877
49166W        W 8603  27.192  14.272   4.113
49167W        W 8604  12.348  36.057  10.554
49168W        W 8605  32.886  18.574  11.959
49169W        W 8606   9.221  36.850  13.535
49170W        W 8607  29.462   9.808  12.079
49171W        W 8608  34.004  22.107  10.891
49172W        W 8609  19.624   7.710  10.938
49173W        W 8610   9.679  33.563   0.899
49174W        W 8611  15.094  12.207  11.939
49175W        W 8612   3.816  17.253   0.729
49176W        W 8613  43.362   1.244  14.423
49177W        W 8614  31.959  23.097   0.420
49178W        W 8615   7.847   2.438  12.368
49179W        W 8616  37.408  11.856  10.465
49180W        W 8617  42.881   8.687   1.825
49181W        W 8618  42.867  29.004   1.231
49182W        W 8619   0.288  26.979   3.661
49183W        W 8620  42.332  22.010  12.347
49184W        W 8621  40.927   2.407   3.185
49185W        W 8622  30.097  19.248   3.184
49186W        W 8623  12.812  38.535   4.146
49187W        W 8624  14.736  38.018   2.179
49188W        W 8625  27.161  16.119  14.301
49189W        W 8626   6.886  30.130   5.599
49190W        W 8627  41.007  31.423  11.895
49191W        W 8628  19.135  23.676  10.938
49192W        W 8629  41.421  41.951  12.987
49193W        W 8630  34.031  44.390  11.569
49194W        W 8631  40.341  23.098   0.326
49195W        W 8632  37.570  25.123  10.022
49196W        W 8633  39.380  30.550  11.440
49197W        W 8634  44.426  43.803   4.198
49198W        W 8635  25.631  37.446  13.498
49199W        W 8636  40.410  18.775  11.501
49200W        W 8637  34.921   8.380   3.662
49201W        W 8638   7.226  17.708  11.408
49202W        W 8639  13.771  28.959  13.486
49203W        W 8640  10.789  20.700   0.759
49204W        W 8641  44.281  28.598   2.894
49205W        W 8642   5.906   3.918   2.673
49206W        W 8643  21.666  21.097  12.943
49207W        W 8644  30.457   7.403  12.577
49208W        W 8645  12.117  18.261  10.509
49209W        W 8646  18.294   3.345   3.157
49210W        W 8647  12.816  12.281   4.145
49211W        W 8648  12.305  35.597   0.836
49212W        W 8649  32.922  10.355  14.349
49213W        W 8650  34.086  32.620  12.980
49214W        W 8651  14.597  44.398   4.691
49215W        W 8652  34.977  17.593   4.165
49216W        W 8653  30.548  21.535   9.593
49217W        W 8654  19.538   1.314  13.838
49218W        W 8655  37.879  41.534   3.766
49219W        W 8656  16.644  40.801   9.569
49220W        W 8657  29.658  22.186  14.945
49221W        W 8658   2.353  19.756   1.832
49222W        W 8659  41.328  44.984  13.361
49223W        W 8660  10.193  33.119  10.983
49224W        W 8661  19.628   4.392  12.362
49225W        W 8662   3.307  23.635  11.497
49226W        W 8663  43.996  13.713  11.575
49227W        W 8664  41.408  14.307   3.763
49228W        W 8665  15.236   3.289  13.330
49229W        W 8666  41.506  16.148   2.389
49230W        W 8667   9.257   9.828   0.747
49231W        W 8668   1.849  32.418  13.841
49232W        W 8669  17.141   8.859  14.871
49233W        W 8670   5.253   2.446  12.495
49234W        W 8671  15.816  26.046  14.980
49235W        W 8672  21.688  11.311  13.006
49236W        W 8673   8.663  26.971  13.907
49237W        W 8674   9.282  25.128  10.521
49238W        W 8675  28.518  36.933   9.599
49239W        W 8676  36.424  18.701   5.147
49240W        W 8677  33.625  24.149   4.155
49241W        W 8678  20.615  18.690   0.729
49242W        W 8679  15.824  37.026   4.830
49243W        W 8680  41.529  33.051   4.694
49244W        W 8681  26.697   0.331   1.301
49245W        W 8682  16.611  39.880  12.974
49246W        W 8683  30.512  30.101  13.999
49247W        W 8684  42.385  13.181  12.853
49248W        W 8685   2.353  32.119   1.380
49249W        W 8686  41.846  35.984   0.459
49250W        W 8687  20.061  26.023  11.414
49251W        W 8688  13.681  31.518  12.949
49252W        W 8689  26.176  36.877   5.204
49253W        W 8690  16.670  27.188   0.366
49254W        W 8691  36.350  21.623  10.438
49255W        W 8692  16.584   2.876   0.317
49256W        W 8693  13.769  32.583  10.529
49257W        W 8694   5.252  14.715  13.018
49258W        W 8695   3.807  38.930   3.645
49259W        W 8696  11.222   0.412   4.804
49260W        W 8697  21.073   3.357  14.458
49261W        W 8698   3.334  15.585   1.319
49262W        W 8699  31.137  14.799  12.032
49263W        W 8700   3.348  43.302   1.378
49264W        W 8701  38.453  40.935  11.872
49265W        W 8702  29.649   0.915  12.457
49266W        W 8703   8.897  16.284  13.867
49267W        W 8704  19.758  23.181   4.731
49268W        W 8705  22.173  38.425   5.806
49269W        W 8706  20.686   2.759   3.659
49270W        W 8707  27.956  18.743  14.987
49271W        W 8708   1.237  25.488  12.544
49272W        W 8709  36.035  10.342   1.852
49273W        W 8710  39.853   8.291  12.927
49274W        W 8711  25.983  36.554   1.253
49275W        W 8712  31.416  17.122  12.073
49276W        W 8713  43.911  30.550   4.674
49277W        W 8714   7.719  14.636   0.452
49278W        W 8715  30.647  24.485  10.613
49279W        W 8716  43.445   5.432  13.935
49280W        W 8717  43.292  25.691   3.303
49281W        W 8718  15.764   0.775  11.017
49282W        W 8719  41.459   0.386   0.905
49283W        W 8720  29.603  20.646  11.940
49284W        W 8721  30.136  34.031   0.825
49285W        W 8722   6.358  23.538   4.144
49286W        W 8723  39.497  36.003  11.002
49287W        W 8724  32.472  22.569   2.899
49288W        W 8725  13.310  38.414  11.057
49289W        W 8726  33.506   3.219  14.278
49290W        W 8727  42.401  12.216  13.845
49291W        W 8728  28.516  42.777   2.674
49292W        W 8729   3.366   9.277  14.988
49293W        W 8730  44.469  28.037  14.813
49294W        W 8731  10.800  26.524  13.406
49295W        W 8732  36.873  40.539   3.382
49296W        W 8733  12.330  39.535   4.715
49297W        W 8734  34.614  40.811  12.939
49298W        W 8735   0.434  34.110   3.341
49299W        W 8736  33.610  42.467  14.766
49300W        W 8737   4.410  44.890  11.371
49301W        W 8738  31.417  36.928  10.160
49302W        W 8739   1.352   8.182  13.959
49303W        W 8740  33.115  44.295  10.638
49304W        W 8741   2.424  24.653  10.071
49305W        W 8742   6.689  13.312   3.770
49306W        W 8743  42.832  40.383  12.873
49307W        W 8744  12.149  37.961   0.769
49308W        W 8745  22.015  32.089   1.924
49309W        W 8746  11.128   6.779  14.397
49310W        W 8747   7.196   6.905  11.401
49311W        W 8748   2.855  16.684  13.520
49312W        W 8749  28.507  14.600  10.588
49313W        W 8750  27.943   6.363  11.975
49314W        W 8751  21.091  40.002  10.450
49315W        W 8752  18.666  33.524   3.831
49316W        W 8753  31.952  12.836   4.244
49317W        W 8754  31.094   1.807  13.924
49318W        W 8755  33.060   4.773  14.469
49319W        W 8756  44.463  15.272   0.756
49320W        W 8757  32.491   0.443  13.822
49321W        W 8758   2.889  40.414   3.841
49322W        W 8759  19.644  32.605  12.003
49323W        W 8760  41.530  14.803   2.326
49324W        W 8761  44.957  10.184  13.057
49325W        W 8762   0.386  10.365  13.339
49326W        W 8763  41.984  16.716   2.412
49327W        W 8764  29.954  27.641   9.927
49328W        W 8765   9.377  24.000   0.367
49329W        W 8766  40.852  34.982  11.592
49330W        W 8767  19.268  36.406  14.833
49331W        W 8768  40.303  37.057   1.726
49332W        W 8769  32.408  40.316  13.931
49333W        W 8770  42.888  15.109   3.665
49334W        W 8771   5.359   1.329  13.935
49335W        W 8772  41.310  21.727  15.000
49336W        W 8773  25.975   5.285   1.221
49337W        W 8774   8.677  14.112  12.355
49338W        W 8775  41.000  15.166  14.327
49339W        W 8776  28.581  20.088  14.394
49340W        W 8777   3.323  15.720  11.610
49341W        W 8778   2.762  38.394  14.281
49342W        W 8779  42.518  28.079  11.085
49343W        W 8780  37.078  17.282   1.703
49344W        W 8781  24.984  37.035   2.852
49345W        W 8782  36.534  43.998   4.835
49346W        W 8783  28.447  35.034  13.844
49347W        W 8784  30.134   3.716   3.200
49348W        W 8785   4.923  33.420  13.468
49349W        W 8786  27.997   0.463   3.645
49350W        W 8787  43.413   4.884   3.744
49351W        W 8788  25.662  31.487  13.446
49352W        W 8789  21.637  12.668   1.915
49353W        W 8790  27.667  35.076  14.496
49354W        W 8791  36.873  40.441  12.877
49355W        W 8792  15.261   5.702  10.532
49356W        W 8793  44.851   5.278  11.414
49357W        W 8794   8.250   4.880  12.405
49358W        W 8795  16.703  42.931  11.598
49359W        W 8796   3.787  18.785  11.991
49360W        W 8797  38.998  19.178  11.021
49361W        W 8798  37.434  38.424  12.007
49362W        W 8799  41.839   6.365  14.031
49363W        W 8800  11.249  26.552   3.843
49364W        W 8801  30.981  40.530   2.314
49365W        W 8802  10.367  26.469   2.254
49366W        W 8803  19.189  43.870   9.963
49367W        W 8804  36.371  25.063  11.382
49368W        W 8805  27.186  35.998   2.812
49369W        W 8806  44.864   6.849   1.848
49370W        W 8807  13.207  24.067   3.655
49371W        W 8808   7.727  22.617  10.475
49372W        W 8809   3.885  19.707  14.293
49373W        W 8810  16.221  20.076  11.026
49374W        W 8811   5.250   2.304  14.316
49375W        W 8812   7.851  33.575   0.909
49376W        W 8813  35.514  29.470  11.555
49377W        W 8814  29.483  16.088  11.101
49378W        W 8815  32.959  39.502  12.569
49379W        W 8816  18.228   6.379  13.951
49380W        W 8817  29.146  41.355   1.303
49381W        W 8818  29.425   1.943   5.234
49382W        W 8819  22.249  44.353  13.384
49383W        W 8820  41.992  18.689   1.451
49384W        W 8821  33.480   3.269  14.007
49385W        W 8822  10.203   1.918  13.318
49386W        W 8823   5.313  35.431  12.577
49387W        W 8824  11.838  29.670   1.429
49388W        W 8825  44.419  37.877  13.468
49389W        W 8826  33.583   7.776  10.561
49390W        W 8827  37.047  25.041  13.436
49391W        W 8828  29.085  34.118  11.932
49392W        W 8829  11.210  31.970   4.776
49393W        W 8830  27.561  15.734   4.221
49394W        W 8831  41.470   3.837   0.756
49395W        W 8832  29.441  26.125  13.468
49396W        W 8833  32.414  31.982   5.195
49397W        W 8834  22.626  22.617   0.412
49398W        W 8835  36.962  31.514   3.810
49399W        W 8836  33.559  16.710   0.903
49400W        W 8837  43.846  16.233   0.463
49401W        W 8838  16.107   5.255   1.927
49402W        W 8839  39.440  10.340  13.517
49403W        W 8840   1.839  15.617  14.465
49404W        W 8841  30.436   3.914   0.759
49405W        W 8842   8.752  15.200  10.526
49406W        W 8843   9.781   1.284  12.922
49407W        W 8844  35.537   9.803   1.875
49408W        W 8845  37.442   9.800  14.467
49409W        W 8846  24.699  23.632   2.674
49410W        W 8847  24.147   5.817  12.017
49411W        W 8848   4.306  36.483  13.860
49412W        W 8849  27.168  14.742  14.807
49413W        W 8850  39.352  38.547  14.899
49414W        W 8851  40.411   4.322  10.524
49415W        W 8852  19.160  30.956  14.899
49416W        W 8853  12.826  20.746   2.803
49417W        W 8854  12.738  22.173   1.395
49418W        W 8855   4.807   2.309   1.283
49419W        W 8856  15.296  41.852  12.508
49420W        W 8857  26.691  11.213   0.376
49421W        W 8858  14.166   1.333   3.833
49422W        W 8859   4.371  33.385  12.895
49423W        W 8860  30.106  14.621  10.953
49424W        W 8861  20.269  18.151   2.281
49425W        W 8862  13.670  42.335  13.930
49426W        W 8863  26.643   3.441   3.842
49427W        W 8864  40.471  23.999  14.300
49428W        W 8865   7.717  18.601   4.636
49429W        W 8866  24.138   0.390   1.262
49430W        W 8867  28.182  35.058   3.316
49431W        W 8868  30.508  36.950  11.401
49432W        W 8869  12.206  34.871  10.643
49433W        W 8870  12.312  22.544  10.605
49434W        W 8871   1.970  18.682   1.298
49435W        W 8872  19.123  33.520   2.824
49436W        W 8873  34.996  41.906  10.894
49437W        W 8874  36.484  15.634  14.472
49438W        W 8875  40.384  31.078   0.370
49439W        W 8876  14.712  21.237   0.855
49440W        W 8877  21.623  24.501   1.298
49441W        W 8878  16.307  44.351   4.674
49442W        W 8879  40.379   2.327   4.134
49443W        W 8880   4.933  42.515  14.451
49444W        W 8881  24.079  31.455   2.727
49445W        W 8882  41.936  39.851  12.528
49446W        W 8883  37.985  17.798  12.987
49447W        W 8884  27.636  32.418  13.025
49448W        W 8885  38.830   9.869   3.335
49449W        W 8886   1.463  21.196   1.246
49450W        W 8887  33.127  10.194  11.548
49451W        W 8888  31.485  22.119   1.791
49452W        W 8889  29.113  35.582  13.340
49453W        W 8890  39.962  11.311   4.140
49454W        W 8891   8.768  40.988   4.289
49455W        W 8892  28.483  11.172  13.449
49456W        W 8893   3.286  15.326   3.315
49457W        W 8894  18.081   4.929  14.846
49458W        W 8895  36.890  21.543  12.867
49459W        W 8896   8.212  31.145   4.219
49460W        W 8897  25.588   2.228   2.208
49461W        W 8898  32.933  27.182   0.392
49462W        W 8899  37.431   2.878  11.385
49463W        W 8900  20.194   6.405   2.195
49464W        W 8901   5.209  33.582   4.246
49465W        W 8902  39.474  26.967   1.344
49466W        W 8903  28.952  41.790  13.459
49467W        W 8904  14.630  27.452   4.332
49468W        W 8905   6.302  12.263   3.318
49469W        W 8906   5.380   0.478   0.441
49470W        W 8907  36.394  27.626   3.356
49471W        W 8908  23.684  10.853   3.809
49472W        W 8909  33.099  12.740   1.871
49473W        W 8910  24.156  29.632   0.435
49474W        W 8911  44.383  32.930  12.937
49475W        W 8912  43.440  21.526   3.213
49476W        W 8913  33.599   6.280  14.491
49477W        W 8914  28.176  29.665   1.835
49478W        W 8915  11.142  16.302   2.375
49479W        W 8916  15.281  43.319  14.880
49480W        W 8917  18.634  23.593   4.232
49481W        W 8918  25.479  15.197   4.346
49482W        W 8919  22.022   2.766   1.229
49483W        W 8920   9.799  27.153  11.881
49484W        W 8921  32.457  11.642  11.017
49485W        W 8922   7.901  21.723  14.373
49486W        W 8923  27.630  27.538  11.391
49487W        W 8924  20.230  22.196  10.959
49488W        W 8925  25.103  42.436   3.246
49489W        W 8926  34.468  44.307   2.826
49490W        W 8927  11.338  14.259   4.722
49491W        W 8928  10.366  12.793  12.568
49492W        W 8929  24.176  25.165  11.475
49493W        W 8930  42.789   4.772   3.798
49494W        W 8931  22.051  30.910  11.539
49495W        W 8932  23.108  25.475  11.978
49496W        W 8933  42.410   9.643  12.071
49497W        W 8934  24.145   8.868   0.412
49498W        W 8935  20.175  30.104  12.849
49499W        W 8936  15.669  18.591   9.476
49500W        W 8937  43.401  21.029  13.462
49501W        W 8938  21.630  27.537  10.903
49502W        W 8939  17.155   6.770   4.192
49503W        W 8940   6.292   1.920   5.261
49504W        W 8941  10.225  15.291   9.960
49505W        W 8942  27.591  26.965   4.312
49506W        W 8943   9.802   5.351   1.763
49507W        W 8944  16.081   9.247  14.014
49508W        W 8945  38.456  14.668  11.607
49509W        W 8946  30.586  18.187   0.789
49510W        W 8947  27.504   6.757  11.464
49511W        W 8948  20.173  42.861   3.352
49512W        W 8949  11.238  25.188  12.490
49513W        W 8950  41.921   1.301   2.334
49514W        W 8951   3.848  21.538   4.795
49515W        W 8952  15.782  26.197   2.220
49516W        W 8953  41.931  39.398   3.659
49517W        W 8954  15.216  11.866   3.353
49518W        W 8955  30.641  40.303   0.744
49519W        W 8956  11.188  19.676   1.928
49520W        W 8957  23.513  17.563  13.054
49521W        W 8958  39.952  43.402  12.925
49522W        W 8959  23.511  42.790  12.501
49523W        W 8960  29.642  43.460  12.920
49524W        W 8961  23.130  10.671   0.817
49525W        W 8962  16.073  44.835  13.859
49526W        W 8963  29.545  33.939   3.686
49527W        W 8964   6.200  40.523   0.935
49528W        W 8965  35.989  27.006   4.215
49529W        W 8966   8.688   6.740  10.405
49530W        W 8967  36.037   6.357  12.919
49531W        W 8968  36.593  36.045   2.861
49532W        W 8969  14.152  41.321  11.516
49533W        W 8970  34.093  13.245  10.496
49534W        W 8971   6.873  37.460   3.229
49535W        W 8972  42.317  37.989   1.388
49536W        W 8973   2.375  29.448  14.356
49537W        W 8974   2.315   7.860   2.179
49538W        W 8975  35.560  18.198   4.607
49539W        W 8976  18.078  37.348  14.953
49540W        W 8977  29.627  24.712  14.889
49541W        W 8978  30.076  37.846  10.520
49542W        W 8979  19.261  41.041   3.750
49543W        W 8980  40.528  34.397   3.274
49544W        W 8981  27.998  36.565   2.792
49545W        W 8982  42.792  21.024   2.810
49546W        W 8983  16.755  30.506  11.573
49547W        W 8984  10.696   8.352   1.213
49548W        W 8985   0.255   8.357  13.547
49549W        W 8986  39.991  18.574  10.446
49550W        W 8987  23.702  13.641  14.011
49551W        W 8988  12.314  29.008  11.551
49552W        W 8989  14.682  10.654  12.550
49553W        W 8990  13.664  12.616  10.580
49554W        W 8991  19.216  41.365  14.031
49555W        W 8992  30.629  27.600   3.735
49556W        W 8993   1.383  40.456  14.814
49557W        W 8994   9.394  38.545   0.830
49558W        W 8995   6.299   3.774   4.263
49559W        W 8996   9.809  11.336  12.956
49560W        W 8997  18.627  20.239  11.549
49561W        W 8998  41.335  15.222   0.759
49562W        W 8999  35.023  43.849   2.247
49563W        W 9000  28.477  36.431   4.693
49564W        W 9001  35.895  35.535  14.338
49565W        W 9002  39.543  28.541   2.756
49566W        W 9003  35.378   4.719   3.837
49567W        W 9004  26.967  11.675   1.888
49568W        W 9005  39.989  15.801  10.422
49569W        W 9006   7.900  29.167  13.545
49570W        W 9007   2.864   3.771   0.456
49571W        W 9008  26.193  39.415   3.225
49572W        W 9009  39.525  39.884   4.287
49573W        W 9010  24.666  24.572  11.456
49574W        W 9011  25.516   8.796   1.800
49575W        W 9012  15.634   5.887  13.366
49576W        W 9013   3.344  36.869  14.020
49577W        W 9014  21.534  40.498   2.714
49578W        W 9015  10.382  17.655   2.802
49579W        W 9016   2.232  44.951   2.762
49580W        W 9017  42.969  29.142  12.891
49581W        W 9018  13.168  11.319   2.876
49582W        W 9019  38.483  25.115   3.308
49583W        W 9020   6.734  17.735   0.914
49584W        W 9021  35.395  19.045   1.318
49585W        W 9022  44.955  32.449  10.537
49586W        W 9023   7.758  40.013  11.110
49587W        W 9024  16.567  25.089   1.227
49588W        W 9025   0.326  19.121   2.352
49589W        W 9026  16.662  37.349   0.242
49590W        W 9027   2.411   3.281  13.526
49591W        W 9028  33.983  32.553   0.345
49592W        W 9029   0.478   8.777   3.780
49593W        W 9030   8.205  25.051  14.788
49594W        W 9031  32.505  27.574  14.287
49595W        W 9032  20.646  30.014   0.928
49596W        W 9033  33.947  44.864  12.067
49597W        W 9034  16.142  14.804  14.298
49598W        W 9035  25.134  22.654  13.819
49599W        W 9036  17.627  34.096  14.397
49600W        W 9037  22.503  13.332  13.900
49601W        W 9038   1.355  43.973  12.506
49602W        W 9039  22.210  32.081   2.366
49603W        W 9040   1.242  25.149   4.792
49604W        W 9041   5.293   9.719   4.123
49605W        W 9042  25.517  22.736   9.947
49606W        W 9043  41.869  28.523  11.526
49607W        W 9044  42.979  27.456   3.759
49608W        W 9045  20.163  28.078  14.491
49609W        W 9046  24.573  30.525   0.882
49610W        W 9047  42.002  20.237   4.258
49611W        W 9048  32.458  43.824  10.523
49612W        W 9049  23.177  37.881  11.894
49613W        W 9050   2.392  27.524   1.842
49614W        W 9051  10.210  11.848  11.509
49615W        W 9052   2.389  41.295   0.420
49616W        W 9053  31.447  10.357  12.567
49617W        W 9054  43.501  11.721   2.665
49618W        W 9055  25.683  20.172   2.775
49619W        W 9056  18.177  11.651   1.278
49620W        W 9057  40.518  23.666  14.871
49621W        W 9058   5.400   2.268   1.256
49622W        W 9059  11.239   3.757   4.628
49623W        W 9060   9.869   4.871   0.322
49624W        W 9061  34.042  22.011   5.600
49625W        W 9062  20.749  25.161   4.696
49626W        W 9063   6.345  44.464   9.979
49627W        W 9064   7.196   1.911  12.574
49628W        W 9065  24.155  39.461  14.471
49629W        W 9066   9.154  35.495  10.565
49630W        W 9067   6.897  12.199  13.976
49631W        W 9068   4.277  24.541  13.829
49632W        W 9069  43.769  11.240  12.047
49633W        W 9070   0.858   8.365   3.287
49634W        W 9071  13.819  20.734  10.925
49635W        W 9072  37.406  29.603   4.225
49636W        W 9073  32.140  34.121   1.376
49637W        W 9074  30.948  12.239   0.744
49638W        W 9075  44.896  10.757  11.945
49639W        W 9076  30.956  44.451   1.801
49640W        W 9077  30.158  31.625  10.965
49641W        W 9078  24.094  21.171   0.959
49642W        W 9079  25.980  20.590   2.393
49643W        W 9080   3.295   7.255  13.028
49644W        W 9081  41.447  34.008   0.398
49645W        W 9082  14.678   7.409   2.863
49646W        W 9083  31.563  24.135  10.543
49647W        W 9084  34.485  31.593   4.691
49648W        W 9085  29.001  25.663  11.055
49649W        W 9086  35.955  21.650   4.200
49650W        W 9087  32.516  10.253   2.794
49651W        W 9088  42.314  30.459  13.341
49652W        W 9089  33.975  21.031  14.500
49653W        W 9090  12.354  38.523  12.083
49654W        W 9091  17.248  44.354  10.476
49655W        W 9092   7.267  15.652   9.981
49656W        W 9093   3.797  16.274   0.250
49657W        W 9094   4.363  12.711   0.954
49658W        W 9095   4.302   5.704  13.324
49659W        W 9096  42.446  28.455   0.446
49660W        W 9097  28.151   2.839   0.293
49661W        W 9098  30.542  19.763   2.748
49662W        W 9099  27.562  13.197  13.353
49663W        W 9100  36.843  25.668   0.474
49664W        W 9101  17.791  15.720   1.849
49665W        W 9102  23.031  35.917   0.887
49666W        W 9103  31.067  12.270  13.518
49667W        W 9104  15.201  28.539   2.887
49668W        W 9105   0.885  43.972  13.803
49669W        W 9106  10.216  27.564   1.908
49670W        W 9107  20.241  35.090  12.440
49671W        W 9108   3.818   6.217  10.579
49672W        W 9109  23.170  32.132  13.941
49673W        W 9110  25.136   8.236  12.435
49674W        W 9111   0.938   6.206   2.789
49675W        W 9112  10.155  36.557  13.362
49676W        W 9113  16.269  22.531   0.456
49677W        W 9114   2.315  16.130  11.935
49678W        W 9115   8.269   8.402  10.626
49679W        W 9116  35.388  40.447   1.794
49680W        W 9117   2.828  25.200  12.892
49681W        W 9118  25.648  43.860  10.953
49682W        W 9119   2.392  25.469   0.934
49683W        W 9120  21.132  33.574   2.396
49684W        W 9121  15.586   3.402   3.810
49685W        W 9122  30.600  12.142  13.005
49686W        W 9123  10.864  10.278   0.477
49687W        W 9124   0.858  23.228  12.007
49688W        W 9125  27.587  32.597  11.582
49689W        W 9126   0.276  42.443   2.673
49690W        W 9127  33.606  27.451  14.442
49691W        W 9128  36.514   8.732   5.122
49692W        W 9129  14.764  11.246   4.814
49693W        W 9130  34.003  36.408   1.773
49694W        W 9131  14.254  16.660   1.302
49695W        W 9132   4.841  22.225  13.847
49696W        W 9133  33.125  37.458  11.612
49697W        W 9134  25.655  25.119   1.793
49698W        W 9135  22.549  33.124  10.565
49699W        W 9136  22.241   4.396  14.975
49700W        W 9137  27.496  23.644  14.319
49701W        W 9138  33.991  30.055  12.045
49702W        W 9139  25.598  16.218   0.281
49703W        W 9140  23.225  20.745   3.804
49704W        W 9141  43.342  20.695  13.388
49705W        W 9142   2.286  21.618   3.271
49706W        W 9143   1.420  28.558  13.021
49707W        W 9144  19.636   3.296  10.617
49708W        W 9145   7.374  37.357   1.879
49709W        W 9146  11.228  19.723   1.226
49710W        W 9147  23.124  39.949   4.732
49711W        W 9148  39.345  29.427  11.971
49712W        W 9149   1.756  44.821   1.388
49713W        W 9150  18.564  25.647   4.640
49714W        W 9151  32.543  28.005   2.325
49715W        W 9152  37.444  32.108   1.705
49716W        W 9153   8.776  25.020  12.548
49717W        W 9154  39.030  16.802   1.433
49718W        W 9155   8.227   9.262   0.835
49719W        W 9156  23.131  36.077   1.355
49720W        W 9157  24.483  25.006  14.774
49721W        W 9158   9.688  32.083  10.572
49722W        W 9159   2.742  37.064   3.364
49723W        W 9160  22.661  44.394  13.377
49724W        W 9161  36.433  38.442  10.574
49725W        W 9162  19.656   7.836  13.876
49726W        W 9163  32.432   9.866   3.655
49727W        W 9164  41.834  11.786  13.492
49728W        W 9165  26.614   7.378  12.407
49729W        W 9166  13.625   7.804   3.385
49730W        W 9167  13.722   9.369   1.810
49731W        W 9168  18.656  10.760  13.347
49732W        W 9169  22.681  29.455   3.640
49733W        W 9170  40.405  44.480  13.008
49734W        W 9171  15.729  15.616  12.832
49735W        W 9172   8.657  24.708  12.827
49736W        W 9173   2.341   6.289  12.511
49737W        W 9174  33.987  18.788  12.559
49738W        W 9175   2.440  23.995   3.364
49739W        W 9176  22.171  27.178   2.865
49740W        W 9177  34.866  44.504   3.332
49741W        W 9178  22.654  35.476  10.969
49742W        W 9179  11.630  44.967   0.890
49743W        W 9180  41.960  22.658   2.744
49744W        W 9181   5.295  15.618   1.805
49745W        W 9182  39.537  12.229   4.347
49746W        W 9183  32.976   9.166   2.222
49747W        W 9184  29.529  26.101  13.962
49748W        W 9185   4.744  41.395  13.386
49749W        W 9186   0.811  25.508  10.420
49750W        W 9187   5.761  28.981  12.550
49751W        W 9188   9.282  10.849   2.793
49752W        W 9189  19.072  13.128  13.988
49753W        W 9190  19.779   3.276  12.938
49754W        W 9191  23.566  12.616  12.881
49755W        W 9192  21.037  42.432  13.847
49756W        W 9193  37.950   5.330  11.589
49757W        W 9194  19.566  39.833   9.643
49758W        W 9195  34.873  28.932   2.830
49759W        W 9196  21.586   6.779   3.634
49760W        W 9197  10.255   8.752   3.332
49761W        W 9198  11.667   6.266  10.981
49762W        W 9199  17.125  20.745  11.438
49763W        W 9200  44.862  10.231   0.828
49764W        W 9201  14.241  29.581   2.767
49765W        W 9202  29.051  36.590   2.738
49766W        W 9203  37.465  40.035  14.972
49767W        W 9204  32.589  11.770   2.246
49768W        W 9205  14.603   9.857  14.812
49769W        W 9206  39.330  26.010   3.811
49770W        W 9207  12.157  18.288  13.422
49771W        W 9208  13.622  23.092  14.952
49772W        W 9209   0.943  20.048  13.393
49773W        W 9210  27.987  41.792  11.870
49774W        W 9211  20.218  15.700  14.790
49775W        W 9212  23.033   7.375   1.796
49776W        W 9213   5.286  29.605   0.299
49777W        W 9214  31.570  29.954   0.853
49778W        W 9215  13.239   9.831  10.473
49779W        W 9216   9.170  33.523  13.807
49780W        W 9217  35.040  27.641   3.851
49781W        W 9218  37.523  37.976  14.426
49782W        W 9219   5.823  16.265  10.411
49783W        W 9220  24.136  35.543  11.079
49784W        W 9221  32.001  31.465   4.164
49785W        W 9222   9.664  22.721   2.865
49786W        W 9223  36.362  27.569  14.404
49787W        W 9224  15.754  33.124   2.712
49788W        W 9225  19.734  26.131  14.951
49789W        W 9226  19.260   4.928  13.334
49790W        W 9227  26.172  40.852   1.742
49791W        W 9228   0.972  42.964  12.359
49792W        W 9229  31.608  31.462   2.242
49793W        W 9230  12.760  33.906  13.976
49794W        W 9231  13.269  10.340  13.901
49795W        W 9232  20.531  24.080  12.383
49796W        W 9233  13.672  39.438   2.332
49797W        W 9234  31.577   7.911  14.280
49798W        W 9235  34.425  15.777   4.127
49799W        W 9236  20.157  42.800   1.740
49800W        W 9237   6.302  17.101  14.468
49801W        W 9238  35.492   5.368   2.881
49802W        W 9239  17.746  13.150   0.952
49803W        W 9240  12.797  28.570  14.026
49804W        W 9241  39.365  20.044   4.600
49805W        W 9242   8.716  29.582  14.029
49806W        W 9243  34.047  37.502  11.431
49807W        W 9244   3.833  16.214   9.990
49808W        W 9245   1.861  25.606   4.129
49809W        W 9246  41.395  12.213   4.213
49810W        W 9247  19.207   3.711   2.401
49811W        W 9248  15.144  40.309   2.677
49812W        W 9249  16.626  30.482  13.548
49813W        W 9250  25.537  31.115   2.781
49814W        W 9251  40.033  38.499  12.031
49815W        W 9252  23.499  24.148   3.699
49816W        W 9253  13.830  42.439  11.918
49817W        W 9254  26.509  36.990   4.125
49818W        W 9255  10.206  11.651   2.201
49819W        W 9256  21.732  17.561   0.764
49820W        W 9257  35.526  38.421   0.248
49821W        W 9258   9.731   6.920   0.351
49822W        W 9259  29.100  10.351  10.469
49823W        W 9260  16.117   3.407   5.217
49824W        W 9261  33.885  34.889   3.802
49825W        W 9262  30.098  10.375   2.299
49826W        W 9263  40.413   2.265   2.745
49827W        W 9264  43.969   0.450   0.416
49828W        W 9265  42.909  40.819  13.029
49829W        W 9266   5.820  15.319   1.254
49830W        W 9267  41.989   6.898  13.380
49831W        W 9268   5.278  27.964  10.976
49832W        W 9269  17.622  17.600  14.827
49833W        W 9270  18.574   2.857   0.340
49834W        W 9271  20.257  34.543  13.371
49835W        W 9272  33.453  21.235   3.655
49836W        W 9273  27.183  25.528  14.285
49837W        W 9274  16.161  23.014  10.434
49838W        W 9275  43.901   9.231  10.564
49839W        W 9276  37.868  44.478  10.037
49840W        W 9277  24.566  23.222  10.633
49841W        W 9278  28.005   0.965   4.788
49842W        W 9279  10.266  15.710  12.924
49843W        W 9280  27.543  37.487  12.506
49844W        W 9281  44.430  27.511   3.849
49845W        W 9282   5.846  41.402  12.468
49846W        W 9283  12.350  38.871  10.094
49847W        W 9284   3.803  25.698   3.774
49848W        W 9285  35.031  28.076  12.978
49849W        W 9286   5.384  40.524   3.694
49850W        W 9287  31.901  43.304  10.583
49851W        W 9288  28.142  26.157  10.406
49852W        W 9289  30.040  40.892   4.144
49853W        W 9290  38.992  39.498  10.486
49854W        W 9291  32.609  44.417   1.747
49855W        W 9292  35.982  35.523   2.815
49856W        W 9293  17.604   2.918   0.858
49857W        W 9294  23.145   9.305  14.450
49858W        W 9295  39.010  32.918  10.642
49859W        W 9296  40.891  41.982  14.843
49860W        W 9297  26.682   8.165  14.509
49861W        W 9298   5.886  41.943  11.857
49862W        W 9299   2.329  37.402  13.357
49863W        W 9300  26.097  10.244   0.956
49864W        W 9301  39.976  24.136   4.327
49865W        W 9302   4.372  14.291   2.317
49866W        W 9303  15.158  34.007  14.799
49867W        W 9304  28.081  10.359  10.432
49868W        W 9305  35.938  30.031  12.055
49869W        W 9306   4.853   1.947   0.307
49870W        W 9307  10.206  10.711  13.817
49871W        W 9308   6.792  17.722  14.024
49872W        W 9309  36.399  16.077  13.999
49873W        W 9310  43.507  25.080  12.948
49874W        W 9311  11.195   5.929   3.813
49875W        W 9312  13.717  27.549  12.879
49876W        W 9313  15.185  32.398   4.721
49877W        W 9314   0.825   0.929  12.574
49878W        W 9315  40.972  43.764   0.936
49879W        W 9316  39.405  15.728  11.504
49880W        W 9317   9.666  38.402   3.148
49881W        W 9318  21.129  35.102  13.407
49882W        W 9319  39.982   8.721  10.585
49883W        W 9320  40.027  34.558   0.456
49884W        W 9321  13.347  40.046   0.396
49885W        W 9322  19.244   3.718  11.457
49886W        W 9323  14.299  44.008   2.189
49887W        W 9324  26.611  22.197   2.739
49888W        W 9325  10.793  20.702  13.471
49889W        W 9326  34.901  18.773   0.793
49890W        W 9327  16.778  17.307  13.537
49891W        W 9328  36.940  27.122   3.282
49892W        W 9329  25.585  31.015  11.405
49893W        W 9330  36.407  12.714   2.727
49894W        W 9331   9.376  13.105  12.567
49895W        W 9332  21.630  21.576   2.817
49896W        W 9333   2.342  44.759   4.127
49897W        W 9334  33.947  42.895   2.377
49898W        W 9335  39.430   9.782   3.734
49899W        W 9336   4.368  13.109  10.518
49900W        W 9337  26.066   4.399  13.353
49901W        W 9338   6.328   9.755  13.482
49902W        W 9339  16.158  31.955  13.321
49903W        W 9340  43.461  19.758   0.914
49904W        W 9341  18.596  34.074   1.778
49905W        W 9342  35.104  40.045  12.975
49906W        W 9343  35.987  40.032  12.434
49907W        W 9344  35.885  29.007   1.270
49908W        W 9345  13.699  43.822  10.888
49909W        W 9346  34.434  40.388   0.256
49910W        W 9347  35.943   3.956   3.317
49911W        W 9348  31.945  25.529  12.417
49912W        W 9349  19.156  40.815   2.842
49913W        W 9350   2.796  30.419   2.322
49914W        W 9351  13.123  24.037  12.839
49915W        W 9352  29.166  24.114   4.159
49916W        W 9353  29.424  44.501  12.357
49917W        W 9354  24.535   4.903  12.512
49918W        W 9355  41.801   6.367  14.403
49919W        W 9356  38.921  15.667  11.496
49920W        W 9357   4.817   3.951  13.866
49921W        W 9358  36.347  25.141  10.504
49922W        W 9359  29.094   5.801  12.034
49923W        W 9360  30.090   4.824   2.747
49924W        W 9361  13.819   5.863   0.247
49925W        W 9362   3.846  16.249   0.886
49926W        W 9363  23.169   6.903  14.841
49927W        W 9364  38.930  27.669  11.473
49928W        W 9365  30.096  26.977  13.991
49929W        W 9366   9.206   9.664   4.251
49930W        W 9367  33.996  44.311   0.923
49931W        W 9368  12.141  39.543   1.754
49932W        W 9369   1.734  28.014  10.098
49933W        W 9370  15.738  20.613   4.135
49934W        W 9371  13.208  40.903   0.483
49935W        W 9372  18.626  39.368   2.407
49936W        W 9373  21.711  30.021  13.965
49937W        W 9374  42.008  28.159  11.391
49938W        W 9375  40.852  12.851   4.141
49939W        W 9376   8.827  10.647  13.990
49940W        W 9377   3.348   9.868  10.551
49941W        W 9378  18.173   4.723   0.912
49942W        W 9379  25.512   9.369   4.166
49943W        W 9380  17.600  25.588   1.412
49944W        W 9381  31.045  13.250  14.763
49945W        W 9382   5.236  23.587   1.246
49946W        W 9383   6.200   5.780   0.962
49947W        W 9384  39.936  28.092   2.324
49948W        W 9385  34.916  10.245   9.977
49949W        W 9386  11.813  16.735  12.906
49950W        W 9387  35.045  12.782   3.326
49951W        W 9388  21.137   0.824   4.721
49952W        W 9389  41.991  16.270   4.206
49953W        W 9390  15.305  35.937   2.825
49954W        W 9391  40.027  16.678   0.270
49955W        W 9392  24.143   4.770  11.477
49956W        W 9393  27.002  29.175  13.966
49957W        W 9394   4.811  35.101  14.472
49958W        W 9395  16.722  25.176  14.004
49959W        W 9396  23.106  30.466   2.733
49960W        W 9397  25.102  15.122   3.806
49961W        W 9398  44.983  40.317   0.296
49962W        W 9399  41.988   6.920  12.028
49963W        W 9400  40.493  24.177  14.982
49964W        W 9401  11.199  17.629  14.817
49965W        W 9402  34.451   5.784   1.762
49966W        W 9403  11.652  11.161  11.500
49967W        W 9404  34.063   1.734   2.894
49968W        W 9405  39.037  38.352   0.340
49969W        W 9406  23.665  28.043   2.178
49970W        W 9407  13.659  27.666  12.063
49971W        W 9408  39.012  39.982   0.788
49972W        W 9409  32.929  21.699   3.189
49973W        W 9410  25.055  10.835  13.415
49974W        W 9411  22.223  25.677   1.289
49975W        W 9412  34.431   2.366  11.050
49976W        W 9413  18.183  11.828  12.503
49977W        W 9414   4.341   7.782  12.933
49978W        W 9415  27.519  25.570  14.959
49979W        W 9416   5.914  22.725   3.208
49980W        W 9417  40.310  21.099   5.126
49981W        W 9418  34.905   3.953  14.827
49982W        W 9419  21.024  16.221  12.538
49983W        W 9420  34.991  14.172  13.977
49984W        W 9421  42.839  33.110  13.015
49985W        W 9422  16.315  17.659   1.851
49986W        W 9423   6.235  13.307   1.724
49987W        W 9424  26.973  36.468   3.292
49988W        W 9425  32.117  43.415  14.926
49989W        W 9426  10.367  41.872  12.440
49990W        W 9427  37.429  15.663  13.490
49991W        W 9428  28.679  21.602   2.692
49992W        W 9429  26.010  13.675   1.283
49993W        W 9430  34.876  31.468   0.390
49994W        W 9431  29.122   0.852  12.369
49995W        W 9432   4.215  28.141   1.388
49996W        W 9433   1.359  40.972  11.972
49997W        W 9434   8.244  29.958   2.287
49998W        W 9435  40.807  17.599   2.338
49999W        W 9436  35.896  16.262  14.811
50000W        W 9437  10.322  35.099   0.282
50001W        W 9438  37.846  31.016  12.449
50002W        W 9439   4.736  15.592  13.046
50003W        W 9440  13.756  33.474  10.622
50004W        W 9441   1.779   9.849  14.865
50005W        W 9442  13.230  18.652   3.844
50006W        W 9443   4.348  17.084  13.921
50007W        W 9444  34.412  30.038   4.185
50008W        W 9445  20.029  27.048   1.242
50009W        W 9446  31.898   9.183   1.375
50010W        W 9447  18.194  26.966   1.763
50011W        W 9448  35.983  32.594  12.830
50012W        W 9449  15.716  31.479   2.373
50013W        W 9450   5.397  33.007   0.334
50014W        W 9451  44.434  35.874  14.029
50015W        W 9452  35.583  20.222  14.396
50016W        W 9453  42.294  27.006   1.403
50017W        W 9454  38.901  44.362   4.682
50018W        W 9455   7.308  30.465  14.818
50019W        W 9456  40.033  16.718  11.090
50020W        W 9457  19.665   4.282  14.974
50021W        W 9458  18.176  30.008  14.338
50022W        W 9459   7.299  30.487  13.793
50023W        W 9460  25.087  16.238  13.959
50024W        W 9461  28.473  38.850   2.746
50025W        W 9462  24.590  17.179  13.989
50026W        W 9463  43.426  42.361   3.824
50027W        W 9464  30.615  41.987   1.231
50028W        W 9465  39.546   7.791   4.747
50029W        W 9466  23.594  31.146  13.036
50030W        W 9467   3.780  27.054   2.666
50031W        W 9468  30.107  37.930  13.469
50032W        W 9469  38.927  11.311   0.380
50033W        W 9470  26.502  26.162   5.260
50034W        W 9471   7.386   4.705   1.305
50035W        W 9472  42.384  29.073   1.251
50036W        W 9473  39.045  21.706   2.282
50037W        W 9474  33.443  10.842   3.765
50038W        W 9475  39.862  29.038  10.908
50039W        W 9476  35.443  38.337  10.145
50040W        W 9477   0.809  24.701  12.859
50041W        W 9478   9.884  41.852  14.400
50042W        W 9479  39.962   4.813  12.438
50043W        W 9480  32.591  22.149  14.993
50044W        W 9481  21.565  33.443   3.377
50045W        W 9482  33.983  25.552   2.888
50046W        W 9483   5.770  17.778   2.667
50047W        W 9484   6.708  37.549  11.980
50048W        W 9485  32.505  28.604   1.391
50049W        W 9486  38.570  41.903   4.766
50050W        W 9487  40.875   3.861  14.322
50051W        W 9488  30.458   0.487  11.556
50052W        W 9489  13.819   4.784  13.811
50053W        W 9490   5.859  30.040  12.397
50054W        W 9491  28.472  33.573  14.490
50055W        W 9492  13.274  34.919   4.797
50056W        W 9493  29.944  34.916   0.326
50057W        W 9494  23.025  22.560   4.319
50058W        W 9495  44.405  16.594   1.378
50059W        W 9496  13.774  16.803  11.458
50060W        W 9497   0.761  17.244   2.726
50061W        W 9498  37.389   5.354   0.444
50062W        W 9499  12.626   8.371   1.721
50063W        W 9500  18.089  37.894  14.857
50064W        W 9501  42.481  25.209   1.329
50065W        W 9502  19.600  44.754  11.923
50066W        W 9503  28.987  34.561   1.742
50067W        W 9504   7.276  43.297  13.542
50068W        W 9505  18.139  30.536  14.803
50069W        W 9506  13.604  15.659   3.191
50070W        W 9507   6.204  37.078  11.421
50071W        W 9508  13.814  42.401  14.911
50072W        W 9509  39.011   6.283  10.412
50073W        W 9510   5.373  36.404   4.623
50074W        W 9511  42.402  25.682  11.026
50075W        W 9512   8.170  25.216   4.143
50076W        W 9513  28.672  16.606   0.472
50077W        W 9514  37.842   6.874  12.997
50078W        W 9515  32.541  23.608   2.287
50079W        W 9516  32.525  33.988   2.237
50080W        W 9517  30.499  12.230  14.922
50081W        W 9518   0.291  29.625  13.377
50082W        W 9519   8.379  42.498  12.835
50083W        W 9520  35.492  35.980   4.623
50084W        W 9521  32.023  19.727   3.688
50085W        W 9522  16.644   1.447   0.792
50086W        W 9523  10.848  33.057   1.904
50087W        W 9524  24.493  31.942  14.016
50088W        W 9525  28.051   3.367  10.957
50089W        W 9526  30.532  25.112   2.190
50090W        W 9527  40.345  18.611   4.331
50091W        W 9528  19.108  26.035   2.303
50092W        W 9529  11.340  26.036  13.975
50093W        W 9530  14.098  15.755  12.390
50094W        W 9531  32.007   7.912   3.658
50095W        W 9532   6.882   2.387  11.407
50096W        W 9533  44.466  29.593   5.194
50097W        W 9534  22.107   4.314   2.310
50098W        W 9535  25.020  25.970   4.765
50099W        W 9536  11.658  16.676   1.931
50100W        W 9537  39.027  20.617  14.940
50101W        W 9538  41.881  39.433   2.275
50102W        W 9539  12.116  18.237  12.450
50103W        W 9540  35.987   8.325  14.952
50104W        W 9541  24.057  10.218  13.863
50105W        W 9542   7.734  30.579  12.971
50106W        W 9543   8.800   1.419   1.264
50107W        W 9544   2.866   9.755  10.553
50108W        W 9545  41.832  27.017  10.889
50109W        W 9546   8.388  11.369  12.828
50110W        W 9547  20.536  33.933  10.993
50111W        W 9548   8.187  10.829   4.272
50112W        W 9549  44.838   0.402   4.307
50113W        W 9550  11.172  37.035   1.451
50114W        W 9551  14.237  21.043   2.271
50115W        W 9552   7.758   0.949   2.756
50116W        W 9553   9.356  42.418   2.226
50117W        W 9554  28.075  29.011   2.832
50118W        W 9555   2.735  42.866  10.542
50119W        W 9556  37.841  37.943   3.270
50120W        W 9557  15.593  38.475  13.990
50121W        W 9558  12.315   4.750  14.306
50122W        W 9559  26.200  42.927  13.491
50123W        W 9560  26.126  30.544   2.840
50124W        W 9561  26.546   0.861   0.441
50125W        W 9562  15.802  12.306  13.509
50126W        W 9563  43.958  28.016   3.740
50127W        W 9564  40.879  24.505  12.971
50128W        W 9565  37.922  10.298  14.845
50129W        W 9566  41.794  39.435  13.494
50130W        W 9567  13.755  42.360   2.323
50131W        W 9568  32.054  31.647  11.491
50132W        W 9569  19.766  37.974   2.817
50133W        W 9570  35.481  27.108  14.875
50134W        W 9571   5.294  23.141   4.656
50135W        W 9572   1.473  17.169  10.594
50136W        W 9573  10.171  34.035  14.369
50137W        W 9574   5.353  36.852  13.887
50138W        W 9575  27.642  12.217   0.316
50139W        W 9576  18.705  39.039  13.940
50140W        W 9577   6.923  32.021   2.279
50141W        W 9578   2.236  27.004   3.760
50142W        W 9579  35.030  38.492   1.809
50143W        W 9580  38.881  37.377   3.870
50144W        W 9581  18.290   1.888  12.570
50145W        W 9582  32.396  21.051   2.880
50146W        W 9583  26.062   9.172   3.185
50147W        W 9584  37.543  39.854   4.311
50148W        W 9585  16.626  35.395   0.289
50149W        W 9586  27.494  30.452  14.921
50150W        W 9587   7.411  13.666   4.229
50151W        W 9588  11.725  24.180  11.537
50152W        W 9589   1.874   3.917  14.025
50153W        W 9590  17.202  18.621  13.537
50154W        W 9591  12.689  16.800   0.832
50155W        W 9592   4.264  30.584  13.940
50156W        W 9593  10.865  34.908  14.981
50157W        W 9594  35.950  44.889   0.453
50158W        W 9595  35.370  26.689  14.974
50159W        W 9596  32.087  29.919  10.478
50160W        W 9597  29.580   2.270  11.034
50161W        W 9598  12.281  38.456   1.863
50162W        W 9599  16.216  22.087  11.459
50163W        W 9600  30.412  12.643   4.125
50164W        W 9601  44.984  17.748   0.764
50165W        W 9602  41.415   4.827  10.602
50166W        W 9603  21.045   1.921   3.855
50167W        W 9604  33.613   5.751  11.891
50168W        W 9605  19.626  40.306   0.964
50169W        W 9606  13.160  42.872   4.336
50170W        W 9607  31.016  22.233  13.859
50171W        W 9608  34.426  38.549   3.733
50172W        W 9609  12.771  25.573  14.280
50173W        W 9610  22.675  30.156  13.967
50174W        W 9611  31.440  30.507   1.357
50175W        W 9612  43.395   4.210   3.641
50176W        W 9613  17.718  18.723  11.494
50177W        W 9614  36.998  26.597   2.747
50178W        W 9615  10.145  38.376  11.091
50179W        W 9616  35.035  36.365   3.800
50180W        W 9617  38.437  37.051   4.632
50181W        W 9618  23.137  37.441  12.444
50182W        W 9619  29.662   6.312   3.742
50183W        W 9620   0.874   0.970  10.483
50184W        W 9621  36.965  32.119   0.840
50185W        W 9622  24.992  42.002  14.480
50186W        W 9623  38.837  10.345  14.463
50187W        W 9624  27.662  30.049   3.341
50188W        W 9625   8.208  23.235   4.759
50189W        W 9626  24.659  32.603   0.243
50190W        W 9627  22.157  43.907   0.463
50191W        W 9628   4.717   6.256  13.525
50192W        W 9629  29.166   5.232   1.765
50193W        W 9630  19.229  29.991   1.375
50194W        W 9631  34.478   9.381  11.043
50195W        W 9632  43.960   1.480  14.923
50196W        W 9633  27.078  26.040   1.400
50197W        W 9634   4.840  24.146   2.804
50198W        W 9635  26.080   3.284  12.974
50199W        W 9636   4.391  37.974  13.016
50200W        W 9637   4.221  18.288  14.838
50201W        W 9638  42.438  35.527  12.920
50202W        W 9639   9.222   4.335   4.757
50203W        W 9640  15.733  19.213  13.038
50204W        W 9641  44.464  36.898  13.865
50205W        W 9642  22.055  29.086   1.822
50206W        W 9643  15.589  25.009  11.007
50207W        W 9644   8.393  22.596   4.726
50208W        W 9645  24.033  32.630  10.447
50209W        W 9646   4.308  25.008   2.373
50210W        W 9647   4.369  34.015  13.982
50211W        W 9648   3.725  32.618  12.560
50212W        W 9649  23.723  29.648   3.762
50213W        W 9650  14.226  37.579   2.756
50214W        W 9651  13.719   8.196   1.818
50215W        W 9652  24.207  27.674  11.504
50216W        W 9653  42.357  37.948   4.770
50217W        W 9654  23.099  21.521   2.902
50218W        W 9655  24.624  43.368   2.776
50219W        W 9656   1.804  41.497  10.595
50220W        W 9657  36.550  33.475  13.860
50221W        W 9658  36.480  16.613   2.767
50222W        W 9659  17.713  31.486   2.286
50223W        W 9660  19.587  23.094  13.479
50224W        W 9661  31.901  35.367   4.283
50225W        W 9662  30.597   4.903   3.824
50226W        W 9663  32.463  41.987  13.055
50227W        W 9664  10.777  16.757  13.028
50228W        W 9665   7.681  21.573  11.115
50229W        W 9666  24.682  40.479  13.381
50230W        W 9667  39.808  18.075   0.353
50231W        W 9668  37.367   1.327   3.380
50232W        W 9669  40.478  32.530   3.189
50233W        W 9670   6.415  27.041   1.920
50234W        W 9671  13.180  10.168   2.364
50235W        W 9672   9.734  44.798  12.086
50236W        W 9673  44.485  30.939  10.459
50237W        W 9674  32.941  30.003   3.836
50238W        W 9675  24.623   7.870  13.423
50239W        W 9676  24.604  33.984  10.895
50240W        W 9677   2.431   4.212   0.480
50241W        W 9678   2.741  30.159  12.084
50242W        W 9679  15.755  23.014   4.601
50243W        W 9680  29.087  21.045  11.529
50244W        W 9681  15.797  42.354   1.364
50245W        W 9682  21.179   3.819   3.811
50246W        W 9683  16.120  12.619   1.712
50247W        W 9684  38.494   0.827  10.610
50248W        W 9685  18.123  28.996   2.752
50249W        W 9686  26.121  16.173   2.279
50250W        W 9687  17.760  11.715  12.524
50251W        W 9688   0.863  44.927   1.287
50252W        W 9689  11.743   0.965  13.822
50253W        W 9690  37.004  32.966   2.245
50254W        W 9691  21.062  31.032  10.978
50255W        W 9692  25.570  25.491   1.868
50256W        W 9693   1.380   2.816   4.671
50257W        W 9694   5.720  14.291  14.009
50258W        W 9695  40.871  15.663   2.269
50259W        W 9696  26.053  19.651   2.708
50260W        W 9697  43.878  36.039   2.897
50261W        W 9698  42.527   4.885  14.356
50262W        W 9699  32.551  10.782  10.990
50263W        W 9700  41.513  35.456  11.544
50264W        W 9701   8.398  15.601   2.210
50265W        W 9702   2.859   1.923   3.817
50266W        W 9703   2.962  22.070   1.935
50267W        W 9704   8.873  39.843  12.363
50268W        W 9705  33.431  40.330   5.168
50269W        W 9706  43.817   7.325   4.786
50270W        W 9707   3.736  24.156  12.055
50271W        W 9708  21.566  23.493  12.408
50272W        W 9709   7.399   6.862   2.801
50273W        W 9710  22.172  39.983  10.423
50274W        W 9711  35.362   4.313   2.411
50275W        W 9712  35.375   2.820   3.290
50276W        W 9713  24.200  43.932   1.242
50277W        W 9714  36.964  10.640   2.185
50278W        W 9715  24.122  29.474   4.189
50279W        W 9716  33.884   8.161  14.979
50280W        W 9717   4.899  28.179   2.400
50281W        W 9718  12.853  31.060  14.405
50282W        W 9719  44.396  12.647  13.341
50283W        W 9720   7.857  36.378  10.902
50284W        W 9721  30.519   1.414  10.622
50285W        W 9722  31.534  27.052  14.467
50286W        W 9723   1.420  24.182   2.276
50287W        W 9724  25.586  19.048  14.480
50288W        W 9725   7.708  35.916   3.858
50289W        W 9726  10.747  24.619  10.983
50290W        W 9727  26.457  33.087  11.424
50291W        W 9728   8.795  40.397  13.536
50292W        W 9729   9.661  43.782   0.457
50293W        W 9730  27.448  44.814  10.967
50294W        W 9731  44.005  14.234  14.790
50295W        W 9732  32.064   7.396   0.955
50296W        W 9733  28.590  16.569  13.314
50297W        W 9734  10.327  10.795  14.514
50298W        W 9735  41.793  23.630  13.013
50299W        W 9736  44.926  20.186  11.967
50300W        W 9737   9.254  11.704   1.701
50301W        W 9738  32.508  26.954   4.234
50302W        W 9739  35.591  36.035  11.612
50303W        W 9740  42.376  19.245   1.929
50304W        W 9741  19.747  26.481  10.953
50305W        W 9742  23.596  15.209   2.297
50306W        W 9743  26.670  12.218  12.527
50307W        W 9744  20.153  21.046  13.917
50308W        W 9745  23.499  39.997   2.850
50309W        W 9746  28.143   2.890   3.700
50310W        W 9747  13.187  22.657  14.326
50311W        W 9748  25.508  23.035   3.645
50312W        W 9749  19.106  35.014   2.883
50313W        W 9750   2.375  24.031  13.917
50314W        W 9751  11.209   2.432   0.859
50315W        W 9752  35.978  39.058  11.994
50316W        W 9753  26.507   8.664  13.840
50317W        W 9754  21.749  42.306  11.576
50318W        W 9755  29.603  15.280  12.926
50319W        W 9756  20.574   1.881   4.126
50320W        W 9757   8.249  23.096   3.165
50321W        W 9758  15.265   1.875  14.308
50322W        W 9759  34.044  32.142   1.767
50323W        W 9760   7.682   0.967   4.713
50324W        W 9761  27.667  19.702   4.709
50325W        W 9762  38.545  42.777   1.899
50326W        W 9763  25.690  43.502  13.009
50327W        W 9764  23.636  14.150  12.551
50328W        W 9765  21.738  10.379  13.341
50329W        W 9766  12.292   8.863  11.022
50330W        W 9767  19.203  36.919   0.727
50331W        W 9768  18.291   6.854  12.505
50332W        W 9769  37.904  34.878  14.850
50333W        W 9770  31.119  35.581   1.756
50334W        W 9771  10.259  20.073  12.016
50335W        W 9772  22.506   2.254  14.466
50336W        W 9773   4.893  13.275   1.920
50337W        W 9774  12.338  40.453   2.864
50338W        W 9775  20.234  42.302   2.894
50339W        W 9776  23.518  29.554  14.318
50340W        W 9777  14.785  15.199   1.361
50341W        W 9778  26.064  26.197   2.720
50342W        W 9779  41.492  24.647  11.494
50343W        W 9780  10.237   3.447   2.781
50344W        W 9781  44.939  16.695   0.316
50345W        W 9782  16.630  11.323   4.220
50346W        W 9783  23.693  17.684  11.489
50347W        W 9784   3.945  14.156   0.449
50348W        W 9785  31.982  18.094  10.603
50349W        W 9786   1.240  19.709   4.822
50350W        W 9787  10.176  12.778  10.001
50351W        W 9788  44.002  21.687  14.353
50352W        W 9789  31.070   4.333  13.426
50353W        W 9790  23.552   6.209   0.246
50354W        W 9791  11.631  27.524   3.845
50355W        W 9792  18.590  17.155   1.735
50356W        W 9793  39.882  30.413   4.815
50357W        W 9794   0.436  26.072   3.173
50358W        W 9795  21.635  32.031   3.261
50359W        W 9796  28.119  24.680  14.296
50360W        W 9797   3.443  44.961   3.249
50361W        W 9798  31.442   4.732  11.491
50362W        W 9799  16.271  12.718  13.330
50363W        W 9800   5.778  20.219  13.906
50364W        W 9801  34.980  34.029   0.362
50365W        W 9802  19.762  17.667   1.378
50366W        W 9803  31.108  16.142  12.084
50367W        W 9804  20.056  29.480   1.281
50368W        W 9805   7.825  16.788  13.425
50369W        W 9806  32.461  10.723  14.507
50370W        W 9807   1.732   1.318  13.341
50371W        W 9808  14.795  14.224   1.398
50372W        W 9809   0.405  25.484   4.118
50373W        W 9810   7.816  39.430   2.768
50374W        W 9811  16.591  25.130  14.950
50375W        W 9812  38.377  13.266  12.958
50376W        W 9813  23.671   8.391   2.299
50377W        W 9814  31.903  25.647   0.435
50378W        W 9815  22.707  18.573   2.276
50379W        W 9816  40.977  44.980   2.412
50380W        W 9817  30.550  42.454   0.403
50381W        W 9818  33.414  42.522  14.277
50382W        W 9819  42.394   7.710   4.713
50383W        W 9820  20.195  37.402   1.406
50384W        W 9821  36.856   3.335   4.621
50385W        W 9822  30.620  39.516   2.408
50386W        W 9823  17.726  35.564   3.840
50387W        W 9824   7.195   1.460  11.998
50388W        W 9825  22.646  15.748  14.350
50389W        W 9826  14.629  26.506  11.482
50390W        W 9827  30.521  13.632  14.914
50391W        W 9828  24.016  43.390   1.312
50392W        W 9829  23.106  10.219  10.899
50393W        W 9830  40.053  44.431   3.272
50394W        W 9831  33.412  20.099  14.472
50395W        W 9832  33.564  24.042  10.525
50396W        W 9833  42.446  32.425   1.446
50397W        W 9834  19.259  33.904  14.991
50398W        W 9835  31.092  39.959   1.913
50399W        W 9836  20.114  11.169   4.815
50400W        W 9837  44.768  38.062   1.748
50401W        W 9838  29.951  20.629   0.411
50402W        W 9839   3.356  23.115  14.912
50403W        W 9840  15.118  22.654  13.485
50404W        W 9841  43.946  16.299  12.425
50405W        W 9842   3.776  12.131   3.159
50406W        W 9843   3.260  31.925   2.736
50407W        W 9844  33.125  17.800  11.509
50408W        W 9845   3.730  24.506  12.853
50409W        W 9846   1.289  24.104   0.270
50410W        W 9847   6.217  24.141   1.918
50411W        W 9848  38.560  43.503   4.747
50412W        W 9849  30.543  12.811  13.499
50413W        W 9850   3.386  18.102  14.022
50414W        W 9851  43.470  20.523  12.412
50415W        W 9852   0.295  34.048  13.050
50416W        W 9853   0.827  25.612  13.530
50417W        W 9854  20.075  30.927   1.444
50418W        W 9855  39.534   7.751  10.895
50419W        W 9856  15.172  34.526   1.382
50420W        W 9857  25.985  39.869   2.310
50421W        W 9858  43.417  23.538  12.470
50422W        W 9859  19.249  41.925   2.736
50423W        W 9860   7.236  34.878   3.327
50424W        W 9861  20.567   2.228   4.176
50425W        W 9862  24.564  36.057  14.998
50426W        W 9863  33.888  31.943   3.786
50427W        W 9864  10.301  33.548  11.574
50428W        W 9865  21.611  33.539   0.360
50429W        W 9866  11.828   1.773  11.405
50430W        W 9867  10.244  24.533   0.243
50431W        W 9868  32.012  24.604   3.146
50432W        W 9869   1.818  32.589  11.032
50433W        W 9870  15.102  21.250   4.290
50434W        W 9871  20.688  21.532  13.405
50435W        W 9872  22.146  26.073   2.234
50436W        W 9873  10.867  19.046  11.984
50437W        W 9874  17.072  25.497   3.654
50438W        W 9875  32.120  17.658   4.121
50439W        W 9876   4.808  38.036   1.810
50440W        W 9877  13.300  27.574  13.460
50441W        W 9878  26.575  21.160  14.917
50442W        W 9879   7.415  22.028   0.358
50443W        W 9880  23.695   1.895  13.946
50444W        W 9881  10.383  40.368   2.850
50445W        W 9882  29.133   4.759  12.537
50446W        W 9883  21.089  32.530   3.189
50447W        W 9884  40.830  15.701   0.914
50448W        W 9885  40.424  19.195  13.991
50449W        W 9886  21.552  38.341  13.430
50450W        W 9887  11.801  38.385   2.208
50451W        W 9888  11.834  29.045   0.835
50452W        W 9889  23.538  14.638  11.882
50453W        W 9890  24.666  12.667   5.307
50454W        W 9891  12.155  36.031   2.350
50455W        W 9892   8.762  13.261   1.723
50456W        W 9893  19.771  37.039  13.325
50457W        W 9894  19.230   1.270  12.084
50458W        W 9895   5.309  30.078   3.184
50459W        W 9896  22.579  39.344   4.163
50460W        W 9897  11.780  16.283   2.686
50461W        W 9898   0.272   2.391   3.812
50462W        W 9899   1.286  41.456   3.165
50463W        W 9900  18.190  24.687  11.572
50464W        W 9901  43.951  39.017  13.038
50465W        W 9902   9.726  38.969   0.453
50466W        W 9903  26.067  21.598   2.321
50467W        W 9904  40.986  14.600  13.049
50468W        W 9905  29.125   1.762   2.351
50469W        W 9906  34.067   4.415  12.533
50470W        W 9907  30.567  43.831  10.904
50471W        W 9908   8.353  21.025   1.277
50472W        W 9909   7.358  30.501   3.762
50473W        W 9910  27.151  33.565   4.262
50474W        W 9911   8.688  37.985  11.996
50475W        W 9912  37.492   9.324  11.892
50476W        W 9913  28.983   9.278  13.909
50477W        W 9914  11.811  12.638   5.265
50478W        W 9915  44.770  27.686  12.899
50479W        W 9916  43.001   9.779   3.207
50480W        W 9917  24.190   2.875  13.323
50481W        W 9918  25.093   1.285   4.653
50482W        W 9919   8.876  18.734   1.305
50483W        W 9920  15.660  16.214   2.381
50484W        W 9921   9.307   1.285   3.840
50485W        W 9922  16.272   5.226  13.026
50486W        W 9923  17.091  12.225   2.277
50487W        W 9924   4.812   7.798  11.114
50488W        W 9925  12.856  37.068   4.326
50489W        W 9926  11.824  14.335   1.777
50490W        W 9927  33.047  43.799   1.390
50491W        W 9928  41.358  12.676   0.416
50492W        W 9929  10.240  11.232   4.640
50493W        W 9930   2.248  31.105  11.872
50494W        W 9931  24.574  20.569  13.937
50495W        W 9932   4.826  32.068   3.862
50496W        W 9933  27.053  25.989   4.731
50497W        W 9934   3.290  37.031   2.265
50498W        W 9935  14.279  42.399   9.516
50499W        W 9936   2.339  39.355  12.368
50500W        W 9937  14.160   0.332   0.873
50501W        W 9938  38.012  23.489  12.414
50502W        W 9939  35.103  13.846   1.215
50503W        W 9940  39.363   1.446   1.774
50504W        W 9941  22.721  34.119   3.718
50505W        W 9942  13.669  27.991   3.712
50506W        W 9943  18.616   5.800   1.360
50507W        W 9944  27.609  18.124  14.890
50508W        W 9945   1.436  42.888   3.221
50509W        W 9946   6.802  16.217  13.320
50510W        W 9947  18.123  42.981   1.917
50511W        W 9948  31.948  22.165  11.426
50512W        W 9949   5.834  21.632  13.433
50513W        W 9950   5.403   6.824   0.357
50514W        W 9951  30.023  17.148   2.802
50515W        W 9952   5.776  19.167   0.335
50516W        W 9953  27.469  27.170  14.961
50517W        W 9954  40.413  36.986   3.660
50518W        W 9955  22.249  33.017   2.683
50519W        W 9956   5.693  13.144   0.890
50520W        W 9957  40.984   0.840  11.382
50521W        W 9958   7.882  25.582   2.901
50522W        W 9959  26.090  13.609  14.402
50523W        W 9960  31.528  14.761  13.529
50524W        W 9961  20.722  42.918   2.755
50525W        W 9962  18.594  35.438   4.300
50526W        W 9963  14.650  26.201  11.954
50527W        W 9964  19.762  19.536   4.271
50528W        W 9965   0.858  41.942   4.804
50529W        W 9966  33.064  32.592  10.464
50530W        W 9967   4.808  33.875  11.395
50531W        W 9968  32.405  43.465  12.946
50532W        W 9969   1.757  28.929  12.971
50533W        W 9970  43.822  28.500   3.778
50534W        W 9971   6.782  38.068   3.314
50535W        W 9972  27.451   5.378   0.875
50536W        W 9973  23.704  42.906   0.746
50537W        W 9974  39.413  28.623   0.365
50538W        W 9975  23.023  42.787   1.213
50539W        W 9976  43.386   0.888  14.008
50540W        W 9977  35.047  38.541  12.471
50541W        W 9978   4.818  15.680  14.461
50542W        W 9979   8.809  33.499  11.919
50543W        W 9980  20.692  39.361  13.521
50544W        W 9981   3.839  43.320   2.389
50545W        W 9982  24.556  43.936   3.638
50546W        W 9983  28.961  27.497   3.303
50547W        W 9984   7.255  13.289  11.568
50548W        W 9985  15.775  19.202   0.334
50549W        W 9986   5.265  19.090  13.416
50550W        W 9987  31.905  17.084   1.727
50551W        W 9988   7.858  34.934  10.620
50552W        W 9989  31.908  25.055   4.609
50553W        W 9990   8.719   3.924   1.780
50554W        W 9991   1.944   1.297   3.847
50555W        W 9992   5.718   4.352   0.781
50556W        W 9993  31.411  34.459  10.411
50557W        W 9994   2.454  34.375   1.296
50558W        W 9995  22.716  10.717  13.043
50559W        W 9996  24.131  16.669  13.890
50560W        W 9997   1.331  32.097  14.441
50561W        W 9998  12.725  31.988   0.262
50562W        W 9999  10.799  15.733  11.581
50563W        W10000  11.345  23.063   1.401
50564W        W10001  31.909  30.153   4.211
50565W        W10002  40.348   1.267  14.860
50566W        W10003  30.095   8.660   0.266
50567W        W10004  28.066  20.212   2.265
50568W        W10005  32.958  37.978   9.506
50569W        W10006  14.120   5.339  13.993
50570W        W10007  37.519  14.644  14.998
50571W        W10008  22.162  42.457   1.839
50572W        W10009  43.338  25.500   1.442
50573W        W10010  26.131  44.323   3.232
50574W        W10011  26.054  41.488   2.247
50575W        W10012  15.255   8.307   3.797
50576W        W10013  16.317  41.351   1.320
50577W        W10014   4.705   1.345   1.305
50578W        W10015  11.282  20.236   3.810
50579W        W10016  44.323   6.739   2.338
50580W        W10017   5.371  17.556  11.879
50581W        W10018  25.571  21.052  11.093
50582W        W10019  41.445   8.362   3.819
50583W        W10020  43.436   7.233   2.827
50584W        W10021   5.707  18.246  12.421
50585W        W10022  32.942  21.250   4.193
50586W        W10023  31.618  15.294   3.764
50587W        W10024   4.701  13.153  11.096
50588W        W10025   8.807   0.983   0.954
50589W        W10026   6.255   9.654   4.825
50590W        W10027  37.547  22.053  13.025
50591W        W10028  33.559  34.902  11.959
50592W        W10029  26.144  23.600  14.914
50593W        W10030  35.964  32.503  11.029
50594W        W10031  42.892   9.879   0.246
50595W        W10032  15.656  34.466  13.513
50596W        W10033  44.375  19.267   1.243
50597W        W10034   8.246   0.310   2.331
50598W        W10035  36.565  12.624  13.855
50599W        W10036  32.479   4.299   0.306
50600W        W10037   9.368  44.855   0.789
50601W        W10038   5.778  30.619  12.910
50602W        W10039  29.668  40.528   2.764
50603W        W10040  20.670  12.759   2.866
50604W        W10041  11.651  42.837   3.349
50605W        W10042  41.462  23.705   2.289
50606W        W10043  26.547  28.040   0.841
50607W        W10044  31.100  40.479  13.853
50608W        W10045   3.871  42.998  13.307
50609W        W10046  34.994   5.380  12.371
50610W        W10047   4.749  34.506   2.396
50611W        W10048   5.298  40.847  14.465
50612W        W10049   8.900  32.968   1.429
50613W        W10050  37.579  18.178  12.964
50614W        W10051  18.554  15.641   3.845
50615W        W10052  31.050  40.407   4.728
50616W        W10053   8.203  37.894   0.353
50617W        W10054   5.870  36.419   3.341
50618W        W10055   3.872  33.557   2.266
50619W        W10056  31.129   0.334  13.820
50620W        W10057  34.933   8.236  14.328
50621W        W10058  16.245   8.764  13.498
50622W        W10059  16.147  26.973   1.921
50623W        W10060  41.949  25.204   0.745
50624W        W10061  39.336  17.169   0.245
50625W        W10062  44.286  28.051   2.414
50626W        W10063  24.012   3.437   2.197
50627W        W10064  33.101  25.072  13.512
50628W        W10065  30.963  22.058   0.903
50629W        W10066   1.345  31.128   2.689
50630W        W10067  43.465  24.169  14.379
50631W        W10068  13.694   0.436   3.329
50632W        W10069   2.947  32.567  11.040
50633W        W10070  13.697  39.976   4.810
50634W        W10071   4.368  34.528   0.462
50635W        W10072  41.018   2.910  14.430
50636W        W10073   1.399  29.937   3.194
50637W        W10074  25.521   8.364   3.164
50638W        W10075  28.559  40.444   3.675
50639W        W10076  39.409   6.778  13.945
50640W        W10077  25.523   9.395   5.289
50641W        W10078   4.220  20.183  11.052
50642W        W10079  16.196  23.187   4.654
50643W        W10080  13.836  17.616  10.983
50644W        W10081  21.167   4.208  10.493
50645W        W10082  34.524  22.158   2.849
50646W        W10083  19.729  14.233   4.173
50647W        W10084  30.605   2.796   4.727
50648W        W10085  36.443  18.764  11.508
50649W        W10086  15.664   6.863   0.788
50650W        W10087  27.114  24.512  12.836
50651W        W10088  16.275  22.074   3.211
50652W        W10089   9.770  36.550  11.606
50653W        W10090  16.155  41.886   4.773
50654W        W10091  21.703  27.584   2.415
50655W        W10092  11.364  39.336   1.399
50656W        W10093  28.439  22.106  11.467
50657W        W10094  11.796  23.581   1.384
50658W        W10095  26.577  22.594   3.788
50659W        W10096  25.536  14.750  12.538
50660W        W10097  12.266  15.263  11.491
50661W        W10098  33.473   4.747   3.383
50662W        W10099  40.013  41.028   3.228
50663W        W10100  29.445   9.864   1.760
50664W        W10101  16.157  23.718   2.755
50665W        W10102   2.298  18.590  14.381
50666W        W10103   6.236  36.010   2.687
50667W        W10104  43.490  16.085   2.841
50668W        W10105  25.995  10.760  14.938
50669W        W10106  15.228  21.129  14.342
50670W        W10107  14.743  10.309   0.785
50671W        W10108  34.418  28.672   4.121
50672W        W10109   6.892  17.708  14.871
50673W        W10110  14.759  13.680   3.850
50674W        W10111  37.467  20.550  14.358
50675W        W10112  24.528  28.930  11.586
50676W        W10113  36.388  33.405  10.896
50677W        W10114  44.284  18.058   2.412
50678W        W10115  28.179  26.557  11.940
50679W        W10116  40.007  41.006   2.246
50680W        W10117  43.288  43.767   1.713
50681W        W10118  22.579  23.509   1.872
50682W        W10119  37.065  26.605  14.506
50683W        W10120  29.463   3.754  12.029
50684W        W10121  33.576  15.679  12.514
50685W        W10122  27.687  42.337   1.724
50686W        W10123   9.650  21.554   0.431
50687W        W10124  36.459  10.297  12.858
50688W        W10125  14.710  21.108   3.711
50689W        W10126  44.868  42.933  10.643
50690W        W10127  27.551  35.107  10.473
50691W        W10128  24.132   5.334   3.307
50692W        W10129  37.935  44.793   4.643
50693W        W10130  16.288   5.374  10.961
50694W        W10131  44.365  30.950  14.276
50695W        W10132  41.907  38.497   4.135
50696W        W10133  14.314  13.124   4.645
50697W        W10134  41.500  24.619  13.508
50698W        W10135  31.943  24.090  10.915
50699W        W10136  25.557  35.495  11.594
50700W        W10137  14.726  41.354  14.514
50701W        W10138   3.772  37.841  13.802
50702W        W10139  17.691   1.367  14.759
50703W        W10140  43.846  26.636  13.923
50704W        W10141   4.366  34.101  12.538
50705W        W10142  17.180  29.508   4.621
50706W        W10143   4.786  10.339  14.429
50707W        W10144  43.929  40.502  14.336
50708W        W10145  20.657  42.403  14.822
50709W        W10146  10.875  14.821  13.331
50710W        W10147  35.550   5.312   1.696
50711W        W10148  20.151  43.480   4.754
50712W        W10149   8.404  14.296  13.047
50713W        W10150  12.203  26.513   4.719
50714W        W10151  30.606  35.560  10.536
50715W        W10152  40.454  39.873  14.929
50716W        W10153  26.575  44.272   3.718
50717W        W10154  29.140   3.845  11.983
50718W        W10155  10.243  28.478  14.491
50719W        W10156  11.146  38.366   1.728
50720W        W10157  23.531  29.504   1.752
50721W        W10158  10.711   8.376  13.312
50722W        W10159  22.570  44.920  12.847
50723W        W10160  32.589  39.993   4.687
50724W        W10161  33.478  39.481  10.975
50725W        W10162  32.127   2.315   0.341
50726W        W10163  33.992  31.492  13.794
50727W        W10164  19.596  11.329   3.243
50728W        W10165   7.184  42.525  14.821
50729W        W10166  40.311  40.359   4.165
50730W        W10167  15.796  21.159  10.421
50731W        W10168  21.617   2.268  11.876
50732W        W10169  35.361  31.073   1.320
50733W        W10170   1.790  10.318  14.334
50734W        W10171  26.199  36.429   3.211
50735W        W10172  24.974  15.279  11.035
50736W        W10173  30.909  33.491   1.363
50737W        W10174  25.643  37.363   3.678
50738W        W10175  37.550  14.145  11.514
50739W        W10176  38.051  29.088   2.671
50740W        W10177  26.587   8.200  12.091
50741W        W10178  20.053  22.613  10.596
50742W        W10179  23.032   1.788  11.013
50743W        W10180  24.161  27.455   1.843
50744W        W10181  10.754  15.725  11.095
50745W        W10182  35.427  20.255  13.988
50746W        W10183  39.029  29.147  11.406
50747W        W10184  12.806  41.858  13.931
50748W        W10185   6.301   2.884   3.764
50749W        W10186  31.467   0.437   1.872
50750W        W10187   1.935   2.800   4.155
50751W        W10188  18.238  40.830   5.771
50752W        W10189  27.496  33.075   3.186
50753W        W10190  35.990  25.646  14.017
50754W        W10191  36.543  17.147  10.099
50755W        W10192  42.858  11.145   0.795
50756W        W10193   8.255   5.874  10.625
50757W        W10194  19.119  31.034  10.629
50758W        W10195  38.019  37.001   3.637
50759W        W10196  32.936  15.615   0.948
50760W        W10197  25.531  14.139  13.838
50761W        W10198  20.715  13.251   2.311
50762W        W10199  34.534  38.968  11.969
50763W        W10200  24.503   7.234   3.380
50764W        W10201   2.387  23.008  11.470
50765W        W10202  31.106  22.073   3.773
50766W        W10203  42.421   7.194  14.828
50767W        W10204  44.315   2.301   0.309
50768W        W10205  20.645  40.353   5.287
50769W        W10206   0.811   6.307   0.821
50770W        W10207   7.676  38.061   1.262
50771W        W10208   5.785  30.640  13.495
50772W        W10209  16.175  43.487  10.496
50773W        W10210  38.011  14.169  12.568
50774W        W10211   6.799  31.132   3.370
50775W        W10212  30.117  27.166  14.776
50776W        W10213  44.449  35.047   2.293
50777W        W10214  41.510   8.378  10.410
50778W        W10215   2.288  11.131   0.289
50779W        W10216  25.129  40.323   1.334
50780W        W10217   0.451   7.380  14.865
50781W        W10218  29.962  19.136   4.633
50782W        W10219  33.930  44.480   4.127
50783W        W10220   7.716  16.583   0.360
50784W        W10221  36.899  13.349   2.811
50785W        W10222  27.680  39.961  14.961
50786W        W10223  26.050  23.015  12.502
50787W        W10224  10.738  42.998   2.267
50788W        W10225  22.571   6.312   2.376
50789W        W10226  32.008  17.728   3.760
50790W        W10227   1.784  30.995   3.192
50791W        W10228  13.780  44.417   0.408
50792W        W10229  19.074  31.027   0.880
50793W        W10230  37.953  43.364   1.844
50794W        W10231  35.083   3.880   1.715
50795W        W10232   7.693  22.177   4.262
50796W        W10233  40.941  19.697  13.318
50797W        W10234   0.754  27.031   4.709
50798W        W10235   0.450  20.144  14.994
50799W        W10236   7.810  21.697  11.878
50800W        W10237   1.944  26.626   3.632
50801W        W10238  18.739  33.439   4.319
50802W        W10239  39.899  28.006  10.514
50803W        W10240  17.783  38.967   2.322
50804W        W10241   1.931  11.753  12.884
50805W        W10242  44.483  24.081  10.436
50806W        W10243  44.010   1.306  10.551
50807W        W10244  26.176  40.319   4.226
50808W        W10245   7.747  17.219   5.280
50809W        W10246  16.590   1.933  13.052
50810W        W10247   8.300  23.140   1.873
50811W        W10248  42.345  10.295   1.383
50812W        W10249  39.444  39.481   0.831
50813W        W10250  19.054  28.934  12.483
50814W        W10251  19.055  19.115  10.594
50815W        W10252  33.017  10.798   3.146
50816W        W10253  31.074  14.775  11.007
50817W        W10254  32.129  17.666   2.803
50818W        W10255  14.617  13.723  11.999
50819W        W10256   8.886   2.268   1.298
50820W        W10257   8.738  15.252   4.275
50821W        W10258  37.995   7.280   0.248
50822W        W10259  20.223   0.341   1.785
50823W        W10260   5.325  26.643   0.372
50824W        W10261  18.073  44.793   2.739
50825W        W10262  27.547  33.445   4.159
50826W        W10263  20.034  39.452   1.310
50827W        W10264  27.676  15.627  14.892
50828W        W10265  14.319  17.742  13.540
50829W        W10266  28.562  35.973  14.455
50830W        W10267  39.817  10.291   2.331
50831W        W10268  30.139  35.516  12.398
50832W        W10269  11.361  28.181   1.848
50833W        W10270  43.922  10.723   4.206
50834W        W10271  42.993  15.128  10.599
50835W        W10272   2.870   3.742   2.201
50836W        W10273  29.127   6.409   2.245
50837W        W10274   8.257  41.529   0.293
50838W        W10275   4.745  40.924  13.361
50839W        W10276   7.712  24.187   3.329
50840W        W10277  14.697  20.734  10.974
50841W        W10278  23.185  21.221  13.005
50842W        W10279  37.582   0.827   1.218
50843W        W10280  20.698  35.881  13.812
50844W        W10281  17.219  29.038  11.108
50845W        W10282   7.276  10.751   1.374
50846W        W10283  41.815  26.546  12.071
50847W        W10284  10.727  29.124   2.788
50848W        W10285  32.592  30.144  10.966
50849W        W10286  39.324  44.302  14.866
50850W        W10287   1.895  12.712  12.444
50851W        W10288  34.431  42.369   2.683
50852W        W10289  28.182   5.310   5.146
50853W        W10290  31.434  43.362   2.763
50854W        W10291   5.696  14.276  10.602
50855W        W10292  44.834  22.692   1.269
50856W        W10293   8.252  32.040   3.304
50857W        W10294   9.172  37.480  10.051
50858W        W10295  30.466   6.810   1.783
50859W        W10296  18.784   9.320   2.234
50860W        W10297  23.142  15.599  14.920
50861W        W10298  32.958  34.956  14.461
50862W        W10299   4.856  18.111  13.922
50863W        W10300  38.822  34.049  11.039
50864W        W10301  41.866  24.056  13.546
50865W        W10302  12.653  11.172  14.463
50866W        W10303  37.438  19.631   2.831
50867W        W10304  34.577  44.787   0.754
50868W        W10305  18.735  22.594  13.525
50869W        W10306  16.772   0.368   0.934
50870W        W10307  39.010  11.768   2.296
50871W        W10308   5.698  22.515  11.486
50872W        W10309  29.651  18.579  12.506
50873W        W10310  38.888  41.907   2.863
50874W        W10311  43.905  27.974   0.917
50875W        W10312   3.798  35.566   1.899
50876W        W10313   3.311  14.326  14.473
50877W        W10314  10.763  33.441  14.295
50878W        W10315  38.865  27.657   2.404
50879W        W10316  21.048  12.186   0.902
50880W        W10317  40.886  43.452   0.898
50881W        W10318  18.107  41.934  13.877
50882W        W10319  12.147   5.859   3.647
50883W        W10320  34.615  39.459  10.590
50884W        W10321  16.290   4.722   4.739
50885W        W10322  19.776  24.148  13.392
50886W        W10323   6.891  39.466   2.328
50887W        W10324  35.464  31.580  12.383
50888W        W10325  13.244   9.653  14.514
50889W        W10326  43.995  29.480  12.401
50890W        W10327  22.537  15.805  11.970
50891W        W10328  24.066  26.033  10.612
50892W        W10329   7.231  16.727  14.310
50893W        W10330  33.426  27.192   1.363
50894W        W10331  33.552   9.793  11.118
50895W        W10332  34.993  32.474   1.379
50896W        W10333  17.069   8.655   1.896
50897W        W10334  38.853  33.027   0.814
50898W        W10335  18.613  14.709   2.360
50899W        W10336  34.887   3.839  14.286
50900W        W10337  15.788  37.418  10.530
50901W        W10338  30.462  20.634  14.293
50902W        W10339  28.571  34.032  14.993
50903W        W10340  18.714  20.696  13.534
50904W        W10341  35.898  30.001   1.350
50905W        W10342   3.349  32.630  11.024
50906W        W10343  42.863  34.486  12.525
50907W        W10344   7.408  43.809  12.096
50908W        W10345   7.878  35.461  12.853
50909W        W10346  44.948  37.388   2.771
50910W        W10347  25.701  41.982   3.331
50911W        W10348  40.362  29.475  12.027
50912W        W10349  27.546  42.927   4.347
50913W        W10350  27.639  21.613  13.527
50914W        W10351   9.186  38.845   1.786
50915W        W10352  36.907   7.711   3.288
50916W        W10353   1.929  12.265   2.291
50917W        W10354  21.160   4.820  13.356
50918W        W10355  40.519  17.121  11.407
50919W        W10356   6.857  15.670  13.355
50920W        W10357  43.892  18.614   2.763
50921W        W10358  25.628  26.203  13.919
50922W        W10359  16.647  19.134   2.242
50923W        W10360  14.805  15.786   0.340
50924W        W10361   1.821   9.646   0.815
50925W        W10362  14.681  42.523   0.757
50926W        W10363  22.091  10.233  14.433
50927W        W10364  32.078  14.653   1.887
50928W        W10365  24.223  33.439  14.868
50929W        W10366   0.807   2.774   4.312
50930W        W10367   5.387  42.385  10.478
50931W        W10368  18.595   8.721   3.746
50932W        W10369  38.064  36.364   1.244
50933W        W10370  43.775  40.980   2.327
50934W        W10371  19.094  18.619  13.053
50935W        W10372   1.811  25.063  11.432
50936W        W10373  27.041  35.978  13.962
50937W        W10374  33.571  19.120   4.805
50938W        W10375   4.373  10.221  10.487
50939W        W10376  24.558  16.620  12.548
50940W        W10377  32.588  22.634   5.187
50941W        W10378  33.070  27.551  11.591
50942W        W10379  26.135  16.143  14.807
50943W        W10380  41.293  17.063   4.721
50944W        W10381  30.980  29.469   4.128
50945W        W10382   2.425  14.789   5.633
50946W        W10383  17.196  17.168   1.857
50947W        W10384   1.877  25.532  10.977
50948W        W10385   0.274  22.688  12.933
50949W        W10386  33.601   0.454  14.932
50950W        W10387  36.481   9.689   2.743
50951W        W10388   8.402  20.625   2.680
50952W        W10389  16.316   1.308  12.547
50953W        W10390  31.936  10.316   5.098
50954W        W10391  44.946  42.882   3.228
50955W        W10392  15.753   5.862  11.598
50956W        W10393  35.572  42.366  13.433
50957W        W10394  38.880  13.720  11.574
50958W        W10395   7.275  27.583   0.854
50959W        W10396  10.213  38.337   1.223
50960W        W10397  17.287  37.950   5.234
50961W        W10398  37.918  38.021  12.991
50962W        W10399   1.870  40.506   1.698
50963W        W10400  26.471   3.722  13.504
50964W        W10401  22.113   7.871   3.375
50965W        W10402  36.381  25.193  11.991
50966W        W10403  16.241  35.374  14.507
50967W        W10404  21.586   3.368   1.432
50968W        W10405  12.255  33.915   2.871
50969W        W10406   7.776  38.381   2.270
50970W        W10407  22.616   1.289   4.756
50971W        W10408  22.167  13.629  11.411
50972W        W10409  12.717  10.791  13.381
50973W        W10410  20.212  13.845   2.393
50974W        W10411  10.348  24.994  10.009
50975W        W10412  28.132  35.928   2.746
50976W        W10413  41.448   3.737  13.487
50977W        W10414   0.973  32.029  11.374
50978W        W10415  22.719  17.293   1.401
50979W        W10416  36.552  24.047  12.888
50980W        W10417   8.715  14.111  10.002
50981W        W10418  13.794  35.931   0.871
50982W        W10419  18.566  10.280  10.112
50983W        W10420  21.522  26.133   2.788
50984W        W10421  15.312  19.592   2.861
50985W        W10422  36.907   1.830   2.222
50986W        W10423   8.394  29.028   5.105
50987W        W10424   0.911  36.477   1.236
50988W        W10425   4.350  36.079   1.827
50989W        W10426  33.521  27.458  12.473
50990W        W10427  13.282   3.400   2.732
50991W        W10428  33.964  14.671   0.254
50992W        W10429  23.689  27.947  12.381
50993W        W10430  34.479  14.665   2.360
50994W        W10431  32.938   1.332  10.933
50995W        W10432   2.249  27.002   1.917
50996W        W10433  14.829   1.399  10.554
50997W        W10434  43.444  23.491  12.073
50998W        W10435  41.333   7.236  12.519
50999W        W10436  43.874  44.835   2.228
51000W        W10437  13.679  21.092   2.830
51001W        W10438  17.718  43.857  14.510
51002W        W10439  31.620  22.727   1.283
51003W        W10440  23.606  30.032  12.875
51004W        W10441  27.688  16.568  10.971
51005W        W10442   3.390  10.641   0.747
51006W        W10443  21.551  41.010   0.267
51007W        W10444  11.813  14.156   1.330
51008W        W10445  31.622  13.637   0.838
51009W        W10446  25.563  12.239   0.456
51010W        W10447   8.858  36.906   3.709
51011W        W10448  16.583  17.262   5.566
51012W        W10449  33.955  23.589  10.043
51013W        W10450  23.032  25.573   1.307
51014W        W10451  23.706   9.199   4.204
51015W        W10452  11.712  14.725  11.573
51016W        W10453  35.548  14.822  12.957
51017W        W10454  30.547  40.870  13.854
51018W        W10455  43.387  33.928   2.298
51019W        W10456  22.601  34.568  11.981
51020W        W10457  16.287  11.825   4.717
51021W        W10458  37.482   2.231  14.876
51022W        W10459   2.903   0.836   0.946
51023W        W10460  20.592  10.268   4.626
51024W        W10461   6.377  10.281  11.947
51025W        W10462  11.158  44.787   2.396
51026W        W10463  43.821  27.111   4.337
51027W        W10464   8.209  29.937   3.249
51028W        W10465   7.333  18.256   1.776
51029W        W10466  38.389  32.104  12.974
51030W        W10467  12.840  18.649  14.999
51031W        W10468  15.295  13.326   0.287
51032W        W10469  13.131  21.060  11.414
51033W        W10470   5.283  37.932   3.255
51034W        W10471  16.721  24.153   3.205
51035W        W10472   4.264  27.037  12.090
51036W        W10473   4.801  25.139   3.358
51037W        W10474  44.937  37.476  12.876
51038W        W10475  27.959  20.609  14.926
51039W        W10476   5.811   4.943  14.460
51040W        W10477  37.994  11.228  12.382
51041W        W10478  43.311   3.433  14.378
51042W        W10479  12.767  29.613   4.193
51043W        W10480  37.831  38.477   4.667
51044W        W10481  11.301  33.595   3.660
51045W        W10482  15.170   9.647  14.414
51046W        W10483  20.624  14.726  12.035
51047W        W10484  38.968  42.892   0.747
51048W        W10485   5.303   4.348   1.934
51049W        W10486  18.268   8.232  13.384
51050W        W10487  24.200  13.287  13.322
51051W        W10488  35.968  43.896  11.522
51052W        W10489  41.999  23.100  13.038
51053W        W10490  26.588  18.769  13.034
51054W        W10491   1.364   9.385  11.006
51055W        W10492  43.371  41.923   0.879
51056W        W10493  20.171  28.589   3.305
51057W        W10494   7.362   4.801  13.811
51058W        W10495   8.216  41.803  12.571
51059W        W10496   4.342  30.971  11.045
51060W        W10497   6.425  39.315   2.840
51061W        W10498  21.138  22.230  11.963
51062W        W10499  24.634  16.606   4.623
51063W        W10500  43.825  28.130   2.677
51064W        W10501  41.037  27.450   1.804
51065W        W10502   3.800  33.384  13.525
51066W        W10503  41.391  37.497   4.657
51067W        W10504  17.689  24.093   1.728
51068W        W10505  44.969  11.833  13.320
51069W        W10506  38.028  43.498   0.431
51070W        W10507  33.615  32.986  11.373
51071W        W10508  23.651  38.047  14.775
51072W        W10509   3.759  39.828  13.907
51073W        W10510  42.987  15.788  11.566
51074W        W10511   9.230  27.034  12.076
51075W        W10512  30.959  23.193   2.890
51076W        W10513  23.104  30.143   1.924
51077W        W10514  21.635  24.151   3.814
51078W        W10515  19.137   9.792  12.012
51079W        W10516  28.082   9.256  14.893
51080W        W10517   8.694  22.011   3.251
51081W        W10518  19.268   3.221   2.375
51082W        W10519   9.343  21.087   2.406
51083W        W10520  27.601  41.353  13.022
51084W        W10521  24.049   3.416  10.519
51085W        W10522  43.344  37.339  11.859
51086W        W10523  21.596  40.365   3.276
51087W        W10524  33.589  36.420  14.905
51088W        W10525   2.873  36.869  14.411
51089W        W10526  43.920  11.788   0.938
51090W        W10527   6.759   9.698   0.420
51091W        W10528  28.488  31.425   2.405
51092W        W10529  12.296  37.408  14.304
51093W        W10530  33.889  22.148   3.153
51094W        W10531  38.064  31.504   1.922
51095W        W10532  25.680  24.092   0.472
51096W        W10533  18.728  23.508  10.139
51097W        W10534  27.483  16.649  11.554
51098W        W10535  29.574  44.415   5.248
51099W        W10536  26.195  29.644   2.385
51100W        W10537  41.472  34.382   3.160
51101W        W10538  36.956  38.926   5.303
51102W        W10539  15.134  18.270   2.244
51103W        W10540  15.235  39.868   0.864
51104W        W10541  12.161  39.446  13.517
51105W        W10542   1.879   3.420  12.925
51106W        W10543  20.611  31.075   3.364
51107W        W10544  21.026  39.957   9.526
51108W        W10545  19.116  24.484  14.939
51109W        W10546   2.273  20.243  11.488
51110W        W10547  25.517  24.528  14.275
51111W        W10548  13.302   3.271  11.407
51112W        W10549  23.605   9.250  10.995
51113W        W10550   4.445   2.736  12.549
51114W        W10551  43.016  36.501  14.935
51115W        W10552  35.889  39.547   2.275
51116W        W10553   4.444  36.878   0.765
51117W        W10554   8.822  10.177   3.780
51118W        W10555  24.211  27.590  13.909
51119W        W10556  21.069  16.256  14.027
51120W        W10557  27.097  23.652  13.493
51121W        W10558   9.674  27.997   4.775
51122W        W10559   5.232  29.489  10.939
51123W        W10560  39.028  11.858   1.722
51124W        W10561  10.169   2.326   0.834
51125W        W10562  22.040  41.405  13.864
51126W        W10563  39.553  13.600  14.029
51127W        W10564  37.923  22.170  10.506
51128W        W10565  40.975  43.449   1.882
51129W        W10566  42.986  25.022   4.640
51130W        W10567   4.389  31.954   1.311
51131W        W10568  39.913  23.212  11.984
51132W        W10569  22.502  28.627   9.990
51133W        W10570   0.768   0.797   1.882
51134W        W10571  23.985   8.348   0.797
51135W        W10572   3.851  29.475   9.930
51136W        W10573  27.189   6.822   1.387
51137W        W10574  30.105  21.574  10.908
51138W        W10575  40.909  10.288   0.264
51139W        W10576  21.113  39.869  14.029
51140W        W10577  20.138  11.335  12.345
51141W        W10578  23.553  20.244   4.721
51142W        W10579  31.909  29.054   1.273
51143W        W10580  15.112  19.247   2.199
51144W        W10581  29.147  24.603  10.474
51145W        W10582  35.086   9.658   1.270
51146W        W10583  15.140  40.367   2.400
51147W        W10584  35.519  24.716  12.350
51148W        W10585   5.216  42.880  13.331
51149W        W10586  18.751   3.251   5.148
51150W        W10587  34.011  25.026  10.962
51151W        W10588  15.685  32.613  10.970
51152W        W10589  32.002  36.417  12.869
51153W        W10590  30.084  37.526   4.680
51154W        W10591  37.036  13.656   4.123
51155W        W10592   7.841   6.916   1.276
51156W        W10593  34.422  44.404   4.154
51157W        W10594  16.683   2.920   1.448
51158W        W10595  11.177  38.380  14.763
51159W        W10596  26.571  25.585  14.454
51160W        W10597   1.867  14.119   0.949
51161W        W10598  43.845  44.869   0.276
51162W        W10599  41.433  41.923  10.959
51163W        W10600  40.973  23.507  14.480
51164W        W10601   2.878  23.133   1.375
51165W        W10602  14.192  43.913   3.175
51166W        W10603  38.931  22.139   3.281
51167W        W10604  24.144   9.657   0.755
51168W        W10605  40.872   6.415   1.882
51169W        W10606  25.058  29.080   4.332
51170W        W10607   5.324  14.303  10.919
51171W        W10608  38.833   2.957   4.752
51172W        W10609  44.939   3.257  12.013
51173W        W10610  22.685  22.133  14.836
51174W        W10611  22.161  13.202   3.179
51175W        W10612  18.088  13.120  13.050
51176W        W10613  39.930   7.345  12.546
51177W        W10614  12.231   9.653  11.969
51178W        W10615  22.691  22.687   3.732
51179W        W10616   2.826   3.791  14.826
51180W        W10617  31.549  26.696  14.790
51181W        W10618  21.029   5.429  14.473
51182W        W10619  11.262  19.039   0.439
51183W        W10620  32.515   1.453  10.958
51184W        W10621  20.194  41.802   3.212
51185W        W10622  27.534  37.860  14.893
51186W        W10623  24.517  26.585  13.465
51187W        W10624  29.450   6.187   4.667
51188W        W10625  19.764  36.391  14.302
51189W        W10626  34.040  29.001  14.919
51190W        W10627  37.447   8.196  12.344
51191W        W10628  37.491   7.385  11.435
51192W        W10629  16.614   6.776  11.915
51193W        W10630  35.563  33.091   0.772
51194W        W10631  19.563   2.898   0.340
51195W        W10632   9.291  20.247   1.695
51196W        W10633  44.454  21.202  14.359
51197W        W10634  17.139   4.376  12.351
51198W        W10635  16.685  27.017  13.900
51199W        W10636   1.807  27.575   9.998
51200W        W10637  29.482   8.810   4.151
51201W        W10638  44.763   3.285   1.322
51202W        W10639  37.893  20.586   0.417
51203W        W10640   6.709  18.248  12.027
51204W        W10641   4.250  44.920  13.386
51205W        W10642  28.522  26.655   2.802
51206W        W10643   0.280  22.503  11.465
51207W        W10644  10.364  38.947   1.759
51208W        W10645  40.387  18.233   2.329
51209W        W10646   8.872  12.279  13.395
51210W        W10647  36.972  38.563   0.814
51211W        W10648  13.708  40.364   4.197
51212W        W10649  42.920   7.790   1.389
51213W        W10650   0.839  39.514  11.475
51214W        W10651  27.100  23.076   3.157
51215W        W10652   8.883   5.725   0.865
51216W        W10653   7.258  38.437   1.340
51217W        W10654  18.560  34.380   0.381
51218W        W10655   3.759   3.397  12.577
51219W        W10656  32.061  30.068  11.377
51220W        W10657  24.659  16.581   1.765
51221W        W10658  37.899  33.013  13.062
51222W        W10659  23.031  11.289   0.854
51223W        W10660  44.472  16.666  11.548
51224W        W10661   4.945   3.723  12.953
51225W        W10662  19.104   7.716  13.507
51226W        W10663  17.296  36.039  14.847
51227W        W10664   3.359  40.414   0.441
51228W        W10665  10.865  43.497  10.575
51229W        W10666   0.870  11.172   3.295
51230W        W10667  26.980  31.994  13.873
51231W        W10668  23.170  37.888   4.653
51232W        W10669  17.201  26.476   0.298
51233W        W10670  35.946  27.131   0.805
51234W        W10671  25.988  43.490  12.347
51235W        W10672   0.267  21.702   4.633
51236W        W10673   7.387  20.557  10.989
51237W        W10674  14.801  24.587  11.993
51238W        W10675  21.129  16.765   0.472
51239W        W10676  24.528  44.876   3.688
51240W        W10677  22.587   2.838  14.306
51241W        W10678  23.026  31.937  10.518
51242W        W10679  12.251  42.455   0.872
51243W        W10680  23.187  36.451  14.931
51244W        W10681  13.803  37.079  12.860
51245W        W10682  37.855  35.402   1.260
51246W        W10683  24.134  10.207   1.341
51247W        W10684  38.946  32.585   4.351
51248W        W10685  40.400  26.575   2.740
51249W        W10686  15.126  33.598   1.723
51250W        W10687  43.806  11.190  10.628
51251W        W10688  42.005  33.617  13.426
51252W        W10689   4.913  44.853   1.718
51253W        W10690  20.731  33.965   1.708
51254W        W10691  24.204   8.276  12.536
51255W        W10692  40.378   8.300  12.840
51256W        W10693  16.099  36.062   2.377
51257W        W10694   0.751   1.268   1.728
51258W        W10695  44.464  43.879   2.274
51259W        W10696  28.462  41.913   1.696
51260W        W10697  14.716  25.137  11.013
51261W        W10698  18.253  32.054  11.426
51262W        W10699  34.424   3.225  12.551
51263W        W10700   7.736  23.091   1.319
51264W        W10701   7.719   0.987  14.916
51265W        W10702  12.247  15.785  11.570
51266W        W10703  17.192   9.739   4.296
51267W        W10704  42.388  10.695  14.010
51268W        W10705  42.777  14.666   5.288
51269W        W10706  12.785  40.885  14.375
51270W        W10707  26.479   0.378   2.764
51271W        W10708  10.293   2.809   1.918
51272W        W10709  36.425  40.472  10.897
51273W        W10710   5.838   1.956  14.377
51274W        W10711  22.598  40.020  13.482
51275W        W10712  36.538   5.890  12.367
51276W        W10713  20.150  41.905   5.206
51277W        W10714  10.815  42.347  11.962
51278W        W10715  25.539  12.279  11.882
51279W        W10716  17.672   7.715  13.389
51280W        W10717  20.589   7.275  13.860
51281W        W10718   5.856   6.226  10.614
51282W        W10719  16.744  20.708   3.243
51283W        W10720  34.586  14.603  10.893
51284W        W10721  43.331  27.533   1.782
51285W        W10722  34.399  13.119  14.942
51286W        W10723  14.205  29.074  13.390
51287W        W10724   1.914  10.353  10.951
51288W        W10725  38.431  34.519   4.329
51289W        W10726  41.481  38.005  10.618
51290W        W10727  19.098  40.977  11.079
51291W        W10728  39.808  41.295  11.992
51292W        W10729   0.374   6.826   1.289
51293W        W10730  39.992  13.723   1.911
51294W        W10731  13.700  36.048  14.829
51295W        W10732  13.834   6.188   0.247
51296W        W10733  37.431  32.418   1.800
51297W        W10734  17.634   6.770  10.572
51298W        W10735  18.658  23.525   2.778
51299W        W10736   9.212   1.869   1.839
51300W        W10737  44.304  33.575  14.827
51301W        W10738  27.541  11.668  14.998
51302W        W10739  11.336  23.012   2.698
51303W        W10740  15.286  10.845   1.237
51304W        W10741  19.054  36.348  12.049
51305W        W10742  42.887  43.337   1.228
51306W        W10743   4.346  12.280   2.226
51307W        W10744  36.967  30.546   1.856
51308W        W10745  40.878  12.818   3.797
51309W        W10746   8.300  27.175  14.430
51310W        W10747  33.410  28.958   0.923
51311W        W10748  27.166   7.317  14.796
51312W        W10749  30.574  17.677   0.340
51313W        W10750  16.675  25.991   1.920
51314W        W10751  11.643  43.284  14.806
51315W        W10752  26.147  12.715  13.932
51316W        W10753  32.906  10.267  12.959
51317W        W10754   4.393  27.450  12.850
51318W        W10755  35.988  41.852   3.158
51319W        W10756  36.435  12.725  14.775
51320W        W10757  33.015  31.045   3.351
51321W        W10758  12.307   3.824  10.909
51322W        W10759   9.345   0.788   3.297
51323W        W10760  27.952   6.848   3.701
51324W        W10761  12.835  39.033  14.003
51325W        W10762  25.128  35.407   2.810
51326W        W10763  11.849  12.207  13.439
51327W        W10764   9.861  37.830  13.322
51328W        W10765   2.472  33.071  13.042
51329W        W10766  33.965  31.975  11.494
51330W        W10767  11.732  24.627  13.405
51331W        W10768  44.305  12.154  11.895
51332W        W10769   3.429  24.008  11.862
51333W        W10770  27.115  29.052   1.694
51334W        W10771  13.149  43.323   4.603
51335W        W10772  14.098   6.876   0.828
51336W        W10773  28.107  26.571  13.056
51337W        W10774  28.680  24.707   4.337
51338W        W10775  39.333  32.955   1.788
51339W        W10776  40.393  28.510  10.926
51340W        W10777  30.125  22.676   3.187
51341W        W10778  34.525  38.389   0.404
51342W        W10779  22.656  39.329  13.383
51343W        W10780  15.748  32.131  13.018
51344W        W10781  35.942  36.849  12.082
51345W        W10782  33.934   7.260   2.206
51346W        W10783  21.710   6.693  11.871
51347W        W10784  28.936  34.573   3.747
51348W        W10785   5.261  32.038   4.795
51349W        W10786  16.735  11.717   4.753
51350W        W10787  33.946   9.824  10.564
51351W        W10788   0.793  23.601   1.382
51352W        W10789  41.419   2.286   3.215
51353W        W10790  26.496  21.530  14.978
51354W        W10791   9.336  39.460  14.389
51355W        W10792  12.750   6.303  11.967
51356W        W10793  12.127  43.367  10.490
51357W        W10794  39.560   0.767  10.625
51358W        W10795  17.081  41.307  13.507
51359W        W10796  24.720  28.559   2.362
51360W        W10797  14.664  31.535   2.237
51361W        W10798  10.759  34.545  13.033
51362W        W10799   1.327   7.234  13.883
51363W        W10800  43.476  41.824  12.037
51364W        W10801   8.216   0.298   1.256
51365W        W10802  22.076  38.034   9.646
51366W        W10803  24.603  24.082  13.510
51367W        W10804  24.568  37.052  10.911
51368W        W10805   9.349  17.672   3.676
51369W        W10806   7.816   4.248   3.712
51370W        W10807  40.876   3.759  13.920
51371W        W10808  17.583  41.292   3.243
51372W        W10809  16.801  13.728  12.914
51373W        W10810  31.520  35.456  14.853
51374W        W10811  14.786   7.317   3.724
51375W        W10812  34.429  41.379   4.226
51376W        W10813  17.143  33.083  10.525
51377W        W10814  37.994   3.235   4.182
51378W        W10815   9.297  23.109  13.848
51379W        W10816  23.108  43.883   1.773
51380W        W10817  30.987   7.911  14.375
51381W        W10818  21.067   9.698  14.469
51382W        W10819  31.647  20.196   2.898
51383W        W10820   1.339   5.829   0.426
51384W        W10821   1.388  36.075  10.931
51385W        W10822  31.495  27.160   0.255
51386W        W10823  44.912  43.909  12.876
51387W        W10824  33.994  32.059  12.035
51388W        W10825  27.558  29.666   1.275
51389W        W10826  38.544  43.869   1.269
51390W        W10827  31.004  18.212  10.503
51391W        W10828  24.019  11.148  12.515
51392W        W10829  28.532  40.922  14.888
51393W        W10830  34.067  26.050  11.534
51394W        W10831   6.785  24.532   4.808
51395W        W10832  25.537  34.527  10.469
51396W        W10833  42.308   9.830  13.994
51397W        W10834  11.856  39.024  12.352
51398W        W10835  11.195  27.087   1.923
51399W        W10836  24.181   8.719   5.174
51400W        W10837  20.078  31.644  14.481
51401W        W10838  39.989  17.617   1.696
51402W        W10839  31.977   3.904   2.209
51403W        W10840  38.003  37.856  11.101
51404W        W10841  14.155  42.944  11.558
51405W        W10842  13.154   1.842  13.868
51406W        W10843   5.314  37.934   2.674
51407W        W10844  20.111   9.816  14.292
51408W        W10845  40.396  39.430   0.374
51409W        W10846   3.404  24.041  13.442
51410W        W10847  26.151   4.815  13.437
51411W        W10848  40.534  28.077   3.239
51412W        W10849  21.188  24.483  10.967
51413W        W10850   3.716   0.332  13.368
51414W        W10851   4.882  38.823  11.009
51415W        W10852  30.622   5.892   2.351
51416W        W10853  26.037  30.147   4.234
51417W        W10854   1.853   8.672  11.931
51418W        W10855  27.447  29.499  11.970
51419W        W10856   0.317  12.143   5.151
51420W        W10857  14.253  20.103  12.498
51421W        W10858  23.593  24.044   3.314
51422W        W10859  33.572  12.739   2.268
51423W        W10860  37.397  16.215  12.895
51424W        W10861  21.142  23.509   4.822
51425W        W10862  32.135  12.318  12.864
51426W        W10863  12.750  24.617   1.788
51427W        W10864   7.824  32.088  12.561
51428W        W10865  26.016  43.380  13.961
51429W        W10866  36.438   5.363  14.368
51430W        W10867  11.207  41.364   4.627
51431W        W10868  38.434   1.789  14.789
51432W        W10869  11.677  21.139   3.283
51433W        W10870  40.468   8.691   0.966
51434W        W10871  30.016  25.995  12.493
51435W        W10872  18.052   7.879  10.472
51436W        W10873  17.638  38.849   4.337
51437W        W10874  35.426  37.924   1.908
51438W        W10875  12.651   7.810   4.113
51439W        W10876  14.162   6.746   1.258
51440W        W10877   5.230  44.502  13.814
51441W        W10878  43.392  27.611   0.764
51442W        W10879   5.203  14.801   9.641
51443W        W10880  30.936  23.210  13.442
51444W        W10881  34.084  38.063   3.805
51445W        W10882   1.870  24.713   3.343
51446W        W10883  31.099   1.872  11.392
51447W        W10884   6.279  13.715  13.509
51448W        W10885  26.670  20.597   3.821
51449W        W10886   1.281  28.565   2.864
51450W        W10887   5.335  24.037   0.344
51451W        W10888  27.565  29.059   3.702
51452W        W10889  34.562  37.919   1.301
51453W        W10890   5.243   9.355  13.471
51454W        W10891   9.248   5.232   1.915
51455W        W10892   5.768   3.305   0.916
51456W        W10893   8.321  36.842  13.817
51457W        W10894  36.870  14.229  14.379
51458W        W10895  38.951   4.800   5.255
51459W        W10896  38.494   7.402  12.005
51460W        W10897  31.508   2.766  14.387
51461W        W10898  22.501  15.596   4.299
51462W        W10899  29.528  16.130  11.553
51463W        W10900  41.879  16.701  13.021
51464W        W10901  15.808  35.037   3.843
51465W        W10902  41.993  35.600   4.623
51466W        W10903  30.432   5.254   4.632
51467W        W10904  18.552  12.268   0.850
51468W        W10905  12.311  21.517  11.594
51469W        W10906  14.700   1.974  14.447
51470W        W10907  11.200  35.589   0.414
51471W        W10908   2.929   1.836  13.836
51472W        W10909   5.417  16.209   0.819
51473W        W10910   8.267  22.206  14.800
51474W        W10911  18.639  21.557   4.717
51475W        W10912  21.737  21.142   3.360
51476W        W10913  10.346   1.914  12.547
51477W        W10914  18.096  35.522   2.713
51478W        W10915  43.340  31.576   2.233
51479W        W10916  10.849  33.932   3.211
51480W        W10917  32.522  13.793  13.422
51481W        W10918  16.193  28.531   0.454
51482W        W10919  37.004  38.521  12.882
51483W        W10920  11.665  39.841  14.029
51484W        W10921  36.943  26.147  11.531
51485W        W10922  17.560   1.481  14.283
51486W        W10923  40.497  14.209   0.340
51487W        W10924  40.517  24.054   1.424
51488W        W10925   8.875  24.184   2.265
51489W        W10926  42.440   1.321   0.726
51490W        W10927  29.063  20.535  11.571
51491W        W10928  37.538  28.573   4.730
51492W        W10929  14.706  33.991  14.954
51493W        W10930  10.384  42.287  12.910
51494W        W10931  34.974  10.271   0.859
51495W        W10932   1.434   3.407   0.736
51496W        W10933  36.033  12.673   1.881
51497W        W10934  41.925   0.338  10.071
51498W        W10935  21.550  42.421   3.705
51499W        W10936  42.845  18.185  10.105
51500W        W10937  31.146   0.970  12.347
51501W        W10938  12.647  12.681  13.465
51502W        W10939  37.363  38.446   3.338
51503W        W10940  34.555  37.410  14.009
51504W        W10941  26.660  21.616  13.973
51505W        W10942  36.396   3.392   0.916
51506W        W10943  42.923  42.408  14.761
51507W        W10944  12.665   8.819   1.773
51508W        W10945   8.895  18.753   4.309
51509W        W10946  23.516  19.740  11.503
51510W        W10947  22.720  43.020  10.109
51511W        W10948  35.508  26.086   4.641
51512W        W10949  43.432  32.031   3.362
51513W        W10950   4.315  14.158   9.999
51514W        W10951  12.760  33.001  10.560
51515W        W10952  15.788  19.109   4.820
51516W        W10953  37.562   6.901  12.554
51517W        W10954  41.882   0.871   4.277
51518W        W10955  10.666  10.875   4.799
51519W        W10956  18.260  40.972   0.868
51520W        W10957  31.122  23.655   9.659
51521W        W10958  39.427  10.381  10.984
51522W        W10959  38.850  44.383  10.571
51523W        W10960  17.631  43.849   2.281
51524W        W10961  21.225  12.641  11.914
51525W        W10962   2.942  23.059  13.923
51526W        W10963  11.268  23.580   2.748
51527W        W10964   7.403  41.972   1.252
51528W        W10965  11.238  39.022  13.350
51529W        W10966  16.733  17.749  12.963
51530W        W10967  20.561   8.384  12.886
51531W        W10968  44.816   0.305   3.378
51532W        W10969   8.667  30.517   4.239
51533W        W10970  16.611  26.700  14.813
51534W        W10971  10.275  23.582   4.211
51535W        W10972  35.364  27.488   0.393
51536W        W10973  11.340  40.989  12.088
51537W        W10974   9.838  20.254   3.369
51538W        W10975  35.417  34.963   4.324
51539W        W10976  29.158   8.193   1.363
51540W        W10977  15.204  17.123   1.845
51541W        W10978   0.466  34.924  12.406
51542W        W10979  32.592  42.289  11.398
51543W        W10980  13.795  10.729  12.941
51544W        W10981  43.350  43.400  12.885
51545W        W10982   8.856  10.688   1.411
51546W        W10983  27.509  28.664  13.403
51547W        W10984  20.101  26.477   2.815
51548W        W10985  12.806  24.561   1.328
51549W        W10986   2.405  33.551   4.286
51550W        W10987  39.044   7.193   9.967
51551W        W10988  24.112   1.867  10.428
51552W        W10989   8.836  24.714   1.410
51553W        W10990  37.042  28.460  14.467
51554W        W10991  10.235  44.359   2.224
51555W        W10992   2.843   6.703   2.291
51556W        W10993  27.561  35.424  12.062
51557W        W10994  43.900  36.084   1.837
51558W        W10995  35.411  31.954  14.460
51559W        W10996  13.181   1.864   3.801
51560W        W10997   7.399  35.533   3.732
51561W        W10998  22.012   6.697   4.238
51562W        W10999  23.518  24.538   2.316
51563W        W11000  14.624   8.287  11.093
51564W        W11001  43.982  26.123   0.948
51565W        W11002  17.770   2.899  11.000
51566W        W11003  13.665  10.220   4.668
51567W        W11004  32.116  35.598   4.690
51568W        W11005  16.088   6.243   1.768
51569W        W11006  42.890  13.611   3.788
51570W        W11007  10.284  23.527  14.368
51571W        W11008  43.953  33.008   3.641
51572W        W11009  36.894  36.972  12.013
51573W        W11010  24.184  22.212   1.742
51574W        W11011   0.295  27.089   1.387
51575W        W11012  28.003   1.277  11.513
51576W        W11013  24.656   7.805   4.352
51577W        W11014  21.228  15.110   4.600
51578W        W11015  24.612  20.660  12.558
51579W        W11016  12.259  11.637  12.530
51580W        W11017  37.444  18.289  11.470
51581W        W11018  12.689   9.287   2.229
51582W        W11019  14.127  30.590  11.885
51583W        W11020  32.619   2.290   1.770
51584W        W11021  16.104  41.476  11.973
51585W        W11022  32.578   9.709   1.755
51586W        W11023   0.356   9.709  12.484
51587W        W11024  18.250   6.800  12.962
51588W        W11025   2.934  18.692  12.478
51589W        W11026  22.512  32.013  12.495
51590W        W11027   0.821  39.925   2.414
51591W        W11028   1.258  26.507   4.153
51592W        W11029   3.253  43.821  14.441
51593W        W11030   3.441   0.262   3.183
51594W        W11031  36.875   5.245   4.330
51595W        W11032  39.029  18.174   1.296
51596W        W11033  16.158  18.609  11.999
51597W        W11034  22.563  38.022  11.857
51598W        W11035  19.150  16.615  13.033
51599W        W11036  31.524  20.551   0.254
51600W        W11037  24.491  37.002  14.313
51601W        W11038  19.609   1.316   2.710
51602W        W11039  12.776  42.483  10.087
51603W        W11040  12.732  10.247   2.361
51604W        W11041  22.566  11.331  14.363
51605W        W11042  27.626   5.878   1.864
51606W        W11043  14.279  16.622   0.293
51607W        W11044  15.668  24.682  11.511
51608W        W11045  26.972  20.631   3.311
51609W        W11046  26.073  13.327  11.038
51610W        W11047  37.936  36.001   5.119
51611W        W11048  42.317  16.212   4.219
51612W        W11049  30.939  43.975  12.428
51613W        W11050   8.310  43.869  10.404
51614W        W11051  34.053  26.658   0.956
51615W        W11052  15.152  21.032   2.259
51616W        W11053  38.966  44.996   1.315
51617W        W11054  16.155  35.516  13.995
51618W        W11055  28.625  16.271   4.717
51619W        W11056  23.086  29.575   0.390
51620W        W11057   4.417   3.247   3.243
51621W        W11058   1.243  18.168  14.374
51622W        W11059  15.757  19.541  12.551
51623W        W11060  23.183  14.663  10.614
51624W        W11061  12.737  29.035   0.795
51625W        W11062  24.226  17.591  13.532
51626W        W11063   1.820   1.753   0.731
51627W        W11064  30.069  23.507  13.834
51628W        W11065  22.609  26.459   1.302
51629W        W11066   8.290  13.822  10.423
51630W        W11067  35.492   4.324  13.383
51631W        W11068  16.667  14.186  10.607
51632W        W11069  40.933  15.107   1.921
51633W        W11070  40.400  22.011  14.805
51634W        W11071  41.020   8.832   3.819
51635W        W11072  20.643  17.674   9.948
51636W        W11073  26.702  37.373   4.795
51637W        W11074  32.056  30.002  14.516
51638W        W11075  19.741  41.340   1.282
51639W        W11076  11.624   2.284  10.642
51640W        W11077  42.787   0.767   2.679
51641W        W11078  28.680  12.149  12.390
51642W        W11079  12.147   1.968  13.539
51643W        W11080  40.373  10.279  14.364
51644W        W11081  16.712  43.000   4.335
51645W        W11082  12.822  39.935   0.372
51646W        W11083  19.756   3.278   3.763
51647W        W11084  36.950  37.981   3.369
51648W        W11085  14.192  24.981  11.585
51649W        W11086  42.804   9.172  13.040
51650W        W11087  43.351  34.455  14.415
51651W        W11088  32.126  32.400  13.335
51652W        W11089   2.819   5.268  10.517
51653W        W11090  39.858  37.355  12.826
51654W        W11091  33.587  41.859   3.386
51655W        W11092  29.173  13.246  12.573
51656W        W11093  34.997   2.727   0.789
51657W        W11094  30.616  30.953   1.799
51658W        W11095  38.436  19.077   4.221
51659W        W11096  21.098   2.827  14.393
51660W        W11097   1.351  37.522  10.568
51661W        W11098  17.629  13.147   2.755
51662W        W11099  21.616  31.481   1.927
51663W        W11100  35.451  43.448   2.231
51664W        W11101  41.797   7.229  13.878
51665W        W11102  25.648   5.828  12.057
51666W        W11103  27.453  24.555   9.956
51667W        W11104  28.984   0.262   2.325
51668W        W11105  44.414  14.191   0.841
51669W        W11106  26.590   1.297   0.413
51670W        W11107  11.372   7.400  14.505
51671W        W11108  20.151  42.401  14.413
51672W        W11109  11.805  12.144   1.377
51673W        W11110  30.159  20.249   4.322
51674W        W11111   3.337  43.504  13.378
51675W        W11112  17.241   6.772  11.591
51676W        W11113  32.969  17.111  11.017
51677W        W11114   6.421   7.238  13.031
51678W        W11115   1.786  29.956   3.676
51679W        W11116  14.808  30.565   4.173
51680W        W11117  11.224  13.759  13.845
51681W        W11118  38.940  14.693   3.828
51682W        W11119  27.161  27.078  10.936
51683W        W11120  31.635  10.306  13.370
51684W        W11121  25.681   6.310   9.974
51685W        W11122  30.004  30.531   1.278
51686W        W11123   5.288   1.380  10.588
51687W        W11124  27.121  16.269   3.702
51688W        W11125  44.467   5.705  10.115
51689W        W11126  24.113  29.072  13.390
51690W        W11127  32.627  20.262   3.165
51691W        W11128   8.675  41.788  11.099
51692W        W11129  20.030  30.567  12.014
51693W        W11130   7.351  21.249   4.225
51694W        W11131   3.286   4.363   4.258
51695W        W11132  12.194  23.551  11.089
51696W        W11133  43.935  14.239  13.003
51697W        W11134  20.750   9.852  11.907
51698W        W11135   7.787  39.363   4.674
51699W        W11136  29.546  43.942  10.525
51700W        W11137  22.108  23.096   9.928
51701W        W11138   5.860  28.118   3.862
51702W        W11139  38.881  40.383   0.807
51703W        W11140  27.661  23.674   3.632
51704W        W11141  36.384  32.098   0.877
51705W        W11142  19.540  33.975   4.836
51706W        W11143  12.348  43.383  11.915
51707W        W11144  44.918   9.186  12.991
51708W        W11145  40.830  28.072  13.396
51709W        W11146  10.706  22.186   4.808
51710W        W11147  34.939  16.099   2.402
51711W        W11148  29.011  22.539  14.363
51712W        W11149   2.869  34.540   1.716
51713W        W11150  21.076  38.879   2.900
51714W        W11151  19.659  31.107   2.896
51715W        W11152   5.264  33.533  10.899
51716W        W11153   5.783  24.682   5.637
51717W        W11154  39.008  35.049   3.341
51718W        W11155  42.838   2.736  12.509
51719W        W11156  36.515  40.955  12.083
51720W        W11157  38.923  43.011  13.328
51721W        W11158   8.257  44.871   1.399
51722W        W11159  29.939  38.908  14.442
51723W        W11160   4.798  37.047  14.328
51724W        W11161   1.782  44.969  11.872
51725W        W11162   0.923  39.961   4.298
51726W        W11163   7.238  15.282  12.440
51727W        W11164  38.008  12.797  12.349
51728W        W11165  12.792  33.131   2.317
51729W        W11166  16.620  39.392   3.808
51730W        W11167  13.675  23.105   1.437
51731W        W11168  17.801  34.491  14.931
51732W        W11169  40.830  16.725   1.697
51733W        W11170   0.273   7.690   1.773
51734W        W11171  44.386  20.246   2.813
51735W        W11172  39.906  12.659  12.498
51736W        W11173   3.827  33.402   0.761
51737W        W11174  14.273  33.548   5.182
51738W        W11175  41.395   4.251  14.777
51739W        W11176  27.684   9.694  11.508
51740W        W11177   2.415   3.364   2.846
51741W        W11178   5.212  11.647  10.039
51742W        W11179   3.944  17.163  10.041
51743W        W11180  24.013  20.140   3.339
51744W        W11181  29.977  25.202  12.992
51745W        W11182  25.673  34.919  11.451
51746W        W11183  29.590   1.421  11.052
51747W        W11184  21.224  10.787  12.393
51748W        W11185  25.213  12.800  13.339
51749W        W11186  37.572  19.582   1.418
51750W        W11187  37.415  15.117  12.980
51751W        W11188   0.444  17.139   2.220
51752W        W11189   9.791  42.789  14.967
51753W        W11190  16.609  19.743   3.314
51754W        W11191  40.325   4.753   3.323
51755W        W11192  13.658  37.847   0.826
51756W        W11193  11.218  13.244   0.878
51757W        W11194  19.769  35.392   2.274
51758W        W11195  33.946  28.036  11.554
51759W        W11196  33.624  27.006  11.494
51760W        W11197  25.058  40.438  10.887
51761W        W11198  11.310  16.680   3.366
51762W        W11199  13.744  19.630  12.411
51763W        W11200  28.186  18.090  13.879
51764W        W11201   7.358  10.230   3.834
51765W        W11202  43.918  38.366  13.396
51766W        W11203  29.970   1.902   3.328
51767W        W11204  10.632  30.578  10.420
51768W        W11205  13.619  41.909  12.054
51769W        W11206  42.492  37.088  14.505
51770W        W11207  41.825   2.927  13.917
51771W        W11208  30.091  23.101  12.973
51772W        W11209  21.071   9.301  11.420
51773W        W11210   9.166  10.752  13.912
51774W        W11211  34.487  12.301   3.637
51775W        W11212  32.552  41.892   0.739
51776W        W11213  25.499  40.921  11.582
51777W        W11214  42.903  10.632   0.424
51778W        W11215  43.788  11.277  10.900
51779W        W11216  32.483  31.131  10.949
51780W        W11217  43.016   4.322  14.885
51781W        W11218  43.907  14.772  12.939
51782W        W11219  10.248  26.031   4.227
51783W        W11220   2.332  34.894   3.864
51784W        W11221  31.093  34.455  14.832
51785W        W11222   6.388  34.505   0.873
51786W        W11223   5.257  11.154  14.378
51787W        W11224  40.511  42.953   0.741
51788W        W11225   7.259  12.279  13.888
51789W        W11226   4.409   8.840  14.504
51790W        W11227  30.916  15.821  14.906
51791W        W11228  38.479  20.712  10.493
51792W        W11229  37.479  32.044   3.789
51793W        W11230  19.059  17.272  12.440
51794W        W11231  12.677  25.106   1.829
51795W        W11232  29.926  43.464  14.488
51796W        W11233  14.657  31.130  11.064
51797W        W11234  14.737  15.100  13.469
51798W        W11235   0.796   3.830  10.449
51799W        W11236   5.420  44.971  10.930
51800W        W11237   1.275  39.932  13.336
51801W        W11238  43.832  42.312   0.750
51802W        W11239   7.694  27.041   2.366
51803W        W11240  39.931  40.502  14.816
51804W        W11241  33.586  31.541  14.812
51805W        W11242  27.452  30.504   1.890
51806W        W11243  17.794  21.753  14.436
51807W        W11244   1.923  14.310   1.759
51808W        W11245   5.822   3.313  13.448
51809W        W11246  10.870  30.151  13.012
51810W        W11247  21.699  31.977   4.784
51811W        W11248  43.421  37.837  14.298
51812W        W11249  23.733   5.923  11.069
51813W        W11250  22.148  37.518   3.847
51814W        W11251  14.178  22.112  14.383
51815W        W11252   5.340  12.812   3.271
51816W        W11253   6.274  26.140   0.399
51817W        W11254   1.944  10.377   0.782
51818W        W11255  35.892  31.951   2.690
51819W        W11256   3.923  17.176   2.243
51820W        W11257  30.019  39.817  10.939
51821W        W11258  43.781  44.391   0.305
51822W        W11259  18.765  10.682   2.370
51823W        W11260  38.882  12.789  14.959
51824W        W11261   6.791  22.559   0.786
51825W        W11262  17.122  32.898   4.143
51826W        W11263   3.420  44.400   5.201
51827W        W11264  19.280   1.771  14.917
51828W        W11265   0.893  33.601  10.602
51829W        W11266  13.787   3.902  11.471
51830W        W11267  22.532  37.581  11.582
51831W        W11268  28.122  15.604  11.545
51832W        W11269   9.256  42.381  10.933
51833W        W11270  17.073   4.341  13.371
51834W        W11271   7.772  37.071   3.203
51835W        W11272   1.271  43.930   0.919
51836W        W11273  13.324   7.841  14.786
51837W        W11274  28.572  22.201  10.585
51838W        W11275  26.975   7.186  14.305
51839W        W11276  34.467  37.412  13.032
51840W        W11277   4.853  18.075   4.743
51841W        W11278  37.027   2.821  14.761
51842W        W11279  11.225  21.093  10.406
51843W        W11280  43.848  14.156  12.085
51844W        W11281   2.401  27.065  12.388
51845W        W11282  29.138   7.336   2.887
51846W        W11283  15.123  32.051   0.463
51847W        W11284  37.906  26.664  11.102
51848W        W11285  39.857  17.744   3.275
51849W        W11286   0.922  43.953   0.319
51850W        W11287  28.025  22.681  11.500
51851W        W11288   6.856  43.300   3.857
51852W        W11289  42.461  20.748   0.959
51853W        W11290  41.321  22.685   4.115
51854W        W11291   2.403   5.719  13.884
51855W        W11292  17.297   9.309   1.748
51856W        W11293   5.286  12.613   2.358
51857W        W11294  24.198  40.328  13.834
51858W        W11295  21.576  10.827   4.249
51859W        W11296  13.770  16.101  12.889
51860W        W11297  16.195   5.415   4.135
51861W        W11298   7.241  16.301   0.293
51862W        W11299   2.767  25.612  12.406
51863W        W11300  27.691  44.373  11.498
51864W        W11301  12.128  28.991   0.310
51865W        W11302   1.238  17.628   9.482
51866W        W11303  19.717  36.382  12.488
51867W        W11304  41.449  38.395  13.978
51868W        W11305   3.279  16.795  11.536
51869W        W11306  11.349  35.445   3.304
51870W        W11307  19.601  36.875  14.770
51871W        W11308   7.250  32.072  13.027
51872W        W11309   3.330   2.347   2.674
51873W        W11310  33.503  19.185   1.424
51874W        W11311  22.043  35.514   4.727
51875W        W11312   1.816  34.034   0.248
51876W        W11313  22.143  20.765  11.906
51877W        W11314  21.062   8.867   3.206
51878W        W11315   3.751   5.267  13.922
51879W        W11316  41.033   9.264   1.387
51880W        W11317  39.879  19.760   3.298
51881W        W11318  24.678   0.764  12.342
51882W        W11319   5.426  39.875   3.282
51883W        W11320  39.452  15.288   0.767
51884W        W11321   5.223  33.040  12.538
51885W        W11322   0.271  17.098   4.305
51886W        W11323  13.651  23.034  11.860
51887W        W11324  36.956   4.237  14.370
51888W        W11325  44.325   6.335   3.252
51889W        W11326  38.395   0.268   0.830
51890W        W11327  13.755  27.106   3.762
51891W        W11328  34.984  44.983  12.430
51892W        W11329   7.824  24.545   3.709
51893W        W11330  26.699  43.817  12.847
51894W        W11331  27.081   9.752  11.594
51895W        W11332  18.608   9.646   2.845
51896W        W11333  29.940   1.753  12.829
51897W        W11334  16.076   5.281   2.229
51898W        W11335  10.643  44.319   2.274
51899W        W11336  29.934  31.053  11.470
51900W        W11337  42.525  27.502  11.426
51901W        W11338   8.206   5.734   0.287
51902W        W11339  31.907  11.639   0.808
51903W        W11340   1.311  34.920   1.908
51904W        W11341  33.938  34.451  14.902
51905W        W11342  25.620  21.094  14.762
51906W        W11343   1.337  32.574  10.645
51907W        W11344  41.845  35.538  10.937
51908W        W11345  16.112  41.395   3.842
51909W        W11346  36.985  36.481  11.422
51910W        W11347  22.038  16.769   1.342
51911W        W11348  33.397  22.026  11.576
51912W        W11349  37.366   4.913   0.333
51913W        W11350  21.612  38.404   2.285
51914W        W11351  44.389   2.722   5.132
51915W        W11352   1.458  20.644  13.905
51916W        W11353  32.531  33.423   0.390
51917W        W11354   3.276   0.415   4.172
51918W        W11355  32.498   6.293   1.372
51919W        W11356  39.931  40.928  10.636
51920W        W11357  31.102  40.012  13.842
51921W        W11358   1.240  27.537   2.372
51922W        W11359  34.096  22.170  11.952
51923W        W11360   9.665  14.193   4.183
51924W        W11361  34.899  28.027   3.218
51925W        W11362  42.480  24.586   3.342
51926W        W11363  22.012   0.879   2.222
51927W        W11364   1.360   1.784   4.272
51928W        W11365   3.391   0.271  12.484
51929W        W11366  34.406  33.968   4.167
51930W        W11367  41.309  40.398   0.387
51931W        W11368   6.716  12.215   0.370
51932W        W11369  13.170   6.346   1.792
51933W        W11370   4.804  10.291  10.529
51934W        W11371  36.419  34.397  11.933
51935W        W11372  37.968   0.932   4.141
51936W        W11373  24.625  23.026  13.895
51937W        W11374  24.504   2.774   4.786
51938W        W11375  40.838  42.795   2.397
51939W        W11376  23.986  17.696  11.987
51940W        W11377  35.056  39.936   1.376
51941W        W11378   6.365  28.037  12.396
51942W        W11379  15.657   6.248  10.929
51943W        W11380   6.219  13.839   0.422
51944W        W11381  13.693  27.180   0.948
51945W        W11382  32.988  17.173   4.660
51946W        W11383  26.046  11.725   1.274
51947W        W11384  43.887  42.330  13.328
51948W        W11385   0.797   4.784   1.755
51949W        W11386  44.402  19.181   1.934
51950W        W11387  33.599  15.631   4.691
51951W        W11388   6.898  31.561   3.664
51952W        W11389  36.076  12.253   2.396
51953W        W11390   5.858  23.597  10.981
51954W        W11391   1.397   7.684  14.370
51955W        W11392  25.479  44.287  12.926
51956W        W11393  24.033  25.971   1.798
51957W        W11394  26.584  18.278   2.800
51958W        W11395  15.115   2.771  14.912
51959W        W11396   5.859  43.907   0.859
51960W        W11397   2.758  24.002   1.801
51961W        W11398  25.069  18.287   3.805
51962W        W11399   6.775  43.854  10.433
51963W        W11400  14.682  30.553   0.793
51964W        W11401  23.027  44.900   0.945
51965W        W11402  26.562  22.033  13.909
51966W        W11403  16.224  30.487  12.449
51967W        W11404   5.205   2.788   2.236
51968W        W11405  36.044   7.772   4.134
51969W        W11406  34.488   8.368  13.791
51970W        W11407  35.549  27.945   0.938
51971W        W11408  19.083  33.066   3.749
51972W        W11409  37.946  15.789   3.680
51973W        W11410   1.937   5.396   4.284
51974W        W11411  31.421  19.716   1.742
51975W        W11412  12.249   7.880  13.835
51976W        W11413  17.677  25.218  12.416
51977W        W11414   9.776  23.613  14.816
51978W        W11415  25.979  25.704   0.892
51979W        W11416  14.241  17.139  14.458
51980W        W11417  13.632   6.781   0.953
51981W        W11418  15.198  27.163  10.968
51982W        W11419  12.783   3.711   3.354
51983W        W11420  30.462  31.561   2.294
51984W        W11421   0.950  22.530   0.298
51985W        W11422  43.855   3.842   4.206
51986W        W11423  24.519  26.179  13.011
51987W        W11424  11.355  14.665  13.975
51988W        W11425   2.310  31.410   1.801
51989W        W11426  14.148   3.449   1.696
51990W        W11427  29.490  40.968  13.354
51991W        W11428  34.462  36.381  11.129
51992W        W11429  29.059  23.660   3.215
51993W        W11430  33.017  24.529   2.287
51994W        W11431  42.306   1.476  10.514
51995W        W11432  16.106  38.835   3.821
51996W        W11433  30.639   9.743   4.194
51997W        W11434  18.063  40.481   3.321
51998W        W11435   9.198  35.010  10.532
51999W        W11436  11.300  16.270  13.965
52000W        W11437  27.587  23.062  11.970
52001W        W11438  33.417  36.483  12.532
52002W        W11439  21.038  38.519  13.932
52003W        W11440  36.587  28.985   2.369
52004W        W11441   8.234   3.945  12.352
52005W        W11442  39.976  34.024  12.903
52006W        W11443  24.225  21.198  13.396
52007W        W11444   1.754  27.521  10.611
52008W        W11445  23.115  14.275   2.788
52009W        W11446  31.633  32.400   2.178
52010W        W11447  21.035   4.930   0.430
52011W        W11448  10.199   3.884  14.896
52012W        W11449  30.001  41.976   4.289
52013W        W11450  25.540  39.555   1.813
52014W        W11451  11.185  14.129  12.877
52015W        W11452  30.132  34.066  14.505
52016W        W11453  21.540  10.672  13.860
52017W        W11454  27.631  14.740  11.944
52018W        W11455  31.010  35.513  10.471
52019W        W11456  12.327  12.799   1.430
52020W        W11457  39.411  19.248   2.323
52021W        W11458  10.691  10.809  13.388
52022W        W11459  13.168  22.033  14.778
52023W        W11460  29.027  27.156  12.578
52024W        W11461  11.748  29.168   0.431
52025W        W11462  44.939  33.580  14.878
52026W        W11463   0.795  25.640   0.467
52027W        W11464   3.818  18.165   4.712
52028W        W11465   0.365  38.961  10.629
52029W        W11466   7.797   1.312   0.258
52030W        W11467   6.681  39.884  13.861
52031W        W11468  34.441  13.645  13.037
52032W        W11469   6.334  27.102  12.429
52033W        W11470  30.062  42.470   3.284
52034W        W11471   7.863  36.948  10.970
52035W        W11472  20.711  27.480   3.818
52036W        W11473  11.138  39.062  11.942
52037W        W11474  11.643  29.114   4.606
52038W        W11475  30.510  28.040   1.237
52039W        W11476  12.249  34.061   1.387
52040W        W11477  19.051  20.159  12.398
52041W        W11478   0.915  40.385   2.244
52042W        W11479  11.776  41.467  13.399
52043W        W11480  20.220  26.655   0.314
52044W        W11481  36.011  34.536   3.824
52045W        W11482  24.606  13.618  12.445
52046W        W11483  26.549  26.489  10.556
52047W        W11484  17.161  17.738  12.840
52048W        W11485  29.058  11.224  12.502
52049W        W11486   6.370  20.651   3.766
52050W        W11487  21.730  32.901  12.380
52051W        W11488   0.465  13.633   5.578
52052W        W11489  30.025   5.897   3.361
52053W        W11490  18.124  35.964   1.921
52054W        W11491  11.143  38.022  11.982
52055W        W11492  20.271  29.564   3.857
52056W        W11493  42.870  44.486  14.776
52057W        W11494   3.744   5.439  10.609
52058W        W11495  40.830   3.346  13.932
52059W        W11496  42.969  12.234   0.401
52060W        W11497  26.200  14.774   0.764
52061W        W11498  43.409  15.579  14.878
52062W        W11499  35.403  31.000  12.842
52063W        W11500   8.777  28.658   4.282
52064W        W11501  41.503   5.251   3.243
52065W        W11502   7.782  28.978  14.834
52066W        W11503  42.928  22.043  11.559
52067W        W11504   4.312   4.231  11.583
52068W        W11505  41.296   0.957   3.800
52069W        W11506  30.502  22.141  13.835
52070W        W11507  27.487  41.469  11.034
52071W        W11508  38.916  44.854   0.788
52072W        W11509   4.859   8.332   0.463
52073W        W11510   5.327  24.181   0.947
52074W        W11511   9.870  32.001   2.698
52075W        W11512  40.800  41.791  14.427
52076W        W11513   0.911  30.153  14.862
52077W        W11514  29.517  43.011  13.837
52078W        W11515  23.601  22.062  13.879
52079W        W11516  27.166  30.580  13.349
52080W        W11517  42.467  17.180  14.979
52081W        W11518  44.465  27.106   2.895
52082W        W11519  28.982  24.720  13.317
52083W        W11520  19.042  35.546   0.960
52084W        W11521  10.805  19.542   4.263
52085W        W11522  37.898   8.711  11.997
52086W        W11523  30.607  13.348   4.182
52087W        W11524   9.821  21.245  13.929
52088W        W11525  19.108  39.829   2.371
52089W        W11526  13.339  40.392  10.559
52090W        W11527  10.201  41.872  13.340
52091W        W11528   6.885   4.219   4.270
52092W        W11529  23.233  44.933   4.707
52093W        W11530  38.851  39.954   2.315
52094W        W11531  13.780  12.247   4.148
52095W        W11532  20.060  11.332  11.542
52096W        W11533  21.673  37.895  10.411
52097W        W11534  18.179  28.452   4.249
52098W        W11535   7.855  10.300  12.868
52099W        W11536  32.525   2.342  13.441
52100W        W11537   1.777  32.554   4.131
52101W        W11538   5.712  15.597   3.712
52102W        W11539  19.556   2.962   3.263
52103W        W11540  33.620  21.126  12.343
52104W        W11541  38.477  19.745  10.528
52105W        W11542  43.955  43.804  13.433
52106W        W11543  22.617  21.701   3.804
52107W        W11544  21.181  33.440  11.089
52108W        W11545  24.686  25.481  13.429
52109W        W11546  21.074  14.826  14.005
52110W        W11547  26.034  10.726  13.545
52111W        W11548  26.616  37.969   0.857
52112W        W11549   9.814   3.814  10.636
52113W        W11550  20.243  34.565   4.831
52114W        W11551  30.622  41.937  12.403
52115W        W11552  37.516   3.266  14.296
52116W        W11553  42.475  11.761   4.297
52117W        W11554  37.497   1.883   0.378
52118W        W11555  18.730  43.826  11.464
52119W        W11556  19.247  37.833   2.341
52120W        W11557  30.631  30.950  11.870
52121W        W11558  12.748  38.019  10.993
52122W        W11559  11.771  35.586   3.647
52123W        W11560   7.873  12.783   4.761
52124W        W11561  35.069  40.998  14.508
52125W        W11562  36.031  36.857  10.078
52126W        W11563  34.375  42.942  13.958
52127W        W11564  17.722  27.623   2.286
52128W        W11565  20.732  41.476  11.604
52129W        W11566  27.481  26.487  13.044
52130W        W11567  23.049  15.249  14.783
52131W        W11568  19.715  20.658  11.538
52132W        W11569  10.671  22.536   2.662
52133W        W11570   2.277  37.354   3.327
52134W        W11571   3.270  27.614  12.366
52135W        W11572  27.975  43.350  14.830
52136W        W11573  31.412  37.437  11.065
52137W        W11574  15.770  35.028  14.488
52138W        W11575   9.175  24.122  11.966
52139W        W11576  23.111  23.163   4.701
52140W        W11577  27.006  34.967   3.386
52141W        W11578   6.188  30.646   5.207
52142W        W11579  43.354   1.451  14.800
52143W        W11580  27.988  34.120   3.669
52144W        W11581  26.550  20.191   1.716
52145W        W11582  13.298   3.911  11.884
52146W        W11583  16.261   7.331   1.272
52147W        W11584  27.648   7.838  11.977
52148W        W11585  43.840   3.831  10.530
52149W        W11586  37.860  11.173   1.283
52150W        W11587  39.981  15.170  13.530
52151W        W11588  28.459  40.471   4.344
52152W        W11589  14.713  40.912   4.154
52153W        W11590  40.943  11.689  12.365
52154W        W11591  13.314  26.474  12.432
52155W        W11592   2.468  26.542   1.210
52156W        W11593  44.972  39.961   4.331
52157W        W11594   3.849  18.740  13.440
52158W        W11595  34.535  17.746   2.400
52159W        W11596   8.215  34.537  13.363
52160W        W11597   7.803   1.831   2.406
52161W        W11598   2.822  42.900  11.106
52162W        W11599  31.014  26.611   2.812
52163W        W11600  24.650  20.750  12.825
52164W        W11601  38.051  24.161   4.244
52165W        W11602  30.929  19.647   9.999
52166W        W11603  39.512  40.888   0.815
52167W        W11604  42.414   4.341   0.322
52168W        W11605  44.899  24.554   3.792
52169W        W11606   8.185  39.368   4.744
52170W        W11607  40.456   6.771  13.987
52171W        W11608  28.626  34.072   2.675
52172W        W11609   0.288   7.731  14.801
52173W        W11610  19.142  22.172  12.897
52174W        W11611  23.191   4.441   3.243
52175W        W11612  42.447  33.896   0.338
52176W        W11613  29.961   7.400  10.513
52177W        W11614  43.910   2.923   1.247
52178W        W11615  37.557  28.544   1.298
52179W        W11616  33.024   9.876   0.250
52180W        W11617  17.209  42.397  11.867
52181W        W11618   9.149  24.715   0.792
52182W        W11619  13.600  18.728   0.800
52183W        W11620  16.191  32.988   2.366
52184W        W11621  31.964  31.091  14.353
52185W        W11622   8.179  12.708   1.320
52186W        W11623  44.764  33.457   2.872
52187W        W11624   4.773   7.330   0.788
52188W        W11625  22.115  30.570  11.026
52189W        W11626  40.332  28.171   9.933
52190W        W11627  42.403  12.650   3.234
52191W        W11628  40.971  24.203  11.468
52192W        W11629  30.564  36.364  14.432
52193W        W11630   9.379   2.278   4.241
52194W        W11631  39.376  24.481  13.947
52195W        W11632  19.613   6.800   4.639
52196W        W11633  22.514  41.884   5.297
52197W        W11634  20.653  31.130  11.553
52198W        W11635  12.684  16.634  13.975
52199W        W11636   3.771  30.032  10.520
52200W        W11637  34.936  26.584  11.609
52201W        W11638  30.156  27.570   4.245
52202W        W11639  43.849  37.549   1.410
52203W        W11640  21.594   5.354   1.748
52204W        W11641  27.638  17.589   1.228
52205W        W11642  11.342  18.168   4.804
52206W        W11643  38.881  23.140   0.815
52207W        W11644   6.690  36.420  10.645
52208W        W11645   2.236   0.487   5.246
52209W        W11646  14.669  17.688  12.411
52210W        W11647  26.049  21.603   4.649
52211W        W11648  31.945   7.816   0.290
52212W        W11649  21.098  40.910   5.138
52213W        W11650   9.343  13.613   3.737
52214W        W11651  19.143  28.058  12.487
52215W        W11652  31.994   5.722  11.053
52216W        W11653  34.504  36.349   1.416
52217W        W11654  17.692   4.802   4.310
52218W        W11655   0.360  23.599  13.869
52219W        W11656  36.027   3.899  13.495
52220W        W11657  22.698  14.202  11.965
52221W        W11658  23.560  11.771  13.348
52222W        W11659  30.591  21.564  11.469
52223W        W11660  15.579   1.790   4.343
52224W        W11661  16.799   1.372   0.317
52225W        W11662  33.898  12.620  13.990
52226W        W11663  13.600  15.771  14.282
52227W        W11664  20.722  25.527   3.644
52228W        W11665  26.064  41.401  13.871
52229W        W11666  15.264   8.844  13.424
52230W        W11667   4.917   9.663  13.338
52231W        W11668  23.145  34.099   1.211
52232W        W11669  33.892  38.866   3.254
52233W        W11670  27.170  40.915   1.929
52234W        W11671   9.284  13.260   4.825
52235W        W11672  18.743  17.569  12.039
52236W        W11673  27.517  34.922  11.041
52237W        W11674  20.130  19.692   0.293
52238W        W11675   3.932  32.391  10.440
52239W        W11676  15.637  36.056  11.497
52240W        W11677  23.231  19.551  12.359
52241W        W11678   5.249  13.134  14.021
52242W        W11679  41.365  34.118  14.812
52243W        W11680  43.863   2.811   4.626
52244W        W11681  38.360  12.143  14.391
52245W        W11682  11.848  10.166  10.109
52246W        W11683  19.042  42.306  14.291
52247W        W11684  25.216  33.471   0.884
52248W        W11685  20.674  25.215  12.942
52249W        W11686  20.196  14.829  11.572
52250W        W11687   5.310   3.257   4.687
52251W        W11688  27.010  25.085  12.871
52252W        W11689  42.787  41.424   1.287
52253W        W11690  25.562   1.378   2.666
52254W        W11691  12.213  38.350  11.608
52255W        W11692  44.851   6.853  12.843
52256W        W11693   5.200  42.888   3.296
52257W        W11694   2.901  18.128  11.958
52258W        W11695  33.546  23.714   9.981
52259W        W11696  41.840  20.035   4.602
52260W        W11697  21.097  13.278  13.544
52261W        W11698  14.210  12.319   2.288
52262W        W11699  19.109  38.486  12.430
52263W        W11700  31.461   2.837  10.457
52264W        W11701   7.741   3.350   0.920
52265W        W11702  40.907  25.982   0.461
52266W        W11703  30.147  19.621   2.765
52267W        W11704  10.146  30.482   2.725
52268W        W11705  44.267  12.345   1.715
52269W        W11706  42.339   3.947   4.739
52270W        W11707   5.206  27.155   2.207
52271W        W11708  21.601  25.979   4.646
52272W        W11709  44.325  14.615   2.189
52273W        W11710  33.981  26.660   3.688
52274W        W11711  16.799   6.752   2.750
52275W        W11712  39.498  26.206   1.290
52276W        W11713   4.836  44.430   1.817
52277W        W11714   7.894  12.842   0.805
52278W        W11715  18.578  20.055   4.139
52279W        W11716  24.713  28.622  11.086
52280W        W11717   5.706  19.700  14.926
52281W        W11718  26.567   6.376   0.886
52282W        W11719  36.565  39.004   3.866
52283W        W11720   8.865  31.635  10.592
52284W        W11721  12.666  27.011   0.432
52285W        W11722  37.945  17.770  10.472
52286W        W11723  13.149  11.170   3.675
52287W        W11724   6.419  44.445  14.017
52288W        W11725  21.044  26.639   1.779
52289W        W11726   5.271  42.815   2.791
52290W        W11727   7.777  20.603   4.327
52291W        W11728  14.181  33.574  11.989
52292W        W11729   7.231  44.312  11.384
52293W        W11730  44.860   4.334   2.416
52294W        W11731  15.100  23.736  12.853
52295W        W11732  34.524  26.547  14.823
52296W        W11733   3.903   0.451   4.676
52297W        W11734  35.078   9.163  14.808
52298W        W11735  27.565  43.915   4.331
52299W        W11736  22.701  18.087   2.798
52300W        W11737  22.504  32.040   0.336
52301W        W11738  13.690  29.113   3.306
52302W        W11739  14.717   8.323  14.461
52303W        W11740  38.863  23.220   0.384
52304W        W11741  42.968  31.062   4.160
52305W        W11742  15.328  27.099  14.874
52306W        W11743  10.650  25.712  11.440
52307W        W11744  32.598  25.564   0.790
52308W        W11745  34.049  12.802   0.927
52309W        W11746  34.958  14.818   0.964
52310W        W11747   7.820  28.480  12.966
52311W        W11748  14.684  23.615  10.100
52312W        W11749   4.414  11.345   3.187
52313W        W11750   8.344  44.946  12.048
52314W        W11751  12.181  43.857  13.844
52315W        W11752   6.366  21.586   4.758
52316W        W11753   9.695   1.327   1.237
52317W        W11754  37.009   5.330  14.399
52318W        W11755  35.543  41.998  11.060
52319W        W11756   6.355   6.850  12.926
52320W        W11757   6.347   7.303   2.699
52321W        W11758  22.126   8.406   0.864
52322W        W11759  41.867   0.434  11.541
52323W        W11760   2.240  40.048  12.444
52324W        W11761   6.718  24.110  12.424
52325W        W11762  14.719  30.596  12.569
52326W        W11763  43.832  39.013  13.415
52327W        W11764   4.851  40.875   2.827
52328W        W11765  23.629  37.984  10.452
52329W        W11766   4.910  31.549   1.769
52330W        W11767  15.779  29.173  10.991
52331W        W11768  29.061  39.979   4.811
52332W        W11769  24.694  44.778   2.236
52333W        W11770  33.483   6.850   3.179
52334W        W11771  43.988  31.597  12.977
52335W        W11772  29.998  15.807  10.151
52336W        W11773  32.471   6.188  12.375
52337W        W11774  33.968   4.298  13.322
52338W        W11775  25.645   3.749   1.764
52339W        W11776  26.084   2.457   2.727
52340W        W11777   7.396  37.582  13.427
52341W        W11778  11.240  19.268  11.069
52342W        W11779  30.528  41.441   9.963
52343W        W11780  15.321  10.726  12.954
52344W        W11781  19.256  26.631  14.993
52345W        W11782  29.038  22.203   4.204
52346W        W11783  17.178  44.789   3.720
52347W        W11784  12.241  37.487  13.355
52348W        W11785  19.254  34.528  10.473
52349W        W11786   5.333  12.765  11.026
52350W        W11787  37.471  34.424  14.431
52351W        W11788  40.800  13.846  13.930
52352W        W11789  22.223  44.828   1.408
52353W        W11790  10.294  15.095  12.407
52354W        W11791  21.112  24.631  12.395
52355W        W11792  37.360  26.602   4.174
52356W        W11793  30.071   7.854  14.030
52357W        W11794  28.613  31.076  13.538
52358W        W11795  10.351  28.070   2.780
52359W        W11796  25.621   4.937   1.907
52360W        W11797  23.219  13.813   0.962
52361W        W11798  19.680  20.545   4.310
52362W        W11799  39.516  22.707  10.463
52363W        W11800  29.433   1.470   0.256
52364W        W11801  44.857  43.978  11.592
52365W        W11802   2.365  28.594  12.447
52366W        W11803   8.239  13.159  11.058
52367W        W11804  38.864  39.838  11.069
52368W        W11805  10.150  42.305   4.121
52369W        W11806   9.886  37.555  10.579
52370W        W11807  23.719  26.121   0.402
52371W        W11808  14.753  20.033  14.999
52372W        W11809  33.967  36.417   0.775
52373W        W11810  26.568  24.563   2.902
52374W        W11811  16.785  40.829  13.514
52375W        W11812  36.479  20.640   1.309
52376W        W11813  13.696   7.825   4.713
52377W        W11814   8.817  25.122  14.870
52378W        W11815  34.038   1.767   4.213
52379W        W11816  10.376  32.413   0.847
52380W        W11817  25.591   6.303   3.345
52381W        W11818  27.185  24.710   0.895
52382W        W11819  40.952  32.046   0.904
52383W        W11820  37.987  26.620  11.983
52384W        W11821   2.756  15.586  10.043
52385W        W11822  36.854  18.246  12.907
52386W        W11823  20.243   0.433   3.315
52387W        W11824  36.553  23.552  13.023
52388W        W11825  19.230  35.480   3.675
52389W        W11826   6.750   7.327  11.418
52390W        W11827   7.877  38.989   1.347
52391W        W11828   8.334  10.636  10.458
52392W        W11829  28.508  13.320  13.830
52393W        W11830  23.218   4.909  14.315
52394W        W11831  12.326  26.600  12.007
52395W        W11832  41.298   0.773  10.995
52396W        W11833  18.058   3.441   4.628
52397W        W11834  27.505  30.999  12.031
52398W        W11835   4.259  26.640   3.803
52399W        W11836  22.176  26.528   4.617
52400W        W11837  27.507  16.580   0.741
52401W        W11838  35.561  20.121  13.387
52402W        W11839  22.084  27.678  10.473
52403W        W11840   2.848   2.412  13.372
52404W        W11841  10.827  44.339  10.959
52405W        W11842  17.241   5.729  12.960
52406W        W11843  35.455  12.148   3.257
52407W        W11844  33.103  13.661   2.664
52408W        W11845  39.553  24.051  12.913
52409W        W11846  28.170  30.930   2.352
52410W        W11847   7.315   4.741   0.444
52411W        W11848  21.064  17.122   3.275
52412W        W11849   6.920  19.648   1.881
52413W        W11850  15.268  24.167  12.047
52414W        W11851  37.352   0.274  11.014
52415W        W11852  28.053  24.559   9.458
52416W        W11853  13.791   3.832  12.340
52417W        W11854  40.966   3.393  12.902
52418W        W11855  39.383  18.581  12.958
52419W        W11856  17.603   8.182   1.765
52420W        W11857  18.560  21.165   3.634
52421W        W11858  28.681  12.351  13.494
52422W        W11859  38.998  12.326   0.802
52423W        W11860  17.211  22.224  11.609
52424W        W11861   8.189  25.487   2.796
52425W        W11862  41.869  14.719   0.751
52426W        W11863  22.565   8.855   3.311
52427W        W11864  35.055  38.023   0.286
52428W        W11865   8.291   9.837   4.824
52429W        W11866  15.176  35.932  14.491
52430W        W11867  20.215   5.291  12.391
52431W        W11868  44.924  24.176  14.779
52432W        W11869  26.553  32.088   1.724
52433W        W11870   9.225  22.707  10.106
52434W        W11871  15.275  32.961  12.090
52435W        W11872  11.135  16.095  12.077
52436W        W11873  11.665  27.453   4.287
52437W        W11874  44.925  16.163  12.009
52438W        W11875   7.304  35.504  12.476
52439W        W11876  29.485  18.717  12.867
52440W        W11877   2.800   2.397  14.496
52441W        W11878  40.517  12.612   3.310
52442W        W11879  12.800  27.686   4.208
52443W        W11880   7.688  11.816  10.555
52444W        W11881  37.999  10.731  13.951
52445W        W11882  16.705  32.433   0.386
52446W        W11883  44.785  22.246   3.761
52447W        W11884  43.370  29.922  11.574
52448W        W11885  19.694  14.293  12.861
52449W        W11886  13.193  24.672   2.702
52450W        W11887  17.277  17.284   5.595
52451W        W11888  33.020   8.385   0.479
52452W        W11889  25.609  30.136  13.827
52453W        W11890  33.395  40.036  13.862
52454W        W11891  27.487  17.108  14.795
52455W        W11892  38.417  27.557  13.888
52456W        W11893  37.081   0.449  12.412
52457W        W11894  34.397  32.935   0.787
52458W        W11895   1.751  20.650  12.883
52459W        W11896  44.825  34.106  11.503
52460W        W11897  35.078   2.775  13.500
52461W        W11898  27.689   4.307  12.492
52462W        W11899  30.559  24.230   2.720
52463W        W11900   9.220  29.553  11.421
52464W        W11901  15.612  39.442  13.880
52465W        W11902  20.586  43.019  13.349
52466W        W11903  30.147  44.343  10.605
52467W        W11904   2.838  28.543  12.007
52468W        W11905   2.874  30.060  14.384
52469W        W11906   6.821  16.613  12.566
52470W        W11907   2.337  43.330   1.742
52471W        W11908   4.838  16.798   4.238
52472W        W11909  21.199  24.146   4.828
52473W        W11910  37.445  37.882   1.400
52474W        W11911  24.189   9.876  14.471
52475W        W11912   5.908  38.348  10.489
52476W        W11913  31.098  11.775   1.833
52477W        W11914  38.916  24.053  11.552
52478W        W11915  11.815  39.518  10.407
52479W        W11916  26.956   7.350  11.122
52480W        W11917  14.611   0.764   0.372
52481W        W11918  20.171   8.338  13.924
52482W        W11919   9.284  33.124  14.832
52483W        W11920  41.830  15.194   3.313
52484W        W11921   4.779  35.540   2.209
52485W        W11922  40.873  28.656  10.901
52486W        W11923  35.468  34.564  11.041
52487W        W11924   6.413   4.401  11.448
52488W        W11925  31.962  27.175   3.680
52489W        W11926  41.380  26.048  14.978
52490W        W11927  36.475  38.027   2.806
52491W        W11928  35.940  24.992  10.493
52492W        W11929  12.251  16.642  10.564
52493W        W11930  24.718  16.184   4.267
52494W        W11931  32.978  20.259   2.888
52495W        W11932  30.960  39.440  13.467
52496W        W11933   5.861  23.609   1.354
52497W        W11934   5.224   3.792  13.947
52498W        W11935  44.398   8.294  13.350
52499W        W11936  19.239  14.597   1.214
52500W        W11937  26.613   2.259   4.668
52501W        W11938   7.307   4.278  14.808
52502W        W11939  31.916  18.784  10.436
52503W        W11940  40.478  36.544  12.528
52504W        W11941  42.287  26.599   2.404
52505W        W11942  29.470   1.770  10.086
52506W        W11943  35.034  26.678  13.793
52507W        W11944  43.346  43.943  12.462
52508W        W11945  22.087   2.754  13.386
52509W        W11946  14.619  21.571   2.384
52510W        W11947  32.122  43.410   3.327
52511W        W11948   2.828  41.303  11.943
52512W        W11949  17.188  21.699  10.436
52513W        W11950  24.104   4.885  12.059
52514W        W11951  37.872   7.206  13.987
52515W        W11952  23.097   6.238   1.335
52516W        W11953   1.395  25.964  11.058
52517W        W11954   5.783   9.771  14.856
52518W        W11955  18.142  16.155  13.424
52519W        W11956  17.182  27.477   0.851
52520W        W11957  42.288   7.221   4.250
52521W        W11958  20.166  35.854  10.905
52522W        W11959  29.563  31.118   2.803
52523W        W11960  10.284  38.843  11.076
52524W        W11961  13.721   2.779  14.471
52525W        W11962  28.656   7.322   3.301
52526W        W11963  39.529  26.110   0.478
52527W        W11964  18.723   2.461   4.266
52528W        W11965   8.389  13.332   2.766
52529W        W11966  21.147   3.827  14.836
52530W        W11967  44.954  39.912  13.982
52531W        W11968  38.009  44.350  12.939
52532W        W11969  20.213  21.734   1.888
52533W        W11970  40.047  30.079  11.981
52534W        W11971  40.453   5.754  11.072
52535W        W11972   7.836   6.265  13.021
52536W        W11973  17.194   9.888   4.824
52537W        W11974   1.959  27.155   2.880
52538W        W11975  38.826  23.582  14.275
52539W        W11976  36.532  35.473  10.954
52540W        W11977  28.463  35.870  10.958
52541W        W11978  27.981  27.086  12.494
52542W        W11979  34.514  31.089   1.725
52543W        W11980   4.921   5.699  12.026
52544W        W11981  19.213  25.539   4.237
52545W        W11982  19.141  33.001  14.950
52546W        W11983  34.376  24.982  14.489
52547W        W11984  31.086  29.019   2.418
52548W        W11985   4.835  43.950   4.167
52549W        W11986   0.917  14.207  10.466
52550W        W11987  41.515  11.858  13.823
52551W        W11988  17.705   7.216  14.390
52552W        W11989  11.764   4.345  14.786
52553W        W11990  42.524  29.101  14.342
52554W        W11991  28.080   5.821   3.724
52555W        W11992   7.390  34.005   3.309
52556W        W11993  19.772  35.444  14.505
52557W        W11994  21.610  12.848   0.261
52558W        W11995  43.448  21.120  12.889
52559W        W11996  19.539  37.478  14.766
52560W        W11997  14.237   8.691   1.342
52561W        W11998  15.639  37.505  11.061
52562W        W11999   9.170   6.697  10.489
52563W        W12000  34.372  24.154   2.364
52564W        W12001  13.298  12.804  14.468
52565W        W12002  42.897  15.814   4.354
52566W        W12003   5.931  24.126  11.499
52567W        W12004  35.058   2.427  10.483
52568W        W12005   7.669  34.983   1.237
52569W        W12006  13.174  23.639  13.313
52570W        W12007  44.314   0.765   0.802
52571W        W12008   3.714  15.234  14.504
52572W        W12009  36.446   6.739   0.413
52573W        W12010  20.184  22.727   3.236
52574W        W12011  15.791  20.659  13.979
52575W        W12012  10.650  41.954   4.341
52576W        W12013   9.880  23.511  14.363
52577W        W12014   7.244   7.357  12.850
52578W        W12015  35.478  13.656   1.880
52579W        W12016  14.180  40.318   1.340
52580W        W12017  20.699   1.450   1.409
52581W        W12018  15.248  38.017   2.390
52582W        W12019  11.781  19.136   2.892
52583W        W12020  37.936   3.412  14.849
52584W        W12021   5.917  13.653   0.876
52585W        W12022  39.423  17.760  13.380
52586W        W12023  30.555  23.144  10.910
52587W        W12024  33.537  21.672  10.896
52588W        W12025  38.953  36.871   4.626
52589W        W12026  28.051  18.731  13.933
52590W        W12027  10.827  28.050  14.003
52591W        W12028   1.298  15.804  14.785
52592W        W12029  38.546  32.903  14.862
52593W        W12030  31.963  44.769   2.687
52594W        W12031  29.454  11.278  10.889
52595W        W12032   2.302  14.703   0.313
52596W        W12033  28.438  19.069   3.178
52597W        W12034  32.002  31.941   0.342
52598W        W12035  21.612  31.069   4.813
52599W        W12036  34.033  14.710   1.316
52600W        W12037   1.925  28.442   2.859
52601W        W12038   3.942   8.297   2.194
52602W        W12039  16.693   2.395  11.475
52603W        W12040  37.869  20.678   3.323
52604W        W12041  43.848  25.594   0.890
52605W        W12042   6.904  38.985  13.540
52606W        W12043  29.016  26.087   3.161
52607W        W12044   6.763  23.661   1.888
52608W        W12045  11.316  43.928  11.475
52609W        W12046   9.326  25.672  12.380
52610W        W12047  41.979  15.213  13.452
52611W        W12048  35.094  34.999  12.497
52612W        W12049  11.844  37.970   2.238
52613W        W12050  32.415  30.633   0.753
52614W        W12051  14.787  25.968  11.079
52615W        W12052  30.494  15.318  11.485
52616W        W12053  30.499  11.767   2.878
52617W        W12054  34.052  16.756   1.729
52618W        W12055  37.348  31.061  14.426
52619W        W12056   4.780  12.815   4.788
52620W        W12057  34.420  13.651  14.796
52621W        W12058  38.365  42.820   0.931
52622W        W12059  15.267  12.138   0.253
52623W        W12060  43.370  26.044  12.039
52624W        W12061  23.047  12.351   3.387
52625W        W12062  17.766  19.662   2.830
52626W        W12063  12.735   8.780   1.447
52627W        W12064  34.037  19.547   0.869
52628W        W12065   1.321  30.913   1.827
52629W        W12066  33.900  37.880   0.433
52630W        W12067  37.944  10.807  14.368
52631W        W12068  15.765  33.594  14.362
52632W        W12069  33.978  25.477   4.159
52633W        W12070  18.067   6.270  14.824
52634W        W12071  23.499   3.879  10.427
52635W        W12072  27.473  27.661   4.730
52636W        W12073  33.470  23.665  12.533
52637W        W12074  36.953  24.981   0.882
52638W        W12075  28.467   4.300  13.347
52639W        W12076   5.239  26.511  13.030
52640W        W12077  17.677  31.964  13.064
52641W        W12078  23.604  28.058   3.766
52642W        W12079  21.089  36.998  14.441
52643W        W12080  36.408  37.354   9.587
52644W        W12081  14.596  25.165   2.723
52645W        W12082   5.235  18.278   1.251
52646W        W12083   6.286  28.962  13.339
52647W        W12084  36.473  42.875   1.758
52648W        W12085   2.242  19.204   0.933
52649W        W12086  33.896  38.354   9.654
52650W        W12087  28.608  43.380  12.448
52651W        W12088   3.316  30.917  13.435
52652W        W12089   7.706  30.415  12.353
52653W        W12090  15.577  24.221   4.657
52654W        W12091   0.766   3.266   4.185
52655W        W12092  14.592  42.460  12.049
52656W        W12093  31.599  28.477  13.491
52657W        W12094  32.598  18.601  13.323
52658W        W12095  35.598  21.698  13.312
52659W        W12096  43.506  24.578  13.421
52660W        W12097  10.302  42.976   2.380
52661W        W12098   5.248  12.128   0.863
52662W        W12099  44.935  41.415  11.857
52663W        W12100  31.567  17.108   0.863
52664W        W12101  36.401   9.806   0.251
52665W        W12102  16.129  15.802  13.379
52666W        W12103   0.804  18.254  13.463
52667W        W12104  31.447  15.674   1.348
52668W        W12105   8.380  26.957   2.747
52669W        W12106   9.175   5.417  14.946
52670W        W12107  15.641   5.243  11.514
52671W        W12108  14.130   2.792  12.840
52672W        W12109  42.937  33.893  12.823
52673W        W12110  39.897  36.098   0.361
52674W        W12111  33.517  11.250   1.405
52675W        W12112  37.853  31.949  12.397
52676W        W12113  44.350  39.927  11.895
52677W        W12114  18.786  37.453   4.238
52678W        W12115  31.137   5.703  12.404
52679W        W12116  34.920   9.333   2.822
52680W        W12117  44.500   9.369   2.325
52681W        W12118  22.140  34.007   3.689
52682W        W12119   1.872  29.530   1.451
52683W        W12120  15.087  14.118  14.359
52684W        W12121  30.036   6.860  13.381
52685W        W12122  34.511   9.216   0.856
52686W        W12123   2.911  15.297  11.477
52687W        W12124  11.352  44.757  10.563
52688W        W12125   8.692   4.894  10.519
52689W        W12126  41.996  35.532   0.870
52690W        W12127  24.616  42.312  13.949
52691W        W12128  38.482   2.830   1.298
52692W        W12129  37.959  42.983  10.956
52693W        W12130  32.542  12.157  10.961
52694W        W12131  19.070  21.603   5.138
52695W        W12132  37.039   6.248   3.733
52696W        W12133  26.618   7.265  10.547
52697W        W12134   1.447  19.561   3.184
52698W        W12135  24.679  44.897  12.509
52699W        W12136  14.304   9.838  12.040
52700W        W12137   1.304  36.077   4.352
52701W        W12138  30.919  31.122  14.006
52702W        W12139  22.744  13.661   3.853
52703W        W12140  22.536   3.743   2.900
52704W        W12141  12.120   5.198  12.415
52705W        W12142  34.494  16.278  14.028
52706W        W12143  38.465  14.699  14.021
52707W        W12144   6.388  26.613  11.863
52708W        W12145  37.023  20.685   2.216
52709W        W12146   6.274  42.486  14.494
52710W        W12147  43.787  24.201  12.843
52711W        W12148   1.860  32.960  10.904
52712W        W12149  26.674  29.136  14.786
52713W        W12150  34.451  42.296   3.197
52714W        W12151  11.672  26.621  13.917
52715W        W12152  30.603   1.799   2.791
52716W        W12153  33.120   1.745  12.340
52717W        W12154  15.629   2.286   3.758
52718W        W12155  19.063   2.263  12.555
52719W        W12156   8.347  16.730  13.396
52720W        W12157  30.067  22.672  12.459
52721W        W12158  42.858  31.559  10.514
52722W        W12159  39.456  16.197   3.833
52723W        W12160  24.055  42.804  10.413
52724W        W12161   3.813  29.520  12.341
52725W        W12162  24.081  17.270   1.779
52726W        W12163   4.794   9.241  14.790
52727W        W12164  22.010  28.969   2.415
52728W        W12165   5.279  35.984   1.448
52729W        W12166  14.754  40.406   5.094
52730W        W12167  37.478  37.051   3.277
52731W        W12168   3.781  33.566   9.956
52732W        W12169   0.856  16.118   4.626
52733W        W12170  44.321   0.910  11.508
52734W        W12171  12.293  20.216   2.337
52735W        W12172  30.573   8.856  13.977
52736W        W12173  25.177  28.658  12.003
52737W        W12174  24.692  14.170   0.860
52738W        W12175  22.678   1.428  10.944
52739W        W12176  17.125  11.268   2.188
52740W        W12177   1.283  13.611  13.316
52741W        W12178  19.122  10.155  14.009
52742W        W12179  43.372  34.929  13.333
52743W        W12180  37.914  37.851  14.321
52744W        W12181  38.479  21.246  12.919
52745W        W12182  26.050   1.855   2.283
52746W        W12183  32.098  23.672   1.297
52747W        W12184  20.677  40.309   1.311
52748W        W12185  15.731   2.820  12.987
52749W        W12186   8.317  33.586   2.876
52750W        W12187  33.103  24.724   1.727
52751W        W12188  10.248  10.322   0.270
52752W        W12189  17.184  32.600  12.034
52753W        W12190  32.100  38.338  14.857
52754W        W12191  11.853  41.834   3.751
52755W        W12192  25.209   2.767  12.990
52756W        W12193  23.688  39.334   2.385
52757W        W12194   4.402  10.875   3.833
52758W        W12195   9.374   5.232   1.288
52759W        W12196   9.315   8.755  11.573
52760W        W12197  22.049  14.129  12.571
52761W        W12198  39.517  12.290  13.367
52762W        W12199  29.023  15.245  13.921
52763W        W12200  13.632   5.351   1.911
52764W        W12201  32.097   1.355   4.185
52765W        W12202  14.653  29.052   1.934
52766W        W12203   0.800  38.427  12.080
52767W        W12204   0.274  31.091  11.931
52768W        W12205  15.257   7.322   0.430
52769W        W12206  35.514  25.108   3.687
52770W        W12207   2.965  11.277   0.343
52771W        W12208  25.663  29.162   2.226
52772W        W12209  17.718  30.037  10.955
52773W        W12210  17.777   1.480   1.449
52774W        W12211  11.321  21.199  13.402
52775W        W12212   6.797  30.921   4.599
52776W        W12213  23.199  26.057  13.441
52777W        W12214  16.724  31.413  12.403
52778W        W12215  33.922  13.618   0.857
52779W        W12216  11.713   0.297  13.455
52780W        W12217  15.647  32.587  11.572
52781W        W12218  27.116  18.294  13.912
52782W        W12219   4.773   8.323   1.436
52783W        W12220  35.456   7.298   0.744
52784W        W12221   2.744  13.654  13.001
52785W        W12222  33.512  40.860   4.131
52786W        W12223  22.533  27.501   1.288
52787W        W12224   1.471  31.459   2.861
52788W        W12225  37.523   4.252  14.321
52789W        W12226  41.008  24.509  10.621
52790W        W12227  25.667  37.518   1.443
52791W        W12228   7.911  18.102  14.011
52792W        W12229  34.019  20.134   3.862
52793W        W12230  24.222  42.924   2.263
52794W        W12231  18.151  23.232   3.385
52795W        W12232  25.032  39.029  12.039
52796W        W12233  35.468   7.277   1.249
52797W        W12234  17.237   1.970  11.596
52798W        W12235  10.161   4.902   2.876
52799W        W12236  36.354   9.857   0.847
52800W        W12237   4.921  41.990  14.289
52801W        W12238   7.761   0.809  14.281
52802W        W12239  24.989   8.890  10.047
52803W        W12240  38.476  15.146   0.275
52804W        W12241  20.092   4.436   2.894
52805W        W12242   6.256  33.621  12.398
52806W        W12243  26.006  33.985   1.428
52807W        W12244  23.183   1.774   1.700
52808W        W12245  41.813  24.093  10.447
52809W        W12246   9.705  11.649   3.796
52810W        W12247  36.570  27.967   4.299
52811W        W12248   7.839  16.252  10.494
52812W        W12249  26.476  15.094  10.020
52813W        W12250  13.227  28.176  11.562
52814W        W12251  15.790   7.766   4.833
52815W        W12252  18.259  43.844   3.743
52816W        W12253  35.495  36.370   0.466
52817W        W12254  25.582  25.080   4.160
52818W        W12255  10.296   2.299   3.722
52819W        W12256   3.773  21.025  12.403
52820W        W12257  30.140   4.208  14.387
52821W        W12258  38.839   6.700   4.748
52822W        W12259  22.664   8.868  13.345
52823W        W12260  22.103  43.362   3.259
52824W        W12261  32.921  17.236  11.938
52825W        W12262  43.788  44.261   2.862
52826W        W12263  25.656  29.961  12.065
52827W        W12264  33.556  29.017  14.320
52828W        W12265  28.158  21.579  14.791
52829W        W12266  22.034  26.572  12.044
52830W        W12267  17.195  19.536  12.008
52831W        W12268  36.519  43.961   0.777
52832W        W12269   7.313   0.406  10.931
52833W        W12270  29.665   8.397  13.339
52834W        W12271  38.905   7.775   3.220
52835W        W12272   0.843  44.382   4.235
52836W        W12273  41.857   0.270  12.493
52837W        W12274  35.922  38.345   2.243
52838W        W12275   7.214   1.934   2.269
52839W        W12276  42.888  38.960   1.368
52840W        W12277   0.312  10.255   2.391
52841W        W12278  29.984   4.340   3.689
52842W        W12279   2.259  14.220   5.747
52843W        W12280  40.831  11.840  10.522
52844W        W12281  31.129  13.639   3.754
52845W        W12282  10.371  39.352   1.228
52846W        W12283  32.914  32.437   0.837
52847W        W12284   3.790   0.899   3.818
52848W        W12285  34.465   4.225  12.014
52849W        W12286  35.434  35.941  10.633
52850W        W12287  20.660  35.059  13.434
52851W        W12288  25.995   3.921   4.605
52852W        W12289  29.000   8.373  13.523
52853W        W12290  15.774  26.654   3.307
52854W        W12291  35.981  25.990   0.966
52855W        W12292   8.204  27.014  10.974
52856W        W12293   6.763  30.128   9.552
52857W        W12294   9.839  41.314  14.298
52858W        W12295  23.623  13.806   3.818
52859W        W12296   0.824   6.758   0.314
52860W        W12297  23.011  43.508   0.281
52861W        W12298  23.043  18.069   4.636
52862W        W12299   9.709   7.352  12.896
52863W        W12300   9.370  43.810  10.568
52864W        W12301   6.264  21.226   0.370
52865W        W12302  13.673  27.031  13.821
52866W        W12303  39.429  43.973   2.347
52867W        W12304  22.103  26.170   5.571
52868W        W12305  23.120  24.123  13.312
52869W        W12306  22.720  43.798  12.343
52870W        W12307  10.197   2.300   1.446
52871W        W12308  22.100  36.964  11.565
52872W        W12309  40.549  31.554   0.436
52873W        W12310  31.510  38.860   3.643
52874W        W12311  41.355  17.609  11.601
52875W        W12312  22.163  20.219  14.006
52876W        W12313  39.359  36.960   4.626
52877W        W12314  38.946  12.693  11.966
52878W        W12315  20.742  20.125   4.192
52879W        W12316   8.849  35.473  13.821
52880W        W12317  11.858  12.828   2.884
52881W        W12318  35.985  11.787  13.857
52882W        W12319  35.906  18.071  12.079
52883W        W12320  28.978  42.864  10.599
52884W        W12321  15.213  12.830   0.869
52885W        W12322  14.329  42.426  14.778
52886W        W12323  10.863  13.654   2.671
52887W        W12324  36.914   8.239  13.030
52888W        W12325  38.048  12.715   4.828
52889W        W12326  32.030   6.796  14.490
52890W        W12327  27.188  44.814  14.442
52891W        W12328   7.405  15.156  12.944
52892W        W12329  34.063  14.294   1.242
52893W        W12330  16.129  38.329  14.904
52894W        W12331  10.875  32.544   3.151
52895W        W12332  20.258  43.783  11.553
52896W        W12333  36.445  30.030   0.952
52897W        W12334   2.287  23.124   0.354
52898W        W12335  40.455  25.188   1.238
52899W        W12336   7.711   7.242  11.497
52900W        W12337  43.312  10.649   1.728
52901W        W12338   2.336  14.149   3.146
52902W        W12339  41.923  10.215   0.258
52903W        W12340  12.818  12.352  13.413
52904W        W12341  28.092  21.739   3.310
52905W        W12342  37.902  32.434  13.445
52906W        W12343  11.776  16.185  10.909
52907W        W12344   8.886  26.189  14.774
52908W        W12345  14.750  16.724   2.401
52909W        W12346  28.489  28.156   1.934
52910W        W12347   6.423  33.880   0.760
52911W        W12348   9.875  21.616  11.107
52912W        W12349   6.707  29.581  14.359
52913W        W12350  29.495  39.900  10.549
52914W        W12351  29.606  32.948   4.666
52915W        W12352   8.765  29.085  11.945
52916W        W12353  11.837  22.213   4.702
52917W        W12354  18.239  42.416   3.364
52918W        W12355  24.061  37.030  12.046
52919W        W12356  17.305   7.682   1.223
52920W        W12357  28.951  28.000   2.662
52921W        W12358  43.979  31.454   3.383
52922W        W12359  29.081  12.244  13.372
52923W        W12360  14.209  20.588  12.025
52924W        W12361  12.616   9.772   2.416
52925W        W12362  14.628   7.877  12.032
52926W        W12363   9.731  44.867   4.323
52927W        W12364  29.980  21.621   3.385
52928W        W12365  31.595  22.513  13.062
52929W        W12366  35.011  44.774   2.721
52930W        W12367   8.859  12.182   2.323
52931W        W12368   2.776  21.536  12.419
52932W        W12369  39.538  41.460   3.667
52933W        W12370   8.831  38.537   9.984
52934W        W12371   0.278   7.732  10.486
52935W        W12372  34.453   1.237  10.590
52936W        W12373   4.355  33.618  11.981
52937W        W12374  37.532   3.759   2.351
52938W        W12375  32.445  31.578   2.359
52939W        W12376  26.197  24.976  12.434
52940W        W12377  31.149  29.172   4.810
52941W        W12378  28.055  39.449   2.784
52942W        W12379  13.279  33.890  13.326
52943W        W12380  39.335  27.596  10.412
52944W        W12381  11.650  20.753   1.373
52945W        W12382  10.349  24.130   2.199
52946W        W12383  17.209  40.828   3.169
52947W        W12384  24.070  30.489   4.160
52948W        W12385  13.236  25.064  13.928
52949W        W12386  36.870  17.666  10.473
52950W        W12387  10.801  18.576  13.847
52951W        W12388  27.626  41.372   0.840
52952W        W12389   8.820   8.859  13.478
52953W        W12390  17.749   0.929  14.914
52954W        W12391   9.221  27.973   1.374
52955W        W12392   7.384  27.450   1.427
52956W        W12393  22.111  44.386  10.995
52957W        W12394  16.313   5.271  11.881
52958W        W12395  35.562  11.781  12.081
52959W        W12396  19.764   4.257   0.763
52960W        W12397  15.180  12.259  11.396
52961W        W12398  24.588  24.547  13.972
52962W        W12399  36.465  23.012   0.272
52963W        W12400  35.874   1.745  12.344
52964W        W12401   2.933   0.327  10.907
52965W        W12402  18.180  44.966   1.414
52966W        W12403  13.323  23.515   2.901
52967W        W12404  40.397  30.060  14.856
52968W        W12405  43.982  26.136   3.656
52969W        W12406  38.416  17.583  13.012
52970W        W12407  27.599  33.403  14.373
52971W        W12408  19.275   1.449   3.671
52972W        W12409  36.912  13.301  12.033
52973W        W12410  36.592  40.908   3.176
52974W        W12411  27.184  10.731  13.935
52975W        W12412   4.719  44.276  10.516
52976W        W12413  36.863  18.185   2.728
52977W        W12414  29.953  32.906   4.144
52978W        W12415  16.111  36.871   1.803
52979W        W12416   4.405  35.604   4.126
52980W        W12417  36.936  29.433  11.993
52981W        W12418  11.282  27.551   2.699
52982W        W12419  12.182   8.199   3.204
52983W        W12420  36.095  43.489  13.517
52984W        W12421   7.775  22.705  11.935
52985W        W12422  20.201  20.042   4.157
52986W        W12423  43.430   3.330   2.793
52987W        W12424   7.282   8.312  14.002
52988W        W12425  16.733  16.664  14.010
52989W        W12426  29.150   9.213  10.889
52990W        W12427  43.922  30.914  11.383
52991W        W12428  15.199   4.937   3.344
52992W        W12429  38.444  37.402   2.380
52993W        W12430  41.473  35.558  14.950
52994W        W12431  44.782   2.809   4.334
52995W        W12432   5.841  44.391   4.277
52996W        W12433  42.825  39.911   3.239
52997W        W12434   0.462  39.527  13.462
52998W        W12435  37.926   6.251   1.858
52999W        W12436  25.217  40.349  12.527
53000W        W12437  40.464  39.471   1.740
53001W        W12438  44.326   7.290   3.631
53002W        W12439  37.363  36.507  12.472
53003W        W12440   0.389  35.929   2.695
53004W        W12441  40.542  20.616   0.781
53005W        W12442  40.378  10.182   3.686
53006W        W12443  14.243  16.712  12.016
53007W        W12444  28.038  34.377  12.534
53008W        W12445   1.889  19.711  11.992
53009W        W12446  17.159   5.699  11.878
53010W        W12447  44.290  16.287   4.338
53011W        W12448  37.526  43.949   9.980
53012W        W12449  19.246   6.917  13.370
53013W        W12450  16.152   9.153  12.570
53014W        W12451   0.928  13.167  12.924
53015W        W12452  27.172  35.951  12.825
53016W        W12453  14.298  31.477   4.815
53017W        W12454   1.477   9.378  12.859
53018W        W12455  44.470  24.709   4.253
53019W        W12456  20.267  11.643  14.340
53020W        W12457  40.984   4.225   1.714
53021W        W12458  33.076   2.372  10.594
53022W        W12459   2.797  31.478   1.808
53023W        W12460  30.453  22.713  11.564
53024W        W12461  39.815  21.723   3.246
53025W        W12462  21.144  42.385   4.627
53026W        W12463  33.094  11.356  14.825
53027W        W12464  11.226  21.079  12.058
53028W        W12465  27.983  18.206  10.451
53029W        W12466  44.335  31.433   0.823
53030W        W12467  18.259  30.066  12.017
53031W        W12468   4.743   2.374   0.402
53032W        W12469  27.164  33.880  11.856
53033W        W12470  17.744   7.416  12.509
53034W        W12471  38.554  40.514   4.798
53035W        W12472  44.285  44.435  10.032
53036W        W12473   6.823  39.820  12.355
53037W        W12474  30.446  22.711   9.675
53038W        W12475  28.017  13.162  12.891
53039W        W12476   7.849  39.315  12.026
53040W        W12477  27.643  33.387  12.472
53041W        W12478  39.925   9.210  12.042
53042W        W12479  10.636  43.441  13.933
53043W        W12480  21.747  10.731  10.547
53044W        W12481   4.419  17.100  12.859
53045W        W12482  26.179  25.574   2.829
53046W        W12483  38.862  32.893   4.116
53047W        W12484  28.182  22.032   1.240
53048W        W12485  40.956   1.314  13.535
53049W        W12486  36.383  34.610  13.430
53050W        W12487  15.264   0.835   4.239
53051W        W12488  30.598   3.850  10.560
53052W        W12489  13.777  19.727  12.910
53053W        W12490   7.805  14.615  10.420
53054W        W12491  29.618  36.540   2.844
53055W        W12492  17.186  22.544  10.917
53056W        W12493   2.278  40.824   2.827
53057W        W12494  28.632  22.114  13.055
53058W        W12495   1.833   3.272   1.363
53059W        W12496   4.408  23.189   2.278
53060W        W12497  36.508  42.481  10.417
53061W        W12498  29.041   7.810   1.356
53062W        W12499  24.037  21.723   0.391
53063W        W12500  41.320   6.863  10.521
53064W        W12501  35.407  30.011  11.126
53065W        W12502  13.181   0.889  14.790
53066W        W12503  29.946  18.607   2.715
53067W        W12504   6.302  15.199  11.537
53068W        W12505  14.126  33.018  13.883
53069W        W12506  39.413   3.797  14.915
53070W        W12507  17.098  34.482   2.398
53071W        W12508  42.966  43.378  11.006
53072W        W12509  32.042   7.900   2.228
53073W        W12510  26.610  30.083   3.297
53074W        W12511  22.682   2.729   0.400
53075W        W12512   8.717   7.233  10.999
53076W        W12513  18.767  12.241  13.869
53077W        W12514  19.612  36.541  12.066
53078W        W12515  16.302   7.788  10.999
53079W        W12516  19.251  34.934  10.927
53080W        W12517  43.901   3.857   2.376
53081W        W12518  34.507  42.361  13.801
53082W        W12519   5.786  44.428   3.699
53083W        W12520  13.700  42.871   5.111
53084W        W12521  20.568  31.410  12.938
53085W        W12522  29.439  32.897  14.769
53086W        W12523   3.790   2.467  11.454
53087W        W12524  10.239  12.784   3.769
53088W        W12525   3.732  33.542  11.473
53089W        W12526  41.325  16.302   1.435
53090W        W12527  38.012  41.328   2.192
53091W        W12528  35.482  41.361  13.415
53092W        W12529  38.550  37.941  11.421
53093W        W12530   2.757   7.264  12.542
53094W        W12531  32.069  33.918  12.444
53095W        W12532  14.823  21.698  12.547
53096W        W12533  22.645  19.713   3.284
53097W        W12534   6.367   9.742   0.315
53098W        W12535   5.746  10.311   4.781
53099W        W12536  15.302   9.865  13.427
53100W        W12537  33.582  43.810   0.260
53101W        W12538  25.486   8.762  12.903
53102W        W12539  11.647  32.006  12.824
53103W        W12540  25.582  42.814  12.858
53104W        W12541  20.268  33.547   0.815
53105W        W12542  29.468  39.472   4.314
53106W        W12543  16.803  30.998   0.374
53107W        W12544  30.964  23.720  10.431
53108W        W12545  25.116  12.785  11.964
53109W        W12546  28.435  21.227   2.262
53110W        W12547   7.249  42.400   4.198
53111W        W12548  31.411  11.813   4.624
53112W        W12549  24.110  36.575  12.015
53113W        W12550   1.813  14.740   5.648
53114W        W12551  30.453  27.120   0.388
53115W        W12552  30.155   0.488   4.632
53116W        W12553  37.859  14.611   3.147
53117W        W12554  29.157  26.689  12.391
53118W        W12555   1.840  37.904   1.443
53119W        W12556  18.108  31.527  12.078
53120W        W12557  38.408  32.972  10.986
53121W        W12558  10.701  13.786   3.862
53122W        W12559   9.168   0.920  14.802
53123W        W12560   5.282  30.540   3.266
53124W        W12561  40.377  35.100   1.796
53125W        W12562  15.126   9.842  10.984
53126W        W12563  25.655  41.483   5.292
53127W        W12564  32.599  41.019   3.748
53128W        W12565  12.616   6.761   3.214
53129W        W12566  22.707  12.812   9.441
53130W        W12567  26.143  35.944   0.754
53131W        W12568  33.088  10.139  14.786
53132W        W12569   0.763  22.016   3.866
53133W        W12570  10.797  23.629  11.921
53134W        W12571  10.283  43.856   1.710
53135W        W12572  24.711  31.507  11.890
53136W        W12573   5.347   0.965  10.888
53137W        W12574   9.202  42.826   0.276
53138W        W12575   0.278  36.048  13.371
53139W        W12576   9.685  34.875  11.025
53140W        W12577  21.574  30.984   4.308
53141W        W12578  44.426  18.686  13.855
53142W        W12579  15.664  25.209   1.276
53143W        W12580  30.967   8.824   2.392
53144W        W12581   5.260  25.478  12.495
53145W        W12582   1.892  36.958  12.501
53146W        W12583  26.470  20.541  10.623
53147W        W12584  28.441  28.128  10.935
53148W        W12585   8.224  25.525  11.594
53149W        W12586  23.100  29.464  13.792
53150W        W12587  13.223  25.707  11.496
53151W        W12588  25.638  13.339  12.459
53152W        W12589  41.002   8.375   1.756
53153W        W12590   3.396   6.425  11.873
53154W        W12591  44.358  19.263   5.169
53155W        W12592  37.011  11.243  11.078
53156W        W12593  42.003  30.514  13.008
53157W        W12594  38.329  36.532  11.053
53158W        W12595  29.526   9.839  10.960
53159W        W12596   7.878   2.400  11.418
53160W        W12597  40.540  31.933  10.931
53161W        W12598   1.463  26.545  12.900
53162W        W12599  36.435  14.140   4.751
53163W        W12600   0.782  36.077  10.480
53164W        W12601  36.411  32.091  11.485
53165W        W12602  18.731  34.017  12.944
53166W        W12603  18.559  29.479  13.877
53167W        W12604   9.251  23.168   4.791
53168W        W12605   5.345  36.990   3.286
53169W        W12606  10.174   5.319  11.486
53170W        W12607   7.879   9.164   1.407
53171W        W12608  39.397  42.411   4.333
53172W        W12609   4.743  34.928   3.783
53173W        W12610  36.577  36.096   0.960
53174W        W12611  26.683  25.013   0.446
53175W        W12612  27.515   9.179  13.413
53176W        W12613  33.929  14.180  14.949
53177W        W12614  33.457  36.420   0.819
53178W        W12615   0.360  38.374  11.413
53179W        W12616  33.973  17.718   1.897
53180W        W12617  17.145   4.415   2.255
53181W        W12618  37.927  19.618   2.274
53182W        W12619  34.554  19.192  14.334
53183W        W12620  17.118   5.207  14.300
53184W        W12621  44.482  43.343   3.366
53185W        W12622  28.473  23.502   1.386
53186W        W12623  42.777  28.168  12.073
53187W        W12624  37.074  10.663  11.898
53188W        W12625   0.916  39.940  12.443
53189W        W12626  14.617  14.698   3.724
53190W        W12627  17.145  16.642  13.980
53191W        W12628  26.075  20.760   1.732
53192W        W12629  41.312  29.155   2.688
53193W        W12630  29.514  25.518   2.808
53194W        W12631  17.071  34.082  11.907
53195W        W12632  33.466  42.794  14.462
53196W        W12633  12.193  36.871  12.510
53197W        W12634   5.774  33.528   2.764
53198W        W12635  19.645  40.383   1.895
53199W        W12636  38.836  38.077  14.819
53200W        W12637  37.429  11.788   2.715
53201W        W12638  16.655  18.566   2.316
53202W        W12639   8.763  28.516  11.974
53203W        W12640   0.923  29.061   3.239
53204W        W12641  31.525  44.274  11.060
53205W        W12642  34.012  12.784   2.818
53206W        W12643  27.680  19.603  12.914
53207W        W12644  15.123  18.754  12.863
53208W        W12645   1.246  24.157   4.159
53209W        W12646   3.724  33.009  13.465
53210W        W12647  38.360  36.084  13.959
53211W        W12648  10.366  42.829   1.737
53212W        W12649  28.611  29.039  13.339
53213W        W12650  35.085   2.461   2.862
53214W        W12651  20.185  14.233   5.277
53215W        W12652  27.042  22.067  11.534
53216W        W12653  34.519  27.108   2.396
53217W        W12654  17.110  42.485  13.864
53218W        W12655   2.867  13.185   0.964
53219W        W12656  34.419  11.690  14.317
53220W        W12657  29.133  34.884  11.417
53221W        W12658  34.042  34.468  13.423
53222W        W12659   8.317  39.952  12.043
53223W        W12660   9.816   8.227  13.791
53224W        W12661  34.409   1.460   4.246
53225W        W12662  20.693   0.365  12.339
53226W        W12663  11.324  11.813  13.460
53227W        W12664  31.467  34.887  10.447
53228W        W12665  21.640   6.411  10.565
53229W        W12666  21.263  43.980  11.063
53230W        W12667  12.133  14.233   2.272
53231W        W12668  12.116   4.283  13.345
53232W        W12669  13.845  18.766   2.732
53233W        W12670  27.611  41.466   3.210
53234W        W12671  10.264  26.988   2.391
53235W        W12672   2.803  13.733  12.558
53236W        W12673  28.628  19.678   0.262
53237W        W12674   2.920  18.173   1.806
53238W        W12675  21.598  32.925   2.783
53239W        W12676  16.588  37.530   1.407
53240W        W12677   9.778  29.000  14.418
53241W        W12678  28.455  18.229   2.799
53242W        W12679  24.997  21.038   3.159
53243W        W12680  34.549  16.156   2.184
53244W        W12681  24.033  16.699  14.444
53245W        W12682   2.769  30.955   3.334
53246W        W12683  40.862  35.930  12.945
53247W        W12684  41.927  30.469  12.434
53248W        W12685   0.322  22.213   1.710
53249W        W12686  34.906  23.184   1.306
53250W        W12687  26.605  34.938  10.441
53251W        W12688  16.763  29.943   4.810
53252W        W12689  38.541  25.108   0.266
53253W        W12690  36.588  33.578   1.320
53254W        W12691  27.666  10.182  12.344
53255W        W12692  34.491  41.510  10.101
53256W        W12693   6.920  32.923  12.997
53257W        W12694  37.912  18.716  11.490
53258W        W12695  21.082  18.295   4.235
53259W        W12696  43.367   3.842   1.743
53260W        W12697  30.908  18.657   3.743
53261W        W12698  41.295   7.783   3.748
53262W        W12699  20.238   3.934   0.916
53263W        W12700  14.722   0.915  14.789
53264W        W12701  33.981   4.222  15.000
53265W        W12702  12.685  10.716   3.296
53266W        W12703  22.040  32.625  12.939
53267W        W12704   2.413  11.269  12.421
53268W        W12705  12.615   1.418  14.986
53269W        W12706  36.964  19.644   4.746
53270W        W12707  14.097  13.171  12.536
53271W        W12708   5.929   1.747  11.995
53272W        W12709   2.950  26.665   0.804
53273W        W12710  18.610  14.315  14.485
53274W        W12711   2.325  38.387  12.906
53275W        W12712  37.851  43.829   1.752
53276W        W12713  36.020   9.340   4.707
53277W        W12714   6.208  24.009  11.904
53278W        W12715  15.216  42.283  12.090
53279W        W12716  22.124  11.160  10.968
53280W        W12717  21.110  37.398   0.326
53281W        W12718  12.323   1.253   2.801
53282W        W12719   5.889  21.203  10.593
53283W        W12720  21.698  17.080  15.000
53284W        W12721  26.492  44.770   3.630
53285W        W12722  15.205  30.430  12.391
53286W        W12723  23.592  19.051   5.582
53287W        W12724  31.954   6.878  14.020
53288W        W12725  13.818  35.603   0.249
53289W        W12726  32.495  44.377  13.475
53290W        W12727   3.263  40.822   4.128
53291W        W12728  24.137  23.157  14.971
53292W        W12729  37.971  35.433   0.946
53293W        W12730  18.176  17.172   0.744
53294W        W12731  18.656  31.971  10.129
53295W        W12732  39.991  21.708   1.696
53296W        W12733   2.465  16.760   9.993
53297W        W12734  38.950  37.426   1.216
53298W        W12735   5.920  32.079   2.235
53299W        W12736   5.821  31.975  11.915
53300W        W12737   3.712   8.830  14.282
53301W        W12738  22.524  20.169  10.593
53302W        W12739   7.759  32.060   1.783
53303W        W12740  40.991  44.466  12.835
53304W        W12741  14.789  25.507   4.190
53305W        W12742  35.569  19.592   1.275
53306W        W12743  32.102  26.180  13.876
53307W        W12744  15.301  22.747  13.863
53308W        W12745   5.732   5.852  14.386
53309W        W12746  16.658  42.474   0.753
53310W        W12747  10.810  10.288  14.832
53311W        W12748  33.397   0.786  13.360
53312W        W12749  19.765  38.825  10.996
53313W        W12750  40.050  10.687   2.282
53314W        W12751   0.312  44.495   4.788
53315W        W12752   7.406   8.214   1.369
53316W        W12753  41.826   1.442  13.409
53317W        W12754  26.984   3.729  13.950
53318W        W12755   5.391  11.853  13.858
53319W        W12756   8.283  13.276  10.643
53320W        W12757  27.557  23.650   4.348
53321W        W12758  29.006  27.631  13.889
53322W        W12759  10.688  37.557   1.418
53323W        W12760  21.054  30.083   4.693
53324W        W12761   9.290  27.528  14.416
53325W        W12762  19.560  33.381  12.561
53326W        W12763  36.425  41.954   4.758
53327W        W12764   7.699   0.263   3.861
53328W        W12765  16.707  14.252   4.757
53329W        W12766   3.721  32.917  13.840
53330W        W12767  35.397  15.271  12.986
53331W        W12768  34.585  31.425   0.423
53332W        W12769   3.460   5.806  11.012
53333W        W12770  22.119   6.842  12.044
53334W        W12771  19.140  23.174   0.377
53335W        W12772  35.888  29.475  13.419
53336W        W12773  27.525  23.028  12.911
53337W        W12774  29.069  35.955   3.803
53338W        W12775   5.342  15.702   3.197
53339W        W12776  22.185  12.288  14.802
53340W        W12777  35.872   7.333   0.385
53341W        W12778  14.728  22.679   4.667
53342W        W12779   6.375   6.861  10.414
53343W        W12780   3.761  44.288   4.828
53344W        W12781  14.245   3.931  12.995
53345W        W12782  31.497  38.903  13.883
53346W        W12783  13.262  43.279   1.911
53347W        W12784   4.802  42.887   3.842
53348W        W12785  14.103  31.471  10.475
53349W        W12786   2.273  40.420  11.039
53350W        W12787  18.161  29.992   4.788
53351W        W12788  27.458  26.551   4.682
53352W        W12789   9.193   3.844   1.238
53353W        W12790  32.490   3.356  13.410
53354W        W12791   2.268   4.798   3.384
53355W        W12792   0.338  17.723   3.168
53356W        W12793  20.062  36.419  10.601
53357W        W12794  27.676  30.003   4.329
53358W        W12795  16.318   5.426   4.601
53359W        W12796  41.390   0.360  11.870
53360W        W12797   3.422  11.247  11.983
53361W        W12798  29.060  43.800   0.384
53362W        W12799   0.467  12.818   0.745
53363W        W12800  31.458   7.274   4.303
53364W        W12801  33.410  43.770   1.831
53365W        W12802  12.685  23.131   3.183
53366W        W12803  14.149  39.403  14.410
53367W        W12804  27.980  38.981   1.226
53368W        W12805   7.177   7.755   4.163
53369W        W12806  14.243   2.378  13.885
53370W        W12807  17.184  20.670   0.767
53371W        W12808  11.337  29.035   2.385
53372W        W12809  35.568  19.149   4.269
53373W        W12810   0.854  25.128   2.806
53374W        W12811  26.495  25.146  11.386
53375W        W12812  28.504  16.775  12.861
53376W        W12813   2.959  13.300  11.901
53377W        W12814   6.356  36.362   0.960
53378W        W12815   9.750  27.602   1.841
53379W        W12816  37.363  16.707   2.273
53380W        W12817  26.977  14.785  10.404
53381W        W12818  34.115   9.863  11.892
53382W        W12819  11.667  20.165   4.626
53383W        W12820  14.709   7.315  11.894
53384W        W12821  21.654   8.802   3.285
53385W        W12822   3.713  14.589   3.778
53386W        W12823   2.864  26.075  12.054
53387W        W12824  44.893   4.351  13.905
53388W        W12825  20.621  17.613  13.366
53389W        W12826  25.127  32.103   1.316
53390W        W12827  11.239  20.760   3.174
53391W        W12828  31.000  28.929  14.295
53392W        W12829   6.237   3.371  10.056
53393W        W12830  34.494   7.194   1.875
53394W        W12831  16.208  11.628  11.099
53395W        W12832  21.051  31.154  11.994
53396W        W12833  11.293   2.849   0.358
53397W        W12834  28.538  27.152   5.087
53398W        W12835  40.970  42.511   1.214
53399W        W12836  42.350  21.024  14.955
53400W        W12837  27.546   2.910  12.445
53401W        W12838  31.026  41.989   2.418
53402W        W12839  14.773  40.997   3.253
53403W        W12840  25.480  21.252  14.395
53404W        W12841  31.134  21.030   3.190
53405W        W12842  21.619  20.572  14.306
53406W        W12843  25.500   2.425   2.666
53407W        W12844   5.740  31.436   0.920
53408W        W12845  16.193  12.177   0.365
53409W        W12846  34.370  10.186  12.430
53410W        W12847  10.264  41.488  13.019
53411W        W12848  18.654  30.555   0.371
53412W        W12849  28.552  26.642  11.898
53413W        W12850  19.217   0.894  12.374
53414W        W12851  35.960  25.646   0.950
53415W        W12852  38.346  30.605   3.178
53416W        W12853  15.607  24.071  14.770
53417W        W12854  32.416  22.700  11.425
53418W        W12855   2.363  36.442   1.777
53419W        W12856  42.014  26.173   3.300
53420W        W12857  16.656  42.878  11.910
53421W        W12858  17.703  19.589  14.940
53422W        W12859  34.977  28.144   4.611
53423W        W12860  41.530  34.462   1.739
53424W        W12861   0.256  23.537  11.896
53425W        W12862  31.414  13.280   3.227
53426W        W12863  38.863  19.147  11.924
53427W        W12864   9.887  22.239   0.422
53428W        W12865   2.438  40.393  12.886
53429W        W12866  39.379  34.371  12.095
53430W        W12867  15.688   1.915   0.789
53431W        W12868  18.748  11.799  14.766
53432W        W12869  30.987   9.696   2.738
53433W        W12870  25.011  14.792   4.630
53434W        W12871  31.023  11.347  10.932
53435W        W12872  36.578  34.897   1.934
53436W        W12873  40.827   9.778   3.367
53437W        W12874  42.398  12.737   1.290
53438W        W12875  36.079  23.073  13.014
53439W        W12876  11.833  41.986  14.800
53440W        W12877  39.812   2.734  14.458
53441W        W12878  18.158  41.402   0.466
53442W        W12879  25.176  33.510  12.824
53443W        W12880   0.969  10.878   3.349
53444W        W12881   2.795  20.671   1.701
53445W        W12882  10.673  35.880  12.480
53446W        W12883   5.326   3.762   1.245
53447W        W12884   5.736  42.333   2.384
53448W        W12885   6.322   7.883  14.936
53449W        W12886   6.700  36.010  11.498
53450W        W12887  15.185  32.010  13.859
53451W        W12888  15.191  24.572   3.816
53452W        W12889  23.121  12.839  12.037
53453W        W12890   2.360  43.449   2.692
53454W        W12891  14.322  26.208   2.895
53455W        W12892  44.280   7.837  13.869
53456W        W12893   8.310  11.655  12.409
53457W        W12894  33.553  12.638  13.914
53458W        W12895  38.052  34.946   2.304
53459W        W12896  16.611  10.317  10.932
53460W        W12897  11.833  31.412   0.292
53461W        W12898  18.546  20.150   0.436
53462W        W12899  41.861  29.001  14.957
53463W        W12900  40.466  29.126  14.946
53464W        W12901   8.211   4.726  14.808
53465W        W12902  30.529   8.668  10.991
53466W        W12903  18.623  33.385  12.548
53467W        W12904  36.430  25.181   4.354
53468W        W12905   2.726  27.178  12.842
53469W        W12906  29.971  20.058   3.251
53470W        W12907   4.390  26.703   1.899
53471W        W12908  39.971  18.237   4.774
53472W        W12909  42.865   9.160  11.422
53473W        W12910   4.309  21.687   4.338
53474W        W12911  11.152  25.578   0.822
53475W        W12912  37.380  16.773  14.994
53476W        W12913  34.906   4.785   0.258
53477W        W12914   7.724  22.677  10.939
53478W        W12915  27.127  33.957  10.470
53479W        W12916  34.513  44.815  11.593
53480W        W12917   5.918  43.859   3.737
53481W        W12918  33.583   2.726   2.333
53482W        W12919  22.100  16.803  14.291
53483W        W12920  21.706  30.580  10.556
53484W        W12921  36.932   1.449  13.535
53485W        W12922  26.196  22.131   0.739
53486W        W12923  17.564  13.642   4.682
53487W        W12924  26.603  16.149  12.926
53488W        W12925  42.431  25.082   3.846
53489W        W12926  12.707  25.504  11.912
53490W        W12927  16.104  39.982  14.894
53491W        W12928   0.744  29.426  11.493
53492W        W12929  32.925  22.625   1.879
53493W        W12930  37.425  16.169   0.868
53494W        W12931  18.147  42.986  12.927
53495W        W12932   9.356  16.696  13.408
53496W        W12933  29.624  11.775   3.840
53497W        W12934  14.766  34.503   1.931
53498W        W12935  12.172  16.805   1.757
53499W        W12936  16.641  44.352   4.679
53500W        W12937  34.913  20.686  12.420
53501W        W12938  21.056  18.630  14.921
53502W        W12939  17.691  40.346  12.861
53503W        W12940  13.802  22.015   3.353
53504W        W12941  21.676  15.288  13.888
53505W        W12942  11.775   5.712  12.948
53506W        W12943  32.425  20.688   2.249
53507W        W12944  22.141  22.073  11.941
53508W        W12945  23.053   6.290  10.571
53509W        W12946  41.922   3.459  11.453
53510W        W12947  28.594   2.966  10.612
53511W        W12948   6.200   8.760   3.722
53512W        W12949   4.315  21.050  14.801
53513W        W12950  12.262  12.683  12.414
53514W        W12951   4.906  23.024  10.080
53515W        W12952   3.822  17.159  12.011
53516W        W12953  39.846  18.230   0.804
53517W        W12954  28.111  30.498  11.373
53518W        W12955  14.744  35.920  11.456
53519W        W12956  17.221  32.141   3.639
53520W        W12957  10.382  35.392  14.336
53521W        W12958  29.154  42.522  12.907
53522W        W12959  16.677  29.026   1.224
53523W        W12960  26.601  40.049  12.833
53524W        W12961  41.296  37.978   3.384
53525W        W12962   1.476  37.010  14.466
53526W        W12963  15.629   4.699   4.754
53527W        W12964  21.643  26.990  10.531
53528W        W12965  13.785   8.817  14.007
53529W        W12966  35.382   6.186  11.050
53530W        W12967   1.735  24.174  10.993
53531W        W12968   6.737   8.266   3.188
53532W        W12969   1.934  13.293  12.071
53533W        W12970   5.370  18.606   4.292
53534W        W12971  31.435  19.670  12.489
53535W        W12972  22.676  18.158   4.239
53536W        W12973  41.809  26.622   9.991
53537W        W12974  19.190  37.392  11.571
53538W        W12975   1.871   4.857   3.226
53539W        W12976   3.744  10.348   4.663
53540W        W12977  25.669  13.151  10.415
53541W        W12978  17.130  40.437  11.434
53542W        W12979  10.185  40.921  13.431
53543W        W12980   7.684  10.244   1.793
53544W        W12981  40.490   1.463  11.957
53545W        W12982  36.988  15.090   0.371
53546W        W12983  36.398  31.591   2.248
53547W        W12984  31.026   6.344  13.935
53548W        W12985  22.144  16.635  11.103
53549W        W12986   4.858  40.813  14.805
53550W        W12987  17.149  12.706  10.068
53551W        W12988  43.463   5.410   4.191
53552W        W12989   4.835  38.454   3.249
53553W        W12990  40.032  36.381   2.234
53554W        W12991  10.671  41.300   5.232
53555W        W12992  40.319  35.572   1.352
53556W        W12993  44.260  26.560   0.423
53557W        W12994  28.980  10.246  11.500
53558W        W12995  24.572   8.885   2.321
53559W        W12996  15.231  17.126  12.896
53560W        W12997  10.637  34.570  13.398
53561W        W12998  13.117   3.758   0.344
53562W        W12999  17.625  32.142  12.007
53563W        W13000  29.998  37.446  12.085
53564W        W13001  42.814  12.840   1.768
53565W        W13002  31.547  26.656   4.290
53566W        W13003  32.514  36.443  13.893
53567W        W13004  23.517  36.073   1.447
53568W        W13005  41.362  41.006   3.167
53569W        W13006  40.446  24.215   3.231
53570W        W13007  23.079  19.281  11.591
53571W        W13008  16.135  21.061   0.955
53572W        W13009   3.743   0.827  10.622
53573W        W13010  19.586  22.694   3.211
53574W        W13011  37.569  33.058  13.444
53575W        W13012  13.266  27.961   1.760
53576W        W13013   9.885  18.134   4.602
53577W        W13014  37.450  33.412  11.984
53578W        W13015  44.938  17.671  10.916
53579W        W13016   4.372   0.938   1.732
53580W        W13017  30.412   3.266   5.279
53581W        W13018  35.584  26.702   3.741
53582W        W13019  25.033   4.913   4.804
53583W        W13020  27.991   9.784   4.605
53584W        W13021   4.368  38.825  13.312
53585W        W13022   6.903  26.686  13.518
53586W        W13023   0.364  40.861   3.714
53587W        W13024   3.817  19.152  13.477
53588W        W13025  23.079  42.892   4.696
53589W        W13026  12.697  27.490   3.797
53590W        W13027  41.987  22.719  13.802
53591W        W13028  27.029  10.343  12.010
53592W        W13029  25.159  35.036   0.741
53593W        W13030  24.016   6.334  12.882
53594W        W13031  23.569   7.370   3.206
53595W        W13032  15.176  23.023  11.885
53596W        W13033   0.249   5.201  13.020
53597W        W13034  39.047   6.723   2.416
53598W        W13035  16.587  14.137  12.049
53599W        W13036  33.879   9.298  13.870
53600W        W13037  10.789  32.591   2.670
53601W        W13038  26.473  13.118   3.787
53602W        W13039  43.406  26.968   0.876
53603W        W13040  43.767  34.395   0.961
53604W        W13041  43.771  16.189  14.845
53605W        W13042  15.652  29.514   4.718
53606W        W13043  21.125  41.029   0.409
53607W        W13044  43.994  13.644   3.279
53608W        W13045  18.089   6.713  10.564
53609W        W13046  13.197  23.544   1.288
53610W        W13047  37.503  24.628  14.827
53611W        W13048   1.892  43.356   3.767
53612W        W13049  31.580  41.350   0.890
53613W        W13050  40.467   9.242   1.339
53614W        W13051  25.487   9.809  13.412
53615W        W13052   2.830   8.730   2.833
53616W        W13053  34.999  11.143  10.609
53617W        W13054   6.307  33.570  10.541
53618W        W13055   1.341  31.640  10.540
53619W        W13056  41.492  30.064   4.251
53620W        W13057  34.541   1.378   4.761
53621W        W13058   8.236  39.861   4.172
53622W        W13059  38.886  28.608   2.372
53623W        W13060  11.199  39.430   4.655
53624W        W13061  10.289   8.201  10.566
53625W        W13062  38.511  20.031  11.418
53626W        W13063  36.881  38.996  14.984
53627W        W13064   2.807   4.245   2.840
53628W        W13065   0.775  43.006   2.744
53629W        W13066  17.298   5.372   3.843
53630W        W13067  39.550  34.931  14.366
53631W        W13068  32.420  33.898  13.459
53632W        W13069  21.258  23.514  11.474
53633W        W13070   2.278   7.734  14.280
53634W        W13071  36.462  19.177   3.342
53635W        W13072  16.156   1.961  14.767
53636W        W13073  15.282  36.520   1.730
53637W        W13074  35.094  27.097  11.391
53638W        W13075  38.881  21.190   4.780
53639W        W13076  11.184  42.970   4.128
53640W        W13077  38.423  18.075   2.797
53641W        W13078  23.646  36.899   1.769
53642W        W13079  14.157  21.717   0.480
53643W        W13080  11.161  21.203   2.693
53644W        W13081   2.940  12.280  13.407
53645W        W13082  21.735  40.393   0.249
53646W        W13083  32.974  14.642  13.827
53647W        W13084  21.090  16.246   5.605
53648W        W13085  44.906  18.750  11.106
53649W        W13086  30.609  41.324  10.450
53650W        W13087   2.955   5.782   1.448
53651W        W13088  23.654   9.382   2.319
53652W        W13089   2.950  41.932   3.328
53653W        W13090  33.882  37.892  10.075
53654W        W13091  29.545  17.237   4.153
53655W        W13092  38.009   1.794  11.035
53656W        W13093   4.272  22.053  14.947
53657W        W13094  30.597  32.396  10.948
53658W        W13095   5.925  44.919  12.566
53659W        W13096  13.206  37.470   0.263
53660W        W13097  10.761  40.958   3.637
53661W        W13098  13.249   8.849   5.248
53662W        W13099   9.184  29.476   3.347
53663W        W13100  27.196  32.421   1.403
53664W        W13101  29.143  34.925  14.515
53665W        W13102  39.473  16.773   0.255
53666W        W13103   0.896   7.236  14.902
53667W        W13104   2.276  11.867   0.851
53668W        W13105  11.231  42.032   2.763
53669W        W13106  38.534  30.557   0.864
53670W        W13107  25.518  37.354  10.948
53671W        W13108  12.856  21.625   4.723
53672W        W13109  43.442  15.139   0.938
53673W        W13110  34.042  32.986  11.548
53674W        W13111  40.330  42.494  12.884
53675W        W13112  32.943  30.029   2.715
53676W        W13113   4.342  16.234  11.984
53677W        W13114  26.644  22.737  14.416
53678W        W13115  17.600   4.745   2.773
53679W        W13116  40.385   9.858  14.872
53680W        W13117  36.462  41.915   2.762
53681W        W13118   8.402  42.029   2.797
53682W        W13119   6.326   8.209   2.710
53683W        W13120  39.410   6.275   0.936
53684W        W13121  29.144   8.721  11.583
53685W        W13122  11.321   3.897  13.402
53686W        W13123  35.881   1.259  12.394
53687W        W13124   5.725  37.449   4.622
53688W        W13125  13.654  19.187   3.366
53689W        W13126  27.151  31.121   0.386
53690W        W13127  20.112  39.399   2.886
53691W        W13128   8.290  29.666   0.885
53692W        W13129  40.888  14.152   0.247
53693W        W13130   8.894  24.650   9.445
53694W        W13131  20.175   7.893  12.375
53695W        W13132  18.655  41.997   0.907
53696W        W13133  44.783   2.844   3.179
53697W        W13134   5.337  20.763  10.584
53698W        W13135  44.321  36.935  11.532
53699W        W13136  26.961  30.481   5.256
53700W        W13137  25.192  42.990   4.213
53701W        W13138   5.913   9.161   0.357
53702W        W13139  25.986   1.268  11.058
53703W        W13140  12.305   7.337  13.840
53704W        W13141  12.710   0.282  11.883
53705W        W13142   6.900   6.898   1.746
53706W        W13143  21.552  31.021  11.534
53707W        W13144  41.456  34.380  14.879
53708W        W13145  23.696  25.598  13.394
53709W        W13146  21.175  39.063  12.957
53710W        W13147  23.095  16.267   9.609
53711W        W13148  12.747  14.722  11.938
53712W        W13149   4.845  17.745  13.368
53713W        W13150   0.343  40.320   4.678
53714W        W13151  17.259  39.412  14.842
53715W        W13152  31.593  31.998   2.774
53716W        W13153  44.384  36.587  14.828
53717W        W13154   4.305  16.306  14.479
53718W        W13155  39.007   3.900  13.982
53719W        W13156   4.378  34.098   1.735
53720W        W13157  30.012  22.082   0.878
53721W        W13158  15.189  34.114  10.405
53722W        W13159  25.016  28.069  14.917
53723W        W13160  39.333  12.201   0.386
53724W        W13161  24.194  19.694   2.202
53725W        W13162   1.863  21.619   1.344
53726W        W13163   3.808   5.312  12.877
53727W        W13164  11.181   0.884  13.848
53728W        W13165  20.167  40.527  13.420
53729W        W13166  15.128  20.253   0.318
53730W        W13167  14.320  37.023   4.815
53731W        W13168  23.651  12.769   0.325
53732W        W13169  17.281  28.561  13.437
53733W        W13170   8.214  33.911  12.013
53734W        W13171  10.746   9.351   4.801
53735W        W13172  31.146  16.620  11.392
53736W        W13173  34.541  20.029  14.016
53737W        W13174  23.128  14.196  12.341
53738W        W13175  16.726  16.808  13.407
53739W        W13176  37.477  25.597  12.899
53740W        W13177   5.747  19.207   1.831
53741W        W13178  38.477   9.677   1.260
53742W        W13179  12.712  40.444   0.448
53743W        W13180  27.581  43.951  13.797
53744W        W13181   0.756   4.824  11.593
53745W        W13182  12.616  28.999  12.409
53746W        W13183  22.013  21.598  13.818
53747W        W13184  13.110  23.168   4.601
53748W        W13185   5.247  25.468  10.940
53749W        W13186   9.361   2.459   1.411
53750W        W13187  25.642  11.249  12.537
53751W        W13188  32.970  25.204  11.538
53752W        W13189  29.135   8.751   2.852
53753W        W13190   1.912  41.958   4.263
53754W        W13191  13.797  38.411   3.378
53755W        W13192  13.196  38.510   2.340
53756W        W13193  30.416  23.559   4.133
53757W        W13194   4.800  22.556  13.826
53758W        W13195  39.412  32.585   3.188
53759W        W13196   4.769  41.380   2.853
53760W        W13197   9.165  16.661  10.979
53761W        W13198   1.275   7.300   1.696
53762W        W13199  21.630  32.612  10.574
53763W        W13200  29.649   2.794  13.486
53764W        W13201  12.646  36.559  12.055
53765W        W13202  30.584  30.637  10.534
53766W        W13203   6.718   8.312   3.849
53767W        W13204  32.904   4.891   1.919
53768W        W13205  20.719  32.608   4.655
53769W        W13206  41.461  28.946   3.690
53770W        W13207  11.232  32.934   2.399
53771W        W13208   3.387  11.837  14.333
53772W        W13209  28.999   7.295  11.991
53773W        W13210  33.070  41.923  13.317
53774W        W13211  36.362  39.894  10.547
53775W        W13212  38.933  39.360   0.761
53776W        W13213  36.567  40.437  12.492
53777W        W13214   6.227   1.789   0.939
53778W        W13215  15.087  21.515  12.536
53779W        W13216  36.593  28.175  10.006
53780W        W13217   7.687  26.569   5.215
53781W        W13218   9.345  20.219  12.509
53782W        W13219  44.833  20.765  12.075
53783W        W13220  29.938  16.080  12.406
53784W        W13221  21.548  13.780   3.862
53785W        W13222  16.302  23.660   0.791
53786W        W13223  22.521  17.250   2.417
53787W        W13224  24.099   8.802  11.534
53788W        W13225   4.305   5.335   2.780
53789W        W13226  26.652  13.680  11.081
53790W        W13227   0.476  35.853   1.806
53791W        W13228  15.590  30.481  13.908
53792W        W13229  41.339  37.077  14.480
53793W        W13230  44.496  38.899   2.774
53794W        W13231  11.340  36.457  11.396
53795W        W13232  34.073   6.333   4.612
53796W        W13233  27.145  11.339  14.444
53797W        W13234  22.662  27.971   4.332
53798W        W13235  34.935  18.180  11.090
53799W        W13236  30.133  23.668   2.890
53800W        W13237  23.992  19.728  10.901
53801W        W13238  20.628   9.197  14.913
53802W        W13239   8.332   7.179  13.855
53803W        W13240  32.924  24.118   3.334
53804W        W13241   8.225  30.593   4.240
53805W        W13242  24.220  12.683   4.705
53806W        W13243  10.862  16.188   2.325
53807W        W13244   2.941  21.513   0.292
53808W        W13245  39.510   4.257   3.638
53809W        W13246  38.011  32.053  10.957
53810W        W13247  20.608  16.701   2.406
53811W        W13248  42.815  28.667  13.485
53812W        W13249  34.396  21.233  12.078
53813W        W13250  20.582  25.169   1.441
53814W        W13251  27.969  38.501  14.912
53815W        W13252  11.649   3.259   1.400
53816W        W13253  10.669  29.938  11.456
53817W        W13254  15.149  40.043  13.484
53818W        W13255  28.028  41.487  12.051
53819W        W13256  10.712   0.838  12.478
53820W        W13257  39.348   9.320  12.526
53821W        W13258  35.436  12.831   3.711
53822W        W13259  38.503  28.634   1.825
53823W        W13260  37.902  17.771  12.445
53824W        W13261  10.381   6.685  11.100
53825W        W13262  22.588   6.348  12.824
53826W        W13263  34.871  16.579  12.349
53827W        W13264   6.262  14.322  12.019
53828W        W13265  22.247   6.747  11.055
53829W        W13266  21.732   6.804  14.500
53830W        W13267  29.508   0.461   1.907
53831W        W13268  28.470   3.405   0.761
53832W        W13269  31.445   2.826  12.510
53833W        W13270  21.064  12.681  10.473
53834W        W13271  36.924   6.805  12.365
53835W        W13272  25.578  14.691  13.015
53836W        W13273   2.913  33.624   4.195
53837W        W13274  19.281  43.007  11.087
53838W        W13275  25.081   9.302  14.513
53839W        W13276  40.945  36.980   1.824
53840W        W13277  38.452  28.121  10.616
53841W        W13278  38.391  16.166   4.114
53842W        W13279   5.310   0.268   3.641
53843W        W13280   2.906  29.113   1.855
53844W        W13281  34.533  37.072   0.313
53845W        W13282  32.071  21.033  10.925
53846W        W13283  42.883  14.220  11.402
53847W        W13284   1.974   2.251   2.178
53848W        W13285  42.400  40.523   4.331
53849W        W13286  31.583   1.968   3.309
53850W        W13287  23.158  22.996   0.329
53851W        W13288  13.310  12.135   1.340
53852W        W13289   7.276   6.348  13.974
53853W        W13290  14.688  23.725  14.014
53854W        W13291  10.820  18.286   3.243
53855W        W13292  34.899  15.769   1.734
53856W        W13293  35.052  28.657  11.597
53857W        W13294  29.142  33.925   3.305
53858W        W13295  38.952  36.526  13.060
53859W        W13296  25.023  42.799   3.178
53860W        W13297  25.972  35.562   3.853
53861W        W13298  10.878  27.161   3.331
53862W        W13299  23.664  11.777   0.771
53863W        W13300  32.601  11.249   3.754
53864W        W13301  42.283  32.991   2.687
53865W        W13302  19.726  17.072   0.830
53866W        W13303  36.366  11.655   2.859
53867W        W13304  22.672  22.026  12.356
53868W        W13305  38.391   8.279  11.860
53869W        W13306  20.120  44.944   3.728
53870W        W13307  24.204  24.043   4.159
53871W        W13308   7.865  38.846  11.544
53872W        W13309   0.306  37.562   0.786
53873W        W13310  17.218  21.236  14.380
53874W        W13311  26.620   0.853   2.249
53875W        W13312  19.580  14.170   2.251
53876W        W13313  11.166  26.536  12.946
53877W        W13314  26.652   7.236  12.970
53878W        W13315  25.674  25.074   2.283
53879W        W13316  17.653  15.143   0.347
53880W        W13317   4.785  34.090   2.345
53881W        W13318  30.553  37.965   2.307
53882W        W13319   2.382  40.842   3.146
53883W        W13320  39.417  36.519   1.432
53884W        W13321  42.016  14.246   2.857
53885W        W13322   7.334  29.530   0.307
53886W        W13323  42.799  11.361  11.090
53887W        W13324  24.230  11.129  13.479
53888W        W13325   3.278  20.722   1.708
53889W        W13326  12.190  20.617  13.822
53890W        W13327  28.677  15.635   0.395
53891W        W13328  16.183  37.878  11.914
53892W        W13329  10.861   8.379   2.822
53893W        W13330  36.447  37.906  10.498
53894W        W13331  35.915   4.699   1.253
53895W        W13332  43.836  37.528   2.196
53896W        W13333  37.050  38.389  13.816
53897W        W13334   8.256   9.668  14.030
53898W        W13335  10.139   1.327  13.010
53899W        W13336  36.890  19.595  13.388
53900W        W13337  31.139  31.470   1.376
53901W        W13338  35.096   0.315  14.281
53902W        W13339  36.506  16.237   2.325
53903W        W13340  42.392  22.129   0.806
53904W        W13341   6.893  25.584   0.962
53905W        W13342  29.154   5.840   3.841
53906W        W13343  24.542  33.903  13.875
53907W        W13344   3.311  34.931   0.458
53908W        W13345   7.835  38.480  11.050
53909W        W13346  28.959  26.000   0.765
53910W        W13347  11.202   3.721   1.811
53911W        W13348  28.541  11.775   4.251
53912W        W13349  39.923   3.442   3.828
53913W        W13350  28.570  16.751   4.351
53914W        W13351  15.194  15.631  13.023
53915W        W13352  28.127   5.421   4.713
53916W        W13353   1.782  37.340  12.058
53917W        W13354   3.788  31.009   4.739
53918W        W13355  29.623  26.104  12.840
53919W        W13356  25.679   9.832   5.667
53920W        W13357   1.880  44.836   3.827
53921W        W13358  27.005  40.488  14.952
53922W        W13359  19.060  24.038  13.532
53923W        W13360  15.246  15.745   1.787
53924W        W13361  39.432  31.113   3.706
53925W        W13362  34.441  28.449  11.033
53926W        W13363  23.235  30.126  11.999
53927W        W13364  10.751  44.983  13.890
53928W        W13365  29.973  12.820  12.877
53929W        W13366  13.177  17.250   2.780
53930W        W13367  13.240   6.852  12.420
53931W        W13368   0.252  20.169   1.819
53932W        W13369   8.661   5.374  10.996
53933W        W13370  16.085   3.327  14.982
53934W        W13371  36.854  36.077   4.600
53935W        W13372  30.435  27.151   2.184
53936W        W13373  15.815  18.587   4.257
53937W        W13374  10.292  28.120  14.979
53938W        W13375  33.914  38.378  10.530
53939W        W13376  35.999  31.986  12.856
53940W        W13377  43.365   8.302   2.813
53941W        W13378   2.283   1.803   4.636
53942W        W13379   9.768  44.887   4.828
53943W        W13380  27.965  38.941  11.095
53944W        W13381  13.303   8.828  14.895
53945W        W13382  34.593  22.997  12.376
53946W        W13383  41.509  13.827   2.793
53947W        W13384  16.295  44.825   0.932
53948W        W13385  33.514  31.060   1.446
53949W        W13386   6.757   5.837   1.865
53950W        W13387   0.955  28.596  11.018
53951W        W13388  20.671  39.049   0.298
53952W        W13389  23.996  25.587  13.878
53953W        W13390   3.258  39.503  12.910
53954W        W13391   6.848   9.223   0.833
53955W        W13392   6.907  37.362  14.428
53956W        W13393  34.462  25.574  13.860
53957W        W13394  27.025  23.078   0.856
53958W        W13395  35.995   3.458   2.191
53959W        W13396  14.234  33.889   3.847
53960W        W13397   4.757  24.622   2.268
53961W        W13398  38.831  20.182  13.318
53962W        W13399  28.958  35.980   4.249
53963W        W13400   1.738   4.363  14.835
53964W        W13401  41.495  27.598  13.376
53965W        W13402  44.297   5.284   2.301
53966W        W13403  22.121  36.842   3.660
53967W        W13404  38.431  21.125  13.353
53968W        W13405  36.852  17.063  10.641
53969W        W13406  21.022  17.635  11.489
53970W        W13407   1.237  10.212   3.810
53971W        W13408  41.793   5.368   1.893
53972W        W13409  27.642   4.793  11.487
53973W        W13410  37.523  17.247   0.269
53974W        W13411  39.473   1.798   0.755
53975W        W13412   6.771  19.709   1.259
53976W        W13413  11.135  38.469   1.305
53977W        W13414  42.848  44.838   4.702
53978W        W13415  25.525  17.273  14.444
53979W        W13416  43.021  14.163   1.877
53980W        W13417  39.503  28.447   3.165
53981W        W13418  10.641   1.318   1.882
53982W        W13419  20.563  24.551   0.304
53983W        W13420  21.180  41.439   2.815
53984W        W13421  20.069  16.754  14.772
53985W        W13422  13.625  37.336  12.066
53986W        W13423  36.422  39.450   2.861
53987W        W13424   3.286   9.827  12.016
53988W        W13425   0.942  30.539  13.512
53989W        W13426   0.261  33.957   3.848
53990W        W13427  11.255  34.568   3.328
53991W        W13428   7.327  10.830  13.316
53992W        W13429   1.785   4.350  10.491
53993W        W13430  44.431  22.102   2.688
53994W        W13431  24.070   9.835   3.823
53995W        W13432   2.831  19.543  13.485
53996W        W13433  25.627  34.540   1.393
53997W        W13434  35.043   7.273  11.946
53998W        W13435  23.169  35.051   3.652
53999W        W13436  19.677   1.455   4.635
54000W        W13437  11.707   6.782  12.555
54001W        W13438  27.692  20.739  12.505
54002W        W13439  20.698  30.423  11.922
54003W        W13440   0.773   3.391  10.042
54004W        W13441  44.443  21.045  14.911
54005W        W13442  19.771   6.854   2.876
54006W        W13443  44.946  36.411   0.422
54007W        W13444  20.041  21.650  14.841
54008W        W13445   9.198  27.095   0.888
54009W        W13446   6.759  27.040  14.995
54010W        W13447   6.696  15.726  12.495
54011W        W13448  14.802  17.743   0.891
54012W        W13449  21.034  13.191   0.912
54013W        W13450   4.430  19.157   3.247
54014W        W13451  25.211  37.574  11.993
54015W        W13452  36.851  38.972   3.852
54016W        W13453  12.286  18.643   0.745
54017W        W13454   7.232   8.865   5.256
54018W        W13455   6.846  36.503   1.896
54019W        W13456  38.521   1.732   1.381
54020W        W13457   8.330   8.710  13.488
54021W        W13458  14.610  23.717   1.387
54022W        W13459  42.854  28.612  11.016
54023W        W13460  19.051  40.505  12.873
54024W        W13461  12.689  23.520  14.024
54025W        W13462  25.029  39.910   4.142
54026W        W13463  41.033  29.532   4.119
54027W        W13464  30.515  26.157   2.276
54028W        W13465   3.385   8.764  13.455
54029W        W13466  19.278  11.306   2.333
54030W        W13467  38.939  18.294   2.383
54031W        W13468  32.514   8.174   3.381
54032W        W13469  12.739   3.894   4.141
54033W        W13470  10.309  41.458   2.310
54034W        W13471   7.341  16.581   3.348
54035W        W13472  11.352  22.660   2.860
54036W        W13473  34.034  22.637  12.018
54037W        W13474   8.656  31.619  10.104
54038W        W13475  40.824  28.031  12.505
54039W        W13476  36.033  22.116  11.877
54040W        W13477   4.279  31.561  11.013
54041W        W13478   4.339  15.649  11.949
54042W        W13479  37.376  43.355   4.182
54043W        W13480  31.097   8.202   2.235
54044W        W13481   2.919  37.041  11.524
54045W        W13482  28.987  30.580   1.844
54046W        W13483  29.508  20.744   3.222
54047W        W13484  31.094  14.835  11.405
54048W        W13485  18.138  38.843  11.095
54049W        W13486  20.754  25.998   3.663
54050W        W13487  44.268  14.714  12.424
54051W        W13488  39.468  31.066  13.495
54052W        W13489  30.568   9.316  11.899
54053W        W13490  32.952  22.576   1.377
54054W        W13491  40.818  30.596  11.575
54055W        W13492  20.651  13.774   3.271
54056W        W13493  43.356  19.617  10.940
54057W        W13494  18.599  27.149  14.948
54058W        W13495  30.444  36.086   0.382
54059W        W13496  29.661  11.321   0.304
54060W        W13497  23.654  32.007  11.450
54061W        W13498   7.784  40.392  14.481
54062W        W13499  30.002  42.328   4.205
54063W        W13500  35.402  39.869   2.368
54064W        W13501   2.273  31.967   1.773
54065W        W13502  25.673  27.070  12.356
54066W        W13503  20.265   1.377   3.325
54067W        W13504   4.856  19.278   0.961
54068W        W13505  16.760  41.940  12.392
54069W        W13506  11.260  13.239  14.324
54070W        W13507  41.908  27.593   2.220
54071W        W13508   4.845  32.123  11.124
54072W        W13509  25.483  39.838   2.830
54073W        W13510  20.562  17.284  14.852
54074W        W13511   1.737  11.161   4.673
54075W        W13512  37.930  15.759   0.953
54076W        W13513  32.075  12.192   3.300
54077W        W13514  13.197  13.211   4.760
54078W        W13515  14.110  32.463   3.672
54079W        W13516   5.235  33.537  14.350
54080W        W13517  16.213  42.426  11.453
54081W        W13518  32.568  43.468   2.819
54082W        W13519  21.055   4.863  13.044
54083W        W13520  44.923  10.273   3.811
54084W        W13521  39.385  17.613   3.823
54085W        W13522  36.393  22.680  13.794
54086W        W13523   1.404  11.712  13.367
54087W        W13524   5.789  38.831   3.213
54088W        W13525  30.511  30.585   1.849
54089W        W13526  43.804   6.329  10.509
54090W        W13527  40.801   9.744  14.805
54091W        W13528   5.909  42.986  12.531
54092W        W13529   6.778  44.268   4.597
54093W        W13530   2.808  40.394  12.467
54094W        W13531   6.191  32.928  12.880
54095W        W13532  17.700  27.653   0.343
54096W        W13533  12.683  11.636  12.428
54097W        W13534  44.928   4.853   0.797
54098W        W13535  42.777   3.246  10.644
54099W        W13536  20.666   4.792   4.291
54100W        W13537  13.214   7.280  14.974
54101W        W13538  10.755  32.569   0.884
54102W        W13539  29.993  38.887   3.672
54103W        W13540  14.703   0.397  14.818
54104W        W13541  25.482   0.267   4.639
54105W        W13542  10.771  36.410   1.254
54106W        W13543  21.732  16.635   0.336
54107W        W13544  33.119  34.108  10.497
54108W        W13545  30.545  36.457   3.218
54109W        W13546   8.668   6.349   1.447
54110W        W13547  42.318  16.261  13.936
54111W        W13548  34.462  43.421   9.924
54112W        W13549  12.325  42.884   1.869
54113W        W13550  41.951  17.103   0.434
54114W        W13551   8.709  39.429  10.944
54115W        W13552  10.663  39.833  12.369
54116W        W13553  13.633  21.048  12.884
54117W        W13554   4.266  26.124   3.282
54118W        W13555  28.588  13.814   0.950
54119W        W13556  17.152  39.943  12.943
54120W        W13557   5.708  37.996  10.629
54121W        W13558  20.063  27.944  13.420
54122W        W13559  21.191  43.820   0.920
54123W        W13560  40.481  34.435  11.099
54124W        W13561  23.143  20.761   2.277
54125W        W13562  44.896  32.428   1.794
54126W        W13563  44.457   1.756  13.802
54127W        W13564  33.564  12.786   0.902
54128W        W13565  13.647  42.938   3.856
54129W        W13566  13.798  14.106  13.869
54130W        W13567  33.987   5.749  10.607
54131W        W13568  17.120  42.325  13.414
54132W        W13569   4.746  21.627   3.191
54133W        W13570  26.513  20.055   0.758
54134W        W13571  41.006  35.518   3.350
54135W        W13572  13.795  20.077   2.750
54136W        W13573  11.166  11.629  12.914
54137W        W13574  39.916  37.476   4.648
54138W        W13575   4.236  25.057   4.325
54139W        W13576  12.329  32.411   2.385
54140W        W13577   3.365  38.563   4.820
54141W        W13578  39.862  41.342   1.700
54142W        W13579  20.530  14.831   1.730
54143W        W13580   8.264  31.002   1.427
54144W        W13581  40.945  32.898   2.291
54145W        W13582  13.815  15.294   1.321
54146W        W13583  10.366   8.725  13.488
54147W        W13584   3.844  42.291   2.834
54148W        W13585  40.389  18.620   0.869
54149W        W13586  24.994  39.412   1.915
54150W        W13587  36.938  21.677   0.379
54151W        W13588   7.798  24.719  12.354
54152W        W13589  42.513  10.762   3.813
54153W        W13590  19.142  20.231  13.997
54154W        W13591   0.967  29.953   1.816
54155W        W13592  40.050  44.806  10.508
54156W        W13593  40.831  40.396  11.466
54157W        W13594  44.961  44.814   2.414
54158W        W13595  37.052  18.566   1.842
54159W        W13596  17.567  33.448   2.378
54160W        W13597  44.793   8.403  11.449
54161W        W13598   2.372   6.425  12.922
54162W        W13599  36.356  13.272   3.179
54163W        W13600  11.346  22.581  11.373
54164W        W13601  35.089  41.915   2.853
54165W        W13602   1.970  32.032  13.901
54166W        W13603  33.460  23.497   4.838
54167W        W13604  11.301   3.711  14.424
54168W        W13605  24.991  23.187   5.106
54169W        W13606  35.929  31.906  13.385
54170W        W13607  36.975  30.622  10.948
54171W        W13608  25.605  31.475  14.437
54172W        W13609  23.533  28.565   3.169
54173W        W13610  28.115  15.257   4.729
54174W        W13611  11.248   2.804   1.701
54175W        W13612  13.200   9.395   4.671
54176W        W13613  12.630   0.837   3.192
54177W        W13614  38.372  30.605   4.295
54178W        W13615  34.882  22.585  14.359
54179W        W13616  33.438   7.197  10.000
54180W        W13617   5.815  28.108   2.204
54181W        W13618  16.581  35.557  14.943
54182W        W13619  18.681   7.885   5.192
54183W        W13620  14.322   4.441  12.492
54184W        W13621  31.550   8.816  13.500
54185W        W13622  34.113  32.048   1.297
54186W        W13623  29.092   9.307  12.005
54187W        W13624  36.571  43.835  13.373
54188W        W13625  31.954  20.761   2.765
54189W        W13626   7.327  36.496  11.597
54190W        W13627  42.023  33.969   3.237
54191W        W13628  19.232   0.915   3.152
54192W        W13629   4.322  14.672  11.518
54193W        W13630  41.974  22.602  14.999
54194W        W13631  19.064  14.178   0.363
54195W        W13632   7.328  22.178   0.758
54196W        W13633   1.437  43.836   2.859
54197W        W13634  34.598  17.697   2.819
54198W        W13635  17.132  44.262  13.506
54199W        W13636   1.412  23.724   4.304
54200W        W13637  27.518  10.373   3.338
54201W        W13638  12.150  39.486   0.761
54202W        W13639  33.083  25.665  11.017
54203W        W13640  42.823   3.357   2.757
54204W        W13641   4.315  10.274  11.439
54205W        W13642  15.141  20.207  13.919
54206W        W13643  41.022  23.700   4.326
54207W        W13644  15.242  24.567   4.734
54208W        W13645  36.093  29.017  10.894
54209W        W13646  28.952  27.045   2.788
54210W        W13647  42.384  28.139   2.309
54211W        W13648  35.964  36.566  14.870
54212W        W13649  33.938  17.761  11.053
54213W        W13650  18.690  19.188  14.417
54214W        W13651  33.523   7.204  12.417
54215W        W13652  16.181  14.755   3.825
54216W        W13653  40.547  12.342  14.030
54217W        W13654  25.004   5.881   3.229
54218W        W13655  14.799  31.124   3.165
54219W        W13656  18.546  41.027   0.307
54220W        W13657  12.312  36.493   1.310
54221W        W13658  12.218  16.280   2.748
54222W        W13659  10.311   2.823   0.361
54223W        W13660   8.726  31.529  12.356
54224W        W13661   0.426  16.592  11.419
54225W        W13662  41.038  19.243   2.711
54226W        W13663   3.931  34.928  12.048
54227W        W13664  32.446   5.770  10.112
54228W        W13665   1.412  24.177   4.711
54229W        W13666  38.016  21.662   3.169
54230W        W13667  27.643  35.487  14.275
54231W        W13668  30.436  44.344  11.469
54232W        W13669  11.226   1.782   2.732
54233W        W13670   9.200  41.499  11.587
54234W        W13671  23.524  44.907  10.509
54235W        W13672  36.053   9.791  11.862
54236W        W13673  27.480  21.242   4.761
54237W        W13674   2.347  34.606  14.010
54238W        W13675  32.597  31.979   4.762
54239W        W13676  37.471  34.528   4.777
54240W        W13677   0.494  44.354   1.922
54241W        W13678   7.337  10.824   0.272
54242W        W13679  23.078  27.968   1.875
54243W        W13680  37.076  36.865   3.193
54244W        W13681  36.947  22.624   3.186
54245W        W13682  24.103  44.460  10.990
54246W        W13683  41.022  37.410  14.278
54247W        W13684   5.203  14.308  13.413
54248W        W13685   0.351   3.291   1.767
54249W        W13686  16.696   2.771  12.925
54250W        W13687   2.877  38.862   0.363
54251W        W13688  19.664   2.750  10.974
54252W        W13689  25.180  38.440   0.427
54253W        W13690   5.213   4.727  10.453
54254W        W13691  11.192  25.984   4.682
54255W        W13692  33.489  34.518  11.896
54256W        W13693   1.934  31.516  11.523
54257W        W13694  42.853  26.598  14.408
54258W        W13695   3.745  25.596   4.242
54259W        W13696  29.517  40.924  12.553
54260W        W13697  12.275  37.079  10.554
54261W        W13698  25.044  14.152  10.143
54262W        W13699   0.264  20.134   0.481
54263W        W13700  29.637  38.569   4.797
54264W        W13701  27.161  20.064  13.894
54265W        W13702  43.797  22.504  13.479
54266W        W13703  23.045  19.775  13.340
54267W        W13704  21.682  41.798  13.871
54268W        W13705  22.653  41.371   2.401
54269W        W13706  20.554   0.803   0.413
54270W        W13707  25.494  28.527   3.750
54271W        W13708  16.182  23.059  14.801
54272W        W13709  35.429  36.478   4.779
54273W        W13710  30.592  25.570  12.917
54274W        W13711  26.087   5.879   2.823
54275W        W13712  33.908  13.782   3.212
54276W        W13713  37.526  22.083  14.860
54277W        W13714  30.579  12.335   0.741
54278W        W13715  44.761  30.003   4.227
54279W        W13716  36.579   7.851   0.838
54280W        W13717  24.129  30.995  12.499
54281W        W13718  44.951  38.030   0.921
54282W        W13719   9.250   1.824   9.927
54283W        W13720   1.865  19.541  14.465
54284W        W13721  30.444  27.505  14.512
54285W        W13722  44.504  28.633   1.717
54286W        W13723  41.825  33.875  10.621
54287W        W13724  22.586  21.068   2.894
54288W        W13725   8.227  18.589   3.714
54289W        W13726  43.478  39.916  11.941
54290W        W13727   6.818  16.772   2.818
54291W        W13728  23.996  18.202   9.979
54292W        W13729  12.255  23.207  12.376
54293W        W13730  33.481  35.107  13.886
54294W        W13731   6.882  40.925   3.773
54295W        W13732   6.776   3.779   2.343
54296W        W13733  17.744  10.804  11.598
54297W        W13734  12.659  32.535  10.626
54298W        W13735   3.798  24.207  12.485
54299W        W13736  43.449  14.680   1.430
54300W        W13737   8.353  36.860   3.663
54301W        W13738  27.574  11.865  12.499
54302W        W13739  15.164  26.025  11.492
54303W        W13740  14.603  16.145   3.677
54304W        W13741  31.956  41.809  12.082
54305W        W13742  15.642  10.807   0.357
54306W        W13743  35.103  20.089  14.991
54307W        W13744  38.876  16.285   2.800
54308W        W13745  40.447  17.697  14.382
54309W        W13746  32.484  20.567   1.338
54310W        W13747  27.075  10.660   3.205
54311W        W13748  10.195  10.365  14.788
54312W        W13749  14.758  13.605  14.028
54313W        W13750   9.861  26.575   1.865
54314W        W13751  21.617   3.339  11.012
54315W        W13752   5.292  36.980   4.796
54316W        W13753  34.380   9.261  12.074
54317W        W13754  28.147  23.030  12.023
54318W        W13755  31.950  35.528  11.586
54319W        W13756   1.919  25.081  11.989
54320W        W13757  20.076   6.834   3.344
54321W        W13758  41.495   9.797   0.828
54322W        W13759  37.888   0.757   0.405
54323W        W13760  39.382  32.525   2.295
54324W        W13761  34.532  22.076  13.973
54325W        W13762  25.500   3.881   1.315
54326W        W13763  44.258   6.288   4.758
54327W        W13764  27.654  26.458  14.923
54328W        W13765  30.560  41.309   4.348
54329W        W13766  43.335   7.708   1.911
54330W        W13767   3.387   4.278  13.005
54331W        W13768   4.869  25.560   3.159
54332W        W13769  13.611  37.994  12.936
54333W        W13770   3.371  35.548  12.923
54334W        W13771  30.943  15.670   4.757
54335W        W13772  12.219  15.136   3.216
54336W        W13773  39.893  25.579  10.625
54337W        W13774   8.347  19.260   3.213
54338W        W13775   4.832  15.631  10.144
54339W        W13776  16.715  40.407  10.917
54340W        W13777   3.853  25.623  13.915
54341W        W13778  12.644  28.973   0.324
54342W        W13779  19.687   4.304  11.599
54343W        W13780  27.071  22.558   2.663
54344W        W13781  13.755  18.200   1.922
54345W        W13782  26.633  29.479   3.811
54346W        W13783  20.134  23.017   1.442
54347W        W13784  24.056  34.076  12.571
54348W        W13785   0.986   1.952  12.913
54349W        W13786  27.663  44.489   0.757
54350W        W13787  10.175  23.173   3.664
54351W        W13788  31.049   8.720   5.270
54352W        W13789   5.842  40.358   4.205
54353W        W13790  20.065  25.587  12.409
54354W        W13791  38.524  40.846   3.815
54355W        W13792  36.579  26.952   2.184
54356W        W13793   3.788  10.634  14.899
54357W        W13794  18.777  12.165   3.670
54358W        W13795   0.809  15.220   1.929
54359W        W13796  13.733  17.665  10.542
54360W        W13797  28.104  39.023   5.277
54361W        W13798  38.376   7.833   2.412
54362W        W13799  15.141   0.746  13.925
54363W        W13800  29.114   1.248   4.690
54364W        W13801   4.215  23.091  11.512
54365W        W13802  11.292  16.221   1.245
54366W        W13803   4.779  40.312   5.119
54367W        W13804  41.942  29.523  14.489
54368W        W13805  37.341  18.153  11.887
54369W        W13806  22.614   9.656   1.751
54370W        W13807  22.555  39.845   2.320
54371W        W13808  14.226  22.098   4.695
54372W        W13809  29.638  34.909  13.510
54373W        W13810   4.408  22.512   4.155
54374W        W13811  30.606  27.527   2.253
54375W        W13812  12.704  34.984   4.345
54376W        W13813  21.206  39.388  14.514
54377W        W13814  22.513  18.571   4.678
54378W        W13815   9.321  10.369   0.451
54379W        W13816  41.504  39.389  10.618
54380W        W13817  27.030  11.632  14.894
54381W        W13818  14.685   3.780  11.443
54382W        W13819  14.796  11.804   0.801
54383W        W13820   9.295  31.025  10.450
54384W        W13821  32.972  34.477  13.867
54385W        W13822  39.477   9.772  12.048
54386W        W13823   5.695  36.072   1.705
54387W        W13824   3.817  43.980   3.767
54388W        W13825  31.938  43.876  10.557
54389W        W13826   2.282  20.114  14.998
54390W        W13827  27.541   6.855   0.307
54391W        W13828  44.904  40.969   5.803
54392W        W13829   8.704  17.160   1.397
54393W        W13830  23.717   7.191   4.320
54394W        W13831  25.130   5.231  13.533
54395W        W13832  31.004  44.386  10.472
54396W        W13833   9.175  13.689  13.902
54397W        W13834  16.240  36.991   0.262
54398W        W13835  33.497  23.141   4.168
54399W        W13836   2.393  21.049  10.955
54400W        W13837  44.466   0.761  14.455
54401W        W13838  15.237  25.674  11.066
54402W        W13839   6.764  32.512   1.266
54403W        W13840  22.179  11.666  12.401
54404W        W13841   1.956  20.242   1.920
54405W        W13842   5.381  20.264   4.684
54406W        W13843  25.703  10.224   1.427
54407W        W13844   5.924  42.900   4.250
54408W        W13845   5.251  11.695   4.609
54409W        W13846   5.781  34.030   3.209
54410W        W13847   4.355   5.401  10.953
54411W        W13848  36.554  22.171   0.944
54412W        W13849  30.426  44.825   3.700
54413W        W13850  30.488  41.428   2.179
54414W        W13851  18.235   5.858   0.749
54415W        W13852   5.303   7.397  12.874
54416W        W13853  18.128  35.594   3.262
54417W        W13854   9.658   4.807   1.733
54418W        W13855  42.017  27.644   0.450
54419W        W13856  31.638  20.556  12.088
54420W        W13857  29.999  31.496   1.800
54421W        W13858   9.294  32.042   2.324
54422W        W13859  36.099  36.896  13.309
54423W        W13860  38.865  24.212  14.964
54424W        W13861  40.994  41.919   0.359
54425W        W13862  31.522  28.056   2.728
54426W        W13863  22.718  38.919   1.433
54427W        W13864  16.736  14.235  12.447
54428W        W13865  36.983  44.433   2.299
54429W        W13866   6.425  19.067   1.818
54430W        W13867  14.691   2.876   4.124
54431W        W13868  16.189  23.629  12.873
54432W        W13869  36.383  28.003  13.015
54433W        W13870  42.865  14.625   4.179
54434W        W13871  26.487  21.082  12.959
54435W        W13872   7.769  32.914  11.965
54436W        W13873   5.778  34.575   3.667
54437W        W13874  17.257  12.856  11.969
54438W        W13875   8.894  27.558   0.913
54439W        W13876   1.450  36.441   3.190
54440W        W13877   8.279  14.120  14.918
54441W        W13878  41.525  36.977   1.933
54442W        W13879  41.446  27.592  14.478
54443W        W13880  28.954  22.238   2.386
54444W        W13881   6.693   9.312  10.917
54445W        W13882  18.073  34.087   3.806
54446W        W13883  16.290  30.086   1.921
54447W        W13884  31.631  37.843  14.364
54448W        W13885  33.122   4.926  11.104
54449W        W13886  19.087   8.679  13.798
54450W        W13887  16.258  11.137  11.576
54451W        W13888  37.889  10.166   0.773
54452W        W13889   0.755  28.945  14.359
54453W        W13890  44.495  12.141   2.212
54454W        W13891  30.449  25.098   2.715
54455W        W13892  31.450  37.558   2.776
54456W        W13893  35.439   1.782  13.518
54457W        W13894  12.336  30.642  14.310
54458W        W13895  27.127  17.112   4.793
54459W        W13896  12.247  32.014   4.153
54460W        W13897   4.284  33.435  10.483
54461W        W13898  10.360  21.616  11.523
54462W        W13899  37.019  17.136  10.958
54463W        W13900   1.478  34.092  13.820
54464W        W13901  12.804  37.830  13.806
54465W        W13902  34.558   0.330   1.740
54466W        W13903   7.407  33.900   2.717
54467W        W13904   8.271  36.011  12.505
54468W        W13905  12.333  25.156  12.433
54469W        W13906  18.772  30.955   1.890
54470W        W13907  23.682  32.413   1.706
54471W        W13908  29.433  28.070   4.746
54472W        W13909  12.289  44.869  14.350
54473W        W13910  26.553  39.454  13.367
54474W        W13911  16.598   3.807   4.754
54475W        W13912  25.071  24.118  14.029
54476W        W13913   4.864   7.209  11.519
54477W        W13914  13.751   0.912  14.372
54478W        W13915  32.004   7.387  14.366
54479W        W13916  24.214   1.781   4.739
54480W        W13917  39.973   5.417  12.896
54481W        W13918  22.143  26.468  11.082
54482W        W13919  30.549  10.726  13.919
54483W        W13920   0.328  24.662   2.243
54484W        W13921  23.994  10.314  14.841
54485W        W13922   4.285   0.323  12.051
54486W        W13923  42.352  10.823   2.270
54487W        W13924  18.764   7.356  10.620
54488W        W13925  43.799  31.603  10.520
54489W        W13926   5.435   7.809  12.900
54490W        W13927   0.874  20.620   3.792
54491W        W13928  10.159  39.060   0.962
54492W        W13929  10.340   4.324   3.332
54493W        W13930  11.729   1.281  10.951
54494W        W13931   8.394  19.222  13.398
54495W        W13932  25.606  14.804  13.873
54496W        W13933  39.553  21.657   3.730
54497W        W13934  22.070   4.222  11.532
54498W        W13935  16.652  41.520   3.687
54499W        W13936  13.761   1.734  14.467
54500W        W13937  21.676  40.912   1.230
54501W        W13938  30.657  15.252  12.425
54502W        W13939  11.140   8.172   0.767
54503W        W13940  41.347  10.315   3.703
54504W        W13941   8.724   8.787   1.229
54505W        W13942  36.406  40.327  14.495
54506W        W13943  44.915   8.259  11.080
54507W        W13944   7.848  25.005  12.859
54508W        W13945  36.383   7.797   3.822
54509W        W13946  34.007   6.897  11.886
54510W        W13947  21.085  12.130   3.776
54511W        W13948  30.468  14.767  14.790
54512W        W13949  19.062   2.410  11.103
54513W        W13950  35.970  35.528  13.446
54514W        W13951  31.062   1.450  14.337
54515W        W13952  36.355  44.298  11.574
54516W        W13953   7.298  42.489  10.892
54517W        W13954   6.869  14.306  14.772
54518W        W13955  31.982   9.192   1.926
54519W        W13956  22.543  18.560   2.704
54520W        W13957   9.789   0.375  11.935
54521W        W13958  26.149  40.398  12.491
54522W        W13959   4.865  15.718  11.516
54523W        W13960  23.699  26.161   1.759
54524W        W13961   0.901  21.142   5.121
54525W        W13962  27.106  26.465  12.020
54526W        W13963  38.532  32.455   4.609
54527W        W13964   3.445  12.721   1.280
54528W        W13965  32.600  36.917  11.899
54529W        W13966  19.586   9.711  13.887
54530W        W13967  15.086  22.692   0.777
54531W        W13968  43.806  32.010   5.226
54532W        W13969  30.008  37.347  12.995
54533W        W13970  39.834  37.870   2.225
54534W        W13971  18.620  18.076  10.434
54535W        W13972  39.321  29.045  13.369
54536W        W13973   1.970  32.498   2.878
54537W        W13974   2.315  24.687  13.820
54538W        W13975  27.605  16.125  14.436
54539W        W13976   0.273  25.666   4.713
54540W        W13977  13.323   2.342  14.896
54541W        W13978  22.087  39.940  12.546
54542W        W13979  23.066  31.034  13.461
54543W        W13980  10.251   0.249   4.773
54544W        W13981  33.899  15.134   1.727
54545W        W13982  23.048  19.073  13.438
54546W        W13983  20.162  11.801   4.318
54547W        W13984  25.546   4.884   2.344
54548W        W13985  27.054  10.311  13.874
54549W        W13986  14.323  30.488  14.391
54550W        W13987  39.356  33.471  13.856
54551W        W13988  34.526   7.221  14.393
54552W        W13989  39.536   2.808  14.917
54553W        W13990  14.600  26.480  14.900
54554W        W13991  12.277   7.180  12.389
54555W        W13992  26.569  25.192  14.869
54556W        W13993  39.532  30.078   3.731
54557W        W13994  29.088  20.586   3.750
54558W        W13995  31.630  34.557   1.894
54559W        W13996  12.812  44.842   3.265
54560W        W13997  30.084  37.557  12.381
54561W        W13998  43.314  31.490   0.257
54562W        W13999  16.083   7.801  13.826
54563W        W14000  29.663   2.444   2.285
54564W        W14001  14.777  34.971  10.938
54565W        W14002  44.463  35.511   9.531
54566W        W14003  14.173  32.525  11.878
54567W        W14004   6.375   3.946   1.761
54568W        W14005  11.818  35.554  12.440
54569W        W14006  19.766  14.096  14.948
54570W        W14007  35.019  23.519   1.870
54571W        W14008  39.340  43.277   4.662
54572W        W14009  35.017  17.282   1.913
54573W        W14010  37.358  18.605   2.246
54574W        W14011  42.836   4.891  14.015
54575W        W14012  44.324  21.081   1.708
54576W        W14013   3.411   6.802  14.357
54577W        W14014   0.349  40.050  12.953
54578W        W14015  28.534  37.914  14.484
54579W        W14016   4.857  43.386  14.849
54580W        W14017  19.062  33.382   3.787
54581W        W14018  19.568  41.363  13.532
54582W        W14019  12.120  42.474   2.733
54583W        W14020   3.395  12.132  14.365
54584W        W14021  43.412  27.134   3.243
54585W        W14022  34.387   4.382   3.327
54586W        W14023  44.930  41.355   2.820
54587W        W14024   5.733  34.526   3.328
54588W        W14025   2.765  20.568  14.418
54589W        W14026   8.661  41.929   4.614
54590W        W14027  14.173  44.956  13.312
54591W        W14028   9.218  38.402  13.058
54592W        W14029  10.304   0.787  14.808
54593W        W14030  15.105   8.182  11.557
54594W        W14031  20.261  30.482   3.157
54595W        W14032  28.167  26.200   0.461
54596W        W14033  19.535  39.026   4.736
54597W        W14034  33.912  27.570  12.065
54598W        W14035  40.976  29.555   1.310
54599W        W14036  37.830  12.784  13.349
54600W        W14037  14.302  14.662   2.833
54601W        W14038  35.539  11.148  13.403
54602W        W14039  18.160  13.148   3.329
54603W        W14040  40.485  40.912   4.338
54604W        W14041  20.634  11.817  10.519
54605W        W14042  41.538  20.650  13.346
54606W        W14043  15.133   6.747  14.803
54607W        W14044  39.809  34.419   1.741
54608W        W14045  24.985  41.392   5.213
54609W        W14046  39.862  31.642   0.914
54610W        W14047   1.885  13.844   4.121
54611W        W14048  44.367  22.579   0.771
54612W        W14049  21.613  19.118  14.486
54613W        W14050  21.629  41.040  13.520
54614W        W14051  27.491  40.523   1.864
54615W        W14052   4.811  23.110   4.669
54616W        W14053  23.033  15.130  13.928
54617W        W14054  10.645   3.818  11.103
54618W        W14055  15.319  29.932  12.829
54619W        W14056  18.749  21.726  14.507
54620W        W14057  34.917   4.364  13.507
54621W        W14058  24.992  36.571   3.718
54622W        W14059  44.283  12.323  11.076
54623W        W14060  32.549  42.313  12.867
54624W        W14061  39.985  35.408   4.688
54625W        W14062  33.384  28.625   3.861
54626W        W14063  28.630  41.338   2.300
54627W        W14064  10.814  14.264   1.434
54628W        W14065  22.544  21.595  11.411
54629W        W14066  20.147  37.938  13.020
54630W        W14067  35.081   4.312   3.168
54631W        W14068  13.323  31.489  14.509
54632W        W14069  29.552  19.216  12.926
54633W        W14070   2.278  44.371   1.918
54634W        W14071  28.629  17.193   2.725
54635W        W14072   4.766  12.633  12.868
54636W        W14073  29.030  41.845   3.246
54637W        W14074   7.874  27.561  10.546
54638W        W14075   0.845  12.258   2.811
54639W        W14076   8.231  42.313   2.858
54640W        W14077  14.129  14.714   4.179
54641W        W14078   3.902  32.591  11.030
54642W        W14079  17.279  23.505   2.409
54643W        W14080  44.493  17.197   4.635
54644W        W14081  28.617   4.938   0.419
54645W        W14082   2.338  36.888   1.924
54646W        W14083  14.314  11.854  14.778
54647W        W14084  26.556  25.702  11.425
54648W        W14085  20.608  32.969  14.276
54649W        W14086  26.571  13.798  10.502
54650W        W14087  26.648  32.120  11.576
54651W        W14088  28.976   1.416  11.450
54652W        W14089   6.887  43.411  12.383
54653W        W14090  39.028  21.092   3.694
54654W        W14091  12.697  18.087  11.496
54655W        W14092  25.499  35.077  10.931
54656W        W14093  10.714   6.287  13.944
54657W        W14094  40.998  30.532  13.912
54658W        W14095  15.722  34.076  12.894
54659W        W14096  40.901  21.753  13.357
54660W        W14097  42.430   9.271  14.841
54661W        W14098  16.701  39.539  14.015
54662W        W14099  18.736  18.128  10.888
54663W        W14100  24.074  15.181   2.692
54664W        W14101  25.027   3.836  13.310
54665W        W14102  20.671  23.010  14.837
54666W        W14103  20.651  28.456   3.213
54667W        W14104  40.037  34.441  14.822
54668W        W14105  28.458  25.212   0.382
54669W        W14106  14.753  36.029   5.086
54670W        W14107   7.666  16.295   2.297
54671W        W14108  11.273  17.684  11.400
54672W        W14109  16.296  21.620  10.445
54673W        W14110  39.518  11.848   0.296
54674W        W14111  28.526  25.575   3.751
54675W        W14112   2.450  29.145   5.288
54676W        W14113  36.358  12.855  13.023
54677W        W14114  31.569  14.238  10.592
54678W        W14115  14.818  25.605  12.842
54679W        W14116   5.841  11.272  13.060
54680W        W14117   3.919   6.899  10.991
54681W        W14118  17.141  21.617  10.994
54682W        W14119   5.884  36.914   4.683
54683W        W14120  31.595  37.861  13.470
54684W        W14121   7.248  30.162  14.909
54685W        W14122   1.866  27.120  12.044
54686W        W14123   1.268   7.191  13.460
54687W        W14124  36.455  11.235   4.689
54688W        W14125  24.171  10.353   0.453
54689W        W14126  36.069   7.905  12.438
54690W        W14127   4.922  39.440   3.769
54691W        W14128  10.259  32.457  13.846
54692W        W14129   9.272  31.484   1.272
54693W        W14130   0.942  35.548  14.897
54694W        W14131  27.588   4.349   4.702
54695W        W14132   4.802  35.483  11.454
54696W        W14133  41.917  13.694  14.885
54697W        W14134  42.927  40.304   2.369
54698W        W14135  36.925  24.046  12.984
54699W        W14136  44.810   8.231   0.908
54700W        W14137  35.444   9.197   1.306
54701W        W14138  23.501  43.799  14.988
54702W        W14139  26.481   1.237  13.494
54703W        W14140   4.319  19.718  14.000
54704W        W14141  12.335  29.931   0.942
54705W        W14142  43.864  26.961   3.200
54706W        W14143  17.622   3.894   4.190
54707W        W14144   2.339  41.808  11.947
54708W        W14145  10.658   9.747  11.939
54709W        W14146  40.451  40.430   1.264
54710W        W14147  21.216  29.450  14.347
54711W        W14148   2.273  22.615   4.147
54712W        W14149  32.120  15.773  12.395
54713W        W14150  24.559  25.554  11.555
54714W        W14151   4.444  12.214   4.323
54715W        W14152  43.458  13.188   4.283
54716W        W14153  19.657  28.643   2.288
54717W        W14154   4.300  41.792   4.611
54718W        W14155   7.354  24.642   1.912
54719W        W14156  41.899   7.826   3.827
54720W        W14157  16.735  21.246  10.469
54721W        W14158  28.136  22.523  10.022
54722W        W14159   3.922  23.997   2.190
54723W        W14160  12.329  25.556  11.893
54724W        W14161  13.823  32.095  13.311
54725W        W14162  33.095  21.189   0.889
54726W        W14163  27.446  15.107  10.484
54727W        W14164  10.277   3.290  14.343
54728W        W14165  44.986  22.202   4.695
54729W        W14166   6.224  19.177   2.281
54730W        W14167   7.308  13.302   0.885
54731W        W14168  18.626  15.109   1.399
54732W        W14169  27.060   9.833  13.991
54733W        W14170  43.899  12.175  12.885
54734W        W14171   5.694   8.822  13.998
54735W        W14172  13.320  40.399   1.391
54736W        W14173  10.258  40.527  13.372
54737W        W14174  21.750  35.526  12.042
54738W        W14175  34.379   6.326  12.069
54739W        W14176   6.322  29.654  11.478
54740W        W14177  11.753  27.513  14.294
54741W        W14178  26.522  28.448   0.345
54742W        W14179  24.042  39.508  12.035
54743W        W14180  33.549  41.916   9.474
54744W        W14181  18.676  20.049  13.445
54745W        W14182  35.952  23.177   2.795
54746W        W14183  26.687  15.633   3.693
54747W        W14184  44.376   6.778   0.300
54748W        W14185  39.037  12.333   2.683
54749W        W14186  14.615  11.646  14.437
54750W        W14187   2.828  11.808   4.654
54751W        W14188  23.629  24.040   5.209
54752W        W14189  41.037  44.941   0.262
54753W        W14190  18.100  16.248   3.171
54754W        W14191  30.131  37.888  11.479
54755W        W14192  13.614  29.147  12.074
54756W        W14193  38.441   3.793  14.797
54757W        W14194  22.218   9.181   4.198
54758W        W14195  35.901   3.404  13.959
54759W        W14196  30.440   8.819   4.676
54760W        W14197  23.586  18.656  14.338
54761W        W14198   9.673  15.762  14.029
54762W        W14199   0.281  29.157   0.385
54763W        W14200  21.062  39.358  11.116
54764W        W14201   2.778  24.640   2.722
54765W        W14202   6.867  28.018  14.460
54766W        W14203  35.908  10.823   2.314
54767W        W14204   7.822  11.644   2.829
54768W        W14205  26.500  25.218  12.894
54769W        W14206  36.084  17.257  10.994
54770W        W14207  20.645   5.818  12.535
54771W        W14208   4.755  14.108   1.407
54772W        W14209  36.952  20.063   2.222
54773W        W14210  35.047  36.574  13.039
54774W        W14211  15.295  36.409   2.717
54775W        W14212  35.856  36.397   4.603
54776W        W14213   8.762   6.921   4.173
54777W        W14214  37.497   1.392   3.684
54778W        W14215  35.542   7.899  13.817
54779W        W14216  44.395   9.340   3.185
54780W        W14217  32.971  42.504  11.402
54781W        W14218  35.541  26.192  11.539
54782W        W14219  27.115  38.388   4.322
54783W        W14220  15.705   4.390   4.728
54784W        W14221   8.758  30.456  13.024
54785W        W14222  26.079  27.077  10.951
54786W        W14223   8.790  26.030  10.499
54787W        W14224  12.798   2.845  10.637
54788W        W14225  42.297  42.890   2.710
54789W        W14226  11.347  43.824   1.266
54790W        W14227  26.479  20.755   2.767
54791W        W14228  21.579   8.655   1.329
54792W        W14229  21.557   4.773  12.480
54793W        W14230  35.481  44.318   2.239
54794W        W14231  44.781  39.880  13.329
54795W        W14232  29.656   0.452   0.421
54796W        W14233  37.373  44.761  11.111
54797W        W14234  29.639  24.714   0.764
54798W        W14235  12.635  35.398   0.951
54799W        W14236  16.180  44.385   1.900
54800W        W14237  24.614  26.176   3.178
54801W        W14238  39.404  39.491   2.290
54802W        W14239   7.335  26.952  13.537
54803W        W14240  23.089  40.307   3.241
54804W        W14241  15.168  34.040  11.560
54805W        W14242  20.203  42.476  11.535
54806W        W14243  32.625  13.178   1.395
54807W        W14244  40.954  19.285   4.641
54808W        W14245   0.406  42.929  13.354
54809W        W14246   1.793  15.613  12.007
54810W        W14247  31.417  16.740   4.181
54811W        W14248   3.414   3.834   4.667
54812W        W14249   5.774   5.259   3.771
54813W        W14250  26.533  33.441   4.312
54814W        W14251  42.362  19.121   0.737
54815W        W14252  39.509  37.954   3.667
54816W        W14253  25.057   8.688  14.978
54817W        W14254  36.977   2.241  12.436
54818W        W14255  12.634  37.063  11.868
54819W        W14256  29.930  24.517  13.974
54820W        W14257  13.772   2.841  14.830
54821W        W14258  38.431  15.665   3.171
54822W        W14259  34.894  21.748   2.823
54823W        W14260  10.815  22.716   4.345
54824W        W14261  17.712  15.250  13.981
54825W        W14262   0.869   5.195  13.002
54826W        W14263  26.685  13.801  12.064
54827W        W14264  21.243  31.047  11.553
54828W        W14265   4.920  23.607   0.808
54829W        W14266  44.317  39.554  13.488
54830W        W14267   1.423  26.557   2.895
54831W        W14268   7.806  12.293   3.298
54832W        W14269  37.468  35.586   3.721
54833W        W14270  41.508   6.379  14.276
54834W        W14271  35.479  29.017   3.223
54835W        W14272  22.684  23.641   5.307
54836W        W14273  19.263  16.248  12.568
54837W        W14274  30.657  29.155   1.435
54838W        W14275  38.450  28.650  12.387
54839W        W14276   6.254  33.120   1.774
54840W        W14277  28.945  27.976   4.144
54841W        W14278  39.054   6.840   2.685
54842W        W14279   3.375  42.029   0.863
54843W        W14280  20.691  30.940  10.638
54844W        W14281   5.361  43.507   3.812
54845W        W14282  25.606  34.933   0.795
54846W        W14283  39.463  39.998   3.781
54847W        W14284  19.142  16.150  14.333
54848W        W14285  22.671  34.023   0.391
54849W        W14286   6.736   3.926   0.274
54850W        W14287  32.892  44.951  10.427
54851W        W14288  19.557  26.552   4.137
54852W        W14289  33.503   8.208   4.231
54853W        W14290  16.643  41.787   0.337
54854W        W14291   6.912  14.817   4.139
54855W        W14292   3.725  23.584   2.891
54856W        W14293  34.519   4.747  12.847
54857W        W14294  39.000  44.847   2.808
54858W        W14295  26.597  13.218  13.963
54859W        W14296  26.024   2.738  14.332
54860W        W14297  36.897  28.088  13.347
54861W        W14298  41.478  28.664  10.500
54862W        W14299  13.209  36.552  13.064
54863W        W14300  22.556  21.043   3.666
54864W        W14301  44.860  14.630  12.902
54865W        W14302  34.938  13.613  12.520
54866W        W14303  11.863  11.185   1.881
54867W        W14304   3.421   7.303   1.753
54868W        W14305  21.220  18.146  11.964
54869W        W14306   0.888  43.486  10.939
54870W        W14307   1.384  33.426   0.401
54871W        W14308   2.361   9.884  10.078
54872W        W14309  38.459  26.514  13.795
54873W        W14310   5.382  36.996  14.466
54874W        W14311  32.970  41.390  13.831
54875W        W14312  14.162  20.595   0.862
54876W        W14313  42.425  34.874   2.232
54877W        W14314  44.004  11.633   1.398
54878W        W14315  19.263  21.050   1.700
54879W        W14316  16.735  42.443  12.383
54880W        W14317  25.055  32.953   2.251
54881W        W14318  24.510  36.516  14.279
54882W        W14319  33.117  13.188   3.729
54883W        W14320  27.631  11.689  13.889
54884W        W14321  22.608  13.650   4.766
54885W        W14322  43.405  17.756  11.512
54886W        W14323   2.250  10.642  13.457
54887W        W14324  19.680   0.489  10.428
54888W        W14325  18.123   5.911   1.379
54889W        W14326  40.831  25.160   4.277
54890W        W14327   7.355  28.488   1.372
54891W        W14328  17.145  29.461  11.080
54892W        W14329  15.577  12.743   4.256
54893W        W14330  44.861  16.766  14.847
54894W        W14331   1.908   8.215   2.361
54895W        W14332   4.864  43.274   0.346
54896W        W14333   9.749  20.631   4.193
54897W        W14334   5.932  25.629   3.372
54898W        W14335   4.801   5.876  11.102
54899W        W14336  17.263  32.096  12.988
54900W        W14337  41.470  37.834  14.512
54901W        W14338  28.009  39.347  13.420
54902W        W14339  43.318  26.565  14.496
54903W        W14340  40.870  36.983   0.834
54904W        W14341  11.867  19.064  14.281
54905W        W14342  18.716  24.000   4.122
54906W        W14343  12.201   5.229   3.649
54907W        W14344  40.861  35.416   0.937
54908W        W14345  36.925  18.062  10.640
54909W        W14346  24.222   8.858  11.119
54910W        W14347  27.501   3.724   4.311
54911W        W14348  10.662  28.563  12.922
54912W        W14349  25.612  16.253   4.648
54913W        W14350   7.179  43.987   2.305
54914W        W14351  42.988  14.133   1.270
54915W        W14352  28.162  31.107  14.294
54916W        W14353  16.747   9.707   2.678
54917W        W14354  18.219  28.463  13.866
54918W        W14355   3.713   5.264   2.864
54919W        W14356  28.173  27.179   1.418
54920W        W14357  14.292   1.440   0.245
54921W        W14358  38.567  29.921   4.827
54922W        W14359  40.804   7.389   1.294
54923W        W14360  31.425  14.308   4.760
54924W        W14361  13.760  24.542   3.377
54925W        W14362  20.524   9.656  14.302
54926W        W14363   7.417  31.501   2.311
54927W        W14364  26.600  32.042   5.151
54928W        W14365  21.086  42.897  13.345
54929W        W14366  29.514  26.990  11.962
54930W        W14367  22.605  23.715  12.052
54931W        W14368  23.530  21.143  10.404
54932W        W14369  15.665  11.705   5.260
54933W        W14370  21.755  43.810  12.409
54934W        W14371  26.958  24.624   4.696
54935W        W14372  30.142  30.607  14.829
54936W        W14373  29.544  32.614  13.842
54937W        W14374  28.076  32.633   3.273
54938W        W14375  39.899  37.972  13.395
54939W        W14376  31.605  19.231   1.869
54940W        W14377  44.939  38.543  11.466
54941W        W14378  30.522   7.375   4.739
54942W        W14379  34.981  27.965  11.485
54943W        W14380   5.287  37.410   3.674
54944W        W14381  13.766  29.496   0.467
54945W        W14382  25.525  12.656  12.077
54946W        W14383  44.299  15.129  13.383
54947W        W14384  25.526  22.122   1.760
54948W        W14385   8.735   1.272   4.306
54949W        W14386   1.420  20.625  11.472
54950W        W14387  28.564  16.696  12.069
54951W        W14388  23.523  33.990   3.387
54952W        W14389  18.123  29.476   0.355
54953W        W14390  42.378  11.852  13.434
54954W        W14391  26.070  16.088   4.838
54955W        W14392  28.039  11.360  12.865
54956W        W14393  37.379   5.886  12.962
54957W        W14394   0.843  32.489   4.310
54958W        W14395  17.291  40.969   5.571
54959W        W14396  10.733  28.169  11.459
54960W        W14397  41.311  41.042  12.827
54961W        W14398  34.934  34.103   3.222
54962W        W14399   8.755  23.205   1.897
54963W        W14400  28.056  34.879   4.176
54964W        W14401  24.094  28.519  12.000
54965W        W14402  34.100  19.719  13.412
54966W        W14403  26.461  30.499  14.419
54967W        W14404   9.773  16.673  10.908
54968W        W14405   9.157  43.489   4.313
54969W        W14406  27.131  30.080   2.718
54970W        W14407  30.435  14.786   4.257
54971W        W14408  39.385  32.482   4.637
54972W        W14409   4.382  43.775   4.254
54973W        W14410  25.216   1.834   0.732
54974W        W14411  36.565  18.711   4.261
54975W        W14412   9.269  16.192  13.537
54976W        W14413  34.973  19.166  14.312
54977W        W14414  11.811  37.437   4.286
54978W        W14415  26.588   4.375   1.316
54979W        W14416  20.230  37.463  14.994
54980W        W14417  30.979  43.845  11.129
54981W        W14418  23.540  34.476   4.723
54982W        W14419   8.829  20.590   4.790
54983W        W14420  24.166   6.235  12.057
54984W        W14421   6.884  29.980   5.279
54985W        W14422  26.676  36.860   1.446
54986W        W14423   2.260  15.639  14.775
54987W        W14424   7.715  33.125   4.645
54988W        W14425  42.988  35.526  10.448
54989W        W14426   5.925  44.474   2.841
54990W        W14427  38.370  21.216   4.252
54991W        W14428  19.250  37.489   2.866
54992W        W14429  10.251   1.443   1.921
54993W        W14430  35.927   4.282   0.945
54994W        W14431  26.070  14.761   1.310
54995W        W14432  31.440  23.507  11.479
54996W        W14433  22.713  26.049   2.294
54997W        W14434  44.396  18.071   0.430
54998W        W14435  33.035  42.029  11.886
54999W        W14436   5.394  23.111   3.688
55000W        W14437  33.099  20.207  14.016
55001W        W14438  27.458  28.181   3.721
55002W        W14439  33.119  35.425  13.416
55003W        W14440   1.916  32.574   4.625
55004W        W14441  44.286  29.926   3.245
55005W        W14442  11.270  13.669   2.364
55006W        W14443  18.065  25.061   4.144
55007W        W14444  42.320  24.673   4.666
55008W        W14445  24.528  26.993  11.578
55009W        W14446  18.577   1.738   5.308
55010W        W14447  23.156  17.079  11.969
55011W        W14448  35.566  27.530   0.747
55012W        W14449  28.449   9.715   3.869
55013W        W14450  20.184  32.934  13.328
55014W        W14451  16.741  33.477  12.063
55015W        W14452  11.336  17.597   4.652
55016W        W14453  28.055  32.039  13.800
55017W        W14454  15.635  43.013   4.275
55018W        W14455  30.101  20.542  10.492
55019W        W14456   7.762  20.620  11.076
55020W        W14457  15.782  11.239   3.693
55021W        W14458  16.172  11.189   4.338
55022W        W14459  15.304   4.258  12.964
55023W        W14460  21.033  39.458  10.601
55024W        W14461  14.196  24.088  13.508
55025W        W14462  18.054  36.585   0.961
55026W        W14463  28.172   4.410   3.293
55027W        W14464  24.601  42.335  10.436
55028W        W14465  42.000  19.669   2.728
55029W        W14466  35.864  33.992   1.444
55030W        W14467  11.181  28.604  12.867
55031W        W14468  12.763   0.916  12.441
55032W        W14469  19.713  19.676   0.952
55033W        W14470   5.732   4.316  14.772
55034W        W14471  13.628  18.222   0.864
55035W        W14472  18.554  37.980  12.366
55036W        W14473  16.265   3.320  12.036
55037W        W14474  13.625  30.112  14.425
55038W        W14475   1.862   1.927   1.340
55039W        W14476   5.791  29.667  13.536
55040W        W14477   3.458   8.876  13.961
55041W        W14478  10.741   3.250   4.797
55042W        W14479  35.589  23.698   4.202
55043W        W14480   6.809  29.170   3.226
55044W        W14481  44.475  32.982  11.096
55045W        W14482  41.810  28.111   1.705
55046W        W14483  13.820  39.962   3.247
55047W        W14484   0.467   4.889  11.032
55048W        W14485  28.610  19.650  11.440
55049W        W14486  35.033  18.284   3.246
55050W        W14487  18.067  15.811   0.959
55051W        W14488  40.831  36.367  11.383
55052W        W14489  27.104  21.545  13.855
55053W        W14490  43.972  28.020  14.297
55054W        W14491  13.765  26.037   3.236
55055W        W14492  31.406  42.891  11.931
55056W        W14493  30.418  36.918   0.345
55057W        W14494  23.569   4.849   0.434
55058W        W14495  24.668  36.458  13.853
55059W        W14496   8.319  30.969  14.381
55060W        W14497  29.445   7.774   2.262
55061W        W14498  39.372  32.546  12.904
55062W        W14499  35.908  36.558  12.553
55063W        W14500  30.429  18.593   0.403
55064W        W14501  24.687  29.449   0.351
55065W        W14502  41.846  34.003  13.888
55066W        W14503  10.358  35.472   0.730
55067W        W14504   5.726  32.027  11.598
55068W        W14505  21.679  44.754   0.429
55069W        W14506  23.540  40.362   1.335
55070W        W14507  10.258  39.986   1.333
55071W        W14508  10.273  13.716  10.989
55072W        W14509  44.452   0.952   1.322
55073W        W14510   6.287   4.813   3.836
55074W        W14511  11.219   9.220  14.884
55075W        W14512  39.813   3.722   0.439
55076W        W14513  13.136  13.220  14.468
55077W        W14514  15.797  39.840  14.450
55078W        W14515   9.763  17.065  12.944
55079W        W14516  33.605  31.617   0.885
55080W        W14517  42.425  28.497   3.382
55081W        W14518  16.190  14.735   0.901
55082W        W14519  16.730  11.693   0.923
55083W        W14520  42.921  36.396  13.914
55084W        W14521  28.953  19.040  12.468
55085W        W14522  39.401  39.908   4.751
55086W        W14523  29.564  11.320   2.342
55087W        W14524  32.596  14.324   1.715
55088W        W14525  28.486  31.419  10.552
55089W        W14526  11.330   0.765   4.645
55090W        W14527  23.686   8.719  12.043
55091W        W14528  27.606  33.456  11.514
55092W        W14529  30.626  26.466   4.629
55093W        W14530  38.020  38.457   0.805
55094W        W14531  36.942  31.457   2.229
55095W        W14532  28.130  42.887  11.858
55096W        W14533  26.523  44.948  12.930
55097W        W14534   8.300  37.931   4.196
55098W        W14535   5.354  34.498  12.835
55099W        W14536  42.387  33.390  11.941
55100W        W14537  37.889  43.441  13.501
55101W        W14538   7.892  41.017   0.258
55102W        W14539  24.118  26.553  12.890
55103W        W14540  42.384   7.331  10.483
55104W        W14541  32.524  24.502  13.003
55105W        W14542  18.724  27.174  10.479
55106W        W14543  25.053  11.628  14.984
55107W        W14544  16.245  19.214   0.792
55108W        W14545  36.862  16.744   4.192
55109W        W14546  40.518  10.707   2.409
55110W        W14547  27.606  14.663  14.846
55111W        W14548   9.267  31.510   1.875
55112W        W14549  21.694  28.018   1.423
55113W        W14550  11.841  25.520   2.734
55114W        W14551   3.382  29.443  11.564
55115W        W14552  27.552  36.008   2.838
55116W        W14553  42.898   6.188   3.176
55117W        W14554  10.166  35.868   1.811
55118W        W14555  36.556  42.515   4.346
55119W        W14556   0.248  16.607  13.464
55120W        W14557  35.521  38.386   0.960
55121W        W14558  38.842  38.935  14.423
55122W        W14559  28.486  23.525   5.677
55123W        W14560  31.079  26.602   0.387
55124W        W14561  42.854   9.331   0.267
55125W        W14562   9.319   8.690   4.706
55126W        W14563  21.212  42.936  14.492
55127W        W14564  12.688  36.501   4.755
55128W        W14565  34.054   0.799   1.823
55129W        W14566   7.208  35.978   3.361
55130W        W14567   3.283  14.818   4.735
55131W        W14568  15.666  15.301  14.014
55132W        W14569   8.894  11.318  14.379
55133W        W14570  20.071  18.732   1.928
55134W        W14571   5.250   9.673   2.204
55135W        W14572  26.172  34.451  14.388
55136W        W14573  10.187  22.142   2.406
55137W        W14574  36.462   4.226   4.650
55138W        W14575  14.281  33.917   0.259
55139W        W14576  15.772  27.031   4.744
55140W        W14577  30.569   6.819  11.042
55141W        W14578  29.527  37.040   1.265
55142W        W14579   0.487  21.562   3.816
55143W        W14580  36.876  29.131  14.830
55144W        W14581  33.564  43.770  10.530
55145W        W14582   2.267  30.019  12.518
55146W        W14583  44.310   3.824   3.247
55147W        W14584  17.634  36.572   0.737
55148W        W14585  41.000  13.656   2.282
55149W        W14586  32.095  14.804  12.948
55150W        W14587   0.840  37.370  11.903
55151W        W14588   2.737  41.028  11.904
55152W        W14589  14.832   1.250   3.640
55153W        W14590  15.180  35.955   3.230
55154W        W14591   6.376  36.093  13.311
55155W        W14592  10.170  20.707  12.408
55156W        W14593  23.186  40.445   1.220
55157W        W14594  17.292  16.655  13.051
55158W        W14595  44.867  14.259   1.803
55159W        W14596  36.576  32.540   1.794
55160W        W14597  18.200   3.714   4.674
55161W        W14598  41.901  25.585  11.972
55162W        W14599  42.283  17.685   0.883
55163W        W14600  36.463  31.971   0.246
55164W        W14601  22.082  30.015   0.478
55165W        W14602  20.163  29.524  13.937
55166W        W14603   0.791  32.931   2.292
55167W        W14604   5.924   8.386   3.301
55168W        W14605   0.960  41.011   1.776
55169W        W14606   9.308  21.531   4.654
55170W        W14607  29.592  16.612  11.580
55171W        W14608  15.295  43.884   0.274
55172W        W14609  44.770  15.206  11.946
55173W        W14610  24.582  30.006   3.779
55174W        W14611  41.350  43.433  14.843
55175W        W14612   6.399  26.059   3.280
55176W        W14613  20.109  32.395   2.365
55177W        W14614  43.974   9.814  13.364
55178W        W14615  14.260   9.674  14.808
55179W        W14616   3.953  39.483   4.317
55180W        W14617  32.107  31.638  14.372
55181W        W14618  41.501  38.058  14.766
55182W        W14619  33.076  31.492  14.300
55183W        W14620  43.286   4.813   4.751
55184W        W14621  24.077  18.596   4.216
55185W        W14622   8.378  19.655  13.052
55186W        W14623  28.056  44.006  14.481
55187W        W14624  41.822  41.811   4.291
55188W        W14625  26.522  15.784  13.858
55189W        W14626  40.006  25.999   2.263
55190W        W14627   1.743  11.785  11.917
55191W        W14628  17.672   5.878   0.732
55192W        W14629  36.368  32.067   2.755
55193W        W14630  17.260  25.714  13.479
55194W        W14631  41.475  33.910  11.899
55195W        W14632  33.936  24.512  12.485
55196W        W14633   5.798  25.209   5.574
55197W        W14634   8.275  31.141   2.728
55198W        W14635   9.669  22.674  12.501
55199W        W14636  30.005  15.600   1.289
55200W        W14637  41.863   7.328  14.861
55201W        W14638  44.414   2.354   1.336
55202W        W14639  28.457  13.731   1.848
55203W        W14640  32.989  14.241   1.926
55204W        W14641  39.414  15.597  10.914
55205W        W14642   9.157  31.612   0.340
55206W        W14643  14.166  40.448  11.575
55207W        W14644   5.352  11.867  14.963
55208W        W14645  43.952  16.655  13.333
55209W        W14646   3.343   7.723   1.768
55210W        W14647  33.563   3.410  12.431
55211W        W14648  22.658  14.320  13.540
55212W        W14649  44.304  24.629  12.834
55213W        W14650  35.458  24.710   0.924
55214W        W14651   3.348  16.232   0.759
55215W        W14652  18.114   5.332  11.070
55216W        W14653  35.537  43.878  11.933
55217W        W14654   2.863  43.302  12.872
55218W        W14655  25.474  19.762  14.780
55219W        W14656  31.554  43.980   2.709
55220W        W14657   9.828  14.153  11.969
55221W        W14658  12.335   0.748  11.931
55222W        W14659   5.235  30.993  14.902
55223W        W14660  35.421  37.365  12.087
55224W        W14661  15.734   4.296  14.919
55225W        W14662   3.288  35.096  10.933
55226W        W14663   8.764  24.613  10.488
55227W        W14664  19.755   6.346  10.598
55228W        W14665  37.400  13.689   0.454
55229W        W14666  41.392  15.100  12.863
55230W        W14667  18.084  21.040  10.951
55231W        W14668  42.506  17.141  13.369
55232W        W14669  40.538  37.475   0.438
55233W        W14670  29.588  36.529  11.924
55234W        W14671  37.502  44.499   4.354
55235W        W14672  15.756  39.961   1.434
55236W        W14673  33.575   7.689  14.445
55237W        W14674  28.124  44.324   0.329
55238W        W14675   6.296  43.502   1.372
55239W        W14676   9.279  13.800   0.269
55240W        W14677  37.385  29.025  12.388
55241W        W14678  31.542  21.042   0.743
55242W        W14679  20.555  43.363   2.901
55243W        W14680  36.540  22.116  11.997
55244W        W14681  33.002  22.506  12.872
55245W        W14682  36.368  24.126   3.664
55246W        W14683  26.609   1.841  13.000
55247W        W14684  33.997   5.734   3.645
55248W        W14685   8.177   5.439  11.515
55249W        W14686  26.027  24.183  12.949
55250W        W14687  37.409  44.475  12.435
55251W        W14688  40.549  40.935   4.702
55252W        W14689  13.104  34.086   2.754
55253W        W14690   8.290  26.027  14.330
55254W        W14691  33.570  39.329   2.751
55255W        W14692  29.666  12.718   1.858
55256W        W14693  28.673  38.403  11.539
55257W        W14694  32.927  40.366   1.288
55258W        W14695   6.420  28.137   3.171
55259W        W14696  21.525  36.065  11.858
55260W        W14697  26.141  37.544  11.963
55261W        W14698  13.212  25.142   9.995
55262W        W14699  27.192  19.179   1.302
55263W        W14700  29.153  35.082   3.777
55264W        W14701  25.200   2.932  14.859
55265W        W14702  18.195  10.774   1.322
55266W        W14703  25.559  20.039  11.954
55267W        W14704  29.108  25.978   3.732
55268W        W14705   3.774   7.795   1.834
55269W        W14706  38.442  28.979  13.543
55270W        W14707  22.533   1.941   3.309
55271W        W14708  37.846  25.098   2.746
55272W        W14709  19.201  40.992  13.917
55273W        W14710  20.590  35.450  12.900
55274W        W14711  18.606  36.396   1.445
55275W        W14712  11.272   1.891  12.882
55276W        W14713  30.485  17.151  11.496
55277W        W14714  24.082  34.552   0.763
55278W        W14715  33.013  28.677  13.033
55279W        W14716  12.832  38.905  13.489
55280W        W14717  32.944   2.737  13.811
55281W        W14718  26.514  36.433  13.439
55282W        W14719  13.174   1.266  14.443
55283W        W14720   7.251  34.905  14.010
55284W        W14721  28.543  39.417  13.038
55285W        W14722  15.751   5.837   9.950
55286W        W14723  27.527  17.070  11.899
55287W        W14724  29.489   4.441  12.023
55288W        W14725   0.949  16.306  12.454
55289W        W14726  21.548   1.905   0.907
55290W        W14727  44.970  12.146  13.986
55291W        W14728   5.700  41.965   3.354
55292W        W14729  34.053  30.434  11.372
55293W        W14730  20.241   7.680  13.538
55294W        W14731  12.163  31.434   1.935
55295W        W14732   5.392  11.239   0.425
55296W        W14733  23.116  28.166   3.811
55297W        W14734   5.837  19.090  11.923
55298W        W14735   8.359  14.299  11.009
55299W        W14736  15.327  17.296   3.193
55300W        W14737  32.414  15.298  10.615
55301W        W14738  17.666  29.924   2.389
55302W        W14739  32.076  30.528   3.195
55303W        W14740  38.950  39.353   4.775
55304W        W14741  19.235  12.184  12.957
55305W        W14742  35.955  28.523   1.800
55306W        W14743   4.450  17.223  12.490
55307W        W14744  14.256  30.163   2.867
55308W        W14745  44.488  32.902   2.885
55309W        W14746  18.239  26.459  12.914
55310W        W14747   2.378  34.526  12.532
55311W        W14748  19.237  23.492  12.475
55312W        W14749  29.647   1.869  14.506
55313W        W14750  21.534  10.170  11.507
55314W        W14751  22.226  34.531  10.511
55315W        W14752   0.381  18.640  11.518
55316W        W14753   3.272  35.881  14.941
55317W        W14754  22.188  19.066  10.442
55318W        W14755  34.581  21.020   4.747
55319W        W14756   5.370  43.001   1.401
55320W        W14757  13.268  26.649   1.298
55321W        W14758  30.058   4.893   0.482
55322W        W14759  30.147   2.949  13.866
55323W        W14760  39.440  15.244  14.898
55324W        W14761   4.372   4.310  13.832
55325W        W14762  19.550  16.700  10.427
55326W        W14763  36.357  39.054   1.812
55327W        W14764  27.674  11.165   3.723
55328W        W14765  23.174  35.521   2.285
55329W        W14766  14.817   2.463   3.346
55330W        W14767  30.467   7.207  11.475
55331W        W14768   0.815   9.152  11.016
55332W        W14769  15.698  17.277   3.805
55333W        W14770  20.674   8.321  12.527
55334W        W14771  44.998   0.461  14.302
55335W        W14772  39.417  23.122  11.868
55336W        W14773  20.136  22.566   4.636
55337W        W14774   7.879  15.270  13.498
55338W        W14775   0.312   1.767  13.047
55339W        W14776  36.493  21.216   5.157
55340W        W14777  11.692  38.490  13.361
55341W        W14778  12.117  16.072   3.307
55342W        W14779  19.618  43.779   3.358
55343W        W14780   0.466   4.721  14.452
55344W        W14781   9.211  38.008  14.959
55345W        W14782  43.993   2.353   1.285
55346W        W14783  17.146   8.800   0.769
55347W        W14784  20.741   5.201   2.219
55348W        W14785  34.519  11.325   2.276
55349W        W14786  29.427  44.463   0.256
55350W        W14787  37.936  44.428   2.831
55351W        W14788   4.377   3.833   2.393
55352W        W14789   7.788  11.858  12.414
55353W        W14790  21.226  43.812  11.393
55354W        W14791  27.126  44.979  11.605
55355W        W14792  17.130  30.546  10.957
55356W        W14793  30.929  30.147   3.777
55357W        W14794  42.502  31.040  11.984
55358W        W14795  11.642  39.345  14.306
55359W        W14796  41.014  19.546   3.247
55360W        W14797  38.388   0.282   2.272
55361W        W14798  38.837  40.864  10.476
55362W        W14799  38.523  13.631   1.383
55363W        W14800  10.383  14.719  13.064
55364W        W14801   8.821  21.167  14.444
55365W        W14802  35.431   3.849  14.813
55366W        W14803   2.439   5.420  12.064
55367W        W14804  18.776  36.420  11.879
55368W        W14805   7.358   0.371  12.493
55369W        W14806  42.286   1.963  12.496
55370W        W14807  42.851  33.926  13.918
55371W        W14808  44.475  36.955  13.478
55372W        W14809  16.101  37.448   3.762
55373W        W14810  32.903  14.620  10.528
55374W        W14811  39.879  19.540  13.044
55375W        W14812  32.948  29.511   2.208
55376W        W14813  22.681   2.784  12.482
55377W        W14814  36.016  44.968   3.216
55378W        W14815  17.179  21.085   2.742
55379W        W14816  36.028  40.507  14.871
55380W        W14817  15.628  30.157   1.309
55381W        W14818  38.837   2.332   1.230
55382W        W14819  16.228  12.215  11.546
55383W        W14820  21.022  16.771   0.755
55384W        W14821   9.154  31.439   2.279
55385W        W14822  18.709  29.988  11.093
55386W        W14823   2.964  33.435   2.210
55387W        W14824  15.606  35.954   0.952
55388W        W14825  41.494   4.363  11.479
55389W        W14826  28.505  40.399  11.125
55390W        W14827  26.465  36.467  10.431
55391W        W14828  26.681  20.054   1.373
55392W        W14829  44.418  42.909   1.262
55393W        W14830  25.990  43.328   4.622
55394W        W14831  17.641   5.807   3.672
55395W        W14832  41.888  20.747  13.870
55396W        W14833  31.405  16.310  12.047
55397W        W14834  15.659   3.455   2.668
55398W        W14835  19.638  27.455   0.745
55399W        W14836   5.263   0.913  11.971
55400W        W14837  35.580  21.036   0.867
55401W        W14838  26.509  30.911   1.788
55402W        W14839  28.956  15.209   3.635
55403W        W14840  32.584  42.372   5.206
55404W        W14841  18.789  21.529   0.810
55405W        W14842  28.039   7.846   0.737
55406W        W14843  26.457  28.092  13.797
55407W        W14844  39.872  12.708   4.312
55408W        W14845  23.172  43.806  14.886
55409W        W14846  44.931  17.258   2.882
55410W        W14847  25.091   2.436  14.000
55411W        W14848  11.777   9.179  13.886
55412W        W14849  27.494  31.071  12.938
55413W        W14850   2.246   1.483  11.864
55414W        W14851   0.912   0.833   1.413
55415W        W14852  40.408  38.069   2.745
55416W        W14853   3.262  43.001  14.414
55417W        W14854  28.005   5.248   1.287
55418W        W14855   3.732  17.790   0.465
55419W        W14856  20.565   6.871   1.716
55420W        W14857  24.180   7.735  13.037
55421W        W14858  39.434  31.909  12.350
55422W        W14859   1.768  22.052  10.509
55423W        W14860   9.787  33.390   3.217
55424W        W14861  41.943   1.775   3.754
55425W        W14862  39.350  24.667  14.471
55426W        W14863  24.617  36.089   3.859
55427W        W14864  38.525  22.742   4.671
55428W        W14865  18.717  18.741  10.556
55429W        W14866   3.709  31.945   3.228
55430W        W14867  34.037  18.782   3.156
55431W        W14868  29.093  20.229   4.189
55432W        W14869   5.429  44.842  10.617
55433W        W14870  16.251  32.064   2.823
55434W        W14871  25.637  13.174   2.796
55435W        W14872  17.709  34.028  13.961
55436W        W14873  16.183   1.778  14.366
55437W        W14874  27.502   2.784  13.958
55438W        W14875  40.030  26.601   0.961
55439W        W14876  43.772  33.875   3.308
55440W        W14877  10.684  28.006  14.859
55441W        W14878  16.137  12.203   4.199
55442W        W14879  22.624  14.325   2.320
55443W        W14880  31.130  37.884   0.883
55444W        W14881  37.056   0.400  10.563
55445W        W14882  38.360   6.898   0.738
55446W        W14883  27.622  41.992   2.277
55447W        W14884  19.598  37.075  11.502
55448W        W14885  24.582  27.124   1.744
55449W        W14886  10.223  42.494  10.117
55450W        W14887  31.050  44.913   3.668
55451W        W14888  21.537  32.903  14.418
55452W        W14889  11.868   9.354   3.798
55453W        W14890  40.517  12.668   4.812
55454W        W14891  30.145  33.953  11.588
55455W        W14892  34.500  12.195  11.374
55456W        W14893   7.185  23.167  13.316
55457W        W14894  36.365  26.562   3.798
55458W        W14895   0.834   0.784   2.321
55459W        W14896  29.496  16.108  10.587
55460W        W14897   2.312  22.706  10.569
55461W        W14898   1.863  24.700   0.402
55462W        W14899   5.413  18.158   0.458
55463W        W14900  25.555  40.889   4.316
55464W        W14901  23.103   7.201  11.939
55465W        W14902  12.257  21.141   1.883
55466W        W14903  15.611  28.987  10.546
55467W        W14904  21.644  19.654  10.124
55468W        W14905  38.530  16.767   1.700
55469W        W14906   5.851  21.635  10.907
55470W        W14907   0.273  30.557   0.817
55471W        W14908  39.405  34.990  13.452
55472W        W14909  19.119   0.398  13.469
55473W        W14910  13.685  37.086  11.086
55474W        W14911  18.217  13.809  12.013
55475W        W14912  20.208  38.876   0.406
55476W        W14913  17.229   0.358   1.906
55477W        W14914  28.976  27.019  10.592
55478W        W14915  32.063  23.708  10.890
55479W        W14916  43.325  36.520   2.682
55480W        W14917  21.036   1.287   3.636
55481W        W14918  34.995  13.276   4.748
55482W        W14919   6.791  17.625  10.531
55483W        W14920  35.945  39.983  13.826
55484W        W14921  33.921  40.386   5.265
55485W        W14922  19.657  13.615  14.855
55486W        W14923  44.374   6.302   0.457
55487W        W14924   8.401  10.785  13.314
55488W        W14925  43.429   6.677   4.241
55489W        W14926  18.052  26.019   1.308
55490W        W14927  19.613   3.771  14.910
55491W        W14928  35.102   0.310   3.672
55492W        W14929  11.645  27.193   4.138
55493W        W14930  14.623  27.598   1.359
55494W        W14931   3.353  33.891  12.437
55495W        W14932  42.433  42.378   0.888
55496W        W14933  36.936  17.736  11.072
55497W        W14934   0.859  13.772  13.817
55498W        W14935   3.284  38.534  13.423
55499W        W14936   0.934   4.734  12.050
55500W        W14937   3.224  31.402   0.402
55501W        W14938  23.065  36.051  10.575
55502W        W14939  32.976   2.433   2.812
55503W        W14940   9.348  29.022  14.908
55504W        W14941  33.129  26.555   1.277
55505W        W14942  14.278  13.203  13.495
55506W        W14943   4.934   8.762  14.892
55507W        W14944  38.885  22.058   1.850
55508W        W14945   1.460  21.246   4.276
55509W        W14946  18.156   0.398   3.334
55510W        W14947  43.908  19.242  13.340
55511W        W14948  36.372  44.781  12.937
55512W        W14949  23.545  14.726   4.302
55513W        W14950  12.672  31.053  12.857
55514W        W14951  21.645   6.380   3.206
55515W        W14952   2.323  31.459   2.330
55516W        W14953  36.058   0.359  14.442
55517W        W14954  22.155  27.011  14.330
55518W        W14955  26.601  41.850   4.774
55519W        W14956  23.104  33.406   2.284
55520W        W14957  38.425  37.516   0.302
55521W        W14958   3.715   9.682  10.404
55522W        W14959   5.408  33.910  12.918
55523W        W14960  39.046  10.676   4.177
55524W        W14961  26.011  19.061  11.985
55525W        W14962  36.977   6.727   1.827
55526W        W14963   0.416  16.241   2.847
55527W        W14964  30.036  37.405   0.371
55528W        W14965  26.595  18.661   0.824
55529W        W14966  27.528   8.679  11.089
55530W        W14967  11.799  18.181  14.437
55531W        W14968  38.435   2.291  11.407
55532W        W14969  31.086  34.991   1.402
55533W        W14970  41.838   0.459  11.112
55534W        W14971  18.781  37.945  14.956
55535W        W14972  41.856  27.997   4.631
55536W        W14973  38.545   6.864   2.700
55537W        W14974  16.085  10.822  14.843
55538W        W14975   1.885  36.945  13.422
55539W        W14976  24.204  37.490   0.398
55540W        W14977  13.208  41.316  13.373
55541W        W14978  17.641  22.178  13.997
55542W        W14979   5.723  24.128   0.807
55543W        W14980  23.085  40.005   4.133
55544W        W14981   5.781  40.938   0.902
55545W        W14982   8.364  12.813   2.863
55546W        W14983  20.658  27.170  12.919
55547W        W14984  11.140   0.438   4.249
55548W        W14985   3.822  10.207   2.719
55549W        W14986  36.500   2.416   3.651
55550W        W14987   5.812  24.498   3.279
55551W        W14988  17.762   1.255   2.831
55552W        W14989  26.996  27.523   2.689
55553W        W14990  12.222  25.655   1.925
55554W        W14991  40.935  18.688  13.967
55555W        W14992   0.943  21.107  13.845
55556W        W14993  41.316  32.926   1.341
55557W        W14994  33.053  24.669   3.232
55558W        W14995  20.109   6.895  12.569
55559W        W14996  36.887  11.197   3.781
55560W        W14997  40.380  28.155   0.744
55561W        W14998  33.024  25.125   2.251
55562W        W14999   3.325   4.421  12.382
55563W        W15000   6.796   1.892   1.304
55564W        W15001  33.514   9.773   2.193
55565W        W15002  15.634  28.942   1.695
55566W        W15003  11.220  13.254  13.486
55567W        W15004  43.903  26.138   4.178
55568W        W15005   0.791  20.545  11.086
55569W        W15006  14.718   2.324  11.584
55570W        W15007   1.815  23.531   3.792
55571W        W15008  23.220  43.939  11.085
55572W        W15009  44.002  44.433  11.425
55573W        W15010   5.328  20.068  10.986
55574W        W15011  26.522  28.129   4.194
55575W        W15012  31.015  11.249   4.123
55576W        W15013   0.446  21.185  10.951
55577W        W15014   6.745  10.740   2.363
55578W        W15015  16.182  34.454   0.423
55579W        W15016   7.732   3.412  12.842
55580W        W15017  16.772  38.015  11.015
55581W        W15018   1.954  29.642  12.876
55582W        W15019   5.755   6.211   3.190
55583W        W15020   6.221   0.795  12.562
55584W        W15021  17.219   8.336  14.410
55585W        W15022  16.308  18.087   2.324
55586W        W15023  38.382  42.966   3.220
55587W        W15024  42.386  38.845   2.412
55588W        W15025  26.507  14.696  10.096
55589W        W15026  13.137  14.684  14.505
55590W        W15027  18.215  21.175   0.285
55591W        W15028  20.722  11.736   2.791
55592W        W15029  21.643  41.382   0.933
55593W        W15030   3.398  28.987   0.459
55594W        W15031  39.350  25.039  14.916
55595W        W15032  43.361  19.087  12.418
55596W        W15033  26.532  35.945   3.755
55597W        W15034  10.807  39.963   1.259
55598W        W15035  42.889  27.162   4.790
55599W        W15036  32.610  17.293  14.966
55600W        W15037   8.862  34.073  11.386
55601W        W15038   3.292  39.048   1.393
55602W        W15039  24.001   9.329   1.217
55603W        W15040  35.482  25.566   4.130
55604W        W15041  31.000   0.903   2.763
55605W        W15042  40.876   0.286   4.627
55606W        W15043  39.424  11.350  14.448
55607W        W15044  34.010  42.920   0.410
55608W        W15045  43.352  13.693  12.544
55609W        W15046  20.687  13.175  12.837
55610W        W15047  36.032  13.128   3.853
55611W        W15048  20.226  31.955  14.017
55612W        W15049  25.601  13.750  13.461
55613W        W15050  29.543   1.878   0.764
55614W        W15051  28.012  36.036  12.453
55615W        W15052  32.430   3.892   1.877
55616W        W15053  39.968  17.786   2.850
55617W        W15054  10.311   7.393  14.436
55618W        W15055  29.061  26.551  11.607
55619W        W15056   8.657  24.000   1.765
55620W        W15057  22.225   8.842   2.784
55621W        W15058   0.787  14.827  14.438
55622W        W15059  23.217  31.533  12.458
55623W        W15060  24.223   1.257   2.259
55624W        W15061  43.786  39.404   3.817
55625W        W15062  40.324  32.952   2.238
55626W        W15063   0.352  23.154  14.817
55627W        W15064  30.602  19.136   2.737
55628W        W15065  33.484  13.614   3.659
55629W        W15066  10.186  19.088   0.289
55630W        W15067  22.111  10.166  14.029
55631W        W15068   7.204  25.528  11.029
55632W        W15069  11.730  15.751   5.170
55633W        W15070  10.180  15.186   0.917
55634W        W15071  28.481  15.090   1.887
55635W        W15072   3.393   0.262   1.335
55636W        W15073  11.658   6.368   1.373
55637W        W15074  41.036  31.459   2.760
55638W        W15075  24.053  42.845  13.366
55639W        W15076  44.315  18.241  10.048
55640W        W15077  38.502   9.696  13.853
55641W        W15078   2.424  18.767   3.277
55642W        W15079  33.094  27.059  12.478
55643W        W15080  35.483  19.545   3.355
55644W        W15081  11.142   5.694  12.513
55645W        W15082  31.058  20.628  12.522
55646W        W15083  38.437   7.712  14.419
55647W        W15084  16.632  24.206  13.333
55648W        W15085   2.268  36.995  11.430
55649W        W15086  26.460   4.851  11.521
55650W        W15087  26.524   9.296   0.303
55651W        W15088  35.060  36.396  10.058
55652W        W15089  16.207  42.341   3.366
55653W        W15090  13.771   4.207   1.897
55654W        W15091  10.376   9.691   1.397
55655W        W15092  30.964  19.185  14.282
55656W        W15093  33.087  23.524  14.009
55657W        W15094  11.209   8.833   0.284
55658W        W15095  37.991  16.075   2.393
55659W        W15096  29.486  32.536  10.409
55660W        W15097  21.195  35.566  12.033
55661W        W15098   1.301  44.878   1.257
55662W        W15099   2.897  10.703  12.535
55663W        W15100  42.932  43.383   2.328
55664W        W15101  30.471   6.778   3.654
55665W        W15102  18.632  36.967  10.494
55666W        W15103  37.982  44.864  13.844
55667W        W15104  27.495  19.059  12.885
55668W        W15105  34.381   1.335   2.826
55669W        W15106  24.607  43.916   4.791
55670W        W15107  16.574  10.251  14.412
55671W        W15108  40.812  19.605   1.885
55672W        W15109  22.689  15.166  12.034
55673W        W15110  15.197  39.478  14.331
55674W        W15111  33.597  33.383  13.043
55675W        W15112  44.481  15.105  11.882
55676W        W15113   7.412  34.106   2.369
55677W        W15114  22.133   4.429   3.662
55678W        W15115  36.557   5.249   1.359
55679W        W15116  17.291  31.964  11.377
55680W        W15117  44.775   3.388   4.781
55681W        W15118  29.087  12.233  12.895
55682W        W15119   3.343   5.396  13.523
55683W        W15120   2.879  26.957  11.487
55684W        W15121  37.925  31.041  12.981
55685W        W15122  37.412  33.057  12.018
55686W        W15123  13.298   5.197   0.361
55687W        W15124  36.495  26.007  11.516
55688W        W15125  27.640  36.427  11.419
55689W        W15126  19.174  23.090   1.420
55690W        W15127  44.361  43.273   1.765
55691W        W15128  38.972   1.418   1.897
55692W        W15129  11.328  25.664  14.484
55693W        W15130  18.280  29.058  11.435
55694W        W15131  38.023  42.283   4.325
55695W        W15132  30.085  10.754   2.322
55696W        W15133  28.945   7.707   1.736
55697W        W15134  16.284  15.258   0.314
55698W        W15135  29.076  29.067  12.559
55699W        W15136   7.232  36.062   4.231
55700W        W15137   5.733  37.978   2.712
55701W        W15138   0.766  15.636   4.246
55702W        W15139  14.272  39.917  13.962
55703W        W15140  27.452  41.937   0.816
55704W        W15141  39.834  20.538   4.283
55705W        W15142   6.702  26.012  13.479
55706W        W15143  37.485  10.772  14.953
55707W        W15144  11.136  17.752  13.929
55708W        W15145  10.181  34.112   2.670
55709W        W15146  19.155  18.555   4.264
55710W        W15147   8.273  36.002   0.897
55711W        W15148  35.891   3.815  10.552
55712W        W15149  11.647  11.680   9.961
55713W        W15150  36.078   9.207  11.089
55714W        W15151  15.134  26.662  10.462
55715W        W15152  12.798  18.711  11.395
55716W        W15153  39.014  20.629  10.549
55717W        W15154  13.736  37.355   3.759
55718W        W15155  23.149  44.412   1.899
55719W        W15156  32.406  27.587  12.361
55720W        W15157  29.652   7.383   1.386
55721W        W15158  27.083  27.052   2.203
55722W        W15159  13.672  42.364  13.382
55723W        W15160   7.379  20.547   0.254
55724W        W15161  24.128  28.092  11.410
55725W        W15162  34.390   5.873  14.286
55726W        W15163  27.959  27.114  11.859
55727W        W15164  35.393  32.968   4.810
55728W        W15165  34.566  41.351   0.423
55729W        W15166   9.855  21.110  10.938
55730W        W15167  42.884   8.858  12.040
55731W        W15168  41.802   2.880  14.447
55732W        W15169  10.336   7.756   3.767
55733W        W15170  31.049  41.340   1.308
55734W        W15171  27.514  36.511   0.882
55735W        W15172  19.766  30.940  12.391
55736W        W15173  29.494  24.034  12.547
55737W        W15174  38.413  34.068   3.218
55738W        W15175  44.264  14.793  12.995
55739W        W15176  26.567  15.213   1.900
55740W        W15177  24.187  21.736  13.976
55741W        W15178  31.148  29.656  10.425
55742W        W15179  10.751   7.242   3.752
55743W        W15180  16.103  19.586  13.058
55744W        W15181  38.978  22.654   3.696
55745W        W15182  10.705  16.235  12.406
55746W        W15183  23.061  28.960  14.387
55747W        W15184  17.750  37.066  11.982
55748W        W15185  37.842   2.386   2.232
55749W        W15186  16.187  10.664  11.994
55750W        W15187  12.654   5.281   3.338
55751W        W15188   7.215  32.540  13.997
55752W        W15189  12.706  32.497   3.335
55753W        W15190  28.590  14.615  12.519
55754W        W15191  33.623  44.448  11.017
55755W        W15192  21.696  28.011   0.898
55756W        W15193  17.110   3.422  14.984
55757W        W15194   8.167   1.322  12.429
55758W        W15195   6.748  12.801   0.884
55759W        W15196  11.756   0.420  10.589
55760W        W15197  39.498   1.823  12.076
55761W        W15198  44.800  24.980   4.816
55762W        W15199  12.234  22.241  11.458
55763W        W15200  27.006   4.263   0.372
55764W        W15201  30.048  12.202  13.396
55765W        W15202  24.222  33.395   0.442
55766W        W15203  11.749   9.804  14.418
55767W        W15204  14.664  42.779   9.944
55768W        W15205   4.702  15.181  14.857
55769W        W15206   4.204  31.913   4.191
55770W        W15207  21.176   3.794   2.669
55771W        W15208  34.041  12.762  11.422
55772W        W15209   8.712  11.774  13.800
55773W        W15210   9.225   3.378   0.352
55774W        W15211  16.184  36.848  12.411
55775W        W15212   5.799  26.014   0.372
55776W        W15213   8.759   2.229   5.321
55777W        W15214   2.957  25.028  10.453
55778W        W15215  44.833  42.490   0.879
55779W        W15216  35.422  31.043   4.635
55780W        W15217  34.585  21.104   3.660
55781W        W15218  21.219  39.878   1.210
55782W        W15219  14.797   5.250  14.022
55783W        W15220  19.701  19.595  13.509
55784W        W15221  15.665  34.921   5.124
55785W        W15222  23.034  24.192  14.790
55786W        W15223  22.501  31.633  10.426
55787W        W15224  28.048  39.847   4.147
55788W        W15225  42.335   6.784  13.814
55789W        W15226  18.055  36.554  13.519
55790W        W15227  31.412  16.649  13.878
55791W        W15228  25.962   9.716  12.047
55792W        W15229   6.218  20.711  11.585
55793W        W15230  28.060  32.939   2.882
55794W        W15231  11.290  17.208   0.328
55795W        W15232   3.834  40.395   2.377
55796W        W15233  12.654  23.576  12.899
55797W        W15234  34.941  40.393   1.421
55798W        W15235  20.680   4.227   2.342
55799W        W15236  23.729  15.120  14.866
55800W        W15237  21.217  15.327  13.927
55801W        W15238   2.248  15.224   9.997
55802W        W15239  30.064  10.218  12.064
55803W        W15240  39.363   8.707  14.885
55804W        W15241  23.017  11.179   0.346
55805W        W15242  27.532  30.625   4.617
55806W        W15243   3.453  38.367   2.235
55807W        W15244  42.430  35.504   2.298
55808W        W15245  40.357  40.501  11.437
55809W        W15246  23.177  39.826  11.086
55810W        W15247  27.656  17.256  11.396
55811W        W15248  13.792   8.247   4.131
55812W        W15249  35.967  38.867   3.828
55813W        W15250  43.511  40.883   4.250
55814W        W15251  11.832  15.670   3.773
55815W        W15252  25.651  25.179   4.759
55816W        W15253  21.675  24.671   3.310
55817W        W15254  12.818  23.628   0.921
55818W        W15255  37.578  31.480  13.831
55819W        W15256  33.882  33.008   3.299
55820W        W15257  26.691  11.256  12.410
55821W        W15258   3.314   5.386   1.309
55822W        W15259   9.194   5.893  12.400
55823W        W15260  26.995  22.125  14.897
55824W        W15261  27.089   1.364  12.371
55825W        W15262  13.697  39.922   3.740
55826W        W15263   8.257  19.081  10.972
55827W        W15264  11.251   7.847   4.642
55828W        W15265  40.439  37.463   3.319
55829W        W15266  19.677   4.395   4.659
55830W        W15267  25.128  23.006  13.854
55831W        W15268  23.716  39.913   3.758
55832W        W15269  17.278  37.901   4.344
55833W        W15270   2.284  43.844  11.079
55834W        W15271   4.807  31.901   4.676
55835W        W15272   3.937  18.070   3.709
55836W        W15273  15.742  23.674   2.768
55837W        W15274  41.035   6.362  12.341
55838W        W15275   2.262   3.911  14.967
55839W        W15276  11.153  22.160  10.484
55840W        W15277  26.520  25.983   0.790
55841W        W15278  33.550  12.746   3.712
55842W        W15279  10.258   0.389  10.065
55843W        W15280   2.418  41.495   1.834
55844W        W15281  36.537  40.484  12.980
55845W        W15282   5.320  38.470  13.839
55846W        W15283  14.648   0.397  11.468
55847W        W15284   8.814   6.714   1.906
55848W        W15285  37.348   7.892   5.160
55849W        W15286  30.144  41.339   2.335
55850W        W15287  28.594  24.541   4.762
55851W        W15288   5.929  43.936  12.936
55852W        W15289  10.292  24.111  13.421
55853W        W15290  23.571  37.536  13.798
55854W        W15291  14.722   3.396   9.965
55855W        W15292  30.654  21.178  13.475
55856W        W15293  21.230  38.350  11.886
55857W        W15294  17.802   5.248   0.253
55858W        W15295  36.483  25.670  14.431
55859W        W15296   8.691  16.724  10.443
55860W        W15297  30.573  39.876  14.494
55861W        W15298  22.740  20.578  11.525
55862W        W15299  11.372   4.865  12.070
55863W        W15300   9.852   3.835  14.353
55864W        W15301  38.051  36.456   3.151
55865W        W15302   1.909  11.346   2.726
55866W        W15303   8.693  31.913   0.743
55867W        W15304  24.147  36.001   5.124
55868W        W15305  38.454  42.480  11.925
55869W        W15306  27.977  34.036  14.911
55870W        W15307   4.225  35.879  12.996
55871W        W15308  42.802   8.266   3.303
55872W        W15309  29.096  24.587   3.179
55873W        W15310  37.983  34.585  13.810
55874W        W15311   3.919  37.399   0.761
55875W        W15312  13.776  39.894  13.054
55876W        W15313  12.725  36.986  13.529
55877W        W15314  38.452   3.770   3.267
55878W        W15315  35.106  15.096  11.072
55879W        W15316  34.103  13.136  12.905
55880W        W15317  28.143  33.887  10.910
55881W        W15318  14.301   3.288   1.230
55882W        W15319  21.100  38.534   4.685
55883W        W15320  37.953   1.950   4.172
55884W        W15321   7.295  29.650  11.475
55885W        W15322   2.399   1.790  11.912
55886W        W15323  25.178  28.151   4.154
55887W        W15324  36.064  29.126  13.458
55888W        W15325  19.134  20.162   3.369
55889W        W15326  19.685  19.604  14.423
55890W        W15327  12.838  40.476   3.373
55891W        W15328   8.891   6.753   2.366
55892W        W15329  42.995  16.195   0.842
55893W        W15330  44.298  26.680  14.956
55894W        W15331   5.371  30.090   4.681
55895W        W15332  17.791  18.611  13.843
55896W        W15333  24.995  40.401  12.979
55897W        W15334  14.726  43.897  10.414
55898W        W15335  29.615  44.957   2.346
55899W        W15336  15.219   2.831  10.517
55900W        W15337  26.190  41.320  14.968
55901W        W15338  29.570  12.685   0.865
55902W        W15339  35.883  36.042   3.341
55903W        W15340   7.868  36.038   3.205
55904W        W15341  36.570  19.578  10.964
55905W        W15342  42.462  35.553   4.286
55906W        W15343   7.689   4.432   2.692
55907W        W15344  26.552  25.556   2.852
55908W        W15345  15.718   7.801  12.535
55909W        W15346  13.652  10.284  12.533
55910W        W15347  24.637  43.309   3.146
55911W        W15348  30.986  12.169   2.844
55912W        W15349  34.406  13.139   4.649
55913W        W15350  18.650  12.693  12.930
55914W        W15351  28.591  37.028   3.855
55915W        W15352  30.521  16.652   2.721
55916W        W15353  25.071  18.170   2.206
55917W        W15354  34.096  37.464   5.728
55918W        W15355  35.497  19.178  11.377
55919W        W15356  43.954  44.329  13.944
55920W        W15357  30.546  12.159   2.393
55921W        W15358   9.865  19.765   3.764
55922W        W15359  12.337  15.267   0.938
55923W        W15360  14.178   7.238   3.218
55924W        W15361  39.046  12.654  13.532
55925W        W15362   1.313  12.761  11.961
55926W        W15363  17.251   9.188   2.296
55927W        W15364  31.637  40.841   3.858
55928W        W15365  12.240  13.265   0.387
55929W        W15366  43.805  12.288  14.433
55930W        W15367  20.580  16.795  14.987
55931W        W15368  17.283   6.393  12.577
55932W        W15369  26.171  15.822  13.328
55933W        W15370  37.914  40.052  10.578
55934W        W15371  32.993  31.070   4.686
55935W        W15372   8.807  19.621  13.325
55936W        W15373  23.215   5.310   4.253
55937W        W15374  29.051  14.643   4.189
55938W        W15375   7.801   1.341   4.265
55939W        W15376  16.579  19.705   2.888
55940W        W15377  44.463  12.358   0.933
55941W        W15378  14.833  15.727   3.190
55942W        W15379  11.311   3.420  10.622
55943W        W15380   3.740  10.808   4.263
55944W        W15381   5.697   6.416   0.268
55945W        W15382  27.966  27.561   0.260
55946W        W15383   8.327  10.647   2.277
55947W        W15384   9.673   2.824  12.350
55948W        W15385  43.379   8.733   3.673
55949W        W15386   5.353  24.056  10.061
55950W        W15387  24.615  24.215   3.160
55951W        W15388  12.149  37.018  14.963
55952W        W15389   8.307  28.960  12.848
55953W        W15390  43.956  34.029  14.490
55954W        W15391   1.333  36.422   2.782
55955W        W15392  29.582  23.082  12.961
55956W        W15393  12.302  14.308   0.272
55957W        W15394  10.834  17.205   4.742
55958W        W15395  20.627  16.277  14.972
55959W        W15396   1.916  27.667   0.945
55960W        W15397   2.289  33.593  10.032
55961W        W15398  15.725  34.415   3.802
55962W        W15399  39.839   5.694   3.329
55963W        W15400   9.715  13.822   0.930
55964W        W15401  35.600  35.879   4.131
55965W        W15402  17.743  31.459  14.491
55966W        W15403  16.692  25.010  13.007
55967W        W15404  20.643  42.439  12.840
55968W        W15405  12.748   0.917  10.920
55969W        W15406  37.046  13.188   1.222
55970W        W15407  40.523  31.970  12.095
55971W        W15408  10.778   8.713   0.952
55972W        W15409  40.043  42.297   4.836
55973W        W15410  10.738  32.004   1.927
55974W        W15411   0.983  38.446  13.544
55975W        W15412  20.683  28.506   0.259
55976W        W15413   9.724  26.071  14.900
55977W        W15414  30.612  20.272   4.286
55978W        W15415  40.396  34.019   2.719
55979W        W15416  35.534  18.564  13.425
55980W        W15417  41.811  31.006   1.702
55981W        W15418  17.659  39.887   0.935
55982W        W15419  25.198  25.628   3.690
55983W        W15420  39.835  20.678   3.685
55984W        W15421   4.851  14.167   4.187
55985W        W15422  39.819  10.329  11.019
55986W        W15423  25.035   0.966   4.167
55987W        W15424  37.488   5.713   4.767
55988W        W15425  22.560  25.562  14.801
55989W        W15426  21.186   8.740   1.905
55990W        W15427   7.748   2.786  10.540
55991W        W15428  23.665  43.785   0.856
55992W        W15429   1.356  24.585  13.514
55993W        W15430  18.579  24.571   1.837
55994W        W15431  43.781  26.493  12.401
55995W        W15432   5.419   9.213   3.675
55996W        W15433  35.486  10.354   1.711
55997W        W15434  37.398  22.196  10.937
55998W        W15435  41.514  27.946   4.232
55999W        W15436  42.464   8.163  12.088
56000W        W15437   8.185  38.966   0.266
56001W        W15438  17.193  12.619   2.827
56002W        W15439  29.996  37.379   0.928
56003W        W15440  36.382  42.286  13.470
56004W        W15441  33.612  10.857   1.211
56005W        W15442  28.025  16.165  11.602
56006W        W15443  35.422  20.156   0.958
56007W        W15444  23.614  24.550  14.512
56008W        W15445  17.733  41.812   2.234
56009W        W15446   1.789  28.531   4.338
56010W        W15447   4.734   9.850   4.290
56011W        W15448   9.704  26.016   0.836
56012W        W15449  17.143  27.458  11.083
56013W        W15450  31.908  17.687   0.735
56014W        W15451   2.856   3.372  13.853
56015W        W15452   3.222   3.311  11.584
56016W        W15453  36.576  36.535   0.387
56017W        W15454  40.009  31.058   2.290
56018W        W15455  15.732  28.600   1.741
56019W        W15456  14.639   9.818  13.422
56020W        W15457  16.669  38.979   9.628
56021W        W15458  26.024  34.974   2.234
56022W        W15459   3.884   0.897   0.452
56023W        W15460  43.379  27.605   2.296
56024W        W15461   0.347  43.921  13.990
56025W        W15462  15.598  33.934   3.170
56026W        W15463  17.117  42.418   0.809
56027W        W15464  26.563  17.606  10.553
56028W        W15465  35.888   7.215   0.783
56029W        W15466  42.336  24.157  14.363
56030W        W15467  11.713  28.933   3.703
56031W        W15468  41.386   3.362  10.619
56032W        W15469  16.576  38.376   0.310
56033W        W15470  31.070  41.914   0.893
56034W        W15471  28.511  36.920   2.194
56035W        W15472   8.861  41.808  11.568
56036W        W15473  17.101  31.406   4.340
56037W        W15474   2.931   9.821  13.390
56038W        W15475  35.868  34.454   1.359
56039W        W15476  32.990  31.500   4.820
56040W        W15477  36.945  13.607   2.371
56041W        W15478  14.300   5.913   4.760
56042W        W15479   2.363  28.952   4.228
56043W        W15480  17.243  27.955  14.935
56044W        W15481  39.904  44.998  13.795
56045W        W15482  18.191  13.797  13.507
56046W        W15483   0.868  42.413  12.909
56047W        W15484  28.620  17.219  10.922
56048W        W15485  11.649  20.612  13.838
56049W        W15486  23.695   0.293   2.359
56050W        W15487  44.784  30.126  11.482
56051W        W15488  43.475  40.360  12.501
56052W        W15489   4.917   3.923   3.175
56053W        W15490  42.837  25.576   3.773
56054W        W15491  37.978  34.585   3.755
56055W        W15492  11.128  18.667   0.407
56056W        W15493  35.094  35.978   1.843
56057W        W15494  26.675   2.904   2.309
56058W        W15495  25.144  12.159   1.308
56059W        W15496  35.921   2.771   2.239
56060W        W15497  27.585  32.397  11.931
56061W        W15498  12.233  15.313   0.378
56062W        W15499  10.295  18.135   2.857
56063W        W15500  26.539   8.870  10.480
56064W        W15501  38.013   0.267   3.187
56065W        W15502  19.157  41.922  10.985
56066W        W15503  17.608  25.561  14.435
56067W        W15504   7.848  26.626  14.310
56068W        W15505  24.999  36.939   3.271
56069W        W15506  17.759  12.843   0.368
56070W        W15507  16.252  34.090  13.504
56071W        W15508  11.695  42.819   2.776
56072W        W15509  42.312  39.987   2.716
56073W        W15510   6.817  42.002  12.923
56074W        W15511  13.732  33.912   3.738
56075W        W15512  19.242  20.649   1.387
56076W        W15513  32.533  16.609   2.261
56077W        W15514   2.877  36.498  14.408
56078W        W15515  12.295  28.669  10.956
56079W        W15516   0.387  14.658  14.319
56080W        W15517  36.573  21.223   4.170
56081W        W15518  33.623  33.910   4.598
56082W        W15519  27.621  27.641   2.746
56083W        W15520  26.973  18.156  14.770
56084W        W15521  38.977  33.097  12.954
56085W        W15522  33.944  18.727  10.591
56086W        W15523  24.077  28.185   3.773
56087W        W15524  37.985  15.114   1.935
56088W        W15525   9.298  25.190  12.096
56089W        W15526   4.240  43.419  12.877
56090W        W15527  35.943  11.794  12.000
56091W        W15528   3.239  41.524  12.364
56092W        W15529  17.689   7.806  14.928
56093W        W15530  25.508  32.016   3.682
56094W        W15531  21.186  19.117  14.320
56095W        W15532  35.594  41.391   2.244
56096W        W15533   7.697  10.271  11.597
56097W        W15534  44.431  39.331  11.934
56098W        W15535   8.880  10.693  14.763
56099W        W15536  31.445   7.687   0.780
56100W        W15537  12.252  38.524   4.286
56101W        W15538  42.410   4.284  13.876
56102W        W15539  27.166   4.306  14.396
56103W        W15540  40.978  36.915  13.814
56104W        W15541  44.981   9.151   4.263
56105W        W15542  44.852  14.236   1.379
56106W        W15543  39.946  33.021  10.470
56107W        W15544  26.560   4.733  12.401
56108W        W15545  14.206  10.757   2.327
56109W        W15546  44.304  28.130   1.702
56110W        W15547  29.998  13.347  11.015
56111W        W15548  19.202  32.139  10.439
56112W        W15549  24.629  12.141   2.764
56113W        W15550  44.352  32.630   2.255
56114W        W15551  36.407  42.841  10.461
56115W        W15552   6.359  18.153  14.781
56116W        W15553  21.736  14.294   2.256
56117W        W15554  24.215  31.924  13.014
56118W        W15555  43.409  35.029   2.673
56119W        W15556  35.471  38.918   1.808
56120W        W15557   8.315   9.723   2.893
56121W        W15558   4.445  20.540  10.504
56122W        W15559   6.394  44.819  14.977
56123W        W15560  37.480  14.790  13.495
56124W        W15561  38.011  21.647  10.432
56125W        W15562  26.522  14.778   5.192
56126W        W15563   3.923   1.414   1.728
56127W        W15564  16.755  32.023  13.544
56128W        W15565  22.717  19.060   2.360
56129W        W15566  26.197   1.263   4.654
56130W        W15567  30.497  39.010   5.190
56131W        W15568   9.249  34.043  13.963
56132W        W15569  39.473  41.323  13.848
56133W        W15570  33.111  28.496   0.875
56134W        W15571  43.306  11.146  13.803
56135W        W15572  29.483  21.518  14.281
56136W        W15573  21.141  22.221   2.702
56137W        W15574  15.312   2.346  11.438
56138W        W15575  29.013   1.817  11.399
56139W        W15576  37.946   5.821  10.099
56140W        W15577   6.752  15.107  14.311
56141W        W15578  28.113  32.589  13.394
56142W        W15579  30.011  14.248   1.409
56143W        W15580  23.587  37.473  12.348
56144W        W15581  19.663   0.260   0.392
56145W        W15582  31.110   3.392  12.515
56146W        W15583  24.588  32.576   0.776
56147W        W15584  38.529  15.786   0.870
56148W        W15585  13.331  30.654   5.189
56149W        W15586  22.724  17.685   5.174
56150W        W15587  43.273  17.134  14.275
56151W        W15588  32.085   9.258  11.995
56152W        W15589  29.096  37.366   1.440
56153W        W15590   5.278  28.933   3.369
56154W        W15591   0.489  40.029  13.889
56155W        W15592  12.156  41.492  11.036
56156W        W15593   0.340  32.421  10.614
56157W        W15594  16.284  14.305   2.827
56158W        W15595  38.072  39.021   1.711
56159W        W15596  14.247  21.536   1.883
56160W        W15597  34.951   8.195  12.942
56161W        W15598  33.044  30.957  10.631
56162W        W15599   4.267   0.400  14.812
56163W        W15600  15.681  25.026  13.928
56164W        W15601  35.061  20.245  10.522
56165W        W15602   0.494  22.742   3.268
56166W        W15603  22.192   9.873   0.397
56167W        W15604   5.411  21.100   5.094
56168W        W15605   9.194  23.055  11.029
56169W        W15606  27.157  16.113  10.610
56170W        W15607  18.192  28.468  11.998
56171W        W15608   4.367   5.269  12.492
56172W        W15609  37.337   1.343  13.989
56173W        W15610  20.537  21.052   3.359
56174W        W15611  29.021  12.322   2.232
56175W        W15612  19.049  31.520   2.800
56176W        W15613  20.136   0.441  12.912
56177W        W15614  11.337  11.233   2.713
56178W        W15615  17.304  15.279  11.114
56179W        W15616  36.453  14.286  12.967
56180W        W15617  29.636   5.725   0.851
56181W        W15618  30.083  15.185  14.985
56182W        W15619  19.721  14.114  12.387
56183W        W15620  35.434  20.101  10.958
56184W        W15621  36.976  31.109   0.860
56185W        W15622  28.605  41.484   0.789
56186W        W15623  26.038  34.442   2.185
56187W        W15624  18.757  30.979   4.616
56188W        W15625  33.446  16.180  12.411
56189W        W15626   1.389  38.333   3.322
56190W        W15627  31.497  43.287   1.382
56191W        W15628  22.577  27.541   2.377
56192W        W15629  28.139  37.424   1.408
56193W        W15630   8.755  38.936   1.405
56194W        W15631  32.594  10.639   3.222
56195W        W15632  30.532  28.984  14.995
56196W        W15633  44.356   7.309  12.468
56197W        W15634   4.391  10.830  14.864
56198W        W15635   9.673  42.436   4.127
56199W        W15636  37.874  20.706   4.794
56200W        W15637  18.686   1.887  11.417
56201W        W15638  32.560  34.565   2.363
56202W        W15639  31.095   0.249   2.312
56203W        W15640  40.304   0.465   4.754
56204W        W15641  40.915  40.513   4.210
56205W        W15642   3.922  13.827  13.369
56206W        W15643  38.443  29.010   0.345
56207W        W15644  20.652  20.109   3.293
56208W        W15645  35.511  29.942   1.914
56209W        W15646  35.037  20.194   0.856
56210W        W15647  19.190   0.489   3.299
56211W        W15648   2.759  31.982   2.845
56212W        W15649  14.592   0.292   1.236
56213W        W15650  41.422   5.841  13.414
56214W        W15651  36.534   9.340  11.558
56215W        W15652  10.242   2.779  13.443
56216W        W15653  30.105  31.485   4.205
56217W        W15654  43.343  43.289   1.401
56218W        W15655  16.270   8.895  14.429
56219W        W15656  25.988   1.248  10.562
56220W        W15657  16.110  20.559  10.424
56221W        W15658   4.268  26.120   2.326
56222W        W15659  36.927   2.914   0.762
56223W        W15660  27.498  11.328   1.443
56224W        W15661  22.654  23.122   0.256
56225W        W15662  20.041  41.022   2.188
56226W        W15663  11.627  33.964  13.881
56227W        W15664  10.739   0.786   0.949
56228W        W15665   4.390  35.999  11.444
56229W        W15666   3.778  34.466   0.805
56230W        W15667  23.554   1.796  13.399
56231W        W15668  20.732   6.770   4.742
56232W        W15669  39.938  12.707   0.395
56233W        W15670  15.760   7.394   9.974
56234W        W15671  16.787  34.448   2.405
56235W        W15672  41.444   5.764   4.222
56236W        W15673  21.203  24.684   2.204
56237W        W15674  33.535  20.228   3.217
56238W        W15675  44.303  37.436  14.508
56239W        W15676   3.746   3.445  14.431
56240W        W15677  13.728   4.825   3.713
56241W        W15678  37.486   1.341  11.545
56242W        W15679  25.483   4.228  14.326
56243W        W15680   8.661  11.703   4.611
56244W        W15681  22.056  38.048  11.947
56245W        W15682  28.098  40.393   1.245
56246W        W15683   1.902  16.580   1.231
56247W        W15684   2.884   6.750  14.928
56248W        W15685   8.257   2.368   0.337
56249W        W15686  44.343  17.256   0.817
56250W        W15687  10.707   9.323  11.085
56251W        W15688  13.773   8.716   2.360
56252W        W15689  43.339  24.018  12.429
56253W        W15690   8.896  39.898   4.179
56254W        W15691  22.657  27.595  13.429
56255W        W15692  44.771  12.647  14.945
56256W        W15693   4.810  14.772  11.935
56257W        W15694  39.439  28.596   4.162
56258W        W15695  29.568  18.735  14.312
56259W        W15696   3.358  34.425  13.325
56260W        W15697   4.723  38.396  14.940
56261W        W15698  29.131  35.371   0.868
56262W        W15699  15.219  42.873  13.827
56263W        W15700   6.366  29.557  12.095
56264W        W15701   7.222  13.825  13.864
56265W        W15702  17.244   0.865   4.305
56266W        W15703   9.651  36.978  12.577
56267W        W15704  42.287  39.853  10.545
56268W        W15705  27.137  33.971   1.902
56269W        W15706  21.589  14.109  11.059
56270W        W15707   8.812  16.088  11.932
56271W        W15708  22.124   9.669  14.901
56272W        W15709  32.490  22.012  11.378
56273W        W15710   4.716  37.350  11.441
56274W        W15711  38.338  10.675   1.919
56275W        W15712  18.173   0.859  13.867
56276W        W15713  26.020   9.349   5.298
56277W        W15714  29.531  35.875  10.558
56278W        W15715  11.150  14.099   1.876
56279W        W15716  43.991  37.082  11.392
56280W        W15717  26.100  39.858   1.318
56281W        W15718  23.523  23.530   3.157
56282W        W15719   0.909  16.085   4.314
56283W        W15720  13.630  39.901   2.302
56284W        W15721  13.802  29.499  13.316
56285W        W15722  40.347  37.549  13.867
56286W        W15723  21.130   8.352  12.554
56287W        W15724  35.970  23.024  14.936
56288W        W15725  12.825   7.702   0.310
56289W        W15726   8.855  42.780  13.860
56290W        W15727  35.094   2.907  11.440
56291W        W15728   2.951  15.149  10.552
56292W        W15729  20.247  10.819  12.412
56293W        W15730   6.198   6.903  12.019
56294W        W15731   6.873  20.031  13.794
56295W        W15732  40.470  10.817   3.756
56296W        W15733  37.897  24.517  11.483
56297W        W15734  40.879   1.400  13.816
56298W        W15735  31.139  28.551  11.039
56299W        W15736  44.953   9.846  14.502
56300W        W15737  40.826  19.573  14.826
56301W        W15738  19.097  32.424   2.394
56302W        W15739   8.403  16.175   2.316
56303W        W15740   5.276  38.932  12.910
56304W        W15741   5.732  30.526   3.865
56305W        W15742   4.347  32.609  10.627
56306W        W15743  14.117   3.916  10.412
56307W        W15744  29.497   3.305  12.508
56308W        W15745  29.611   6.691  13.495
56309W        W15746  11.722  35.063   0.933
56310W        W15747  25.007  35.036  13.364
56311W        W15748   5.388  16.253   4.684
56312W        W15749  17.741  29.513   1.220
56313W        W15750   9.666  16.775  13.451
56314W        W15751  18.157  29.960   1.423
56315W        W15752  18.054  11.260  11.588
56316W        W15753   9.877  35.987  14.031
56317W        W15754  15.163   2.412   0.742
56318W        W15755  13.600  19.179  11.395
56319W        W15756   1.818  36.372  14.915
56320W        W15757   8.237  14.165  12.061
56321W        W15758  14.607  31.033   0.893
56322W        W15759  37.451  11.250  10.915
56323W        W15760  39.817  40.323   4.688
56324W        W15761   9.779  23.571  11.495
56325W        W15762  18.787   0.894  13.928
56326W        W15763  23.612  40.049   0.829
56327W        W15764  27.024  21.725   5.213
56328W        W15765  37.485  27.980  11.601
56329W        W15766  31.402  25.541  11.385
56330W        W15767  24.029  24.175  13.313
56331W        W15768   8.208  15.684  11.514
56332W        W15769   2.440  28.612  13.040
56333W        W15770  37.848  13.228   3.340
56334W        W15771  34.964  10.720   0.425
56335W        W15772  22.688  22.051   1.694
56336W        W15773   7.860   5.370   4.250
56337W        W15774  32.995  43.280  11.924
56338W        W15775  44.833  39.486  12.883
56339W        W15776  38.396  30.538  10.449
56340W        W15777  35.989  15.323  13.945
56341W        W15778   7.829  12.147  13.896
56342W        W15779  26.984  16.797   4.749
56343W        W15780   1.909   6.302   3.848
56344W        W15781  44.805  25.484   0.951
56345W        W15782  33.416  25.544   3.680
56346W        W15783  10.263  22.584   1.769
56347W        W15784   3.949  30.464  11.983
56348W        W15785  13.843  23.695   3.837
56349W        W15786  25.150  28.474   0.456
56350W        W15787  32.983  18.139   2.255
56351W        W15788  39.549  27.618   4.227
56352W        W15789   0.821  26.183   2.335
56353W        W15790  22.632  30.436  12.033
56354W        W15791  33.061  27.129  14.822
56355W        W15792   9.286  10.139   0.815
56356W        W15793  39.517  10.139   4.283
56357W        W15794  12.801   4.389  10.891
56358W        W15795  36.970  28.451  13.312
56359W        W15796   2.412  31.617  11.931
56360W        W15797   7.689  23.549  13.992
56361W        W15798  35.049  34.000   0.884
56362W        W15799  17.154   1.760  12.090
56363W        W15800  23.157  38.459   0.409
56364W        W15801  11.690  41.303   1.380
56365W        W15802  31.606  25.089   2.270
56366W        W15803   6.354  26.098   1.370
56367W        W15804  39.427   3.752   3.219
56368W        W15805  40.309  18.178  12.041
56369W        W15806  28.032  38.361  12.482
56370W        W15807  22.559   7.261   3.179
56371W        W15808  38.824  23.611   0.343
56372W        W15809  14.165  37.018   1.445
56373W        W15810  18.252  21.109  13.790
56374W        W15811  17.560  39.376   0.479
56375W        W15812  11.321   9.387   4.348
56376W        W15813   7.394   9.711   1.752
56377W        W15814  29.602  20.212   4.793
56378W        W15815  21.033  22.736  12.346
56379W        W15816  40.036  37.940  11.559
56380W        W15817  28.549  38.485  14.420
56381W        W15818   0.900  21.250  11.867
56382W        W15819   0.313   1.318   2.885
56383W        W15820   7.417  16.181   4.621
56384W        W15821  42.029  10.273   1.444
56385W        W15822   2.423   0.265   3.190
56386W        W15823  23.115   6.218   2.893
56387W        W15824  29.608  15.252  14.904
56388W        W15825  29.655  40.338   5.191
56389W        W15826  22.161  40.009   3.349
56390W        W15827   4.758  10.327   2.793
56391W        W15828  26.077  30.494  13.834
56392W        W15829  42.491   6.394  11.393
56393W        W15830  30.915  21.728  13.479
56394W        W15831  16.162  33.429  10.951
56395W        W15832  39.976  16.214   2.848
56396W        W15833  28.061  21.609   0.920
56397W        W15834  43.322  30.977  14.997
56398W        W15835   8.268  13.800   4.340
56399W        W15836  10.780  26.102   2.891
56400W        W15837  39.964  11.819  13.917
56401W        W15838  36.574   9.783  12.965
56402W        W15839  39.011   3.732   0.330
56403W        W15840  34.940  31.941   3.376
56404W        W15841  17.179  23.140   2.839
56405W        W15842   2.310  16.783  12.032
56406W        W15843  24.493  34.515  14.467
56407W        W15844  31.642  22.670  14.829
56408W        W15845  12.220  25.185   2.901
56409W        W15846  15.610  12.752  11.491
56410W        W15847  36.867  31.495   4.629
56411W        W15848   8.681  41.428   1.845
56412W        W15849   4.224  26.123   2.771
56413W        W15850  36.038   4.427  10.481
56414W        W15851   1.408   3.348  11.944
56415W        W15852  19.183  36.555  14.427
56416W        W15853  30.123  39.045  12.384
56417W        W15854   5.304  12.167   5.267
56418W        W15855   0.865  11.195  10.430
56419W        W15856  18.738  29.629   1.899
56420W        W15857  21.572  33.925  14.297
56421W        W15858  35.523  27.612   1.729
56422W        W15859  31.541  40.446  12.888
56423W        W15860   4.372  19.103  10.549
56424W        W15861   0.442  38.386   1.800
56425W        W15862  24.039  14.653   1.252
56426W        W15863  23.240  37.876   0.366
56427W        W15864  16.299  18.680   2.838
56428W        W15865  33.016  31.970  12.340
56429W        W15866  16.748  23.126   1.259
56430W        W15867  40.375   8.697  13.401
56431W        W15868  36.399  20.698   3.672
56432W        W15869  37.055  21.201  14.823
56433W        W15870  19.187  29.604  10.541
56434W        W15871  13.281   9.352   2.661
56435W        W15872  23.528  35.942  13.942
56436W        W15873  34.886   5.269   4.339
56437W        W15874  29.444   2.323  14.503
56438W        W15875   1.292  16.740  14.498
56439W        W15876  11.706  29.602  10.157
56440W        W15877   5.778  15.089   3.815
56441W        W15878  13.635  38.435  12.852
56442W        W15879  37.479  16.569   3.687
56443W        W15880  30.537   3.929   2.896
56444W        W15881  16.718  15.653  12.048
56445W        W15882   2.952  23.030  14.504
56446W        W15883  42.308  36.962  11.952
56447W        W15884  33.111   0.782   0.818
56448W        W15885  34.892  11.680   0.791
56449W        W15886   3.245  31.050   1.232
56450W        W15887   5.257  10.281   4.634
56451W        W15888  35.079  33.563  12.469
56452W        W15889  30.978  38.952   0.899
56453W        W15890  18.290  43.851   0.377
56454W        W15891  44.350  24.500  14.896
56455W        W15892  40.312  27.592  13.400
56456W        W15893  27.024   0.442  11.066
56457W        W15894  15.746  19.072  14.317
56458W        W15895  20.161  27.102  12.425
56459W        W15896   9.722   9.376  14.431
56460W        W15897  16.127  26.517  10.618
56461W        W15898  11.628  33.034   3.753
56462W        W15899  15.258   6.730  11.594
56463W        W15900  21.654  33.465   3.679
56464W        W15901   7.310   0.265   3.171
56465W        W15902  11.305   3.256   0.917
56466W        W15903  38.360  31.589  13.836
56467W        W15904   2.257   0.348  11.908
56468W        W15905  34.079  33.517  14.002
56469W        W15906  34.394   2.747   0.303
56470W        W15907  30.503   8.813  10.559
56471W        W15908  20.064  15.586   2.663
56472W        W15909   8.370   5.371  11.901
56473W        W15910  35.525  18.280   1.249
56474W        W15911  44.959  37.086  13.534
56475W        W15912  15.189  40.408  14.965
56476W        W15913  20.740   7.851  14.330
56477W        W15914   3.796  26.620  13.877
56478W        W15915  40.928  32.527   2.399
56479W        W15916  39.903  30.488   0.255
56480W        W15917  40.802   5.843   2.747
56481W        W15918  23.533  29.510  11.039
56482W        W15919  33.566   2.739  11.925
56483W        W15920  11.713  28.543  10.902
56484W        W15921   1.353   7.337  14.449
56485W        W15922  33.050  42.791  11.513
56486W        W15923  39.464  24.987   1.410
56487W        W15924  21.156  24.205   2.391
56488W        W15925  12.817   5.323   2.230
56489W        W15926  17.290  19.249   0.244
56490W        W15927  33.603  44.346   1.823
56491W        W15928  38.535   9.861   3.346
56492W        W15929  33.610  43.985   1.226
56493W        W15930  20.132  20.063  10.563
56494W        W15931  19.139  26.049   2.671
56495W        W15932  27.566   9.200  12.840
56496W        W15933  29.149  40.436   4.297
56497W        W15934   2.469  11.280  10.488
56498W        W15935  43.886   9.297   1.782
56499W        W15936  28.530  20.661   0.777
56500W        W15937   4.203  32.043  11.974
56501W        W15938  43.936  15.230   3.769
56502W        W15939  21.170  38.032  14.442
56503W        W15940  20.085  31.033  12.981
56504W        W15941   3.307   6.684  11.412
56505W        W15942  22.052  36.491   2.379
56506W        W15943   9.321  37.899  12.946
56507W        W15944  14.658  24.689   1.378
56508W        W15945   6.355  43.846  10.506
56509W        W15946  19.568  17.164  10.907
56510W        W15947   0.399  16.669   3.837
56511W        W15948   7.719  29.082   1.925
56512W        W15949  14.264  17.226   3.247
56513W        W15950  29.668  14.305  11.899
56514W        W15951  10.838  26.623  11.951
56515W        W15952   9.312  18.718  14.482
56516W        W15953  38.345  15.167   1.873
56517W        W15954  11.737  38.532   4.800
56518W        W15955  29.618  43.375  14.514
56519W        W15956  12.664  41.520  13.833
56520W        W15957   6.265  29.584   4.256
56521W        W15958  27.464  33.426  11.945
56522W        W15959  30.519  37.526  12.832
56523W        W15960  21.210  30.933  13.042
56524W        W15961   9.331   4.891   3.813
56525W        W15962  19.756  37.478   4.778
56526W        W15963  41.893  34.864   0.856
56527W        W15964  33.453  36.035   1.369
56528W        W15965  26.029  37.067   2.775
56529W        W15966  19.055  21.668   0.303
56530W        W15967  33.056  41.824   4.187
56531W        W15968   1.757  33.447   2.696
56532W        W15969   6.337  29.109  14.968
56533W        W15970   1.266  30.587   0.258
56534W        W15971  13.805   2.424  11.582
56535W        W15972   6.905  43.767  10.950
56536W        W15973  33.927  25.079  14.962
56537W        W15974  12.824  17.244   1.307
56538W        W15975   1.294  19.064   3.676
56539W        W15976  29.518  35.017  10.627
56540W        W15977  22.725  29.167   2.317
56541W        W15978  34.875  27.057   3.248
56542W        W15979   0.799  23.171   3.713
56543W        W15980  14.251  38.493   2.833
56544W        W15981  17.591  36.361   2.308
56545W        W15982  22.544   2.431  10.919
56546W        W15983  31.636   2.913  13.960
56547W        W15984  35.454   7.214   4.644
56548W        W15985  16.730  32.606   1.738
56549W        W15986  20.161  30.164   1.755
56550W        W15987   4.386  34.868  14.337
56551W        W15988  14.796  26.526   4.327
56552W        W15989  37.075  24.609  14.454
56553W        W15990  23.502  34.422  14.826
56554W        W15991   8.164   4.275   3.777
56555W        W15992  42.368   3.791  11.500
56556W        W15993  42.008   1.833  11.906
56557W        W15994  34.112  19.548   2.874
56558W        W15995   2.266  40.336   1.935
56559W        W15996   4.378  36.962  12.989
56560W        W15997  30.026   5.411   1.740
56561W        W15998  25.073   6.184  10.606
56562W        W15999   1.833  22.502   3.849
56563W        W16000  18.060  12.828   0.826
56564W        W16001  35.096  13.261  12.996
56565W        W16002   1.817  35.073   2.872
56566W        W16003  40.801  24.992  13.329
56567W        W16004  31.014  40.453  12.385
56568W        W16005  44.817  44.278   1.751
56569W        W16006  12.116  40.392  12.534
56570W        W16007  39.400  33.403  14.922
56571W        W16008   7.867  21.530   1.316
56572W        W16009   2.808   7.771  13.323
56573W        W16010  31.645  38.405  12.996
56574W        W16011  32.074  18.283   3.221
56575W        W16012  11.329   5.915   2.788
56576W        W16013  43.948  39.810   0.393
56577W        W16014  16.225  43.803  13.900
56578W        W16015  15.181  30.052  13.872
56579W        W16016  15.583  16.675   3.162
56580W        W16017  18.172  10.350  13.455
56581W        W16018  38.489   4.348  12.061
56582W        W16019  24.085   7.866   1.293
56583W        W16020   6.906  17.626  13.034
56584W        W16021  28.173  44.391   5.258
56585W        W16022  29.536  13.282  12.031
56586W        W16023  16.275  23.565   4.605
56587W        W16024  43.807  16.788  10.514
56588W        W16025  15.213  32.470  13.866
56589W        W16026  44.470  16.257   9.959
56590W        W16027   8.885  15.800  13.352
56591W        W16028  40.839  18.071  11.074
56592W        W16029  13.120  36.859   0.442
56593W        W16030  35.951  23.547   0.775
56594W        W16031   9.154  36.374   3.754
56595W        W16032  34.013  21.167  14.937
56596W        W16033  11.230   8.800   4.711
56597W        W16034  12.318  10.244   1.311
56598W        W16035   3.315   2.247   3.315
56599W        W16036  11.257  39.820   2.382
56600W        W16037  11.279   9.798   1.767
56601W        W16038  13.220  42.841   2.882
56602W        W16039  20.042  15.739  14.473
56603W        W16040  17.285  37.883  13.848
56604W        W16041  38.404   0.372  14.425
56605W        W16042  42.340  17.119   3.655
56606W        W16043  26.034  27.660  11.995
56607W        W16044  16.192  30.528  13.405
56608W        W16045  29.600   5.803   2.754
56609W        W16046   8.848  41.363  11.054
56610W        W16047  23.574  37.087   0.850
56611W        W16048  25.506  25.540  10.144
56612W        W16049  33.976  11.358   2.791
56613W        W16050   6.828  15.274   3.685
56614W        W16051  28.621  13.263   0.451
56615W        W16052  43.836  31.115  12.948
56616W        W16053  10.879  18.771   3.304
56617W        W16054  14.609  44.866  14.970
56618W        W16055   8.890  14.625  14.912
56619W        W16056  23.036  36.042   2.776
56620W        W16057  38.478   2.466   1.737
56621W        W16058  38.484   9.728   2.309
56622W        W16059  21.176  17.068  12.880
56623W        W16060   6.810  40.454  14.957
56624W        W16061  38.404  15.747  12.095
56625W        W16062  29.118  33.410   0.413
56626W        W16063  43.942  41.928  14.758
56627W        W16064  44.798  30.602   2.368
56628W        W16065   8.679  29.083  10.997
56629W        W16066  30.656  25.088   4.828
56630W        W16067  42.347  13.320  14.764
56631W        W16068  32.493  29.472   0.483
56632W        W16069  27.987  14.167  12.514
56633W        W16070  36.908  44.322   3.264
56634W        W16071   1.445   2.880   1.340
56635W        W16072  18.691  44.005   0.347
56636W        W16073  17.145  19.618  13.451
56637W        W16074   7.746  12.831  11.505
56638W        W16075   8.340  38.032   2.205
56639W        W16076  34.095  44.355   1.882
56640W        W16077  27.567  32.066   1.436
56641W        W16078  24.588  35.509  11.492
56642W        W16079   9.242  28.488   4.645
56643W        W16080  14.237   1.451   3.307
56644W        W16081   2.352  41.313  12.563
56645W        W16082   8.752  21.752  11.571
56646W        W16083  28.070  42.523  10.036
56647W        W16084  25.479   1.891   1.920
56648W        W16085  43.300  13.142  12.031
56649W        W16086  32.511  34.442  11.958
56650W        W16087  44.776   3.931  14.807
56651W        W16088  34.988   7.768   3.230
56652W        W16089   6.425  29.562  13.499
56653W        W16090   8.806  43.933   3.368
56654W        W16091  14.257  12.314   1.347
56655W        W16092   8.289  21.063   3.804
56656W        W16093  27.042  17.180   3.346
56657W        W16094   1.834  15.823   0.334
56658W        W16095  12.130  26.536   2.338
56659W        W16096  26.535   0.424   0.452
56660W        W16097  28.153  17.577   2.360
56661W        W16098   5.238   3.311   0.935
56662W        W16099  33.891  44.782   3.216
56663W        W16100  30.916  36.061   2.182
56664W        W16101  20.630  27.109   4.120
56665W        W16102  36.536  18.140  10.964
56666W        W16103   9.818  33.977  11.079
56667W        W16104   4.737  21.111  11.371
56668W        W16105  21.189  24.981  10.155
56669W        W16106   7.838  26.988   0.482
56670W        W16107  12.699  44.273   2.690
56671W        W16108  35.576  29.953   0.344
56672W        W16109  21.612  28.485   4.195
56673W        W16110  35.928  17.267  10.536
56674W        W16111  31.421  26.482  11.462
56675W        W16112  35.526   2.393   2.328
56676W        W16113  17.145  14.108  13.008
56677W        W16114  13.787  38.069   4.280
56678W        W16115   8.704  22.684  12.952
56679W        W16116  12.127  34.459  12.522
56680W        W16117  17.723  32.394  13.059
56681W        W16118  43.965   8.351   0.875
56682W        W16119  10.689  10.793  10.582
56683W        W16120  11.762  40.359   0.337
56684W        W16121  22.118  27.021   1.298
56685W        W16122   6.222  40.054   3.818
56686W        W16123  32.634  21.648   1.743
56687W        W16124  40.896   2.841  14.937
56688W        W16125  30.132   3.929   2.396
56689W        W16126   3.749  22.184   4.268
56690W        W16127  36.369  17.693  11.931
56691W        W16128  44.011  22.075  12.070
56692W        W16129  39.064   0.310  11.535
56693W        W16130   6.227  34.933   4.766
56694W        W16131   0.322  16.273  14.853
56695W        W16132   0.849  35.966   1.213
56696W        W16133  40.858  39.907   2.363
56697W        W16134   0.820  41.805  11.418
56698W        W16135   1.447   8.750   0.810
56699W        W16136  31.148  37.525  10.935
56700W        W16137  27.651  16.106  13.810
56701W        W16138  23.229  39.453  13.950
56702W        W16139  30.043  18.632  12.420
56703W        W16140  27.164  26.972   4.729
56704W        W16141  31.479  13.191  11.474
56705W        W16142  22.123  10.852   2.870
56706W        W16143  33.435   1.468   4.212
56707W        W16144  12.251  34.065  10.921
56708W        W16145  19.761   9.678   1.287
56709W        W16146  18.110   1.440  12.933
56710W        W16147  20.764  44.414   4.135
56711W        W16148   1.408  29.040   1.254
56712W        W16149  31.981   3.308   4.252
56713W        W16150  43.779  35.490   0.433
56714W        W16151  24.118   8.389  11.990
56715W        W16152  44.812  28.569  11.436
56716W        W16153  35.911  37.995  14.396
56717W        W16154  34.394  27.484  13.342
56718W        W16155  32.450  17.275   2.410
56719W        W16156  38.489  40.994  10.971
56720W        W16157  16.615   2.955  11.412
56721W        W16158  22.094  12.344  14.499
56722W        W16159  35.507  15.694  11.859
56723W        W16160  30.099  36.510   1.735
56724W        W16161  29.112  24.014   0.319
56725W        W16162   7.675  36.474  11.890
56726W        W16163  25.041  31.075  14.766
56727W        W16164  43.325  29.988  13.025
56728W        W16165  24.714  30.912  12.389
56729W        W16166  44.878  23.207   0.431
56730W        W16167   3.872   9.362  11.972
56731W        W16168  35.920  40.925   2.324
56732W        W16169  29.618  43.280   2.812
56733W        W16170  26.036  21.591   3.205
56734W        W16171  21.059  23.558  13.510
56735W        W16172  43.870  32.118  12.865
56736W        W16173  19.699  27.629   2.665
56737W        W16174  27.048  29.076   2.186
56738W        W16175   3.353   1.890   0.337
56739W        W16176   9.381  43.989   1.923
56740W        W16177  22.723  28.447  10.443
56741W        W16178  28.023  24.005   4.314
56742W        W16179  31.051   9.189  11.491
56743W        W16180   4.410  38.830   0.966
56744W        W16181   4.207  36.353   0.875
56745W        W16182  19.706  36.521  11.001
56746W        W16183  31.523  26.005  12.398
56747W        W16184   1.344  41.503  11.950
56748W        W16185  33.519   2.763   1.281
56749W        W16186  18.660   0.436   4.325
56750W        W16187  29.942  28.657   1.822
56751W        W16188  17.142  25.014  12.955
56752W        W16189   7.323  16.237  11.562
56753W        W16190  21.166  23.689  11.895
56754W        W16191  40.884  34.603   4.340
56755W        W16192  41.007   3.856   3.727
56756W        W16193  41.019   1.324   1.703
56757W        W16194  21.113  34.050   0.245
56758W        W16195   0.286   7.900   2.667
56759W        W16196   1.259  30.487  11.858
56760W        W16197  14.802  39.943   0.801
56761W        W16198  34.476  25.171  11.395
56762W        W16199  30.599  17.273   4.661
56763W        W16200  29.423  35.029   2.362
56764W        W16201   9.339  29.592   3.765
56765W        W16202   9.704   9.273  12.838
56766W        W16203  26.020  29.453   4.745
56767W        W16204  29.104  13.705  13.469
56768W        W16205  33.930  11.164  11.953
56769W        W16206   8.854  27.093  12.078
56770W        W16207  29.169   5.776  14.020
56771W        W16208  32.466  23.499  13.950
56772W        W16209  15.596  44.812   2.249
56773W        W16210  43.287   7.779   1.282
56774W        W16211  16.244  44.314   3.231
56775W        W16212   3.426  36.391  13.396
56776W        W16213  18.071  36.426   3.195
56777W        W16214  28.124  13.787  12.857
56778W        W16215  14.820   6.750   3.657
56779W        W16216  25.098  29.496   1.417
56780W        W16217   7.766  21.113   2.751
56781W        W16218  36.484  25.633  13.307
56782W        W16219   8.879  23.574   1.252
56783W        W16220  30.025  40.014  11.552
56784W        W16221  34.394  17.251  11.504
56785W        W16222   5.435  34.562   4.599
56786W        W16223   1.320  30.996   4.829
56787W        W16224   9.676  19.740  12.910
56788W        W16225   0.882  35.528   2.312
56789W        W16226  16.695  35.984  12.555
56790W        W16227  24.150  13.719  14.760
56791W        W16228  30.026   8.893   5.081
56792W        W16229  13.108  17.088   0.777
56793W        W16230  44.288  19.107  13.900
56794W        W16231  38.939  34.911   2.854
56795W        W16232   0.398  16.799   0.270
56796W        W16233   9.774  44.933  12.572
56797W        W16234  31.069  39.501   5.702
56798W        W16235  23.595  10.817   1.881
56799W        W16236  38.398  36.367  12.977
56800W        W16237  10.379  43.514   2.710
56801W        W16238  35.055   5.886  13.318
56802W        W16239  31.555  20.108  12.864
56803W        W16240  41.520   3.881   0.275
56804W        W16241  13.220  27.529   3.812
56805W        W16242  28.029  35.911   5.307
56806W        W16243  11.319  41.992  14.363
56807W        W16244  30.122   7.200   3.844
56808W        W16245  13.761   8.315  13.542
56809W        W16246  31.028   3.846   0.277
56810W        W16247  30.984  26.650  14.913
56811W        W16248  13.330  37.017  13.491
56812W        W16249  34.496  38.490  14.941
56813W        W16250  31.620   0.892  12.041
56814W        W16251  40.965   2.894  13.539
56815W        W16252  25.162   2.375  11.474
56816W        W16253  28.106  16.176  12.468
56817W        W16254   4.247  43.910   1.770
56818W        W16255  23.607  29.461   2.877
56819W        W16256  30.105  35.937  12.345
56820W        W16257  14.655  17.247   1.300
56821W        W16258   7.275  19.080  14.377
56822W        W16259  29.972  42.839   1.749
56823W        W16260  29.968  13.119   2.398
56824W        W16261  15.187  21.678   4.808
56825W        W16262   9.190  34.946   0.371
56826W        W16263  15.583  34.589  10.109
56827W        W16264  36.954  18.178  11.901
56828W        W16265  12.816   0.976  12.916
56829W        W16266  43.364  20.766  14.370
56830W        W16267   4.354  11.271  12.451
56831W        W16268  29.547  34.400   1.343
56832W        W16269  34.024  32.048   3.319
56833W        W16270  23.192   3.850   3.373
56834W        W16271  27.576  12.316   1.779
56835W        W16272  18.577  31.618   4.796
56836W        W16273  21.675  30.052   2.363
56837W        W16274  28.637  14.713   0.781
56838W        W16275  42.848  14.674  12.943
56839W        W16276   8.665  12.620   4.756
56840W        W16277  21.752  37.947  13.389
56841W        W16278  15.710  23.693   3.699
56842W        W16279  39.921   8.275  13.928
56843W        W16280   9.717  20.216  14.947
56844W        W16281  10.728  20.269  10.428
56845W        W16282  11.786  18.141   1.355
56846W        W16283  21.652  14.245  13.340
56847W        W16284   6.197  36.088   5.276
56848W        W16285  28.145  21.557  11.502
56849W        W16286  29.919  42.025  12.428
56850W        W16287  26.113  21.658   1.922
56851W        W16288  13.730  31.070   0.290
56852W        W16289  19.174  29.162   0.389
56853W        W16290  41.538  19.584  10.439
56854W        W16291  31.557   9.698   2.825
56855W        W16292  35.366  23.208  12.833
56856W        W16293  31.987  18.691   0.257
56857W        W16294  26.996  16.073   2.303
56858W        W16295  44.386  30.593   0.254
56859W        W16296  23.553  34.898   4.809
56860W        W16297  20.203  20.264  10.016
56861W        W16298  32.435  35.903   3.304
56862W        W16299  39.472  21.231   4.743
56863W        W16300  29.997  38.900  13.057
56864W        W16301  10.170   0.780   1.381
56865W        W16302  38.476  30.535   0.283
56866W        W16303  21.097  32.631   1.429
56867W        W16304  36.585  29.586  10.592
56868W        W16305  22.531  27.562   0.731
56869W        W16306  20.048   6.735   0.367
56870W        W16307  36.501  39.900   0.963
56871W        W16308  19.634  18.640   4.737
56872W        W16309  13.136  39.005   2.211
56873W        W16310  27.490  38.423   3.190
56874W        W16311  26.501   9.882  11.409
56875W        W16312   4.336   1.895  11.533
56876W        W16313   2.324  11.819   2.877
56877W        W16314  39.857  22.736   0.296
56878W        W16315  31.501  38.843  11.955
56879W        W16316   5.388   6.796   4.715
56880W        W16317  25.640  16.591   2.235
56881W        W16318  43.884  24.188  11.127
56882W        W16319   5.348   9.363   4.769
56883W        W16320  43.863  18.080   1.812
56884W        W16321  25.141  26.573  13.924
56885W        W16322  29.431   8.791   0.887
56886W        W16323  25.582  18.779   9.921
56887W        W16324  22.253  24.221  11.069
56888W        W16325  30.425  11.633  14.442
56889W        W16326   7.360   9.789  14.962
56890W        W16327   6.426  18.096  11.913
56891W        W16328  22.227  12.152   1.782
56892W        W16329  27.048   6.760   0.482
56893W        W16330  32.125  33.908   4.275
56894W        W16331   9.700  19.073  12.897
56895W        W16332  13.644  11.189  12.903
56896W        W16333   7.171   7.729   0.815
56897W        W16334  38.354   9.227   3.361
56898W        W16335  19.722  19.676  10.576
56899W        W16336   9.315  15.165  11.526
56900W        W16337   9.728   5.894  11.872
56901W        W16338  42.819  24.558  11.898
56902W        W16339   5.784  32.925   1.793
56903W        W16340  34.067  43.386   3.260
56904W        W16341  26.692  21.645  10.571
56905W        W16342  39.000  24.536  10.599
56906W        W16343  15.690  27.943  10.892
56907W        W16344   5.906  34.553   0.821
56908W        W16345  13.821  39.982  14.419
56909W        W16346  44.469  40.851   9.939
56910W        W16347  13.651  13.313  11.881
56911W        W16348  18.200  16.773   0.872
56912W        W16349  11.643  17.597  14.498
56913W        W16350  17.795  38.363  14.802
56914W        W16351  44.493  37.471   1.351
56915W        W16352  18.268  27.488  13.839
56916W        W16353  15.308  19.139   4.331
56917W        W16354   5.367  31.511   1.924
56918W        W16355  42.431  19.773  11.608
56919W        W16356  24.659  41.466  14.006
56920W        W16357   8.835   4.749   2.406
56921W        W16358   3.823   6.680  14.882
56922W        W16359   9.176   3.222  12.382
56923W        W16360  37.067  28.050  10.571
56924W        W16361   2.889  24.575   4.682
56925W        W16362  36.992  26.576  13.533
56926W        W16363   6.684  27.659   2.901
56927W        W16364  10.851  44.407  14.278
56928W        W16365  30.529  16.151  14.023
56929W        W16366  10.668  39.456   3.164
56930W        W16367   3.753  43.409  11.454
56931W        W16368  10.768  41.493  12.511
56932W        W16369   7.354  10.262  10.501
56933W        W16370  32.416  19.687   0.841
56934W        W16371  40.443   7.773   4.217
56935W        W16372  27.515  40.370   1.358
56936W        W16373  41.929   7.729  10.896
56937W        W16374   7.174   3.757   4.273
56938W        W16375  28.977  11.802   4.735
56939W        W16376  14.746  43.283  12.966
56940W        W16377  42.799  21.115  10.927
56941W        W16378  33.115  34.409  10.600
56942W        W16379  28.068  22.087   0.755
56943W        W16380  23.664  12.266   2.267
56944W        W16381  31.995  24.051   3.147
56945W        W16382  44.304  19.748  12.523
56946W        W16383  33.990  37.456  13.967
56947W        W16384  11.237  29.440   1.226
56948W        W16385  35.062  42.377   3.732
56949W        W16386  15.739  13.783  11.123
56950W        W16387  23.643  37.549   0.295
56951W        W16388  29.967  40.846  10.458
56952W        W16389  33.391   6.320  12.437
56953W        W16390  27.144  25.571  12.902
56954W        W16391  43.933  27.122   0.873
56955W        W16392  14.222  35.882   1.799
56956W        W16393  16.807   1.881   0.914
56957W        W16394  12.270   8.201  14.864
56958W        W16395  26.595  10.689  14.821
56959W        W16396  19.157  42.498  11.381
56960W        W16397  42.888   2.956   2.300
56961W        W16398  32.139  10.874  12.048
56962W        W16399  27.646   8.226  10.955
56963W        W16400  15.320  11.674  11.080
56964W        W16401   0.365  11.195   3.813
56965W        W16402  42.011  18.051   1.372
56966W        W16403  17.775  18.114   3.808
56967W        W16404   0.283  34.996  11.979
56968W        W16405  40.508   3.752  11.568
56969W        W16406   7.232  17.217   3.821
56970W        W16407  38.495  40.898   3.355
56971W        W16408  18.202  30.941  14.330
56972W        W16409  36.885  41.874  14.392
56973W        W16410   0.767   9.331   3.158
56974W        W16411  29.577   4.255  14.473
56975W        W16412   3.440  11.701  11.452
56976W        W16413  34.413   8.836  12.505
56977W        W16414  39.859  18.272   3.689
56978W        W16415  30.566   8.369   4.253
56979W        W16416   7.218  17.679  11.017
56980W        W16417  10.844  18.555   1.920
56981W        W16418  43.888  24.545  14.887
56982W        W16419  17.615  23.653  14.938
56983W        W16420  39.998  26.113   1.407
56984W        W16421  32.113  31.149  11.528
56985W        W16422   5.256  20.267   3.754
56986W        W16423  32.948  21.683   0.264
56987W        W16424  41.871   8.793   4.801
56988W        W16425  41.358   5.238  14.996
56989W        W16426   9.863  24.086   1.401
56990W        W16427  40.942  11.729  11.082
56991W        W16428   3.410  43.787   1.298
56992W        W16429   0.851  23.039  13.343
56993W        W16430  33.423  19.732   1.437
56994W        W16431  29.465  41.014   1.399
56995W        W16432   4.852   7.877  11.596
56996W        W16433   5.218   0.463   4.159
56997W        W16434  23.063  33.115  11.053
56998W        W16435   5.257  18.097   2.260
56999W        W16436  43.290  15.681  11.973
57000W        W16437  19.069  27.659   1.934
57001W        W16438   6.777  28.609  11.004
57002W        W16439  10.833  23.052  12.563
57003W        W16440  27.056  22.100  12.995
57004W        W16441   1.879  30.989   2.272
57005W        W16442  20.684   6.319  11.597
57006W        W16443   6.399  21.224   1.934
57007W        W16444   5.278  25.479  14.497
57008W        W16445  29.453  28.663   0.262
57009W        W16446   8.398  18.782  11.470
57010W        W16447  20.590  17.633  13.940
57011W        W16448   9.728   3.738  14.935
57012W        W16449  33.402   3.863   3.300
57013W        W16450  27.560  36.009   3.720
57014W        W16451  16.281   6.360  10.456
57015W        W16452  34.523  39.483  10.887
57016W        W16453  30.544  37.922   0.945
57017W        W16454  30.095  21.039   3.654
57018W        W16455  37.398  18.712  12.574
57019W        W16456  33.988  22.243   9.630
57020W        W16457  16.255  14.233  10.922
57021W        W16458  28.946  26.612  10.595
57022W        W16459  38.565  35.100   4.161
57023W        W16460   7.382   7.845   4.712
57024W        W16461  40.485  15.726  10.619
57025W        W16462  36.527  35.401   1.702
57026W        W16463  31.900  12.714   1.315
57027W        W16464  44.444  13.106   3.740
57028W        W16465  25.579  36.510  11.467
57029W        W16466  11.765  22.138  13.864
57030W        W16467  24.509  34.089  11.373
57031W        W16468  31.048  24.508  14.898
57032W        W16469   9.396  12.288   0.797
57033W        W16470  22.050  34.923  13.934
57034W        W16471  12.679  40.514   4.692
57035W        W16472  14.799   1.846   1.814
57036W        W16473   6.404  24.569  14.403
57037W        W16474  10.361  17.611   3.274
57038W        W16475  41.934  22.671  10.141
57039W        W16476   0.980   6.712   3.796
57040W        W16477  36.590  12.252   1.894
57041W        W16478  16.753   2.777  13.806
57042W        W16479   7.404  42.830   4.800
57043W        W16480  43.820  36.949   0.772
57044W        W16481  22.632  44.263  10.507
57045W        W16482   2.379   7.367   4.193
57046W        W16483  16.656  23.020   3.147
57047W        W16484  44.398   7.854  10.917
57048W        W16485  18.157  26.588  11.960
57049W        W16486   2.735  22.053   4.808
57050W        W16487  36.551  15.616   2.319
57051W        W16488  42.905  33.615  10.568
57052W        W16489  39.915  26.458  13.051
57053W        W16490  43.360  27.982  13.409
57054W        W16491   8.721  19.548  11.069
57055W        W16492   8.289  31.619  10.419
57056W        W16493  18.641  37.040   0.784
57057W        W16494   6.831   5.427  13.037
57058W        W16495  32.980  10.348  13.878
57059W        W16496  34.546  41.301   2.393
57060W        W16497   5.765  36.852   3.846
57061W        W16498   3.858  24.155   0.888
57062W        W16499  40.877  43.816   2.679
57063W        W16500  19.643  22.591  14.998
57064W        W16501   1.921  38.520   3.252
57065W        W16502   6.242   6.185  12.575
57066W        W16503   3.267  13.616  10.084
57067W        W16504  26.584  29.432   0.481
57068W        W16505  43.371  16.789  10.989
57069W        W16506   5.347  28.178   1.802
57070W        W16507   2.766  27.641  13.856
57071W        W16508  19.747  30.633   2.417
57072W        W16509  25.637   5.801   4.293
57073W        W16510   9.771  44.442   0.440
57074W        W16511   2.346  37.486   5.096
57075W        W16512  39.906  40.924   4.673
57076W        W16513  14.706   3.856   2.202
57077W        W16514  10.340   9.295   4.291
57078W        W16515  29.661  44.295  12.862
57079W        W16516   3.833  41.512  12.007
57080W        W16517  19.191  31.502  12.369
57081W        W16518  22.543  16.235   9.665
57082W        W16519   5.851  14.300  14.823
57083W        W16520  18.204   0.268  13.793
57084W        W16521  32.895  23.035   2.319
57085W        W16522  16.318  39.931   0.780
57086W        W16523  34.597  32.072   3.267
57087W        W16524  37.410  42.373  13.792
57088W        W16525  42.344  27.588   4.724
57089W        W16526  42.495  21.188  12.909
57090W        W16527  24.620  33.600   3.696
57091W        W16528  31.093  34.029   0.422
57092W        W16529  18.164  26.630   0.777
57093W        W16530  22.143  20.695   9.659
57094W        W16531  13.839   0.480  12.985
57095W        W16532   5.270   9.229   3.197
57096W        W16533   9.172  30.957   3.770
57097W        W16534  10.382  38.023  13.904
57098W        W16535   1.419  22.226  11.588
57099W        W16536  40.812  42.818   4.801
57100W        W16537  19.628  26.653   2.298
57101W        W16538  21.727  17.601  11.115
57102W        W16539  21.753  41.008   2.330
57103W        W16540  32.121  19.193   4.606
57104W        W16541  42.823   9.307  12.452
57105W        W16542  30.514  35.576  11.116
57106W        W16543   5.290   7.790   1.391
57107W        W16544   8.278  10.704  12.838
57108W        W16545  30.511  23.663  10.989
57109W        W16546  35.462   8.271   4.608
57110W        W16547  16.703  26.659  10.448
57111W        W16548  39.026  18.202  13.013
57112W        W16549  16.598  42.997  12.532
57113W        W16550  25.194  20.548  14.480
57114W        W16551  16.671   1.263   3.776
57115W        W16552   8.185   5.858  12.537
57116W        W16553  32.977  24.173   5.302
57117W        W16554  11.174  44.452  12.078
57118W        W16555  39.831  29.932  12.445
57119W        W16556  19.645  42.474  14.482
57120W        W16557  21.134  23.700  12.405
57121W        W16558  13.170   9.168   1.450
57122W        W16559  11.233  34.962  11.060
57123W        W16560  33.055   3.277   0.860
57124W        W16561   5.746  23.048  10.948
57125W        W16562  25.005   0.311   1.354
57126W        W16563  21.020  14.303   3.632
57127W        W16564   4.873  15.737  10.931
57128W        W16565  36.517  20.167   1.715
57129W        W16566  20.083  19.236  12.982
57130W        W16567   4.362  17.646   2.686
57131W        W16568  43.936   3.926  12.551
57132W        W16569  44.391  30.154   4.814
57133W        W16570  14.212  41.338  10.568
57134W        W16571  44.945  44.902  13.445
57135W        W16572   7.730  44.814  12.937
57136W        W16573  29.483  12.204  14.765
57137W        W16574   8.748  39.001  12.955
57138W        W16575   3.458  13.263   1.868
57139W        W16576  11.162   2.350   1.333
57140W        W16577  16.308   0.318  14.892
57141W        W16578   7.761  18.066  12.540
57142W        W16579  12.677  28.179   2.677
57143W        W16580   6.230  28.498  13.050
57144W        W16581  42.019  30.085   1.370
57145W        W16582   1.978  37.427   1.379
57146W        W16583  26.959  23.115   4.765
57147W        W16584  22.661  13.747  14.902
57148W        W16585  24.656  25.550  14.410
57149W        W16586  38.464  20.689  11.597
57150W        W16587  36.919  13.205  14.801
57151W        W16588  18.223  11.229   4.722
57152W        W16589   7.262   2.863  13.980
57153W        W16590  35.003  38.415   2.199
57154W        W16591  13.771  38.547  11.530
57155W        W16592  36.550  40.940  12.378
57156W        W16593  21.060  13.231   2.370
57157W        W16594  13.210  12.252   3.347
57158W        W16595  12.854  10.177   4.645
57159W        W16596  26.052  32.075  12.459
57160W        W16597  27.115  39.829   0.732
57161W        W16598   5.916   2.372   2.867
57162W        W16599  35.869  11.360   3.259
57163W        W16600  33.381  42.336  11.524
57164W        W16601   2.777  22.091  10.543
57165W        W16602  10.727  24.130  12.549
57166W        W16603  43.275  13.733  11.886
57167W        W16604  11.837  13.283  13.942
57168W        W16605  21.228   6.201   3.810
57169W        W16606  43.943   4.240   4.329
57170W        W16607  26.144  44.305   2.802
57171W        W16608   5.884  33.595  14.503
57172W        W16609  43.449  34.975   0.463
57173W        W16610  16.624  17.649  11.892
57174W        W16611  43.865   6.877  14.883
57175W        W16612  34.379   4.297  10.588
57176W        W16613  27.641   7.347  12.344
57177W        W16614  17.746   5.272   1.360
57178W        W16615  38.979  44.958   4.834
57179W        W16616  24.055  42.422   4.265
57180W        W16617  39.865  19.248  10.490
57181W        W16618  19.769  23.708   3.666
57182W        W16619  28.186  24.579   3.786
57183W        W16620  34.380  18.194   0.844
57184W        W16621  31.473  14.749  14.956
57185W        W16622  32.025   6.723  14.979
57186W        W16623  17.307  10.382  10.977
57187W        W16624  26.201  12.349  12.054
57188W        W16625   4.449  16.758   1.758
57189W        W16626  30.491  13.614  10.472
57190W        W16627  12.639  37.408  11.055
57191W        W16628  41.506  33.617  12.077
57192W        W16629  19.253  41.455  13.405
57193W        W16630   6.849  35.514  11.114
57194W        W16631  22.014  41.442   2.252
57195W        W16632  18.152  33.384  14.346
57196W        W16633  13.138  41.318  14.334
57197W        W16634  27.997  38.499  13.824
57198W        W16635  33.545  28.954  10.010
57199W        W16636  25.965  12.611   5.253
57200W        W16637  31.096  42.507   3.797
57201W        W16638  26.656  28.016  13.320
57202W        W16639  28.534  37.938  10.428
57203W        W16640  44.778  25.123   1.387
57204W        W16641  21.584  15.202  13.476
57205W        W16642  11.743  38.864   1.700
57206W        W16643  29.148  39.859  13.332
57207W        W16644   3.765  34.116  13.325
57208W        W16645   6.263  15.755   2.373
57209W        W16646   2.441  28.009   2.750
57210W        W16647  15.592  39.496  11.886
57211W        W16648  26.975  13.613  11.494
57212W        W16649  33.516  12.217   3.745
57213W        W16650   9.364  27.558  14.029
57214W        W16651  41.523  23.649  14.019
57215W        W16652  28.043  28.519   4.315
57216W        W16653  16.302  12.309  14.435
57217W        W16654  44.931   7.810   1.853
57218W        W16655  18.772   8.354  11.489
57219W        W16656  30.164  36.936   4.278
57220W        W16657  13.662  29.568  12.985
57221W        W16658  23.520  24.568  13.433
57222W        W16659  32.582  42.365  13.443
57223W        W16660  35.414  40.470   2.302
57224W        W16661   8.872  15.213  11.859
57225W        W16662  36.072  25.538   4.224
57226W        W16663  28.462  10.351  14.772
57227W        W16664  12.267   0.834   2.266
57228W        W16665  11.847  22.160   1.840
57229W        W16666  31.112  21.193  10.577
57230W        W16667  32.505  11.263  12.389
57231W        W16668  27.570  10.878  12.475
57232W        W16669   3.731  19.183   3.193
57233W        W16670   5.410   5.372  11.966
57234W        W16671  35.429  37.053   3.639
57235W        W16672  39.866  30.646   1.797
57236W        W16673  23.996  20.718  13.374
57237W        W16674  26.678   2.940   2.855
57238W        W16675  33.446  24.540  13.806
57239W        W16676  25.205   8.715  12.430
57240W        W16677  19.062   7.763  12.910
57241W        W16678  41.972  26.984  13.950
57242W        W16679  10.707  32.551   1.745
57243W        W16680  32.098  41.435   3.739
57244W        W16681  41.877  15.129  10.536
57245W        W16682  27.549  37.857   2.712
57246W        W16683  12.270  14.121   4.764
57247W        W16684  31.067   8.880   4.618
57248W        W16685  15.584  40.044  14.959
57249W        W16686  38.934  12.226  11.008
57250W        W16687  38.476   7.327   4.267
57251W        W16688  38.343  40.438   4.201
57252W        W16689  24.200  21.238  10.626
57253W        W16690  13.786  15.143   2.778
57254W        W16691  19.142  37.942  13.892
57255W        W16692  38.841  39.338   0.455
57256W        W16693   9.194   7.814  10.963
57257W        W16694   4.281  21.162   3.252
57258W        W16695  24.012  43.965  14.855
57259W        W16696  31.044  23.164  11.025
57260W        W16697  38.906  35.101  14.468
57261W        W16698   9.675  41.896  11.927
57262W        W16699  32.031  37.492   2.340
57263W        W16700  39.984   8.207  10.905
57264W        W16701   9.677   1.890   2.224
57265W        W16702  38.944  41.900   3.803
57266W        W16703   6.740  33.041  14.361
57267W        W16704  38.564   6.418  13.322
57268W        W16705  20.577  24.003  14.386
57269W        W16706  18.785  25.217   2.385
57270W        W16707  31.529   5.355  10.495
57271W        W16708   2.949  25.554  14.845
57272W        W16709   1.415   4.285  13.005
57273W        W16710  35.008  30.142  12.406
57274W        W16711  34.444  26.162  11.459
57275W        W16712  26.650  44.350  13.041
57276W        W16713  37.045   4.387  13.952
57277W        W16714  14.692  10.762  13.805
57278W        W16715  23.144  26.576   3.290
57279W        W16716   1.943  32.957  10.600
57280W        W16717  16.635   4.282  14.512
57281W        W16718  13.622  28.605   3.228
57282W        W16719  39.996   6.741  11.561
57283W        W16720  32.116  38.976   0.340
57284W        W16721  24.671   4.337   0.387
57285W        W16722  26.998  17.211   4.323
57286W        W16723  25.115  42.997   4.702
57287W        W16724  28.970  16.730   3.636
57288W        W16725  41.356  28.145   0.307
57289W        W16726  42.826  31.926  11.515
57290W        W16727  35.032  15.146  13.459
57291W        W16728  14.220  31.636  14.815
57292W        W16729  27.183   6.811   0.865
57293W        W16730   0.985   7.290   3.202
57294W        W16731  17.778  25.575  13.964
57295W        W16732  31.585  29.080  12.981
57296W        W16733  21.145  33.480   1.844
57297W        W16734  39.920  30.009   3.778
57298W        W16735  22.064  38.829  11.993
57299W        W16736  10.660  19.253  12.824
57300W        W16737  24.506  24.055   1.866
57301W        W16738  22.516  21.144   1.776
57302W        W16739  24.580   9.317   2.833
57303W        W16740   6.880  39.936  11.560
57304W        W16741   2.882   8.832   0.808
57305W        W16742  26.668  23.026   0.767
57306W        W16743   1.884   2.414  12.509
57307W        W16744  31.449  12.213   0.906
57308W        W16745  26.476  21.163   4.805
57309W        W16746  19.046  30.421  14.909
57310W        W16747  24.567  18.272   0.932
57311W        W16748  12.340  42.906   2.216
57312W        W16749  38.841  44.923  14.943
57313W        W16750  41.977  41.870   1.821
57314W        W16751   1.976  22.188  11.052
57315W        W16752  29.602  38.064  13.912
57316W        W16753   4.759  31.956   1.885
57317W        W16754  30.128  28.141   2.217
57318W        W16755  17.279  14.762  11.417
57319W        W16756  37.972  20.715   2.336
57320W        W16757  41.787  29.012   3.283
57321W        W16758  10.715   6.787   3.846
57322W        W16759  28.147  44.309  11.995
57323W        W16760  19.658  16.629  10.954
57324W        W16761  15.752  19.710  11.513
57325W        W16762  41.867  44.000  11.564
57326W        W16763  34.577  37.499   0.403
57327W        W16764  28.050  18.057   0.272
57328W        W16765  13.131  38.416   1.323
57329W        W16766  14.317  12.807  12.501
57330W        W16767  13.273  17.293  14.310
57331W        W16768  34.978   1.313   3.235
57332W        W16769  26.987  44.935  10.435
57333W        W16770  31.058   3.864   1.362
57334W        W16771   2.257  26.014   3.700
57335W        W16772  15.668  20.065  12.491
57336W        W16773   5.892  13.139  10.607
57337W        W16774  12.131  41.451  14.495
57338W        W16775   4.765  39.049  13.901
57339W        W16776   9.648  12.345   4.599
57340W        W16777  35.981   3.217  14.936
57341W        W16778  20.088   8.395   3.341
57342W        W16779  19.708   4.443  12.960
57343W        W16780  20.606  32.507   4.307
57344W        W16781   4.381   8.317   3.691
57345W        W16782  41.907   3.248   4.354
57346W        W16783  16.769   5.273   4.172
57347W        W16784  16.658  44.779   5.603
57348W        W16785   2.461  27.172  14.420
57349W        W16786  28.449  29.040  14.355
57350W        W16787  21.248  12.809   0.864
57351W        W16788   5.233  32.962   4.796
57352W        W16789  21.598  39.353  10.600
57353W        W16790  16.091  27.504   4.837
57354W        W16791   5.361  19.242  12.018
57355W        W16792  28.581  27.032   3.195
57356W        W16793  19.537  23.203  12.346
57357W        W16794  30.006  26.104   2.358
57358W        W16795  40.441  43.935  11.012
57359W        W16796  35.069  36.985  13.907
57360W        W16797  20.060  36.591  13.343
57361W        W16798  33.421  15.247  13.008
57362W        W16799  24.656  13.295   2.887
57363W        W16800   9.332  28.453   2.668
57364W        W16801  19.224  44.917  14.908
57365W        W16802  24.598   9.242   3.284
57366W        W16803  22.013  43.326   1.423
57367W        W16804  44.925  12.665  12.509
57368W        W16805  33.904  12.635   4.726
57369W        W16806   1.414  25.637  11.447
57370W        W16807   4.935  32.452  14.983
57371W        W16808  24.528  16.680   2.868
57372W        W16809  11.640  21.606   3.275
57373W        W16810   2.425  40.461   2.902
57374W        W16811   2.394  29.039   3.210
57375W        W16812   0.348   1.766   4.665
57376W        W16813   3.860  43.803   0.927
57377W        W16814   2.428  39.491   0.934
57378W        W16815  35.079   6.365   0.410
57379W        W16816  26.989   1.324   4.748
57380W        W16817  18.220   5.304  13.793
57381W        W16818  30.936  12.820   4.228
57382W        W16819   4.701  27.140  11.949
57383W        W16820   6.327  33.008   3.819
57384W        W16821  33.474  20.226   4.164
57385W        W16822   3.810  20.252  12.567
57386W        W16823   1.732  33.521  11.423
57387W        W16824   6.905  44.433   1.384
57388W        W16825   9.190  38.499   3.155
57389W        W16826  33.381  44.379   1.235
57390W        W16827  19.768   2.245  11.537
57391W        W16828  27.630  19.686   4.298
57392W        W16829  12.325   6.823  12.076
57393W        W16830  10.212   7.207   1.259
57394W        W16831  32.076  14.123  13.061
57395W        W16832   4.234  27.117   2.179
57396W        W16833  27.558   0.843  14.451
57397W        W16834  15.227  44.259   4.167
57398W        W16835   9.210  14.723  11.876
57399W        W16836  21.684   2.831  13.806
57400W        W16837  15.791  42.395   0.878
57401W        W16838  42.474  26.977   0.894
57402W        W16839  10.646  26.027  11.485
57403W        W16840  27.997  37.918   2.825
57404W        W16841  20.239  34.903  14.961
57405W        W16842   7.677  30.624   2.377
57406W        W16843   7.405  17.775  12.449
57407W        W16844  41.867  29.444  13.846
57408W        W16845   9.196  44.805   3.810
57409W        W16846   7.889  29.521   1.268
57410W        W16847   9.680  36.450   0.283
57411W        W16848  40.379  24.103  12.847
57412W        W16849  12.333   6.200   3.206
57413W        W16850   2.469  20.600   1.312
57414W        W16851  27.678   1.455  13.358
57415W        W16852   0.879  16.763   0.444
57416W        W16853   5.764  13.829  14.428
57417W        W16854   1.920  17.645  11.111
57418W        W16855  17.180  23.230  12.047
57419W        W16856  31.636   9.300   2.822
57420W        W16857  33.094  13.150  11.511
57421W        W16858   7.821  23.696   1.753
57422W        W16859  27.014   3.906  13.415
57423W        W16860  23.121  18.704  10.586
57424W        W16861  17.283   6.756  14.810
57425W        W16862  22.554   5.298   2.724
57426W        W16863  36.439  12.225   3.643
57427W        W16864   5.801  10.137  12.481
57428W        W16865  39.899  21.256  12.024
57429W        W16866  14.824  33.902  10.586
57430W        W16867  22.607  15.285   9.937
57431W        W16868  13.301  10.290   0.880
57432W        W16869  28.448   5.427   4.629
57433W        W16870  20.623  37.488   1.279
57434W        W16871   6.808  14.693   4.825
57435W        W16872  43.444  22.183  12.870
57436W        W16873  39.814   8.318   2.893
57437W        W16874  34.475  38.553  13.377
57438W        W16875  34.581  35.439   0.738
57439W        W16876   8.378  37.930  12.937
57440W        W16877  20.069  36.903   0.848
57441W        W16878   6.353   4.403   0.370
57442W        W16879  32.435  34.936  14.324
57443W        W16880   1.796   4.862   0.346
57444W        W16881  34.899  27.023   2.793
57445W        W16882  39.054  13.606   4.684
57446W        W16883  39.938  41.323  11.018
57447W        W16884  22.637   8.235   1.368
57448W        W16885   5.831  40.433  12.542
57449W        W16886  19.095  23.707   2.279
57450W        W16887  40.458  17.280   5.143
57451W        W16888   5.313  18.132   1.854
57452W        W16889  44.322  33.483  12.515
57453W        W16890  23.078  43.307  12.405
57454W        W16891  33.898  31.423  12.899
57455W        W16892  32.911  42.971   0.372
57456W        W16893  20.607  15.158   4.140
57457W        W16894  22.165  37.360   2.694
57458W        W16895  23.525  21.688  14.952
57459W        W16896   6.918  32.914  13.417
57460W        W16897  31.486   2.731  13.539
57461W        W16898  39.003   5.917  14.932
57462W        W16899  27.186  44.289   4.736
57463W        W16900  31.952  19.555   1.759
57464W        W16901   6.804  20.114  12.931
57465W        W16902  25.218  36.579  13.864
57466W        W16903  16.157  21.592  13.954
57467W        W16904  33.382  24.671  12.922
57468W        W16905  19.128  26.081  10.945
57469W        W16906  27.605  14.205  12.983
57470W        W16907   3.733  10.710  12.850
57471W        W16908  23.044   1.414   3.705
57472W        W16909  26.470  20.736   4.735
57473W        W16910   0.841  11.839   5.722
57474W        W16911  33.440  13.748  10.410
57475W        W16912  16.632  33.961  12.079
57476W        W16913   1.384  12.205  10.581
57477W        W16914  37.973  20.119   2.335
57478W        W16915   8.279   0.936  12.992
57479W        W16916  30.562   0.960   5.125
57480W        W16917  26.122  21.091   2.696
57481W        W16918  36.471  41.841  14.925
57482W        W16919  11.175  24.621   3.855
57483W        W16920  14.723  28.635  14.023
57484W        W16921  36.046  15.112  12.492
57485W        W16922  19.131  14.098   3.814
57486W        W16923  24.987  25.655  10.548
57487W        W16924  31.110  11.820   2.278
57488W        W16925   6.295   1.430   3.222
57489W        W16926   9.204  23.583   1.875
57490W        W16927   9.262   4.887  14.426
57491W        W16928  36.057  44.843   1.888
57492W        W16929   3.279  10.196   0.338
57493W        W16930  25.148   9.720  13.800
57494W        W16931  44.961  22.227   2.883
57495W        W16932  32.961  26.585  10.451
57496W        W16933  26.533  15.306   3.188
57497W        W16934  18.109  41.347  14.839
57498W        W16935  34.887   3.422   1.386
57499W        W16936  28.043  14.774   0.816
57500W        W16937  30.091  32.116   3.239
57501W        W16938  13.833  41.295   0.822
57502W        W16939  44.381  41.362   5.163
57503W        W16940  22.050   1.435   0.827
57504W        W16941  13.687  30.652   2.181
57505W        W16942   6.746  15.603   3.750
57506W        W16943   3.763  30.074   0.797
57507W        W16944  28.103   2.446  13.324
57508W        W16945   7.326  24.711   0.865
57509W        W16946  28.174  44.273   0.920
57510W        W16947   9.271   8.225   2.272
57511W        W16948  43.865  21.249   2.309
57512W        W16949  22.699  37.516   1.268
57513W        W16950  20.647  33.061   1.927
57514W        W16951  19.094  42.885  13.832
57515W        W16952  36.938  38.870  11.951
57516W        W16953  29.604  11.261   3.844
57517W        W16954   0.287  11.773   3.170
57518W        W16955  27.133   1.959  11.955
57519W        W16956  34.456  35.416   2.208
57520W        W16957  22.123  29.148   4.274
57521W        W16958  19.696  10.290  14.770
57522W        W16959  36.421  35.377  12.931
57523W        W16960  39.526   7.823  14.858
57524W        W16961  43.812   9.684   2.797
57525W        W16962  17.109   2.429   3.213
57526W        W16963  15.151  29.019  11.024
57527W        W16964  28.973   5.223  12.352
57528W        W16965  33.413  41.524   5.225
57529W        W16966  43.846  32.591   3.692
57530W        W16967   9.155  24.157   2.179
57531W        W16968  19.285  20.759   0.862
57532W        W16969  27.672  11.269   4.322
57533W        W16970  16.649   7.360  12.463
57534W        W16971  12.170   3.261   2.197
57535W        W16972  12.258   2.241   4.244
57536W        W16973  22.511  28.953  13.325
57537W        W16974  19.183  27.461  12.883
57538W        W16975   0.352  18.296  11.491
57539W        W16976  27.464   0.788  10.990
57540W        W16977  26.657  31.970   1.351
57541W        W16978  14.791  43.433  13.515
57542W        W16979   4.856  37.526  12.085
57543W        W16980  13.779  27.453   1.240
57544W        W16981  42.431  14.338   2.726
57545W        W16982  12.782  36.858  12.960
57546W        W16983   5.849  15.166  12.499
57547W        W16984  38.977  31.447  10.572
57548W        W16985  29.095  12.218   1.408
57549W        W16986  23.206   2.805   4.174
57550W        W16987  38.930  25.191   2.273
57551W        W16988  18.270  14.790   0.885
57552W        W16989   2.859  27.591   1.323
57553W        W16990  22.190  13.143  13.349
57554W        W16991  18.095   1.889  13.539
57555W        W16992  29.966   0.767  11.476
57556W        W16993  24.711   9.710   4.173
57557W        W16994  13.191  33.130   2.375
57558W        W16995  12.344  42.965   4.191
57559W        W16996  19.675  32.512   2.236
57560W        W16997   7.694  33.470  13.952
57561W        W16998  11.172   7.892   2.261
57562W        W16999  30.026   5.814  14.028
57563W        W17000  35.903  20.757  13.874
57564W        W17001   6.881  27.171  13.425
57565W        W17002  38.001  37.539   3.377
57566W        W17003  40.313  42.445  11.533
57567W        W17004  20.533  42.888   3.824
57568W        W17005   7.270  21.616  14.788
57569W        W17006  43.780  14.770   1.865
57570W        W17007  30.965  37.383   4.676
57571W        W17008   1.904  16.210   4.247
57572W        W17009  30.613  11.849  13.438
57573W        W17010  43.957   1.894   4.674
57574W        W17011  28.437  23.998  14.306
57575W        W17012  26.647  30.432  13.386
57576W        W17013  20.163  35.468  12.096
57577W        W17014   4.261  30.571  11.961
57578W        W17015  22.222   0.275   1.307
57579W        W17016  23.218  29.955  12.826
57580W        W17017  13.771   0.287   3.865
57581W        W17018   3.783   2.816  14.015
57582W        W17019   5.719  15.706  10.561
57583W        W17020  11.673  17.264  11.423
57584W        W17021  36.405  24.085  11.495
57585W        W17022  26.544   6.707  11.993
57586W        W17023  35.523   4.831   0.812
57587W        W17024   0.822  27.012  14.469
57588W        W17025  20.630  33.529   2.897
57589W        W17026  10.816  37.013   3.749
57590W        W17027  28.524  24.579  13.310
57591W        W17028  16.766  39.045  14.375
57592W        W17029  33.604  11.846   2.272
57593W        W17030  15.310  35.505  11.558
57594W        W17031  20.640   0.405   4.237
57595W        W17032  36.034  39.421   1.910
57596W        W17033  41.834  34.878   4.115
57597W        W17034  43.801   3.381   2.856
57598W        W17035  24.156  10.314   2.766
57599W        W17036   2.344  10.245  10.436
57600W        W17037   4.732  29.941   1.446
57601W        W17038  34.059  10.224  14.828
57602W        W17039  42.939   8.816  13.802
57603W        W17040  10.804  25.171  13.371
57604W        W17041  33.525  11.151   2.772
57605W        W17042  40.329  40.946   0.245
57606W        W17043   1.951  21.751   4.269
57607W        W17044  19.761  21.226  14.809
57608W        W17045  35.055  28.054  10.151
57609W        W17046  44.969  43.401   0.462
57610W        W17047  38.867  15.301  14.388
57611W        W17048  30.438  20.733   1.698
57612W        W17049  29.175   0.470  13.871
57613W        W17050  21.618  23.202  14.396
57614W        W17051  42.021  39.491  13.817
57615W        W17052  11.748  36.377  10.626
57616W        W17053  18.760   8.166  14.811
57617W        W17054  40.970  22.599   3.722
57618W        W17055  15.794   1.414   0.783
57619W        W17056  24.155   9.198   1.750
57620W        W17057   4.823  42.325   1.699
57621W        W17058  29.451   4.388  11.010
57622W        W17059  44.346  38.472  13.413
57623W        W17060  42.393   7.855   0.438
57624W        W17061  14.197  30.449  14.781
57625W        W17062  44.493  12.766   4.610
57626W        W17063  38.560   0.284   3.832
57627W        W17064  28.507  20.760   4.756
57628W        W17065  15.697   0.871   0.868
57629W        W17066  17.144   2.255   4.656
57630W        W17067  23.136   7.287  10.900
57631W        W17068  24.504  21.521   2.711
57632W        W17069  39.329  39.363  14.002
57633W        W17070   0.938  37.049   2.337
57634W        W17071  27.153  31.466  11.945
57635W        W17072  31.936   8.171   4.315
57636W        W17073  26.152  42.527   3.196
57637W        W17074  32.137  42.464   3.681
57638W        W17075  13.643  19.061   1.849
57639W        W17076   8.210  21.697  11.548
57640W        W17077  41.519  10.203  11.865
57641W        W17078   7.237  35.457  11.509
57642W        W17079  24.673  38.960  14.024
57643W        W17080  25.601  24.017   4.330
57644W        W17081   4.395   1.914   0.298
57645W        W17082  34.878  38.940   2.887
57646W        W17083  36.082  31.136   2.822
57647W        W17084  30.444  43.963   4.630
57648W        W17085  12.629  24.044   2.189
57649W        W17086   0.338  18.741  12.953
57650W        W17087   2.943  22.658  13.504
57651W        W17088  16.611  33.061   1.291
57652W        W17089   4.301  17.713   0.303
57653W        W17090  30.437  31.133   3.651
57654W        W17091  32.103  14.638  11.579
57655W        W17092  14.802   6.187  10.099
57656W        W17093   5.788  19.715  12.826
57657W        W17094  34.561   8.746  13.329
57658W        W17095  10.853  29.506   3.749
57659W        W17096  39.963  13.245  14.995
57660W        W17097  26.628   9.182  13.503
57661W        W17098  20.062  10.768   4.645
57662W        W17099  22.210  35.371  11.887
57663W        W17100  30.968  43.944   1.930
57664W        W17101   4.267   6.323  14.959
57665W        W17102  24.010  36.972  11.607
57666W        W17103   3.802  33.542  10.978
57667W        W17104  13.259   7.694   4.189
57668W        W17105  16.656  30.012   1.352
57669W        W17106  44.892  19.600   1.388
57670W        W17107  20.748   2.839  14.822
57671W        W17108  44.803   9.226  11.858
57672W        W17109  28.994  38.332  10.561
57673W        W17110   4.854  12.355  13.484
57674W        W17111  31.940   2.850  14.278
57675W        W17112  43.466  10.353   3.264
57676W        W17113  41.422   1.320  14.953
57677W        W17114  38.891  14.178  10.564
57678W        W17115  15.688   8.744  12.516
57679W        W17116  33.965  22.103   0.369
57680W        W17117  39.832  15.630   2.873
57681W        W17118  18.723   6.876   1.777
57682W        W17119  15.806  35.900  12.975
57683W        W17120  31.050  36.350   3.771
57684W        W17121  10.802  27.495  10.578
57685W        W17122  32.436   7.311   0.400
57686W        W17123   1.339   6.365  11.541
57687W        W17124  16.638  17.304   5.156
57688W        W17125  44.419   8.700   5.303
57689W        W17126  12.788   0.982   4.707
57690W        W17127  35.085  20.053   4.666
57691W        W17128   5.733  35.441  14.005
57692W        W17129  32.962  34.956  12.029
57693W        W17130  16.746  37.052   1.333
57694W        W17131  28.473  30.470   1.884
57695W        W17132  28.549  14.115  11.438
57696W        W17133  37.545  22.651   0.826
57697W        W17134  32.124  36.576   3.723
57698W        W17135  39.395  26.002   4.271
57699W        W17136  27.955  35.586   1.726
57700W        W17137  11.825  13.206  12.427
57701W        W17138  15.578  36.500   2.360
57702W        W17139  10.149  14.265  10.565
57703W        W17140  31.075  33.531   1.889
57704W        W17141  16.717  25.023   3.239
57705W        W17142  37.400  29.625   0.943
57706W        W17143  23.524  44.451   3.167
57707W        W17144  37.891  31.075  12.038
57708W        W17145  30.144  22.177   4.128
57709W        W17146  11.700  19.604  11.865
57710W        W17147  35.052  13.223  13.393
57711W        W17148   3.420   9.296  13.901
57712W        W17149  16.309  22.997  11.504
57713W        W17150  19.212  22.668  11.943
57714W        W17151   1.745  18.738   4.226
57715W        W17152  30.606  28.571   3.239
57716W        W17153  35.921   2.247   3.662
57717W        W17154  42.997  37.504   5.191
57718W        W17155  44.802  40.417  14.855
57719W        W17156  43.919   4.852  11.396
57720W        W17157  31.898   8.837   4.190
57721W        W17158   2.738  38.063  13.343
57722W        W17159  44.787  16.218  13.504
57723W        W17160  19.152  33.022  14.516
57724W        W17161  16.136  23.200   2.202
57725W        W17162  27.039  26.563  12.448
57726W        W17163  12.257  15.694   2.890
57727W        W17164   8.251   7.861   1.304
57728W        W17165  32.139  13.706   0.391
57729W        W17166  40.806   1.474   0.904
57730W        W17167  14.108   8.673   4.203
57731W        W17168  22.531  35.484   2.341
57732W        W17169   2.284  30.127  10.622
57733W        W17170  34.898   1.393   3.751
57734W        W17171  43.783  11.691   3.797
57735W        W17172  15.687   1.790  13.023
57736W        W17173  13.307   1.448   4.171
57737W        W17174  42.383   9.852   3.160
57738W        W17175  41.456  28.956  12.067
57739W        W17176  29.000   3.886  14.333
57740W        W17177  20.246  25.127  11.993
57741W        W17178  14.813  13.310   4.751
57742W        W17179  37.439   5.869  10.973
57743W        W17180  25.563  22.501   1.925
57744W        W17181  12.351  20.561   2.796
57745W        W17182  12.726  22.108   0.347
57746W        W17183  37.509  20.535   4.675
57747W        W17184   1.964  14.620   4.324
57748W        W17185  31.001   9.871  13.413
57749W        W17186  17.173  36.081  14.354
57750W        W17187  44.328  14.158   1.416
57751W        W17188  30.972   8.367  12.963
57752W        W17189   3.378   7.806  14.312
57753W        W17190  43.305  34.042   4.195
57754W        W17191  33.090  16.707   3.171
57755W        W17192  12.210  44.799  14.904
57756W        W17193  35.020  22.650   4.637
57757W        W17194  16.762  22.081  11.514
57758W        W17195  10.740  30.505   1.377
57759W        W17196   7.236  20.059   1.225
57760W        W17197  37.010  32.996  14.337
57761W        W17198  36.983  25.096  11.956
57762W        W17199  41.376  26.013  11.107
57763W        W17200  27.557  20.600   2.688
57764W        W17201  42.426   5.815   1.816
57765W        W17202  15.776  14.683   0.372
57766W        W17203   6.768  33.413   3.385
57767W        W17204   2.815  25.470   3.228
57768W        W17205  26.180  20.190  11.965
57769W        W17206  43.803   5.817  11.004
57770W        W17207  38.443  19.722   0.894
57771W        W17208  26.147  43.993   2.700
57772W        W17209   1.896  15.178   5.312
57773W        W17210   0.340  15.221   3.259
57774W        W17211  43.859  38.852   0.875
57775W        W17212  33.956  41.444  12.475
57776W        W17213  17.736  10.761   4.768
57777W        W17214  16.202   0.403   2.321
57778W        W17215  39.945  30.624  10.573
57779W        W17216  44.855   5.919   2.416
57780W        W17217   1.260   0.975   4.234
57781W        W17218   2.771  27.165  12.347
57782W        W17219  13.769   2.852  11.977
57783W        W17220   2.942  10.242   4.248
57784W        W17221   7.910  25.010   2.802
57785W        W17222  17.800  13.704   2.882
57786W        W17223  15.755  27.598  12.460
57787W        W17224  20.080  13.738  11.411
57788W        W17225  31.505  37.024  13.312
57789W        W17226  29.520  30.015  14.860
57790W        W17227   8.327  39.412   0.762
57791W        W17228  44.918  21.544   2.179
57792W        W17229  28.058  14.692   2.321
57793W        W17230  44.918   6.238  11.489
57794W        W17231  31.138  25.587  13.061
57795W        W17232   2.803   2.259  10.939
57796W        W17233  39.403   5.877   1.256
57797W        W17234   6.201  24.209  13.895
57798W        W17235  42.801  24.058  14.495
57799W        W17236  35.410   9.712   0.764
57800W        W17237  30.475  14.336   5.258
57801W        W17238  26.614  30.066   1.894
57802W        W17239  37.020  32.567  12.880
57803W        W17240  41.322  37.399  14.973
57804W        W17241  41.436  11.203   3.634
57805W        W17242   3.929   0.318   0.777
57806W        W17243  36.852  13.768   2.665
57807W        W17244   2.911  29.094   4.144
57808W        W17245  37.565  11.829   3.202
57809W        W17246  15.785  34.589   2.730
57810W        W17247  29.473   0.275  12.003
57811W        W17248  24.058  29.125  13.845
57812W        W17249  19.554  15.731  11.883
57813W        W17250  28.129  43.888   0.317
57814W        W17251  30.430  43.307   4.642
57815W        W17252  30.556   8.393  11.999
57816W        W17253  28.181  32.985  11.494
57817W        W17254  42.361  28.567  13.956
57818W        W17255  42.947  34.419  13.352
57819W        W17256  22.566   4.778   4.156
57820W        W17257  13.828  22.116  12.409
57821W        W17258   6.895   0.880  11.886
57822W        W17259  15.582  42.923  12.443
57823W        W17260  30.927   1.942   2.856
57824W        W17261  18.143   9.845   3.842
57825W        W17262  26.183  42.328   2.869
57826W        W17263  15.703  33.959   1.753
57827W        W17264  27.688  39.920  10.910
57828W        W17265   1.419  43.289  12.933
57829W        W17266  32.453  32.439  12.547
57830W        W17267   1.774  28.120   0.843
57831W        W17268   5.749  19.254  12.942
57832W        W17269   6.280  27.652   5.616
57833W        W17270  21.514  11.677  10.614
57834W        W17271  39.355  37.421  13.810
57835W        W17272  15.201  10.699   4.716
57836W        W17273  26.460   3.908  14.859
57837W        W17274  41.954  16.253   4.737
57838W        W17275  32.484  17.277   1.765
57839W        W17276  43.395  37.001   3.180
57840W        W17277  27.600   8.870  11.940
57841W        W17278   4.738  37.086  13.541
57842W        W17279  21.085   0.757  10.985
57843W        W17280   0.791  14.826  14.865
57844W        W17281  30.551  35.552  13.397
57845W        W17282  20.263   7.358  11.453
57846W        W17283  33.556  33.453   5.113
57847W        W17284  11.657  35.565   4.159
57848W        W17285  10.219  31.552   9.954
57849W        W17286   2.904   2.923  10.496
57850W        W17287  34.985  19.721   0.846
57851W        W17288  42.385  13.241  13.931
57852W        W17289   6.215  16.297   2.704
57853W        W17290  33.602  43.017   3.252
57854W        W17291  38.498  31.439   4.695
57855W        W17292  13.122  28.481  12.558
57856W        W17293  12.676  39.975   5.580
57857W        W17294  17.229   8.761  13.906
57858W        W17295  35.447   2.859  14.936
57859W        W17296  16.193  13.784   2.388
57860W        W17297   8.332  37.084   4.683
57861W        W17298   7.375  27.596  10.018
57862W        W17299  22.021  22.515   2.405
57863W        W17300  16.268  36.453   0.749
57864W        W17301  24.214   4.720  13.013
57865W        W17302  32.533  32.022  13.410
57866W        W17303   1.923  36.485  13.822
57867W        W17304   9.159   9.834  13.482
57868W        W17305  27.139  37.510  12.009
57869W        W17306  16.680  32.405  14.861
57870W        W17307   8.806   5.267   4.652
57871W        W17308   5.252  19.150  10.499
57872W        W17309   5.796   6.864  10.551
57873W        W17310  15.723  38.400   0.730
57874W        W17311  17.677  35.602   3.381
57875W        W17312  42.405  20.621   3.745
57876W        W17313  44.403  41.375   3.818
57877W        W17314  13.625  30.570   3.727
57878W        W17315  33.047  37.046  10.077
57879W        W17316  36.921  18.271   3.242
57880W        W17317  41.915  34.991  12.977
57881W        W17318  29.663  19.142   4.223
57882W        W17319  40.418  39.008  14.769
57883W        W17320   4.334   0.919  11.446
57884W        W17321   3.934  14.659  10.956
57885W        W17322  13.819   3.733   1.258
57886W        W17323   9.780   7.907  14.289
57887W        W17324  30.947  16.274  11.381
57888W        W17325   7.805  13.675  11.407
57889W        W17326   6.372  32.022  12.094
57890W        W17327  32.928  43.511  14.349
57891W        W17328   3.246   8.385  11.939
57892W        W17329   3.808   7.361  11.119
57893W        W17330  44.784  28.495  13.431
57894W        W17331  10.163  43.814   2.384
57895W        W17332  13.699  14.708  11.120
57896W        W17333   3.903  23.987  13.510
57897W        W17334  25.057  18.547   0.773
57898W        W17335  10.317  25.610  14.288
57899W        W17336   2.457  12.647   0.452
57900W        W17337   3.439  12.322  14.880
57901W        W17338  44.870  42.387   1.856
57902W        W17339  44.928  39.528   3.377
57903W        W17340  40.870  34.877   0.807
57904W        W17341  22.198  20.118  14.944
57905W        W17342  14.751   3.857  13.413
57906W        W17343  29.043  37.957  12.069
57907W        W17344  39.838  37.487   0.736
57908W        W17345  17.715  17.748   1.432
57909W        W17346  13.164  22.088  10.635
57910W        W17347  34.522  40.031  10.116
57911W        W17348   8.662  13.712  10.889
57912W        W17349  27.069  34.035  11.062
57913W        W17350  19.662  13.828  12.842
57914W        W17351  30.979  44.385   4.184
57915W        W17352  22.999  20.091  10.433
57916W        W17353   3.932  37.044  11.546
57917W        W17354  34.469  35.870   1.304
57918W        W17355  28.643  13.172   4.262
57919W        W17356  13.769   6.421  14.363
57920W        W17357  24.205  30.434   0.438
57921W        W17358   5.361  16.235  13.516
57922W        W17359  19.779   5.827   4.119
57923W        W17360   7.719   1.966  11.087
57924W        W17361  16.096  17.269   2.218
57925W        W17362  38.853   1.880   2.698
57926W        W17363  36.969   3.940  13.477
57927W        W17364  19.612  15.270   2.239
57928W        W17365  20.098  30.114   4.304
57929W        W17366  19.741   7.682   1.227
57930W        W17367  16.315  31.578  12.031
57931W        W17368  14.308   8.247   3.682
57932W        W17369  10.248  44.959   2.832
57933W        W17370  29.519  15.666   1.885
57934W        W17371  11.683  11.350  12.996
57935W        W17372  44.437  20.228   1.256
57936W        W17373  23.227   4.868   0.807
57937W        W17374  14.233  24.036  12.010
57938W        W17375  30.632   0.425   0.328
57939W        W17376  38.523  27.950   1.727
57940W        W17377  30.659  38.857   1.267
57941W        W17378  19.719  35.950   3.228
57942W        W17379   4.848  38.963   1.912
57943W        W17380  26.083  22.741  14.353
57944W        W17381  24.567   6.356  10.966
57945W        W17382  16.090   4.852  11.394
57946W        W17383   7.707  24.712   4.744
57947W        W17384  35.508   9.836  12.456
57948W        W17385  17.193   4.370   4.157
57949W        W17386  11.866  12.360   2.813
57950W        W17387  34.534  25.486   1.761
57951W        W17388  15.096  42.296   2.675
57952W        W17389  22.727  17.756  10.066
57953W        W17390   1.473  16.654  11.565
57954W        W17391  20.567   2.742  11.511
57955W        W17392  34.509   9.835   1.745
57956W        W17393  11.132  41.912  11.527
57957W        W17394  38.542  39.415   0.948
57958W        W17395  11.189  28.947  11.072
57959W        W17396  31.990   9.757  12.367
57960W        W17397  24.576  17.586  13.854
57961W        W17398  29.519  30.005   4.821
57962W        W17399   0.763  16.658   3.782
57963W        W17400  26.096  14.689   2.375
57964W        W17401  31.938   0.810   2.714
57965W        W17402  32.599  26.528   3.642
57966W        W17403  16.619  29.514   4.300
57967W        W17404  33.889   3.794  11.393
57968W        W17405   9.339  16.707  12.383
57969W        W17406  36.517  39.876  14.482
57970W        W17407  17.293   3.317  13.811
57971W        W17408  24.079  41.974  11.070
57972W        W17409  16.741  37.944   4.217
57973W        W17410  12.824  29.070  13.408
57974W        W17411  36.852  41.369  14.946
57975W        W17412  28.554  11.309  12.473
57976W        W17413  23.044  43.839  10.455
57977W        W17414  21.650  35.027  13.509
57978W        W17415  16.668  21.692  10.511
57979W        W17416   4.354  27.060  13.905
57980W        W17417  41.428  14.770  14.840
57981W        W17418  17.588  18.158  12.919
57982W        W17419   2.732  35.566   0.327
57983W        W17420  41.425   9.779  13.377
57984W        W17421  19.090  10.853   3.684
57985W        W17422  31.458  12.802  10.606
57986W        W17423  18.665  19.758  12.974
57987W        W17424   1.968   6.252   0.941
57988W        W17425  19.250  13.716   3.337
57989W        W17426  28.151   5.291   1.887
57990W        W17427   5.906  27.481   1.865
57991W        W17428  26.072  22.184   4.695
57992W        W17429  27.509  15.754  13.845
57993W        W17430  18.742  37.393  14.842
57994W        W17431  15.105  33.074   4.242
57995W        W17432  29.668  40.894   4.265
57996W        W17433  36.404   0.398   2.793
57997W        W17434  40.483  24.577  13.897
57998W        W17435  26.094  16.798   4.782
57999W        W17436   0.965  28.560   1.311
58000W        W17437  14.111  19.220   0.806
58001W        W17438  44.981  30.468  14.030
58002W        W17439  17.565   8.842   0.938
58003W        W17440   0.315  29.656  13.893
58004W        W17441  42.503  32.567   1.877
58005W        W17442  44.319  41.991  13.496
58006W        W17443  14.623  26.203   1.253
58007W        W17444   0.480  37.536  13.346
58008W        W17445  27.452  39.833   0.917
58009W        W17446  44.374   4.325   0.473
58010W        W17447  18.166  27.533   3.347
58011W        W17448  21.683   3.796  13.845
58012W        W17449   8.291  39.917  13.333
58013W        W17450   1.909   2.917  11.900
58014W        W17451  11.145  15.168  13.843
58015W        W17452  23.608  17.723   2.724
58016W        W17453  36.505  30.578   5.167
58017W        W17454  39.047  31.450  11.993
58018W        W17455  44.391  44.764  12.530
58019W        W17456   7.249  25.010  13.463
58020W        W17457   8.175  33.970   0.301
58021W        W17458  11.365  16.127  13.046
58022W        W17459   5.911   0.789   1.927
58023W        W17460  30.058  33.049  13.812
58024W        W17461  13.228   9.752   4.118
58025W        W17462  31.474  23.502   2.672
58026W        W17463  34.070   9.701  10.941
58027W        W17464   4.289  19.727   4.264
58028W        W17465  17.251  18.076  10.930
58029W        W17466  44.965  16.238  12.955
58030W        W17467   6.220   8.323   1.258
58031W        W17468  20.214  27.076  12.029
58032W        W17469  16.268  42.855   4.683
58033W        W17470  30.542  33.504   4.324
58034W        W17471   2.344  13.322  12.055
58035W        W17472  16.681  26.155   1.414
58036W        W17473  16.251  40.545   0.913
58037W        W17474   8.259  29.506  11.374
58038W        W17475  30.129   5.845  11.957
58039W        W17476  43.504  33.897   3.189
58040W        W17477  31.618  30.065   1.258
58041W        W17478  33.082  25.049   1.289
58042W        W17479  39.404  15.203  11.594
58043W        W17480  41.871  31.913  10.476
58044W        W17481   2.795   3.345   1.848
58045W        W17482   5.798  28.438   3.262
58046W        W17483  17.301  29.505   1.893
58047W        W17484  40.450   0.815   3.250
58048W        W17485  10.782  32.028   3.716
58049W        W17486  18.291   4.273  13.835
58050W        W17487  16.777  37.848  11.911
58051W        W17488  21.523  35.481   1.720
58052W        W17489  31.061  43.283  10.554
58053W        W17490   8.397  26.175   3.729
58054W        W17491  16.221  10.253   0.963
58055W        W17492   2.776  34.003  14.826
58056W        W17493  26.053   5.834   4.679
58057W        W17494   1.408  41.423   4.353
58058W        W17495  43.899  12.235  14.030
58059W        W17496   6.200  15.784  14.781
58060W        W17497  27.114  21.067  12.360
58061W        W17498   1.819  16.628   2.308
58062W        W17499  24.052   0.905   3.176
58063W        W17500  40.011  24.536   3.753
58064W        W17501  27.565  43.873  14.462
58065W        W17502  31.086  35.394   0.806
58066W        W17503   3.385  34.460  10.092
58067W        W17504  25.591  32.097   2.417
58068W        W17505   5.870  37.010  10.632
58069W        W17506  33.477  27.623  13.456
58070W        W17507   6.314  25.615   1.858
58071W        W17508  37.408   0.815  14.012
58072W        W17509   1.472  39.993  12.066
58073W        W17510  41.472   2.900  14.486
58074W        W17511  33.974  14.134   0.918
58075W        W17512  39.044   0.944   4.184
58076W        W17513  36.877  30.949  14.861
58077W        W17514  39.474  12.638   2.784
58078W        W17515   3.794  20.058   3.774
58079W        W17516  25.484   5.781   0.859
58080W        W17517  40.307  25.018  14.968
58081W        W17518  26.514  35.377   5.215
58082W        W17519  44.419  42.372  11.554
58083W        W17520  24.626   2.917  11.027
58084W        W17521  19.689  40.370  14.994
58085W        W17522  37.460  38.492   0.802
58086W        W17523   7.885  23.489   4.346
58087W        W17524   6.190  35.502   4.245
58088W        W17525   0.847  31.415  14.408
58089W        W17526  37.353  40.466   3.213
58090W        W17527  26.560  42.987  11.902
58091W        W17528  27.019  29.047   0.322
58092W        W17529  11.320  15.656  12.004
58093W        W17530  35.421   0.970   0.875
58094W        W17531  16.672  17.297   9.519
58095W        W17532  14.801  14.277   1.786
58096W        W17533   0.752  44.405  14.002
58097W        W17534   0.875  18.125   1.382
58098W        W17535  41.009  38.063   5.158
58099W        W17536  42.444  21.662  12.462
58100W        W17537   0.376  11.140   1.288
58101W        W17538  18.790  25.127   3.665
58102W        W17539  38.862  23.546  13.506
58103W        W17540  38.556  40.359  13.539
58104W        W17541  42.837  31.633   1.785
58105W        W17542  29.475  11.164  13.832
58106W        W17543  22.130  26.592   3.244
58107W        W17544  33.121  15.186  11.444
58108W        W17545   0.774  33.517  11.380
58109W        W17546  30.164  34.112   3.299
58110W        W17547   4.787  33.011   0.808
58111W        W17548  17.706  26.648   1.717
58112W        W17549  25.623   4.345  10.505
58113W        W17550  10.876  16.312  14.015
58114W        W17551  19.579  10.862   1.407
58115W        W17552   1.848  41.317   1.248
58116W        W17553  21.202  38.898  13.885
58117W        W17554  42.460  35.877   1.368
58118W        W17555  34.980  16.311   4.126
58119W        W17556   5.780  20.215   3.856
58120W        W17557  41.376  11.322   2.399
58121W        W17558  16.293  19.194   1.834
58122W        W17559  38.404  34.899  14.410
58123W        W17560   6.846  24.980  14.322
58124W        W17561  19.547   0.347  14.509
58125W        W17562  42.345  30.110  10.627
58126W        W17563  36.983  37.072  12.946
58127W        W17564   3.423   8.689   4.755
58128W        W17565  14.770   3.453   5.240
58129W        W17566  17.215  26.543   4.686
58130W        W17567  26.113   3.928  13.465
58131W        W17568   3.907  41.504  12.858
58132W        W17569  25.144   2.964  10.445
58133W        W17570  22.698  11.303   1.764
58134W        W17571  27.988   4.309  13.485
58135W        W17572  31.482   4.349   0.475
58136W        W17573   6.724  23.736  14.440
58137W        W17574   5.698  23.710  13.453
58138W        W17575   0.943  42.843   5.293
58139W        W17576  31.110   3.278   4.657
58140W        W17577  23.202   0.946  13.511
58141W        W17578   1.969  11.193  11.544
58142W        W17579  13.830  31.105   1.862
58143W        W17580  31.464  30.121  11.127
58144W        W17581  12.770  32.531   1.822
58145W        W17582  42.417  42.931   1.872
58146W        W17583  39.398  13.715   4.289
58147W        W17584  43.433   6.768   0.825
58148W        W17585  26.551  34.871   4.244
58149W        W17586  29.100  30.542  14.807
58150W        W17587  22.141   9.331  14.781
58151W        W17588  35.378  40.877   3.292
58152W        W17589  10.785  12.172   1.407
58153W        W17590  15.789  24.018   1.812
58154W        W17591   0.257  15.760  12.904
58155W        W17592  15.713  42.983  13.401
58156W        W17593   1.327   0.414  12.863
58157W        W17594  28.067  44.812   2.787
58158W        W17595   9.756   7.747   3.263
58159W        W17596  14.794  42.512   0.481
58160W        W17597   1.250  34.498   2.404
58161W        W17598  11.693   2.293   4.148
58162W        W17599  20.690   8.240  13.400
58163W        W17600  28.039   3.885   4.167
58164W        W17601  41.294  16.154   4.831
58165W        W17602  35.466  39.942   1.715
58166W        W17603  15.110  26.664   1.303
58167W        W17604  34.534  20.747  12.969
58168W        W17605   1.374  44.450   3.190
58169W        W17606  10.747  10.799  11.097
58170W        W17607  29.450  34.914  12.906
58171W        W17608  12.170   4.878   2.328
58172W        W17609   6.367   7.340   3.158
58173W        W17610  13.763  21.138  10.592
58174W        W17611  41.866   4.930  13.836
58175W        W17612  23.048  23.655   1.790
58176W        W17613   6.828   5.796  12.570
58177W        W17614  28.162  30.429  10.927
58178W        W17615  39.356  28.962  11.573
58179W        W17616   2.967  42.299   2.875
58180W        W17617  23.133  35.024   0.923
58181W        W17618  19.558  25.097  14.501
58182W        W17619   3.224   8.731   0.292
58183W        W17620  16.611  38.067   0.738
58184W        W17621   4.898  33.609  10.563
58185W        W17622   6.860  33.087  14.884
58186W        W17623  31.565  22.637   0.356
58187W        W17624   3.864  13.754   3.853
58188W        W17625  19.229  35.090  11.561
58189W        W17626   2.767   6.766   4.644
58190W        W17627  35.398  19.626  14.802
58191W        W17628   5.367   0.811  13.508
58192W        W17629  22.023  21.212   9.965
58193W        W17630  29.937   4.720   3.727
58194W        W17631  29.107   0.330  12.950
58195W        W17632  28.491  39.849  11.421
58196W        W17633  28.929  12.172   2.840
58197W        W17634  16.611  38.367  12.950
58198W        W17635  18.613  34.577   0.852
58199W        W17636  35.870   7.324  13.378
58200W        W17637  19.112  15.791   0.474
58201W        W17638  37.082  34.456  12.491
58202W        W17639  18.745  32.953   0.454
58203W        W17640  22.212  29.120   0.869
58204W        W17641  16.079  44.797  12.903
58205W        W17642  16.569  15.113   1.240
58206W        W17643   4.888   7.837   2.414
58207W        W17644   1.868  34.916  10.471
58208W        W17645  31.429   9.786   3.822
58209W        W17646  27.634  27.664   2.179
58210W        W17647   0.982  32.968   4.837
58211W        W17648  40.892  20.537   0.398
58212W        W17649  29.574  19.277   4.783
58213W        W17650  33.933   2.837  12.859
58214W        W17651  31.584   2.353  12.030
58215W        W17652   5.381  28.038  13.796
58216W        W17653  23.505  40.444   1.935
58217W        W17654  26.609   8.802   2.837
58218W        W17655  17.703  12.655  10.888
58219W        W17656  32.019   0.410   0.902
58220W        W17657  11.852   7.684   2.271
58221W        W17658  33.568  29.433  11.873
58222W        W17659  42.482   4.791   3.865
58223W        W17660  34.591   6.250   1.927
58224W        W17661  36.044  37.438  13.516
58225W        W17662  34.531  39.814  13.975
58226W        W17663  36.949  43.939  12.017
58227W        W17664   2.883  22.581   0.828
58228W        W17665  43.495  32.437   0.732
58229W        W17666  22.252  24.598   1.281
58230W        W17667  20.741   8.667   0.907
58231W        W17668  22.079  40.503  14.019
58232W        W17669  30.097  20.731   3.855
58233W        W17670  27.174  13.821  11.055
58234W        W17671  23.187  25.468  14.411
58235W        W17672  12.750  13.685  12.343
58236W        W17673  25.708  36.459  14.343
58237W        W17674  16.310  31.489  13.055
58238W        W17675   9.250  15.623   0.264
58239W        W17676  11.311  43.513  11.017
58240W        W17677  11.640   0.333   1.704
58241W        W17678  33.530  35.060   1.224
58242W        W17679  24.992  17.200  10.535
58243W        W17680  14.284  15.639   0.868
58244W        W17681   5.829  41.507   1.315
58245W        W17682   1.750  24.982  10.000
58246W        W17683  24.063   8.397  12.877
58247W        W17684  39.948   5.261   1.723
58248W        W17685   5.793  14.640  13.474
58249W        W17686  24.677   4.277   3.791
58250W        W17687  19.086  18.716  10.478
58251W        W17688  21.688  32.632   4.622
58252W        W17689  24.213  39.434  13.479
58253W        W17690  10.164   4.208  10.461
58254W        W17691  20.608  13.657  12.077
58255W        W17692  36.366  31.609  12.526
58256W        W17693   1.308  43.914  13.861
58257W        W17694   1.370   4.217  11.014
58258W        W17695  39.870  17.595  11.506
58259W        W17696  22.029   8.756   4.338
58260W        W17697  24.034  38.523   0.411
58261W        W17698  40.940   1.424  11.857
58262W        W17699  20.546   6.279   4.222
58263W        W17700  43.792  20.526   3.272
58264W        W17701   7.818  26.470   1.290
58265W        W17702  15.690  28.523  11.911
58266W        W17703  14.718  11.208  14.299
58267W        W17704  23.226   1.943   0.948
58268W        W17705  13.142  26.477   4.350
58269W        W17706  33.101  12.274  11.477
58270W        W17707  41.343  17.722  12.455
58271W        W17708  13.345  15.147   3.708
58272W        W17709  30.015  38.508   2.824
58273W        W17710   2.255  35.991  12.094
58274W        W17711  22.171  17.676   5.662
58275W        W17712   3.450  18.724   3.186
58276W        W17713  27.162  44.866  14.028
58277W        W17714  41.910  29.000  13.947
58278W        W17715  39.947   6.790  12.947
58279W        W17716  35.023  22.629  10.536
58280W        W17717  31.055  10.331   4.744
58281W        W17718  32.075  34.887   4.795
58282W        W17719  41.406  18.089   2.401
58283W        W17720  44.912   0.940   1.917
58284W        W17721  13.706  36.005  13.056
58285W        W17722  20.738   2.960   2.336
58286W        W17723  17.759  15.782  14.499
58287W        W17724  44.825  17.253   3.383
58288W        W17725  35.458   4.785   2.404
58289W        W17726   8.358  14.834   0.325
58290W        W17727   8.688  34.969   2.665
58291W        W17728  33.966  39.038   1.251
58292W        W17729  29.066  42.980   3.863
58293W        W17730  25.116   3.852   2.342
58294W        W17731  10.824  40.540   2.701
58295W        W17732  36.547   5.871   0.744
58296W        W17733  25.543  32.459   0.288
58297W        W17734  30.633  34.043  10.502
58298W        W17735  38.857  20.107  14.308
58299W        W17736  18.588  29.656   4.281
58300W        W17737  23.692  28.958   1.870
58301W        W17738  14.604  41.377   4.126
58302W        W17739  28.148  12.745   2.364
58303W        W17740   6.789   0.313   0.752
58304W        W17741  41.805   8.887   3.741
58305W        W17742  35.012  34.947   1.755
58306W        W17743  27.609  42.787   2.201
58307W        W17744  32.562  25.106   3.302
58308W        W17745  12.214  18.746   4.821
58309W        W17746  20.064   4.208  11.089
58310W        W17747   2.925  21.095  12.424
58311W        W17748   3.723   5.820  13.469
58312W        W17749  12.282  41.341   4.831
58313W        W17750  42.816  40.044   4.337
58314W        W17751  39.856  17.243   3.755
58315W        W17752  21.756  11.336  14.008
58316W        W17753  14.702  20.645   2.842
58317W        W17754  23.224  30.053   4.788
58318W        W17755  37.909   5.274   4.720
58319W        W17756  36.035  33.501  11.600
58320W        W17757  29.645   9.772  14.986
58321W        W17758   3.431   2.238  11.855
58322W        W17759  36.043   0.469  13.436
58323W        W17760  28.061  20.602  12.049
58324W        W17761   3.866   0.855   2.842
58325W        W17762  34.078  34.517   4.175
58326W        W17763  29.621  32.408   4.152
58327W        W17764  23.549  44.779  12.512
58328W        W17765  26.196  38.342   0.853
58329W        W17766  27.599   9.681   0.941
58330W        W17767  10.224  32.477   4.132
58331W        W17768  26.987   3.257   2.416
58332W        W17769  19.249   6.238   3.675
58333W        W17770   9.245  15.156  14.449
58334W        W17771   2.873   4.805   4.284
58335W        W17772  24.503  38.820   3.691
58336W        W17773  34.377  17.088  13.374
58337W        W17774  30.141  30.976  13.046
58338W        W17775   0.254  38.988  11.989
58339W        W17776  39.321  38.865  14.887
58340W        W17777   3.802  20.114   2.309
58341W        W17778  23.038  19.187  10.988
58342W        W17779  43.955  15.223   4.325
58343W        W17780   6.877  29.491  11.036
58344W        W17781   9.757  15.290  12.059
58345W        W17782  12.292   7.884   0.759
58346W        W17783  24.055  31.941  10.109
58347W        W17784  30.505  38.478  12.022
58348W        W17785  43.851   7.788  13.898
58349W        W17786  11.721  26.636  11.875
58350W        W17787  31.420  40.318   1.333
58351W        W17788  27.983  15.710  12.826
58352W        W17789  41.400  17.183   0.329
58353W        W17790   7.827  31.618   1.897
58354W        W17791   3.745  38.061  11.917
58355W        W17792  30.440  28.029  13.795
58356W        W17793  17.711  36.583  10.522
58357W        W17794   4.364  10.780  10.560
58358W        W17795  17.146  34.863  13.959
58359W        W17796  16.272   7.805   3.323
58360W        W17797  20.644  22.734   1.448
58361W        W17798  39.491   8.406   1.790
58362W        W17799  12.810   8.869   3.810
58363W        W17800  24.502  15.668  10.587
58364W        W17801  23.731  31.060   2.878
58365W        W17802   1.871  32.594  14.356
58366W        W17803   8.702  10.236   2.277
58367W        W17804  21.089  38.510  12.832
58368W        W17805  10.275  38.418  12.435
58369W        W17806   0.342  27.080  12.522
58370W        W17807  29.478  39.461   2.687
58371W        W17808  35.906  20.710  12.507
58372W        W17809  35.548  25.092   1.244
58373W        W17810  27.984  36.400   0.302
58374W        W17811  13.134  19.608   4.714
58375W        W17812  41.013  27.090   3.800
58376W        W17813  29.056  32.068   1.213
58377W        W17814  29.132  40.923  12.992
58378W        W17815  20.263  44.477   2.218
58379W        W17816  24.048   0.286   4.725
58380W        W17817  18.597   8.229  12.054
58381W        W17818  18.660  29.483   3.652
58382W        W17819  13.613   1.908  13.436
58383W        W17820  28.639  41.316  10.527
58384W        W17821  11.783  32.941  11.486
58385W        W17822  30.030  11.346  13.512
58386W        W17823  30.931  31.503  12.828
58387W        W17824  34.396  22.054   2.202
58388W        W17825  34.098  21.557  10.097
58389W        W17826  35.471  10.688  14.322
58390W        W17827   4.369  30.159  13.367
58391W        W17828  27.524  36.031  14.914
58392W        W17829  38.463  17.099   3.802
58393W        W17830  31.425  25.598   3.640
58394W        W17831   8.346   7.191  12.893
58395W        W17832  34.894  36.985   2.865
58396W        W17833  11.816  40.307   3.369
58397W        W17834   2.750   7.377   3.666
58398W        W17835  38.464  33.563   3.326
58399W        W17836  25.491   9.391  12.964
58400W        W17837  38.010   9.811  10.903
58401W        W17838  13.651   0.821   0.265
58402W        W17839  28.122   8.870  13.393
58403W        W17840  38.567   4.315  13.844
58404W        W17841  31.523  43.799   0.893
58405W        W17842  17.673  13.843   1.223
58406W        W17843  15.822   7.257   0.898
58407W        W17844   5.789  10.733   0.837
58408W        W17845   4.402   4.822   1.253
58409W        W17846   4.284  21.667   2.388
58410W        W17847   9.801  18.121  14.485
58411W        W17848  35.465  16.643  14.914
58412W        W17849  31.004   4.449  13.895
58413W        W17850  17.178  44.388   1.315
58414W        W17851  11.821  36.505  14.389
58415W        W17852  44.503  10.288  12.860
58416W        W17853  29.021   5.251  10.410
58417W        W17854   0.822  28.098  11.096
58418W        W17855  34.003  29.468   2.889
58419W        W17856   1.475  10.340   4.640
58420W        W17857  15.153  17.064  12.523
58421W        W17858  28.060  42.947  14.955
58422W        W17859  32.478  30.658  10.480
58423W        W17860  35.534  34.396  10.446
58424W        W17861  42.876   7.839   2.245
58425W        W17862  42.813   4.755  12.370
58426W        W17863  20.162  28.992  10.074
58427W        W17864   8.355  32.123  14.842
58428W        W17865  14.801  32.509   2.318
58429W        W17866  14.163  38.014  10.945
58430W        W17867  30.517  19.084   1.340
58431W        W17868  44.492  22.505  14.368
58432W        W17869  16.601  16.581   4.785
58433W        W17870  14.675   3.865  11.997
58434W        W17871   4.944  28.615  14.938
58435W        W17872  23.535  24.618   9.928
58436W        W17873   1.341  28.665  13.356
58437W        W17874  39.969  29.566   2.799
58438W        W17875  34.956  12.841  13.007
58439W        W17876  28.672   4.891   4.672
58440W        W17877  35.410  22.052   4.171
58441W        W17878  15.155  25.968   2.830
58442W        W17879  23.105  24.578   2.737
58443W        W17880  25.124  14.637  14.891
58444W        W17881  24.023  44.780   2.873
58445W        W17882  24.501  24.663   1.327
58446W        W17883  27.631  42.903  13.884
58447W        W17884  11.748  39.481   4.255
58448W        W17885  29.572  26.032   2.756
58449W        W17886  39.864   1.744   4.627
58450W        W17887   7.848  14.244  13.852
58451W        W17888   6.374  29.940   3.211
58452W        W17889  44.951  43.851  14.951
58453W        W17890  19.261  41.294   1.694
58454W        W17891  39.499   7.351   1.251
58455W        W17892  38.331  37.442  11.883
58456W        W17893   3.872  12.121   3.805
58457W        W17894  32.971  14.714  10.959
58458W        W17895  23.559  11.261   5.611
58459W        W17896  26.588  29.440   5.295
58460W        W17897  44.833   8.365  13.878
58461W        W17898  35.901   8.739   0.896
58462W        W17899  27.135  28.089   4.167
58463W        W17900   7.257  39.438   2.349
58464W        W17901  33.089  27.170   0.853
58465W        W17902  24.666  30.960   2.273
58466W        W17903  22.027  28.126   0.802
58467W        W17904  20.699  37.540  11.041
58468W        W17905  36.421  25.116   3.704
58469W        W17906  17.160  39.478  11.540
58470W        W17907  30.023  40.939   0.951
58471W        W17908  29.117  13.683  14.956
58472W        W17909  37.078  27.112   3.793
58473W        W17910  15.715   1.396  14.983
58474W        W17911  31.036  25.088  11.121
58475W        W17912  11.204  37.934  11.428
58476W        W17913  24.670   5.257  11.114
58477W        W17914  11.812  42.460  13.815
58478W        W17915  10.313  15.690   2.881
58479W        W17916  33.393  14.766  10.642
58480W        W17917  18.106  20.067  14.348
58481W        W17918  32.129  20.130  10.908
58482W        W17919   7.912   8.680   2.272
58483W        W17920  32.131  17.261   1.271
58484W        W17921  13.784   3.758  13.892
58485W        W17922  22.657  22.038   1.417
58486W        W17923  19.054  27.044   4.679
58487W        W17924  43.833  26.623   2.346
58488W        W17925  14.237  37.457   1.842
58489W        W17926  39.323  15.279  14.492
58490W        W17927   9.172  15.140   0.779
58491W        W17928  18.631  24.532  13.060
58492W        W17929   7.340  35.553   2.400
58493W        W17930  27.508  34.958   4.256
58494W        W17931  11.283  19.161  10.514
58495W        W17932   5.894   5.370   4.177
58496W        W17933  37.895  19.105  10.419
58497W        W17934  32.925  43.412   1.373
58498W        W17935  42.359  35.415   3.187
58499W        W17936  28.452  30.639   4.727
58500W        W17937  16.704   9.187  10.986
58501W        W17938   3.948  33.961   4.354
58502W        W17939  41.369  13.287   4.280
58503W        W17940  27.562   2.266   1.217
58504W        W17941   7.725  25.101  13.544
58505W        W17942  41.884  14.706   2.338
58506W        W17943  26.632  27.108  11.447
58507W        W17944   9.218  38.863  14.387
58508W        W17945  28.968  32.407  14.332
58509W        W17946  31.580  14.815  11.903
58510W        W17947  18.119  40.941  14.485
58511W        W17948  37.377   7.862  13.396
58512W        W17949  18.665  41.432   0.265
58513W        W17950  42.846   7.809  13.968
58514W        W17951  39.974  28.460   4.258
58515W        W17952   0.876  26.105   3.714
58516W        W17953   6.863   6.198   3.842
58517W        W17954  17.206  31.007  13.803
58518W        W17955   3.926   5.718   3.203
58519W        W17956  10.319  32.103  10.513
58520W        W17957   1.308  33.450   0.797
58521W        W17958  20.062  34.923   3.679
58522W        W17959  39.506   0.781   0.451
58523W        W17960  34.422  22.139  11.534
58524W        W17961  14.200   5.313  12.062
58525W        W17962  33.581   0.287   0.767
58526W        W17963  14.656  19.139   2.729
58527W        W17964   8.857   4.336  14.805
58528W        W17965  28.068  30.116   2.889
58529W        W17966  38.060  19.259  14.815
58530W        W17967  22.555  11.267  14.018
58531W        W17968  21.728   7.311   1.806
58532W        W17969  37.435   4.933   4.237
58533W        W17970  31.070   3.402   2.693
58534W        W17971  13.614  43.438  10.439
58535W        W17972  10.865  40.806  12.471
58536W        W17973  15.299  37.861   0.839
58537W        W17974  26.120  25.193  14.465
58538W        W17975  38.957  42.527   3.798
58539W        W17976  34.443   6.219  10.455
58540W        W17977  38.439  16.282  11.534
58541W        W17978  42.862  16.616   4.163
58542W        W17979  34.958  13.207   3.796
58543W        W17980  10.194   7.405   3.636
58544W        W17981  40.802  24.018   3.771
58545W        W17982  36.844  25.484  12.050
58546W        W17983  32.475  22.521   9.941
58547W        W17984  43.018  36.011   1.374
58548W        W17985  43.911  38.509   1.258
58549W        W17986  25.090   3.266  12.425
58550W        W17987  41.332  11.715   4.218
58551W        W17988  21.647  26.035  12.846
58552W        W17989  35.427   7.699   0.344
58553W        W17990  24.221  24.037   3.360
58554W        W17991  25.570   0.791  14.860
58555W        W17992  10.732  18.245   3.862
58556W        W17993  41.952  30.469  12.092
58557W        W17994  30.523  26.188   5.205
58558W        W17995  11.348  34.042  13.836
58559W        W17996  10.219  27.448   4.776
58560W        W17997   1.351  32.401  13.442
58561W        W17998   2.469  40.518  14.377
58562W        W17999   8.212  36.482  14.854
58563W        W18000  18.129  44.982  12.052
58564W        W18001  13.843  37.440   4.280
58565W        W18002  44.398  38.969   3.157
58566W        W18003  14.762   8.378  13.036
58567W        W18004  19.558  39.541  12.846
58568W        W18005  34.505  43.948   0.874
58569W        W18006   3.358  36.484  11.394
58570W        W18007  28.169  44.759  11.929
58571W        W18008   3.777   0.284  14.838
58572W        W18009   4.231   3.811  13.545
58573W        W18010  31.143  33.420  10.075
58574W        W18011  11.240   2.828   0.739
58575W        W18012  21.687  33.041  13.956
58576W        W18013  23.171  10.330  10.470
58577W        W18014  32.631  23.107   3.384
58578W        W18015  44.977  16.197   0.358
58579W        W18016  23.150  12.692  14.494
58580W        W18017  11.634  37.552   1.797
58581W        W18018  43.374  35.504  10.925
58582W        W18019   2.844  37.433   4.648
58583W        W18020  35.085  20.187  11.981
58584W        W18021  17.627  32.569  11.454
58585W        W18022  19.231   0.911  13.829
58586W        W18023  42.413  12.649   3.723
58587W        W18024   5.272  13.144  14.763
58588W        W18025  31.502  33.898   3.306
58589W        W18026  44.827   1.427   2.714
58590W        W18027  23.585  34.113  14.821
58591W        W18028  43.280  14.242  13.432
58592W        W18029  16.317  34.871   2.397
58593W        W18030   9.657   8.192  11.893
58594W        W18031  43.995  42.815  12.085
58595W        W18032   0.828  22.619   4.328
58596W        W18033  40.428  10.877  12.358
58597W        W18034  15.170  18.209  14.446
58598W        W18035  17.231  38.931  10.109
58599W        W18036  17.636   4.875   2.179
58600W        W18037  30.952  23.670  10.922
58601W        W18038  26.672  34.416   0.940
58602W        W18039  28.585   7.246   2.794
58603W        W18040   2.904  34.923   2.757
58604W        W18041  23.610  39.505  14.367
58605W        W18042  33.587  41.313   3.226
58606W        W18043   5.928  35.886   3.290
58607W        W18044   0.807  37.839   3.642
58608W        W18045  12.768  22.186  11.402
58609W        W18046  36.505  40.496  11.922
58610W        W18047  13.290  18.180  13.390
58611W        W18048  36.920  28.526  10.982
58612W        W18049   4.236  10.207   3.667
58613W        W18050   6.886  22.503   1.210
58614W        W18051  35.925  35.864   0.925
58615W        W18052   7.819  31.472  14.762
58616W        W18053  20.081  43.775   3.259
58617W        W18054   9.370  42.417   1.275
58618W        W18055  30.524  10.259  10.996
58619W        W18056   0.391  22.694   2.183
58620W        W18057  10.350  15.714  11.438
58621W        W18058   2.339  12.213   2.385
58622W        W18059  10.683  40.370  10.507
58623W        W18060  22.227  14.238  10.460
58624W        W18061   4.763  24.129  10.985
58625W        W18062   7.246  44.854   3.217
58626W        W18063  20.658  26.670   0.404
58627W        W18064   3.319  30.067   0.866
58628W        W18065  38.889  13.639  13.874
58629W        W18066  12.226  32.436  14.955
58630W        W18067  44.378  10.655  13.384
58631W        W18068  18.076  27.030   1.288
58632W        W18069  19.277   0.385  11.389
58633W        W18070   9.875   5.246  11.376
58634W        W18071  27.013   7.324   3.150
58635W        W18072  11.753  27.153  14.841
58636W        W18073   8.200  32.532   4.203
58637W        W18074  18.253   4.436  12.401
58638W        W18075   0.260  22.721   1.313
58639W        W18076  11.686   5.327  11.372
58640W        W18077  28.669  42.843  14.277
58641W        W18078   8.771  26.535  11.553
58642W        W18079  37.070  23.712   4.756
58643W        W18080  28.017   7.805   5.107
58644W        W18081   1.376  40.843  14.880
58645W        W18082  27.070  37.986  11.473
58646W        W18083  34.518  34.970   2.419
58647W        W18084  22.110  36.957  12.346
58648W        W18085  11.212  17.095  11.406
58649W        W18086   0.818  21.591  11.591
58650W        W18087  33.585  30.986  12.339
58651W        W18088  16.281  20.597  11.448
58652W        W18089  40.453  31.937  14.841
58653W        W18090  40.830  23.040   2.864
58654W        W18091   6.698  42.521  14.332
58655W        W18092  22.710  24.058   4.598
58656W        W18093  23.538   9.767   3.774
58657W        W18094  25.008  26.033  11.506
58658W        W18095  28.009  41.459  11.608
58659W        W18096  33.555  13.322   1.275
58660W        W18097  42.841  40.523   3.183
58661W        W18098  31.012   5.418  11.115
58662W        W18099  34.116  44.954   2.810
58663W        W18100   9.676  20.749   2.399
58664W        W18101   6.770  29.031  14.986
58665W        W18102   2.416   7.394   0.373
58666W        W18103  13.609   0.935   0.781
58667W        W18104  41.296  19.547   3.664
58668W        W18105  11.305   1.972  11.014
58669W        W18106  33.437   0.408  14.294
58670W        W18107   0.455  22.509   2.670
58671W        W18108  33.519   1.823   0.400
58672W        W18109  41.943  12.128   4.288
58673W        W18110  14.600  44.420   2.215
58674W        W18111  39.817   7.391  14.841
58675W        W18112  20.762  10.337   3.165
58676W        W18113  14.811   9.321   3.853
58677W        W18114   9.167  38.410  12.506
58678W        W18115  41.374   3.721   1.891
58679W        W18116  33.463   8.338   2.269
58680W        W18117  11.866   8.180   0.408
58681W        W18118  22.199  15.616   0.296
58682W        W18119  12.232  43.936  12.462
58683W        W18120   3.358   3.867   1.720
58684W        W18121  21.650  29.975  12.433
58685W        W18122  38.478  18.086  11.573
58686W        W18123   1.879  11.842   3.245
58687W        W18124   3.870   7.201   1.927
58688W        W18125  30.645   9.179  11.445
58689W        W18126   8.722  43.965  12.526
58690W        W18127  31.981  39.054   2.704
58691W        W18128  44.901  22.658   2.353
58692W        W18129  11.736  30.000  11.598
58693W        W18130  24.087  14.193   1.351
58694W        W18131  31.470  10.791  12.453
58695W        W18132   8.243  43.969  14.405
58696W        W18133  14.254  34.428   3.696
58697W        W18134   6.243  10.784  14.764
58698W        W18135   4.251  25.545  14.906
58699W        W18136  12.239  44.303  11.409
58700W        W18137  18.752   0.424   4.697
58701W        W18138  37.928  29.162  14.992
58702W        W18139  43.931  30.449  11.047
58703W        W18140  24.063  15.256   0.460
58704W        W18141  12.805  37.484  10.412
58705W        W18142  44.365  39.459  13.856
58706W        W18143  20.695  38.418   0.769
58707W        W18144  34.500   1.785   4.691
58708W        W18145   8.890  29.573  13.519
58709W        W18146  12.813  18.149   1.379
58710W        W18147   1.835  28.986   1.427
58711W        W18148  23.673  15.216  12.055
58712W        W18149  32.444  12.748  10.981
58713W        W18150  13.274   2.230   0.770
58714W        W18151   5.412  22.632  14.853
58715W        W18152   3.343  34.488  14.412
58716W        W18153  15.629   3.437  13.314
58717W        W18154   3.797  20.091   1.310
58718W        W18155  24.045  30.440   9.928
58719W        W18156  27.980  25.134  14.361
58720W        W18157  26.599  44.915   0.965
58721W        W18158  19.101  29.047  13.921
58722W        W18159  22.642  33.537  11.495
58723W        W18160  20.073  40.482  10.546
58724W        W18161  15.651   1.867  10.984
58725W        W18162  42.434   6.764   1.819
58726W        W18163  12.650   5.247  14.358
58727W        W18164  42.442  15.650   3.844
58728W        W18165  23.546  40.968   2.202
58729W        W18166  33.126  30.577  11.501
58730W        W18167   9.888  34.056  14.484
58731W        W18168  30.058  34.960  10.488
58732W        W18169  36.452  20.609  14.831
58733W        W18170   5.365  42.955  13.827
58734W        W18171  39.904  20.734  14.822
58735W        W18172  25.047  42.983   1.928
58736W        W18173   0.748  28.059   2.702
58737W        W18174  44.783  33.624   5.111
58738W        W18175  27.620   1.811   1.264
58739W        W18176   5.321  15.243   1.806
58740W        W18177   4.341   1.255   1.316
58741W        W18178  22.168   1.237  14.485
58742W        W18179   7.742  39.559  14.346
58743W        W18180   8.661  31.903   1.710
58744W        W18181   3.717   3.388  13.037
58745W        W18182  26.068   2.249  10.918
58746W        W18183  41.361  34.901  10.587
58747W        W18184  43.492  12.755   0.322
58748W        W18185   3.306  11.748   2.412
58749W        W18186  38.378  20.764   0.814
58750W        W18187  34.429  10.817  14.797
58751W        W18188  37.479  12.796   2.347
58752W        W18189   0.885  29.157   2.713
58753W        W18190  29.018  35.585   2.328
58754W        W18191  38.905  10.281  14.776
58755W        W18192   6.278  27.071  13.363
58756W        W18193  41.490   7.674  12.455
58757W        W18194  30.515  19.203   0.331
58758W        W18195  36.983  25.506   0.920
58759W        W18196  17.107  14.175  10.962
58760W        W18197  44.910  24.667  12.891
58761W        W18198  38.063  33.023  11.869
58762W        W18199   5.355  34.008   1.378
58763W        W18200  38.363  15.214  13.960
58764W        W18201   1.777  30.645   2.198
58765W        W18202  37.546  33.923   1.346
58766W        W18203  19.090   3.434  13.937
58767W        W18204  41.459  22.151   4.599
58768W        W18205  29.631  31.475   1.245
58769W        W18206  33.452   8.899   5.256
58770W        W18207  26.683  29.455  13.030
58771W        W18208  23.531  27.505   0.421
58772W        W18209  37.877  16.191   0.731
58773W        W18210  16.740   9.702   2.319
58774W        W18211  16.228  17.173   1.712
58775W        W18212   0.468  27.103   0.263
58776W        W18213  29.613   6.681  11.956
58777W        W18214  23.672  19.535   3.343
58778W        W18215  35.992  22.021   2.886
58779W        W18216  23.512   3.921  12.424
58780W        W18217  13.626  30.922  13.960
58781W        W18218  23.553  21.176   2.679
58782W        W18219  37.568  23.100  11.578
58783W        W18220  40.495   8.778   2.301
58784W        W18221  34.578  23.069  10.585
58785W        W18222  25.192  44.286   2.349
58786W        W18223  36.972  38.822   3.150
58787W        W18224  40.867   6.887   3.738
58788W        W18225  34.483  35.946   4.172
58789W        W18226  27.195  38.071  12.861
58790W        W18227  40.448   3.347   0.299
58791W        W18228  10.232  12.851   2.831
58792W        W18229  32.437  19.185   3.830
58793W        W18230   5.433   3.319  13.025
58794W        W18231   6.370  32.918   4.706
58795W        W18232  33.030  42.477   3.259
58796W        W18233  20.136  21.741  10.077
58797W        W18234  34.015  39.385  10.552
58798W        W18235  29.973   5.219  14.883
58799W        W18236   2.899  16.721  11.387
58800W        W18237  14.719  34.014  14.281
58801W        W18238  15.609  22.249  10.012
58802W        W18239  27.449  13.784   1.837
58803W        W18240  10.289  33.975   4.750
58804W        W18241   1.925  15.125   2.373
58805W        W18242  17.168  37.561  11.403
58806W        W18243  20.060  28.173   2.392
58807W        W18244  31.109  21.116   0.899
58808W        W18245  35.922  11.732  13.422
58809W        W18246  41.976   9.274   4.175
58810W        W18247   7.667  40.040  10.613
58811W        W18248   0.875  16.229   9.485
58812W        W18249   0.469   1.847  13.495
58813W        W18250  41.362  19.572  10.946
58814W        W18251  27.188  35.526  12.966
58815W        W18252  36.421  15.664  14.875
58816W        W18253  28.128  26.044   4.339
58817W        W18254  40.871  42.418  14.461
58818W        W18255  29.157  17.776   3.809
58819W        W18256  26.001  40.371   3.215
58820W        W18257  17.182  28.555  11.995
58821W        W18258  24.029  41.426  12.552
58822W        W18259  36.873  10.229   3.246
58823W        W18260  29.606  29.571  11.979
58824W        W18261  29.642  29.039  10.446
58825W        W18262  44.423  11.163   2.667
58826W        W18263   3.244  42.311  11.978
58827W        W18264   1.272   9.262  13.841
58828W        W18265  17.085  12.200   1.288
58829W        W18266  19.612  14.721  10.963
58830W        W18267  14.642   8.829   4.644
58831W        W18268  20.174  20.105  12.853
58832W        W18269  32.970  35.047   3.375
58833W        W18270  41.949   9.819   2.876
58834W        W18271  12.230  30.538   0.942
58835W        W18272  16.667   1.305   1.822
58836W        W18273  28.069   5.399  10.975
58837W        W18274  26.619  12.700  12.534
58838W        W18275  27.612  17.699  12.488
58839W        W18276  27.507  40.473  14.389
58840W        W18277   6.293  15.595  11.038
58841W        W18278   6.774   3.764  14.022
58842W        W18279  24.599   5.874   3.834
58843W        W18280  15.815  34.382  12.442
58844W        W18281   5.202  40.925   3.688
58845W        W18282  29.656   1.315  11.888
58846W        W18283  35.005  29.494  11.405
58847W        W18284  19.059   4.363  12.490
58848W        W18285  44.781  26.109  11.457
58849W        W18286   9.251  42.862   2.769
58850W        W18287  39.516  21.159   1.244
58851W        W18288  43.994  11.360   4.730
58852W        W18289  22.117  27.958   2.214
58853W        W18290  32.096  13.724   1.229
58854W        W18291  41.500  42.842  11.114
58855W        W18292  38.950   8.697   3.752
58856W        W18293  24.043   9.336   3.271
58857W        W18294  31.643  36.914   3.376
58858W        W18295   3.731  21.632   1.869
58859W        W18296  28.610   7.907  13.441
58860W        W18297  36.925  20.555   1.325
58861W        W18298  37.357  17.638   2.704
58862W        W18299  30.503  14.321  13.389
58863W        W18300  40.495  30.488  12.823
58864W        W18301  13.171  25.962   3.822
58865W        W18302   4.746  35.550   2.840
58866W        W18303  26.150  36.409  13.837
58867W        W18304  13.632  31.524   1.833
58868W        W18305  29.569  27.109   3.771
58869W        W18306  38.372   0.864  12.866
58870W        W18307  36.917  13.621  10.439
58871W        W18308  42.411  36.931  13.380
58872W        W18309  36.359  40.010  14.027
58873W        W18310  41.356  33.085  14.422
58874W        W18311  28.970  21.697   0.739
58875W        W18312  10.738  41.985   4.817
58876W        W18313  31.599  16.285   0.759
58877W        W18314  26.160  41.296  12.017
58878W        W18315  23.002  29.491   1.775
58879W        W18316  11.701  42.907  10.922
58880W        W18317  32.084  26.112   1.736
58881W        W18318  27.150  25.215  10.600
58882W        W18319  44.449  37.572   2.679
58883W        W18320  42.513  31.539   0.451
58884W        W18321  44.912   2.342   3.768
58885W        W18322   2.955  20.632   2.867
58886W        W18323  34.562  28.936   0.346
58887W        W18324   2.725  21.652   2.901
58888W        W18325  10.714   7.225  11.372
58889W        W18326   1.269  29.005  12.026
58890W        W18327  31.085  24.495   2.668
58891W        W18328  20.266  29.490   0.319
58892W        W18329  40.909  31.645  12.355
58893W        W18330   3.401   6.854  10.584
58894W        W18331  20.169  14.305  13.982
58895W        W18332   4.218  36.497   1.925
58896W        W18333  37.996  35.534  11.092
58897W        W18334  14.214  31.938  12.923
58898W        W18335  36.980  43.765  13.987
58899W        W18336  30.042  11.208  13.063
58900W        W18337   7.895  28.090  11.047
58901W        W18338  40.538  25.157  13.462
58902W        W18339  39.938  39.023   3.676
58903W        W18340   9.358  30.548  12.511
58904W        W18341  30.424  27.189   1.243
58905W        W18342  35.055  42.987   1.839
58906W        W18343   5.245  30.592  10.096
58907W        W18344  11.714   5.703  11.080
58908W        W18345  40.840  30.640   0.444
58909W        W18346   8.854  20.211  11.878
58910W        W18347  14.231  38.514   3.327
58911W        W18348  43.471  19.178  11.435
58912W        W18349   2.403  15.233  13.519
58913W        W18350  34.066  33.603   2.321
58914W        W18351  37.542  27.487  11.565
58915W        W18352  38.412  24.616  11.084
58916W        W18353  25.473  27.144  13.434
58917W        W18354  29.109  16.798  12.941
58918W        W18355  43.290   1.474  13.820
58919W        W18356  14.632  32.077  14.379
58920W        W18357  16.792  39.989  11.531
58921W        W18358   6.852  32.011   4.345
58922W        W18359  44.951   0.950   1.380
58923W        W18360   8.201  44.937  13.999
58924W        W18361   0.955  44.838   2.667
58925W        W18362  37.410  21.028   0.760
58926W        W18363  25.645  34.121  10.973
58927W        W18364  20.216  17.606   2.853
58928W        W18365   4.449   5.906   0.353
58929W        W18366   6.329  10.292   3.815
58930W        W18367  36.480   5.740  11.097
58931W        W18368  29.504  10.738   2.763
58932W        W18369  16.702  32.537   2.783
58933W        W18370  38.347  28.467  13.434
58934W        W18371  16.150  34.383  10.628
58935W        W18372   2.258  20.117   2.851
58936W        W18373  21.555   8.402  13.016
58937W        W18374  31.530  12.841   2.708
58938W        W18375  23.020   2.806  13.507
58939W        W18376  41.037  19.746   0.731
58940W        W18377  26.627   3.344  12.389
58941W        W18378  16.128  21.161  14.363
58942W        W18379  19.647  36.856   3.250
58943W        W18380  35.586  35.953   2.820
58944W        W18381  18.110   7.884   4.129
58945W        W18382  41.020  21.070  12.017
58946W        W18383  12.622  38.530   0.944
58947W        W18384   8.776  14.215  11.933
58948W        W18385  40.432   9.268   0.765
58949W        W18386  36.894  38.821  12.400
58950W        W18387  13.183  34.891   2.413
58951W        W18388  41.854  13.293   1.416
58952W        W18389  33.965  17.749  13.855
58953W        W18390  31.953  37.080  14.908
58954W        W18391  16.230  13.821   4.700
58955W        W18392   4.849  12.832   5.114
58956W        W18393  33.514  42.961  12.461
58957W        W18394  42.880  44.983  11.872
58958W        W18395  24.644  41.296  14.854
58959W        W18396   6.398   2.913   4.824
58960W        W18397  12.612  16.150  10.601
58961W        W18398  10.775  19.070  13.462
58962W        W18399  30.959  19.156  11.066
58963W        W18400   2.247  40.327   3.355
58964W        W18401  41.403  22.560  14.820
58965W        W18402  12.694  37.352  12.999
58966W        W18403  16.101  31.617   2.294
58967W        W18404  42.423   7.181  12.089
58968W        W18405  38.516  14.206   0.367
58969W        W18406  16.765  32.911  11.875
58970W        W18407  43.888   8.273   1.859
58971W        W18408  26.606  21.726   1.789
58972W        W18409  30.577  12.664  11.890
58973W        W18410  20.534   9.860  10.644
58974W        W18411  38.991  15.172   1.925
58975W        W18412  12.289  13.234  13.985
58976W        W18413  19.658   1.290  11.584
58977W        W18414  13.804  34.884  10.601
58978W        W18415  30.633  16.269  14.959
58979W        W18416  29.524  13.179   2.376
58980W        W18417  23.165  35.105  13.446
58981W        W18418   7.797  18.181  14.993
58982W        W18419  26.002   7.205   3.764
58983W        W18420  32.536  16.092  13.797
58984W        W18421  12.135  36.979  11.573
58985W        W18422   1.865  15.705   1.922
58986W        W18423  15.266  30.145   1.306
58987W        W18424  31.139  17.113  10.892
58988W        W18425   9.785   6.185  12.885
58989W        W18426  30.105  40.989   5.196
58990W        W18427   0.300  28.638  13.963
58991W        W18428  15.161  23.659   2.666
58992W        W18429  43.274  44.317   3.849
58993W        W18430  30.027  23.210  13.499
58994W        W18431  43.326  42.386   1.711
58995W        W18432  13.771  27.452   1.795
58996W        W18433  15.697  24.204   4.157
58997W        W18434   9.364  32.582   2.837
58998W        W18435  17.274  44.825  12.471
58999W        W18436  28.049  23.731  14.953
59000W        W18437   3.394  29.009   0.774
59001W        W18438   8.217  10.181   2.262
59002W        W18439  23.646  17.592  11.104
59003W        W18440   3.761  30.016  12.552
59004W        W18441   3.888  27.948   4.229
59005W        W18442   5.927   5.931   1.705
59006W        W18443  38.027  43.987  14.505
59007W        W18444   4.334  19.648  14.473
59008W        W18445  41.370  42.809   0.458
59009W        W18446  38.856   2.789  10.590
59010W        W18447  35.488  14.729   0.861
59011W        W18448  40.917  14.665  10.594
59012W        W18449  18.719  28.509  10.539
59013W        W18450   5.267  43.833   4.653
59014W        W18451   4.232  23.051   3.370
59015W        W18452  19.060  26.014  10.414
59016W        W18453   7.748  24.092   2.363
59017W        W18454  25.160  15.298  11.384
59018W        W18455  10.801  12.759   1.441
59019W        W18456   0.919  42.526  14.419
59020W        W18457  24.687  33.535   4.159
59021W        W18458  21.589  27.509   3.682
59022W        W18459  32.482   6.382   1.794
59023W        W18460  17.764  16.733  14.464
59024W        W18461   1.254  28.112   3.829
59025W        W18462  22.675  23.704  14.308
59026W        W18463  40.826  35.491  13.792
59027W        W18464  36.080  15.162   4.838
59028W        W18465  30.467   5.799  13.816
59029W        W18466  40.353  44.413  11.544
59030W        W18467  43.411   9.156   0.335
59031W        W18468  43.324   4.734  11.957
59032W        W18469  11.317  11.672   3.705
59033W        W18470   6.728  27.032   9.621
59034W        W18471  32.637  40.456   0.737
59035W        W18472  17.307  13.692   3.316
59036W        W18473  16.272  18.755  13.462
59037W        W18474   6.727   5.714  10.419
59038W        W18475  19.764  43.336   2.850
59039W        W18476  11.286  11.752   0.912
59040W        W18477  21.077  32.052  10.121
59041W        W18478  17.255  12.277   3.779
59042W        W18479   9.782  20.187   4.218
59043W        W18480  35.374  43.287  13.799
59044W        W18481   1.354  32.963  10.514
59045W        W18482  21.683   9.341   1.700
59046W        W18483  35.493  18.573  10.508
59047W        W18484  34.870  26.621  10.519
59048W        W18485  22.610  32.585   4.712
59049W        W18486   7.336  32.397  12.825
59050W        W18487  17.225   0.988   3.847
59051W        W18488  39.327  17.559   2.190
59052W        W18489   5.213  30.529  12.515
59053W        W18490   2.912  37.917   3.362
59054W        W18491   1.871  30.649  11.517
59055W        W18492   4.893   1.410  12.937
59056W        W18493  35.926  19.163   4.275
59057W        W18494   7.382   5.306  11.995
59058W        W18495  25.572   1.890   9.970
59059W        W18496  17.640  39.047  11.862
59060W        W18497  25.207   1.420   1.826
59061W        W18498   1.761  41.533   3.234
59062W        W18499  42.794  17.280   0.726
59063W        W18500  39.054  28.478   1.830
59064W        W18501  40.325  44.790  14.403
59065W        W18502  41.318   6.870   3.224
59066W        W18503  40.461  40.851   2.316
59067W        W18504  21.139   1.839   4.719
59068W        W18505  30.452  16.298  11.859
59069W        W18506   6.373  32.015   4.823
59070W        W18507  26.164  37.565   3.181
59071W        W18508   1.348  22.052   3.323
59072W        W18509  27.493   2.449   3.773
59073W        W18510  27.481  42.388  12.015
59074W        W18511   9.374  29.498  13.399
59075W        W18512  37.541  43.366   2.242
59076W        W18513  34.490  44.948   2.861
59077W        W18514  43.504  43.937   4.142
59078W        W18515   5.319   5.269   4.693
59079W        W18516  34.574   2.871   2.738
59080W        W18517  29.991  21.032   9.965
59081W        W18518  28.023  30.981  14.874
59082W        W18519   5.224  14.289   2.400
59083W        W18520  34.005  41.963  14.867
59084W        W18521   7.355  23.669   4.776
59085W        W18522   2.261  22.695   4.680
59086W        W18523  43.431  32.035   2.663
59087W        W18524  18.277  39.533   5.173
59088W        W18525   8.805  32.983   3.194
59089W        W18526   9.655  16.252  14.024
59090W        W18527   9.809  37.517  12.418
59091W        W18528  44.792  26.999   4.742
59092W        W18529  25.707  30.994  12.883
59093W        W18530  13.825  10.730   0.902
59094W        W18531  30.503  41.948  14.844
59095W        W18532   6.235  23.210   0.923
59096W        W18533  35.583  34.906  13.456
59097W        W18534   2.259  32.006  11.569
59098W        W18535  28.968  42.522  14.990
59099W        W18536   2.243  25.086   3.220
59100W        W18537  33.542  25.067   2.335
59101W        W18538  30.118  13.191   0.771
59102W        W18539  32.917  14.327  12.393
59103W        W18540   1.757  36.991   1.300
59104W        W18541  34.113  29.557  14.810
59105W        W18542  10.347  40.866  14.863
59106W        W18543  37.027  28.136   3.870
59107W        W18544  28.488  43.481  11.978
59108W        W18545  15.146  33.914   1.735
59109W        W18546  11.835  32.438   2.882
59110W        W18547   2.837   3.420  13.438
59111W        W18548  19.561  44.819   4.750
59112W        W18549  31.952  23.629  14.857
59113W        W18550  24.529   5.918   0.913
59114W        W18551   2.326  21.077  12.391
59115W        W18552  34.997  19.129   0.865
59116W        W18553   8.671  30.071   4.195
59117W        W18554  28.123  12.318  10.020
59118W        W18555  41.857  28.450   0.320
59119W        W18556  33.911  17.284  10.556
59120W        W18557  32.936   4.219   3.313
59121W        W18558  43.382  33.123   2.292
59122W        W18559  40.819  19.214  12.351
59123W        W18560  20.201   5.862  13.843
59124W        W18561  18.288  37.083   0.893
59125W        W18562  42.826  19.563  10.910
59126W        W18563   4.405   3.424   4.726
59127W        W18564  40.897  15.249   0.448
59128W        W18565  29.074  31.896  13.942
59129W        W18566   7.666  41.935   1.803
59130W        W18567   4.784  20.676   3.314
59131W        W18568   9.167  44.301  11.949
59132W        W18569   9.676  10.815   4.728
59133W        W18570  35.503  32.971   0.390
59134W        W18571  10.687  41.328  14.430
59135W        W18572  20.167  14.147  11.912
59136W        W18573   8.733  23.215  12.945
59137W        W18574   6.816  19.159  11.460
59138W        W18575  27.023  17.172  10.471
59139W        W18576  17.654  28.585   0.421
59140W        W18577  21.583  39.546  10.991
59141W        W18578  38.070  25.624  13.826
59142W        W18579  33.417  35.544   3.236
59143W        W18580   6.829  42.339   4.782
59144W        W18581   4.741  20.139  13.446
59145W        W18582  18.281  25.545  12.911
59146W        W18583  34.946  42.863  14.018
59147W        W18584  32.396  24.019  13.978
59148W        W18585  39.478   1.423   3.645
59149W        W18586  43.006   1.261   4.137
59150W        W18587  39.818  20.133   0.248
59151W        W18588  28.091  16.786   4.638
59152W        W18589  34.949  34.968   3.640
59153W        W18590  24.222  20.039   4.176
59154W        W18591  29.148  37.577  12.464
59155W        W18592  28.044  44.810   4.340
59156W        W18593  17.569   1.441   2.211
59157W        W18594  41.856  32.022  10.987
59158W        W18595  21.084   1.465   4.227
59159W        W18596  37.564  31.434  14.865
59160W        W18597  33.887  33.413  12.888
59161W        W18598  37.038   5.850  11.531
59162W        W18599  16.661  39.894  13.471
59163W        W18600   3.754  13.660  13.827
59164W        W18601  21.086  35.962  10.475
59165W        W18602  18.720  11.625  14.370
59166W        W18603  10.701  35.504   2.758
59167W        W18604   1.404  43.884  10.916
59168W        W18605  27.582  18.176   4.297
59169W        W18606  25.965  33.381   0.314
59170W        W18607  40.810  42.337  12.501
59171W        W18608  24.187  32.515  14.762
59172W        W18609  30.098  42.895   4.692
59173W        W18610  24.699  16.313  10.546
59174W        W18611  18.746   6.273  10.085
59175W        W18612  14.272  19.701  11.098
59176W        W18613  33.430   7.341   2.181
59177W        W18614  12.151  22.700   0.400
59178W        W18615  27.599  41.521  13.310
59179W        W18616  44.434  38.341   4.239
59180W        W18617  33.094   5.287   2.738
59181W        W18618  28.941   4.317   3.167
59182W        W18619  22.683  15.291  13.801
59183W        W18620  19.077  23.012   4.132
59184W        W18621   8.363  34.031  13.828
59185W        W18622  10.185  33.393   1.747
59186W        W18623   1.252  32.077   1.406
59187W        W18624   1.938   9.277  10.639
59188W        W18625  24.634  42.967   5.302
59189W        W18626  30.983  42.377  13.310
59190W        W18627  22.136  18.085  10.505
59191W        W18628  10.769  37.408  11.400
59192W        W18629  13.826  34.885  14.340
59193W        W18630  24.140  16.208   0.362
59194W        W18631  11.132   4.927   3.281
59195W        W18632  35.403  43.353  14.455
59196W        W18633  40.412  44.830  10.414
59197W        W18634  10.280  26.992   4.679
59198W        W18635  29.590  10.214  13.354
59199W        W18636  31.905  10.694  12.428
59200W        W18637  31.020  17.640   1.730
59201W        W18638  14.115  15.705   3.827
59202W        W18639   6.691   5.313   2.671
59203W        W18640  39.514  26.470  12.469
59204W        W18641  27.955  32.474   0.464
59205W        W18642  36.456  42.814  10.132
59206W        W18643  39.039  23.037  13.811
59207W        W18644   9.701  14.747  14.485
59208W        W18645  23.086   9.696  10.633
59209W        W18646  44.328  37.465  11.925
59210W        W18647  44.949  33.988   1.395
59211W        W18648  28.031   8.246   2.805
59212W        W18649  12.151  18.646   3.717
59213W        W18650  29.942   0.346   2.789
59214W        W18651  43.433  20.641  10.470
59215W        W18652   0.799   2.277  14.990
59216W        W18653   3.773  29.109  13.427
59217W        W18654  23.696  17.734  10.519
59218W        W18655  29.120  25.027  14.515
59219W        W18656   4.357  34.965  10.634
59220W        W18657  20.082  31.523   0.318
59221W        W18658  24.501  10.278   0.360
59222W        W18659  34.968  28.611   2.894
59223W        W18660  36.893  36.548   4.703
59224W        W18661  44.764   7.676   0.368
59225W        W18662  25.528   4.822  11.397
59226W        W18663   3.892  38.845  10.407
59227W        W18664  21.716   9.683   4.816
59228W        W18665  24.630   7.876   0.313
59229W        W18666   8.812  38.466  12.840
59230W        W18667  14.184   0.829  14.346
59231W        W18668   4.852  29.632  10.417
59232W        W18669  18.691  11.685  12.020
59233W        W18670  43.434  35.071   1.820
59234W        W18671  42.422  44.867   1.340
59235W        W18672  31.115  39.822   1.363
59236W        W18673  15.257  33.007  11.436
59237W        W18674  42.970  44.470   4.275
59238W        W18675   1.297   2.242  13.995
59239W        W18676  32.486  44.378   1.239
59240W        W18677  20.661   4.932   2.838
59241W        W18678   3.863  24.188   4.349
59242W        W18679  43.424  41.824  14.441
59243W        W18680  12.697  25.631   1.347
59244W        W18681  11.309  14.609   2.318
59245W        W18682  12.838  32.956   0.301
59246W        W18683  40.529  41.898   2.224
59247W        W18684  24.982  22.083  12.895
59248W        W18685  15.639  23.558  12.555
59249W        W18686  25.116  16.688  14.362
59250W        W18687  15.308   3.772   2.236
59251W        W18688   8.257   6.865   3.378
59252W        W18689   1.251  39.960  14.785
59253W        W18690   8.893  28.503  14.828
59254W        W18691   6.392  16.752   1.931
59255W        W18692  26.547   1.276   4.651
59256W        W18693   9.293  40.847  11.923
59257W        W18694   2.821  14.693   2.734
59258W        W18695  27.560  36.569  13.878
59259W        W18696  42.504  25.169  11.029
59260W        W18697  19.658  30.634   2.892
59261W        W18698  14.281  25.087   2.897
59262W        W18699  21.536  11.694   0.822
59263W        W18700  19.665  39.501   3.260
59264W        W18701   5.738  21.605   1.823
59265W        W18702  28.054   5.202  13.831
59266W        W18703  43.796  41.402   2.785
59267W        W18704  37.510  41.829  11.541
59268W        W18705  22.725  31.495   2.342
59269W        W18706   1.928  23.032  11.477
59270W        W18707   5.436  18.723   4.632
59271W        W18708   7.668  15.807  13.880
59272W        W18709  35.974  10.721   3.235
59273W        W18710   4.862  13.116  11.398
59274W        W18711  38.965  20.150   2.348
59275W        W18712  28.645  37.447  12.497
59276W        W18713  13.792  32.919  14.399
59277W        W18714  40.545  32.584  12.844
59278W        W18715  30.048   9.676   3.196
59279W        W18716  28.457  15.785  13.357
59280W        W18717  27.155  40.461  11.505
59281W        W18718   9.757  37.380  10.934
59282W        W18719  38.954  24.150   4.709
59283W        W18720   8.722  24.138  14.961
59284W        W18721  39.555   9.268   3.223
59285W        W18722  15.579  43.489  10.916
59286W        W18723   9.324  12.614   4.726
59287W        W18724  44.353  22.594  10.606
59288W        W18725   4.939  32.633  13.056
59289W        W18726  11.324  12.280  12.092
59290W        W18727  24.551  19.179  12.004
59291W        W18728  35.575  22.546   1.695
59292W        W18729  37.852  38.402   4.245
59293W        W18730  33.875  37.013  11.610
59294W        W18731   2.383  34.099  11.060
59295W        W18732  22.709  17.607  11.961
59296W        W18733  10.252  34.925   3.806
59297W        W18734  17.721  38.535   1.272
59298W        W18735  14.660   8.217  13.395
59299W        W18736  18.583  40.419   5.733
59300W        W18737  23.014  27.008   0.377
59301W        W18738   9.850  14.204  14.816
59302W        W18739  29.148   0.267   0.814
59303W        W18740  22.579  25.983  11.493
59304W        W18741  44.427  22.642  13.947
59305W        W18742  31.007  41.483   2.191
59306W        W18743  33.100  32.102   5.304
59307W        W18744  21.661   1.946   2.676
59308W        W18745  11.807  37.510   4.777
59309W        W18746   6.799  43.982  14.275
59310W        W18747  28.443  33.099  13.364
59311W        W18748  26.515  41.510   4.751
59312W        W18749  18.162  27.041   0.935
59313W        W18750  26.649   9.714   3.202
59314W        W18751  40.472  41.010  11.579
59315W        W18752  23.166  38.547  10.966
59316W        W18753  25.096   0.290  12.343
59317W        W18754  27.520  22.528   4.194
59318W        W18755  17.696  25.534  14.793
59319W        W18756  20.729   3.901   3.245
59320W        W18757  34.577  29.094  11.968
59321W        W18758   5.753  28.486   5.155
59322W        W18759  35.471  11.271   1.861
59323W        W18760  17.606  12.840   0.812
59324W        W18761  43.368  36.842  12.020
59325W        W18762  37.030   1.941   3.769
59326W        W18763  27.117  11.224  13.406
59327W        W18764  38.375   5.398   4.336
59328W        W18765  23.717   6.836   2.732
59329W        W18766  16.214   4.802   2.368
59330W        W18767  34.930   7.776   4.635
59331W        W18768  18.168  31.134   4.739
59332W        W18769  20.136  32.522   3.704
59333W        W18770  33.488  27.668  10.958
59334W        W18771   1.766  13.269  11.079
59335W        W18772  44.757  12.626   0.742
59336W        W18773  29.600  39.029   1.849
59337W        W18774  16.692  35.562  11.105
59338W        W18775  32.572  42.975  14.340
59339W        W18776  20.166  23.719  13.847
59340W        W18777   2.337  40.486  13.869
59341W        W18778  38.356  18.084  11.869
59342W        W18779  30.121  20.727   2.715
59343W        W18780  37.853   2.832   1.896
59344W        W18781  19.740  27.015   2.402
59345W        W18782  14.712  25.623  14.763
59346W        W18783  33.469  27.615  12.053
59347W        W18784  28.529  24.982  12.834
59348W        W18785  20.205   9.173  14.774
59349W        W18786  35.019  21.592  11.947
59350W        W18787  16.249  29.536  12.956
59351W        W18788  26.183  15.732   0.928
59352W        W18789  19.740   5.358   0.329
59353W        W18790  20.734  10.204   2.392
59354W        W18791  15.621  38.332   3.266
59355W        W18792  34.993  20.629   0.483
59356W        W18793  21.519  44.985   3.255
59357W        W18794  18.123  31.123  13.955
59358W        W18795  36.847  26.120   2.769
59359W        W18796  30.547   0.823  12.422
59360W        W18797  13.747  44.889   2.762
59361W        W18798  12.316  13.814   2.241
59362W        W18799  17.684   4.332   1.385
59363W        W18800  40.538  30.487   3.679
59364W        W18801   5.906  14.638   1.894
59365W        W18802  11.829  21.238  11.126
59366W        W18803  29.169  19.618   3.779
59367W        W18804  36.028  40.997   3.293
59368W        W18805  42.880  35.049  12.845
59369W        W18806  17.087  15.771   1.915
59370W        W18807  34.384  14.716  12.365
59371W        W18808  34.872  13.277  11.460
59372W        W18809  43.271  27.129   1.718
59373W        W18810  12.155  33.381   1.893
59374W        W18811  44.796  10.211   3.238
59375W        W18812  30.617  31.435   0.477
59376W        W18813   5.932  23.099  13.425
59377W        W18814   0.482  11.280   4.292
59378W        W18815  34.586  22.690  11.610
59379W        W18816  14.784  23.699  13.548
59380W        W18817   6.351  39.461  11.612
59381W        W18818  39.846  25.531   2.835
59382W        W18819   2.445  26.182   3.173
59383W        W18820  38.984  34.051   4.193
59384W        W18821  40.998   2.312  10.964
59385W        W18822  27.074   5.225   0.876
59386W        W18823  31.936  28.948  13.917
59387W        W18824  34.590  23.696   0.472
59388W        W18825  43.888   5.405   3.361
59389W        W18826  15.200  29.090  12.855
59390W        W18827  30.578  34.972   2.281
59391W        W18828   4.381  23.696  14.384
59392W        W18829  32.952  39.480  13.405
59393W        W18830  39.911  15.306  11.084
59394W        W18831   6.241   7.298  14.310
59395W        W18832   9.257  24.161   4.684
59396W        W18833  14.685  24.149   2.849
59397W        W18834  23.005  33.430  11.600
59398W        W18835   3.244  17.236   1.833
59399W        W18836  38.903  20.555  12.567
59400W        W18837   5.353  24.229   2.855
59401W        W18838  28.938  43.385   0.401
59402W        W18839  15.678   3.786  14.906
59403W        W18840  34.501   1.924  14.973
59404W        W18841  18.271  34.533   1.847
59405W        W18842  11.752   4.428   0.930
59406W        W18843  42.327  30.032   1.796
59407W        W18844  26.485  29.948  11.574
59408W        W18845  24.046  37.982   0.892
59409W        W18846  17.126   7.385   1.785
59410W        W18847   1.275  24.176  14.806
59411W        W18848  29.000  20.171  12.840
59412W        W18849  36.998   7.174  12.393
59413W        W18850   4.857  12.638   2.210
59414W        W18851  18.113  32.410   2.327
59415W        W18852  24.532   3.341   1.356
59416W        W18853   3.717  32.081  12.905
59417W        W18854  20.672  23.139   1.764
59418W        W18855  38.360  43.885   3.864
59419W        W18856  20.187  36.858  14.804
59420W        W18857   8.323   8.299   0.419
59421W        W18858   7.674  26.019  11.423
59422W        W18859  39.031  24.035   3.164
59423W        W18860  30.957  36.861  13.469
59424W        W18861  42.406  28.056  13.485
59425W        W18862  44.363   4.245   2.223
59426W        W18863  32.567   0.893  13.378
59427W        W18864   7.818  21.522  12.929
59428W        W18865  15.223  35.891   3.822
59429W        W18866  13.149  21.685  11.855
59430W        W18867  15.621  18.235  13.981
59431W        W18868  36.511  30.462  14.875
59432W        W18869  39.342  23.517   3.674
59433W        W18870   4.361  28.595   4.195
59434W        W18871  29.650  31.483  11.517
59435W        W18872  18.275  18.765   1.758
59436W        W18873  43.987   5.201   2.704
59437W        W18874  27.151  35.448  14.443
59438W        W18875  37.415  14.156   4.254
59439W        W18876  32.514  33.983   1.300
59440W        W18877  12.334   4.228  10.442
59441W        W18878   0.917  16.300   5.249
59442W        W18879  39.399  42.826   0.775
59443W        W18880  22.618  10.710  13.524
59444W        W18881   5.698  20.233  11.935
59445W        W18882  13.677  13.726  11.458
59446W        W18883   2.323  43.767   1.698
59447W        W18884  36.046  25.107  11.412
59448W        W18885  35.020   6.285   5.154
59449W        W18886   8.897   5.323  14.869
59450W        W18887   2.435   4.886   4.699
59451W        W18888  40.447  27.572  11.492
59452W        W18889  15.819   7.771   2.868
59453W        W18890  16.185  33.453   2.284
59454W        W18891  43.473  35.368   9.628
59455W        W18892  14.715  12.746   5.174
59456W        W18893  19.739  28.494  10.970
59457W        W18894  14.218  26.471  12.366
59458W        W18895   2.423  33.578  12.373
59459W        W18896   3.309  33.987  12.868
59460W        W18897  42.347  15.096  11.507
59461W        W18898  37.476   8.736  11.914
59462W        W18899  35.408   3.433  10.036
59463W        W18900  43.830  37.457  13.942
59464W        W18901  37.053   1.326   1.246
59465W        W18902  31.477  44.788   4.180
59466W        W18903  14.613  35.596  13.999
59467W        W18904  21.715  10.672  13.029
59468W        W18905   3.946  12.352  10.521
59469W        W18906  31.620  35.418   4.213
59470W        W18907   6.287  20.533   4.757
59471W        W18908  10.214  23.022   4.642
59472W        W18909   0.762   4.267   2.274
59473W        W18910   7.802  44.873  12.427
59474W        W18911  16.715  17.146   0.442
59475W        W18912  26.515   5.695  11.976
59476W        W18913  22.020  33.035  14.277
59477W        W18914  16.177   0.304  13.494
59478W        W18915  18.752   4.831  14.368
59479W        W18916  30.050  12.692   4.598
59480W        W18917  13.635  36.092   4.802
59481W        W18918  21.570   0.771   3.820
59482W        W18919  35.411  41.787  13.810
59483W        W18920   2.424  12.145   3.381
59484W        W18921  44.320   9.652   2.851
59485W        W18922  20.730  44.008  11.500
59486W        W18923  13.219  36.028  10.135
59487W        W18924  26.164   5.232  11.979
59488W        W18925  16.213  25.097   2.755
59489W        W18926  25.054  17.142   3.777
59490W        W18927  30.943  37.395   0.419
59491W        W18928   2.770  12.840   0.801
59492W        W18929  39.988   4.209   2.312
59493W        W18930  26.987  28.557  14.475
59494W        W18931  11.346  14.593   0.398
59495W        W18932  12.651  39.869   4.313
59496W        W18933   3.859  31.141   0.351
59497W        W18934  22.668  28.975   0.318
59498W        W18935  33.043  23.691   1.910
59499W        W18936  19.554   4.314   0.464
59500W        W18937  15.223  25.485  11.557
59501W        W18938  14.122  11.280   2.372
59502W        W18939  42.334  19.056   1.283
59503W        W18940  19.147  42.426   3.720
59504W        W18941  22.243   7.383   4.695
59505W        W18942  44.425  14.197   2.322
59506W        W18943  19.702  43.504   4.254
59507W        W18944  34.064  24.566  12.026
59508W        W18945  22.578   4.788   0.318
59509W        W18946  30.544  24.978  12.824
59510W        W18947  11.241  22.069   4.325
59511W        W18948  43.945   5.250  10.473
59512W        W18949   8.841  42.481   3.738
59513W        W18950   7.410  11.853   5.278
59514W        W18951  33.488  29.964  14.764
59515W        W18952  18.606  17.630  14.868
59516W        W18953  26.602   3.944  12.554
59517W        W18954   0.461  26.139   2.419
59518W        W18955  33.442  13.279   2.336
59519W        W18956  36.454  11.293   0.260
59520W        W18957  37.919  12.312  12.916
59521W        W18958  42.860  27.159   5.171
59522W        W18959  26.068  10.311  13.405
59523W        W18960  15.809  31.001  10.616
59524W        W18961  28.567  32.960   2.324
59525W        W18962   5.932  39.366   3.786
59526W        W18963  37.385  27.110   4.289
59527W        W18964  36.956  42.018   3.243
59528W        W18965   6.420  18.631   0.478
59529W        W18966  11.780  26.609   2.203
59530W        W18967  35.050  31.053  13.345
59531W        W18968   1.951  33.064  12.526
59532W        W18969  15.313   6.307   4.833
59533W        W18970  15.615  25.175   4.303
59534W        W18971  16.271  42.025  13.316
59535W        W18972   0.820  22.246   2.697
59536W        W18973  29.541  30.573   2.381
59537W        W18974  11.807   6.756   3.362
59538W        W18975  28.597  26.025   4.790
59539W        W18976  13.843  24.013   3.767
59540W        W18977   4.928   0.858  12.835
59541W        W18978  43.825  40.037  14.504
59542W        W18979   8.785  31.506   2.667
59543W        W18980  44.385   2.320  13.033
59544W        W18981   0.971  32.088  12.538
59545W        W18982   4.375   3.863   0.380
59546W        W18983   2.251  17.279   1.418
59547W        W18984  42.948   0.822  13.523
59548W        W18985  16.651  33.567   1.418
59549W        W18986  38.474  12.204   3.732
59550W        W18987  19.641  40.846  10.538
59551W        W18988  31.499   0.373  10.461
59552W        W18989  28.632  33.073   0.335
59553W        W18990  39.448  31.533  14.458
59554W        W18991  19.717  43.409  12.543
59555W        W18992  15.669  20.270   3.760
59556W        W18993   0.424  23.526  11.035
59557W        W18994   3.388  28.161  14.821
59558W        W18995  24.632  12.841   2.224
59559W        W18996  42.838  38.957   3.365
59560W        W18997  21.542  40.872   3.318
59561W        W18998   5.824  16.747   4.674
59562W        W18999  11.296  40.000   1.712
59563W        W19000   7.841  34.924  14.992
59564W        W19001  25.508  24.482  11.054
59565W        W19002   1.816  21.732  12.896
59566W        W19003  32.563  13.668   1.391
59567W        W19004  22.107  31.908   0.868
59568W        W19005  42.334  18.218   4.330
59569W        W19006  41.503   7.818   0.928
59570W        W19007  18.158  35.093  10.959
59571W        W19008  38.949   4.213   0.898
59572W        W19009  37.036  33.127   0.278
59573W        W19010  43.277   3.745  13.377
59574W        W19011  10.657   1.328   2.242
59575W        W19012  38.022   7.767   4.343
59576W        W19013  41.879  35.494  12.029
59577W        W19014  26.136  10.325  12.873
59578W        W19015  25.962  21.077   3.750
59579W        W19016  19.754  25.675   1.393
59580W        W19017  44.273  42.789   0.794
59581W        W19018  11.649  24.527  11.023
59582W        W19019  19.743  22.632  10.095
59583W        W19020   8.367  25.966   1.778
59584W        W19021  41.913  28.062  12.451
59585W        W19022  42.283  42.870   3.381
59586W        W19023  34.935  18.707   2.364
59587W        W19024  11.330  39.919   3.255
59588W        W19025  38.464  28.959   1.280
59589W        W19026   8.852  36.592   2.267
59590W        W19027   8.313  18.614  14.450
59591W        W19028  40.906  44.354   2.879
59592W        W19029   2.414  22.513   0.811
59593W        W19030  43.843  26.194   1.916
59594W        W19031   1.240  34.952  14.936
59595W        W19032  20.080  15.096   2.793
59596W        W19033  26.603  21.739   0.920
59597W        W19034  12.612  22.586   0.375
59598W        W19035  27.623  40.372  11.580
59599W        W19036  32.944   7.822  14.830
59600W        W19037   6.831  25.605   9.993
59601W        W19038  36.987  26.975  13.416
59602W        W19039   7.314   6.190   4.213
59603W        W19040  18.681   4.261   1.704
59604W        W19041  31.086  32.553  13.547
59605W        W19042  39.361   9.215   0.802
59606W        W19043  40.982  14.638   1.741
59607W        W19044  21.688   5.419   3.337
59608W        W19045  36.078  32.626   4.798
59609W        W19046  28.438   5.764  11.045
59610W        W19047  25.214  37.419  14.930
59611W        W19048  34.965  42.363   4.787
59612W        W19049  25.015  12.816   0.242
59613W        W19050  32.901  36.843  10.535
59614W        W19051   6.749  29.918   0.966
59615W        W19052  34.881  12.289  14.339
59616W        W19053  10.744   9.723   1.421
59617W        W19054  17.637  20.153   2.878
59618W        W19055   3.711  23.006   1.366
59619W        W19056  20.247  39.513  11.969
59620W        W19057   5.884  29.630   2.728
59621W        W19058  25.028   4.731  12.864
59622W        W19059  38.012  12.854  11.480
59623W        W19060  22.182   6.820   1.246
59624W        W19061  27.617  10.781  11.484
59625W        W19062  21.579  26.011   3.868
59626W        W19063  36.844  34.993  11.004
59627W        W19064  43.426  32.914  14.898
59628W        W19065  32.479  44.760  11.992
59629W        W19066  16.268  13.650   4.182
59630W        W19067  38.459  38.401  12.927
59631W        W19068  24.619  17.673   3.213
59632W        W19069  43.768  13.719  14.836
59633W        W19070  34.969  36.490   1.444
59634W        W19071  10.654  20.678   2.761
59635W        W19072  43.416   6.220  13.345
59636W        W19073  37.895  21.263  14.888
59637W        W19074  30.921  20.586   1.238
59638W        W19075  26.976  25.517   0.846
59639W        W19076  18.113  25.097  10.501
59640W        W19077  32.053  43.956  13.025
59641W        W19078  32.963  36.573  12.076
59642W        W19079   9.169  41.952  13.486
59643W        W19080  35.399   8.228  13.825
59644W        W19081  27.581   4.779   2.708
59645W        W19082   9.222  30.053  10.417
59646W        W19083  36.505  39.846   3.315
59647W        W19084  10.213  21.035  13.322
59648W        W19085  42.812  27.480  10.448
59649W        W19086   1.799  15.667  10.502
59650W        W19087  15.695  15.801   3.858
59651W        W19088  18.784  30.514  12.388
59652W        W19089  36.934   9.305   0.948
59653W        W19090   6.899  21.026  12.016
59654W        W19091  34.048  25.662  12.567
59655W        W19092  42.872  28.621  11.513
59656W        W19093   8.856  29.472   0.749
59657W        W19094  23.595   9.173   2.714
59658W        W19095  33.502   0.793   0.336
59659W        W19096  29.494   6.372  12.524
59660W        W19097  18.703  22.545   0.918
59661W        W19098  37.086  36.501   1.228
59662W        W19099   3.752  38.075  12.374
59663W        W19100  21.145  29.542   0.332
59664W        W19101   5.720   7.200  12.026
59665W        W19102  41.034  28.464   2.704
59666W        W19103  19.747  20.174   4.223
59667W        W19104  23.186   3.427   4.333
59668W        W19105  22.141  38.960   2.864
59669W        W19106  34.961  22.227  13.456
59670W        W19107  36.354  33.005   4.232
59671W        W19108  12.756  37.531   2.730
59672W        W19109  35.880  23.625   4.272
59673W        W19110   8.735  23.548   1.818
59674W        W19111  40.371  35.363  14.437
59675W        W19112  42.841  17.188   3.737
59676W        W19113  35.489  40.491   3.351
59677W        W19114   3.831  41.307  12.428
59678W        W19115  39.037  30.930   4.153
59679W        W19116  39.904  11.787  10.541
59680W        W19117  25.503  35.587  14.902
59681W        W19118  29.496  21.725   0.427
59682W        W19119   3.816  11.208   1.830
59683W        W19120   2.916  42.871   2.817
59684W        W19121  15.324  31.541  13.847
59685W        W19122  28.060   6.911   9.927
59686W        W19123  19.094  44.391  14.497
59687W        W19124  43.977   5.390   2.297
59688W        W19125   0.970  11.773   4.643
59689W        W19126  20.740  12.720  10.412
59690W        W19127  10.308  34.078  14.880
59691W        W19128  12.702  40.466   4.221
59692W        W19129  34.104   4.740  13.927
59693W        W19130  42.981  11.312  12.512
59694W        W19131   9.355   3.303  11.887
59695W        W19132  18.774  12.849  12.348
59696W        W19133  27.147  43.362   1.346
59697W        W19134  43.864  18.648  11.557
59698W        W19135  15.278  28.090  13.425
59699W        W19136  16.187   5.891   1.401
59700W        W19137  23.017  18.254   1.726
59701W        W19138  29.087  35.000  13.368
59702W        W19139  13.256  29.651  13.459
59703W        W19140  16.097  16.644   5.140
59704W        W19141  17.726   7.879  11.858
59705W        W19142  34.954  18.220  14.953
59706W        W19143  29.985  13.217  11.480
59707W        W19144  28.168  36.081   0.750
59708W        W19145  17.655  20.219  11.090
59709W        W19146  25.488   2.257   0.364
59710W        W19147  33.904  28.027  13.827
59711W        W19148   5.259  36.508  12.482
59712W        W19149  43.381   6.847   3.320
59713W        W19150  19.774  10.219   3.292
59714W        W19151  14.125  23.210   0.875
59715W        W19152  13.187   8.199  14.405
59716W        W19153  14.116   6.395   0.410
59717W        W19154  41.538   9.746  12.355
59718W        W19155  33.966  41.383   0.817
59719W        W19156  24.190  31.133  13.858
59720W        W19157  44.756   9.366  14.833
59721W        W19158  29.518  42.909   0.280
59722W        W19159  19.158  26.622   4.186
59723W        W19160  10.241   9.195  13.498
59724W        W19161  28.107  37.400   1.915
59725W        W19162  32.970  18.712   3.364
59726W        W19163  12.709  24.013   4.599
59727W        W19164  23.496   1.933   2.792
59728W        W19165  41.376   9.202   1.754
59729W        W19166   2.463  44.867   0.916
59730W        W19167   1.818  33.967   1.881
59731W        W19168   5.269  25.060  14.452
59732W        W19169  33.432  26.480   5.172
59733W        W19170  39.362  13.834  11.588
59734W        W19171  33.097  13.808  11.974
59735W        W19172  13.335  43.818   2.893
59736W        W19173   6.328  13.727  11.860
59737W        W19174  25.163  15.699   0.374
59738W        W19175   3.817  22.717   2.187
59739W        W19176  14.650  10.729   4.187
59740W        W19177  42.865  43.918   4.600
59741W        W19178  26.028  42.932   0.280
59742W        W19179  36.502  15.781  12.471
59743W        W19180   3.826  14.172  10.919
59744W        W19181   9.340   0.756   2.850
59745W        W19182   1.385  16.253  13.869
59746W        W19183  14.193  26.159  11.442
59747W        W19184  24.140  36.382  14.955
59748W        W19185   8.805  25.494   1.361
59749W        W19186  17.266  26.640  12.936
59750W        W19187  37.556   1.844  11.954
59751W        W19188   6.191   4.407  14.983
59752W        W19189  42.013  25.008  10.404
59753W        W19190  33.522   7.733  14.893
59754W        W19191  18.748  30.926   2.741
59755W        W19192  32.491  28.585  12.839
59756W        W19193  32.535  26.550  10.519
59757W        W19194  16.685  33.065  12.407
59758W        W19195   6.398   0.397   4.821
59759W        W19196   4.422  39.881  11.477
59760W        W19197  24.490  22.651   1.793
59761W        W19198  33.914  23.531  11.527
59762W        W19199  15.797  37.963  13.892
59763W        W19200  36.987  11.716   0.909
59764W        W19201  13.151  22.060  13.499
59765W        W19202  17.581  13.644  12.904
59766W        W19203   1.339   1.396   2.873
59767W        W19204   2.720  40.430  13.319
59768W        W19205   5.428  29.960  12.367
59769W        W19206  19.615   0.388  13.481
59770W        W19207   9.727  30.086  14.402
59771W        W19208   6.264  13.714   4.145
59772W        W19209   3.221   3.229  13.004
59773W        W19210  32.460  30.441   5.306
59774W        W19211  35.103  14.153  12.539
59775W        W19212  20.614  20.591   3.869
59776W        W19213   3.298   3.895   2.297
59777W        W19214  29.463  13.753  11.888
59778W        W19215  25.550  32.556   0.792
59779W        W19216  41.982  21.702  12.838
59780W        W19217  26.063  42.800   4.193
59781W        W19218  30.103  38.933   0.729
59782W        W19219   9.848  41.324  10.962
59783W        W19220   7.352  34.408  11.562
59784W        W19221  43.377  15.188  13.969
59785W        W19222  21.732   5.436  14.991
59786W        W19223  13.114  23.498  12.974
59787W        W19224  34.955  11.759   3.830
59788W        W19225   0.393  38.916  14.867
59789W        W19226  25.099   6.326   2.196
59790W        W19227  41.336  41.902   3.845
59791W        W19228  44.862  37.893   2.676
59792W        W19229  11.805  12.838   1.892
59793W        W19230  34.377  19.575  14.494
59794W        W19231  28.560  44.307  11.125
59795W        W19232  14.773  21.743  11.099
59796W        W19233  17.091  40.452   0.895
59797W        W19234  42.014  10.175   4.696
59798W        W19235   1.338  17.176  11.427
59799W        W19236  11.644   4.853  12.864
59800W        W19237  36.040   8.310   0.947
59801W        W19238  19.645  44.960  12.891
59802W        W19239   8.788  43.832  11.503
59803W        W19240  21.132  44.333   5.207
59804W        W19241  23.153   0.283  14.372
59805W        W19242  14.647   4.867  11.950
59806W        W19243   5.408  15.591   4.733
59807W        W19244   2.903  22.219   3.328
59808W        W19245  39.549  23.157  14.479
59809W        W19246  24.620  33.003   1.857
59810W        W19247  23.677   8.702   1.276
59811W        W19248  38.378  17.719   0.729
59812W        W19249  22.026   8.729  14.878
59813W        W19250   5.755   0.266  11.482
59814W        W19251  21.715   2.262   3.760
59815W        W19252  13.602  23.150  14.499
59816W        W19253  15.158  31.933   4.674
59817W        W19254  35.868   6.919   4.668
59818W        W19255   5.769   6.748   3.782
59819W        W19256   0.361  13.773   5.285
59820W        W19257   0.829  21.080   0.892
59821W        W19258  18.649   4.292   2.826
59822W        W19259  22.656   5.390  13.798
59823W        W19260  11.279  42.863  11.020
59824W        W19261  30.141   0.974  11.931
59825W        W19262  31.051   6.257   3.196
59826W        W19263  29.559  27.548   1.221
59827W        W19264   2.854   4.438  11.939
59828W        W19265  24.641   7.184   4.128
59829W        W19266  36.998   8.686   4.227
59830W        W19267   5.418  37.554  13.327
59831W        W19268  42.008  19.672  10.007
59832W        W19269   9.240  14.159   4.800
59833W        W19270  14.156  16.683   4.297
59834W        W19271   0.855   7.716  11.443
59835W        W19272  43.465   9.754  12.875
59836W        W19273  37.884   6.361  10.632
59837W        W19274  43.991  12.852  14.895
59838W        W19275  28.052  17.707  10.128
59839W        W19276  38.961  25.172   4.805
59840W        W19277   1.961  40.314   3.235
59841W        W19278  16.238   9.748   4.770
59842W        W19279  36.429   9.814   2.204
59843W        W19280   8.793  12.702  10.493
59844W        W19281  13.825  30.024  12.947
59845W        W19282  18.662  40.919   2.221
59846W        W19283  39.868  39.943   3.758
59847W        W19284  12.727  29.657  13.988
59848W        W19285  15.126   6.753   3.195
59849W        W19286  35.414   9.336  14.402
59850W        W19287  28.640   7.349  11.125
59851W        W19288   7.804   4.708  13.317
59852W        W19289  10.372  34.457   1.225
59853W        W19290   7.190  25.990  13.946
59854W        W19291  23.581   0.789  14.020
59855W        W19292   3.298  33.623   1.865
59856W        W19293  21.249   0.761  14.762
59857W        W19294  19.169  36.558  11.499
59858W        W19295   9.324  10.809   3.701
59859W        W19296  25.101  44.301  13.880
59860W        W19297  11.311  22.611  14.276
59861W        W19298  39.930  35.435  10.995
59862W        W19299  41.879  17.240   1.275
59863W        W19300  14.734   3.219  14.286
59864W        W19301  40.519   0.419   3.769
59865W        W19302   0.748  31.531   0.427
59866W        W19303  13.297   2.842   3.640
59867W        W19304   0.955  30.641  10.052
59868W        W19305  35.542   2.748   2.756
59869W        W19306  24.578  27.047   4.176
59870W        W19307  12.126  37.912  14.449
59871W        W19308  34.005  35.871  14.410
59872W        W19309  25.182  11.759  14.433
59873W        W19310  33.441  44.491   4.298
59874W        W19311  34.468  20.697  14.814
59875W        W19312  27.060  22.551  10.488
59876W        W19313  39.918   7.912  14.977
59877W        W19314  20.181  10.711  13.467
59878W        W19315  38.491  10.292   0.351
59879W        W19316  13.256  38.501   2.800
59880W        W19317  11.790  22.735  14.770
59881W        W19318  41.787  34.433  10.072
59882W        W19319  14.826  17.218   0.271
59883W        W19320  30.540  44.861   4.687
59884W        W19321  15.788  21.652  14.404
59885W        W19322  33.566   7.779   0.440
59886W        W19323  13.111  16.708  11.570
59887W        W19324  29.950  30.117  10.958
59888W        W19325   8.350   1.380   1.369
59889W        W19326  36.018  43.805   0.962
59890W        W19327  13.669  28.540   1.847
59891W        W19328  22.185  31.005  11.062
59892W        W19329  24.122  29.484  10.462
59893W        W19330   3.422  37.408   3.154
59894W        W19331  33.981  36.527  10.634
59895W        W19332  39.009  34.886   3.760
59896W        W19333   4.371  24.553  10.930
59897W        W19334  33.536  15.819  14.956
59898W        W19335   5.847   6.241   1.710
59899W        W19336  35.502  17.792   3.234
59900W        W19337  16.789  35.866   2.275
59901W        W19338  43.842   3.215   2.404
59902W        W19339  36.037   1.934   1.449
59903W        W19340  17.166  13.262  14.841
59904W        W19341  14.150  22.606   1.843
59905W        W19342   4.721  37.876  13.341
59906W        W19343  36.885  26.526   3.835
59907W        W19344   0.283  11.307  13.459
59908W        W19345  23.177  12.709   9.975
59909W        W19346  30.543  30.131  14.496
59910W        W19347  23.099   5.866  13.881
59911W        W19348  10.744  24.521  10.408
59912W        W19349  43.986   1.757  11.997
59913W        W19350  38.439   0.790  14.782
59914W        W19351  18.107  17.105   3.317
59915W        W19352  44.445  25.120   3.218
59916W        W19353  39.015  18.630  11.007
59917W        W19354  38.035   2.319   4.733
59918W        W19355   8.800  44.322   3.261
59919W        W19356  15.789   2.279  14.936
59920W        W19357  26.504  15.613  11.593
59921W        W19358  38.389  29.970  14.826
59922W        W19359  21.049  16.228   3.178
59923W        W19360  39.025  13.666  12.485
59924W        W19361  33.930   4.714   1.275
59925W        W19362  24.111  24.487  11.858
59926W        W19363   9.647   2.291  13.018
59927W        W19364  10.216   6.304   1.337
59928W        W19365   2.775  38.068   2.302
59929W        W19366  23.090  38.551  11.992
59930W        W19367  12.220  41.933   2.386
59931W        W19368  42.810   8.398  14.928
59932W        W19369  39.037   2.396  11.890
59933W        W19370  28.502   6.891  12.947
59934W        W19371  30.014  15.791  12.961
59935W        W19372   0.423  44.415  13.057
59936W        W19373  13.295   1.416  13.469
59937W        W19374  11.149   2.436   2.728
59938W        W19375  24.485  13.259   3.233
59939W        W19376  16.312  41.416  12.878
59940W        W19377   3.387  32.009  13.966
59941W        W19378   4.425  18.109  13.434
59942W        W19379   1.937   3.774   5.091
59943W        W19380  35.498   3.922  12.837
59944W        W19381  21.667  21.544  13.003
59945W        W19382  34.084  25.054   9.669
59946W        W19383   8.866  21.514   2.807
59947W        W19384  28.932  16.662   2.188
59948W        W19385   0.850  20.576   2.415
59949W        W19386  20.676   3.353   3.160
59950W        W19387   3.953  29.433  12.014
59951W        W19388  40.949   9.328   3.197
59952W        W19389  19.240  35.854   0.827
59953W        W19390  12.253  36.382  10.406
59954W        W19391   5.739  31.898   1.855
59955W        W19392  34.502  35.388   1.350
59956W        W19393  32.931  11.172  11.965
59957W        W19394  40.366   7.897   2.298
59958W        W19395  19.594  15.134  10.478
59959W        W19396  13.680  26.967   1.335
59960W        W19397   6.199  36.393  12.555
59961W        W19398  44.360  18.739  11.524
59962W        W19399   7.686  20.083  13.961
59963W        W19400  31.639  21.057  13.028
59964W        W19401   2.895  35.413   1.772
59965W        W19402   4.402  26.587   0.462
59966W        W19403  13.244  22.551  13.940
59967W        W19404  10.368  29.484   2.333
59968W        W19405   7.893  25.520  14.982
59969W        W19406   1.460  36.010   2.888
59970W        W19407  41.850  11.273   0.801
59971W        W19408  25.691  33.119  11.999
59972W        W19409  21.063  28.435  14.845
59973W        W19410  32.136  29.022   2.880
59974W        W19411  17.689   1.436  13.802
59975W        W19412  40.392  13.760  10.961
59976W        W19413  35.884   7.190   3.295
59977W        W19414  44.468  26.550   1.925
59978W        W19415  40.438  21.619  14.805
59979W        W19416   4.940   6.771   4.728
59980W        W19417  29.030   8.660   1.700
59981W        W19418   0.283  39.415  14.827
59982W        W19419  31.148  12.665   1.849
59983W        W19420  27.635  41.979  12.510
59984W        W19421  26.105  38.012   0.884
59985W        W19422  27.072   4.369  13.930
59986W        W19423   7.841  22.180  14.454
59987W        W19424  14.138   0.307   2.813
59988W        W19425  25.065  33.952   4.616
59989W        W19426  39.844  15.263  14.463
59990W        W19427  22.674   7.272  10.122
59991W        W19428   4.817  42.465  12.872
59992W        W19429  12.662  24.188  13.381
59993W        W19430   7.780  18.278   3.808
59994W        W19431  42.454  31.453  11.111
59995W        W19432   1.768  22.635   0.732
59996W        W19433  33.917  34.925   3.200
59997W        W19434   6.864  34.576   4.233
59998W        W19435  34.038   3.400  12.500
59999W        W19436  33.971  16.193  11.024
60000W        W19437  11.243  40.544   4.282
60001W        W19438  19.637  10.780   0.282
60002W        W19439  17.271  24.230   0.885
60003W        W19440  44.431  40.923  10.406
60004W        W19441  22.520  38.442  12.993
60005W        W19442  26.007   1.362  11.486
60006W        W19443  19.754  32.102  11.529
60007W        W19444  22.186  18.590   3.300
60008W        W19445  26.582  35.571  12.414
60009W        W19446  42.454  11.657   3.831
60010W        W19447  26.632  18.627  10.638
60011W        W19448  21.605   4.351  11.939
60012W        W19449  35.082  33.937   1.219
60013W        W19450  29.488   1.823   2.299
60014W        W19451   2.852  31.938  14.944
60015W        W19452   2.251  40.363  11.916
60016W        W19453   2.859  38.076  11.091
60017W        W19454   2.375  36.483  14.929
60018W        W19455  34.580   0.305   4.214
60019W        W19456   9.737  43.400   4.821
60020W        W19457   5.362  27.094   2.838
60021W        W19458  13.795  44.984  11.922
60022W        W19459  17.072  37.895   5.595
60023W        W19460  23.162   6.265  11.515
60024W        W19461  16.126  15.215   1.700
60025W        W19462  30.013  33.502  12.400
60026W        W19463  44.941  31.946  14.027
60027W        W19464  16.804  38.849   4.130
60028W        W19465   3.950  34.457   3.364
60029W        W19466  39.007  15.177   3.764
60030W        W19467   3.275  13.346  11.546
60031W        W19468  13.796  28.456  14.784
60032W        W19469   0.416  32.561   4.762
60033W        W19470  36.582   4.405  12.410
60034W        W19471  23.496  13.192   4.272
60035W        W19472  17.772  43.884   5.606
60036W        W19473  31.632  14.764   1.449
60037W        W19474  40.965  27.150  12.940
60038W        W19475  40.399  15.119  10.938
60039W        W19476  13.216  15.113   4.289
60040W        W19477  19.194  31.598  11.460
60041W        W19478  28.971   7.801   0.283
60042W        W19479  19.204  39.985  14.766
60043W        W19480  25.105  37.007  12.827
60044W        W19481  21.208  39.344   2.411
60045W        W19482  16.570  24.684   0.830
60046W        W19483  40.856   0.940   4.769
60047W        W19484  27.948   0.789   1.383
60048W        W19485  12.683  38.499   3.829
60049W        W19486   1.863  29.941   0.267
60050W        W19487  11.139  43.363   3.791
60051W        W19488  26.120  10.190   0.427
60052W        W19489  31.993   7.881   5.236
60053W        W19490  20.656  15.109   0.728
60054W        W19491  20.573  12.191  12.422
60055W        W19492  23.038  16.670  12.855
60056W        W19493  14.244  35.489   0.267
60057W        W19494  33.608  17.586  13.892
60058W        W19495  27.164  40.424  11.082
60059W        W19496  16.695  21.520   0.756
60060W        W19497  10.361  26.470  13.821
60061W        W19498  13.281  31.613   4.727
60062W        W19499   5.251  17.169  10.952
60063W        W19500  27.963  37.450   2.775
60064W        W19501  37.435  12.723  13.307
60065W        W19502  31.044  10.732   0.859
60066W        W19503  30.511  39.352   2.698
60067W        W19504  41.321  34.450  10.593
60068W        W19505  30.641  37.362   5.255
60069W        W19506  28.656  11.675   1.432
60070W        W19507  19.656  39.818  12.009
60071W        W19508  33.107   7.799  12.382
60072W        W19509  10.640  13.733  12.512
60073W        W19510   5.426  27.949  13.534
60074W        W19511  15.241  31.068   1.282
60075W        W19512  44.330  24.074  14.455
60076W        W19513  30.613   2.937  11.424
60077W        W19514  35.083   7.292  10.406
60078W        W19515  28.520  44.949  10.525
60079W        W19516  25.648  34.542   3.280
60080W        W19517  31.938   0.436  13.961
60081W        W19518  32.572  35.857   1.433
60082W        W19519  11.156  30.117   3.228
60083W        W19520   9.665  25.546  10.904
60084W        W19521   0.796  23.688  11.508
60085W        W19522  34.879  17.733  14.502
60086W        W19523  43.357   5.276   0.906
60087W        W19524  14.095  39.880   2.388
60088W        W19525  30.161  25.525   1.907
60089W        W19526  43.462  32.910   1.798
60090W        W19527  32.076  44.458   1.443
60091W        W19528  16.137  22.641  10.985
60092W        W19529  44.287  36.088  11.114
60093W        W19530  33.389   8.385  14.358
60094W        W19531  31.453  10.384  12.002
60095W        W19532  35.560  37.580   3.699
60096W        W19533  34.389  29.993   4.813
60097W        W19534  16.255  25.522  11.504
60098W        W19535  43.865  31.432  11.572
60099W        W19536  13.323  24.166   0.860
60100W        W19537  34.550  38.413  11.949
60101W        W19538  10.308  17.675   1.735
60102W        W19539  35.936  22.707   1.802
60103W        W19540  11.810  31.543   3.725
60104W        W19541  26.536  38.042   0.472
60105W        W19542   4.886  22.615  14.516
60106W        W19543  25.489  28.453   0.342
60107W        W19544  14.759  19.762   1.243
60108W        W19545  43.789  31.992  13.950
60109W        W19546  22.537  29.653   0.866
60110W        W19547  22.585  40.464  10.936
60111W        W19548  27.669  14.632  13.328
60112W        W19549  19.674  35.926   0.321
60113W        W19550  17.222   7.724  14.816
60114W        W19551  32.065  20.166   2.878
60115W        W19552   2.930  35.402  10.572
60116W        W19553  32.474   3.452  12.858
60117W        W19554  40.347  24.109   0.820
60118W        W19555  26.465   5.347   2.195
60119W        W19556  28.158  15.277  11.010
60120W        W19557   4.221   3.350   2.768
60121W        W19558  16.271  20.626   2.343
60122W        W19559  16.256  19.559  11.374
60123W        W19560  17.214   1.326  11.512
60124W        W19561  12.251  29.642   3.300
60125W        W19562  11.828   8.354  14.023
60126W        W19563   0.809  19.651   2.193
60127W        W19564   6.344  40.377   3.203
60128W        W19565  44.414  28.174   3.341
60129W        W19566  39.028   6.264  14.873
60130W        W19567  40.052  18.084  14.954
60131W        W19568   3.383   5.255  14.796
60132W        W19569  32.618   2.305  11.466
60133W        W19570  37.392  36.058  11.906
60134W        W19571  10.146  13.121  14.804
60135W        W19572  20.650  23.684   4.279
60136W        W19573  29.075  27.079   0.838
60137W        W19574   9.797  17.759   4.210
60138W        W19575  13.699   3.713   2.808
60139W        W19576  20.197  43.270   3.377
60140W        W19577  15.648  20.548  14.404
60141W        W19578  10.747   9.359  11.488
60142W        W19579  20.708  15.327   1.233
60143W        W19580  13.128  41.536  11.009
60144W        W19581  15.135  34.902   0.369
60145W        W19582  23.684  39.845   1.279
60146W        W19583  44.948  24.085  11.116
60147W        W19584  22.098  24.635  11.958
60148W        W19585   2.954  20.640   0.364
60149W        W19586  26.483   2.328   1.385
60150W        W19587  34.470  34.599  14.868
60151W        W19588   9.201  12.341   1.357
60152W        W19589  36.524  22.221   4.831
60153W        W19590   8.331  17.633   4.228
60154W        W19591  36.962  15.794  10.500
60155W        W19592  33.976  12.209  10.557
60156W        W19593   7.833   3.319  11.911
60157W        W19594  34.989   2.862   0.411
60158W        W19595  16.172  41.827   2.368
60159W        W19596  16.710  28.444   0.293
60160W        W19597  11.234  38.059  12.395
60161W        W19598  10.285  22.185   4.336
60162W        W19599   4.226   1.810   4.301
60163W        W19600  16.150  33.449  13.948
60164W        W19601  43.288  14.222  12.420
60165W        W19602   0.442  22.184  12.044
60166W        W19603  21.169  38.000  10.924
60167W        W19604  39.036  33.442  11.967
60168W        W19605  13.239  15.646  12.051
60169W        W19606  18.212  22.217   4.649
60170W        W19607  29.590  39.866  12.931
60171W        W19608  43.876  22.045   3.293
60172W        W19609   4.336  22.145  14.497
60173W        W19610   4.410  41.975  14.783
60174W        W19611  37.560  24.586  13.911
60175W        W19612  21.145  37.967  13.903
60176W        W19613  37.390  39.830   3.323
60177W        W19614  42.346  36.069  11.951
60178W        W19615  13.228  36.452  12.091
60179W        W19616  32.514   0.302  13.463
60180W        W19617   9.732   9.664  14.512
60181W        W19618  17.641  36.975  11.399
60182W        W19619  22.631  26.065  14.991
60183W        W19620  24.518   5.863  13.322
60184W        W19621  29.492  19.056   3.174
60185W        W19622  43.962  27.186   4.660
60186W        W19623  39.396   0.868   2.300
60187W        W19624  33.046  33.423  12.082
60188W        W19625  36.916  17.725  14.386
60189W        W19626  19.732  27.509  12.829
60190W        W19627   4.758  35.088   0.344
60191W        W19628  12.321   2.438   1.695
60192W        W19629  30.555  14.226   1.780
60193W        W19630  24.062  21.200   4.312
60194W        W19631  19.651  43.832  13.896
60195W        W19632  12.801  22.027  12.429
60196W        W19633   4.834   1.377  11.941
60197W        W19634  35.993  12.224   4.733
60198W        W19635   3.950  20.680  11.427
60199W        W19636  25.035  30.637  11.983
60200W        W19637  15.125   9.684   3.642
60201W        W19638  24.064   3.730  10.595
60202W        W19639   4.930   7.767   0.357
60203W        W19640  23.037  30.589   0.314
60204W        W19641  40.981   6.873  13.048
60205W        W19642  24.984  11.180  13.035
60206W        W19643  42.023   8.250  13.456
60207W        W19644  31.647  13.118   3.709
60208W        W19645  39.511  34.578   0.885
60209W        W19646  33.935  37.432   5.083
60210W        W19647   9.296   6.835   4.187
60211W        W19648  39.038  22.658   5.102
60212W        W19649  20.693  19.641   2.339
60213W        W19650   1.427  20.184  13.900
60214W        W19651  24.228  26.000  13.344
60215W        W19652  24.008  29.572   0.892
60216W        W19653  16.621  29.013  11.910
60217W        W19654  21.721  20.529   1.215
60218W        W19655  25.522  30.552   3.150
60219W        W19656   2.276  25.088  12.091
60220W        W19657  19.577  24.028  14.320
60221W        W19658  33.082  22.092   0.895
60222W        W19659   1.897  43.297   1.307
60223W        W19660  25.070  26.685  10.597
60224W        W19661  29.480  27.033   2.181
60225W        W19662  40.334  23.577  13.912
60226W        W19663   2.432   5.339   0.809
60227W        W19664  17.587  36.574  12.457
60228W        W19665  19.253   6.329   4.658
60229W        W19666  28.462  31.410  11.523
60230W        W19667  29.622   7.794  13.840
60231W        W19668  14.225  17.618   0.340
60232W        W19669   2.376   8.225  14.944
60233W        W19670  39.907   7.810  10.914
60234W        W19671  26.176   6.242   4.121
60235W        W19672   5.356  43.393   4.317
60236W        W19673  30.525  28.548  14.931
60237W        W19674  23.203  44.809  11.965
60238W        W19675  30.057  21.080  14.760
60239W        W19676  38.510  27.687  12.955
60240W        W19677  31.947  41.386   0.809
60241W        W19678  16.075  33.440   0.378
60242W        W19679  30.020  19.677   4.143
60243W        W19680  31.573  18.180   4.752
60244W        W19681  32.499  14.101   3.650
60245W        W19682  37.989  44.372  13.407
60246W        W19683  22.181  27.082  14.765
60247W        W19684  34.453  22.130  10.487
60248W        W19685  30.417  32.004  14.486
60249W        W19686  41.380  23.228   2.888
60250W        W19687  17.286   6.232   5.280
60251W        W19688  31.936   9.204  10.467
60252W        W19689   6.695  29.970  13.529
60253W        W19690  13.734  38.507   2.385
60254W        W19691  30.955   9.323  13.421
60255W        W19692  32.420  21.038  10.891
60256W        W19693   8.233  12.263  11.122
60257W        W19694   7.744  44.007   4.698
60258W        W19695  15.183  14.804  10.500
60259W        W19696   6.807  32.030   1.761
60260W        W19697  34.962  34.379  11.037
60261W        W19698  42.287  20.137  10.528
60262W        W19699  25.178  16.672   4.751
60263W        W19700  37.452  37.427   3.836
60264W        W19701  36.495  27.508  10.449
60265W        W19702  42.033   7.302  10.446
60266W        W19703  17.706  41.414   1.243
60267W        W19704  19.174  22.144  13.987
60268W        W19705  29.441  21.548  12.526
60269W        W19706  43.929   6.345  14.796
60270W        W19707   0.420  31.918  10.904
60271W        W19708  23.994   8.188   0.358
60272W        W19709  30.023  25.703   9.436
60273W        W19710  41.454  16.639  10.522
60274W        W19711  22.113  32.484   3.326
60275W        W19712  14.697  17.640   3.672
60276W        W19713  33.058  37.947  10.156
60277W        W19714  42.390  26.492   0.372
60278W        W19715  39.453   5.774   2.414
60279W        W19716  33.048  25.616   4.259
60280W        W19717  14.627  28.934  13.820
60281W        W19718  16.708  41.515  10.551
60282W        W19719   9.701  32.116   3.161
60283W        W19720  24.545   8.401   0.281
60284W        W19721   6.281  21.161   4.336
60285W        W19722   4.888   9.198  10.563
60286W        W19723   1.454   2.322  14.343
60287W        W19724  17.655  22.024   1.290
60288W        W19725  37.353  10.362   3.780
60289W        W19726  11.755   9.244   2.206
60290W        W19727  40.412  10.369   1.791
60291W        W19728  23.991  37.374  13.825
60292W        W19729   2.828  34.926  10.407
60293W        W19730  34.506  15.723   3.216
60294W        W19731  17.210  32.584  10.935
60295W        W19732   1.732  38.512   2.724
60296W        W19733  19.576  31.617   3.353
60297W        W19734  41.933  41.484   3.832
60298W        W19735  30.979  42.352   0.800
60299W        W19736   0.264  35.388  13.504
60300W        W19737  41.453  34.969   4.257
60301W        W19738  35.034  31.963   4.146
60302W        W19739  33.571  33.903  14.938
60303W        W19740   6.201  25.505  14.405
60304W        W19741  11.696  32.622   0.344
60305W        W19742  43.442   6.187  12.528
60306W        W19743  20.633  25.694   2.847
60307W        W19744  39.506   1.788  14.895
60308W        W19745  36.505  33.613   5.195
60309W        W19746  28.019   4.855   9.983
60310W        W19747  41.916   7.861  11.903
60311W        W19748  28.992  15.263  13.019
60312W        W19749   7.690   0.433   3.237
60313W        W19750  32.918   7.808  12.955
60314W        W19751  19.123  33.987  11.991
60315W        W19752  43.420   9.814  12.550
60316W        W19753   3.241  19.692  14.858
60317W        W19754  20.583  12.284   3.869
60318W        W19755  14.328  31.967   4.161
60319W        W19756  43.821  10.187  10.467
60320W        W19757  36.883  26.119   1.264
60321W        W19758  38.549  11.247   2.261
60322W        W19759  42.021   3.301   2.394
60323W        W19760  25.031   4.846   2.299
60324W        W19761   2.791  28.089   3.246
60325W        W19762  11.333  13.337   3.635
60326W        W19763  42.889  13.150   0.308
60327W        W19764  32.449   7.820  13.910
60328W        W19765  18.131  34.978  13.812
60329W        W19766  13.841  26.688   1.238
60330W        W19767   9.791  26.011  12.452
60331W        W19768   3.288  37.558  14.841
60332W        W19769  42.447  21.702   2.230
60333W        W19770   7.815  25.672  11.559
60334W        W19771  25.045  19.707  12.047
60335W        W19772   6.870   2.895   3.725
60336W        W19773   5.750  29.059  13.515
60337W        W19774  19.161   8.391  14.985
60338W        W19775  16.156  18.245   4.790
60339W        W19776  14.220  42.856  11.900
60340W        W19777  14.775  11.667  13.968
60341W        W19778  27.581  18.241  14.462
60342W        W19779  37.916  39.885  10.903
60343W        W19780  42.450  24.004   2.761
60344W        W19781  21.744   0.351  13.524
60345W        W19782  35.579  20.197   3.328
60346W        W19783  14.791  32.394   1.320
60347W        W19784   8.239  13.751   3.326
60348W        W19785  18.273   5.362   2.188
60349W        W19786  42.981  27.687  12.510
60350W        W19787   3.842  28.165  11.955
60351W        W19788   3.405  37.403  12.916
60352W        W19789  26.030  13.746  10.556
60353W        W19790   8.392  36.850   2.688
60354W        W19791  19.550  38.041  14.837
60355W        W19792  25.032   2.798   3.373
60356W        W19793  17.563  22.219   0.957
60357W        W19794  33.967  21.589   9.477
60358W        W19795  36.985  24.015  11.376
60359W        W19796  41.810  13.647  13.335
60360W        W19797  40.432  14.593   4.615
60361W        W19798  16.234  13.655  12.448
60362W        W19799   3.338   6.903   3.338
60363W        W19800  35.565  26.631  14.437
60364W        W19801  15.083   2.759   2.723
60365W        W19802  15.257  20.240  14.380
60366W        W19803  44.786  32.978  13.008
60367W        W19804  40.024  18.160  10.507
60368W        W19805   4.425  34.560  11.532
60369W        W19806   9.208   6.790  12.993
60370W        W19807  20.712  17.613   3.146
60371W        W19808  35.534  23.594  13.369
60372W        W19809   6.861   5.230  13.442
60373W        W19810  17.568  40.027  12.429
60374W        W19811  42.000  14.722  12.926
60375W        W19812  17.706  35.578   0.875
60376W        W19813  38.838   6.223   0.794
60377W        W19814  42.003  43.886  14.393
60378W        W19815   9.335  28.098   1.899
60379W        W19816  39.887  35.366  14.867
60380W        W19817  29.121  13.677  11.579
60381W        W19818   6.688  29.592   1.246
60382W        W19819  37.072  15.706   0.848
60383W        W19820  16.594  10.718  14.004
60384W        W19821  12.115  28.445   3.373
60385W        W19822  31.552  10.146   0.310
60386W        W19823  10.141  37.979  14.441
60387W        W19824  39.017  29.011   4.806
60388W        W19825  44.287   4.885  11.029
60389W        W19826  43.467  19.661  11.469
60390W        W19827  31.547  21.519  14.768
60391W        W19828  40.516   1.868  10.986
60392W        W19829  30.050   9.386  11.584
60393W        W19830  20.068   1.976   1.703
60394W        W19831  15.813  21.524  14.883
60395W        W19832  22.552   5.352  11.917
60396W        W19833   7.731   5.282   1.385
60397W        W19834  36.970  11.127   2.195
60398W        W19835   6.314  15.300  13.961
60399W        W19836  34.446  16.803  14.763
60400W        W19837  17.785  16.661  12.965
60401W        W19838  28.599  42.032   4.166
60402W        W19839   9.694   6.238  10.434
60403W        W19840  15.100  31.918  10.568
60404W        W19841  43.903  19.132  10.611
60405W        W19842   3.820  15.768   3.291
60406W        W19843   1.770  39.314   3.853
60407W        W19844  28.086  13.683  11.096
60408W        W19845  18.263  10.269  10.983
60409W        W19846  40.950  43.832  11.010
60410W        W19847  28.183  12.739   0.344
60411W        W19848  36.405  27.009  14.445
60412W        W19849   0.408  38.836   0.367
60413W        W19850   1.855   8.349   0.739
60414W        W19851  26.504   1.343  10.525
60415W        W19852  15.227  10.683  10.928
60416W        W19853  33.916   2.855  13.457
60417W        W19854  29.053  42.899   2.728
60418W        W19855  43.952  31.973   3.709
60419W        W19856  24.226  27.614  12.407
60420W        W19857  25.081  21.613   9.446
60421W        W19858   5.253  21.632   1.809
60422W        W19859  43.912   8.356  14.904
60423W        W19860  16.172  30.952   2.797
60424W        W19861  25.642  22.127  10.985
60425W        W19862  41.911   8.832  14.398
60426W        W19863  35.549  13.746   4.227
60427W        W19864  30.999   1.732  13.404
60428W        W19865   0.440   8.362  10.579
60429W        W19866  24.668  39.824  13.831
60430W        W19867  27.575  19.143  10.548
60431W        W19868  43.885  24.091   1.772
60432W        W19869   6.273   1.965  12.906
60433W        W19870  25.634  27.178  11.520
60434W        W19871   0.768  39.490  14.380
60435W        W19872  26.515   1.843  10.937
60436W        W19873  22.530  24.527  10.128
60437W        W19874  23.218  16.277  11.903
60438W        W19875  18.154  43.445  14.457
60439W        W19876  33.493  20.670   0.473
60440W        W19877  14.668   5.815  14.399
60441W        W19878  18.728  15.105   3.775
60442W        W19879  22.044  34.060   0.779
60443W        W19880  30.442  23.153  11.490
60444W        W19881  40.530  37.931  12.932
60445W        W19882  20.238   0.884  12.504
60446W        W19883  43.481  44.298  14.515
60447W        W19884  41.337  44.009  14.842
60448W        W19885   7.411  26.180   0.351
60449W        W19886  13.152  32.060  10.587
60450W        W19887  44.010  32.937   0.807
60451W        W19888  29.556  16.694   2.404
60452W        W19889  15.642  21.073   3.813
60453W        W19890  29.519  18.153   2.831
60454W        W19891  15.746  20.246  13.988
60455W        W19892  37.087  44.446  14.836
60456W        W19893  23.137  38.937   2.325
60457W        W19894  20.579   3.880  12.990
60458W        W19895  37.008  10.672  12.577
60459W        W19896  42.779  28.557  12.351
60460W        W19897  12.743  32.508   0.412
60461W        W19898  13.304  11.861   2.336
60462W        W19899  17.682  42.493  12.472
60463W        W19900  34.501  32.518   3.653
60464W        W19901  15.672  14.744  13.002
60465W        W19902  17.589  32.623   1.833
60466W        W19903  10.294  37.503  12.976
60467W        W19904   5.721  24.492  12.486
60468W        W19905   5.356  21.089  11.124
60469W        W19906  15.116  13.685  13.393
60470W        W19907  33.999   8.860   3.724
60471W        W19908   0.320   0.255  13.954
60472W        W19909  13.264   5.876  12.054
60473W        W19910   2.306  37.484  11.004
60474W        W19911  10.633  21.673  14.930
60475W        W19912   0.343  44.774   1.318
60476W        W19913  18.620   1.857   4.267
60477W        W19914  17.676   2.406  12.986
60478W        W19915  11.679  21.142   5.263
60479W        W19916   8.786   1.941  12.372
60480W        W19917  44.973   4.393   2.886
60481W        W19918   9.319  20.769   3.871
60482W        W19919  32.110  28.151   5.124
60483W        W19920  23.053  35.521   4.786
60484W        W19921  16.286   4.741  13.310
60485W        W19922  14.232  15.086  12.365
60486W        W19923  17.712   1.922   0.933
60487W        W19924   0.747   1.911  11.989
60488W        W19925  24.008   0.319  12.841
60489W        W19926  24.718  34.606  12.094
60490W        W19927  15.617  21.651   2.723
60491W        W19928  38.910   4.862   3.373
60492W        W19929  27.507  10.228   4.621
60493W        W19930  30.961   4.715  11.983
60494W        W19931  38.876  44.915   3.328
60495W        W19932  18.097  39.466  13.934
60496W        W19933   0.259   3.395  10.061
60497W        W19934  18.570  18.615  12.955
60498W        W19935  29.497  32.011   5.215
60499W        W19936   9.831  36.035  11.378
60500W        W19937  41.938  26.620  13.956
60501W        W19938   8.716  35.066   4.695
60502W        W19939  15.582  38.488  10.527
60503W        W19940   2.799  42.498   0.256
60504W        W19941  37.379   8.239   2.740
60505W        W19942  24.492  44.800  11.009
60506W        W19943  43.800  43.972  11.971
60507W        W19944   3.234  14.183  14.019
60508W        W19945  25.104  12.120  12.960
60509W        W19946  16.602   9.861  14.969
60510W        W19947  31.522  31.562   0.251
60511W        W19948  33.514  34.978  13.010
60512W        W19949  22.218  42.379   3.220
60513W        W19950  43.992   2.271  10.966
60514W        W19951  34.876   6.871  14.288
60515W        W19952  18.562  30.118  13.481
60516W        W19953  29.620  16.811  13.499
60517W        W19954  38.562  21.661   4.664
60518W        W19955  25.560  19.049   3.367
60519W        W19956  10.653  26.139   3.171
60520W        W19957  43.893   4.406   2.750
60521W        W19958   9.665  43.995  11.960
60522W        W19959  35.032  33.940  14.869
60523W        W19960  35.108  41.814   4.220
60524W        W19961   6.241   5.739   4.822
60525W        W19962  14.339  29.522   3.848
60526W        W19963  29.633  24.563  12.964
60527W        W19964  18.183   1.416   2.344
60528W        W19965   4.767  38.477   2.901
60529W        W19966  24.687  41.330   2.877
60530W        W19967  44.352  41.377   4.298
60531W        W19968   3.918   0.929  11.029
60532W        W19969  31.916  34.958   1.306
60533W        W19970  21.668  14.652   1.839
60534W        W19971   0.951  15.207  13.542
60535W        W19972   1.262  26.003  14.864
60536W        W19973  40.357  15.663   2.753
60537W        W19974  17.109  11.151  12.918
60538W        W19975  32.634  16.687  10.516
60539W        W19976   5.355  14.741   3.152
60540W        W19977  27.626  41.931  10.143
60541W        W19978  40.971  38.539  12.083
60542W        W19979  23.673  30.046  12.039
60543W        W19980  30.945  11.657  12.434
60544W        W19981  31.090  10.804   2.351
60545W        W19982   9.209   0.857  11.971
60546W        W19983   2.468  40.421  13.412
60547W        W19984  25.696  40.917   4.687
60548W        W19985  10.871  17.637   1.332
60549W        W19986  29.504  32.559   2.802
60550W        W19987   4.932  33.400  12.502
60551W        W19988  11.790  12.656   4.225
60552W        W19989  24.185   1.852   1.262
60553W        W19990  14.711   7.701   3.160
60554W        W19991  35.056   9.696  12.001
60555W        W19992  21.690  41.811  14.800
60556W        W19993   4.778  19.670   2.248
60557W        W19994  10.721   0.427  12.992
60558W        W19995  11.809  33.132  13.348
60559W        W19996  44.959   1.311   4.797
60560W        W19997   9.824   8.831  13.865
60561W        W19998  40.421  24.086  11.942
60562W        W19999  32.594  14.802   3.700
60563W        W20000  38.449  14.295  13.968
60564W        W20001  17.627   6.772  14.427
60565W        W20002  38.933  44.984  11.577
60566W        W20003  17.157  41.485   0.413
60567W        W20004  44.840  19.274  12.959
60568W        W20005  20.558  32.098  12.496
60569W        W20006  26.630   4.250  13.869
60570W        W20007  11.655  29.039  14.846
60571W        W20008  23.167  43.463   4.752
60572W        W20009  17.214   3.828   3.210
60573W        W20010  13.221  21.750   4.818
60574W        W20011  10.733  38.949   0.356
60575W        W20012  21.172   9.383   0.788
60576W        W20013  43.887  41.922   4.317
60577W        W20014   1.847  13.222   0.327
60578W        W20015   6.793  11.305   3.240
60579W        W20016  19.619  11.623  11.435
60580W        W20017  27.624  27.546  14.334
60581W        W20018  41.375  30.544   3.244
60582W        W20019  29.591  16.739  13.012
60583W        W20020   6.298   3.448   3.281
60584W        W20021  28.545  38.977  12.373
60585W        W20022  30.118  17.688   0.374
60586W        W20023  13.642   0.408   4.763
60587W        W20024  35.588  31.103   2.408
60588W        W20025  13.319   7.197  11.501
60589W        W20026  35.091  25.520   0.387
60590W        W20027  30.997  19.604   5.114
60591W        W20028  20.074  42.793   2.310
60592W        W20029  36.465  43.799   4.219
60593W        W20030  37.512   5.729   4.292
60594W        W20031  34.987  24.998   9.956
60595W        W20032  29.572  39.532  14.865
60596W        W20033  30.942  30.110   4.210
60597W        W20034  21.614  15.172   3.647
60598W        W20035   7.313  19.043  13.910
60599W        W20036  16.153  34.068   0.960
60600W        W20037  25.476   2.234  13.412
60601W        W20038  38.957  43.436   9.997
60602W        W20039  15.764  16.139  12.087
60603W        W20040  34.539   0.401  12.473
60604W        W20041  27.065  35.446   2.751
60605W        W20042  44.867  42.865  11.038
60606W        W20043  37.839  26.549  13.433
60607W        W20044  31.482   6.334  13.884
60608W        W20045   1.910  13.722   3.811
60609W        W20046   6.276  17.066   2.744
60610W        W20047  15.600  33.001  10.529
60611W        W20048   9.740  29.091   1.212
60612W        W20049   3.406  37.036  11.872
60613W        W20050  16.590  19.637  11.932
60614W        W20051  34.877   1.475  14.298
60615W        W20052  44.754  11.241   2.796
60616W        W20053  20.598   0.888  12.847
60617W        W20054  40.979  13.620  10.927
60618W        W20055  13.218   8.832  13.988
60619W        W20056  17.244  18.123  12.471
60620W        W20057  31.482   2.433  12.944
60621W        W20058  40.479  29.970  12.852
60622W        W20059  17.622   7.338  13.832
60623W        W20060  30.451  33.467  10.984
60624W        W20061  16.274  16.734   4.332
60625W        W20062   4.271  31.423  14.415
60626W        W20063  41.415   8.241  12.430
60627W        W20064  33.530  18.719   3.314
60628W        W20065  26.983  41.971   0.379
60629W        W20066  10.787  38.456   4.747
60630W        W20067  44.313   0.442  12.006
60631W        W20068   8.194  40.875  12.891
60632W        W20069  37.997  22.620  10.431
60633W        W20070  33.072   0.339   0.346
60634W        W20071  39.839   2.407   3.707
60635W        W20072  15.231  23.575   3.212
60636W        W20073  23.999  33.103   3.264
60637W        W20074   8.292   7.280   0.783
60638W        W20075  10.871  19.045   0.930
60639W        W20076   6.242   9.177   1.326
60640W        W20077  29.658   9.886   2.780
60641W        W20078  29.583  43.776   2.826
60642W        W20079  11.160  24.665  10.992
60643W        W20080  40.931  21.189   1.394
60644W        W20081  43.450   3.764   3.631
60645W        W20082  44.810  40.953   3.263
60646W        W20083  23.114  23.038  10.022
60647W        W20084   2.350  44.967  13.956
60648W        W20085  37.882  32.052   0.403
60649W        W20086  31.592  33.101  13.928
60650W        W20087  35.063  19.744  11.109
60651W        W20088  16.800  35.379   0.889
60652W        W20089  13.208  40.815   2.251
60653W        W20090  17.159  36.372  11.425
60654W        W20091   3.268  27.115  13.391
60655W        W20092  14.297   9.188   4.146
60656W        W20093  26.053   8.809   2.414
60657W        W20094  12.760  12.829   0.814
60658W        W20095  19.593   1.290  14.302
60659W        W20096   5.707  15.782   2.249
60660W        W20097  33.069   8.406  12.016
60661W        W20098  19.558  11.636  14.969
60662W        W20099  18.217  13.650  14.002
60663W        W20100  12.343  23.540  11.989
60664W        W20101  32.606  27.986  14.959
60665W        W20102   8.777  34.576   0.419
60666W        W20103   0.803  28.474  12.514
60667W        W20104   8.754   1.887  12.059
60668W        W20105  20.130  27.964  12.868
60669W        W20106  24.004  10.830  11.019
60670W        W20107   1.891  31.113  11.096
60671W        W20108  18.583   7.393   3.219
60672W        W20109  14.594  35.454  14.830
60673W        W20110  30.031  41.495   0.907
60674W        W20111   4.874  43.384   1.395
60675W        W20112  15.624   0.855  10.456
60676W        W20113   7.757   3.309  11.117
60677W        W20114  32.074  37.438   1.822
60678W        W20115  38.995  40.934  13.335
60679W        W20116  21.185  13.667   2.380
60680W        W20117  26.078  23.643  13.321
60681W        W20118  44.917  19.711  12.561
60682W        W20119  42.905  20.697   1.821
60683W        W20120  34.550   5.279   1.700
60684W        W20121  28.983  13.619  11.046
60685W        W20122  43.285  10.188  10.981
60686W        W20123  30.417  15.302  11.079
60687W        W20124  37.863  34.863  12.519
60688W        W20125  25.610  10.227  12.379
60689W        W20126  12.170  43.816   1.214
60690W        W20127  40.404  10.191  11.412
60691W        W20128  17.093   2.892   3.634
60692W        W20129  32.490  36.550   1.740
60693W        W20130  11.754  23.984   4.252
60694W        W20131  28.131  23.229  14.453
60695W        W20132  19.672  27.512   3.329
60696W        W20133  24.142  37.438  14.986
60697W        W20134  11.207   8.853  13.884
60698W        W20135   1.741   9.317   1.794
60699W        W20136  33.567   3.713   1.892
60700W        W20137   5.697   3.823   1.385
60701W        W20138  30.017  20.204  13.309
60702W        W20139  24.985  25.101   2.205
60703W        W20140  10.704  34.373  14.767
60704W        W20141  19.176   9.183  13.799
60705W        W20142  24.072  17.644  14.326
60706W        W20143  43.386  39.832   3.168
60707W        W20144  16.201  12.611   3.788
60708W        W20145  27.635  27.093  12.888
60709W        W20146  10.736  13.161  11.007
60710W        W20147  34.598  20.139   1.436
60711W        W20148  28.576  32.442   2.775
60712W        W20149   0.420  10.750   4.805
60713W        W20150  16.736  11.370   2.873
60714W        W20151  25.046  40.835  10.534
60715W        W20152  19.650  12.660   4.204
60716W        W20153   2.727  14.687  13.922
60717W        W20154  19.273  24.994   2.796
60718W        W20155  31.953  34.914  14.352
60719W        W20156  27.969  36.973   3.730
60720W        W20157  16.149  29.060  11.414
60721W        W20158  39.006   9.665  12.873
60722W        W20159  19.716  22.123   4.819
60723W        W20160  38.437  22.613   3.791
60724W        W20161  17.649  19.211   1.410
60725W        W20162  17.278  26.507   1.923
60726W        W20163  12.361  22.681   1.426
60727W        W20164   6.338  23.503  10.578
60728W        W20165   8.660  29.143   3.663
60729W        W20166  27.488  41.975   4.157
60730W        W20167   9.860  14.270  13.860
60731W        W20168  37.513  32.511  14.327
60732W        W20169  41.026  25.162   2.410
60733W        W20170  35.478  33.536  11.504
60734W        W20171  11.863  40.042   4.831
60735W        W20172   1.954  33.050   3.774
60736W        W20173   2.879  28.546  14.365
60737W        W20174  43.811   5.749  14.328
60738W        W20175  21.609  15.767  14.828
60739W        W20176   3.712  36.957   3.228
60740W        W20177   8.229  36.577  13.316
60741W        W20178   9.791  24.198   0.381
60742W        W20179   7.278  37.020  12.452
60743W        W20180  17.146  25.542   2.757
60744W        W20181  20.270  10.691   1.741
60745W        W20182   2.790  23.641   0.285
60746W        W20183  29.985  16.166   0.858
60747W        W20184  32.566  19.669  13.346
60748W        W20185  40.513   8.687   4.228
60749W        W20186  25.597  24.507   3.290
60750W        W20187   8.217   0.419  10.893
60751W        W20188  30.600  15.193  13.520
60752W        W20189   4.245   4.447   1.256
60753W        W20190  31.558  26.581   0.967
60754W        W20191  23.570  27.141  14.808
60755W        W20192  31.425  33.058   3.852
60756W        W20193  29.035   6.321   3.297
60757W        W20194  14.242  26.969   1.850
60758W        W20195  33.510  41.978   0.484
60759W        W20196   2.288  10.203   3.309
60760W        W20197  14.104  27.677   2.827
60761W        W20198   1.782   4.375   1.743
60762W        W20199  30.606   7.671  13.898
60763W        W20200   4.734  30.542  13.983
60764W        W20201  34.921  30.108   2.342
60765W        W20202  15.674  21.187   0.314
60766W        W20203  18.149  37.470  12.379
60767W        W20204  29.515  38.462   0.262
60768W        W20205  13.231  39.900  10.950
60769W        W20206  41.293   5.908  10.903
60770W        W20207   7.200   4.431   2.804
60771W        W20208  10.839   7.826  14.937
60772W        W20209  25.017  30.626  13.952
60773W        W20210  14.164  12.190   1.747
60774W        W20211  33.429  31.122   3.812
60775W        W20212  22.211  12.346   1.301
60776W        W20213  17.220  24.035   4.301
60777W        W20214  42.858  11.200   1.877
60778W        W20215   5.218   2.846   0.857
60779W        W20216  29.117   2.904  11.428
60780W        W20217  42.815  28.094  13.057
60781W        W20218  44.275  44.967  14.381
60782W        W20219  17.697  27.181  14.013
60783W        W20220  11.361  29.118  13.439
60784W        W20221   4.861  26.163   0.754
60785W        W20222  35.057  33.560   2.202
60786W        W20223   1.305  26.672  11.464
60787W        W20224   9.261  20.036   4.740
60788W        W20225  39.867  27.184  12.913
60789W        W20226  42.301  44.949   0.310
60790W        W20227  39.549  21.627   1.831
60791W        W20228  29.633  22.035   4.800
60792W        W20229  30.417  44.978  14.896
60793W        W20230  15.773  33.066   2.259
60794W        W20231  17.674  34.530  11.410
60795W        W20232   7.764  18.744  14.830
60796W        W20233  39.490  33.462  11.989
60797W        W20234  25.041  38.915   4.223
60798W        W20235  19.542  34.583  10.939
60799W        W20236   5.753  28.996   2.693
60800W        W20237   9.224  21.210  12.438
60801W        W20238  30.911  15.321   0.303
60802W        W20239  30.046   6.266   4.634
60803W        W20240  16.788  21.517  14.770
60804W        W20241  35.601  22.689  12.086
60805W        W20242  22.702   3.756   3.221
60806W        W20243  22.637   7.238  14.914
60807W        W20244  29.583   7.218   0.819
60808W        W20245  19.647  12.794   1.722
60809W        W20246  27.992  38.849  14.425
60810W        W20247   5.898  14.824  12.455
60811W        W20248  31.593  20.670   0.840
60812W        W20249  36.558  35.527  12.352
60813W        W20250  34.913  42.521   2.313
60814W        W20251  11.738  19.241  11.921
60815W        W20252  19.640  13.254  10.613
60816W        W20253  41.807  37.061   3.681
60817W        W20254  21.040  26.486  11.128
60818W        W20255  11.808  29.459   5.215
60819W        W20256  34.510  36.011  10.126
60820W        W20257  34.538   5.340   0.412
60821W        W20258  12.224  44.444  13.024
60822W        W20259  22.744   5.817  11.102
60823W        W20260  33.946   8.711  13.899
60824W        W20261  31.461  38.033  10.591
60825W        W20262  23.566  14.260  13.500
60826W        W20263  21.133  36.460  13.895
60827W        W20264  43.463  42.448  14.855
60828W        W20265  16.146  42.437  14.771
60829W        W20266  25.498  41.827   0.752
60830W        W20267  20.231  43.309  10.589
60831W        W20268  16.704  24.055   1.725
60832W        W20269  14.783  35.939  11.053
60833W        W20270  10.335   3.861  12.964
60834W        W20271  20.613  40.051  10.013
60835W        W20272   0.284  38.847   2.858
60836W        W20273  13.308   8.215   2.335
60837W        W20274  20.086  17.302  11.865
60838W        W20275  38.937  32.410  10.430
60839W        W20276  33.403  13.236  10.432
60840W        W20277  11.727  30.649  14.411
60841W        W20278  41.497   9.654  11.536
60842W        W20279  18.204  22.669   2.341
60843W        W20280  30.080   4.265   2.295
60844W        W20281  40.006  27.691   4.207
60845W        W20282  35.100  16.788   2.366
60846W        W20283  27.954  41.325  10.549
60847W        W20284  13.749   7.328  11.383
60848W        W20285   8.303   1.325  10.588
60849W        W20286  24.103  13.157   0.748
60850W        W20287  10.250   1.314  12.470
60851W        W20288  33.904  22.618  14.377
60852W        W20289  25.965  29.581   1.382
60853W        W20290  33.990  19.656   0.366
60854W        W20291  22.612  32.628  12.457
60855W        W20292  29.446   7.878  12.459
60856W        W20293  17.208  20.564  11.096
60857W        W20294  34.370  22.059  12.567
60858W        W20295  17.687  32.558  11.068
60859W        W20296  38.542  33.531  12.407
60860W        W20297  36.074  38.045  12.529
60861W        W20298  31.064  19.172   4.650
60862W        W20299  10.735  27.961   3.305
60863W        W20300  33.090  17.585   2.236
60864W        W20301  10.208   8.804  14.993
60865W        W20302  17.698  42.435  13.038
60866W        W20303  26.103  28.535   1.384
60867W        W20304   1.794  32.906  11.994
60868W        W20305  29.101  25.164   2.709
60869W        W20306  11.690   0.452   1.248
60870W        W20307   3.273   8.835  10.900
60871W        W20308  43.424  18.050  10.960
60872W        W20309  16.126  37.490  13.901
60873W        W20310  42.803   2.862  11.000
60874W        W20311   3.779   7.860   2.302
60875W        W20312  15.100  35.414   3.695
60876W        W20313  36.893  10.871  12.855
60877W        W20314  36.861  25.110  12.944
60878W        W20315  41.443  31.489   2.379
60879W        W20316  22.526  15.692  13.422
60880W        W20317  37.350   1.425   1.388
60881W        W20318   0.418   4.384  13.516
60882W        W20319  11.711   1.271   4.152
60883W        W20320  42.456  28.487  12.403
60884W        W20321  19.117  24.205  12.864
60885W        W20322  27.107  38.017  11.903
60886W        W20323  28.076   7.347   2.860
60887W        W20324  11.341  10.862  11.093
60888W        W20325   6.902  30.587   2.810
60889W        W20326  20.551  12.832  10.905
60890W        W20327  28.481   1.361  10.573
60891W        W20328   0.780  22.007  11.978
60892W        W20329   4.930  38.418   1.313
60893W        W20330  42.384  23.131   3.319
60894W        W20331  35.367  12.806  13.422
60895W        W20332  37.076   9.887  14.893
60896W        W20333  11.782  31.013  10.616
60897W        W20334  44.401   4.746   1.733
60898W        W20335  19.261  36.480   1.798
60899W        W20336  43.846   1.906   0.735
60900W        W20337   1.407   3.327   1.218
60901W        W20338  19.545   4.911   2.855
60902W        W20339  38.004  17.796   0.457
60903W        W20340  20.656  27.569  12.564
60904W        W20341  28.462   3.441  11.407
60905W        W20342  34.554  10.150  14.791
60906W        W20343  15.607  25.502   3.644
60907W        W20344  18.259  39.054   9.972
60908W        W20345  16.134  26.562   1.847
60909W        W20346  13.265   1.866   5.108
60910W        W20347  37.384   1.836   4.215
60911W        W20348  12.124  35.877   0.845
60912W        W20349  28.637  29.630   1.707
60913W        W20350   5.433   0.284  13.833
60914W        W20351  27.120  27.080   4.279
60915W        W20352  37.472  23.690   2.894
60916W        W20353  22.542   3.460  14.769
60917W        W20354   7.683   7.304   2.696
60918W        W20355  29.570   4.914   0.775
60919W        W20356  40.802  19.160   1.931
60920W        W20357  37.049  15.723   2.266
60921W        W20358  11.348  20.530   4.268
60922W        W20359  38.372   4.711  13.900
60923W        W20360  39.470  35.947  10.618
60924W        W20361  24.586  26.561   2.301
60925W        W20362  11.334  16.208  13.443
60926W        W20363  37.882   0.878   1.754
60927W        W20364  25.632  44.371   4.635
60928W        W20365   7.867   3.731   1.915
60929W        W20366  10.694  27.619   2.322
60930W        W20367  14.167  29.597  14.503
60931W        W20368  21.636  14.206   4.764
60932W        W20369   5.808  24.164  12.873
60933W        W20370  13.605  42.368  10.560
60934W        W20371   5.303   8.746  12.912
60935W        W20372  40.870  24.667  12.464
60936W        W20373   5.769  13.604   3.209
60937W        W20374  17.064  37.376   3.743
60938W        W20375  18.283  43.843  13.521
60939W        W20376  23.644  37.510  13.058
60940W        W20377  14.785   9.264  13.458
60941W        W20378  29.116  26.994   3.776
60942W        W20379   1.932  34.981  12.512
60943W        W20380   5.761   2.312  13.337
60944W        W20381  40.005   2.923   0.278
60945W        W20382  44.924  33.463   1.806
60946W        W20383  36.425  24.212  13.531
60947W        W20384   0.802   6.249  14.854
60948W        W20385  35.364   1.819  11.954
60949W        W20386  16.250  33.556  10.417
60950W        W20387  36.955  14.710  12.475
60951W        W20388   8.231  27.123   4.233
60952W        W20389  23.061  18.255   0.923
60953W        W20390  39.972  23.988  14.852
60954W        W20391  44.905   0.272   2.789
60955W        W20392  29.469  34.958   0.479
60956W        W20393   9.287  10.759  11.870
60957W        W20394  36.043   8.849  11.453
60958W        W20395  27.449  17.122  10.927
60959W        W20396   0.974  21.136   0.387
60960W        W20397   8.363  31.926   3.660
60961W        W20398  41.928   8.361  10.447
60962W        W20399  21.263  35.085  11.606
60963W        W20400  31.463  19.725   2.684
60964W        W20401  42.955  41.024   2.884
60965W        W20402   7.387  44.446  11.925
60966W        W20403  31.461  27.120  14.972
60967W        W20404  18.756  29.529  14.906
60968W        W20405  37.396   4.290  10.404
60969W        W20406  13.670  18.741  11.957
60970W        W20407  28.444  43.865  12.034
60971W        W20408  40.925  12.686  14.434
60972W        W20409   6.899  11.141   0.747
60973W        W20410  15.664  42.879  13.046
60974W        W20411  37.387  22.088  12.524
60975W        W20412  16.628  44.326   0.380
60976W        W20413  44.352  42.948  10.411
60977W        W20414  37.976  44.945  14.795
60978W        W20415  32.455  18.287  14.867
60979W        W20416  12.754  43.418   4.656
60980W        W20417  15.739   4.232   1.841
60981W        W20418  11.313  43.813   3.746
60982W        W20419   1.440  15.580  12.989
60983W        W20420  26.703  14.727  12.854
60984W        W20421  41.936   9.192  11.986
60985W        W20422  13.303  21.164   0.922
60986W        W20423  43.429  20.698   2.852
60987W        W20424  38.563  38.964   1.227
60988W        W20425  30.006  24.703   0.752
60989W        W20426  24.020  44.919  10.562
60990W        W20427  14.284  38.529  14.795
60991W        W20428  23.062  30.568  14.854
60992W        W20429  35.060  16.076   3.653
60993W        W20430  30.602  25.673  11.495
60994W        W20431   1.328  29.056  13.309
60995W        W20432  19.624  42.965   4.827
60996W        W20433  27.022  31.477   0.365
60997W        W20434   7.897  13.674   2.667
60998W        W20435  34.880  24.578   1.781
60999W        W20436  33.612  33.425   0.792
61000W        W20437   1.278  18.179  12.502
61001W        W20438  36.451  21.734   3.234
61002W        W20439   6.736  25.198   4.299
61003W        W20440  27.655  17.110   2.705
61004W        W20441  12.235   2.421  13.530
61005W        W20442  42.346  18.093  14.312
61006W        W20443  44.987   5.720   2.888
61007W        W20444  10.335  14.223   4.694
61008W        W20445  44.286  23.176  11.088
61009W        W20446   1.840   4.285   2.745
61010W        W20447  10.328  33.996   0.917
61011W        W20448  18.695  36.844   2.686
61012W        W20449  12.718  28.437   2.694
61013W        W20450  36.391  14.683  10.607
61014W        W20451  39.426  20.744  12.025
61015W        W20452  10.358  38.456  13.538
61016W        W20453  18.166  15.180   2.252
61017W        W20454   4.809  26.978  14.804
61018W        W20455  16.142  33.067   3.757
61019W        W20456   3.290  38.008  13.822
61020W        W20457   6.905  18.281  10.930
61021W        W20458  24.174  18.177  13.544
61022W        W20459  16.173  10.158  14.424
61023W        W20460  27.053  13.327   2.242
61024W        W20461   0.447  33.032   2.664
61025W        W20462  15.583  33.572  12.401
61026W        W20463  24.527  19.645   9.928
61027W        W20464  36.903  10.744  11.541
61028W        W20465  20.061  36.032  11.953
61029W        W20466   1.883  26.183   3.806
61030W        W20467  29.544  44.490   4.732
61031W        W20468  28.592  12.722   1.858
61032W        W20469   4.886  29.056  14.451
61033W        W20470   1.297  20.658   4.303
61034W        W20471   1.385  28.050  14.315
61035W        W20472  34.513  28.580  13.401
61036W        W20473  11.844  20.629   1.886
61037W        W20474  31.079   6.722   4.214
61038W        W20475  15.184  30.937   0.791
61039W        W20476   9.807   5.911   4.653
61040W        W20477  42.915  23.715   1.860
61041W        W20478  21.654  42.280   1.295
61042W        W20479  32.422  24.479  10.979
61043W        W20480  34.942  39.847  10.544
61044W        W20481  12.715   5.901  13.805
61045W        W20482   9.846  33.132  12.998
61046W        W20483  11.293  31.977   2.673
61047W        W20484   8.236   8.781  14.491
61048W        W20485   5.695  31.135   2.251
61049W        W20486   1.906  29.950  14.930
61050W        W20487   4.752   0.414  12.875
61051W        W20488  44.351  29.627   0.347
61052W        W20489  37.919  22.197  14.834
61053W        W20490  32.968  31.409   3.716
61054W        W20491  43.329  24.088  13.043
61055W        W20492  20.610  32.114  12.832
61056W        W20493   6.299  42.895  11.029
61057W        W20494  11.667   0.427  11.485
61058W        W20495  33.928  26.957  12.934
61059W        W20496  13.267   7.841   1.848
61060W        W20497  44.917  36.901  14.354
61061W        W20498  33.068  25.673  13.954
61062W        W20499  40.533  36.950   0.858
61063W        W20500  12.680  30.102  13.984
61064W        W20501  15.782  30.575   3.834
61065W        W20502  28.456  18.697  12.465
61066W        W20503  10.694  29.512  12.413
61067W        W20504  18.601   4.730   0.470
61068W        W20505  40.492  18.159  10.461
61069W        W20506  23.050  20.683  13.050
61070W        W20507  33.587  32.464   3.148
61071W        W20508  27.131  44.343   2.732
61072W        W20509   7.766  43.931   1.780
61073W        W20510  29.549  18.606   3.155
61074W        W20511  21.756  37.836  11.431
61075W        W20512  11.758   0.945  11.600
61076W        W20513   2.851  38.494  10.149
61077W        W20514  22.577  24.973   4.200
61078W        W20515   4.749   2.735   1.823
61079W        W20516  13.212  21.228  12.478
61080W        W20517  20.626  32.087   0.361
61081W        W20518  24.709   3.214   0.935
61082W        W20519  37.068  31.077   0.413
61083W        W20520  31.630  36.364   1.283
61084W        W20521  33.108  21.182  12.512
61085W        W20522  22.222  37.843   2.372
61086W        W20523  19.168  27.491   3.149
61087W        W20524  16.796   3.783  10.552
61088W        W20525  41.405  40.939   3.769
61089W        W20526  31.923   0.358  11.978
61090W        W20527  21.577  10.237  11.122
61091W        W20528   5.206  38.870  14.956
61092W        W20529  12.629  42.998   2.813
61093W        W20530  40.848   0.874   0.755
61094W        W20531  36.366  38.512  12.846
61095W        W20532  10.213  37.028  13.343
61096W        W20533  31.032   0.478  12.551
61097W        W20534  20.042  35.002  13.472
61098W        W20535  15.637  28.534   3.820
61099W        W20536  18.281  15.794   1.396
61100W        W20537  17.749  21.086  11.002
61101W        W20538  12.174  13.186  11.520
61102W        W20539  41.840   1.286   3.162
61103W        W20540  30.988  21.256   4.269
61104W        W20541  41.295  24.210  12.422
61105W        W20542   6.302   3.881   1.242
61106W        W20543   1.847  18.192   1.449
61107W        W20544  35.998   0.979   1.220
61108W        W20545  37.412   6.801  11.500
61109W        W20546  39.452  33.881   3.788
61110W        W20547   2.390  10.211   5.686
61111W        W20548  30.470   2.923  10.937
61112W        W20549  30.523   8.829  13.327
61113W        W20550  34.443   7.819   0.408
61114W        W20551  39.415  21.243   3.193
61115W        W20552  32.510  41.292  11.586
61116W        W20553   6.248  27.133  12.863
61117W        W20554  42.297  29.668   1.382
61118W        W20555   4.278  30.924   2.895
61119W        W20556  11.812  15.744   4.704
61120W        W20557  27.039  27.945   3.725
61121W        W20558   3.220  25.987   3.664
61122W        W20559   9.761  42.869  11.989
61123W        W20560  28.625   1.929   2.793
61124W        W20561  26.517  35.546   0.452
61125W        W20562  29.045  39.994  11.126
61126W        W20563  23.144  39.946  10.454
61127W        W20564  11.142  21.758  13.339
61128W        W20565   8.877  37.040  11.966
61129W        W20566  44.313  27.942  13.004
61130W        W20567  13.667   4.288   4.806
61131W        W20568  44.932  38.515  12.447
61132W        W20569  15.287  44.963  13.050
61133W        W20570   4.890   3.845   1.222
61134W        W20571  18.252   0.360  10.628
61135W        W20572  26.474  32.048   3.727
61136W        W20573  24.613  43.500  13.792
61137W        W20574  20.048  20.665   2.900
61138W        W20575  36.034  13.196  11.484
61139W        W20576   3.380  35.873   2.357
61140W        W20577  39.401  23.104   3.319
61141W        W20578  41.433  34.443  11.532
61142W        W20579  32.930  26.700   2.832
61143W        W20580  27.193  23.149   5.593
61144W        W20581  33.478  10.138   5.285
61145W        W20582  17.217  36.507  13.364
61146W        W20583  31.486  25.543  14.357
61147W        W20584   8.756  10.877   1.696
61148W        W20585  38.496  36.543   3.213
61149W        W20586  29.130   7.387   1.392
61150W        W20587   4.754  40.893   4.608
61151W        W20588  23.124  30.517  14.500
61152W        W20589  29.944  36.855   0.802
61153W        W20590  14.110  10.743  12.350
61154W        W20591  41.378  23.630  10.572
61155W        W20592   6.287  14.210   0.772
61156W        W20593  23.517  13.756   0.789
61157W        W20594  35.972  30.466  14.486
61158W        W20595  30.971  26.628   0.909
61159W        W20596  19.105  18.241  12.869
61160W        W20597  27.146   8.296  14.844
61161W        W20598  26.583  42.440  10.626
61162W        W20599   5.812   9.716  14.016
61163W        W20600  13.215   6.362   2.754
61164W        W20601  23.027  22.620   1.759
61165W        W20602  16.646  20.579   1.747
61166W        W20603   6.249  42.291   0.942
61167W        W20604  40.537  42.945   4.301
61168W        W20605  29.089  40.505   2.797
61169W        W20606  19.728   5.927   3.359
61170W        W20607  11.746  12.274  12.974
61171W        W20608   3.885  40.476  11.024
61172W        W20609  12.755  38.407   1.901
61173W        W20610  24.199   1.791  10.898
61174W        W20611  43.324  35.488   2.824
61175W        W20612  19.068  30.069  13.821
61176W        W20613   4.437   2.746  13.496
61177W        W20614  44.418  30.452  10.894
61178W        W20615  33.456  32.585   1.705
61179W        W20616  27.661  27.948   4.157
61180W        W20617  40.367  38.906   4.817
61181W        W20618  42.447   5.924  14.313
61182W        W20619  11.719  35.033   3.871
61183W        W20620   8.267   5.796  14.456
61184W        W20621  29.616   8.680  14.400
61185W        W20622  27.631  29.500   1.837
61186W        W20623  22.096  13.165   1.416
61187W        W20624  42.496  29.925   4.282
61188W        W20625   4.823  13.351  12.422
61189W        W20626   8.230  15.147   1.922
61190W        W20627  41.359  22.548  13.022
61191W        W20628  10.166  25.498   0.849
61192W        W20629  34.000  15.250  12.552
61193W        W20630  17.699  31.014  13.917
61194W        W20631  40.837  18.656  10.578
61195W        W20632   2.913  44.408  14.351
61196W        W20633   1.281  25.611   1.914
61197W        W20634   5.720  20.687  10.902
61198W        W20635  31.915  30.416  10.442
61199W        W20636  28.588  42.851  12.963
61200W        W20637  22.018  41.315  11.431
61201W        W20638  17.704  37.428   2.837
61202W        W20639  13.301  43.325   3.650
61203W        W20640  25.658  43.514  13.418
61204W        W20641  43.359  34.074   2.795
61205W        W20642  38.964  36.850  12.341
61206W        W20643  36.370  37.983   3.244
61207W        W20644  15.716  44.903  14.434
61208W        W20645  10.308  43.900   0.914
61209W        W20646  44.343  17.191  10.996
61210W        W20647  23.653  43.997  10.893
61211W        W20648  40.464   0.324  12.527
61212W        W20649   1.266  37.916  10.432
61213W        W20650  32.903   8.280  13.901
61214W        W20651  35.104  26.070  13.974
61215W        W20652  20.587  12.258   0.868
61216W        W20653   1.404  33.397  13.923
61217W        W20654  35.066  34.391   1.933
61218W        W20655  33.571  34.530   2.701
61219W        W20656  37.562  34.887  14.358
61220W        W20657  19.626  12.746  12.047
61221W        W20658  11.852  22.574   1.927
61222W        W20659  41.915  41.529   4.172
61223W        W20660  29.025  27.120  14.319
61224W        W20661  32.050   6.693  11.546
61225W        W20662  36.426   9.646   1.283
61226W        W20663  22.654  21.061   9.986
61227W        W20664  44.803  10.366  10.563
61228W        W20665  31.033   8.402  10.606
61229W        W20666  23.589  16.732   3.382
61230W        W20667   8.881  10.698   0.331
61231W        W20668  23.616  12.611  11.555
61232W        W20669  20.082  10.221  13.817
61233W        W20670  36.032  12.226  10.940
61234W        W20671  39.452  27.018  10.592
61235W        W20672   9.315  24.160   3.760
61236W        W20673  38.427   9.321   4.788
61237W        W20674  21.198  34.481  11.091
61238W        W20675  10.837  22.156  14.312
61239W        W20676  36.464  20.249   3.718
61240W        W20677   9.658  38.867   3.818
61241W        W20678   5.408  19.232   3.252
61242W        W20679  39.534  12.344   4.802
61243W        W20680  41.983  34.031  14.774
61244W        W20681  12.211   3.839  14.852
61245W        W20682  40.878  35.980   1.341
61246W        W20683   4.919  21.180   4.203
61247W        W20684  12.139  10.675  14.011
61248W        W20685  29.956   5.234   3.326
61249W        W20686  23.656  15.182  12.865
61250W        W20687   5.765  20.561   2.829
61251W        W20688  29.523  13.327   2.891
61252W        W20689  14.778  33.523  11.927
61253W        W20690  25.986  41.997  11.497
61254W        W20691  40.493   9.864   1.317
61255W        W20692  13.293  20.664   1.363
61256W        W20693  16.282  20.123   3.783
61257W        W20694  42.976  21.518  12.053
61258W        W20695  22.679  25.595  14.295
61259W        W20696  41.874  19.106   1.707
61260W        W20697   0.861  38.969  12.086
61261W        W20698   1.302   8.179   3.233
61262W        W20699  12.272   8.714   1.831
61263W        W20700  41.374  25.104  12.565
61264W        W20701  36.581  32.958   4.678
61265W        W20702  28.050  27.622  13.544
61266W        W20703  30.567  39.463  14.970
61267W        W20704   9.746  40.996  13.316
61268W        W20705   5.288   9.743   4.752
61269W        W20706  34.602   0.399   2.369
61270W        W20707   4.257  37.412  12.057
61271W        W20708  12.671  10.750   2.317
61272W        W20709  40.913  11.331   0.942
61273W        W20710  44.985  32.471  11.374
61274W        W20711  37.935  12.187  10.916
61275W        W20712  32.947  31.510  13.851
61276W        W20713  32.460  30.994  10.610
61277W        W20714  25.677  37.832  11.612
61278W        W20715  26.529  26.617  12.896
61279W        W20716  31.509  14.644   0.910
61280W        W20717  42.819  41.410   1.755
61281W        W20718   3.283  18.051  12.561
61282W        W20719   0.966  44.936  14.869
61283W        W20720  30.540   1.864  11.070
61284W        W20721  30.152  40.823  14.973
61285W        W20722  12.351  41.328   0.297
61286W        W20723  27.610  43.405   2.805
61287W        W20724   9.750  18.634   2.728
61288W        W20725  25.136  10.276  14.807
61289W        W20726   2.769  30.064  11.503
61290W        W20727  43.499   6.205  14.859
61291W        W20728  34.916  15.208   1.862
61292W        W20729  13.625  12.119  14.984
61293W        W20730   2.438  23.553  10.622
61294W        W20731  43.000  22.510  11.465
61295W        W20732  16.094   3.395   1.286
61296W        W20733  17.703   8.358  13.510
61297W        W20734   8.379  39.352  14.509
61298W        W20735   3.309  28.029   0.904
61299W        W20736  29.142   1.768  12.995
61300W        W20737  19.706  21.244   4.699
61301W        W20738  44.396  14.163  13.518
61302W        W20739  25.658   9.172  11.968
61303W        W20740  43.960  36.942  12.344
61304W        W20741  39.988  31.583  13.029
61305W        W20742  31.612   9.819  10.519
61306W        W20743  40.858  16.588   3.153
61307W        W20744  22.175  14.242  14.360
61308W        W20745  23.090  25.615  12.827
61309W        W20746  22.724  38.899   0.417
61310W        W20747  20.626  38.326   4.702
61311W        W20748  21.166  26.176  10.489
61312W        W20749  15.253  11.858  13.827
61313W        W20750  30.152  11.127   2.376
61314W        W20751  19.740  20.167  10.910
61315W        W20752  34.518   6.230   0.319
61316W        W20753   2.826  32.077   1.387
61317W        W20754  23.065  33.907  10.995
61318W        W20755   5.910  18.191  14.952
61319W        W20756  35.003  44.491   2.401
61320W        W20757  29.050  16.695   1.440
61321W        W20758   4.859  15.162   1.902
61322W        W20759  18.636  17.757   5.299
61323W        W20760   1.375  20.071   1.228
61324W        W20761  40.406   1.440   3.758
61325W        W20762  18.287  28.598  14.320
61326W        W20763   7.701  33.433   0.373
61327W        W20764  13.625  25.513   1.255
61328W        W20765  34.987  40.538  12.006
61329W        W20766  31.954   2.765   4.702
61330W        W20767   0.493  30.010   0.337
61331W        W20768   9.343  41.890   3.385
61332W        W20769  18.571   0.845   1.322
61333W        W20770  13.182   6.335  11.401
61334W        W20771  42.385  26.625  11.401
61335W        W20772  21.755  35.435  14.460
61336W        W20773   7.775  22.038   3.673
61337W        W20774  41.374  20.137   1.212
61338W        W20775  35.456   7.290  12.094
61339W        W20776  20.265  25.139  11.512
61340W        W20777  16.664  33.472   1.828
61341W        W20778  39.901  33.515  13.823
61342W        W20779  16.259  33.047   2.741
61343W        W20780  23.672  18.239   4.775
61344W        W20781  35.529  20.049   2.788
61345W        W20782  11.362  35.936  10.456
61346W        W20783  25.111   0.949   1.417
61347W        W20784  21.066  35.004  10.552
61348W        W20785   7.896  33.937  14.893
61349W        W20786  10.846  29.056  12.423
61350W        W20787  37.063  32.569  10.415
61351W        W20788  15.702  38.955   2.787
61352W        W20789  42.434  25.519   4.623
61353W        W20790   9.808  23.112  12.419
61354W        W20791   9.155  32.492   3.162
61355W        W20792   1.884  28.660  10.437
61356W        W20793   0.272  22.035   0.787
61357W        W20794  19.539  38.886  12.492
61358W        W20795   4.850  24.657   0.928
61359W        W20796   3.383  10.667  11.125
61360W        W20797  44.769  23.625  10.907
61361W        W20798  39.341  18.235   2.386
61362W        W20799  19.255  28.122  14.787
61363W        W20800  43.479  15.817  11.593
61364W        W20801  20.189   1.414  12.950
61365W        W20802  43.271  31.637   4.286
61366W        W20803  38.545   6.415  13.953
61367W        W20804  35.102   3.814   1.268
61368W        W20805  12.806  19.573   1.236
61369W        W20806  44.912  43.963   0.276
61370W        W20807   8.350   8.355  11.595
61371W        W20808  22.546   1.844   0.963
61372W        W20809  11.283  27.945  11.121
61373W        W20810  17.100   1.348   2.187
61374W        W20811  19.110  31.913   2.816
61375W        W20812  36.056  16.677   4.139
61376W        W20813   0.791  38.000  10.472
61377W        W20814  36.976  24.008   0.769
61378W        W20815  39.431   7.739   1.815
61379W        W20816  30.921  15.117   3.651
61380W        W20817  26.694  43.399   3.842
61381W        W20818  44.911  41.943   3.694
61382W        W20819  28.490  15.095  11.461
61383W        W20820   5.416  42.835  13.046
61384W        W20821  22.600  38.511  11.395
61385W        W20822  18.621   7.257  14.891
61386W        W20823  43.004  24.025   0.967
61387W        W20824   9.833  18.763   1.289
61388W        W20825  38.449  10.825   0.305
61389W        W20826   4.724  14.589   4.744
61390W        W20827   4.359  10.668   2.358
61391W        W20828  20.576  18.232   2.256
61392W        W20829  28.464  41.303  12.866
61393W        W20830  26.544  20.187  12.993
61394W        W20831  11.865  40.418  10.457
61395W        W20832  22.234  30.521  14.788
61396W        W20833   6.756  35.966   4.336
61397W        W20834  18.181  28.100   2.271
61398W        W20835  40.885   0.935  12.023
61399W        W20836  14.107  42.934  14.950
61400W        W20837  43.509  29.508  14.403
61401W        W20838   8.739  37.946  13.061
61402W        W20839  14.174  44.337  12.561
61403W        W20840  21.712  30.056  14.771
61404W        W20841  42.014  16.643  13.387
61405W        W20842  42.525   6.702   2.788
61406W        W20843   8.227   3.341   4.821
61407W        W20844  21.578  29.447   2.784
61408W        W20845  20.143  22.192   9.945
61409W        W20846  21.068  41.304  11.516
61410W        W20847  12.265  34.521   4.722
61411W        W20848   8.827  21.145  13.385
61412W        W20849   7.847  43.492   4.628
61413W        W20850   8.192  41.306  11.608
61414W        W20851  37.445  26.649  14.875
61415W        W20852  22.078  36.869  10.640
61416W        W20853  39.833  25.011   3.279
61417W        W20854  18.245  36.497  12.881
61418W        W20855   6.186   1.753  12.424
61419W        W20856  42.998  43.832  11.420
61420W        W20857  27.138  42.817   1.797
61421W        W20858  18.767  39.448   9.513
61422W        W20859  22.122   8.728   0.900
61423W        W20860   6.914  30.943  14.003
61424W        W20861  24.990  15.283   2.177
61425W        W20862   0.403  29.458  14.343
61426W        W20863  44.282  17.207   4.272
61427W        W20864   1.346  36.036   5.111
61428W        W20865   6.419  23.998  10.451
61429W        W20866  25.682  32.605   4.197
61430W        W20867  28.521   5.850  14.991
61431W        W20868  14.145  11.796   0.759
61432W        W20869   3.275  34.421   1.344
61433W        W20870  12.848   1.887   1.725
61434W        W20871  14.706   8.798  14.275
61435W        W20872  26.592   5.698  13.985
61436W        W20873  14.193  31.114  12.572
61437W        W20874  29.074  10.648  13.538
61438W        W20875   6.838  41.307  11.018
61439W        W20876  39.364  38.461  14.335
61440W        W20877  19.160  19.216   1.288
61441W        W20878  11.161  35.484  12.889
61442W        W20879   5.263  27.532   0.436
61443W        W20880  44.971  21.594  14.475
61444W        W20881  29.428  20.702   4.132
61445W        W20882  19.139  14.230  12.471
61446W        W20883  37.492   0.307   0.440
61447W        W20884   6.904  18.287  12.876
61448W        W20885  16.147  35.852   1.322
61449W        W20886   7.336   0.321   2.363
61450W        W20887   1.811  23.565  12.456
61451W        W20888  11.255   0.772   4.306
61452W        W20889  28.506  21.188  11.905
61453W        W20890  16.245   3.711  11.882
61454W        W20891  25.674   4.367   4.118
61455W        W20892  25.116  42.476   1.277
61456W        W20893  12.130  26.620  12.841
61457W        W20894  12.309  14.332  10.964
61458W        W20895  41.485  14.595  14.278
61459W        W20896   4.860  22.085   5.136
61460W        W20897  41.454   7.413  13.808
61461W        W20898  34.001   1.299  11.604
61462W        W20899  24.117  33.020  14.440
61463W        W20900   7.284  34.435  11.028
61464W        W20901  44.927  19.648   2.270
61465W        W20902  14.737  43.485   9.956
61466W        W20903  37.038  26.674  12.407
61467W        W20904  24.704  26.686   3.343
61468W        W20905  42.913  23.030  14.963
61469W        W20906  22.682  35.592   0.765
61470W        W20907   2.907  32.592  10.438
61471W        W20908  31.938   3.861  11.414
61472W        W20909  10.262  36.423   4.173
61473W        W20910   9.243  18.217  12.349
61474W        W20911  44.780   3.765  12.829
61475W        W20912  17.215  34.454  14.403
61476W        W20913  40.896  15.620  13.358
61477W        W20914  43.014  40.917  14.448
61478W        W20915   5.763  35.428   3.198
61479W        W20916  39.375   0.410   0.316
61480W        W20917  33.056  12.166   4.696
61481W        W20918  40.898  26.987  12.481
61482W        W20919  42.393   7.326  12.943
61483W        W20920  10.161  31.929   2.352
61484W        W20921  31.556   3.379  14.799
61485W        W20922  37.968  19.062   1.365
61486W        W20923  43.294   7.751  10.932
61487W        W20924  36.994  38.893   1.303
61488W        W20925   4.219  40.939  12.043
61489W        W20926  23.535  40.367  12.497
61490W        W20927  31.569  39.003   4.240
61491W        W20928  41.356   0.424  12.843
61492W        W20929  28.950  24.215  13.806
61493W        W20930  26.201  24.721   2.250
61494W        W20931  10.176  43.479   0.423
61495W        W20932  26.498  29.493   1.427
61496W        W20933   1.271  18.566  11.417
61497W        W20934  38.378  41.503  14.829
61498W        W20935  19.542  15.176   3.664
61499W        W20936  34.983   4.887  14.843
61500W        W20937  13.627  34.482  13.048
61501W        W20938  28.000  40.524  10.464
61502W        W20939  10.279  34.920  12.534
61503W        W20940  22.159  19.686  12.879
61504W        W20941  40.487  20.103  11.892
61505W        W20942  19.171  37.513  10.586
61506W        W20943  23.165  44.425  14.764
61507W        W20944  36.571  42.852   5.182
61508W        W20945   2.332   3.233   2.264
61509W        W20946  23.609  31.501  11.894
61510W        W20947   0.345  24.525   0.914
61511W        W20948  14.111   1.397   2.415
61512W        W20949  41.825  16.259  14.502
61513W        W20950  37.860   9.325  11.517
61514W        W20951  12.684  39.912  10.964
61515W        W20952  25.570  25.115  10.911
61516W        W20953  33.947  11.865   4.802
61517W        W20954  34.095  22.744  10.408
61518W        W20955  24.221  35.995   3.272
61519W        W20956  35.529  28.550   3.655
61520W        W20957  38.439  44.380   2.334
61521W        W20958  28.086  22.684   3.266
61522W        W20959  15.599  15.238   2.713
61523W        W20960   8.834   3.948   1.323
61524W        W20961  33.431  38.481  10.576
61525W        W20962  41.817  29.600  12.446
61526W        W20963  20.691  42.469   3.801
61527W        W20964  28.981  31.979   3.154
61528W        W20965  30.055  26.988   4.311
61529W        W20966  20.133  28.972   2.259
61530W        W20967   1.775  28.673  11.568
61531W        W20968   2.324  14.661   1.778
61532W        W20969  20.569  17.306   3.321
61533W        W20970  14.805  43.949  13.527
61534W        W20971  34.608  43.978  13.334
61535W        W20972  20.574  37.485   3.315
61536W        W20973  44.802   7.386  12.415
61537W        W20974   9.274  19.677  10.433
61538W        W20975   9.873  30.589   1.741
61539W        W20976  23.230  35.365   0.944
61540W        W20977  11.230   0.786  12.019
61541W        W20978  44.499  14.764  11.098
61542W        W20979  31.964  22.675  10.491
61543W        W20980  19.767   0.949  13.369
61544W        W20981   0.327  23.166   3.860
61545W        W20982   2.959   9.823   2.294
61546W        W20983   5.932  32.940   1.283
61547W        W20984  32.892   0.470  14.788
61548W        W20985   7.694  10.260  10.480
61549W        W20986   1.895  18.180   2.194
61550W        W20987  36.407   7.339  11.405
61551W        W20988  41.395  41.986  13.974
61552W        W20989  36.533  10.285  13.323
61553W        W20990  10.835  17.603   0.776
61554W        W20991   0.401   5.380  10.603
61555W        W20992  22.588  14.757  14.824
61556W        W20993  41.386  36.899   0.436
61557W        W20994  25.091  21.130  13.426
61558W        W20995  29.664  12.239   3.254
61559W        W20996   0.977   3.374  13.527
61560W        W20997  10.704  18.100   1.905
61561W        W20998  43.981  17.102   3.297
61562W        W20999  37.530  25.581   0.818
61563W        W21000  11.724   4.931   0.780
61564W        W21001  38.073  44.308  14.281
61565W        W21002  16.277  14.651  10.889
61566W        W21003  27.162  29.546  13.899
61567W        W21004  22.008   6.365  11.565
61568W        W21005  29.988  38.439  12.073
61569W        W21006  11.237  16.777   1.826
61570W        W21007   6.425   7.738  13.486
61571W        W21008   8.264  10.306   3.853
61572W        W21009  19.583  35.951   3.794
61573W        W21010  40.372   1.340   1.813
61574W        W21011  19.651   1.966  11.989
61575W        W21012   3.777  23.643  12.002
61576W        W21013   6.893  33.617   1.863
61577W        W21014   6.397   7.773   3.640
61578W        W21015  16.627  44.408   2.708
61579W        W21016  23.226   3.726   1.778
61580W        W21017  43.854  26.587   3.655
61581W        W21018  26.200  17.801   1.833
61582W        W21019  28.502  31.897   0.259
61583W        W21020  44.304   9.286  11.599
61584W        W21021  23.548  17.298   2.754
61585W        W21022   9.209  34.393  14.995
61586W        W21023  20.604   0.365   2.231
61587W        W21024  27.098   8.675   4.755
61588W        W21025  38.903   0.485   1.720
61589W        W21026  11.839  34.978   4.683
61590W        W21027   8.281  41.903  10.594
61591W        W21028  42.972  40.541  14.764
61592W        W21029  15.102  34.548  12.406
61593W        W21030  28.038  33.624   9.925
61594W        W21031   9.845  19.768  14.012
61595W        W21032  14.142  21.733   1.342
61596W        W21033   1.804  37.474   1.777
61597W        W21034  34.436  14.224   3.251
61598W        W21035  41.431  20.049   3.842
61599W        W21036   1.785   5.714  12.934
61600W        W21037   7.778  44.952  13.906
61601W        W21038  39.900   8.233   1.333
61602W        W21039  37.849   9.756   1.741
61603W        W21040  42.510  22.130   2.384
61604W        W21041   9.696  35.459   4.349
61605W        W21042  25.529  34.422  13.338
61606W        W21043  22.175  29.575   4.133
61607W        W21044  11.688  40.819  10.413
61608W        W21045  38.892  34.026   1.897
61609W        W21046   3.727  10.326  11.873
61610W        W21047  27.642  20.731  14.862
61611W        W21048  38.915  30.495   0.459
61612W        W21049  20.052  30.036  10.446
61613W        W21050   4.288  10.229   2.873
61614W        W21051  13.744  41.017   3.870
61615W        W21052  42.806   3.382  11.588
61616W        W21053  38.913  35.041   4.195
61617W        W21054  38.509  21.702   2.294
61618W        W21055  40.826   1.852  14.979
61619W        W21056  13.180  43.802   2.397
61620W        W21057  43.337  33.459   2.900
61621W        W21058  41.510  43.495  11.878
61622W        W21059  24.036  39.412   3.306
61623W        W21060  10.314  32.099  12.962
61624W        W21061  23.715   5.919  13.974
61625W        W21062   7.777  39.453  13.824
61626W        W21063  35.879  13.617  13.433
61627W        W21064  37.442   0.887  14.990
61628W        W21065  44.271  28.487   9.985
61629W        W21066  19.283  15.770  10.622
61630W        W21067  42.824  44.373   2.758
61631W        W21068  37.884  30.156  11.400
61632W        W21069   5.314   8.213   4.332
61633W        W21070  16.785  18.588   1.281
61634W        W21071  37.427  32.091   0.360
61635W        W21072  26.991  43.798   4.630
61636W        W21073  28.507  13.254  14.393
61637W        W21074  20.032  19.636  11.011
61638W        W21075  27.007  29.670  11.036
61639W        W21076  17.143  22.686  14.293
61640W        W21077  34.421   3.939  11.894
61641W        W21078  29.528   9.286   2.745
61642W        W21079  23.238  11.755  11.959
61643W        W21080  39.526   0.779  13.438
61644W        W21081  18.622   1.358   1.703
61645W        W21082   2.422  37.550  10.613
61646W        W21083  11.725  19.544   1.702
61647W        W21084  34.873   3.280  13.535
61648W        W21085   4.362  29.016   3.373
61649W        W21086  20.201  10.673   0.342
61650W        W21087  23.003  23.169  11.029
61651W        W21088   8.183  18.051  12.504
61652W        W21089  22.212   1.311   4.348
61653W        W21090  10.764  35.959   1.447
61654W        W21091   6.726  33.038   3.677
61655W        W21092  23.536  36.993  12.517
61656W        W21093  38.438  26.587  12.909
61657W        W21094  24.160  20.703  14.474
61658W        W21095  43.865  14.137  11.415
61659W        W21096   2.966   9.773   2.741
61660W        W21097  41.446  13.724  14.832
61661W        W21098  21.711   5.796   1.310
61662W        W21099   4.841  18.191   2.263
61663W        W21100  20.699  36.868   1.729
61664W        W21101  22.590  41.503   3.375
61665W        W21102   4.408  24.017  10.058
61666W        W21103  13.126  12.288  12.431
61667W        W21104  28.097  32.499  10.519
61668W        W21105  43.963  15.154   2.247
61669W        W21106  15.654   2.759  13.336
61670W        W21107  10.350   0.947  13.469
61671W        W21108  29.662  17.555  13.913
61672W        W21109   5.862   6.361   4.164
61673W        W21110   7.355  16.728  14.881
61674W        W21111  21.234  28.121  10.575
61675W        W21112  44.986   7.395  14.827
61676W        W21113  33.551  33.537   3.188
61677W        W21114  38.331  22.027   2.386
61678W        W21115  25.201  10.380  13.807
61679W        W21116  31.551  25.683  10.444
61680W        W21117  37.423  30.415   1.440
61681W        W21118  13.788  17.643   2.678
61682W        W21119  10.291  26.117   0.296
61683W        W21120   4.308  10.692  11.606
61684W        W21121  28.050  35.372  10.573
61685W        W21122   8.306  13.706  14.382
61686W        W21123  40.415  39.471   2.242
61687W        W21124  20.594  39.432  14.314
61688W        W21125  26.560  31.637  10.430
61689W        W21126  37.453  10.668  11.459
61690W        W21127   6.806  13.256   1.916
61691W        W21128  35.429  15.089   4.334
61692W        W21129   6.862  41.535   2.756
61693W        W21130  21.701   5.895   2.251
61694W        W21131  19.624  20.146  13.960
61695W        W21132   4.220  18.564   1.752
61696W        W21133  30.520  34.865  12.064
61697W        W21134  44.900  42.825   3.730
61698W        W21135  10.261  22.552   1.444
61699W        W21136  35.003  32.416   3.801
61700W        W21137   5.346  13.669  13.002
61701W        W21138  27.024  14.615   0.741
61702W        W21139  16.286  32.625  13.360
61703W        W21140   3.447  35.058  12.092
61704W        W21141  12.126  23.718   3.229
61705W        W21142  20.251  43.791  11.864
61706W        W21143  12.619  17.776   4.152
61707W        W21144  38.064  17.616   2.792
61708W        W21145   5.816   4.725   3.264
61709W        W21146   8.174  34.991   3.751
61710W        W21147  44.381  42.900  14.439
61711W        W21148   7.868  15.237  11.125
61712W        W21149  39.812   2.385   4.261
61713W        W21150  44.497  11.686   0.442
61714W        W21151  29.056  29.931   4.219
61715W        W21152  30.020   8.871   2.848
61716W        W21153  14.744   0.768   2.369
61717W        W21154  44.359  43.271  10.996
61718W        W21155  30.621  19.164   3.239
61719W        W21156   0.252  32.107   3.296
61720W        W21157   2.408   9.242   0.292
61721W        W21158  40.901  30.623  14.462
61722W        W21159  16.090  23.101   3.694
61723W        W21160   6.182  23.215  10.571
61724W        W21161  17.674  28.473  13.834
61725W        W21162  23.662  26.998  11.470
61726W        W21163  12.249  15.757  14.514
61727W        W21164  10.355  34.503   4.163
61728W        W21165  22.734  40.980  11.495
61729W        W21166  32.408  36.020   5.261
61730W        W21167  21.048  30.047  11.485
61731W        W21168  39.416  17.635   0.948
61732W        W21169  27.078  10.746   9.955
61733W        W21170  35.927  17.132   4.344
61734W        W21171  11.199   6.691   1.891
61735W        W21172   4.775  13.756  10.922
61736W        W21173  21.038   2.297  11.984
61737W        W21174  36.474  35.433  10.582
61738W        W21175  28.024  37.988   1.324
61739W        W21176  44.318  12.253   1.397
61740W        W21177   5.290  13.656  10.474
61741W        W21178  36.997   8.337   4.615
61742W        W21179  10.188   9.242   2.780
61743W        W21180   4.241  41.395  10.423
61744W        W21181  19.073  33.987  13.341
61745W        W21182  13.709   0.858   3.335
61746W        W21183   3.805  44.378   0.924
61747W        W21184  20.045  25.081  14.809
61748W        W21185  42.499  37.581   3.653
61749W        W21186  16.740  33.575  10.446
61750W        W21187  40.324  32.079   5.256
61751W        W21188   9.298  24.205  12.381
61752W        W21189  39.381   8.736  12.854
61753W        W21190  43.778   9.355   0.923
61754W        W21191  39.401   5.384  13.875
61755W        W21192  18.704  22.529   2.232
61756W        W21193  40.860   8.831  14.481
61757W        W21194  36.914  12.811   3.868
61758W        W21195  31.430  27.988   4.207
61759W        W21196  32.630  31.539  14.943
61760W        W21197  37.855  10.672  12.504
61761W        W21198   0.316   6.342   4.129
61762W        W21199   1.273  44.312   4.816
61763W        W21200  28.117   8.340  12.346
61764W        W21201  42.831   6.861   0.316
61765W        W21202  32.092   3.816  13.356
61766W        W21203  33.621   1.304   4.680
61767W        W21204  22.663  25.098   5.097
61768W        W21205   7.793  21.652  14.897
61769W        W21206   2.379  27.088   1.333
61770W        W21207  21.669  38.875   2.380
61771W        W21208  35.467  26.997  12.453
61772W        W21209  29.101   5.214  13.331
61773W        W21210  29.466  42.398   0.779
61774W        W21211  33.063   1.297   0.437
61775W        W21212  26.583  20.097  10.405
61776W        W21213  43.483   4.815   4.143
61777W        W21214  16.613  36.533  13.018
61778W        W21215  40.443   6.329   1.718
61779W        W21216   8.794  44.818  10.406
61780W        W21217   4.877  10.689   4.199
61781W        W21218  23.178  34.920   2.662
61782W        W21219  28.113   9.884  14.456
61783W        W21220  30.154  29.084  11.978
61784W        W21221  34.527  23.682  12.546
61785W        W21222  27.968  39.451   9.650
61786W        W21223   1.403  43.836  11.392
61787W        W21224  16.581  30.006  14.310
61788W        W21225  34.531  28.551  14.478
61789W        W21226   1.353  25.645  14.385
61790W        W21227  21.685  43.825   4.253
61791W        W21228  14.753   0.960   3.258
61792W        W21229  18.104   3.748  11.373
61793W        W21230  21.098  11.727   5.260
61794W        W21231  27.521   1.350   0.363
61795W        W21232  16.242   9.269   1.361
61796W        W21233  36.978  22.712  11.493
61797W        W21234  13.124  37.964   1.440
61798W        W21235   2.763   8.398  10.535
61799W        W21236  13.639  26.030  13.830
61800W        W21237   5.868  39.387  13.540
61801W        W21238  11.217  27.610  11.921
61802W        W21239  17.615  31.533  14.790
61803W        W21240   8.305  35.398  10.613
61804W        W21241   5.767  40.022  14.378
61805W        W21242  43.874  31.937   4.750
61806W        W21243   7.688   1.925   0.774
61807W        W21244  21.062  13.207  12.009
61808W        W21245   9.362  20.676   2.725
61809W        W21246  20.111   3.250   2.350
61810W        W21247   6.344  26.597  11.569
61811W        W21248  44.413  40.388  10.465
61812W        W21249  36.485  36.983  12.889
61813W        W21250  13.300  24.565   3.638
61814W        W21251   6.794  16.159   1.349
61815W        W21252  12.691  17.690  14.324
61816W        W21253   4.899  43.833   1.441
61817W        W21254  44.386  14.677   0.418
61818W        W21255  31.082  38.039  10.903
61819W        W21256  23.513  12.612   3.351
61820W        W21257  33.508  32.995  14.275
61821W        W21258   9.870  24.535   0.324
61822W        W21259  34.389  21.258  14.993
61823W        W21260  44.857   3.718  12.344
61824W        W21261   8.208  18.717  11.026
61825W        W21262  42.469   5.907  10.411
61826W        W21263   2.333  43.296  12.851
61827W        W21264  44.416  33.086  11.448
61828W        W21265   8.385  30.614  10.592
61829W        W21266  20.700  13.646   2.264
61830W        W21267  42.945  28.598   4.726
61831W        W21268  33.480  32.503  14.328
61832W        W21269   0.868  44.967  13.961
61833W        W21270  12.730  16.639   1.388
61834W        W21271  23.219   0.841  11.026
61835W        W21272  22.576  38.570   3.185
61836W        W21273  42.833  25.196  11.053
61837W        W21274  18.573  42.987  13.379
61838W        W21275   8.738  19.632   4.257
61839W        W21276  40.010  19.081   0.469
61840W        W21277  23.083   9.830   1.307
61841W        W21278  44.381  15.307  11.562
61842W        W21279   7.756  38.983   0.479
61843W        W21280  43.397  42.420   4.118
61844W        W21281  42.987  42.309   0.957
61845W        W21282   9.281   6.224   3.273
61846W        W21283   7.302  35.852  10.514
61847W        W21284   0.399  34.562  14.905
61848W        W21285  14.228  10.357   1.297
61849W        W21286  44.825   3.296   3.163
61850W        W21287  31.571  22.666  12.544
61851W        W21288  32.931  15.121   0.254
61852W        W21289   0.295  29.956  10.441
61853W        W21290  19.650  17.126  14.792
61854W        W21291  13.188  16.781  10.887
61855W        W21292  24.980  40.996   4.138
61856W        W21293   4.206   8.195  11.498
61857W        W21294  27.679  24.699   5.100
61858W        W21295   5.812  24.482  14.833
61859W        W21296  37.022  32.981   4.835
61860W        W21297  28.580  30.441  12.002
61861W        W21298  29.559  10.292   1.378
61862W        W21299   5.761  13.621   3.757
61863W        W21300   1.831  14.615  14.819
61864W        W21301  12.633  24.187  10.619
61865W        W21302  24.185  34.489   3.829
61866W        W21303  26.023  19.241   0.334
61867W        W21304  16.315  14.278   2.279
61868W        W21305   5.386  15.314   2.364
61869W        W21306   4.408   8.206   3.262
61870W        W21307  15.161  28.515  14.940
61871W        W21308  26.605  17.286   5.232
61872W        W21309  42.451  21.746  11.429
61873W        W21310  40.360  30.481  14.928
61874W        W21311  21.118  40.407   5.235
61875W        W21312  38.513  26.474   0.910
61876W        W21313   1.796  37.009   9.495
61877W        W21314  38.348  44.990   3.819
61878W        W21315   8.354  37.545  10.987
61879W        W21316  35.414  40.936  11.873
61880W        W21317  40.484  34.431   3.645
61881W        W21318  26.540  35.400   0.826
61882W        W21319   7.867  28.629  12.507
61883W        W21320  28.499   9.699   3.174
61884W        W21321   1.436  35.411   2.851
61885W        W21322  12.267  42.384   3.865
61886W        W21323   9.349  28.166   0.283
61887W        W21324   2.399  12.121   0.939
61888W        W21325  14.291  11.335  14.974
61889W        W21326  22.077   0.268  14.893
61890W        W21327  12.287  22.144  10.532
61891W        W21328  16.792  33.045   3.320
61892W        W21329  31.543  11.318  11.595
61893W        W21330   9.855  25.629  13.983
61894W        W21331  23.672  43.412   1.791
61895W        W21332  42.480  39.886  12.952
61896W        W21333  12.611  42.889  10.425
61897W        W21334  35.077  13.827  11.963
61898W        W21335  41.297  12.144  14.930
61899W        W21336  24.068  36.383   4.344
61900W        W21337  19.155  34.920  13.028
61901W        W21338  14.809  14.744   2.297
61902W        W21339  28.030  30.157  13.486
61903W        W21340  12.672  22.166   2.342
61904W        W21341  12.656  17.061  14.823
61905W        W21342   6.807  36.896   4.258
61906W        W21343   4.315  38.848   2.855
61907W        W21344  35.572  42.507  11.445
61908W        W21345  10.186  34.427   0.365
61909W        W21346  38.502  28.044   3.380
61910W        W21347  11.306  36.078   0.364
61911W        W21348  31.016  24.140  12.910
61912W        W21349  18.084  42.943  10.888
61913W        W21350  16.169  15.302   2.710
61914W        W21351  39.440  29.427   4.330
61915W        W21352   2.337  34.874   4.222
61916W        W21353  36.082   1.259  10.970
61917W        W21354  41.034   1.479  10.443
61918W        W21355  40.972  36.866  11.913
61919W        W21356  30.520   7.278   4.333
61920W        W21357  29.008  27.451  10.512
61921W        W21358  24.000   6.402  14.383
61922W        W21359  27.131  19.634  12.017
61923W        W21360  22.123  11.330   0.763
61924W        W21361  35.019  13.234   0.938
61925W        W21362  17.629  17.208   3.819
61926W        W21363  36.479  21.017  14.471
61927W        W21364  26.966  42.377  12.395
61928W        W21365  24.642  13.199  14.936
61929W        W21366  35.983  22.730  12.905
61930W        W21367   6.230   6.920  14.908
61931W        W21368  15.625  21.039  14.497
61932W        W21369  40.458  44.369  14.858
61933W        W21370  24.145  15.659   0.798
61934W        W21371  26.510  15.781   2.787
61935W        W21372  33.130  18.149   4.186
61936W        W21373  38.049  39.038   0.831
61937W        W21374  12.744   3.890  14.026
61938W        W21375  27.159  25.685  11.897
61939W        W21376  44.880   4.357   0.811
61940W        W21377  40.439  44.946  13.983
61941W        W21378  25.218  37.018   5.248
61942W        W21379  20.635   2.755   0.412
61943W        W21380  43.917  21.645   3.367
61944W        W21381  39.944  44.980  12.959
61945W        W21382  18.255  10.814   4.339
61946W        W21383  26.587  39.399  14.911
61947W        W21384   1.370  42.406   1.359
61948W        W21385  11.643   4.776   4.265
61949W        W21386  22.171  23.111   3.305
61950W        W21387  17.178   7.834  11.024
61951W        W21388  27.023  31.134  14.463
61952W        W21389  10.376  39.894   3.760
61953W        W21390  20.655  24.188  14.949
61954W        W21391  36.056  36.494  14.029
61955W        W21392  36.411  34.085   4.629
61956W        W21393  42.993   8.226   4.211
61957W        W21394  12.782  29.113   1.752
61958W        W21395   1.800  17.780   1.415
61959W        W21396   6.190  11.831  11.553
61960W        W21397  15.655  40.803  14.867
61961W        W21398  14.795  25.129  12.438
61962W        W21399  41.334  11.848   0.481
61963W        W21400  19.162  27.489   3.805
61964W        W21401  27.152  38.332   1.261
61965W        W21402  16.697  28.943   3.710
61966W        W21403   4.253   0.852  11.875
61967W        W21404  12.671  19.713  11.530
61968W        W21405   8.403  11.769  10.526
61969W        W21406  34.498   8.746  10.641
61970W        W21407  40.920  42.288  13.853
61971W        W21408  34.980  20.760  10.458
61972W        W21409  44.917  44.408  11.034
61973W        W21410  19.582  20.757  10.406
61974W        W21411  44.876  19.074   4.628
61975W        W21412  42.870  40.865   0.855
61976W        W21413   7.254  20.556   3.337
61977W        W21414  13.736  40.954  14.945
61978W        W21415  37.926  39.403  11.465
61979W        W21416  31.032   8.789   0.855
61980W        W21417  32.425  10.289   4.690
61981W        W21418  32.459  14.740   3.330
61982W        W21419  21.531   9.311   1.423
61983W        W21420  38.563  32.419  14.909
61984W        W21421  19.104  38.411   2.261
61985W        W21422  19.696  20.145  11.402
61986W        W21423  29.136  13.818   3.761
61987W        W21424   6.908  33.543  13.446
61988W        W21425  15.738  29.617   1.225
61989W        W21426  15.186  31.584  10.964
61990W        W21427  30.043  11.751  11.452
61991W        W21428  30.096  17.080  11.060
61992W        W21429  29.600  17.572   0.483
61993W        W21430  23.218  29.964  12.436
61994W        W21431   7.791   7.872   0.912
61995W        W21432   9.795   4.241  14.883
61996W        W21433  42.330  41.368  12.454
61997W        W21434  32.582  35.043   1.214
61998W        W21435  26.529  43.282  12.420
61999W        W21436  29.152  23.182  14.962
62000W        W21437  44.931  36.089   3.255
62001W        W21438  18.590  10.376  13.307
62002W        W21439   6.865  21.192  14.823
62003W        W21440  35.496  15.767  11.018
62004W        W21441   9.367  44.894  13.993
62005W        W21442  39.380  19.549   0.263
62006W        W21443  12.119   5.737   4.281
62007W        W21444   5.811  14.108   1.734
62008W        W21445  32.620  24.104   4.769
62009W        W21446  32.589  12.777   2.665
62010W        W21447   7.815  16.171   4.817
62011W        W21448  39.541   0.842  14.928
62012W        W21449   8.193  11.182  10.416
62013W        W21450  18.148  21.214  11.421
62014W        W21451   6.742  23.099   4.308
62015W        W21452   3.445  22.733   2.755
62016W        W21453   0.890   6.259  13.801
62017W        W21454   5.412  26.532  13.854
62018W        W21455   0.394  14.629   0.246
62019W        W21456  43.303  11.753   1.781
62020W        W21457  25.669  12.726   1.826
62021W        W21458   3.863  10.844   2.216
62022W        W21459  11.218  37.039  14.382
62023W        W21460   7.769  35.926   1.392
62024W        W21461  19.068  17.602  11.593
62025W        W21462  10.286  23.601  10.623
62026W        W21463  12.622   9.343   3.753
62027W        W21464  36.093   4.888   0.475
62028W        W21465  39.972  33.573  12.422
62029W        W21466  38.404   4.275  12.382
62030W        W21467  44.858   5.884  12.393
62031W        W21468  14.815  13.300   2.211
62032W        W21469   0.853  14.795   2.662
62033W        W21470  22.225   9.739   2.318
62034W        W21471   4.838  37.024  11.412
62035W        W21472   1.735   2.231   3.720
62036W        W21473   4.703  39.363   0.935
62037W        W21474  33.950  12.152   2.365
62038W        W21475   9.732   6.882  13.894
62039W        W21476  11.803   1.425  11.563
62040W        W21477  42.004  25.151  11.376
62041W        W21478   3.731  43.394  13.522
62042W        W21479   9.878   0.942  14.432
62043W        W21480  35.920   9.825   1.271
62044W        W21481  43.809  14.102   1.732
62045W        W21482  18.055  43.777  11.511
62046W        W21483  31.931   6.231   0.881
62047W        W21484  41.875   7.299   2.850
62048W        W21485  14.749  11.319   0.392
62049W        W21486  17.141  15.632  10.549
62050W        W21487  20.670  40.878   3.354
62051W        W21488  43.493   2.916   1.743
62052W        W21489  16.267  16.602  12.505
62053W        W21490  29.148  38.372  11.062
62054W        W21491  39.876  21.041   3.330
62055W        W21492   5.726  24.534   1.245
62056W        W21493   9.286  16.653  14.458
62057W        W21494  30.500  40.841   1.437
62058W        W21495  19.083  41.502   4.220
62059W        W21496  35.492  12.750   1.427
62060W        W21497  39.027  19.282   2.829
62061W        W21498  10.174   4.333  13.006
62062W        W21499  16.813  25.566   4.240
62063W        W21500  42.409   2.282  11.511
62064W        W21501  21.041  19.564  12.969
62065W        W21502  31.637   1.868   4.630
62066W        W21503  28.541  14.204  14.297
62067W        W21504   1.321  31.108  14.900
62068W        W21505  29.987  22.677  13.852
62069W        W21506  23.193  18.210  14.404
62070W        W21507   0.978  43.004  10.638
62071W        W21508  39.038  34.452  14.029
62072W        W21509   6.260  10.866   4.224
62073W        W21510  42.410  11.836   1.817
62074W        W21511  36.894  35.397   3.800
62075W        W21512  10.301  20.528   4.657
62076W        W21513  14.676  32.044  10.469
62077W        W21514  12.352  12.219   1.744
62078W        W21515  20.735   4.270   1.257
62079W        W21516  16.169   4.384  11.995
62080W        W21517   8.660  34.418   2.342
62081W        W21518  26.629  17.282   0.351
62082W        W21519  28.964  19.237  11.109
62083W        W21520  28.540  13.779   2.766
62084W        W21521  35.891  17.800   4.710
62085W        W21522  13.690  25.974   2.762
62086W        W21523  42.337  25.155   3.231
62087W        W21524  35.568  31.126   1.921
62088W        W21525  18.702  38.901   0.797
62089W        W21526  44.909  11.691   0.430
62090W        W21527  37.443   2.280   5.110
62091W        W21528  15.311  10.656  12.512
62092W        W21529  38.862   6.922  10.501
62093W        W21530  37.402   1.419  14.970
62094W        W21531  17.113  23.168  13.545
62095W        W21532  15.666  25.133  10.448
62096W        W21533   1.837   2.321  14.408
62097W        W21534  16.706   9.289  10.411
62098W        W21535  10.808   0.808   4.799
62099W        W21536  33.605   0.466  11.425
62100W        W21537  15.204  33.567  12.901
62101W        W21538  25.714  23.038   4.646
62102W        W21539   3.391  36.487  14.314
62103W        W21540   8.323  19.082   1.853
62104W        W21541   3.822  25.545   5.245
62105W        W21542  34.420  17.122  14.506
62106W        W21543  38.973  28.604  12.343
62107W        W21544   3.255   2.345   2.262
62108W        W21545  27.166   5.828  13.844
62109W        W21546   3.234   4.268  12.003
62110W        W21547  19.161  26.600  13.932
62111W        W21548  12.348   1.906   0.875
62112W        W21549   9.242   3.848   3.630
62113W        W21550  20.724   8.385  12.021
62114W        W21551  32.622  36.591  12.529
62115W        W21552  31.096  14.231  13.484
62116W        W21553  27.970  28.095  13.044
62117W        W21554  38.527  31.909   2.770
62118W        W21555   3.802  19.552  13.496
62119W        W21556  37.446  12.332   3.799
62120W        W21557  20.644  43.392   0.272
62121W        W21558  38.424  20.268   4.270
62122W        W21559  28.170  42.510   0.382
62123W        W21560  32.496  35.107  11.984
62124W        W21561  43.348  43.437   0.955
62125W        W21562   3.309  11.273   1.374
62126W        W21563  26.192  33.995   4.228
62127W        W21564  18.741  44.010  11.923
62128W        W21565  26.020  44.983  11.012
62129W        W21566   9.383  21.026  10.617
62130W        W21567  24.192   4.297   0.757
62131W        W21568   6.253  24.178  14.804
62132W        W21569  12.209  15.290  13.866
62133W        W21570  41.449  16.690  11.061
62134W        W21571  42.331  42.899  12.418
62135W        W21572  42.969   7.348  14.785
62136W        W21573  25.658  42.283   0.914
62137W        W21574   1.247   2.927  10.483
62138W        W21575  10.719   4.935   4.602
62139W        W21576  39.947  28.551  13.849
62140W        W21577   0.320  10.825   5.590
62141W        W21578  13.247  32.619  12.557
62142W        W21579   2.966  34.436  11.467
62143W        W21580  17.117  33.998  13.905
62144W        W21581  22.095  17.102   2.809
62145W        W21582   1.848  38.537  13.386
62146W        W21583  36.049  37.046   0.308
62147W        W21584  11.743   2.233  14.990
62148W        W21585  17.748  43.417   5.129
62149W        W21586  36.481  21.539  11.046
62150W        W21587  26.524  17.653  11.942
62151W        W21588  29.097   6.416  13.912
62152W        W21589  40.803  33.881   1.392
62153W        W21590   3.310  29.949  13.384
62154W        W21591  12.784  11.364   1.900
62155W        W21592  24.147  30.990  11.881
62156W        W21593  20.035  33.452  13.057
62157W        W21594  10.838  15.313   4.306
62158W        W21595  10.152  11.186   1.216
62159W        W21596   2.396  42.972   2.811
62160W        W21597  15.325   2.345   4.779
62161W        W21598  24.048  13.187   1.249
62162W        W21599  18.188  33.602   3.254
62163W        W21600  13.806  21.196   1.730
62164W        W21601  42.434  28.458   2.827
62165W        W21602   7.211  32.891  10.959
62166W        W21603  31.966  35.431  12.908
62167W        W21604   7.850  20.584   2.279
62168W        W21605  19.745  12.168  11.379
62169W        W21606  44.394   4.757   0.808
62170W        W21607   9.208  40.384   3.340
62171W        W21608  11.178  41.455  12.553
62172W        W21609  13.303  32.132  14.958
62173W        W21610  35.052  31.898   0.434
62174W        W21611  21.138  31.403  13.389
62175W        W21612  13.715  16.603   1.428
62176W        W21613  38.463  15.760  10.985
62177W        W21614  34.563  31.930  12.895
62178W        W21615  16.664  34.865  14.782
62179W        W21616   0.899  10.734   1.842
62180W        W21617  18.098  23.091   2.841
62181W        W21618  18.268  21.640   2.679
62182W        W21619  32.096  18.070  13.476
62183W        W21620  33.445   3.781   4.696
62184W        W21621   2.895  16.795   5.657
62185W        W21622  10.734  40.859  12.945
62186W        W21623   2.729  10.196  14.486
62187W        W21624  17.662  11.625  11.450
62188W        W21625   3.242  21.123   0.289
62189W        W21626   8.403  26.989   0.243
62190W        W21627  40.931  17.606  12.890
62191W        W21628  37.871  16.808   3.356
62192W        W21629   9.649   8.785  14.956
62193W        W21630   3.289  31.131   2.301
62194W        W21631  35.086  41.525  11.089
62195W        W21632  32.510  19.096   1.914
62196W        W21633  44.465   3.728   5.247
62197W        W21634  14.721  29.427  14.007
62198W        W21635  26.181   6.886   1.699
62199W        W21636   2.938  32.636  13.038
62200W        W21637  35.883  15.231   1.742
62201W        W21638  22.703   4.429  11.903
62202W        W21639  21.150   0.272   4.610
62203W        W21640  33.127  25.682  13.062
62204W        W21641  12.360   2.362   2.233
62205W        W21642  42.973  22.095  12.016
62206W        W21643  44.293  34.486  10.520
62207W        W21644  41.324  20.039   3.220
62208W        W21645   4.823  18.615  10.410
62209W        W21646  19.226  17.630  10.139
62210W        W21647  17.306  14.593  12.856
62211W        W21648   4.209  16.223  11.120
62212W        W21649  18.654  37.553   2.664
62213W        W21650  10.171  44.399  13.420
62214W        W21651  26.641  11.246   0.926
62215W        W21652  42.890  15.584  10.949
62216W        W21653  41.924  38.520   1.764
62217W        W21654  26.570  15.649  11.888
62218W        W21655  10.785  42.423  10.523
62219W        W21656  10.241  32.136   2.753
62220W        W21657   0.823  15.792   3.301
62221W        W21658  14.731  31.061   4.201
62222W        W21659  25.166  39.508   2.295
62223W        W21660   5.867   0.388   1.868
62224W        W21661  27.967  40.913  13.310
62225W        W21662  37.424  22.610   1.915
62226W        W21663   1.906  42.455  11.440
62227W        W21664  38.991  16.648   4.599
62228W        W21665  32.960  32.519  12.345
62229W        W21666   4.863  16.674  12.468
62230W        W21667   5.423   3.763   4.791
62231W        W21668   7.745  29.606  14.393
62232W        W21669  19.681  24.027   2.212
62233W        W21670  36.526   6.223  13.470
62234W        W21671  11.796  10.349   5.178
62235W        W21672  42.793  20.725  14.838
62236W        W21673  17.732  38.951  13.987
62237W        W21674  15.182   2.431  14.339
62238W        W21675  24.634  14.234  13.032
62239W        W21676   8.897   8.403  14.373
62240W        W21677  27.103  44.004   0.746
62241W        W21678  15.102   8.400   3.231
62242W        W21679  12.254  22.568   3.383
62243W        W21680  24.117  44.362  13.917
62244W        W21681  34.920  24.609   9.988
62245W        W21682   4.890  24.139   4.118
62246W        W21683  11.742  39.386  11.873
62247W        W21684  35.062   1.346  12.507
62248W        W21685  18.677   1.826   0.367
62249W        W21686  23.995  25.544   4.164
62250W        W21687  13.279  12.657   9.988
62251W        W21688  34.069  14.831   4.790
62252W        W21689   8.688  13.789   0.465
62253W        W21690   4.239  37.927   0.464
62254W        W21691  30.500  13.289  14.278
62255W        W21692  14.329  25.023  13.059
62256W        W21693  20.760  24.070  13.333
62257W        W21694   2.382  19.162  12.386
62258W        W21695  41.497  17.652  14.789
62259W        W21696  36.985  22.693  14.793
62260W        W21697  44.968   4.794  13.499
62261W        W21698  22.688   7.725  11.569
62262W        W21699  35.592  42.808   4.121
62263W        W21700   9.375   9.725  12.955
62264W        W21701  27.114  30.534   3.639
62265W        W21702   6.194   8.736   1.811
62266W        W21703  39.539   3.321  13.855
62267W        W21704  18.111   5.778  14.460
62268W        W21705  43.872  31.432  13.518
62269W        W21706  20.656   4.274  13.043
62270W        W21707  35.412   8.396  10.899
62271W        W21708  31.410   5.783   0.269
62272W        W21709  26.700  34.038  12.358
62273W        W21710  42.521   4.325  11.385
62274W        W21711  29.504  14.220   3.643
62275W        W21712   6.398  35.429  14.796
62276W        W21713  32.088   2.837  12.957
62277W        W21714   4.841  30.121  12.357
62278W        W21715   2.783  34.394  12.040
62279W        W21716   2.361  34.479  12.835
62280W        W21717  24.046  42.327   3.169
62281W        W21718  14.640  16.285   2.314
62282W        W21719  21.661  31.404  13.811
62283W        W21720   7.293  32.003   1.236
62284W        W21721  13.699  18.640  13.332
62285W        W21722  43.494   6.225   0.246
62286W        W21723   5.691  40.913  14.812
62287W        W21724   5.200  27.673  13.453
62288W        W21725  25.115   0.843   4.797
62289W        W21726   2.723  42.805  11.953
62290W        W21727  29.951  16.227   3.834
62291W        W21728  36.047  21.530  14.845
62292W        W21729  37.502   2.460   1.766
62293W        W21730  32.489  27.965  12.479
62294W        W21731  33.476  21.702   0.444
62295W        W21732   9.243  41.865   0.404
62296W        W21733  33.561  25.142   3.270
62297W        W21734  34.938  42.449   1.231
62298W        W21735  44.503  20.725   1.400
62299W        W21736  10.198  25.043   4.690
62300W        W21737  25.561  10.805  14.934
62301W        W21738  33.495  36.389   2.324
62302W        W21739  18.153  42.779   1.411
62303W        W21740  28.043  37.860  10.601
62304W        W21741  19.550  21.693   0.765
62305W        W21742   0.849  43.337   0.895
62306W        W21743   9.832  41.532  10.599
62307W        W21744  42.856  11.705   1.444
62308W        W21745  33.900  30.477  12.938
62309W        W21746  38.337   1.356  13.479
62310W        W21747   1.366  22.162  10.904
62311W        W21748  11.307  13.272  11.021
62312W        W21749  29.919   4.360   3.170
62313W        W21750  41.342   3.287  12.432
62314W        W21751  19.692  32.977  14.811
62315W        W21752  32.039  29.562   5.148
62316W        W21753   5.244  31.060   1.725
62317W        W21754  25.478  34.412  11.519
62318W        W21755  30.090  35.410  11.571
62319W        W21756   9.283  23.989   3.366
62320W        W21757   4.755  21.734  10.519
62321W        W21758  19.570   7.361   4.670
62322W        W21759  16.149  24.203  14.774
62323W        W21760   5.435  27.075   0.778
62324W        W21761   7.261  40.049  14.406
62325W        W21762  42.923  39.844   4.625
62326W        W21763  30.520   1.976  12.468
62327W        W21764  24.494   0.395   0.318
62328W        W21765  14.113  12.233   0.863
62329W        W21766  13.734   1.959   2.304
62330W        W21767  38.869  37.904   2.871
62331W        W21768  39.427  21.687   4.191
62332W        W21769   7.404   6.842  11.069
62333W        W21770   1.808  41.524  12.955
62334W        W21771  42.352  41.301  11.958
62335W        W21772   0.344   1.306  10.566
62336W        W21773  35.086  21.563  10.589
62337W        W21774  37.532   0.491   3.239
62338W        W21775  42.892  17.720   3.334
62339W        W21776   0.873  34.026   2.861
62340W        W21777   9.324  37.926  11.414
62341W        W21778  15.726  18.222  14.810
62342W        W21779  13.231  37.417   0.782
62343W        W21780  26.612  39.519  10.521
62344W        W21781  20.053  40.443  13.947
62345W        W21782   8.794  40.028  11.014
62346W        W21783   6.413  42.449   2.758
62347W        W21784  36.086  15.667  14.841
62348W        W21785  42.505  38.840   4.156
62349W        W21786   8.877  25.474  10.421
62350W        W21787  12.274  23.652   1.928
62351W        W21788   1.834   4.944  11.953
62352W        W21789  13.348  24.051   1.912
62353W        W21790  13.727   7.665  14.426
62354W        W21791  37.400  35.586   1.373
62355W        W21792  39.358   3.791   0.807
62356W        W21793  11.347  10.737   1.902
62357W        W21794  26.604  22.119   4.274
62358W        W21795  35.937  35.870  11.451
62359W        W21796   8.325  24.687  14.874
62360W        W21797  18.168  44.497  12.579
62361W        W21798  31.968  20.711   1.906
62362W        W21799  17.185  14.311   3.814
62363W        W21800  30.525  19.674   4.248
62364W        W21801  31.080  18.201  14.954
62365W        W21802  27.179  13.641   2.338
62366W        W21803  37.434  42.901   3.728
62367W        W21804  26.680  16.743   2.361
62368W        W21805  35.947   7.327   1.397
62369W        W21806  15.791  25.040   2.812
62370W        W21807  29.556  37.950  11.887
62371W        W21808   2.741  25.471  10.029
62372W        W21809  44.909   1.826   0.343
62373W        W21810   3.748  32.533  12.890
62374W        W21811  15.139  21.127   1.906
62375W        W21812  21.259  13.345   0.355
62376W        W21813  18.775  35.373  14.008
62377W        W21814   5.810  26.598   1.743
62378W        W21815  39.835  15.755  13.465
62379W        W21816  32.119  42.996   0.791
62380W        W21817  26.018  11.704   2.234
62381W        W21818  22.563  39.342   3.371
62382W        W21819   4.288   1.390  14.385
62383W        W21820   2.816  21.649   1.866
62384W        W21821  36.048  18.151   2.684
62385W        W21822  20.753  43.857   2.817
62386W        W21823  42.917  19.071  12.562
62387W        W21824  43.914  44.839   1.694
62388W        W21825  43.446  27.078   2.362
62389W        W21826  38.950  39.536  14.995
62390W        W21827  33.924  27.970  12.837
62391W        W21828  38.070  27.190   3.760
62392W        W21829  18.760  43.872  11.003
62393W        W21830   3.321  28.075  11.551
62394W        W21831  23.094   5.379  13.450
62395W        W21832  11.701  30.559  14.013
62396W        W21833   7.322   2.731  13.542
62397W        W21834  24.497  23.098   2.899
62398W        W21835  25.600  37.060  13.046
62399W        W21836   5.735   8.362   1.364
62400W        W21837  13.229  22.675   2.295
62401W        W21838  33.401  41.316  13.864
62402W        W21839  36.964  31.964   4.690
62403W        W21840   9.287  11.167   4.284
62404W        W21841  39.038  42.825  14.440
62405W        W21842   7.319  40.515  11.406
62406W        W21843  33.421  11.332   4.317
62407W        W21844   4.770  36.078  13.473
62408W        W21845  10.180   1.894  11.593
62409W        W21846  12.306  36.504   2.239
62410W        W21847  41.295  12.622  13.809
62411W        W21848  41.493   8.379  13.469
62412W        W21849  40.412  19.612  13.908
62413W        W21850   5.331  19.633  13.796
62414W        W21851  17.098  43.343  10.994
62415W        W21852   9.725  35.029  13.505
62416W        W21853  14.772  41.982   2.748
62417W        W21854  24.088  37.399  13.447
62418W        W21855   6.225  14.235   1.268
62419W        W21856  26.002  12.677   2.770
62420W        W21857  44.311   1.336  12.498
62421W        W21858  33.625  23.694  14.473
62422W        W21859  18.711  36.349  13.493
62423W        W21860  15.596  36.951   2.887
62424W        W21861  37.388   1.390  13.473
62425W        W21862  10.211  22.589  14.289
62426W        W21863   4.849  12.842   0.381
62427W        W21864  26.051   7.178   2.696
62428W        W21865   3.309  12.168   0.477
62429W        W21866  13.277  13.640   0.844
62430W        W21867  37.946   0.912  11.956
62431W        W21868  15.795   1.971   1.289
62432W        W21869  24.587  20.558   4.164
62433W        W21870   8.803  14.336   1.220
62434W        W21871  19.560  11.354   1.237
62435W        W21872  19.144   5.856  11.489
62436W        W21873  24.071   3.913  14.999
62437W        W21874   5.327  43.879   2.856
62438W        W21875   6.386  25.067  13.922
62439W        W21876  24.587  21.533   0.862
62440W        W21877  31.427  18.592   3.662
62441W        W21878  16.721   4.909  12.943
62442W        W21879  40.338  10.377  13.312
62443W        W21880  40.543   4.276   3.274
62444W        W21881   6.750  38.922  11.395
62445W        W21882  40.350  23.599  12.043
62446W        W21883  41.819  21.672   3.773
62447W        W21884   6.683   4.348  12.566
62448W        W21885  27.184   3.289   1.884
62449W        W21886  20.110  37.873   3.842
62450W        W21887  31.487  31.998   4.631
62451W        W21888  42.848  15.148   2.409
62452W        W21889  16.779   7.394   2.346
62453W        W21890  13.316  41.884  13.792
62454W        W21891  19.233  19.549  14.444
62455W        W21892  14.824  30.623  11.543
62456W        W21893  21.051  14.787  14.323
62457W        W21894  22.704  34.391   2.291
62458W        W21895  32.394  12.663  11.483
62459W        W21896   7.788  26.500  11.927
62460W        W21897  18.640  42.937   1.261
62461W        W21898   7.310  43.004   0.846
62462W        W21899   8.809  12.822  12.993
62463W        W21900  35.983  35.543  13.936
62464W        W21901  36.460  29.466   1.733
62465W        W21902  34.384   5.848   0.309
62466W        W21903  32.063   7.183   1.372
62467W        W21904  42.340  31.101   2.372
62468W        W21905  41.392  28.590  14.777
62469W        W21906  34.607  27.135   3.328
62470W        W21907  37.002  31.973   0.328
62471W        W21908  40.478  28.473  11.983
62472W        W21909  24.624  17.682   4.317
62473W        W21910  44.429  42.793   5.267
62474W        W21911  35.062  13.611  11.526
62475W        W21912  32.036  41.440   4.173
62476W        W21913   7.230  27.537  13.826
62477W        W21914  14.630  35.598  11.985
62478W        W21915  20.255  16.690  13.863
62479W        W21916   1.413  43.315  14.351
62480W        W21917  27.071  17.689  11.583
62481W        W21918  31.617  39.062  12.829
62482W        W21919   5.822  15.297  11.129
62483W        W21920  21.034  30.575   2.193
62484W        W21921  30.580  30.628  12.829
62485W        W21922  27.653  26.701   0.265
62486W        W21923   1.472  42.922   2.825
62487W        W21924  31.643   0.310   2.900
62488W        W21925  38.508   6.819   0.285
62489W        W21926   9.735  30.628  12.426
62490W        W21927  31.928   8.720  11.084
62491W        W21928  38.892  27.125   0.332
62492W        W21929   5.752  14.112   2.215
62493W        W21930  11.807  25.660  13.446
62494W        W21931  13.677  36.526  13.489
62495W        W21932   0.970  24.126  10.429
62496W        W21933  43.332  14.204  13.037
62497W        W21934  16.732  19.679  14.023
62498W        W21935  22.682  14.603   3.301
62499W        W21936   4.204  32.532  12.016
62500W        W21937  12.254  14.698   3.719
62501W        W21938  22.577   3.297   2.808
62502W        W21939  29.059  39.917   4.263
62503W        W21940  14.738  28.578   3.253
62504W        W21941   7.782  42.334   4.747
62505W        W21942  22.022   2.368   3.319
62506W        W21943   8.204   7.744  14.303
62507W        W21944  31.965   0.307   4.253
62508W        W21945  27.093  44.450   4.229
62509W        W21946  12.738   9.829  14.401
62510W        W21947   0.942  10.814   2.343
62511W        W21948  35.463  31.602   3.697
62512W        W21949  12.205  12.187  13.830
62513W        W21950  21.656  18.754   3.347
62514W        W21951  18.692  33.557  13.946
62515W        W21952  29.537   6.257   2.365
62516W        W21953  27.581  41.359  14.294
62517W        W21954   1.300  34.917   2.272
62518W        W21955  10.789  18.071   0.462
62519W        W21956  28.065  15.710   2.405
62520W        W21957   2.296  27.557  10.036
62521W        W21958  30.577  20.204  13.821
62522W        W21959  12.131   1.775   2.187
62523W        W21960  17.801   9.308  13.045
62524W        W21961  27.047  12.611  13.401
62525W        W21962  35.003  10.298  12.527
62526W        W21963  15.820  29.964  11.550
62527W        W21964  31.407  33.398  10.993
62528W        W21965  39.552  33.874   4.738
62529W        W21966  26.593   8.288   2.345
62530W        W21967  34.080  36.447  11.021
62531W        W21968  36.405  30.038  12.394
62532W        W21969  17.745  42.020   3.385
62533W        W21970  37.976  10.318  12.573
62534W        W21971   2.407  12.735  13.999
62535W        W21972  21.628  29.630   4.132
62536W        W21973  22.684   8.846   1.320
62537W        W21974  17.298  33.958   4.246
62538W        W21975  35.974  34.531  10.498
62539W        W21976  34.529  10.646  10.929
62540W        W21977  16.710  40.307  11.901
62541W        W21978  28.091   2.254  11.032
62542W        W21979  30.594  32.500   4.307
62543W        W21980  21.560  38.950  14.304
62544W        W21981  29.463   1.473  10.493
62545W        W21982   1.429  39.370  12.934
62546W        W21983  18.288  18.743   0.735
62547W        W21984  25.202  21.168   3.715
62548W        W21985   3.374  26.064   2.222
62549W        W21986  22.579  41.501   9.997
62550W        W21987  35.472  37.512  12.522
62551W        W21988  39.872  23.049   2.796
62552W        W21989  41.013  29.963  12.376
62553W        W21990  14.205  26.620   1.900
62554W        W21991  35.905  16.195   1.867
62555W        W21992  43.327  12.739  14.930
62556W        W21993  23.153  28.467   1.278
62557W        W21994  12.206  17.619  13.491
62558W        W21995  20.221  29.164  10.441
62559W        W21996   3.338  23.994   0.270
62560W        W21997  30.013  26.477  10.987
62561W        W21998  38.427   5.926   3.830
62562W        W21999  39.896  13.676   1.421
62563W        W22000  44.001  13.731   3.780
62564W        W22001   6.903  17.244  14.309
62565W        W22002  12.834  15.258   0.251
62566W        W22003  39.817   0.847   2.351
62567W        W22004  19.202  36.453   0.351
62568W        W22005  19.534  24.702  12.477
62569W        W22006   2.895  24.986   0.445
62570W        W22007  30.468  24.155   2.178
62571W        W22008   9.875  20.691  10.430
62572W        W22009  43.765   6.335   3.227
62573W        W22010  25.504  35.067  14.006
62574W        W22011   9.224  37.561  10.620
62575W        W22012  35.500  25.617   1.298
62576W        W22013  44.492  31.005   4.711
62577W        W22014  42.415  25.588  10.485
62578W        W22015  29.522  40.385  11.578
62579W        W22016  40.902   8.785   2.813
62580W        W22017  33.007  28.478  12.064
62581W        W22018   0.919  41.867  12.375
62582W        W22019  27.545   0.263   2.311
62583W        W22020  15.269  44.259   3.784
62584W        W22021  44.968   9.174   2.339
62585W        W22022  26.149  20.608  14.900
62586W        W22023  41.388  32.488  13.028
62587W        W22024  20.078  13.182  14.798
62588W        W22025  36.487   8.208  11.009
62589W        W22026  29.926  20.136  14.964
62590W        W22027  28.034  34.110  13.930
62591W        W22028  32.406   3.320   2.888
62592W        W22029   8.383   5.284  13.867
62593W        W22030  25.625   9.388  13.393
62594W        W22031  20.544  22.250   0.949
62595W        W22032  10.234   9.848   2.678
62596W        W22033  21.074  14.215   4.757
62597W        W22034  33.994  20.134  14.988
62598W        W22035  19.150  34.591   3.374
62599W        W22036  25.499  17.129   2.666
62600W        W22037   3.284  15.754   3.668
62601W        W22038  16.207  42.416  11.102
62602W        W22039  18.291   4.345   2.871
62603W        W22040  11.342   5.863   1.400
62604W        W22041  44.833   8.791  14.435
62605W        W22042  17.202   4.744  10.585
62606W        W22043  11.803  10.872   0.312
62607W        W22044  38.990  40.304  13.373
62608W        W22045  43.785  17.667  14.329
62609W        W22046  33.419  29.567  13.911
62610W        W22047  23.668  19.560   3.768
62611W        W22048  40.919   7.243   0.859
62612W        W22049  28.996  40.428   5.180
62613W        W22050  21.647  12.204  11.393
62614W        W22051  35.515  40.406   1.281
62615W        W22052  17.280  13.231   0.419
62616W        W22053  39.060  33.585   3.679
62617W        W22054  40.029  13.235   0.472
62618W        W22055  42.310  25.694   1.329
62619W        W22056  21.088  32.576  13.049
62620W        W22057  24.206   3.901  11.431
62621W        W22058  14.648  40.448  11.930
62622W        W22059  15.768  16.219   5.712
62623W        W22060   2.257  39.893   4.212
62624W        W22061  30.643  26.021   3.826
62625W        W22062   5.420   3.896  14.989
62626W        W22063  37.903  10.657  10.942
62627W        W22064  33.419  32.956  12.073
62628W        W22065  18.139  27.123   4.798
62629W        W22066  15.709  25.566  14.974
62630W        W22067  44.475  42.984  12.883
62631W        W22068  28.496  24.021  12.926
62632W        W22069   1.937  37.883  14.026
62633W        W22070   9.241  23.699   2.726
62634W        W22071  38.493  17.180  12.890
62635W        W22072  25.111  43.377  14.890
62636W        W22073  12.703  33.431   3.290
62637W        W22074  29.128  44.972   0.837
62638W        W22075   2.354  27.660   4.664
62639W        W22076  23.533  25.687   3.860
62640W        W22077  22.598   8.714  10.497
62641W        W22078  38.866   5.706   0.921
62642W        W22079  23.008  43.806   3.665
62643W        W22080   5.834  37.914  14.889
62644W        W22081   7.737  36.496   3.283
62645W        W22082  41.850   9.681  12.545
62646W        W22083   7.824  20.188   0.727
62647W        W22084  11.809  12.613   4.605
62648W        W22085  23.573  17.305  12.985
62649W        W22086  43.951  26.499   1.865
62650W        W22087  32.117  20.577  14.784
62651W        W22088   7.319  30.097  12.393
62652W        W22089  12.292  15.770  11.932
62653W        W22090  12.706  11.677   1.850
62654W        W22091  34.421  41.988  14.978
62655W        W22092  26.630  12.164   0.381
62656W        W22093   3.345  12.723  11.076
62657W        W22094   5.716  34.866  10.559
62658W        W22095   0.473   6.346  14.994
62659W        W22096  30.995  26.513  12.891
62660W        W22097   6.312   0.423  11.466
62661W        W22098   3.452  13.784  14.816
62662W        W22099  17.725  23.675   2.392
62663W        W22100  14.598  37.867   3.170
62664W        W22101  10.242  42.982  12.849
62665W        W22102  31.006  37.941   2.746
62666W        W22103  14.335  36.083   3.818
62667W        W22104  41.789  24.000   3.372
62668W        W22105  15.676   5.816   2.269
62669W        W22106   5.371  11.726  13.380
62670W        W22107  37.347  25.596  14.414
62671W        W22108  20.048  20.552   3.829
62672W        W22109  31.050  30.640   9.988
62673W        W22110  38.842  20.189   1.786
62674W        W22111  29.072  40.018   2.708
62675W        W22112   8.719  37.029  13.008
62676W        W22113   0.341   4.710   2.666
62677W        W22114  15.661  41.348  10.539
62678W        W22115  30.456  27.158   2.697
62679W        W22116  25.011  25.488  12.878
62680W        W22117   7.778  30.445  12.077
62681W        W22118  35.879  31.122   1.707
62682W        W22119  31.148  26.097  10.919
62683W        W22120  29.597  30.631   1.423
62684W        W22121   2.828  15.208   0.323
62685W        W22122  15.084  35.027  10.993
62686W        W22123  44.281  24.005  13.955
62687W        W22124   7.338  14.727  13.042
62688W        W22125  20.686  38.929  10.603
62689W        W22126  21.192  23.192  13.024
62690W        W22127   4.940  36.976  12.058
62691W        W22128  31.054  13.148   0.950
62692W        W22129  33.598  37.022  13.425
62693W        W22130   9.816  33.562   2.268
62694W        W22131   7.872  33.029   0.852
62695W        W22132  26.653  10.641   3.314
62696W        W22133  31.637  12.232   4.212
62697W        W22134   5.354   5.742  12.871
62698W        W22135  26.670  35.527  12.991
62699W        W22136  31.514  12.150   3.753
62700W        W22137  15.635  14.721   1.376
62701W        W22138  26.991  14.148  14.812
62702W        W22139  20.248  34.579  13.009
62703W        W22140  18.253  40.503   1.279
62704W        W22141   0.493  35.874  13.874
62705W        W22142  18.694   1.976  13.060
62706W        W22143  10.178  40.344   3.378
62707W        W22144  15.760   8.389   2.885
62708W        W22145  24.127   3.363  12.883
62709W        W22146   5.729  37.523   1.911
62710W        W22147  19.241  14.332   1.880
62711W        W22148  20.584  18.576   3.308
62712W        W22149  13.801  43.446   0.772
62713W        W22150  11.354  40.954   4.606
62714W        W22151  22.240   6.273  10.965
62715W        W22152  45.000   2.736   0.947
62716W        W22153  14.632  15.814   4.342
62717W        W22154  15.764  43.513   1.728
62718W        W22155  31.106   8.270   3.704
62719W        W22156  35.597  27.606  11.434
62720W        W22157   2.281  11.297   2.734
62721W        W22158  32.456  40.948  11.015
62722W        W22159   0.884  40.544   2.788
62723W        W22160   7.781  10.765  10.611
62724W        W22161  13.138   2.329  12.549
62725W        W22162  21.153  31.483   2.851
62726W        W22163   9.691   6.276  11.424
62727W        W22164  39.989  34.514   3.757
62728W        W22165  44.365  28.500  11.393
62729W        W22166   2.764  17.707  12.385
62730W        W22167   3.391   5.810   2.766
62731W        W22168   9.227   3.749   4.702
62732W        W22169   8.660  12.853   2.415
62733W        W22170   6.898   0.453  11.072
62734W        W22171  28.645   4.381  11.019
62735W        W22172  35.522  40.471  11.112
62736W        W22173  11.239  25.050   3.814
62737W        W22174  12.344  19.654  14.949
62738W        W22175  44.835  38.829  11.564
62739W        W22176  26.021  21.556   9.960
62740W        W22177   3.435  15.621  13.488
62741W        W22178   2.915  34.396  12.534
62742W        W22179   2.374  25.479   3.152
62743W        W22180   9.873  16.283  14.835
62744W        W22181  13.287  38.853  12.343
62745W        W22182  17.742  20.135   1.844
62746W        W22183  35.969  29.543   4.256
62747W        W22184  36.934   2.234   3.855
62748W        W22185  34.401  18.693   4.763
62749W        W22186  36.407  16.720  14.361
62750W        W22187  41.943   4.928   0.427
62751W        W22188   9.180  22.187  11.928
62752W        W22189  29.945  19.660  10.504
62753W        W22190  14.143   0.376   4.784
62754W        W22191   4.282   7.228   1.222
62755W        W22192  38.827   2.317   4.164
62756W        W22193  44.282  32.530  14.453
62757W        W22194  35.927   2.892  12.902
62758W        W22195  28.028  42.908  11.601
62759W        W22196  24.538  12.339   5.101
62760W        W22197  10.380  31.147   2.841
62761W        W22198  22.589  30.112   1.871
62762W        W22199  22.195  30.640   0.360
62763W        W22200  41.960  38.988  11.069
62764W        W22201  26.620   2.869  11.440
62765W        W22202   8.654  35.869  10.476
62766W        W22203  43.934  39.322  14.969
62767W        W22204   4.705   3.845   1.696
62768W        W22205  14.316  28.151   4.221
62769W        W22206   9.353  21.252   3.384
62770W        W22207  39.039  40.020   5.229
62771W        W22208  41.372  11.769   1.890
62772W        W22209   2.353  34.483   9.931
62773W        W22210  41.867  23.641  13.448
62774W        W22211  16.595  39.479   1.387
62775W        W22212  22.658  39.993   5.199
62776W        W22213  24.082  28.069  14.475
62777W        W22214  34.994  32.590  14.881
62778W        W22215  38.493  18.575   4.656
62779W        W22216  17.590  28.536  10.467
62780W        W22217  24.603   1.843  12.498
62781W        W22218  14.172  23.133  11.593
62782W        W22219   1.741  29.134  11.020
62783W        W22220  14.597  22.099   0.743
62784W        W22221  25.652  38.400   3.376
62785W        W22222  35.378  21.613   1.784
62786W        W22223  41.938  41.817   3.669
62787W        W22224  21.589  32.122  10.150
62788W        W22225  40.484  27.691   1.839
62789W        W22226  12.672  25.000  12.400
62790W        W22227  26.514   0.353  10.530
62791W        W22228  12.720  16.757   2.385
62792W        W22229  23.018  27.594  14.962
62793W        W22230  43.962   4.743  12.567
62794W        W22231  23.038  23.030   5.120
62795W        W22232  11.699  17.180  13.364
62796W        W22233  16.665  35.914   1.926
62797W        W22234  35.377  24.125   1.393
62798W        W22235  23.702  34.567  13.808
62799W        W22236   3.949  40.430   1.769
62800W        W22237  27.653  30.161  14.860
62801W        W22238   4.775  17.268  14.322
62802W        W22239  21.725  38.336   5.800
62803W        W22240  23.630  14.809  14.772
62804W        W22241  16.714  15.691   1.868
62805W        W22242  21.165  29.072  13.878
62806W        W22243  11.247  18.588  11.046
62807W        W22244  36.477  38.961  13.386
62808W        W22245  26.015  44.980  14.276
62809W        W22246   5.804  42.511   3.314
62810W        W22247  12.297  31.102   4.312
62811W        W22248  25.695  31.459   1.740
62812W        W22249  22.066  20.101   2.865
62813W        W22250   3.910  12.673   2.749
62814W        W22251  20.270  26.571   4.353
62815W        W22252  14.670  35.916  12.568
62816W        W22253   8.368  21.047   0.252
62817W        W22254  20.129   1.803   4.226
62818W        W22255  20.052  32.975  10.512
62819W        W22256   7.774  25.188   0.289
62820W        W22257   3.416  32.564  14.002
62821W        W22258   7.353  11.221  12.345
62822W        W22259  12.619  20.736   4.152
62823W        W22260  39.412  23.648  11.045
62824W        W22261   2.911  15.639  14.488
62825W        W22262   2.863  15.690   9.588
62826W        W22263   4.340  38.075   4.764
62827W        W22264  11.339  30.995  12.521
62828W        W22265  16.131  32.043   4.637
62829W        W22266  12.617  19.705  14.471
62830W        W22267  22.590  43.913  11.082
62831W        W22268  13.320  27.009  13.429
62832W        W22269  24.001  14.671   0.476
62833W        W22270  15.277  22.010  14.978
62834W        W22271   8.758  36.874   1.807
62835W        W22272   3.879   7.796  13.899
62836W        W22273  18.660  31.923   3.826
62837W        W22274   8.203  34.460  10.894
62838W        W22275   0.789  36.921   1.778
62839W        W22276  35.110  25.168  13.829
62840W        W22277  36.582  30.521  13.944
62841W        W22278  21.576   3.279  13.834
62842W        W22279  26.113  38.521  13.317
62843W        W22280   1.267  21.254  11.395
62844W        W22281  26.207  33.549   4.241
62845W        W22282  31.433   9.275   3.780
62846W        W22283   5.247  24.095  11.111
62847W        W22284  38.057  30.426  11.935
62848W        W22285  23.512  13.608   4.836
62849W        W22286  21.117   5.424  10.519
62850W        W22287  23.183  38.891  14.963
62851W        W22288  37.502  23.095  14.342
62852W        W22289  26.044   4.267   2.770
62853W        W22290  17.702  35.871  13.064
62854W        W22291   7.275  21.078  13.536
62855W        W22292  41.028  14.166  11.499
62856W        W22293   0.814  32.897   2.789
62857W        W22294  41.366  23.037  13.432
62858W        W22295   0.384  20.643  13.494
62859W        W22296   0.854   2.333  10.411
62860W        W22297  17.277  29.438   0.402
62861W        W22298  22.669  34.872   1.400
62862W        W22299  40.909  21.722  11.375
62863W        W22300   6.244  18.563   0.956
62864W        W22301   4.782   0.450   5.162
62865W        W22302   0.365   5.313   1.839
62866W        W22303   2.316  29.001  11.037
62867W        W22304  44.969  42.418  13.430
62868W        W22305  32.039  40.813   2.351
62869W        W22306   2.927  39.053  12.350
62870W        W22307  39.492  18.668   9.997
62871W        W22308  33.606  21.554  12.939
62872W        W22309  12.117  35.588  13.850
62873W        W22310  40.913  28.162   4.219
62874W        W22311   4.258   6.311   0.762
62875W        W22312  19.256  38.397   1.433
62876W        W22313   0.892   3.945  14.303
62877W        W22314   7.739   5.914   4.780
62878W        W22315   1.387  15.137   3.733
62879W        W22316  42.998  19.079  10.424
62880W        W22317  42.438  26.173  13.860
62881W        W22318  39.315  13.316   4.809
62882W        W22319  24.225   6.776  14.773
62883W        W22320   8.332  39.063  13.434
62884W        W22321  36.491  14.191   5.233
62885W        W22322   8.849  21.153  13.924
62886W        W22323  26.686   5.706  10.909
62887W        W22324   9.384   3.778  13.316
62888W        W22325  34.483  14.295   2.222
62889W        W22326  24.587  42.354   2.274
62890W        W22327   0.384  32.614   1.702
62891W        W22328  41.354  30.942  14.767
62892W        W22329   0.980  38.839  14.000
62893W        W22330  16.674  43.281   1.720
62894W        W22331  38.402  39.890   3.810
62895W        W22332   0.789  22.708  10.482
62896W        W22333  31.435  22.590   2.395
62897W        W22334  35.041  37.052  10.486
62898W        W22335  21.100  11.682  14.888
62899W        W22336  23.019  32.036  10.929
62900W        W22337  10.736  36.356  12.050
62901W        W22338   6.284  32.120   5.260
62902W        W22339  13.115  42.354   9.926
62903W        W22340   6.740  28.044   0.949
62904W        W22341  36.061  11.165  11.406
62905W        W22342  12.305  32.132  13.053
62906W        W22343  26.199  19.266   1.857
62907W        W22344  29.110   7.212  13.433
62908W        W22345  18.285  44.785  14.972
62909W        W22346  36.013  26.118  10.913
62910W        W22347  20.146  32.986  14.016
62911W        W22348   2.866  17.145  14.466
62912W        W22349  19.628  22.040  14.893
62913W        W22350  23.038  10.681   1.343
62914W        W22351  35.360   7.330   2.419
62915W        W22352  25.593  34.091   3.243
62916W        W22353  21.025  28.525   4.786
62917W        W22354  32.070  41.457   9.590
62918W        W22355  41.418  16.601  12.535
62919W        W22356  28.958  33.524   4.618
62920W        W22357  44.922  38.868  10.493
62921W        W22358  23.673  13.115  14.390
62922W        W22359  24.182  19.213  11.428
62923W        W22360  15.685  23.016  12.909
62924W        W22361   7.337  13.169   1.928
62925W        W22362  14.144   6.890   3.176
62926W        W22363  36.958   2.282   2.192
62927W        W22364  42.318  42.022  12.498
62928W        W22365   1.892  38.415  10.536
62929W        W22366  19.745   7.811  11.495
62930W        W22367  21.243  40.969   0.827
62931W        W22368  26.478   5.254   4.614
62932W        W22369  14.105  43.421   3.719
62933W        W22370  31.912  33.889   1.933
62934W        W22371   5.733  23.513   2.257
62935W        W22372  44.783  41.402   3.380
62936W        W22373   9.664  22.233   0.968
62937W        W22374  18.738  10.356   0.873
62938W        W22375  37.961  36.498  13.424
62939W        W22376   2.388  30.607  14.284
62940W        W22377  32.482  43.488  11.882
62941W        W22378  23.674  22.631   2.730
62942W        W22379  28.599  43.400   4.710
62943W        W22380  36.049  31.625  12.886
62944W        W22381  23.030  19.733   1.401
62945W        W22382  39.362  39.486  12.465
62946W        W22383   8.744  31.434   3.203
62947W        W22384  19.141  39.036   1.230
62948W        W22385  11.707  23.561  12.449
62949W        W22386  35.384   6.699  13.816
62950W        W22387  44.830  17.101   0.752
62951W        W22388  43.963  20.227  11.528
62952W        W22389  14.619  18.294   1.888
62953W        W22390  11.165  39.375  12.520
62954W        W22391  19.670   6.249   4.650
62955W        W22392  26.684  40.973   3.789
62956W        W22393  30.135  36.410   1.394
62957W        W22394   3.724  22.725  12.889
62958W        W22395  41.837  34.513  11.047
62959W        W22396   0.367  33.886  13.519
62960W        W22397  18.600  13.293  12.864
62961W        W22398  40.537  29.036  14.351
62962W        W22399  28.566  41.334   0.405
62963W        W22400  20.707  14.271  12.033
62964W        W22401  33.882  24.978  13.954
62965W        W22402  19.628  21.526   4.624
62966W        W22403   6.913  39.896   2.253
62967W        W22404  41.492  36.506   1.242
62968W        W22405  17.707  14.804  13.404
62969W        W22406  30.430  29.161  10.903
62970W        W22407  12.772  32.902   0.880
62971W        W22408   8.348   0.746   4.306
62972W        W22409   6.216  26.997  10.620
62973W        W22410  15.262  15.210  14.877
62974W        W22411  43.469   1.444  10.909
62975W        W22412   7.233  10.298  12.348
62976W        W22413  29.626  17.083   0.818
62977W        W22414   7.849  43.461  12.879
62978W        W22415   7.874  42.375  13.331
62979W        W22416  17.567  23.574   0.797
62980W        W22417  35.465  35.428  14.758
62981W        W22418  16.097  25.489   3.211
62982W        W22419  16.603  27.603   3.720
62983W        W22420  38.988  20.742  12.911
62984W        W22421  38.825  18.288   2.859
62985W        W22422  39.932   3.292  13.385
62986W        W22423   0.434  33.524   0.927
62987W        W22424  31.940  25.005  10.631
62988W        W22425  32.600  35.906  11.975
62989W        W22426  41.846  24.577  13.353
62990W        W22427   4.838  44.952   2.716
62991W        W22428  41.405   6.877  11.420
62992W        W22429   1.944  39.021   3.376
62993W        W22430  19.655  18.587   3.794
62994W        W22431  22.120  12.618   1.214
62995W        W22432  44.893  27.162  12.007
62996W        W22433  25.085  31.594   3.632
62997W        W22434   1.479  36.060   2.226
62998W        W22435  32.941  23.121   0.754
62999W        W22436  16.679  35.963   4.170
63000W        W22437  23.543  10.848  11.966
63001W        W22438  38.826   2.839  12.977
63002W        W22439  27.684  19.626  14.881
63003W        W22440  38.330  35.471   1.781
63004W        W22441  17.172   1.931  12.445
63005W        W22442  36.362   0.278   4.684
63006W        W22443  26.153  12.263   3.772
63007W        W22444   1.867  32.551  10.571
63008W        W22445  19.249  23.731   0.813
63009W        W22446  35.985  22.525   2.845
63010W        W22447   8.277  35.946  11.549
63011W        W22448  29.511  18.054  10.142
63012W        W22449   6.336  31.144  10.628
63013W        W22450  13.812  15.626   0.272
63014W        W22451  16.315  33.972  14.912
63015W        W22452  40.949  30.034  13.506
63016W        W22453  39.498  37.432   1.211
63017W        W22454  23.220   6.243  14.866
63018W        W22455  28.182   6.214   4.122
63019W        W22456  12.703  43.388   0.810
63020W        W22457  18.113   9.784   2.360
63021W        W22458  26.684  40.900  10.929
63022W        W22459  38.530  16.780  12.530
63023W        W22460  21.021  16.740  14.869
63024W        W22461  32.608  26.078   1.448
63025W        W22462   5.205  13.771   0.896
63026W        W22463  21.561   8.700   3.638
63027W        W22464  23.680  39.495   2.738
63028W        W22465  31.106  19.733  12.848
63029W        W22466  42.519  24.554  12.996
63030W        W22467  34.487  30.977   4.620
63031W        W22468  10.745  28.489  13.371
63032W        W22469  27.458  28.636  11.055
63033W        W22470   2.817   2.308  11.971
63034W        W22471  41.476  23.019   1.732
63035W        W22472  29.518  19.082  11.129
63036W        W22473  18.232  10.770  10.500
63037W        W22474  41.441  10.187  14.405
63038W        W22475  14.719   7.349  13.438
63039W        W22476  19.543  16.771   4.201
63040W        W22477  31.951  32.589  11.861
63041W        W22478  18.571  44.975  12.946
63042W        W22479   0.323  10.731  13.010
63043W        W22480  22.538   8.819   2.306
63044W        W22481  21.565  35.582  11.500
63045W        W22482  22.605  37.989  14.288
63046W        W22483  19.585  41.886  12.450
63047W        W22484  16.624  27.502  11.597
63048W        W22485  38.053  40.536   4.210
63049W        W22486  17.178   5.927   0.810
63050W        W22487  32.964  33.407   3.818
63051W        W22488   2.777  16.811   0.351
63052W        W22489  12.192  36.085  11.591
63053W        W22490  12.330   6.283   1.245
63054W        W22491  20.760  12.856  12.972
63055W        W22492  44.983   4.938  11.574
63056W        W22493  30.657  27.470   3.159
63057W        W22494  15.591   9.249   3.256
63058W        W22495   5.310   5.235   0.343
63059W        W22496   5.715   0.463  12.998
63060W        W22497   5.332  13.784  13.422
63061W        W22498   8.698  39.435   4.269
63062W        W22499  37.995   3.456   2.261
63063W        W22500  40.043  44.473  11.383
63064W        W22501  16.683  14.123   3.827
63065W        W22502  35.554  26.517   3.282
63066W        W22503  27.545  14.173   1.287
63067W        W22504   2.846  24.531   1.900
63068W        W22505  20.724   2.785   1.293
63069W        W22506   8.170  44.435  12.878
63070W        W22507   3.750  37.019   0.284
63071W        W22508  18.692  36.096   4.791
63072W        W22509  39.907  43.959   4.704
63073W        W22510  34.958  35.474   3.673
63074W        W22511  38.895   2.743  14.783
63075W        W22512  34.095  32.605   3.786
63076W        W22513  17.771  15.092   3.766
63077W        W22514   7.301  26.164   2.265
63078W        W22515  32.004  41.960  12.466
63079W        W22516  18.644  39.865  13.921
63080W        W22517  42.319  37.456   2.313
63081W        W22518  25.553  10.343  12.940
63082W        W22519  31.490  31.111  10.446
63083W        W22520  17.273  20.145  14.761
63084W        W22521  19.605   5.731  13.037
63085W        W22522   5.347  13.308  13.049
63086W        W22523  32.559  26.987  12.963
63087W        W22524   5.292  19.120   2.349
63088W        W22525  32.915   8.804   2.274
63089W        W22526   6.266   5.759   3.713
63090W        W22527  23.097  31.415  14.908
63091W        W22528  27.456  21.595   0.269
63092W        W22529  35.026  30.149   0.757
63093W        W22530  28.455  20.649  10.964
63094W        W22531   8.895  35.917   1.225
63095W        W22532   6.909  18.579  12.530
63096W        W22533  20.754  31.527   1.280
63097W        W22534  24.596  13.839  14.464
63098W        W22535  21.561  41.001   3.673
63099W        W22536   9.305  28.619  14.352
63100W        W22537   1.410   1.310  12.995
63101W        W22538  19.540  31.403   4.297
63102W        W22539  19.676  15.657  11.408
63103W        W22540   4.909  12.252  14.420
63104W        W22541   5.275  36.849   0.411
63105W        W22542  15.608  44.437   0.378
63106W        W22543  38.075   5.904  14.994
63107W        W22544  26.466   4.769  13.942
63108W        W22545   6.841  29.085  12.972
63109W        W22546  30.077   7.808  13.321
63110W        W22547  23.567  30.095   1.852
63111W        W22548  38.957  26.626  11.408
63112W        W22549  21.230  38.958  14.494
63113W        W22550  24.520  40.507   3.187
63114W        W22551  37.549  22.145   2.665
63115W        W22552  33.119   7.679   2.879
63116W        W22553  12.261  28.570   1.332
63117W        W22554  12.176   3.866   1.818
63118W        W22555  28.051  21.096  11.501
63119W        W22556  21.037   9.689  12.562
63120W        W22557  28.014  11.628   0.460
63121W        W22558   4.797  31.648   1.260
63122W        W22559  34.076  38.334  12.465
63123W        W22560   6.785  41.903   2.271
63124W        W22561  37.903   3.872   1.268
63125W        W22562  26.071  29.076  14.017
63126W        W22563  34.090   2.783  10.980
63127W        W22564  31.526  34.612   4.314
63128W        W22565  12.325  37.930   4.825
63129W        W22566  44.798   4.746  10.441
63130W        W22567  10.169  17.162   2.677
63131W        W22568  37.391   3.292  10.430
63132W        W22569  30.416  29.603  14.975
63133W        W22570  39.407  27.075   4.346
63134W        W22571  22.997  42.526  11.375
63135W        W22572  13.138   1.247   0.938
63136W        W22573  34.904  23.193  11.084
63137W        W22574  33.970  29.558  11.127
63138W        W22575  28.065  32.089   1.824
63139W        W22576  35.460  33.591   4.183
63140W        W22577  24.203   8.333   3.683
63141W        W22578  18.121  34.476  14.425
63142W        W22579   9.814  35.022  14.379
63143W        W22580  40.826  21.573  12.574
63144W        W22581  32.633  25.185  11.072
63145W        W22582  35.894   8.307   1.345
63146W        W22583  13.137  16.249  12.034
63147W        W22584   7.758  26.565   2.365
63148W        W22585  39.325  10.730   3.315
63149W        W22586  27.115  14.284   5.688
63150W        W22587  32.580   9.845  10.490
63151W        W22588  43.779   3.834   3.356
63152W        W22589  36.054  20.647  11.028
63153W        W22590  44.412  41.976   1.312
63154W        W22591  35.053   7.227  13.545
63155W        W22592  23.130  29.073   2.332
63156W        W22593  23.715  33.625  12.427
63157W        W22594  21.215  22.691  14.355
63158W        W22595  26.541  44.964   1.320
63159W        W22596   7.232  39.000   3.169
63160W        W22597   6.220  39.038  10.405
63161W        W22598   8.169  37.080  11.084
63162W        W22599  15.260  33.561  14.972
63163W        W22600  29.930  32.939  10.488
63164W        W22601   1.763  23.084  11.077
63165W        W22602  38.004  14.138   1.728
63166W        W22603  16.723  42.435   3.288
63167W        W22604  25.596  18.220  11.908
63168W        W22605  29.659  23.094  12.445
63169W        W22606   3.907  39.369   0.956
63170W        W22607  11.164  10.278  14.469
63171W        W22608  18.759  23.145   2.853
63172W        W22609  27.639   6.411   3.149
63173W        W22610  43.492  43.327   4.184
63174W        W22611  29.153  25.526  13.456
63175W        W22612   9.168   9.693  10.404
63176W        W22613  22.737  16.661   3.287
63177W        W22614  20.165  13.256  13.049
63178W        W22615   5.733   9.743   3.708
63179W        W22616  41.362   8.766  11.895
63180W        W22617  40.544   6.291   0.418
63181W        W22618   3.808   4.701  12.571
63182W        W22619  42.511  13.317   1.926
63183W        W22620  36.375   4.805  10.597
63184W        W22621   2.827  28.993   3.650
63185W        W22622  11.855  15.764  12.002
63186W        W22623  11.752  44.962  14.857
63187W        W22624  30.505  30.939   2.226
63188W        W22625  28.504   3.450  12.558
63189W        W22626  17.762  24.687  13.541
63190W        W22627  36.863  36.863   0.287
63191W        W22628  15.646  18.258   0.453
63192W        W22629   3.340  38.353   4.125
63193W        W22630  36.383  15.147   3.239
63194W        W22631  12.727   3.413   4.150
63195W        W22632   1.463   0.961  14.030
63196W        W22633  21.140  17.688   0.888
63197W        W22634  32.578   5.248  14.944
63198W        W22635   4.865  25.583  14.489
63199W        W22636   9.815   6.197   1.831
63200W        W22637   6.823   9.193   2.290
63201W        W22638  10.847  43.388  11.956
63202W        W22639  42.830  39.895   1.274
63203W        W22640  30.635  24.146   1.905
63204W        W22641  31.989  23.038   1.377
63205W        W22642  28.467  20.053   0.411
63206W        W22643   1.271  25.627   2.240
63207W        W22644   1.456  37.442   0.809
63208W        W22645   7.211  12.688   3.271
63209W        W22646  28.675  15.755   4.309
63210W        W22647  38.879   5.819   3.749
63211W        W22648   6.209  19.774  11.511
63212W        W22649   7.755  24.990   3.248
63213W        W22650   4.760  30.961  14.761
63214W        W22651   6.365  38.063   2.743
63215W        W22652   8.792  22.147  11.887
63216W        W22653  23.179  25.009  14.819
63217W        W22654  20.063   2.928  13.802
63218W        W22655  10.869  37.962   2.718
63219W        W22656  11.733  39.321  13.924
63220W        W22657  42.824  25.098  11.591
63221W        W22658  34.118   0.856   2.680
63222W        W22659  28.453   2.469  13.955
63223W        W22660   3.378  20.681  14.938
63224W        W22661  19.635  10.217   3.778
63225W        W22662  40.426  17.739   3.788
63226W        W22663  24.038   5.253  14.493
63227W        W22664  42.011  26.058   4.812
63228W        W22665  33.126  22.693  13.980
63229W        W22666   9.245  13.107  11.509
63230W        W22667  29.952  12.761   0.419
63231W        W22668  18.727  41.829  13.978
63232W        W22669  38.374  28.161  12.058
63233W        W22670  36.094  21.189  14.899
63234W        W22671  27.117  27.962   3.321
63235W        W22672   7.907  35.509   3.258
63236W        W22673  30.612   4.303   0.291
63237W        W22674  33.419  32.919   0.861
63238W        W22675  32.927  29.473  11.584
63239W        W22676  12.265  32.438   1.879
63240W        W22677  16.222   3.437  14.303
63241W        W22678  18.658   4.922  13.508
63242W        W22679  21.609   8.400  14.947
63243W        W22680  42.515  40.910   0.311
63244W        W22681  30.912  22.606  11.902
63245W        W22682  16.762  29.565   4.762
63246W        W22683   4.903  10.705  13.870
63247W        W22684  12.615  31.029   0.894
63248W        W22685  15.315  18.546   4.172
63249W        W22686  24.131   7.706   0.414
63250W        W22687  24.621  34.074   3.375
63251W        W22688  33.054  31.527   2.354
63252W        W22689  31.092  32.427   0.262
63253W        W22690  16.781  21.255   4.643
63254W        W22691   6.223   5.788  13.031
63255W        W22692  39.812  37.913   4.796
63256W        W22693  26.695   3.368  12.981
63257W        W22694   6.750  33.937  11.073
63258W        W22695  24.689  29.120  12.342
63259W        W22696  12.321  44.828   1.394
63260W        W22697  44.477   5.253   0.858
63261W        W22698  41.357   9.740   0.279
63262W        W22699  10.689  42.904  10.934
63263W        W22700  37.445  10.238   0.297
63264W        W22701  31.043  36.543  14.872
63265W        W22702  26.980  41.917  11.399
63266W        W22703   0.311  40.497   0.734
63267W        W22704   0.853   6.263  13.425
63268W        W22705  38.008  29.632  12.386
63269W        W22706  28.952  25.202  13.493
63270W        W22707  16.603   7.703  11.955
63271W        W22708  29.467  31.115   0.476
63272W        W22709  36.543  34.046   3.692
63273W        W22710  35.008  12.178   4.229
63274W        W22711   0.803  22.728  11.607
63275W        W22712  30.003  16.245  13.794
63276W        W22713  36.478  31.922  13.992
63277W        W22714  32.409   8.830   3.767
63278W        W22715  13.325   2.467   3.341
63279W        W22716  21.088  43.773  12.017
63280W        W22717  39.812   9.254  14.444
63281W        W22718  34.379  13.693  13.452
63282W        W22719  33.446  31.617   4.262
63283W        W22720  33.601  20.628  13.828
63284W        W22721  23.002  27.965  14.426
63285W        W22722   9.157  15.117  11.951
63286W        W22723  15.775  10.663  10.427
63287W        W22724   0.832   6.895  13.311
63288W        W22725  25.966  15.635  10.409
63289W        W22726  14.639  41.352  12.405
63290W        W22727  27.988  32.609   2.834
63291W        W22728   4.740  42.505  13.476
63292W        W22729  29.489  35.523   2.687
63293W        W22730  38.373  35.095   4.692
63294W        W22731  16.088  16.574   1.695
63295W        W22732  27.483  23.206  14.847
63296W        W22733  22.142   0.254   1.748
63297W        W22734  32.568  21.572   3.381
63298W        W22735  40.882  34.093   3.783
63299W        W22736   6.211  15.250   3.370
63300W        W22737  30.117  29.064   2.335
63301W        W22738  38.361  16.624   3.171
63302W        W22739   8.794  35.871  12.855
63303W        W22740  23.509  29.171  11.399
63304W        W22741  29.568  42.858   5.163
63305W        W22742  27.098  22.739   3.169
63306W        W22743  29.508   0.818  10.569
63307W        W22744  21.083  26.968  10.446
63308W        W22745   2.394  24.706  14.803
63309W        W22746   5.261  20.052   1.846
63310W        W22747  40.830  14.689   2.378
63311W        W22748  34.584   4.930  10.018
63312W        W22749  38.966   3.328  10.928
63313W        W22750   2.856  21.159  12.952
63314W        W22751   8.220  35.006   3.307
63315W        W22752  43.473   2.753  13.855
63316W        W22753  18.772  16.203  12.956
63317W        W22754  43.327  28.931   4.791
63318W        W22755  34.606  43.973  14.299
63319W        W22756   5.429   2.252   2.308
63320W        W22757   3.375  17.163  14.284
63321W        W22758  15.687  43.873  13.973
63322W        W22759  26.985   1.877  14.417
63323W        W22760  20.214  15.241  13.000
63324W        W22761  21.699   4.330   2.852
63325W        W22762  35.870  17.138   1.827
63326W        W22763  43.466  40.002   2.812
63327W        W22764  36.564  15.094   0.391
63328W        W22765   9.379  31.595  14.285
63329W        W22766   6.266  11.336   2.718
63330W        W22767   5.741  21.161  12.044
63331W        W22768  44.491   8.305   4.757
63332W        W22769  29.436  41.326  13.897
63333W        W22770  31.898  36.448   4.695
63334W        W22771   8.844  20.177   3.309
63335W        W22772  35.497   6.785  14.443
63336W        W22773   0.784   5.893   2.861
63337W        W22774  41.915   4.293   3.765
63338W        W22775   6.202  13.147  13.363
63339W        W22776  34.059  16.769   1.379
63340W        W22777  34.113  24.002  12.561
63341W        W22778   7.286  20.682   3.787
63342W        W22779   4.259  27.094  14.471
63343W        W22780  40.425  15.224   2.750
63344W        W22781  20.251  27.093  13.514
63345W        W22782  28.987  38.359   1.717
63346W        W22783  32.966   4.763  11.567
63347W        W22784   4.418   6.736   3.230
63348W        W22785   8.289  16.784   1.280
63349W        W22786  44.305  37.361  11.465
63350W        W22787   3.933  44.313   3.836
63351W        W22788  22.632   2.770   3.326
63352W        W22789  41.424   6.291   4.679
63353W        W22790  19.762   0.268   0.892
63354W        W22791  36.029  27.956  14.886
63355W        W22792  25.501  18.295   2.809
63356W        W22793  31.408   9.793   1.319
63357W        W22794  34.068  12.141   0.252
63358W        W22795   6.679  29.618   0.444
63359W        W22796  38.398   8.765   0.782
63360W        W22797  40.965   8.395   0.962
63361W        W22798  15.208  21.610  12.028
63362W        W22799  19.075  43.908  13.339
63363W        W22800  35.036   3.726   3.259
63364W        W22801  38.410  13.640   3.266
63365W        W22802  20.688  31.564  10.997
63366W        W22803  44.989   7.846   1.430
63367W        W22804   1.747  36.085  14.827
63368W        W22805   1.766  41.513  13.449
63369W        W22806  34.369  23.137  11.892
63370W        W22807  14.739  13.215  14.437
63371W        W22808   5.811  38.368  12.833
63372W        W22809   7.273   4.306   2.361
63373W        W22810   7.822   1.787  12.014
63374W        W22811   8.803  38.942   5.156
63375W        W22812  15.203  29.018   0.810
63376W        W22813   7.267  34.000  11.878
63377W        W22814  37.902  37.523   4.172
63378W        W22815   7.874   4.305  10.416
63379W        W22816   4.424   1.788   0.939
63380W        W22817  43.464  16.630  14.949
63381W        W22818  21.746  14.319  13.995
63382W        W22819  40.479  13.748   4.297
63383W        W22820  34.033  33.072   0.266
63384W        W22821  40.814  31.085   3.323
63385W        W22822  30.073  36.968  13.315
63386W        W22823  23.141  18.777   3.859
63387W        W22824  11.683  38.888   4.609
63388W        W22825  34.585  14.813  14.467
63389W        W22826   8.368  19.215  11.989
63390W        W22827  39.362  11.233   0.909
63391W        W22828   0.930  18.691  13.497
63392W        W22829  25.583  21.577  13.420
63393W        W22830  34.453  34.107  10.483
63394W        W22831  25.205  17.696  10.997
63395W        W22832  31.418  37.007  12.081
63396W        W22833  14.096  12.640  13.909
63397W        W22834  29.974  43.358   1.216
63398W        W22835  12.321  11.775   2.827
63399W        W22836  33.523   3.296  11.103
63400W        W22837   0.971  12.834   2.737
63401W        W22838  28.172  13.115   4.341
63402W        W22839  35.514  42.361  12.944
63403W        W22840  17.736   3.731   3.804
63404W        W22841  43.968  15.781   4.299
63405W        W22842  40.307  37.035  13.338
63406W        W22843  27.012  32.932  10.952
63407W        W22844   7.273  44.378   1.401
63408W        W22845  12.344  16.797  13.447
63409W        W22846   1.409  32.449   3.291
63410W        W22847   9.889  28.169  14.968
63411W        W22848  12.746  34.014  13.015
63412W        W22849  15.803  10.860  11.439
63413W        W22850  34.380  23.535   4.815
63414W        W22851  32.627   3.436  11.104
63415W        W22852  13.723  24.104  13.310
63416W        W22853  28.954   3.321  14.879
63417W        W22854  43.443  32.549   3.750
63418W        W22855  29.980   6.695  11.515
63419W        W22856  12.817  11.650   0.444
63420W        W22857  11.226   5.752  11.062
63421W        W22858  35.859  27.450   0.253
63422W        W22859  22.998  19.240  10.521
63423W        W22860  32.565   5.324   0.256
63424W        W22861   3.883   6.761  14.310
63425W        W22862  23.045  10.780   1.900
63426W        W22863  18.710  12.217   0.295
63427W        W22864  36.012  28.049   1.261
63428W        W22865  14.122   5.926  11.865
63429W        W22866  30.130  37.017   4.691
63430W        W22867  26.574  14.324   2.807
63431W        W22868  23.597  15.207   4.829
63432W        W22869  31.090   4.252   2.664
63433W        W22870  19.653   6.382  13.951
63434W        W22871   8.824   4.885  14.928
63435W        W22872  15.235  11.230   0.346
63436W        W22873  37.071  39.835   3.810
63437W        W22874  14.331  24.071  10.486
63438W        W22875  15.615  27.644  10.099
63439W        W22876  30.474   0.828   3.219
63440W        W22877   0.384  43.771   1.340
63441W        W22878   7.210   7.769   3.656
63442W        W22879   9.163  40.815   1.273
63443W        W22880   7.883  32.133  10.001
63444W        W22881  43.308  21.177  10.604
63445W        W22882   6.377  26.589  14.291
63446W        W22883   3.274  14.318   3.228
63447W        W22884  43.301  23.998   4.228
63448W        W22885  19.258  30.935  10.917
63449W        W22886   2.430  20.172   0.764
63450W        W22887  22.165   1.868  13.392
63451W        W22888   1.305  25.996   4.762
63452W        W22889   5.322   8.854  10.581
63453W        W22890   1.970  39.001   0.731
63454W        W22891  30.512  28.112   5.267
63455W        W22892   6.237   1.482   0.926
63456W        W22893  31.553  40.809  11.994
63457W        W22894  15.180  41.880  14.844
63458W        W22895  36.394  30.935  12.066
63459W        W22896  15.328  32.991   2.775
63460W        W22897   4.330   3.858   3.842
63461W        W22898  30.098  23.111  14.493
63462W        W22899  40.858  21.610   0.406
63463W        W22900  44.434   5.720  10.589
63464W        W22901  22.154  28.059  13.496
63465W        W22902  28.602  27.510   1.752
63466W        W22903  22.080  35.507  13.353
63467W        W22904  16.675  40.947   1.312
63468W        W22905  42.009   9.194  14.438
63469W        W22906  29.472   2.331   4.652
63470W        W22907  16.608  21.023  12.011
63471W        W22908  11.747  18.074   2.180
63472W        W22909  13.218  13.129   4.212
63473W        W22910  23.221  32.980  11.501
63474W        W22911  32.619   9.865  12.902
63475W        W22912  28.033  33.091  12.434
63476W        W22913  37.085  26.469  12.030
63477W        W22914  39.886  18.618  11.466
63478W        W22915  35.880  41.397  12.356
63479W        W22916  39.447  22.736  10.921
63480W        W22917  13.827  33.503  11.078
63481W        W22918   6.786  26.129  12.344
63482W        W22919  26.533  16.197   1.928
63483W        W22920  10.221  20.639   5.093
63484W        W22921  21.250  19.280  10.925
63485W        W22922  33.122  12.652  13.883
63486W        W22923  21.544   6.337   1.921
63487W        W22924  42.959  18.203  14.406
63488W        W22925  41.492  22.183  13.528
63489W        W22926   7.323  15.097  13.320
63490W        W22927  26.456   7.177  13.414
63491W        W22928  42.313  20.271   2.211
63492W        W22929  10.782  43.841   3.832
63493W        W22930  10.816  12.206   4.215
63494W        W22931  42.408  17.679  12.875
63495W        W22932  40.037   6.861  14.904
63496W        W22933   1.469  26.087  12.033
63497W        W22934   5.691  17.611   4.806
63498W        W22935  20.226  25.043  13.367
63499W        W22936  14.673  42.988   0.383
63500W        W22937  33.910  16.578   2.753
63501W        W22938   0.404   2.786  11.962
63502W        W22939  37.455  29.631   1.844
63503W        W22940   0.861  35.005  14.860
63504W        W22941   8.178  28.530  11.857
63505W        W22942  26.061  20.129   1.438
63506W        W22943  42.801   1.362   0.787
63507W        W22944  31.945  25.211  11.974
63508W        W22945  21.724  14.211   0.417
63509W        W22946  19.252  33.388   1.916
63510W        W22947  42.907  30.580  10.893
63511W        W22948  19.618  37.979  12.833
63512W        W22949  25.680  32.068  14.979
63513W        W22950   8.240  19.219   4.702
63514W        W22951  40.368  44.841  13.544
63515W        W22952  29.655  12.355   4.280
63516W        W22953  36.888  19.612   3.175
63517W        W22954  27.599  13.663   4.178
63518W        W22955  13.342  14.631   0.796
63519W        W22956  13.759  10.344   3.257
63520W        W22957  38.043  42.927  11.498
63521W        W22958  12.686  44.466   0.340
63522W        W22959   1.790  23.072   3.328
63523W        W22960  12.285  11.859   3.379
63524W        W22961  44.373  35.419   4.814
63525W        W22962   1.273   8.171   4.746
63526W        W22963  29.533  17.102  14.014
63527W        W22964  29.083  36.053  14.424
63528W        W22965  40.516   1.333   4.806
63529W        W22966  26.623  21.656   5.648
63530W        W22967   0.396  16.270   5.155
63531W        W22968   7.688  40.431  13.860
63532W        W22969  22.209  33.515  12.837
63533W        W22970  20.062  20.074  13.413
63534W        W22971  14.264  24.130  14.912
63535W        W22972  18.610  39.405  14.318
63536W        W22973  43.446  40.990  12.954
63537W        W22974  34.607  42.988   5.229
63538W        W22975  43.010  28.955   3.299
63539W        W22976   4.342   6.715  12.870
63540W        W22977   4.230   7.344  10.933
63541W        W22978  15.221  35.573   4.282
63542W        W22979   5.268  43.881  13.342
63543W        W22980  20.684  25.528   5.234
63544W        W22981  22.638  35.991   4.204
63545W        W22982  12.792  34.473   4.300
63546W        W22983  22.642  12.181   1.934
63547W        W22984  28.024  32.021  12.456
63548W        W22985  29.557  44.989  12.423
63549W        W22986   7.372  29.452   3.792
63550W        W22987  37.492  36.019  12.867
63551W        W22988   7.912  13.293   0.958
63552W        W22989  27.645  12.814  12.457
63553W        W22990  23.070  44.812   1.867
63554W        W22991  33.966   3.241   4.152
63555W        W22992   0.964  43.447  14.440
63556W        W22993  10.242  11.763   5.161
63557W        W22994  33.527   4.414  14.452
63558W        W22995  43.898  37.900  14.955
63559W        W22996  14.136   2.427   5.148
63560W        W22997  28.497  29.593   0.750
63561W        W22998   8.385  43.313  13.886
63562W        W22999  11.357  33.902   2.746
63563W        W23000  25.663  40.961  11.077
63564W        W23001  30.617  39.456   9.943
63565W        W23002  41.373  43.900  12.355
63566W        W23003  25.550   1.446  12.824
63567W        W23004  10.749  28.060   3.734
63568W        W23005  30.444  21.153  12.008
63569W        W23006  31.643  31.510   0.760
63570W        W23007   0.425  10.654   4.209
63571W        W23008  13.757  30.947   1.227
63572W        W23009  39.947  30.006  14.764
63573W        W23010  30.031  23.138  13.993
63574W        W23011  33.539   9.802  12.398
63575W        W23012  21.649  13.273   2.337
63576W        W23013   3.866  17.152   3.632
63577W        W23014  23.191  13.757  10.990
63578W        W23015  26.111  10.861  12.403
63579W        W23016  15.322  44.377   5.320
63580W        W23017   9.177  16.604   0.873
63581W        W23018  15.776  20.626   2.846
63582W        W23019  25.203   1.373   2.675
63583W        W23020  24.508  43.978  12.969
63584W        W23021  27.541  44.753  11.389
63585W        W23022   4.834  39.470   4.724
63586W        W23023  31.413  12.804  12.017
63587W        W23024  33.000  32.419  14.501
63588W        W23025  42.919  18.159   1.778
63589W        W23026  31.936  44.891   4.268
63590W        W23027   4.874   0.798   1.779
63591W        W23028   2.266   9.662   1.257
63592W        W23029  24.221   8.257  13.540
63593W        W23030  29.924   6.850   1.285
63594W        W23031  16.110  32.449   1.299
63595W        W23032  42.913  10.158  13.796
63596W        W23033  17.654  24.712   1.845
63597W        W23034   5.343   0.483   0.962
63598W        W23035  19.043  24.202   4.184
63599W        W23036  36.528  34.544   4.751
63600W        W23037  13.737  23.147  11.478
63601W        W23038   6.770  42.910  12.495
63602W        W23039  23.518  24.029  12.500
63603W        W23040  21.141  34.870  13.026
63604W        W23041  23.688  30.125  12.452
63605W        W23042  11.851  20.208   4.250
63606W        W23043  29.527  17.233   2.335
63607W        W23044  29.467  43.384   3.300
63608W        W23045   9.677  40.464   3.767
63609W        W23046  34.082  32.475   2.690
63610W        W23047  29.447  32.530   1.703
63611W        W23048  42.470   1.448  14.436
63612W        W23049  18.748  41.319  10.960
63613W        W23050  20.266   2.437   0.437
63614W        W23051  16.139   0.334  14.419
63615W        W23052  33.454  11.255  14.451
63616W        W23053  20.183  42.959   4.599
63617W        W23054   1.240  35.404  11.058
63618W        W23055   4.318  14.140   3.789
63619W        W23056  41.495  22.654   1.829
63620W        W23057  12.814   9.836  14.839
63621W        W23058  13.126   5.269   4.311
63622W        W23059   2.394  33.979   3.342
63623W        W23060   2.467  10.840   3.723
63624W        W23061   9.679   9.159  13.910
63625W        W23062  36.853  13.105   0.364
63626W        W23063   4.349   4.780  12.825
63627W        W23064  41.515  18.103   1.240
63628W        W23065   1.277   8.268  11.950
63629W        W23066  29.511  19.744  11.878
63630W        W23067  10.147   3.766  13.891
63631W        W23068  30.650  10.150   4.613
63632W        W23069   3.410  18.748  11.371
63633W        W23070  41.530  37.518   2.278
63634W        W23071   9.173  41.871   2.247
63635W        W23072  20.243  22.041   5.612
63636W        W23073  31.084  14.202   2.239
63637W        W23074  34.404  38.930   1.280
63638W        W23075   3.352  30.095   0.353
63639W        W23076  19.189  17.115  13.003
63640W        W23077  33.018  43.433   3.313
63641W        W23078   6.344  13.774   1.383
63642W        W23079  42.310  44.366  14.431
63643W        W23080  23.231  39.986   5.090
63644W        W23081  11.186  40.484  12.526
63645W        W23082   5.358  19.267   4.748
63646W        W23083   9.163   3.403   1.363
63647W        W23084  21.721  37.386  10.009
63648W        W23085  41.483  22.682  13.890
63649W        W23086  17.687  39.930   3.228
63650W        W23087  34.105  43.424   4.182
63651W        W23088  11.833  26.986  11.015
63652W        W23089  24.536  31.563   4.658
63653W        W23090   7.685  28.457  12.083
63654W        W23091  26.961  35.408  11.863
63655W        W23092  26.089  31.470   4.679
63656W        W23093  16.666  28.594  14.999
63657W        W23094   7.417  39.836   4.791
63658W        W23095  10.717  21.608   2.374
63659W        W23096  15.760   9.770  11.918
63660W        W23097   7.417  16.179   0.854
63661W        W23098  38.498   5.333  11.085
63662W        W23099   9.313   0.452   4.211
63663W        W23100  30.629  36.449   3.857
63664W        W23101   2.336  18.246  12.559
63665W        W23102  33.006   3.905   2.698
63666W        W23103  32.994  18.675   0.884
63667W        W23104  25.987  38.545   2.743
63668W        W23105  22.019  15.774   3.865
63669W        W23106  16.748   7.227  12.905
63670W        W23107  34.416   1.869   3.241
63671W        W23108  17.134   2.927   1.320
63672W        W23109  24.489  14.694  14.870
63673W        W23110  13.232  24.110  13.529
63674W        W23111  31.146  15.738  13.536
63675W        W23112  38.859  12.680  12.375
63676W        W23113  21.199  10.723  11.882
63677W        W23114  40.010  34.001   3.777
63678W        W23115  23.667  18.061  13.500
63679W        W23116   3.424  36.434   3.681
63680W        W23117  33.900  24.131  13.897
63681W        W23118  44.953  37.514   1.378
63682W        W23119  29.140   2.756   4.606
63683W        W23120  38.485   5.294   2.721
63684W        W23121  37.513   1.967   3.294
63685W        W23122  42.325  20.528   3.215
63686W        W23123  35.487  12.782   3.210
63687W        W23124   2.862  13.198   0.453
63688W        W23125   7.817  27.499   2.862
63689W        W23126  37.529  29.039   1.398
63690W        W23127  27.084  43.282   0.862
63691W        W23128  40.418  21.512  13.510
63692W        W23129  20.084  26.169  10.936
63693W        W23130   6.851  19.641  10.483
63694W        W23131  36.476  42.335   3.165
63695W        W23132  10.207  27.666  14.942
63696W        W23133   2.283  33.531   5.153
63697W        W23134   3.304  32.554  14.327
63698W        W23135  25.535  13.787   4.239
63699W        W23136  21.154  26.991  11.495
63700W        W23137  26.176  18.060  12.393
63701W        W23138  33.049  13.336  12.932
63702W        W23139  37.550  38.520   2.272
63703W        W23140   1.343  10.840  12.523
63704W        W23141   2.290  25.181  11.062
63705W        W23142  11.295  26.075  11.944
63706W        W23143  27.595  44.820  14.766
63707W        W23144  17.152  39.055  13.401
63708W        W23145  25.133  35.868  14.976
63709W        W23146  22.642   1.850   4.635
63710W        W23147  14.207  42.955  10.582
63711W        W23148  23.197  35.466  13.487
63712W        W23149  38.353   4.786   2.373
63713W        W23150  30.439  35.093  13.013
63714W        W23151  39.391   2.833   1.416
63715W        W23152   3.888  44.806  11.928
63716W        W23153  35.599  17.682   1.244
63717W        W23154  28.144  31.120   4.804
63718W        W23155  13.145  41.342   2.816
63719W        W23156  17.788  35.941  14.894
63720W        W23157   2.424  18.295  14.891
63721W        W23158   0.459  22.577  14.296
63722W        W23159  35.104  24.624   3.353
63723W        W23160  24.502  17.258   4.789
63724W        W23161  25.101  18.739  13.316
63725W        W23162  24.547   7.287  10.478
63726W        W23163  41.019  21.609  10.420
63727W        W23164  44.968  40.004   0.412
63728W        W23165  11.647   6.739  12.884
63729W        W23166   8.832  29.595  11.959
63730W        W23167  36.581  15.658   1.781
63731W        W23168  32.091  28.963   4.348
63732W        W23169  10.369  38.881   1.398
63733W        W23170  25.990  25.651  12.565
63734W        W23171  25.153  44.312   0.842
63735W        W23172  27.686  36.422   1.903
63736W        W23173   8.244  15.814   1.419
63737W        W23174  25.497  34.940   0.352
63738W        W23175   0.483   6.746   1.701
63739W        W23176  14.147  14.649   1.308
63740W        W23177  24.479  31.926   2.206
63741W        W23178  39.344  10.339  10.404
63742W        W23179   7.910  13.829  14.887
63743W        W23180   2.819  12.325  14.019
63744W        W23181  22.069  34.425   3.185
63745W        W23182  28.461  29.972   4.226
63746W        W23183  30.628   6.241  12.421
63747W        W23184  16.778   0.422  14.923
63748W        W23185  31.057  36.498  12.844
63749W        W23186  27.073  32.906   0.848
63750W        W23187   9.382  37.858   1.838
63751W        W23188   4.233  40.450   3.757
63752W        W23189  22.037  15.195  13.332
63753W        W23190  31.923  43.332   0.412
63754W        W23191  35.083  26.672  10.977
63755W        W23192  40.543  12.819   1.876
63756W        W23193   0.370   9.149  10.489
63757W        W23194  12.336  33.437   0.357
63758W        W23195  44.397  26.655   2.288
63759W        W23196   6.226   7.731  14.334
63760W        W23197  13.236  15.261  11.600
63761W        W23198  36.458   3.285   5.115
63762W        W23199  22.139   6.776  13.921
63763W        W23200  35.056  18.766  13.065
63764W        W23201  27.119  17.632   1.361
63765W        W23202  26.208  40.948   3.229
63766W        W23203  37.417  13.740   2.827
63767W        W23204  33.006  29.076   3.336
63768W        W23205  39.383  40.476  11.923
63769W        W23206  43.368   6.715  13.903
63770W        W23207  38.380  38.325  14.300
63771W        W23208  17.619  26.668   3.156
63772W        W23209  15.696   4.935  10.476
63773W        W23210   3.345  21.074   4.267
63774W        W23211   5.384  21.518   2.293
63775W        W23212   5.831  13.262   4.171
63776W        W23213  44.378   4.346   2.858
63777W        W23214  35.555  39.522  14.775
63778W        W23215  34.034  15.309  10.619
63779W        W23216  19.643   8.782   1.255
63780W        W23217  35.936  42.915   1.901
63781W        W23218  44.472  37.519  14.987
63782W        W23219  19.074  10.693   2.756
63783W        W23220  29.536  18.087  13.475
63784W        W23221  41.828   8.246  12.467
63785W        W23222   7.218  11.667   4.774
63786W        W23223   9.393  33.040  11.859
63787W        W23224  16.166   8.688   1.410
63788W        W23225  15.226  22.241   1.440
63789W        W23226  35.867  20.089  14.367
63790W        W23227  33.041  14.112   0.415
63791W        W23228  35.574  38.037   0.332
63792W        W23229   7.389  26.688  12.397
63793W        W23230  23.012  20.728   4.202
63794W        W23231  39.441  21.717   1.379
63795W        W23232  10.815  39.890  10.569
63796W        W23233  11.785  37.052   3.661
63797W        W23234  29.497  40.309  12.852
63798W        W23235  14.813   1.958  14.028
63799W        W23236   2.886  37.458   5.132
63800W        W23237   7.188   0.377  11.467
63801W        W23238  14.165  22.247  14.824
63802W        W23239  12.614   0.782   2.331
63803W        W23240   1.239  15.622   3.182
63804W        W23241  10.682  31.533   3.318
63805W        W23242  24.711  31.977   2.698
63806W        W23243  37.466   8.192  14.387
63807W        W23244  24.500  21.709  11.381
63808W        W23245  28.934  15.584  11.923
63809W        W23246  34.522  14.266  13.514
63810W        W23247  30.954  10.871   4.248
63811W        W23248  17.619  15.085   2.230
63812W        W23249  40.031  14.172  11.398
63813W        W23250  28.552  30.907   3.193
63814W        W23251  40.931  43.932  11.557
63815W        W23252   7.795  26.952   5.135
63816W        W23253  35.939   4.776   4.160
63817W        W23254  24.679  33.884   1.448
63818W        W23255  31.571  30.962  11.021
63819W        W23256   3.737  43.018   2.896
63820W        W23257  26.965   2.234  13.343
63821W        W23258  22.696  12.643  14.809
63822W        W23259  25.102  12.707   1.877
63823W        W23260  15.708  11.691   2.863
63824W        W23261  20.169   8.881   2.848
63825W        W23262  34.967  34.430   1.384
63826W        W23263  17.118  12.182   0.372
63827W        W23264  21.043   3.417  14.824
63828W        W23265  27.560  44.770   3.684
63829W        W23266   4.708   7.839   3.697
63830W        W23267  43.421  24.093   0.307
63831W        W23268  11.791  30.577   1.247
63832W        W23269   2.867  35.071  10.093
63833W        W23270  19.748  25.618  10.945
63834W        W23271   8.831  35.539  14.281
63835W        W23272  33.003  24.518  14.442
63836W        W23273  20.637  13.629  14.870
63837W        W23274  26.486   6.291   3.838
63838W        W23275  12.831  42.297  10.974
63839W        W23276  25.540  14.687   3.739
63840W        W23277   9.691  17.695  12.573
63841W        W23278  17.679  39.363  12.856
63842W        W23279  43.416  14.614  11.518
63843W        W23280  19.698  16.634   0.446
63844W        W23281   3.846  26.099  14.846
63845W        W23282   1.447  36.365   0.304
63846W        W23283  31.506  29.599  14.296
63847W        W23284  32.134  36.005   3.263
63848W        W23285  31.012  44.934   1.863
63849W        W23286  18.185  44.792  10.564
63850W        W23287   6.790  44.800   4.167
63851W        W23288  10.710   6.226   4.712
63852W        W23289  28.568  43.947   3.806
63853W        W23290  37.410  39.323  12.955
63854W        W23291   8.752  42.026   3.727
63855W        W23292  14.247  18.122   0.459
63856W        W23293  26.584   3.228   2.857
63857W        W23294  18.162   3.299  12.882
63858W        W23295  30.576  22.624  14.851
63859W        W23296  38.041   9.707   2.762
63860W        W23297  23.992  20.244  14.798
63861W        W23298  22.710  22.019  14.414
63862W        W23299   7.764  27.005  10.073
63863W        W23300  12.772   0.406  14.990
63864W        W23301  22.063  24.712   2.849
63865W        W23302  20.222   3.832   4.286
63866W        W23303   8.695   3.218   3.196
63867W        W23304  15.817   6.234  13.416
63868W        W23305  23.668  32.549  10.958
63869W        W23306  10.174  27.053  11.452
63870W        W23307  39.051  19.164  14.447
63871W        W23308   1.909  35.575   2.296
63872W        W23309  15.248  19.140  11.415
63873W        W23310   0.860  27.472   1.856
63874W        W23311  10.308  10.668   4.236
63875W        W23312  38.530  33.022  13.366
63876W        W23313  37.538  20.180   2.249
63877W        W23314   1.848  19.252  10.477
63878W        W23315  18.554  29.122   0.299
63879W        W23316  16.247  16.186  14.396
63880W        W23317  13.675  28.576  11.613
63881W        W23318  31.483  33.089  12.863
63882W        W23319  13.733   2.321  13.421
63883W        W23320  39.835  21.672  11.007
63884W        W23321   3.882  37.945  10.629
63885W        W23322  27.517   5.767   0.249
63886W        W23323  34.435   1.972  14.367
63887W        W23324  35.087  20.148  14.027
63888W        W23325   2.884   6.240   3.819
63889W        W23326  15.229  32.487   3.200
63890W        W23327  15.121  31.431   0.248
63891W        W23328  26.992  27.946  13.506
63892W        W23329  23.171  37.057   2.840
63893W        W23330   2.929  35.572  13.460
63894W        W23331   9.324  43.992  13.932
63895W        W23332  23.507   7.685   3.656
63896W        W23333  33.075  36.570   1.363
63897W        W23334   3.342  30.516  14.475
63898W        W23335  31.560  44.401   0.479
63899W        W23336  41.876  35.865  11.109
63900W        W23337   6.365   5.264  11.897
63901W        W23338   4.871   5.851   2.714
63902W        W23339  31.909   1.862  12.418
63903W        W23340  36.026  28.467   4.170
63904W        W23341  11.131  42.966  12.991
63905W        W23342  11.256  24.603  11.578
63906W        W23343  27.675  42.293  13.381
63907W        W23344  29.453  44.281  11.896
63908W        W23345  17.673  27.692   1.823
63909W        W23346  35.931  32.443  13.408
63910W        W23347  41.500  36.015  11.933
63911W        W23348  30.468  18.646   2.833
63912W        W23349  10.860  31.095  13.536
63913W        W23350   1.765  31.136  11.507
63914W        W23351  36.389  25.679   3.803
63915W        W23352  44.954  31.476  13.396
63916W        W23353  16.240  15.160  11.879
63917W        W23354  43.890  41.401  14.284
63918W        W23355   0.988   6.261   3.293
63919W        W23356   7.902  26.665   3.237
63920W        W23357  28.069  19.264   0.271
63921W        W23358  23.019  18.120  11.951
63922W        W23359  25.017  29.132  12.909
63923W        W23360  34.054  20.647  14.980
63924W        W23361  23.531  44.831   2.727
63925W        W23362   2.428   3.758  12.365
63926W        W23363  34.058  19.060  13.392
63927W        W23364   1.424  37.376   4.773
63928W        W23365  42.328   1.297   2.866
63929W        W23366  11.783  10.241  10.554
63930W        W23367   3.243  32.391   2.263
63931W        W23368  13.132  23.563   3.176
63932W        W23369  10.278  23.219   5.145
63933W        W23370  34.420  38.072  11.950
63934W        W23371  24.995  31.050  12.929
63935W        W23372   3.828  30.983  11.943
63936W        W23373   2.800  26.136   3.287
63937W        W23374   9.845  16.639  13.978
63938W        W23375  23.171  34.030   2.179
63939W        W23376  11.695  16.189  11.596
63940W        W23377   4.825   9.732  14.852
63941W        W23378  20.134  36.846  14.394
63942W        W23379  18.079  26.130  12.446
63943W        W23380  27.612  10.250   0.290
63944W        W23381   0.266   0.367  11.479
63945W        W23382  10.283  25.100   0.814
63946W        W23383  35.524  25.129   2.851
63947W        W23384  16.261  20.220   0.874
63948W        W23385  27.623  17.753  11.425
63949W        W23386  44.356  39.923   3.658
63950W        W23387   0.926  11.316   2.858
63951W        W23388   8.730  16.630   1.831
63952W        W23389  15.329   9.290   1.433
63953W        W23390   4.917  29.610   1.880
63954W        W23391  39.025   5.781  11.987
63955W        W23392  33.408   3.744  10.485
63956W        W23393  19.061   5.337  10.494
63957W        W23394  43.844  35.390   4.274
63958W        W23395   9.343  25.495  13.526
63959W        W23396   8.211   6.712  14.347
63960W        W23397  27.005  43.834  11.961
63961W        W23398  28.039  25.102   2.266
63962W        W23399  22.560  11.336   1.365
63963W        W23400  30.014   9.268  14.003
63964W        W23401  40.322  33.528   5.203
63965W        W23402   1.849   0.824   0.293
63966W        W23403   9.288   3.423   0.964
63967W        W23404  44.477  11.731  11.467
63968W        W23405   7.809  39.544   1.757
63969W        W23406  31.917  19.572   1.244
63970W        W23407  30.621  21.694  14.304
63971W        W23408  34.388  28.507  10.610
63972W        W23409  30.548  26.998  12.542
63973W        W23410  37.962  43.431  14.930
63974W        W23411  43.777   5.309   4.265
63975W        W23412  42.325  23.543  13.032
63976W        W23413  26.505   8.264   3.675
63977W        W23414  38.967  37.483  12.857
63978W        W23415  34.059  24.032   5.690
63979W        W23416  16.603  31.032   3.242
63980W        W23417  34.073   3.400  11.497
63981W        W23418  15.092  19.555  11.032
63982W        W23419  19.231  12.845  10.409
63983W        W23420  10.736  27.042  14.016
63984W        W23421  28.526   9.235  12.359
63985W        W23422  39.498  19.176   0.955
63986W        W23423  24.533  11.752   3.235
63987W        W23424  28.459  37.038   2.902
63988W        W23425   9.813  29.582  11.102
63989W        W23426  41.797   9.700   0.953
63990W        W23427  15.653  30.480   1.372
63991W        W23428   0.360  43.972   0.429
63992W        W23429   4.380  21.216   2.340
63993W        W23430  42.959  38.075   4.278
63994W        W23431  11.720  17.268   2.853
63995W        W23432  11.820  24.061  14.878
63996W        W23433   2.449  35.874   2.669
63997W        W23434   8.697   8.251  13.013
63998W        W23435   3.411   5.701   2.320
63999W        W23436   0.960  34.603  13.415
64000W        W23437  26.148  30.479  11.054
64001W        W23438   4.942  37.547  10.019
64002W        W23439  12.656  37.539  14.020
64003W        W23440  18.112  36.409   4.651
64004W        W23441  16.103  22.043   2.272
64005W        W23442  38.457  32.552  13.854
64006W        W23443   8.254   0.820   2.717
64007W        W23444   9.255  20.081  11.610
64008W        W23445  27.555   9.828   4.299
64009W        W23446  10.290  41.500  12.524
64010W        W23447   9.331  10.247   1.420
64011W        W23448  37.387  39.536   2.314
64012W        W23449  21.696  26.070   0.288
64013W        W23450   7.289  31.547   1.297
64014W        W23451  10.351  18.214  13.944
64015W        W23452   4.731  40.523  12.479
64016W        W23453  35.876  12.786  12.981
64017W        W23454   8.345  25.084  14.421
64018W        W23455  23.672   8.677   2.343
64019W        W23456  39.833  34.916  14.345
64020W        W23457  22.243  24.130   1.762
64021W        W23458  30.622  17.567   1.868
64022W        W23459  17.195  23.578   0.875
64023W        W23460  22.739  28.929   4.623
64024W        W23461   7.224  30.625  11.470
64025W        W23462  16.650  18.550   0.457
64026W        W23463  34.573   4.336   0.400
64027W        W23464   4.905  19.195   0.415
64028W        W23465  44.459  35.371   3.647
64029W        W23466  11.347  15.102   1.320
64030W        W23467  23.582   6.190  12.848
64031W        W23468   5.822  40.410   3.756
64032W        W23469  12.645  15.744   2.187
64033W        W23470   6.183  20.603   3.240
64034W        W23471  14.626  39.061   5.154
64035W        W23472  22.501  25.144  14.970
64036W        W23473  25.201   5.922   3.690
64037W        W23474  26.182  44.403  14.955
64038W        W23475  11.767  40.877   2.805
64039W        W23476  30.960  28.460   3.176
64040W        W23477  24.103  23.674  13.410
64041W        W23478   9.280  20.726  13.929
64042W        W23479  38.825  35.976   0.749
64043W        W23480   5.371  20.729  14.434
64044W        W23481  24.702   4.764  13.050
64045W        W23482   3.763   3.444   4.269
64046W        W23483  24.539  21.019  12.970
64047W        W23484   1.904  22.182  11.547
64048W        W23485  14.121  23.517  12.390
64049W        W23486  17.124  11.641   1.835
64050W        W23487  24.988   9.806  12.905
64051W        W23488  35.487  16.205  11.988
64052W        W23489   9.302  26.654  14.815
64053W        W23490  29.431  20.195   2.343
64054W        W23491  16.126  16.199   5.752
64055W        W23492  23.655  14.228   1.823
64056W        W23493   6.316  44.410  14.957
64057W        W23494  17.161  28.999   2.308
64058W        W23495  12.281  39.472   3.217
64059W        W23496  24.611  26.953  12.024
64060W        W23497  43.289  18.760   0.375
64061W        W23498   7.711  28.948   3.162
64062W        W23499  29.632  22.197  12.349
64063W        W23500  38.407  40.863   1.915
64064W        W23501   9.749  42.457  10.590
64065W        W23502  16.089   2.852  14.411
64066W        W23503  20.591  26.046   2.371
64067W        W23504   6.408  39.439  10.494
64068W        W23505  24.572  12.785  10.017
64069W        W23506  32.021  43.453   1.395
64070W        W23507  30.135  11.233  14.863
64071W        W23508  21.129  30.463  13.059
64072W        W23509  29.564  43.404  13.810
64073W        W23510  42.016  35.032  10.530
64074W        W23511   3.788  18.562   2.316
64075W        W23512  15.640   4.240  11.110
64076W        W23513   6.776  36.528  11.972
64077W        W23514   6.291  21.227   1.332
64078W        W23515  38.550   2.906  10.622
64079W        W23516  31.483  17.107   4.765
64080W        W23517  19.564  13.819   3.862
64081W        W23518  39.910  30.140  13.362
64082W        W23519  20.672  19.580   1.899
64083W        W23520  35.587   1.875  12.513
64084W        W23521  15.740  36.859   0.775
64085W        W23522  10.843  12.253  11.011
64086W        W23523  43.425   7.736   0.380
64087W        W23524  33.608  38.528  14.296
64088W        W23525  29.062  35.885   0.916
64089W        W23526  10.293  10.654   1.326
64090W        W23527  21.622  17.179  11.430
64091W        W23528  10.313  20.148  11.491
64092W        W23529  32.494  22.610   5.656
64093W        W23530  10.692  34.920  11.114
64094W        W23531  32.007   7.896   4.300
64095W        W23532   0.292  19.773  12.873
64096W        W23533  22.013  16.107  11.876
64097W        W23534  20.663  18.161   1.333
64098W        W23535  14.727  18.552   4.680
64099W        W23536  28.578  26.530   1.422
64100W        W23537  42.333  44.906  14.938
64101W        W23538   0.352  28.009  12.088
64102W        W23539  15.282  21.042   0.864
64103W        W23540  43.490  19.692  12.908
64104W        W23541  15.671   6.342  14.333
64105W        W23542   1.336   2.916  11.101
64106W        W23543  31.495  38.371  12.501
64107W        W23544  26.607  27.513   1.750
64108W        W23545  43.320  37.048   2.866
64109W        W23546  26.983  20.709   3.777
64110W        W23547   2.896  30.501   0.896
64111W        W23548  21.104   9.165  14.001
64112W        W23549  32.958   3.430   1.368
64113W        W23550  29.605  37.447   3.770
64114W        W23551  20.172  33.108   1.370
64115W        W23552  14.336  39.321  13.997
64116W        W23553  12.614  16.220   1.240
64117W        W23554  33.586  37.978  12.949
64118W        W23555  32.499   0.931   1.285
64119W        W23556  12.651  38.349  11.028
64120W        W23557  23.193  30.455  11.383
64121W        W23558  18.149   7.244   0.776
64122W        W23559  20.250  17.126   1.437
64123W        W23560  28.613  26.002  13.857
64124W        W23561   3.830  35.422  14.982
64125W        W23562  15.690  26.120  13.917
64126W        W23563  36.917  14.616   0.436
64127W        W23564  22.561   8.840   4.222
64128W        W23565  15.211  26.096  11.926
64129W        W23566  29.575  26.956  14.877
64130W        W23567  41.506   0.808  12.522
64131W        W23568  25.678  21.171   3.309
64132W        W23569   0.857  12.318   1.796
64133W        W23570   3.878  40.893  10.456
64134W        W23571   5.338  42.798  11.543
64135W        W23572  19.042  18.289  10.462
64136W        W23573  14.265  35.366  14.279
64137W        W23574  28.122   3.787  14.350
64138W        W23575   6.411  10.154  14.421
64139W        W23576  14.326  26.591  13.960
64140W        W23577   3.416   5.297   0.438
64141W        W23578   0.321  36.943   2.902
64142W        W23579  33.519   7.283  10.989
64143W        W23580  31.626   7.807   2.196
64144W        W23581  39.360   4.294   0.740
64145W        W23582  15.291   4.786  10.970
64146W        W23583   5.321   1.818  14.784
64147W        W23584  15.705  34.526   4.611
64148W        W23585  31.502  25.661   9.573
64149W        W23586  15.217  20.077  10.573
64150W        W23587  43.849  25.026   4.147
64151W        W23588  39.328  29.113  10.432
64152W        W23589  35.564  20.715  11.558
64153W        W23590  34.929  17.289  12.466
64154W        W23591  35.371  22.713  12.405
64155W        W23592  12.658  25.214   3.151
64156W        W23593  33.879  10.181  11.389
64157W        W23594  42.443  40.545   3.745
64158W        W23595  22.740  17.779   3.720
64159W        W23596  41.454  13.802  11.051
64160W        W23597   5.856  10.191   2.263
64161W        W23598   9.790   8.674   9.976
64162W        W23599  44.990  12.663   4.166
64163W        W23600  28.940  10.848  11.903
64164W        W23601  16.768  12.768  14.820
64165W        W23602  12.340  10.653  14.407
64166W        W23603  25.080  14.291   1.364
64167W        W23604   4.420  13.846   4.184
64168W        W23605  20.557  17.699  12.349
64169W        W23606   1.743  31.471   4.124
64170W        W23607  13.114  30.421  12.547
64171W        W23608   9.188  22.159   4.617
64172W        W23609   2.746  34.015  12.032
64173W        W23610   5.276   5.689  12.033
64174W        W23611   3.754   3.258   2.335
64175W        W23612  14.335  31.554   0.933
64176W        W23613  22.515  32.521   1.435
64177W        W23614   3.426  39.987  14.438
64178W        W23615  16.203  29.052   2.900
64179W        W23616  22.505   7.293   1.433
64180W        W23617  39.931  28.644   0.898
64181W        W23618   4.346  18.660   3.668
64182W        W23619  23.512  36.579   0.727
64183W        W23620   8.861  32.523   4.130
64184W        W23621  38.833  36.965  10.475
64185W        W23622   8.400  14.113   4.176
64186W        W23623  34.449  28.650  14.788
64187W        W23624   1.807  11.861   4.235
64188W        W23625  35.101  30.538   4.598
64189W        W23626   6.723  22.648   1.921
64190W        W23627  35.394   3.836   3.765
64191W        W23628  29.931  40.334   2.184
64192W        W23629  11.212  25.578  13.846
64193W        W23630  40.888   3.912   1.289
64194W        W23631  15.187  15.176   2.899
64195W        W23632  38.043  22.162   3.331
64196W        W23633   8.241  36.474  11.590
64197W        W23634  35.499  27.125  13.473
64198W        W23635  21.116  28.014   5.315
64199W        W23636  26.648  34.558  11.930
64200W        W23637  30.436  43.814  11.514
64201W        W23638  36.464   2.857  14.767
64202W        W23639  14.596  37.497   1.336
64203W        W23640   5.429  41.295  13.822
64204W        W23641   1.339  23.984   3.871
64205W        W23642  43.412  18.226  10.643
64206W        W23643   5.813   0.444   1.293
64207W        W23644  13.183  28.611   2.196
64208W        W23645  24.999  18.268  14.827
64209W        W23646   7.720   8.243   2.664
64210W        W23647  26.977  10.274   0.773
64211W        W23648  28.139  20.107   9.992
64212W        W23649  41.333  40.863   0.359
64213W        W23650  22.131  10.304  14.915
64214W        W23651  20.111  41.019   3.834
64215W        W23652  30.062  10.760   1.802
64216W        W23653  20.762  36.541  14.922
64217W        W23654   9.857   9.784   1.764
64218W        W23655  22.704   5.827  13.440
64219W        W23656  12.252  27.012  12.487
64220W        W23657  40.379  39.465  12.070
64221W        W23658  32.908  43.452   5.114
64222W        W23659   0.971  18.764   1.395
64223W        W23660  44.990   8.746  13.547
64224W        W23661  38.919  22.030  12.543
64225W        W23662  37.368  19.697  12.070
64226W        W23663  12.822   6.718   3.667
64227W        W23664  26.509   8.742  11.507
64228W        W23665  17.173  14.683   2.417
64229W        W23666   7.766  32.597  10.966
64230W        W23667  12.781  13.271   1.845
64231W        W23668  24.673  41.958   3.291
64232W        W23669  18.084   8.172  11.060
64233W        W23670  24.211  15.667  12.440
64234W        W23671  26.085  25.520   3.230
64235W        W23672  21.616  44.503  13.063
64236W        W23673  34.082  32.434  12.482
64237W        W23674  22.738  13.608  13.962
64238W        W23675   1.732  36.360   0.815
64239W        W23676  16.795  41.004  10.582
64240W        W23677  32.046  24.017   1.745
64241W        W23678  35.853   2.744   1.374
64242W        W23679   3.271  15.288   3.750
64243W        W23680  43.464  26.570   3.853
64244W        W23681  41.483  11.718  12.862
64245W        W23682   1.305  34.971  11.968
64246W        W23683   6.284  21.261  14.478
64247W        W23684  14.230  44.759  12.444
64248W        W23685  23.670  39.973   0.401
64249W        W23686  28.159  14.591   4.223
64250W        W23687  41.014   0.299   2.265
64251W        W23688  26.968   4.360   3.768
64252W        W23689  39.373   7.315   1.847
64253W        W23690   0.789  28.546   2.231
64254W        W23691  32.899  33.888   0.363
64255W        W23692  39.878  21.165  14.930
64256W        W23693   7.282  30.421   4.172
64257W        W23694   2.395   5.901  12.413
64258W        W23695   6.335  27.051  14.433
64259W        W23696  28.447  22.607  11.549
64260W        W23697  37.356  32.027  14.388
64261W        W23698   1.295  20.102  10.439
64262W        W23699  21.027  19.162   1.341
64263W        W23700  11.362  13.233  14.956
64264W        W23701   5.296  11.368  10.556
64265W        W23702   9.217   2.273  12.042
64266W        W23703  29.957  41.344   3.362
64267W        W23704  23.086   3.330   3.866
64268W        W23705  11.648   9.718   1.834
64269W        W23706  38.427  11.862  12.960
64270W        W23707  26.002  28.051  14.970
64271W        W23708  26.691  30.413   0.891
64272W        W23709   8.680  16.123   0.967
64273W        W23710   6.393  39.890  12.073
64274W        W23711  15.591  26.630  13.992
64275W        W23712  12.704  30.907   3.754
64276W        W23713   0.873  21.711   2.874
64277W        W23714   9.707  25.004   4.167
64278W        W23715  22.694  22.169  11.091
64279W        W23716  34.380  41.824  12.526
64280W        W23717  22.724  43.765  11.603
64281W        W23718  14.306  41.006   5.139
64282W        W23719  31.503  30.467  14.024
64283W        W23720  34.055   0.903  10.440
64284W        W23721  17.177  21.161  11.106
64285W        W23722  23.021  24.187  11.996
64286W        W23723  38.870  27.662  10.911
64287W        W23724  36.509   0.820  10.528
64288W        W23725  11.636  26.530  14.899
64289W        W23726  25.655  33.059   0.729
64290W        W23727  14.815  20.142  10.634
64291W        W23728  20.694  33.590  13.959
64292W        W23729   0.803  18.155  11.508
64293W        W23730  10.201  21.626  14.344
64294W        W23731  10.345   4.820  13.058
64295W        W23732   9.366  43.784  14.472
64296W        W23733   4.851  28.629   1.749
64297W        W23734  14.146  17.224   3.758
64298W        W23735  17.778  12.201  13.002
64299W        W23736  39.351  16.304  10.423
64300W        W23737  16.593   3.841   1.239
64301W        W23738   4.767  19.564   3.378
64302W        W23739  18.653  15.811  13.544
64303W        W23740   6.764  30.544   4.788
64304W        W23741  38.065  14.271   2.761
64305W        W23742  30.055  23.736   0.328
64306W        W23743  19.273  22.746   4.128
64307W        W23744  16.119  18.258  10.544
64308W        W23745   6.249  20.727  14.012
64309W        W23746  27.556  38.383   1.259
64310W        W23747   9.232  33.930  11.464
64311W        W23748  42.452   9.793  13.506
64312W        W23749  40.511  32.940  11.007
64313W        W23750  34.521  29.084  10.565
64314W        W23751  42.018  41.377   4.682
64315W        W23752   6.698   0.367  11.864
64316W        W23753  41.395  44.366   1.906
64317W        W23754  11.318  31.419  14.305
64318W        W23755   5.701  37.348  12.354
64319W        W23756  40.331  18.094  10.137
64320W        W23757   7.749  11.266   1.701
64321W        W23758  15.215  25.667  13.830
64322W        W23759   0.382  34.971   0.445
64323W        W23760  38.531   5.910  10.994
64324W        W23761  16.166  12.727  11.037
64325W        W23762  38.472  17.765  11.560
64326W        W23763  34.116  24.673  14.791
64327W        W23764  42.473  25.045   4.792
64328W        W23765  38.005  44.353  10.617
64329W        W23766  20.584  18.126  13.425
64330W        W23767   1.913  26.090  14.019
64331W        W23768  10.839  44.810  14.328
64332W        W23769  27.540  14.800   3.238
64333W        W23770  42.021  35.410  11.579
64334W        W23771  37.983  44.268  14.806
64335W        W23772   6.709  24.631   2.860
64336W        W23773  15.597  34.988   0.326
64337W        W23774  17.158   7.334  13.792
64338W        W23775  35.898  31.901  14.772
64339W        W23776  15.776  44.349  13.891
64340W        W23777  11.218  33.462  10.907
64341W        W23778  19.195   2.948   4.759
64342W        W23779  23.626  12.265   0.874
64343W        W23780  28.931  31.635  13.888
64344W        W23781  33.523  28.161  13.393
64345W        W23782   0.889  25.055  14.336
64346W        W23783  22.537   6.248   5.162
64347W        W23784   5.319  25.000   2.281
64348W        W23785  33.497  33.914  12.896
64349W        W23786  17.203  37.436  10.624
64350W        W23787  32.464  35.914  10.443
64351W        W23788  19.577  24.674   4.185
64352W        W23789  24.671  17.575  11.441
64353W        W23790  37.891  36.981  11.474
64354W        W23791  28.172  24.608   1.265
64355W        W23792  25.662  36.590   3.852
64356W        W23793  15.819  35.893  14.510
64357W        W23794  35.450  13.259  12.834
64358W        W23795   3.259  35.491   3.378
64359W        W23796   3.746  43.934  14.952
64360W        W23797  26.166  18.661   4.354
64361W        W23798  39.450  16.746   1.859
64362W        W23799  44.786  35.927   1.744
64363W        W23800  40.366  41.418  14.031
64364W        W23801  26.127  16.176  11.021
64365W        W23802  25.644  28.945  13.425
64366W        W23803  11.176  32.028   4.220
64367W        W23804  30.937  26.667  12.573
64368W        W23805  40.405  30.081   3.221
64369W        W23806  44.409  21.604   3.340
64370W        W23807  41.803   0.415  13.843
64371W        W23808  39.038  16.301   3.782
64372W        W23809  10.740  28.149  11.085
64373W        W23810  30.536  12.262  12.422
64374W        W23811  21.140  35.978   1.906
64375W        W23812   7.871  33.118   1.341
64376W        W23813  44.001  10.750   2.399
64377W        W23814  24.647   8.281  10.965
64378W        W23815  11.694   3.269   5.170
64379W        W23816  32.909  30.513   1.300
64380W        W23817   5.267  42.385  11.484
64381W        W23818  20.083   9.277   1.398
64382W        W23819  22.712   2.443   4.672
64383W        W23820   2.445   6.739  12.436
64384W        W23821  38.993   6.288   3.299
64385W        W23822  39.421  18.716  11.372
64386W        W23823  31.502  33.451  13.863
64387W        W23824  41.837  30.118   4.811
64388W        W23825   2.807  41.971   2.280
64389W        W23826  31.454  19.616  13.972
64390W        W23827  36.393  34.946  12.341
64391W        W23828   4.860  14.153   0.900
64392W        W23829  21.191   6.697   1.825
64393W        W23830  40.385   0.757  13.394
64394W        W23831  13.798   3.712  13.533
64395W        W23832  11.771  41.495  13.945
64396W        W23833  37.441   0.280   4.209
64397W        W23834   5.251  17.290  14.896
64398W        W23835   5.418   7.273   4.832
64399W        W23836  27.940  11.139  14.809
64400W        W23837  27.546   8.203  11.421
64401W        W23838   1.371   9.721  10.419
64402W        W23839   5.317  28.625  14.813
64403W        W23840   6.284   2.303   0.755
64404W        W23841  36.875   0.814   3.165
64405W        W23842  20.091  15.767  12.474
64406W        W23843  42.871  17.729   4.620
64407W        W23844  37.972   9.367  14.887
64408W        W23845  21.256  10.175   2.673
64409W        W23846  14.094  33.027   2.311
64410W        W23847  34.420  10.209   1.252
64411W        W23848  10.812  36.467  14.777
64412W        W23849  26.500   7.885   4.661
64413W        W23850  11.189  30.614  12.012
64414W        W23851  12.681  15.668  13.970
64415W        W23852  10.748   3.384   0.816
64416W        W23853  20.745  27.194   2.351
64417W        W23854  36.955  13.261  10.605
64418W        W23855  11.647  16.189   1.305
64419W        W23856  37.556  29.085  14.978
64420W        W23857   5.903  28.158   1.299
64421W        W23858   1.823  36.407   3.777
64422W        W23859  15.698  17.119  11.121
64423W        W23860  38.565  13.607  13.939
64424W        W23861   7.850  23.152   3.381
64425W        W23862  33.597  44.368   2.224
64426W        W23863  18.082   4.899  13.020
64427W        W23864   6.194  28.472  12.389
64428W        W23865  23.648   4.825  14.806
64429W        W23866  16.793   9.875  12.034
64430W        W23867   1.771  43.981  11.079
64431W        W23868  31.627   2.761   1.243
64432W        W23869   9.665  24.197   3.639
64433W        W23870  32.437  16.252  14.816
64434W        W23871  21.082  11.317   1.825
64435W        W23872   8.347   6.890   2.712
64436W        W23873  25.535  43.884  10.423
64437W        W23874   3.449  43.968   0.369
64438W        W23875  28.097  21.600   1.787
64439W        W23876  33.062  36.889   1.737
64440W        W23877  40.422  17.618   0.266
64441W        W23878   3.728  17.190   3.202
64442W        W23879  25.067  33.496   3.721
64443W        W23880  30.982  10.189  11.071
64444W        W23881   0.470  28.158  13.391
64445W        W23882   0.762   8.901   5.271
64446W        W23883  26.206  24.516  13.380
64447W        W23884  40.419   8.289   1.704
64448W        W23885  13.814  14.328  12.402
64449W        W23886   4.331  36.590   4.171
64450W        W23887  25.696   8.370  13.964
64451W        W23888   1.879   0.410   1.443
64452W        W23889  37.341  25.571  12.019
64453W        W23890  13.808  40.828  14.494
64454W        W23891   6.333  33.929   3.726
64455W        W23892  11.743  30.418  10.606
64456W        W23893  17.655  30.642  12.372
64457W        W23894  36.427  32.440  10.576
64458W        W23895  24.150   9.158  11.114
64459W        W23896  40.943  34.612   1.709
64460W        W23897  10.680   6.690  14.351
64461W        W23898   2.279  27.581  12.847
64462W        W23899  42.923  32.409  13.424
64463W        W23900  41.834  33.503   3.768
64464W        W23901  33.088  39.884  12.885
64465W        W23902  44.432  32.637   4.277
64466W        W23903   9.187  14.652   3.793
64467W        W23904  11.663  36.425  13.492
64468W        W23905  35.458   6.760   1.904
64469W        W23906  32.900   6.677  11.909
64470W        W23907  26.690  24.488   5.687
64471W        W23908  36.876  17.298   4.751
64472W        W23909  38.836   3.255  13.945
64473W        W23910  38.534  44.991   2.697
64474W        W23911  15.228  31.937  14.442
64475W        W23912  15.714   1.429  14.310
64476W        W23913   5.846  39.532   2.901
64477W        W23914  16.788  44.762   4.817
64478W        W23915  22.079   4.287  11.106
64479W        W23916   1.292  36.448   2.305
64480W        W23917  38.865   6.721  14.391
64481W        W23918  39.049  10.274  13.308
64482W        W23919  36.542  34.442  13.974
64483W        W23920  43.808  23.693   0.801
64484W        W23921  25.105   0.487  11.398
64485W        W23922  32.007  12.615   9.989
64486W        W23923   9.332  35.558   2.743
64487W        W23924  41.788   0.857   3.646
64488W        W23925  40.825  36.376   5.278
64489W        W23926  25.175  31.498  14.973
64490W        W23927   4.365   3.746   2.878
64491W        W23928  11.672  24.042  12.467
64492W        W23929  19.153   5.360   4.700
64493W        W23930   2.801  18.636   4.246
64494W        W23931  11.158  36.030   1.450
64495W        W23932   4.316   5.318   4.778
64496W        W23933  18.776  35.968  11.989
64497W        W23934   7.842   5.298  13.808
64498W        W23935  19.118  38.471  13.875
64499W        W23936  36.458  37.418  14.452
64500W        W23937  28.535  32.462  14.935
64501W        W23938   6.295  39.850   2.726
64502W        W23939  15.764   9.369  13.541
64503W        W23940  25.032  40.975  10.889
64504W        W23941  19.070  39.412   1.245
64505W        W23942  31.621  11.301   2.323
64506W        W23943  44.909  43.367   1.388
64507W        W23944   6.820  37.443   0.330
64508W        W23945   2.802  25.196   0.942
64509W        W23946  19.544  43.330  13.460
64510W        W23947  14.833  31.089  14.023
64511W        W23948  31.453   9.372   1.254
64512W        W23949  41.460  18.614  10.595
64513W        W23950  16.575  36.898  13.315
64514W        W23951   7.303   4.423  12.828
64515W        W23952  33.545   7.767   5.193
64516W        W23953  44.289   1.894  12.965
64517W        W23954  11.768  25.581  12.358
64518W        W23955  30.158  41.017  10.073
64519W        W23956   6.368  12.826   2.334
64520W        W23957  37.069  23.215   0.440
64521W        W23958   2.956  22.664  12.564
64522W        W23959   7.763  36.021   5.111
64523W        W23960   4.830  33.454  14.324
64524W        W23961  38.890   0.295  11.112
64525W        W23962  40.815  37.084  12.951
64526W        W23963  21.055  27.674  13.044
64527W        W23964  26.594   4.346  12.385
64528W        W23965  26.703  13.727   4.622
64529W        W23966  33.926  43.974   2.335
64530W        W23967  17.110  12.727   3.201
64531W        W23968  12.667  29.601   1.305
64532W        W23969  31.132  13.682  13.480
64533W        W23970   7.785  14.633   1.358
64534W        W23971  24.652  13.653  11.995
64535W        W23972   5.876  11.205   0.402
64536W        W23973  36.451  17.251  14.912
64537W        W23974   9.737  34.937   2.227
64538W        W23975  19.774  40.304  11.372
64539W        W23976  21.569   3.834   0.425
64540W        W23977  37.479   3.231  12.487
64541W        W23978  23.029  26.077  12.889
64542W        W23979  17.686  38.019  14.496
64543W        W23980  26.523  23.581   4.135
64544W        W23981   9.176  27.102  10.489
64545W        W23982   1.884  34.467  11.083
64546W        W23983  29.466  14.279  11.107
64547W        W23984  27.007  34.079  12.845
64548W        W23985  33.898   6.877   0.321
64549W        W23986  26.635  38.032  12.997
64550W        W23987  35.873  34.391   0.842
64551W        W23988  39.817  43.837  11.020
64552W        W23989  42.980  32.952   3.235
64553W        W23990  26.159  26.610  12.480
64554W        W23991  32.068  30.602  13.464
64555W        W23992   7.227  30.553  10.941
64556W        W23993  16.701   1.456   1.372
64557W        W23994   3.370  30.913   3.749
64558W        W23995  12.215   8.761  11.517
64559W        W23996  22.562  14.803  12.347
64560W        W23997  31.943  44.759   1.705
64561W        W23998  33.084  36.509   0.358
64562W        W23999   9.844  24.066  10.916
64563W        W24000  44.456   7.296  11.405
64564W        W24001  18.050  35.978  11.105
64565W        W24002  42.921  44.297  14.432
64566W        W24003  16.657  44.858  11.538
64567W        W24004  11.283  14.297  10.537
64568W        W24005  31.909  24.499  14.023
64569W        W24006   9.334   7.380  11.127
64570W        W24007  29.457  12.119  10.987
64571W        W24008   6.913  26.677  14.851
64572W        W24009  11.227  10.336   2.398
64573W        W24010  32.100   3.901   0.450
64574W        W24011  30.959  40.352   1.328
64575W        W24012  28.015  21.144   4.133
64576W        W24013   6.400  16.275  12.071
64577W        W24014  22.062  44.330   4.141
64578W        W24015   0.865   8.773   4.666
64579W        W24016   6.796  43.022  12.095
64580W        W24017  33.955  20.142  13.899
64581W        W24018  30.449  24.033  14.968
64582W        W24019  42.374  34.432  10.893
64583W        W24020   9.348  34.892   3.245
64584W        W24021  18.733  32.983  13.974
64585W        W24022  16.200  24.191  12.885
64586W        W24023  20.225  35.992   0.733
64587W        W24024  27.478  23.147   1.304
64588W        W24025  38.986  27.948  14.353
64589W        W24026  31.097  25.048  11.470
64590W        W24027  21.155   0.492  14.462
64591W        W24028  33.923   3.833  12.481
64592W        W24029   7.413   0.876   4.282
64593W        W24030  28.101   7.811   0.258
64594W        W24031  17.193  38.452  12.341
64595W        W24032  19.094   8.707   1.311
64596W        W24033  11.863   0.962  12.020
64597W        W24034  17.257  37.441   0.758
64598W        W24035  17.095  41.839   5.297
64599W        W24036  22.029  20.691  13.936
64600W        W24037  27.012  44.365  13.385
64601W        W24038  29.138  28.964  10.495
64602W        W24039  16.803  17.219   3.736
64603W        W24040  27.450  12.348  14.924
64604W        W24041  11.356  29.054   0.847
64605W        W24042  34.908  26.658  12.380
64606W        W24043  16.781  44.288  13.938
64607W        W24044  42.296  29.062  12.411
64608W        W24045  42.393  17.784  10.421
64609W        W24046  35.574  37.076  14.283
64610W        W24047   6.784  40.906  13.490
64611W        W24048  29.586  35.860   2.322
64612W        W24049  11.775   2.317  12.940
64613W        W24050  44.486  19.079   3.191
64614W        W24051  26.547  26.494   2.280
64615W        W24052  22.236  15.809   4.822
64616W        W24053  39.048   1.399  11.399
64617W        W24054  29.077   2.879   0.778
64618W        W24055   7.197  22.704   3.674
64619W        W24056  29.995  44.816  14.514
64620W        W24057  16.240   2.291  11.960
64621W        W24058   7.674   9.767  11.383
64622W        W24059  13.706  13.829   2.271
64623W        W24060  33.419   3.460  12.879
64624W        W24061  24.159   2.742   3.847
64625W        W24062  26.562   2.965   3.293
64626W        W24063  19.239   7.401  12.006
64627W        W24064  26.587   8.750   0.834
64628W        W24065  29.660  32.433  11.995
64629W        W24066   5.239   4.902   4.728
64630W        W24067   9.220  37.051   1.226
64631W        W24068  14.687  37.540   3.738
64632W        W24069  23.993  20.716  12.844
64633W        W24070  39.380  44.923   2.734
64634W        W24071   9.339  43.448   4.830
64635W        W24072  22.164  43.511   0.395
64636W        W24073  10.300  20.127  10.506
64637W        W24074  28.641  34.922  14.875
64638W        W24075   0.897   0.827  13.507
64639W        W24076  36.435  24.021   5.084
64640W        W24077   0.971  26.664   0.778
64641W        W24078  25.004  39.819   1.412
64642W        W24079  38.831  24.490   0.358
64643W        W24080   4.848  40.469  14.797
64644W        W24081  13.729  14.281   0.456
64645W        W24082  23.613   3.850   1.291
64646W        W24083  42.494  42.498   2.275
64647W        W24084  29.053  31.495   4.665
64648W        W24085  22.662  42.984   3.190
64649W        W24086   1.837  11.811   0.381
64650W        W24087  13.820  15.152  14.462
64651W        W24088   4.789  38.005  12.549
64652W        W24089   4.809  31.110   5.279
64653W        W24090  10.856  21.714   3.166
64654W        W24091  35.941  40.388  13.942
64655W        W24092  44.793  43.984   2.189
64656W        W24093  15.684  11.145  14.434
64657W        W24094  16.568  13.115   1.367
64658W        W24095  36.894  22.182  11.921
64659W        W24096  43.433  21.113   1.285
64660W        W24097   3.846   3.755  13.458
64661W        W24098  27.620  22.736  13.409
64662W        W24099  34.080  40.005   5.089
64663W        W24100  38.424   5.226   2.223
64664W        W24101  30.576  42.325   1.444
64665W        W24102   1.478  44.846   4.676
64666W        W24103  15.239  37.409   4.131
64667W        W24104  19.771  38.501  13.902
64668W        W24105  19.620  37.898  13.535
64669W        W24106  37.551   0.871  11.891
64670W        W24107  16.633   4.870  12.551
64671W        W24108   1.293  16.746   3.808
64672W        W24109  21.573  29.112  14.837
64673W        W24110   1.427   5.383   0.865
64674W        W24111  27.675  14.667   4.652
64675W        W24112  35.580  33.958   4.776
64676W        W24113  15.143  42.015   1.761
64677W        W24114   6.820  41.925   4.309
64678W        W24115   3.739  37.462  14.787
64679W        W24116   1.358  11.833  14.499
64680W        W24117  34.489  22.521  13.431
64681W        W24118  24.600   3.257   3.712
64682W        W24119  40.322  14.196   3.810
64683W        W24120  39.331  44.327   3.796
64684W        W24121  29.624   1.911   0.263
64685W        W24122   2.232  19.561  14.438
64686W        W24123   9.680  33.467  10.141
64687W        W24124   8.160  39.899   1.236
64688W        W24125  10.798  38.040   1.320
64689W        W24126  19.103  15.652  11.429
64690W        W24127   8.876  28.104   9.565
64691W        W24128  18.104  31.590   4.314
64692W        W24129  36.355  13.601   4.183
64693W        W24130  23.581  22.613  11.867
64694W        W24131  23.570  16.187   1.267
64695W        W24132  43.308  41.356   1.266
64696W        W24133  16.198  43.463  10.922
64697W        W24134  37.908  12.336   2.715
64698W        W24135  37.543   3.277   1.433
64699W        W24136  18.695  14.729  14.298
64700W        W24137  26.062  36.394   1.821
64701W        W24138   1.972  44.838  13.061
64702W        W24139  34.065  35.911  10.439
64703W        W24140   6.897  38.327  10.918
64704W        W24141  29.555   1.925  11.907
64705W        W24142  30.652  12.251  13.460
64706W        W24143   8.739  16.675   4.276
64707W        W24144  42.869   4.380  10.638
64708W        W24145  34.906  44.943  11.604
64709W        W24146  42.461  21.739  13.513
64710W        W24147  30.558  16.288   1.771
64711W        W24148  42.031  31.036   2.401
64712W        W24149  23.055   4.771  13.843
64713W        W24150  28.488   0.860   0.754
64714W        W24151  17.131  39.403  11.874
64715W        W24152   8.767  17.704  13.444
64716W        W24153  25.115  27.952  11.933
64717W        W24154  26.617  25.661   3.305
64718W        W24155  28.061  39.017  11.488
64719W        W24156  39.902  38.527   1.795
64720W        W24157   8.316  33.384   4.753
64721W        W24158  24.027  31.966   4.639
64722W        W24159   4.915  19.244   2.799
64723W        W24160  44.491  21.019   1.378
64724W        W24161  33.032   9.382   0.851
64725W        W24162  29.996  34.572   2.735
64726W        W24163  34.094  38.974  12.962
64727W        W24164  35.998   0.969  12.375
64728W        W24165  26.996  20.743  12.007
64729W        W24166   0.863  40.935  12.489
64730W        W24167  43.294   7.764   0.755
64731W        W24168  41.340  20.078  14.902
64732W        W24169  24.605  41.344  14.295
64733W        W24170  35.502  42.820  10.933
64734W        W24171  31.991  33.484  14.452
64735W        W24172  29.535  36.097   9.972
64736W        W24173  41.991  17.241   0.842
64737W        W24174  10.272  20.115   1.893
64738W        W24175  33.130  43.406   1.801
64739W        W24176   7.292  36.846   0.739
64740W        W24177  17.139  17.750   0.275
64741W        W24178   7.734  25.498  11.073
64742W        W24179  31.900  32.525  10.612
64743W        W24180  38.907   2.720   2.830
64744W        W24181  28.648  37.435   2.750
64745W        W24182  13.808   6.851   1.873
64746W        W24183  43.846  35.087   1.801
64747W        W24184   5.785  22.563  12.470
64748W        W24185   1.825   5.695  12.093
64749W        W24186  27.632  39.924  12.525
64750W        W24187  39.435  37.879   1.775
64751W        W24188  39.508  36.434   2.809
64752W        W24189  43.860  23.044  11.532
64753W        W24190   3.360  24.564   3.637
64754W        W24191  34.374  11.808  12.091
64755W        W24192  43.935  26.481   4.836
64756W        W24193  32.490   9.386  10.907
64757W        W24194  23.062   2.248   0.435
64758W        W24195  39.519  28.152  10.994
64759W        W24196   0.475   2.357  13.421
64760W        W24197  37.555   4.835   0.753
64761W        W24198  24.113  42.351   1.778
64762W        W24199  29.526  12.842  13.395
64763W        W24200  12.213   7.911  11.077
64764W        W24201  28.082  18.126  11.002
64765W        W24202  15.752  33.605   1.719
64766W        W24203   3.928  10.675   0.953
64767W        W24204  38.335  14.142  14.876
64768W        W24205  39.818  17.561  12.444
64769W        W24206  33.443  16.268   3.379
64770W        W24207  41.835  12.253   0.839
64771W        W24208  37.971  38.505  14.429
64772W        W24209   0.260  16.269  12.852
64773W        W24210  18.186  31.540  13.524
64774W        W24211  43.818  13.303   0.747
64775W        W24212  16.639   0.989   0.298
64776W        W24213   8.823   2.724   0.364
64777W        W24214   6.242  36.921   4.157
64778W        W24215  39.832  39.041  12.916
64779W        W24216  11.861   0.895  11.112
64780W        W24217   1.901  22.040   2.362
64781W        W24218  15.317  22.095   2.256
64782W        W24219   1.377   7.698   3.639
64783W        W24220  24.983  14.181   5.211
64784W        W24221  26.165  26.561  11.952
64785W        W24222   8.396  16.700   0.880
64786W        W24223   4.278  25.566   0.840
64787W        W24224  44.339  14.740   0.916
64788W        W24225  11.237  28.533   0.313
64789W        W24226  38.427  44.274  11.083
64790W        W24227  11.269  43.464  14.940
64791W        W24228   2.259  27.561  10.504
64792W        W24229  31.066  13.349  10.562
64793W        W24230  23.151  33.532   4.257
64794W        W24231  40.320  30.599   3.217
64795W        W24232  16.172  35.896   0.812
64796W        W24233  29.153  42.912   4.761
64797W        W24234  34.571   0.975  12.362
64798W        W24235  28.549  30.548   4.320
64799W        W24236  32.443  17.229  12.879
64800W        W24237  26.623  13.324   0.820
64801W        W24238  23.141  34.033   3.684
64802W        W24239  10.202   9.270   3.342
64803W        W24240  43.285  21.734  10.517
64804W        W24241  38.956  11.701  10.505
64805W        W24242  20.201  15.087   4.750
64806W        W24243  34.448  37.869   5.147
64807W        W24244  12.176  39.977  10.471
64808W        W24245  17.686   5.814   0.409
64809W        W24246   1.790   2.721  12.882
64810W        W24247  13.618  29.137   3.722
64811W        W24248  28.988  18.180   0.856
64812W        W24249  24.531  39.002   2.339
64813W        W24250   3.710  17.687  11.011
64814W        W24251  40.807   0.782  10.545
64815W        W24252   4.346  38.421   2.713
64816W        W24253  20.107   6.404  14.029
64817W        W24254  25.156  41.968   5.194
64818W        W24255  36.384  26.184  12.921
64819W        W24256  27.633  44.862  13.308
64820W        W24257  30.034  14.199   0.464
64821W        W24258  39.838  30.535  11.052
64822W        W24259  41.900  44.413   5.132
64823W        W24260  17.776  43.315   1.821
64824W        W24261   7.301  25.597  10.535
64825W        W24262  40.519  11.256   1.396
64826W        W24263   7.379  26.994  13.894
64827W        W24264  25.689  22.665  12.047
64828W        W24265   2.782  24.141  12.863
64829W        W24266  10.815  42.978  14.365
64830W        W24267  38.437  34.435  12.852
64831W        W24268   0.420  14.113   3.247
64832W        W24269   8.275  27.198   1.747
64833W        W24270  36.016   9.730  11.014
64834W        W24271   6.397  24.672   3.166
64835W        W24272  25.508   3.434   0.406
64836W        W24273  33.091  40.485   2.215
64837W        W24274  20.228  41.995  12.407
64838W        W24275  22.517  19.111   4.330
64839W        W24276  41.302  21.622  13.370
64840W        W24277  14.168  16.170   4.202
64841W        W24278   0.824  11.638   1.866
64842W        W24279  40.884  12.837  11.965
64843W        W24280  14.340  10.767   3.762
64844W        W24281  10.795  35.087  14.305
64845W        W24282  42.331  31.523   2.359
64846W        W24283  43.862  27.103  11.529
64847W        W24284  22.747  25.681   1.227
64848W        W24285  42.457   6.839   4.817
64849W        W24286  33.526  37.967  10.989
64850W        W24287   0.863  22.604  12.468
64851W        W24288  24.596  38.468   3.194
64852W        W24289  43.930  33.477   1.763
64853W        W24290   4.385   0.465   4.779
64854W        W24291   1.337  44.477   1.854
64855W        W24292  33.549  34.465   3.786
64856W        W24293  29.092  39.055   4.708
64857W        W24294  16.133  33.043  14.302
64858W        W24295  31.024  13.221   0.434
64859W        W24296  18.108  27.573  13.469
64860W        W24297  41.000  14.694  13.794
64861W        W24298  22.529  38.052  12.428
64862W        W24299  36.577  23.128  12.041
64863W        W24300   3.321  18.600   0.875
64864W        W24301  20.211   9.850   3.660
64865W        W24302  13.754  27.986  13.910
64866W        W24303  36.863  35.051  13.488
64867W        W24304  37.899  34.075   4.164
64868W        W24305   4.302  33.487   3.727
64869W        W24306   1.366  32.122   0.947
64870W        W24307  42.421  23.663  13.854
64871W        W24308  23.157  17.294   0.880
64872W        W24309   9.356  14.737  12.397
64873W        W24310   0.394  32.429  11.562
64874W        W24311  29.133  38.914   0.463
64875W        W24312  24.575  10.181  12.843
64876W        W24313  36.523  23.008  10.936
64877W        W24314   0.945   4.794   3.346
64878W        W24315   4.320  19.776  12.079
64879W        W24316   0.468  27.487  11.528
64880W        W24317  38.481  14.732  13.365
64881W        W24318  38.362   6.711  12.078
64882W        W24319  44.848   0.887   0.252
64883W        W24320  42.885  37.522   2.730
64884W        W24321  18.629   4.255  12.400
64885W        W24322  17.781  30.470  13.359
64886W        W24323   4.402  42.803  14.287
64887W        W24324  44.817   7.278  12.844
64888W        W24325  27.015  30.075  13.534
64889W        W24326  14.590   9.835  10.530
64890W        W24327  44.367   5.404   0.379
64891W        W24328  38.557  40.883  12.871
64892W        W24329   9.179  15.134  12.565
64893W        W24330  14.136  36.084  12.875
64894W        W24331  18.595  12.155  13.384
64895W        W24332   6.279  16.662   4.643
64896W        W24333  10.634  27.535  12.066
64897W        W24334  34.579  40.371   5.633
64898W        W24335  12.845   9.798   0.847
64899W        W24336  25.534  19.742  14.369
64900W        W24337  16.583   3.265  14.353
64901W        W24338  21.199  19.542   2.356
64902W        W24339  28.548   3.852   2.766
64903W        W24340  19.058  35.105   3.801
64904W        W24341  34.950  35.070  12.015
64905W        W24342   7.262  24.654   0.274
64906W        W24343   0.854  39.343   0.822
64907W        W24344   5.823   3.845   3.733
64908W        W24345  11.863  27.530   2.823
64909W        W24346   2.352  17.305   3.189
64910W        W24347  40.310  12.642  13.013
64911W        W24348  27.523  15.816  13.368
64912W        W24349  25.064  19.099  14.447
64913W        W24350  44.953  36.522  12.832
64914W        W24351  33.022  24.088   4.717
64915W        W24352   5.732  42.499  11.988
64916W        W24353   9.173  22.204   2.327
64917W        W24354  25.012   0.971   5.211
64918W        W24355  23.644  30.582  13.922
64919W        W24356  38.074  15.766  13.397
64920W        W24357  44.873  22.018  11.581
64921W        W24358  21.684  35.909   4.786
64922W        W24359  24.018  25.989   4.720
64923W        W24360   6.789  40.860   4.600
64924W        W24361  32.452  44.407  11.428
64925W        W24362  18.781   8.887  13.835
64926W        W24363  44.894   4.443  12.384
64927W        W24364  42.407  27.477   1.351
64928W        W24365  40.030  27.052  13.371
64929W        W24366  26.032  14.742   4.611
64930W        W24367   3.877  18.178  10.619
64931W        W24368  30.652   1.364  14.470
64932W        W24369  39.533   6.224   2.861
64933W        W24370   0.331  42.799  11.082
64934W        W24371   3.815  38.948   9.966
64935W        W24372  11.637  30.440   5.113
64936W        W24373  20.589  43.385  12.406
64937W        W24374   3.431   2.887  10.463
64938W        W24375   5.752  23.149   1.313
64939W        W24376  44.398   1.408   0.413
64940W        W24377  32.089  16.576   4.611
64941W        W24378  44.948  37.515  13.477
64942W        W24379   8.254   9.266  12.525
64943W        W24380   1.452  29.471   3.798
64944W        W24381  32.518  24.004   5.128
64945W        W24382  30.605  41.915  12.847
64946W        W24383  23.545  17.223   3.270
64947W        W24384  31.041  32.007   4.617
64948W        W24385  39.849  29.578  12.354
64949W        W24386  13.731  33.052  11.083
64950W        W24387   8.774  28.546   4.727
64951W        W24388  32.086  15.609   0.865
64952W        W24389  17.134  34.609   3.825
64953W        W24390  26.077  14.278  10.947
64954W        W24391  43.771  30.655  10.560
64955W        W24392   1.441  36.997   1.754
64956W        W24393  41.300  25.636  13.421
64957W        W24394  19.209  13.765  12.000
64958W        W24395  32.636  10.213  14.915
64959W        W24396  21.703  32.606  12.985
64960W        W24397  10.860  24.981   1.358
64961W        W24398  28.048  18.578   3.771
64962W        W24399   8.265   2.338   0.955
64963W        W24400  36.572   7.308  14.931
64964W        W24401   2.461  34.375  13.500
64965W        W24402  25.600  38.344   2.769
64966W        W24403  40.436  38.326   2.863
64967W        W24404   5.870  31.504  14.824
64968W        W24405  23.110  15.161   3.664
64969W        W24406  11.176   9.202   2.397
64970W        W24407   6.289  36.906  12.028
64971W        W24408  12.179  30.653  14.908
64972W        W24409  24.557  13.650  14.815
64973W        W24410  19.708   3.738  14.358
64974W        W24411  31.640   5.394  14.361
64975W        W24412  27.450  25.551  13.934
64976W        W24413  15.771  34.610  12.857
64977W        W24414  43.815   7.758   1.725
64978W        W24415   1.809   7.217  11.924
64979W        W24416   7.731  35.575  14.790
64980W        W24417  27.172  29.021   1.288
64981W        W24418  26.107  37.464   1.341
64982W        W24419   8.352  40.383   2.350
64983W        W24420  38.990  18.619   4.299
64984W        W24421  37.553  37.962   1.730
64985W        W24422  20.058  39.394  10.018
64986W        W24423  20.059  39.978   1.337
64987W        W24424  13.710   6.286  11.918
64988W        W24425  20.662   2.241  13.426
64989W        W24426  21.700  37.051  13.043
64990W        W24427   9.223  33.079   2.382
64991W        W24428  26.082  14.674   3.360
64992W        W24429  18.603  38.981  10.453
64993W        W24430  14.190  13.265   1.313
64994W        W24431  21.118  40.519   1.410
64995W        W24432  20.659   8.675  12.488
64996W        W24433  28.105  39.058  12.998
64997W        W24434  27.603  44.321  13.018
64998W        W24435  13.341  30.478  10.150
64999W        W24436  35.363  40.803  14.358
65000W        W24437   3.923  31.130  14.418
65001W        W24438  21.552   1.406   4.287
65002W        W24439  19.722  40.984  13.844
65003W        W24440  27.020  17.593   4.169
65004W        W24441   9.359   2.722  13.864
65005W        W24442   9.778  15.234  14.466
65006W        W24443  22.135  16.724   3.384
65007W        W24444  23.110  37.893   2.284
65008W        W24445  10.723  28.462   4.736
65009W        W24446   3.954  23.082   2.860
65010W        W24447  29.502   7.304  11.437
65011W        W24448  37.020  41.330  11.411
65012W        W24449  40.823  16.311   3.196
65013W        W24450  26.198  44.463  12.425
65014W        W24451   1.934   8.846   5.158
65015W        W24452  30.533  41.883   1.866
65016W        W24453   0.819  39.822  11.893
65017W        W24454  11.658  29.571   0.954
65018W        W24455  31.132   3.288   0.430
65019W        W24456   0.394  24.160  14.002
65020W        W24457   3.848   5.929  12.566
65021W        W24458   9.703   1.872   4.676
65022W        W24459  19.615   1.868  14.495
65023W        W24460  23.654  36.583   3.720
65024W        W24461   3.819   9.193   0.317
65025W        W24462  12.237  32.949   0.835
65026W        W24463  30.038  42.033  11.392
65027W        W24464  18.177  32.015  12.475
65028W        W24465  19.601  10.155   2.704
65029W        W24466  40.824  30.126   2.215
65030W        W24467  14.166  32.920  14.484
65031W        W24468   9.348  33.546  14.349
65032W        W24469  16.242  37.060  10.887
65033W        W24470  35.110  30.539  10.519
65034W        W24471  37.500  24.159   0.754
65035W        W24472   2.405  21.068  14.855
65036W        W24473  27.063  44.384   0.784
65037W        W24474  40.438  11.835  14.977
65038W        W24475  19.706  44.498  14.966
65039W        W24476  44.286  13.745  13.467
65040W        W24477  41.871  38.843   0.875
65041W        W24478  43.324  19.582  11.917
65042W        W24479  42.814   2.329  14.939
65043W        W24480  15.692  23.636  14.335
65044W        W24481  12.745  35.101  14.870
65045W        W24482  38.504  24.496   3.744
65046W        W24483  14.133  29.461  10.949
65047W        W24484   5.888   2.292  10.477
65048W        W24485  26.188   2.793  12.433
65049W        W24486  13.811   5.236   4.825
65050W        W24487  38.379  38.457   1.289
65051W        W24488   2.907  19.049   3.712
65052W        W24489  17.121  43.318  13.920
65053W        W24490   0.405  30.104  13.543
65054W        W24491  40.904  22.729   1.344
65055W        W24492  33.457  30.605   4.759
65056W        W24493  29.590  44.269  14.778
65057W        W24494  23.721  32.933  13.866
65058W        W24495  10.220   1.826  11.978
65059W        W24496  23.036   2.931  10.936
65060W        W24497  11.724  36.974  12.364
65061W        W24498   1.806   0.362  14.335
65062W        W24499  40.454  29.045  12.579
65063W        W24500  39.047  22.220   1.436
65064W        W24501   8.694  32.984  10.471
65065W        W24502  33.548  24.700  13.506
65066W        W24503  16.714  43.827   2.723
65067W        W24504   5.334  44.314   4.116
65068W        W24505  38.926  31.443  14.297
65069W        W24506  17.128   7.773  13.866
65070W        W24507  13.152  25.606  11.078
65071W        W24508  44.950  19.157  14.382
65072W        W24509  14.638   7.410  13.976
65073W        W24510   2.361  22.518  12.849
65074W        W24511  42.949  23.692  12.493
65075W        W24512   2.331  11.669  11.914
65076W        W24513  27.692  23.079  10.537
65077W        W24514  22.204  21.028   1.419
65078W        W24515   7.323   0.814   0.767
65079W        W24516  14.683  12.849   9.931
65080W        W24517  28.626  38.497   3.771
65081W        W24518  44.839  25.122  14.283
65082W        W24519  34.439  24.520  11.453
65083W        W24520  12.282  14.824  13.031
65084W        W24521  18.173   0.819  11.968
65085W        W24522  44.806  41.837  11.948
65086W        W24523  21.039  25.557   1.851
65087W        W24524  19.232  14.592  12.349
65088W        W24525  12.705  14.288  11.388
65089W        W24526  30.593  14.776  13.439
65090W        W24527  40.382  41.926  13.867
65091W        W24528   1.739  36.402   1.780
65092W        W24529  31.515   4.874  11.904
65093W        W24530  27.131  23.685   2.392
65094W        W24531  27.587  21.618  11.574
65095W        W24532   9.649  43.374  13.375
65096W        W24533  12.286  11.784  13.034
65097W        W24534  27.583  14.267  12.392
65098W        W24535  34.459  41.488  14.465
65099W        W24536  43.403  10.699  11.006
65100W        W24537  20.629  17.226  11.075
65101W        W24538  20.086  23.109  10.557
65102W        W24539   5.390  38.877   1.733
65103W        W24540  36.570  31.616  14.501
65104W        W24541  22.080  28.479   1.750
65105W        W24542  37.431  31.147   5.296
65106W        W24543  23.208  24.221   9.487
65107W        W24544  36.938  13.827  11.373
65108W        W24545   1.428  12.148  11.910
65109W        W24546  27.675  10.266   4.214
65110W        W24547   6.339  38.392  10.495
65111W        W24548  33.517  25.080   2.723
65112W        W24549  42.480  25.488   3.205
65113W        W24550  25.601  16.744   0.814
65114W        W24551  25.112   9.357   1.782
65115W        W24552  20.730   6.918  12.517
65116W        W24553   5.699  25.023  13.531
65117W        W24554  10.333  35.874   1.433
65118W        W24555  21.586  42.876  14.794
65119W        W24556   3.364  29.989   4.301
65120W        W24557   4.238  24.635  11.399
65121W        W24558  42.490  37.946  10.948
65122W        W24559   1.288  35.488  13.428
65123W        W24560  26.538  21.727   4.145
65124W        W24561  33.401  41.001   4.630
65125W        W24562  19.552  35.990   2.737
65126W        W24563  31.620  12.175  12.406
65127W        W24564   8.722   4.280   2.768
65128W        W24565   7.242  25.214   3.285
65129W        W24566   1.309  28.474  11.425
65130W        W24567  16.133  22.027  12.390
65131W        W24568   3.229   1.267  14.297
65132W        W24569   0.376  13.718  12.356
65133W        W24570   7.306   1.369   3.314
65134W        W24571  29.525  22.130   4.296
65135W        W24572  37.943  23.131  12.523
65136W        W24573  19.281  43.299   4.169
65137W        W24574   9.645  39.963  14.448
65138W        W24575  14.247  39.894  11.918
65139W        W24576  41.464  19.267  13.314
65140W        W24577  26.574   6.347  10.957
65141W        W24578   0.839  10.721  12.368
65142W        W24579  29.462  38.336   2.190
65143W        W24580  25.689  18.290  14.316
65144W        W24581  42.929  44.378   4.665
65145W        W24582  37.013  15.754   1.711
65146W        W24583  12.702   4.235   0.366
65147W        W24584   5.316   0.871   4.617
65148W        W24585   9.749  40.521  13.375
65149W        W24586  34.541  30.568  11.116
65150W        W24587  20.139   0.353  10.897
65151W        W24588  43.823  35.963  12.390
65152W        W24589  21.211  43.334   3.302
65153W        W24590  31.599  35.485  11.583
65154W        W24591  25.160   8.163  10.148
65155W        W24592  33.896  11.170  10.615
65156W        W24593  20.654  37.518  13.422
65157W        W24594  38.026  23.140  11.866
65158W        W24595   7.279  32.591   0.938
65159W        W24596  17.749  42.831  13.472
65160W        W24597   6.417   7.248   2.402
65161W        W24598  21.259   9.307  12.559
65162W        W24599  15.671  30.137   0.902
65163W        W24600  36.562  29.167  12.983
65164W        W24601  19.100  22.551  12.565
65165W        W24602  37.069   8.248  10.429
65166W        W24603  41.812  20.525   4.671
65167W        W24604  24.532  24.161  12.086
65168W        W24605  19.205  27.167  13.344
65169W        W24606  14.282  31.485   4.343
65170W        W24607   4.762  30.022  10.013
65171W        W24608  14.817  23.518   1.818
65172W        W24609  26.577  34.548  14.015
65173W        W24610  42.997   2.447   2.416
65174W        W24611  20.028   5.202  13.881
65175W        W24612  29.065   2.226  14.847
65176W        W24613  22.216  41.487   3.339
65177W        W24614   5.747  35.461  14.846
65178W        W24615   3.721   9.712  14.941
65179W        W24616  21.043   3.350   0.956
65180W        W24617  17.122   0.871  11.536
65181W        W24618  20.192  44.405  11.906
65182W        W24619  17.072  42.502   4.600
65183W        W24620  24.487   6.278  14.373
65184W        W24621  35.567  30.596  10.933
65185W        W24622   7.689  24.116  14.423
65186W        W24623  44.455  36.038   3.708
65187W        W24624  23.494  19.122  12.451
65188W        W24625  40.963  20.123   1.330
65189W        W24626  38.963  36.064  12.477
65190W        W24627   4.320  29.920   2.221
65191W        W24628  13.332  10.846   2.697
65192W        W24629  34.485  33.456   1.858
65193W        W24630   5.193   6.778   2.398
65194W        W24631  17.685  23.189   1.249
65195W        W24632   2.374   8.718   3.758
65196W        W24633   9.381  28.116  12.874
65197W        W24634  17.230  38.494   1.803
65198W        W24635  15.727  13.802   1.934
65199W        W24636  44.770  33.886   9.487
65200W        W24637  19.097  18.635   5.110
65201W        W24638  17.599  28.629   4.274
65202W        W24639   9.371   9.769   1.786
65203W        W24640  27.155  25.128  13.363
65204W        W24641  32.555  38.445  13.004
65205W        W24642  31.991  38.369  12.842
65206W        W24643   2.376  16.646  11.382
65207W        W24644  27.608  39.905  11.564
65208W        W24645  14.760  19.670   1.881
65209W        W24646   9.372  13.304  11.859
65210W        W24647  11.810  41.938  10.489
65211W        W24648  40.938  34.408   3.844
65212W        W24649  33.039  24.006   0.451
65213W        W24650  32.003   6.751   2.211
65214W        W24651  11.645  20.722  11.925
65215W        W24652  14.668  28.502  13.493
65216W        W24653  42.996  40.454  14.442
65217W        W24654  41.924  33.882  13.424
65218W        W24655  28.134   0.802  10.491
65219W        W24656  44.887   0.449  13.414
65220W        W24657  21.091   8.272  11.442
65221W        W24658  31.898  13.679  10.644
65222W        W24659  43.382  16.578   3.827
65223W        W24660  19.183  13.613   4.169
65224W        W24661   0.769   9.645  13.879
65225W        W24662  36.392  38.553   4.242
65226W        W24663  21.682  30.925   0.861
65227W        W24664  20.224  23.599   3.163
65228W        W24665  39.837  44.878  12.363
65229W        W24666  11.825  16.705  11.893
65230W        W24667  40.353   3.759  11.033
65231W        W24668  15.307  31.945  12.973
65232W        W24669  18.731  18.124  11.869
65233W        W24670  23.233   0.880   0.820
65234W        W24671  27.458  35.919   1.430
65235W        W24672  20.625   7.307   1.277
65236W        W24673  41.309  41.475   2.295
65237W        W24674  30.932  32.022  10.475
65238W        W24675  41.029  25.594   1.212
65239W        W24676  21.596   7.325  11.538
65240W        W24677  44.480  38.961   5.208
65241W        W24678  16.170  26.013   1.450
65242W        W24679   9.844  13.108   3.348
65243W        W24680  16.126   0.986  12.006
65244W        W24681  16.762  22.700   2.274
65245W        W24682  42.408   2.761   1.717
65246W        W24683   3.222   0.430  13.960
65247W        W24684   9.811  24.512  12.473
65248W        W24685  42.492  29.611  14.347
65249W        W24686  31.028   0.845   0.802
65250W        W24687   7.263  39.904   2.852
65251W        W24688  11.726  12.743   1.379
65252W        W24689   2.420  26.142  10.080
65253W        W24690  39.328  29.058   1.310
65254W        W24691  25.683  44.266   4.173
65255W        W24692   0.489  15.123   0.377
65256W        W24693  15.188  12.817  10.630
65257W        W24694  30.574  26.019   0.474
65258W        W24695  17.729  15.300   3.232
65259W        W24696  34.542   8.844   4.318
65260W        W24697  13.304  20.031   4.661
65261W        W24698  19.140  37.076  14.004
65262W        W24699  38.962  33.966  13.441
65263W        W24700   1.301   3.846   3.315
65264W        W24701  44.330  42.440  12.367
65265W        W24702  35.364  43.323   1.411
65266W        W24703  11.780  32.986   0.314
65267W        W24704  24.503  16.773   0.858
65268W        W24705  41.302   0.401   0.375
65269W        W24706  15.579  38.869  11.994
65270W        W24707  41.510  26.997  12.376
65271W        W24708  35.481   3.394  12.480
65272W        W24709  31.446  28.936   2.739
65273W        W24710  24.186  35.402  11.432
65274W        W24711  22.176  26.027   9.647
65275W        W24712  35.527   1.456  13.001
65276W        W24713   0.434   2.765  10.976
65277W        W24714  38.968  31.942  11.501
65278W        W24715  35.969  10.734   1.753
65279W        W24716   9.282  42.324  10.621
65280W        W24717  44.009  14.754  13.863
65281W        W24718  32.120  27.531   3.191
65282W        W24719   1.824  34.545   1.297
65283W        W24720  15.228  37.863  14.810
65284W        W24721  16.756   4.747  13.848
65285W        W24722  30.028  30.932  12.556
65286W        W24723   2.470   4.858  10.925
65287W        W24724  43.477   2.944   3.285
65288W        W24725  10.765  40.809   3.260
65289W        W24726  15.661  23.491   1.217
65290W        W24727   5.697  24.664  14.513
65291W        W24728  16.743  43.850  13.423
65292W        W24729  28.004  12.684  10.897
65293W        W24730  22.160   9.186   4.739
65294W        W24731   5.295  11.703   1.773
65295W        W24732  16.727  15.327   2.744
65296W        W24733  28.116   6.201  14.024
65297W        W24734   0.967  18.741  14.458
65298W        W24735  43.308  16.746   2.743
65299W        W24736  35.028   2.369  13.883
65300W        W24737  30.008  41.831   2.819
65301W        W24738  12.781  23.030   4.346
65302W        W24739  42.803  17.792  10.919
65303W        W24740  34.587  20.082  12.995
65304W        W24741  16.618  34.586  13.446
65305W        W24742  16.665   5.216  14.505
65306W        W24743  21.713  12.645   3.748
65307W        W24744  36.061   6.838   3.209
65308W        W24745  38.444  33.995  14.957
65309W        W24746  35.939   5.336  14.416
65310W        W24747  32.456  17.760   0.279
65311W        W24748  35.526  44.295   4.603
65312W        W24749  31.594  41.493   0.310
65313W        W24750  17.256  16.663   0.817
65314W        W24751  10.206  16.142  13.365
65315W        W24752  28.447  21.514  12.013
65316W        W24753   7.841  19.250  11.608
65317W        W24754   0.335  21.082  10.573
65318W        W24755  19.642  35.971  14.007
65319W        W24756   7.692  14.103  13.503
65320W        W24757  40.890  44.266   0.822
65321W        W24758  34.392  32.928   4.152
65322W        W24759  38.460  37.504  11.444
65323W        W24760   4.228  22.230   0.254
65324W        W24761   5.708  23.603   4.751
65325W        W24762  12.278  33.411  12.924
65326W        W24763   5.373  17.092  10.480
65327W        W24764   3.384  39.499  11.987
65328W        W24765  14.318  18.242   4.714
65329W        W24766  19.751  20.685   1.245
65330W        W24767  18.174  34.516  11.038
65331W        W24768  30.095   0.460  13.365
65332W        W24769  23.225   8.876   3.232
65333W        W24770  19.216   9.720  11.610
65334W        W24771   8.322   5.351  10.543
65335W        W24772   4.436   5.419  13.890
65336W        W24773  15.654  43.429  12.436
65337W        W24774  18.557  30.583   3.848
65338W        W24775  37.002  37.893   1.358
65339W        W24776  38.394  26.596  12.015
65340W        W24777  12.784   7.817   3.341
65341W        W24778  27.122  21.631  14.468
65342W        W24779  33.911  21.620   1.306
65343W        W24780   6.817  32.417   4.291
65344W        W24781  14.255  44.920  14.996
65345W        W24782   8.791  33.431  10.462
65346W        W24783  32.427  43.353   2.320
65347W        W24784  13.697  11.831  13.367
65348W        W24785  14.163  29.101   0.337
65349W        W24786  37.953   1.405   1.321
65350W        W24787   0.320  28.031   3.650
65351W        W24788  26.194   2.444   2.408
65352W        W24789  15.707  30.606  14.450
65353W        W24790  29.572   5.238  11.883
65354W        W24791  35.918   1.297   2.361
65355W        W24792   3.735   0.456  11.445
65356W        W24793  30.086  44.848   2.248
65357W        W24794  31.541   7.404   1.378
65358W        W24795  37.848  23.734   2.848
65359W        W24796  35.069  27.465   3.252
65360W        W24797  24.180   0.908   4.212
65361W        W24798   8.763  19.108   2.776
65362W        W24799  30.528  40.874   9.958
65363W        W24800   8.719  31.438   2.243
65364W        W24801  11.344  18.689  14.846
65365W        W24802  38.974  15.625   0.813
65366W        W24803  27.585  33.969   4.314
65367W        W24804  37.857  43.844  12.958
65368W        W24805   6.398  32.575  11.124
65369W        W24806   5.889  24.548  10.415
65370W        W24807  42.340  18.177  13.044
65371W        W24808  37.907  30.455   3.245
65372W        W24809   9.776  28.002   2.727
65373W        W24810  17.726  35.376  13.330
65374W        W24811   8.292  36.570  12.524
65375W        W24812  43.906  34.416  10.971
65376W        W24813  12.226  14.696  10.621
65377W        W24814  35.405  14.639  14.487
65378W        W24815   4.907  17.610   1.824
65379W        W24816   8.388  44.401   4.208
65380W        W24817  24.170  24.205  12.071
65381W        W24818  33.543   9.787   1.270
65382W        W24819  11.363  25.513  11.416
65383W        W24820  42.341  36.024  10.464
65384W        W24821  10.706  10.773  11.971
65385W        W24822  44.942   9.851  11.552
65386W        W24823  18.553  14.815   0.457
65387W        W24824   9.758  25.208   0.378
65388W        W24825  36.951  41.346   4.117
65389W        W24826   3.439  37.077  10.589
65390W        W24827  26.461  21.624   1.278
65391W        W24828  30.110  44.975   4.751
65392W        W24829  15.233  42.375   0.325
65393W        W24830  24.501   3.431  12.975
65394W        W24831  27.552  26.066  10.495
65395W        W24832   7.223  29.528  10.921
65396W        W24833  13.674  37.872  12.055
65397W        W24834  37.956  22.559  11.502
65398W        W24835  20.056   6.261  12.401
65399W        W24836   2.359   1.358  14.971
65400W        W24837  10.765  23.012  13.495
65401W        W24838  32.117   8.180  11.454
65402W        W24839  25.198   8.690  11.538
65403W        W24840  20.051  41.503  13.905
65404W        W24841  42.796  26.143  12.422
65405W        W24842  39.930  17.280  11.377
65406W        W24843  15.669   5.217   4.604
65407W        W24844   3.219  44.777   4.113
65408W        W24845   7.882  12.760   3.315
65409W        W24846  41.883  24.677  12.480
65410W        W24847  15.804  37.582   5.178
65411W        W24848   3.272  12.338   0.807
65412W        W24849  15.767  24.501   4.210
65413W        W24850   9.336   3.792  14.448
65414W        W24851  38.470  42.874  11.532
65415W        W24852   9.861  20.150   3.759
65416W        W24853  42.454   8.741  11.442
65417W        W24854  21.092  25.116  13.053
65418W        W24855  13.840  13.684  10.630
65419W        W24856  12.641  26.599  10.509
65420W        W24857  36.357  14.774   2.278
65421W        W24858  11.270   5.361   3.771
65422W        W24859   4.927  27.455   2.320
65423W        W24860   9.794   6.683   1.833
65424W        W24861  13.150  37.385   2.823
65425W        W24862  24.691   3.317  14.447
65426W        W24863  14.253  37.081  13.928
65427W        W24864  25.613  41.873  10.588
65428W        W24865  12.315  44.933   1.835
65429W        W24866  23.686  25.638  11.535
65430W        W24867  40.806  41.814   0.942
65431W        W24868   4.248  10.817   1.890
65432W        W24869  36.394  28.180  13.360
65433W        W24870  27.954  22.142   4.614
65434W        W24871  34.388  26.107  12.512
65435W        W24872  30.646  44.320   4.272
65436W        W24873  36.046  15.802  10.098
65437W        W24874  29.057  37.990  13.838
65438W        W24875  11.690   6.703   1.279
65439W        W24876   3.757  26.061   3.265
65440W        W24877  22.110  16.696   4.268
65441W        W24878   8.878  24.655   0.268
65442W        W24879  19.624  25.216  13.417
65443W        W24880  40.504  23.065   4.744
65444W        W24881  29.109  13.120  13.501
65445W        W24882  12.756  39.492  12.947
65446W        W24883  38.331  34.080  12.096
65447W        W24884  31.033   2.415  13.816
65448W        W24885  30.421  36.539  10.578
65449W        W24886   8.260  39.053  10.028
65450W        W24887  35.376  20.117   4.173
65451W        W24888  43.358  40.335   3.245
65452W        W24889   1.860  40.328  12.512
65453W        W24890  15.671  37.950  11.050
65454W        W24891   7.241  23.108  13.055
65455W        W24892  23.701   8.788   0.764
65456W        W24893  26.118  44.798  13.513
65457W        W24894  28.044  20.168   0.381
65458W        W24895  21.757  14.602  11.916
65459W        W24896   4.877  19.193   1.392
65460W        W24897  25.053   6.822   4.330
65461W        W24898  38.484  35.477   3.860
65462W        W24899   2.423  13.795  12.896
65463W        W24900  19.063  15.594  14.486
65464W        W24901   6.906  41.035  10.583
65465W        W24902  19.581  33.900   1.805
65466W        W24903  10.682  23.561  13.947
65467W        W24904   7.387  31.585   3.685
65468W        W24905  20.142  26.976   0.746
65469W        W24906  20.629   4.924  11.519
65470W        W24907  12.234  40.436  10.568
65471W        W24908  12.292  18.216   1.716
65472W        W24909   0.787   2.428   2.829
65473W        W24910  30.114  25.118   2.760
65474W        W24911  19.090   6.419   1.273
65475W        W24912  12.116  29.929   3.712
65476W        W24913  43.459   6.844   0.374
65477W        W24914   2.256  11.834  10.476
65478W        W24915  19.722  36.884  12.891
65479W        W24916  25.111  42.799  11.092
65480W        W24917  12.616  32.937  12.016
65481W        W24918  32.494  44.841   0.742
65482W        W24919  41.424  13.330   1.749
65483W        W24920  22.096   7.178  14.983
65484W        W24921  12.675  31.909   5.187
65485W        W24922  24.064  25.034  10.957
65486W        W24923  43.395  32.602  12.372
65487W        W24924  40.383  33.920  12.380
65488W        W24925  18.588  34.606   4.187
65489W        W24926  24.498  37.027  14.837
65490W        W24927   2.261   5.361   2.418
65491W        W24928  27.971   4.911   3.736
65492W        W24929  13.292  37.948   1.753
65493W        W24930  17.564  19.220  12.424
65494W        W24931  34.481  33.565  12.490
65495W        W24932  21.719  16.812  11.389
65496W        W24933  31.057  16.175  13.541
65497W        W24934  35.927  31.106  13.350
65498W        W24935   3.276  31.461  14.988
65499W        W24936  37.453  38.819   5.144
65500W        W24937  41.814  26.698   3.212
65501W        W24938  30.497  44.981  12.837
65502W        W24939   1.803  28.099   3.323
65503W        W24940  23.515   1.841   4.806
65504W        W24941  41.826  21.059  12.400
65505W        W24942  29.487  42.878  10.926
65506W        W24943   7.326   0.797  14.927
65507W        W24944  12.742  10.634   1.730
65508W        W24945  13.207  24.123  13.925
65509W        W24946  34.408  23.215   3.826
65510W        W24947   3.353  16.112  12.356
65511W        W24948   2.436  21.211   3.217
65512W        W24949  17.694  26.561   1.364
65513W        W24950  10.653  12.315   1.861
65514W        W24951  36.080  34.996  12.030
65515W        W24952  36.895   8.380  11.502
65516W        W24953  25.621  41.870  14.479
65517W        W24954  19.609  41.029   0.889
65518W        W24955  34.534  36.425  12.941
65519W        W24956  40.945   5.870  12.435
65520W        W24957  23.716  34.880   0.836
65521W        W24958  44.328  40.011   1.364
65522W        W24959  44.927  43.974  13.973
65523W        W24960  41.937  13.771  11.070
65524W        W24961  34.571  21.588  12.078
65525W        W24962   2.422  41.924  14.353
65526W        W24963  32.587   9.878   4.126
65527W        W24964  15.585   4.804   0.425
65528W        W24965  18.562  27.956   4.241
65529W        W24966  14.658  23.060   0.893
65530W        W24967  24.226   1.423  13.023
65531W        W24968   5.726   4.447   1.926
65532W        W24969   4.734  38.037  11.111
65533W        W24970   8.837  38.328  10.984
65534W        W24971   7.716  11.659   1.404
65535W        W24972   6.192  15.772  10.496
65536W        W24973  15.248  33.898   3.758
65537W        W24974  30.465  16.294  13.446
65538W        W24975   4.235  12.123   4.753
65539W        W24976   8.669  24.567  10.143
65540W        W24977  33.037   2.833  13.487
65541W        W24978  34.997  21.631  10.959
65542W        W24979  44.479  31.456   2.334
65543W        W24980  35.866  43.484   1.803
65544W        W24981  40.853   4.258  13.393
65545W        W24982  21.106  29.981  14.945
65546W        W24983  18.553  37.067   3.787
65547W        W24984  31.987   5.795  13.467
65548W        W24985  33.543  26.583   1.422
65549W        W24986   3.444  43.853  11.507
65550W        W24987   6.676  33.457   3.800
65551W        W24988  16.750   1.423  14.277
65552W        W24989  16.734  40.355   2.808
65553W        W24990  21.726  10.298  10.410
65554W        W24991   4.269  34.110   2.866
65555W        W24992   1.929  37.470  14.982
65556W        W24993  17.218  44.311   4.730
65557W        W24994  38.863   4.397  14.467
65558W        W24995  14.821  14.133   0.452
65559W        W24996  38.991  21.081   5.282
65560W        W24997  31.406   7.874  14.980
65561W        W24998  10.736  38.046  14.333
65562W        W24999   4.829  21.143   2.710
65563W        W25000  25.052   5.737  14.842
65564W        W25001  23.228  27.558  13.519
65565W        W25002  20.132  19.102  10.642
65566W        W25003   0.292   8.661   1.745
65567W        W25004   7.678   2.879   4.185
65568W        W25005  23.636  26.602   0.255
65569W        W25006   9.850  13.244   3.693
65570W        W25007  25.539  39.505   3.282
65571W        W25008  36.976  27.449   4.313
65572W        W25009  13.779  10.810   3.280
65573W        W25010   4.307   5.785   1.822
65574W        W25011  21.263  12.215  11.964
65575W        W25012  42.500  14.666  13.478
65576W        W25013  15.752  17.218   5.248
65577W        W25014   0.866  44.006   0.915
65578W        W25015  11.215  39.542  13.350
65579W        W25016  26.520  29.630  10.466
65580W        W25017  26.021  39.402   0.288
65581W        W25018  26.016  21.557   0.827
65582W        W25019  32.949  40.382  10.053
65583W        W25020  22.618  22.668   2.331
65584W        W25021  15.697  39.005   3.189
65585W        W25022  26.106  15.318   4.289
65586W        W25023  23.227  37.897   3.638
65587W        W25024  19.257  40.835   4.670
65588W        W25025  38.540  21.115   1.854
65589W        W25026  41.023   1.971   3.739
65590W        W25027   4.361  32.990  11.499
65591W        W25028  37.384  42.332  11.127
65592W        W25029   8.351  16.629  13.859
65593W        W25030   6.841  33.884  11.523
65594W        W25031   1.416  11.788   4.657
65595W        W25032  31.902   4.772   2.333
65596W        W25033  34.458  24.530  10.495
65597W        W25034  39.341   5.336   2.694
65598W        W25035  25.155  22.102  11.597
65599W        W25036  33.388   3.306   2.235
65600W        W25037   3.905  19.558  10.130
65601W        W25038   7.327  14.777   1.398
65602W        W25039  24.614  26.693  11.516
65603W        W25040  29.605  21.736  13.850
65604W        W25041  37.020  12.653  12.385
65605W        W25042  31.141  43.829   3.714
65606W        W25043  14.186  12.851   1.369
65607W        W25044  11.336  35.874   3.797
65608W        W25045  11.164   7.340  10.591
65609W        W25046  11.248  25.064   4.702
65610W        W25047  31.520  12.202   2.770
65611W        W25048  29.946   2.841   3.649
65612W        W25049  31.561   6.743   3.376
65613W        W25050  16.804  17.174  11.911
65614W        W25051  26.095  44.985   1.806
65615W        W25052  43.387  42.849   2.407
65616W        W25053  38.061   9.332   3.253
65617W        W25054  11.230  33.073   0.254
65618W        W25055  30.497  31.085   4.686
65619W        W25056  21.553  40.042   3.280
65620W        W25057  29.530  29.162  10.941
65621W        W25058  22.226  42.328   4.187
65622W        W25059  15.691  44.933  12.841
65623W        W25060  36.474  27.597  14.918
65624W        W25061  34.987   9.843   0.435
65625W        W25062  31.932  38.925  13.868
65626W        W25063   3.751  23.505  10.474
65627W        W25064   9.743  29.014  13.983
65628W        W25065  20.567  43.925   3.718
65629W        W25066  33.918  26.576   1.734
65630W        W25067  27.076  28.011   0.427
65631W        W25068   0.298   3.804  13.354
65632W        W25069  22.250  32.500  14.799
65633W        W25070  18.736  41.494  14.976
65634W        W25071   1.872  11.712   1.805
65635W        W25072  19.056  40.436   3.783
65636W        W25073   1.901  20.260   3.204
65637W        W25074  24.552  31.910   1.847
65638W        W25075  13.716  10.307   0.759
65639W        W25076  44.957  32.918   2.381
65640W        W25077  40.370  42.831   1.819
65641W        W25078  14.279  10.814   4.349
65642W        W25079  29.047  24.063  12.559
65643W        W25080  39.404   9.729   0.367
65644W        W25081  31.509  43.013  13.043
65645W        W25082  13.676   7.743   0.964
65646W        W25083  20.708  23.664  12.457
65647W        W25084  19.262  31.553  11.926
65648W        W25085  38.478  41.468   2.380
65649W        W25086  13.258  33.525   4.334
65650W        W25087  21.042   5.271   4.789
65651W        W25088   1.294   4.235   0.253
65652W        W25089  33.923  31.523  14.951
65653W        W25090  36.873  32.598  11.450
65654W        W25091  37.444  27.985  10.971
65655W        W25092  14.108   3.303  14.293
65656W        W25093  37.518  12.837  12.053
65657W        W25094  42.377  19.285   2.665
65658W        W25095  37.407  28.567   3.247
65659W        W25096   5.778  16.108  14.006
65660W        W25097  35.872  31.607  12.395
65661W        W25098  33.974   7.833  10.444
65662W        W25099  36.378  25.179   5.202
65663W        W25100   4.345   3.407  14.501
65664W        W25101  11.744  31.570   1.225
65665W        W25102  24.722  38.010  12.946
65666W        W25103  12.732  20.624  14.987
65667W        W25104  43.911  16.080   2.342
65668W        W25105   1.366  34.044  10.120
65669W        W25106   4.715   5.324  13.346
65670W        W25107   7.785  28.675   2.368
65671W        W25108   5.708  29.429   4.191
65672W        W25109  13.178   6.268   0.901
65673W        W25110  41.862  33.881   2.728
65674W        W25111  37.499  11.285   2.790
65675W        W25112  27.051  10.637   2.697
65676W        W25113   1.742  21.727  10.583
65677W        W25114  28.059   8.376   1.238
65678W        W25115  38.828  15.323  11.017
65679W        W25116  11.850  30.506   3.199
65680W        W25117  23.033  19.244   4.599
65681W        W25118  10.237   2.311  10.533
65682W        W25119  26.111  12.234   1.832
65683W        W25120  15.299   2.781   4.682
65684W        W25121  16.126  17.568  11.395
65685W        W25122  38.472  33.011   3.708
65686W        W25123  35.417  15.257  14.405
65687W        W25124  16.280  38.468   5.320
65688W        W25125  16.307  26.961   0.357
65689W        W25126  40.323  14.688   2.361
65690W        W25127  23.558  26.701   2.254
65691W        W25128  39.333  43.807   4.162
65692W        W25129   3.347  21.218  12.016
65693W        W25130  27.582  23.230  11.083
65694W        W25131   8.831   5.865   4.184
65695W        W25132   0.952  12.134  12.844
65696W        W25133  25.133  44.799   3.650
65697W        W25134  22.594  12.138  11.122
65698W        W25135  10.213  43.343   4.160
65699W        W25136  13.193   2.911   1.730
65700W        W25137  11.349   7.205  11.468
65701W        W25138  29.451  41.866   0.364
65702W        W25139  25.586  30.441   1.784
65703W        W25140  35.924  41.433   2.902
65704W        W25141   5.783  14.313  11.487
65705W        W25142   9.253   4.355  11.542
65706W        W25143  36.347   3.868  12.412
65707W        W25144  15.584   1.267   1.749
65708W        W25145  32.030  36.900   2.785
65709W        W25146  31.603   1.968   0.806
65710W        W25147   9.305  29.944  12.511
65711W        W25148  15.807  38.383   1.335
65712W        W25149  25.636  12.716  13.049
65713W        W25150  11.766  29.466  14.283
65714W        W25151  17.161   3.268   3.705
65715W        W25152   2.406  29.155   2.845
65716W        W25153  13.298   3.805   1.253
65717W        W25154  28.563  37.532  14.777
65718W        W25155  11.290  29.123  11.454
65719W        W25156  32.916  11.648  13.402
65720W        W25157  28.001  26.098   4.661
65721W        W25158   0.324  34.118   0.297
65722W        W25159  34.540  14.795  11.993
65723W        W25160  43.514  21.033  10.046
65724W        W25161  16.771   6.683   4.789
65725W        W25162  14.823   2.885  13.986
65726W        W25163  11.663  42.527   0.904
65727W        W25164  20.242  38.898   4.630
65728W        W25165  24.714   2.866   3.303
65729W        W25166   2.858  36.478  12.943
65730W        W25167  12.321  35.410  14.801
65731W        W25168  41.842   2.893  10.553
65732W        W25169  44.382   9.368   4.136
65733W        W25170   7.854   8.871   1.351
65734W        W25171  38.887   5.803  14.012
65735W        W25172  28.651  15.225   4.348
65736W        W25173  12.831  25.560   4.281
65737W        W25174  31.983  29.146  10.094
65738W        W25175  20.152  37.431   0.367
65739W        W25176   7.900  28.063   2.819
65740W        W25177  40.852  40.342   1.759
65741W        W25178  11.180  22.150   1.379
65742W        W25179  42.488  14.292   3.203
65743W        W25180  29.025  38.429  12.360
65744W        W25181  39.826  37.561   1.701
65745W        W25182  25.131  33.505   4.171
65746W        W25183  44.358  15.211   3.157
65747W        W25184  40.907  43.862   1.919
65748W        W25185  34.505  24.205   1.918
65749W        W25186   6.421  16.617  12.340
65750W        W25187   3.731   4.933   1.282
65751W        W25188  38.483   1.902   3.679
65752W        W25189  40.315  15.707   0.764
65753W        W25190  15.682  24.008  14.425
65754W        W25191  36.095   1.451   2.767
65755W        W25192   8.368  34.109  14.450
65756W        W25193  16.126  14.608   0.390
65757W        W25194   6.703  32.605   0.317
65758W        W25195  40.864  16.766   4.120
65759W        W25196   3.923   3.911   0.358
65760W        W25197  38.864  39.855  10.054
65761W        W25198  41.866  28.057   4.220
65762W        W25199  18.265  28.960   3.264
65763W        W25200  12.670  41.791  14.276
65764W        W25201  15.743  29.168  11.400
65765W        W25202  31.008  29.972  11.042
65766W        W25203   9.839   2.425   2.310
65767W        W25204  18.558  30.132  14.985
65768W        W25205  23.705  12.205   1.317
65769W        W25206  10.259  11.321  14.473
65770W        W25207  11.815   5.826   2.842
65771W        W25208   7.782  45.000  14.318
65772W        W25209  15.224  24.567   1.235
65773W        W25210  36.868  22.684   4.306
65774W        W25211   5.927  17.236   3.212
65775W        W25212  36.008   7.334   4.163
65776W        W25213   7.827  31.595   2.891
65777W        W25214  26.086  13.269   0.749
65778W        W25215  14.750  21.259  10.128
65779W        W25216  11.134  21.523   2.769
65780W        W25217  40.416  34.990  12.824
65781W        W25218  11.829  41.918  13.373
65782W        W25219  37.556  22.591   3.230
65783W        W25220  41.826  10.749  12.443
65784W        W25221  29.028  39.490  11.509
65785W        W25222  27.601  36.929  11.128
65786W        W25223  29.097  41.821   1.802
65787W        W25224  28.049  36.531   1.356
65788W        W25225  43.337  41.350   5.266
65789W        W25226  26.201  27.003  13.422
65790W        W25227   5.385  10.834  12.831
65791W        W25228   4.428  26.536   2.835
65792W        W25229  19.069   7.316  13.532
65793W        W25230  21.105  18.062  14.325
65794W        W25231  41.954   0.418  13.391
65795W        W25232  28.116   8.376  11.559
65796W        W25233  23.604  42.902  12.026
65797W        W25234   0.422  10.168  14.353
65798W        W25235  11.783  25.695   4.648
65799W        W25236  28.435  10.663  11.061
65800W        W25237  32.125   4.353   2.222
65801W        W25238  39.946  14.339   3.763
65802W        W25239  17.288   1.895   0.437
65803W        W25240  25.604  22.094   0.891
65804W        W25241  18.609  11.732   4.651
65805W        W25242  27.128  40.837   3.794
65806W        W25243   9.251  34.117   3.161
65807W        W25244   5.196   6.917  12.513
65808W        W25245  37.343  35.465  11.108
65809W        W25246  21.654   6.360  12.998
65810W        W25247  43.851  37.472  13.395
65811W        W25248  36.592  30.053   1.773
65812W        W25249  37.047  18.756   2.383
65813W        W25250  29.615  16.796   2.830
65814W        W25251  16.736   3.904  11.945
65815W        W25252   1.772  28.132  13.943
65816W        W25253  39.876   5.379   4.163
65817W        W25254  43.971   6.376   0.340
65818W        W25255  23.699  11.209   2.791
65819W        W25256  20.254   8.793   5.292
65820W        W25257  44.928  11.800  12.987
65821W        W25258  23.523  33.541   3.664
65822W        W25259  14.142   9.269  13.518
65823W        W25260  26.559  43.016  14.014
65824W        W25261  10.232   4.236  14.370
65825W        W25262  23.149  17.730  14.801
65826W        W25263  32.594  36.503   2.276
65827W        W25264  21.540  14.833  11.453
65828W        W25265  23.128  25.469   3.300
65829W        W25266  39.355  34.930  14.768
65830W        W25267  43.798  34.075  12.485
65831W        W25268  43.898  30.013  14.421
65832W        W25269  42.480  35.898  12.906
65833W        W25270  15.817  20.202   0.917
65834W        W25271  29.636  37.488   0.745
65835W        W25272   3.771  21.587  12.490
65836W        W25273  13.203  39.819  10.125
65837W        W25274  31.935  12.185   0.329
65838W        W25275  13.617   0.843   1.340
65839W        W25276  41.851  32.561  14.296
65840W        W25277   4.902   1.798   4.647
65841W        W25278  28.111   0.414  11.960
65842W        W25279  13.717  34.484   0.437
65843W        W25280  26.523  16.082   3.836
65844W        W25281   8.173  20.100   1.909
65845W        W25282  27.020  38.992  14.874
65846W        W25283  14.707  38.861  14.799
65847W        W25284  38.491  43.888   0.250
65848W        W25285  19.201  37.976  12.463
65849W        W25286  39.379  31.957   1.919
65850W        W25287  25.016  41.024   2.802
65851W        W25288  16.735  10.261  11.518
65852W        W25289  24.140  13.214  13.008
65853W        W25290  12.699  44.447   0.906
65854W        W25291  38.383  29.958  14.468
65855W        W25292  10.284  18.103  14.904
65856W        W25293  43.273  15.668   0.908
65857W        W25294  13.300  29.601   0.341
65858W        W25295   9.365  41.838  14.317
65859W        W25296   2.931  26.189  14.020
65860W        W25297   0.886  39.560   2.303
65861W        W25298  21.681  38.458   1.215
65862W        W25299  43.795   6.811   2.333
65863W        W25300  19.216  27.036  12.076
65864W        W25301  28.500  10.654   1.390
65865W        W25302  39.809  10.208  13.326
65866W        W25303  42.496  35.036   0.946
65867W        W25304   2.325  41.839  11.125
65868W        W25305  37.878  13.298   1.714
65869W        W25306   3.342  30.521  14.871
65870W        W25307  33.539  42.397   4.687
65871W        W25308  18.617  41.952  11.446
65872W        W25309  37.529  44.884  12.965
65873W        W25310  35.585  14.179   2.815
65874W        W25311   2.879  15.286  11.084
65875W        W25312   5.256  22.172  13.354
65876W        W25313  37.421  14.652  13.869
65877W        W25314  21.675  30.607   0.417
65878W        W25315  24.004  25.492  12.477
65879W        W25316  34.596  44.471  14.337
65880W        W25317  35.932   3.419   0.962
65881W        W25318  22.060   3.291  13.441
65882W        W25319  25.667  14.214  12.900
65883W        W25320  41.905  14.224  13.843
65884W        W25321   6.740  19.173  12.044
65885W        W25322   7.370  29.104   3.256
65886W        W25323  28.146  33.043   4.217
65887W        W25324  34.525  20.195   0.332
65888W        W25325   9.837   1.805  13.815
65889W        W25326  31.547   5.208   4.133
65890W        W25327  20.113  43.930  13.479
65891W        W25328  13.728  25.210  12.568
65892W        W25329  38.390   5.365  13.918
65893W        W25330  27.687   0.903  12.366
65894W        W25331  43.974   3.458  11.094
65895W        W25332  30.095  18.190  12.477
65896W        W25333  39.820  30.456  13.949
65897W        W25334  35.518  12.176   2.228
65898W        W25335  14.144  37.449   5.152
65899W        W25336  21.198  35.396   4.124
65900W        W25337  18.626   2.406   2.347
65901W        W25338  31.947  42.812  12.511
65902W        W25339  30.113  15.630  14.847
65903W        W25340  16.674  14.762  11.905
65904W        W25341  25.979  44.291  13.052
65905W        W25342  25.525  26.509  12.002
65906W        W25343  29.924  36.407   0.790
65907W        W25344  16.075  27.658   3.236
65908W        W25345   7.408  19.635   2.787
65909W        W25346  39.040  35.550   3.798
65910W        W25347  33.463  19.613   3.227
65911W        W25348   3.900  42.902   0.769
65912W        W25349  26.669  42.344  14.420
65913W        W25350  26.675  29.970   4.772
65914W        W25351  41.953   7.315  10.121
65915W        W25352   6.305  20.153  14.417
65916W        W25353  16.262  31.030   3.188
65917W        W25354  10.750  24.497   2.695
65918W        W25355   7.678  20.760  13.504
65919W        W25356   3.385  44.396  12.364
65920W        W25357  24.622  38.496  12.344
65921W        W25358  43.842   2.458  13.868
65922W        W25359  26.470  11.717  14.972
65923W        W25360  25.003  26.136   4.334
65924W        W25361   7.901  39.029  12.037
65925W        W25362   5.281  29.639   1.880
65926W        W25363  10.200  38.426  12.852
65927W        W25364  17.733  10.236   1.722
65928W        W25365  44.500   9.149  11.858
65929W        W25366   0.974  19.684   5.148
65930W        W25367   1.291   0.320  14.468
65931W        W25368  31.076  21.705  12.553
65932W        W25369   8.765  40.937   0.943
65933W        W25370  15.087  29.543  13.963
65934W        W25371  39.418   6.261  11.439
65935W        W25372   5.905  42.899  13.966
65936W        W25373  17.597  20.213   4.262
65937W        W25374  14.767  21.746  10.467
65938W        W25375  12.208  10.153   4.125
65939W        W25376  21.648   4.229  12.995
65940W        W25377   8.676   3.819  13.315
65941W        W25378  30.479  38.963   9.493
65942W        W25379  11.273  15.599  13.524
65943W        W25380  41.983  12.254  13.817
65944W        W25381  12.314   6.208   3.810
65945W        W25382  43.778  36.974   3.300
65946W        W25383   6.774   7.327   3.811
65947W        W25384   2.344  40.544   3.804
65948W        W25385   8.865  30.164  11.520
65949W        W25386   0.823   0.918   4.181
65950W        W25387  16.804   9.822  14.299
65951W        W25388  24.625   8.858  14.977
65952W        W25389  10.750   1.866  14.287
65953W        W25390  44.457   3.441  11.420
65954W        W25391  24.987  31.020   4.789
65955W        W25392  26.526  22.061  13.038
65956W        W25393  18.624  40.924  14.836
65957W        W25394  13.605  35.015  11.053
65958W        W25395  42.878   3.855  11.608
65959W        W25396  24.528  11.655   1.300
65960W        W25397  34.485  24.161   1.304
65961W        W25398  14.161   4.699  11.928
65962W        W25399  40.514  11.634  11.490
65963W        W25400  32.975  22.709  11.579
65964W        W25401   2.289  27.125   0.285
65965W        W25402  35.091  32.026  11.064
65966W        W25403  10.844  25.169   4.211
65967W        W25404   9.754  10.274  11.930
65968W        W25405  35.403  11.319   3.245
65969W        W25406  21.228   2.915  12.942
65970W        W25407  28.163  31.603  13.445
65971W        W25408   8.699  23.590   4.258
65972W        W25409  38.025   2.824  11.091
65973W        W25410  35.015  22.609  13.930
65974W        W25411  33.037  28.962   1.403
65975W        W25412  30.575  29.071  12.482
65976W        W25413  13.685  19.270  11.875
65977W        W25414   7.793  30.103   1.375
65978W        W25415  24.177  22.650   2.819
65979W        W25416  19.552  42.434   3.316
65980W        W25417  38.964  39.402  11.372
65981W        W25418  23.544  21.093  11.123
65982W        W25419   5.697  40.048  13.848
65983W        W25420   6.887  35.921   0.947
65984W        W25421   8.874  30.102   1.719
65985W        W25422   9.859   5.818   1.388
65986W        W25423   3.942  42.859  13.064
65987W        W25424   8.333   5.398   2.716
65988W        W25425  34.001   7.773  14.908
65989W        W25426  34.432  34.599   2.880
65990W        W25427   3.782   1.318   4.260
65991W        W25428  43.925  12.713   0.367
65992W        W25429  19.702   3.785   4.271
65993W        W25430   3.324  35.990  13.547
65994W        W25431  41.884  23.513  14.393
65995W        W25432  22.534  28.055  14.860
65996W        W25433  20.542  34.013   3.700
65997W        W25434  37.439  21.554  14.397
65998W        W25435  31.053  23.636   3.806
65999W        W25436  33.503  43.433   3.806
66000W        W25437  44.823  20.130   0.449
66001W        W25438  15.328  28.576   3.384
66002W        W25439  28.972  14.734  10.934
66003W        W25440  31.106  34.419   4.293
66004W        W25441  21.752   0.980   1.399
66005W        W25442  29.967  28.574   3.697
66006W        W25443  19.547  39.388  13.826
66007W        W25444  25.585   4.419  13.049
66008W        W25445  43.510  36.582  14.008
66009W        W25446  34.444   1.831   4.294
66010W        W25447   9.801  14.690   3.703
66011W        W25448   6.327  18.549  11.909
66012W        W25449  33.026  27.963  11.104
66013W        W25450  35.971  40.475   5.115
66014W        W25451  36.448  41.850   3.859
66015W        W25452  40.826   7.874   2.322
66016W        W25453  12.827   5.257  11.870
66017W        W25454  33.082   0.336  13.432
66018W        W25455  32.020  33.411   2.367
66019W        W25456   8.823  20.600   0.461
66020W        W25457  37.439  41.416  11.932
66021W        W25458  24.136  22.652  12.844
66022W        W25459   4.317  25.122  13.887
66023W        W25460  16.210  44.262   1.232
66024W        W25461   6.786  39.362   0.789
66025W        W25462  24.218   2.797   0.354
66026W        W25463   3.452  42.844   3.212
66027W        W25464  37.897  22.614  12.085
66028W        W25465   8.861   6.201  13.028
66029W        W25466  29.980  13.768  14.434
66030W        W25467  43.980   8.361  14.458
66031W        W25468  20.121   4.223   2.198
66032W        W25469  20.598  27.641  12.937
66033W        W25470  43.795   4.843  10.508
66034W        W25471   7.747  18.225  11.866
66035W        W25472  33.464   3.460   3.697
66036W        W25473  28.563   2.849  12.884
66037W        W25474   3.743   0.311   1.935
66038W        W25475  26.687  15.116  11.555
66039W        W25476  43.364  42.315   2.282
66040W        W25477   3.718  27.979  11.458
66041W        W25478   3.859  40.384  14.274
66042W        W25479   8.695  32.488  13.935
66043W        W25480   1.930   3.715   1.421
66044W        W25481  38.461  35.410  14.382
66045W        W25482  36.386  39.467  13.539
66046W        W25483  35.562   1.415  10.953
66047W        W25484  34.041  44.303   0.328
66048W        W25485   3.907  29.554  10.906
66049W        W25486  11.351  30.582  12.397
66050W        W25487  31.428  18.602  12.424
66051W        W25488  32.960   5.413  11.526
66052W        W25489  24.044   1.851   5.126
66053W        W25490   5.712  28.493  12.436
66054W        W25491  41.375  24.133  10.633
66055W        W25492  16.650  42.330   2.799
66056W        W25493   7.377  27.005   2.835
66057W        W25494   3.715  41.437  10.503
66058W        W25495   8.187  43.803  11.510
66059W        W25496  43.505  17.250   1.870
66060W        W25497  42.395  34.426   4.280
66061W        W25498  42.032  24.569   0.290
66062W        W25499  22.197  11.308   3.830
66063W        W25500  41.405  39.037   0.756
66064W        W25501  39.820  20.184  10.466
66065W        W25502  12.208   9.707  13.866
66066W        W25503  12.319  17.801  13.879
66067W        W25504  27.163  16.598   1.705
66068W        W25505  19.052   2.794   2.417
66069W        W25506   5.196   0.425  12.378
66070W        W25507  24.636  33.472  13.829
66071W        W25508  12.246   7.209   0.308
66072W        W25509  29.526   6.880  13.821
66073W        W25510  31.607   8.404  12.574
66074W        W25511  38.947  40.920  12.874
66075W        W25512  30.091  44.836   0.867
66076W        W25513  44.874  22.234  11.937
66077W        W25514  40.911   6.807   4.743
66078W        W25515   6.790  41.311  13.539
66079W        W25516  44.866  38.893  13.443
66080W        W25517  25.607  19.695  12.352
66081W        W25518  35.917  34.915   4.659
66082W        W25519  37.526  16.077   1.254
66083W        W25520  31.043  40.899  11.412
66084W        W25521  14.277   7.377   2.773
66085W        W25522  31.126  44.774   0.384
66086W        W25523  40.379  21.098   3.697
66087W        W25524   1.894   9.354  10.974
66088W        W25525  36.433  14.105  14.028
66089W        W25526  41.491  26.667  14.479
66090W        W25527  40.430  20.142   1.291
66091W        W25528  17.087  41.314  13.945
66092W        W25529  13.644  36.027  13.485
66093W        W25530   9.383  39.370   2.241
66094W        W25531   8.695   4.779   4.606
66095W        W25532  24.670  21.247  11.916
66096W        W25533  34.055   7.873  10.973
66097W        W25534  43.356  26.488   2.699
66098W        W25535  17.288  10.756  12.579
66099W        W25536  28.436  11.795  11.434
66100W        W25537  35.993  22.139   1.844
66101W        W25538  35.930  43.475  12.938
66102W        W25539   0.429  39.906  12.382
66103W        W25540  17.260  17.168   3.210
66104W        W25541  11.757  42.422   1.825
66105W        W25542  23.216  21.710   4.141
66106W        W25543  14.665  14.293   3.747
66107W        W25544  10.275   8.836  12.388
66108W        W25545  39.012  28.477  13.323
66109W        W25546  26.081  11.660   4.295
66110W        W25547  28.437  15.175  12.079
66111W        W25548  15.802  36.463   4.218
66112W        W25549  32.015   9.733  14.356
66113W        W25550  19.056  14.131  13.048
66114W        W25551  22.517  24.521  14.876
66115W        W25552  13.289  21.130  11.872
66116W        W25553  34.552  19.270   4.671
66117W        W25554  10.265  12.173   9.923
66118W        W25555  13.622   1.906  11.069
66119W        W25556  42.421  34.491   0.397
66120W        W25557  21.700  27.533  11.862
66121W        W25558  32.094   5.275  13.484
66122W        W25559  17.142   3.276   5.201
66123W        W25560  13.693   6.801  14.496
66124W        W25561  26.471  21.096  10.486
66125W        W25562  11.195   9.277  10.429
66126W        W25563  44.424   8.821  12.921
66127W        W25564   1.766  21.139   2.712
66128W        W25565   6.705  30.598  13.046
66129W        W25566   8.225  28.008   0.865
66130W        W25567  43.020  33.552   2.879
66131W        W25568  14.336  31.052   1.311
66132W        W25569  22.203  26.608   0.310
66133W        W25570  42.023  16.627  11.527
66134W        W25571  27.135  16.761   2.386
66135W        W25572   4.875  12.667   2.763
66136W        W25573  22.017  25.623   0.930
66137W        W25574   9.784  43.328   1.226
66138W        W25575   2.846  30.132   2.244
66139W        W25576  42.988   8.701  12.551
66140W        W25577  42.896  42.996   1.842
66141W        W25578  26.545   9.201  13.938
66142W        W25579  28.003  19.593   5.140
66143W        W25580  20.757   1.293   3.801
66144W        W25581  13.713  13.135   3.681
66145W        W25582  44.282  29.446  12.487
66146W        W25583   7.739   7.834   2.668
66147W        W25584  11.182  36.473  12.437
66148W        W25585  41.851  14.172  12.474
66149W        W25586   1.417  25.511  11.943
66150W        W25587   3.886  41.904   2.902
66151W        W25588  10.777  33.968   2.335
66152W        W25589  14.189  13.761   2.755
66153W        W25590  17.254  33.576   4.788
66154W        W25591  12.633   5.793   3.866
66155W        W25592  23.177  14.800  13.040
66156W        W25593   6.195  16.191   4.219
66157W        W25594  17.252  37.382   2.312
66158W        W25595  29.152  32.912   3.246
66159W        W25596   3.380   1.457  12.432
66160W        W25597   0.974  38.965   0.955
66161W        W25598   3.792  18.229  12.394
66162W        W25599  13.176  29.132  13.958
66163W        W25600  37.960  16.292   3.245
66164W        W25601  25.136  25.698  13.811
66165W        W25602  27.538   3.886   0.280
66166W        W25603   0.287  19.211  12.540
66167W        W25604  44.489  19.579   0.879
66168W        W25605   1.868  36.879   1.847
66169W        W25606   1.353  11.221  14.384
66170W        W25607  36.526  28.536  14.027
66171W        W25608  36.525  35.060  14.847
66172W        W25609  27.116  36.544  11.533
66173W        W25610  39.872  35.559   3.768
66174W        W25611   4.891   8.801   5.287
66175W        W25612  10.835  38.069  10.438
66176W        W25613  36.008  24.124  10.575
66177W        W25614  18.259  42.025   0.478
66178W        W25615  30.650   6.843  14.487
66179W        W25616   8.742   0.944   1.413
66180W        W25617  27.684  36.457   3.755
66181W        W25618  40.948  34.969   1.254
66182W        W25619  38.069  23.120   3.776
66183W        W25620  42.499  21.160   4.213
66184W        W25621  11.859  27.619  13.313
66185W        W25622  34.954   3.821  11.971
66186W        W25623  25.581  12.733   2.327
66187W        W25624  16.079  41.393   4.248
66188W        W25625   4.707  11.813   0.918
66189W        W25626  15.164  38.327   0.383
66190W        W25627  35.381   2.341   1.907
66191W        W25628  29.442  16.583  13.967
66192W        W25629  29.071   2.813   3.236
66193W        W25630  13.214   9.687  12.576
66194W        W25631  44.773  32.516  14.817
66195W        W25632  22.534  15.650   3.166
66196W        W25633   5.810   8.900   0.300
66197W        W25634  32.470  25.015   0.892
66198W        W25635   4.939  28.451   1.418
66199W        W25636  44.919   8.757   1.330
66200W        W25637  32.068  41.448   3.350
66201W        W25638  32.025  37.890  14.813
66202W        W25639  37.359  30.416  10.423
66203W        W25640   0.782  19.665   1.332
66204W        W25641  38.550  43.990  10.571
66205W        W25642  22.614   9.319   2.220
66206W        W25643  36.438  39.024   9.934
66207W        W25644  23.118   2.336   2.792
66208W        W25645  35.919  19.570  14.310
66209W        W25646  35.380   5.255  13.329
66210W        W25647  41.385  44.280   0.311
66211W        W25648  24.528  27.651   1.278
66212W        W25649  14.242  33.446   1.763
66213W        W25650  10.716  24.127  11.085
66214W        W25651  40.353  34.931  10.480
66215W        W25652   0.895   7.289   4.201
66216W        W25653  22.023  17.799  10.985
66217W        W25654  33.424   1.885   3.738
66218W        W25655  32.025  25.200  14.785
66219W        W25656  40.427  20.530   0.400
66220W        W25657  15.250   8.183   0.284
66221W        W25658  17.654   8.206  12.395
66222W        W25659   1.794  19.679   1.890
66223W        W25660  13.180  18.098  10.991
66224W        W25661  40.025  24.589  13.063
66225W        W25662  12.665  37.567   1.796
66226W        W25663  32.892   3.768  12.075
66227W        W25664  15.221  43.001  14.758
66228W        W25665  42.823  40.027  12.353
66229W        W25666  22.729  25.046  11.463
66230W        W25667  24.529  21.534  12.930
66231W        W25668  27.062  34.010  14.463
66232W        W25669  38.839   7.675  11.592
66233W        W25670  43.356   0.850  14.914
66234W        W25671   5.929  15.605  11.990
66235W        W25672  41.903  43.999  12.910
66236W        W25673  30.533  37.403   1.333
66237W        W25674   4.218  39.495   0.346
66238W        W25675  22.026  38.854  12.578
66239W        W25676  10.251   3.712   5.296
66240W        W25677   1.371  20.672   2.289
66241W        W25678  24.499  24.696  13.447
66242W        W25679   7.809  36.891   4.293
66243W        W25680   2.361  29.160  14.480
66244W        W25681  44.862  37.933   2.236
66245W        W25682  20.549  35.108   2.356
66246W        W25683   4.895   7.212  13.485
66247W        W25684  15.233  31.139  12.044
66248W        W25685  41.940  39.869   2.699
66249W        W25686  27.601   5.739  12.375
66250W        W25687   8.245  30.499   3.848
66251W        W25688   3.246   8.321   2.304
66252W        W25689  19.610  38.014  14.445
66253W        W25690  36.069  13.650   4.761
66254W        W25691  12.622  25.476   2.894
66255W        W25692  34.445  40.051  10.939
66256W        W25693   5.203  44.937  12.479
66257W        W25694   2.409   4.292  14.018
66258W        W25695  29.994   1.287   2.726
66259W        W25696  36.415  33.037   2.702
66260W        W25697  10.250   8.287   3.731
66261W        W25698  32.982  20.080   3.729
66262W        W25699  20.731  14.220  14.409
66263W        W25700   7.788   1.851  14.923
66264W        W25701  44.385  33.112  14.488
66265W        W25702   2.806  29.126  14.847
66266W        W25703  33.577  25.142   4.127
66267W        W25704  16.158   6.269   1.415
66268W        W25705  30.043  39.930   3.854
66269W        W25706  40.026   4.234  11.948
66270W        W25707  36.947   9.832  14.009
66271W        W25708  24.492  20.195  11.040
66272W        W25709  31.048  26.485   3.183
66273W        W25710  38.997   9.371  14.834
66274W        W25711  14.832  18.614  14.470
66275W        W25712  22.742  42.293  10.131
66276W        W25713  42.017  10.322   0.951
66277W        W25714  28.630   3.287   2.301
66278W        W25715  24.127  24.603   5.200
66279W        W25716  32.576  11.333  10.997
66280W        W25717  12.350  43.889   1.799
66281W        W25718  31.939  26.517  10.576
66282W        W25719  29.949  27.631   1.810
66283W        W25720   2.374  17.770  10.601
66284W        W25721  19.674  17.296   3.661
66285W        W25722  20.097  38.423  11.959
66286W        W25723   3.412  15.775  14.324
66287W        W25724  41.476  28.155   1.696
66288W        W25725  25.062   7.402  11.886
66289W        W25726  39.552   8.662  10.497
66290W        W25727  37.874  15.272   2.288
66291W        W25728  18.586  12.623  13.805
66292W        W25729  41.533  22.205  11.015
66293W        W25730  29.947  32.947   0.782
66294W        W25731  32.076  22.175   2.826
66295W        W25732  31.079  13.184   4.301
66296W        W25733  40.544  22.063   2.678
66297W        W25734  23.698  10.308   0.435
66298W        W25735  41.469  17.296  13.482
66299W        W25736  17.285  15.190  12.936
66300W        W25737   9.662   0.396   4.197
66301W        W25738   3.782  22.170  12.991
66302W        W25739  26.599  12.840  13.534
66303W        W25740   8.243  13.331  11.390
66304W        W25741  15.760   7.176   4.240
66305W        W25742  32.089  29.928   0.367
66306W        W25743  41.992  37.957   1.275
66307W        W25744  40.862   8.677   0.453
66308W        W25745   0.346  36.864  12.931
66309W        W25746  13.310  22.715   2.685
66310W        W25747  33.977  38.389   2.253
66311W        W25748   4.207  23.656  13.056
66312W        W25749  42.954  24.600   1.374
66313W        W25750  24.124  13.225  13.818
66314W        W25751  25.981  35.541  13.506
66315W        W25752  20.041   9.730  10.423
66316W        W25753   4.728   0.389  14.294
66317W        W25754  22.166  18.791  14.380
66318W        W25755  19.715  22.032  12.354
66319W        W25756  43.815  30.424  14.783
66320W        W25757  42.024   7.259   0.254
66321W        W25758  44.473  39.968   2.855
66322W        W25759  41.447   2.926  13.909
66323W        W25760  35.072  26.672  14.471
66324W        W25761  42.403  18.200   3.828
66325W        W25762  35.084  21.257  13.317
66326W        W25763  17.266  14.734   3.833
66327W        W25764  39.060   4.721  13.425
66328W        W25765  23.592  39.951   4.296
66329W        W25766   5.264  31.928   2.815
66330W        W25767  20.727  25.186  10.161
66331W        W25768  36.348  44.008   2.295
66332W        W25769  35.516  10.329  13.938
66333W        W25770  34.422  22.564   5.107
66334W        W25771  25.557  40.824  13.839
66335W        W25772  42.332  31.451  13.938
66336W        W25773  31.985  27.066  10.947
66337W        W25774   6.294  39.478  13.012
66338W        W25775  10.677  34.489  10.913
66339W        W25776  39.390  24.128  12.559
66340W        W25777  37.423  11.329  12.523
66341W        W25778  35.856  14.666   4.118
66342W        W25779  39.975  37.441   3.704
66343W        W25780   9.810  27.998   3.209
66344W        W25781  18.212   5.261  12.375
66345W        W25782   8.766   8.791   2.200
66346W        W25783  16.232   7.682  12.408
66347W        W25784   0.469  31.603  12.857
66348W        W25785  25.485  27.057  14.459
66349W        W25786   5.697  31.048   0.896
66350W        W25787  33.402  39.357   2.232
66351W        W25788   0.378  36.349  14.762
66352W        W25789   7.286  35.921   2.866
66353W        W25790   5.315  41.402  14.442
66354W        W25791   5.888  15.726   0.918
66355W        W25792   2.881  22.525  11.532
66356W        W25793  22.562  31.576  11.888
66357W        W25794  11.709   9.844  11.959
66358W        W25795  14.097  19.134  12.495
66359W        W25796  16.797  40.524  13.354
66360W        W25797  44.355  12.627  11.032
66361W        W25798   1.481  14.588   5.225
66362W        W25799  36.547  34.537  12.868
66363W        W25800  18.114   1.443   0.885
66364W        W25801  14.141  42.436   2.417
66365W        W25802  36.404  32.546   1.238
66366W        W25803  23.606   2.813  10.454
66367W        W25804  15.711   8.779  11.590
66368W        W25805  10.304   0.461   3.184
66369W        W25806  31.452   0.753  13.503
66370W        W25807  24.537   5.377   3.843
66371W        W25808   0.368  43.291  14.400
66372W        W25809  13.111  21.524  10.567
66373W        W25810  28.435   1.264   0.813
66374W        W25811  44.375  40.422  11.555
66375W        W25812  29.636  26.557  11.606
66376W        W25813  22.026  21.714   2.267
66377W        W25814   2.897  27.491   3.292
66378W        W25815  32.092  44.286   5.109
66379W        W25816  12.804   6.696  11.602
66380W        W25817  21.023  27.517  14.762
66381W        W25818  10.671  25.695  12.968
66382W        W25819  16.109  40.924  12.049
66383W        W25820  38.399  40.052  14.286
66384W        W25821  24.682  43.491   0.947
66385W        W25822  20.259   1.245   0.922
66386W        W25823  11.194  12.276   1.813
66387W        W25824   3.860  22.559  12.379
66388W        W25825  44.260   7.717  11.439
66389W        W25826  41.432  38.057   5.240
66390W        W25827   3.846  44.411   3.346
66391W        W25828  41.022  30.628  12.461
66392W        W25829  35.417  42.933   1.801
66393W        W25830  33.485  43.805   9.983
66394W        W25831  30.533  43.015  13.520
66395W        W25832  13.291   6.856  14.785
66396W        W25833  24.060   5.424   1.933
66397W        W25834  31.096  18.148   5.086
66398W        W25835   3.261  22.081   2.226
66399W        W25836  40.818  31.464   0.321
66400W        W25837  36.528   5.367  13.856
66401W        W25838  43.408  34.585  12.937
66402W        W25839  13.826  33.472   1.400
66403W        W25840  14.120  21.550  14.457
66404W        W25841  25.709  23.551   1.860
66405W        W25842  22.232  33.451   2.263
66406W        W25843  24.658  41.009   2.767
66407W        W25844  10.292  44.299   4.225
66408W        W25845  29.055  33.086   0.898
66409W        W25846  15.636  10.778  11.865
66410W        W25847   2.277  40.396   4.282
66411W        W25848  30.970  40.979   1.240
66412W        W25849  13.156   7.179   0.254
66413W        W25850   0.384  37.492  11.900
66414W        W25851  14.117  39.366   4.759
66415W        W25852  35.359  44.496   1.885
66416W        W25853  44.996  15.783   2.767
66417W        W25854   3.389  38.500  14.403
66418W        W25855  34.882  14.119   3.807
66419W        W25856  26.117  41.377   4.237
66420W        W25857   2.254   9.366  14.334
66421W        W25858  35.521   9.778  11.082
66422W        W25859  12.709  42.352   3.742
66423W        W25860  43.945  23.675  12.401
66424W        W25861  15.775  37.408  13.808
66425W        W25862  33.575  18.155   3.314
66426W        W25863  16.714  19.570  13.035
66427W        W25864   7.752  16.184  12.570
66428W        W25865  23.590   9.865  11.443
66429W        W25866  10.843  36.400   3.806
66430W        W25867  18.195  21.515   4.691
66431W        W25868  12.646   7.360  14.885
66432W        W25869   4.915   8.382  13.980
66433W        W25870  20.728  19.249   2.710
66434W        W25871  25.495  29.532  14.339
66435W        W25872   9.230  16.701   1.868
66436W        W25873   1.281   3.834   0.468
66437W        W25874  16.172   8.785   3.684
66438W        W25875  16.598  19.748   0.761
66439W        W25876   9.766  25.549  14.277
66440W        W25877  15.808   9.839  13.961
66441W        W25878  17.276  38.537   0.807
66442W        W25879  39.381  17.612  12.445
66443W        W25880  18.214  12.622  13.002
66444W        W25881  23.676  31.447  14.789
66445W        W25882  33.390  16.196   0.856
66446W        W25883  24.547  39.907  12.372
66447W        W25884   7.770  37.510   4.693
66448W        W25885   5.313   6.362   2.392
66449W        W25886  13.257  41.004   4.286
66450W        W25887  21.640  32.100   1.861
66451W        W25888  30.653  43.497   1.319
66452W        W25889  25.968  35.431  10.575
66453W        W25890  40.485  39.527  11.455
66454W        W25891  17.072  17.637   1.711
66455W        W25892   3.273  34.511   0.292
66456W        W25893  29.604  40.327  14.356
66457W        W25894  40.343  43.893  13.903
66458W        W25895  17.093  26.459  11.109
66459W        W25896   6.376  35.466   2.306
66460W        W25897  37.430  25.613  10.601
66461W        W25898   9.331   7.703   2.831
66462W        W25899  38.822  25.118   1.289
66463W        W25900  27.492  12.315   9.929
66464W        W25901  13.122   9.230   0.308
66465W        W25902  17.226  21.034  12.974
66466W        W25903  27.610  32.466  14.490
66467W        W25904   1.968  43.847   2.283
66468W        W25905  35.504  11.268   4.120
66469W        W25906  16.618  38.568   4.165
66470W        W25907  27.646   7.784   4.742
66471W        W25908   7.374   4.409  10.466
66472W        W25909  40.027   7.829   2.280
66473W        W25910  28.958   9.284   4.754
66474W        W25911   9.158  18.292  14.876
66475W        W25912   7.232  30.130  11.085
66476W        W25913  43.939  27.479  10.626
66477W        W25914  34.978  42.289  13.532
66478W        W25915  34.379  41.019   4.742
66479W        W25916  26.171  37.352  14.424
66480W        W25917  21.158   2.815   2.285
66481W        W25918   8.204  38.862   0.742
66482W        W25919  40.852  19.053  13.009
66483W        W25920  39.924  23.514  14.433
66484W        W25921   2.912  38.825  11.064
66485W        W25922  16.211   0.859   3.863
66486W        W25923  32.559  20.533   2.722
66487W        W25924  44.984  14.801  12.421
66488W        W25925  30.645   4.400   2.669
66489W        W25926  26.082  15.314   1.813
66490W        W25927  40.515   2.295  14.381
66491W        W25928  12.167  22.040   2.739
66492W        W25929  44.926  30.148  10.988
66493W        W25930  27.099  26.695   2.375
66494W        W25931  39.842   5.708  13.965
66495W        W25932   4.866   2.823  11.435
66496W        W25933   8.667   9.651  12.558
66497W        W25934  31.525  18.550  10.435
66498W        W25935  30.445  24.482  11.856
66499W        W25936  12.787  26.658   4.143
66500W        W25937  16.610  25.132  11.093
66501W        W25938  33.439  13.815  11.960
66502W        W25939  43.821  29.540   4.158
66503W        W25940   0.838   0.865  11.410
66504W        W25941  31.529  26.951   9.938
66505W        W25942  18.099  29.525  13.894
66506W        W25943  44.916  39.066  13.042
66507W        W25944  37.019  21.164  14.366
66508W        W25945   7.315  43.318   1.763
66509W        W25946  27.616  35.075   3.676
66510W        W25947  39.328  41.320   4.703
66511W        W25948  39.540  21.754   2.800
66512W        W25949  38.956  27.037   4.191
66513W        W25950  22.138  19.671   4.172
66514W        W25951  21.659   3.346  10.438
66515W        W25952  24.573  22.155  13.952
66516W        W25953  43.894  40.400  13.350
66517W        W25954  15.298  43.326   5.146
66518W        W25955  28.485  17.640   4.697
66519W        W25956  32.484  42.516  13.980
66520W        W25957  43.468  13.210  11.588
66521W        W25958  41.491   1.475   2.897
66522W        W25959  23.614  14.759  14.463
66523W        W25960  41.404  22.189  12.398
66524W        W25961  25.189  22.615   3.813
66525W        W25962   6.831  16.677   1.374
66526W        W25963  26.668  15.221  11.029
66527W        W25964  16.792  18.088   1.891
66528W        W25965  19.110  28.116   4.257
66529W        W25966   7.910  36.557  14.834
66530W        W25967  11.228  31.971   1.349
66531W        W25968  15.206  13.719   0.373
66532W        W25969  27.618  35.035   1.795
66533W        W25970  21.048   5.918  14.830
66534W        W25971   1.335   0.469   0.252
66535W        W25972  28.069  35.871  12.030
66536W        W25973  19.697  29.499  10.452
66537W        W25974  11.630  22.133   1.351
66538W        W25975   8.714   3.444   4.726
66539W        W25976  20.213  38.463  13.830
66540W        W25977  19.108  40.377   0.358
66541W        W25978  23.560  41.908   0.409
66542W        W25979   4.825  21.040  12.848
66543W        W25980  26.017  42.294  12.558
66544W        W25981  27.670  20.606   3.277
66545W        W25982  12.297  32.490   4.767
66546W        W25983  44.260   7.851   4.771
66547W        W25984  41.416  11.353  12.503
66548W        W25985  10.773   5.886  13.332
66549W        W25986   4.364  20.729  14.461
66550W        W25987   5.379  27.623  14.481
66551W        W25988  33.578  43.837   3.815
66552W        W25989  21.604  27.067  12.935
66553W        W25990  23.507   5.913   2.316
66554W        W25991  39.056   0.923  14.289
66555W        W25992  27.676  28.602  14.774
66556W        W25993  23.523  37.064  13.961
66557W        W25994   0.963  42.831   0.747
66558W        W25995  42.883   6.340  14.943
66559W        W25996  37.994  27.120   1.874
66560W        W25997  37.568  18.685   1.899
66561W        W25998   7.202  19.198  13.438
66562W        W25999  14.714  43.791  13.945
66563W        W26000  43.943  15.116  14.408
66564W        W26001  44.501  17.655   1.230
66565W        W26002  36.061  34.916  12.933
66566W        W26003   0.833  43.845  11.480
66567W        W26004  16.725   9.333  12.004
66568W        W26005  14.607  12.810   3.671
66569W        W26006   3.239   9.852   0.307
66570W        W26007  33.452  41.428  12.477
66571W        W26008  12.242  20.028  10.502
66572W        W26009  23.202   9.735   1.928
66573W        W26010  33.498  40.406  11.440
66574W        W26011   3.285   9.858   2.892
66575W        W26012  35.997  32.497   3.212
66576W        W26013  28.579   5.766  12.857
66577W        W26014   4.851  43.397  12.043
66578W        W26015   9.222  34.926   4.747
66579W        W26016   7.355   0.988  12.078
66580W        W26017  29.962   1.934  10.896
66581W        W26018   8.737   7.796  14.032
66582W        W26019  18.687  31.059  13.940
66583W        W26020  20.068  12.195  13.398
66584W        W26021  17.282   5.335   0.776
66585W        W26022  25.206  13.135  12.980
66586W        W26023  43.465   3.897   3.318
66587W        W26024  11.194  38.408  12.901
66588W        W26025  15.591  34.907  10.558
66589W        W26026   1.454  30.091   2.771
66590W        W26027   2.845  44.845   3.296
66591W        W26028   6.801  40.924  14.365
66592W        W26029  21.079  19.195  12.556
66593W        W26030   5.250  23.559   0.469
66594W        W26031  17.669  29.466   3.853
66595W        W26032  32.589  37.840  11.521
66596W        W26033   3.301  19.760   4.739
66597W        W26034  32.899  23.507   3.759
66598W        W26035   9.275  28.116   4.726
66599W        W26036  16.191  43.933  10.910
66600W        W26037  15.599  30.556  13.477
66601W        W26038  17.788  10.259  14.337
66602W        W26039   8.194  44.347  12.456
66603W        W26040  31.581  30.043  12.475
66604W        W26041  33.067   8.238  14.811
66605W        W26042   7.241  31.014   1.715
66606W        W26043  19.619  42.393   4.770
66607W        W26044  12.173  28.631   4.711
66608W        W26045   8.379   8.359  11.071
66609W        W26046  25.137  23.125   2.300
66610W        W26047  30.576  16.696   4.797
66611W        W26048   8.724  15.087   2.788
66612W        W26049  24.180  11.707  14.812
66613W        W26050  37.350  43.352   5.239
66614W        W26051  24.504  35.567  13.355
66615W        W26052  44.908  34.026  10.035
66616W        W26053  43.975   3.243  10.431
66617W        W26054  16.684  36.882   1.910
66618W        W26055  32.048   9.281  14.818
66619W        W26056  17.304   2.857  14.500
66620W        W26057   2.793   5.800  12.870
66621W        W26058   9.199   6.209   0.478
66622W        W26059  31.591  20.038  10.927
66623W        W26060  15.294   4.259  11.029
66624W        W26061  32.905  31.011  14.961
66625W        W26062   4.859  27.687  12.345
66626W        W26063   9.786  38.437   3.841
66627W        W26064  27.949  38.937   1.874
66628W        W26065  12.173  39.820   4.632
66629W        W26066  27.489  24.217   3.315
66630W        W26067  41.515  30.912   4.641
66631W        W26068  38.046  26.644   5.093
66632W        W26069  42.304  39.470   1.739
66633W        W26070  29.528  10.300  13.855
66634W        W26071   2.815  35.401  14.375
66635W        W26072  37.008  41.890  11.974
66636W        W26073   0.271   6.317  11.966
66637W        W26074   8.192   7.272   4.209
66638W        W26075   9.330  12.820  13.540
66639W        W26076  44.467  36.002   1.875
66640W        W26077   1.740   5.362   1.284
66641W        W26078  29.088  24.116  12.091
66642W        W26079   3.445  20.603  12.410
66643W        W26080  25.158  12.261  14.337
66644W        W26081  31.125  26.528   4.191
66645W        W26082  25.072  26.956   0.250
66646W        W26083   7.211  19.745  11.055
66647W        W26084   3.280  27.506  13.449
66648W        W26085   4.326  28.944  11.059
66649W        W26086  31.025  19.068   1.819
66650W        W26087   6.912   8.255  13.380
66651W        W26088   2.781  18.164  12.471
66652W        W26089  19.590  22.556  10.451
66653W        W26090  14.710   0.906   0.918
66654W        W26091  25.027  20.741   2.889
66655W        W26092   1.899   5.258  14.957
66656W        W26093  42.461  37.580   4.354
66657W        W26094  38.338   0.323  12.032
66658W        W26095   7.234  21.730  10.579
66659W        W26096  41.026   9.197  14.864
66660W        W26097  44.946   1.357  14.019
66661W        W26098  40.498  25.712  13.495
66662W        W26099  36.081  12.277   0.302
66663W        W26100  20.138  19.170   3.742
66664W        W26101  16.150  37.934   4.140
66665W        W26102  17.759  38.467   0.357
66666W        W26103  16.600  12.256   2.214
66667W        W26104  37.969  21.158   1.268
66668W        W26105  33.907  12.118   1.296
66669W        W26106  37.917  30.445  10.041
66670W        W26107   8.214  40.511   4.304
66671W        W26108  36.390   0.969   4.823
66672W        W26109  35.991  24.481   3.161
66673W        W26110  36.856   0.941  10.404
66674W        W26111  29.010  26.653   3.227
66675W        W26112  13.246  31.049  10.973
66676W        W26113   3.741  23.058   2.299
66677W        W26114  10.877  14.627  10.435
66678W        W26115   3.415  31.124   3.152
66679W        W26116  12.130   0.821  13.470
66680W        W26117  41.879   7.412   0.878
66681W        W26118  39.405   2.953   3.236
66682W        W26119   1.370   1.757   0.251
66683W        W26120  31.604  18.563  14.862
66684W        W26121  42.951  12.734  10.077
66685W        W26122  10.824  13.810   0.313
66686W        W26123   9.180  43.783   0.951
66687W        W26124   3.891  15.669   1.417
66688W        W26125  17.744  38.996  12.496
66689W        W26126  34.466  42.902  10.560
66690W        W26127  19.272  11.752   4.236
66691W        W26128  19.188  21.710   4.734
66692W        W26129  43.853  14.601   3.146
66693W        W26130  25.197   8.392  14.396
66694W        W26131  31.601   4.328   1.257
66695W        W26132   9.151  25.564  13.995
66696W        W26133  41.958  21.105   4.151
66697W        W26134  42.834  10.212  13.494
66698W        W26135  28.000  11.367   0.353
66699W        W26136   0.746  38.886   2.793
66700W        W26137  21.094  37.878  12.016
66701W        W26138   8.844  10.334   0.734
66702W        W26139   9.693   5.373   4.317
66703W        W26140  12.667  42.818   1.412
66704W        W26141  34.922   6.758   0.357
66705W        W26142  24.522  13.776  12.991
66706W        W26143  39.544  14.338  11.602
66707W        W26144   6.246  22.699   1.237
66708W        W26145  27.180  11.201   3.278
66709W        W26146  27.536  20.096   4.144
66710W        W26147  29.025   2.396   1.419
66711W        W26148  28.085  29.072   2.294
66712W        W26149  23.693  37.383  11.045
66713W        W26150  31.520  39.314  12.008
66714W        W26151  17.254  43.866   4.731
66715W        W26152   2.339  23.654   1.257
66716W        W26153  26.111  39.883   4.274
66717W        W26154  35.016   9.715   3.634
66718W        W26155  28.649  21.669  12.978
66719W        W26156   0.922  15.619   0.440
66720W        W26157  35.003  15.757  12.442
66721W        W26158  37.491  36.972  11.378
66722W        W26159  40.890  11.201   4.333
66723W        W26160  44.293  14.243  14.774
66724W        W26161  41.493  30.134  13.941
66725W        W26162  29.572   0.357   5.236
66726W        W26163  43.826   7.849   0.255
66727W        W26164  36.377   0.805  10.933
66728W        W26165   5.795   5.693  12.508
66729W        W26166   9.205  37.034  14.421
66730W        W26167  22.732  27.034   1.395
66731W        W26168   6.267   5.328   3.293
66732W        W26169  40.006  17.189  12.037
66733W        W26170  21.193  14.220  12.472
66734W        W26171  20.551  25.150   0.275
66735W        W26172  19.130   3.354   4.335
66736W        W26173   4.301   9.174  12.073
66737W        W26174  19.229  41.300   4.631
66738W        W26175  21.104   4.941   1.872
66739W        W26176  14.826  32.036   4.706
66740W        W26177   9.693  24.183   2.284
66741W        W26178   2.342  35.879   2.232
66742W        W26179  33.386   1.320  10.613
66743W        W26180  14.650  12.826   1.271
66744W        W26181  11.354  16.651  12.374
66745W        W26182  21.164   5.738  12.823
66746W        W26183  19.714   0.920  10.434
66747W        W26184   1.242   7.801  11.084
66748W        W26185  43.810  11.759   0.453
66749W        W26186   0.747  34.460  11.434
66750W        W26187  38.017  44.756   3.681
66751W        W26188  43.357  24.566  12.941
66752W        W26189  11.245  21.215   0.428
66753W        W26190  35.900  30.136  14.919
66754W        W26191  16.124   1.477  14.384
66755W        W26192  37.030  37.936   0.396
66756W        W26193  23.678  18.121  12.440
66757W        W26194   2.741   6.243   1.359
66758W        W26195  19.673   7.390  11.945
66759W        W26196  44.401   1.317  11.876
66760W        W26197  26.518  28.620  12.424
66761W        W26198  44.010  15.700  12.901
66762W        W26199   9.250  14.256   1.215
66763W        W26200  31.628  43.800   4.288
66764W        W26201  28.646  26.491  14.871
66765W        W26202  12.672  41.945   4.814
66766W        W26203  40.021  30.045  11.001
66767W        W26204   8.166  20.252  14.438
66768W        W26205  36.562   8.297   0.964
66769W        W26206  36.439   6.345   2.719
66770W        W26207  18.077  41.949   1.357
66771W        W26208  30.052  26.200   3.341
66772W        W26209  33.626  13.688   0.945
66773W        W26210  16.260   4.799   3.756
66774W        W26211  40.006  20.076  13.532
66775W        W26212   0.873  17.171   3.688
66776W        W26213   9.201  43.315  12.509
66777W        W26214  33.980  43.459  14.401
66778W        W26215  19.141  39.923  12.377
66779W        W26216  29.110   0.894   1.875
66780W        W26217  33.083  11.738   1.307
66781W        W26218  23.201  25.621   4.319
66782W        W26219  27.486  24.115   1.895
66783W        W26220  36.937  17.300  14.032
66784W        W26221  27.045   9.739  13.491
66785W        W26222  40.533  38.906   1.309
66786W        W26223  28.077  40.925   2.363
66787W        W26224  40.493   0.467   0.766
66788W        W26225  16.568  30.619   4.677
66789W        W26226  13.346   4.793  14.469
66790W        W26227  13.279  22.661   0.728
66791W        W26228   2.277  15.147   2.729
66792W        W26229  20.038  43.288   0.923
66793W        W26230  35.013  43.793  10.523
66794W        W26231  15.741  31.535  10.521
66795W        W26232   2.324  19.707  10.600
66796W        W26233   0.771  19.146   1.218
66797W        W26234  40.950  40.476  11.960
66798W        W26235   8.392  23.491  13.881
66799W        W26236  29.455   6.794  12.496
66800W        W26237  37.861  37.458   0.284
66801W        W26238  43.911  14.778  14.410
66802W        W26239  41.536  36.433   5.150
66803W        W26240  25.555  32.008  14.443
66804W        W26241  18.259  20.570  11.379
66805W        W26242  28.086  31.407   2.867
66806W        W26243  28.045  42.499  12.921
66807W        W26244  31.593  19.126  14.347
66808W        W26245   5.277   1.901  11.390
66809W        W26246  42.986  16.794  10.476
66810W        W26247   4.925  11.850   4.180
66811W        W26248  38.365   3.891   1.326
66812W        W26249  11.270  18.229   2.689
66813W        W26250  33.951   7.762   4.245
66814W        W26251  28.583  40.449   9.441
66815W        W26252  24.713  39.537   2.348
66816W        W26253  29.442  41.922   1.884
66817W        W26254   5.894   5.404   3.214
66818W        W26255  42.457  15.128  12.945
66819W        W26256  42.333  18.155   2.413
66820W        W26257  10.270  34.963   0.872
66821W        W26258  10.187  13.803  14.799
66822W        W26259  22.185  23.666  10.542
66823W        W26260  23.700  11.230  13.891
66824W        W26261   2.774  26.506   0.282
66825W        W26262   0.856  21.206   9.954
66826W        W26263  11.716  39.971  12.546
66827W        W26264  40.897  44.370  10.590
66828W        W26265  31.616  31.441   3.331
66829W        W26266  21.722  11.788   3.171
66830W        W26267   9.729  24.208  13.863
66831W        W26268  36.347  18.754  11.027
66832W        W26269   0.805  21.514   0.818
66833W        W26270   1.401  38.408   2.676
66834W        W26271   6.371  36.458  11.456
66835W        W26272  33.875  42.823  13.443
66836W        W26273  38.422  40.513  11.545
66837W        W26274   9.699  19.655   2.847
66838W        W26275  15.205  15.183  12.912
66839W        W26276  43.854  26.648   4.167
66840W        W26277   9.851  42.931   3.659
66841W        W26278  41.360  29.082  12.519
66842W        W26279  44.347  38.895   4.265
66843W        W26280  26.030  33.590   3.675
66844W        W26281  33.066  14.315   1.219
66845W        W26282  25.965  31.549   3.362
66846W        W26283  40.426  40.376   2.271
66847W        W26284   6.255  19.211  10.548
66848W        W26285   9.236  21.142  13.839
66849W        W26286  38.561   0.772   1.352
66850W        W26287  40.826  32.535  11.969
66851W        W26288  44.429  18.097  13.954
66852W        W26289  27.142  27.042  13.374
66853W        W26290  42.959   5.789  12.038
66854W        W26291  33.080  22.535   0.297
66855W        W26292  40.457  20.609   4.190
66856W        W26293  17.606  43.814   0.409
66857W        W26294  15.681  35.392  14.389
66858W        W26295  29.527  20.666   0.945
66859W        W26296  28.059   0.876  14.844
66860W        W26297  14.720   1.462  14.307
66861W        W26298  43.804  33.603  12.524
66862W        W26299  36.538  32.119  12.494
66863W        W26300  37.079  30.513   5.143
66864W        W26301  41.378  23.182   0.854
66865W        W26302  39.931  31.619   0.333
66866W        W26303  41.973  27.477  14.881
66867W        W26304   9.182  35.088  14.462
66868W        W26305  10.832  20.140  11.070
66869W        W26306   7.767  21.738   0.758
66870W        W26307  41.824  33.434  11.961
66871W        W26308   1.779  26.204  10.475
66872W        W26309  10.655  15.719  14.892
66873W        W26310   4.918  38.020  13.998
66874W        W26311  24.044  43.288  14.820
66875W        W26312   7.229  24.026   1.433
66876W        W26313  20.135  13.151  10.034
66877W        W26314   8.237  19.107   0.900
66878W        W26315  36.035  35.891   4.119
66879W        W26316  44.338  21.180   0.304
66880W        W26317   4.253  24.636   2.271
66881W        W26318  17.778  19.160  14.329
66882W        W26319  35.599  39.392  12.852
66883W        W26320  31.975  16.147  14.945
66884W        W26321   9.192  38.933  11.907
66885W        W26322   4.374  21.539  10.513
66886W        W26323  14.816  10.801   2.288
66887W        W26324  38.518  42.856  14.932
66888W        W26325  14.174  17.139   1.374
66889W        W26326  28.984  42.881  12.839
66890W        W26327  28.561  25.658   0.408
66891W        W26328  42.420   0.984   0.936
66892W        W26329  14.157   3.317  11.441
66893W        W26330  15.250  28.002   1.782
66894W        W26331  20.115  20.548  13.942
66895W        W26332  36.018  33.425   3.754
66896W        W26333   1.751  15.811  14.941
66897W        W26334  36.486  25.570  10.407
66898W        W26335  16.654  19.769  10.919
66899W        W26336  19.100   3.291  12.858
66900W        W26337  27.158   0.398   4.670
66901W        W26338  27.020  29.952   4.121
66902W        W26339  26.025  15.693  14.441
66903W        W26340  15.211  33.097   2.227
66904W        W26341  32.479   9.703  12.381
66905W        W26342  36.464  37.040   3.651
66906W        W26343  25.017  15.582  10.524
66907W        W26344  42.837  25.641  14.933
66908W        W26345  27.486  37.943  10.594
66909W        W26346  12.268  31.524  13.510
66910W        W26347  13.148  25.075  12.003
66911W        W26348  30.046  13.165  14.855
66912W        W26349  29.095  19.247  14.439
66913W        W26350  39.914  34.430  12.567
66914W        W26351  30.113  44.401   3.149
66915W        W26352  38.540  13.325  14.339
66916W        W26353   0.933   4.298   1.923
66917W        W26354  40.877  40.500   0.879
66918W        W26355   7.697  14.161   9.992
66919W        W26356  41.525  30.503   2.303
66920W        W26357   8.662   4.749  12.004
66921W        W26358  11.243   1.381   4.797
66922W        W26359  31.117  10.844   0.257
66923W        W26360  13.824  18.217  14.493
66924W        W26361  29.098  19.777  10.998
66925W        W26362  41.035  25.124   0.347
66926W        W26363  33.032   9.873  10.926
66927W        W26364  27.575  18.640  14.012
66928W        W26365  42.009  44.371  11.918
66929W        W26366   5.239   5.354  10.600
66930W        W26367   8.406  16.276  13.439
66931W        W26368  35.461  10.741  11.933
66932W        W26369  15.701   6.691  11.472
66933W        W26370  11.145  18.741   1.290
66934W        W26371  32.437  36.464   0.779
66935W        W26372  13.180  34.061  12.829
66936W        W26373  37.508  27.193   2.825
66937W        W26374  44.757  10.285   2.270
66938W        W26375  39.390  39.435  14.471
66939W        W26376  42.518  34.864   0.386
66940W        W26377   1.740  10.158  10.516
66941W        W26378  27.621  23.508   2.882
66942W        W26379   9.685   5.807  13.438
66943W        W26380  42.416   0.918   4.315
66944W        W26381  29.541  37.070  12.498
66945W        W26382  25.607   9.165  12.371
66946W        W26383  25.198  15.319  10.416
66947W        W26384  34.007  17.115   4.649
66948W        W26385   2.444  42.470   0.334
66949W        W26386  10.175  21.740  14.853
66950W        W26387  44.895  16.811  13.913
66951W        W26388   8.265   1.467  14.379
66952W        W26389   0.294  42.491  14.985
66953W        W26390  34.934  10.740   1.739
66954W        W26391  17.760  15.296   0.945
66955W        W26392  31.933  27.498   2.315
66956W        W26393  31.100   7.367  13.519
66957W        W26394  31.605   7.341  13.411
66958W        W26395  29.597  17.776  13.022
66959W        W26396  44.899   5.212  12.936
66960W        W26397  12.265  11.352   2.280
66961W        W26398  31.408  41.843   4.758
66962W        W26399  20.684  29.565   4.728
66963W        W26400  23.016  17.271  12.844
66964W        W26401  27.003  42.485  10.974
66965W        W26402  44.377   0.344   2.758
66966W        W26403   4.376  27.968   0.245
66967W        W26404  39.015  43.963  12.090
66968W        W26405  15.644  10.382   1.419
66969W        W26406  38.944  38.946   2.688
66970W        W26407  42.291  44.795  12.069
66971W        W26408  15.741  18.732  14.372
66972W        W26409  29.543  31.066   3.774
66973W        W26410  43.350  27.672   4.292
66974W        W26411  36.953   0.277  11.912
66975W        W26412  44.449  19.069  11.946
66976W        W26413  25.176  16.605   4.190
66977W        W26414   9.648  15.591   3.852
66978W        W26415   9.242  40.371  11.401
66979W        W26416  42.797  12.737   2.212
66980W        W26417  12.163  32.627  13.000
66981W        W26418  40.516  24.495  13.453
66982W        W26419  39.425  10.304   0.805
66983W        W26420  44.300   6.789  13.949
66984W        W26421  11.331  21.221   4.327
66985W        W26422  11.696  14.704   0.395
66986W        W26423  39.352  27.580   1.400
66987W        W26424   1.478   7.300   0.414
66988W        W26425  16.189  31.964  14.984
66989W        W26426  34.918  36.060  11.472
66990W        W26427  18.682  14.701  11.057
66991W        W26428   2.241  15.780  12.835
66992W        W26429  20.707  29.475  14.766
66993W        W26430  42.888  10.662  14.919
66994W        W26431   1.403  25.555  13.865
66995W        W26432  34.075   3.383  14.822
66996W        W26433  19.207  11.155  10.902
66997W        W26434  30.573   2.344   0.901
66998W        W26435  44.458  42.473   0.738
66999W        W26436   3.389  10.278   3.650
67000W        W26437  31.547  11.128  12.983
67001W        W26438  41.838  32.403   0.920
67002W        W26439  35.008  43.803   3.731
67003W        W26440  41.449  44.820   4.798
67004W        W26441  27.115  18.098   1.307
67005W        W26442  41.805  23.691   1.775
67006W        W26443  16.230  12.313   3.821
67007W        W26444  42.526  28.515   1.222
67008W        W26445  24.078  24.615   3.813
67009W        W26446  44.967  25.595  12.411
67010W        W26447   5.760   8.308   2.760
67011W        W26448  35.098  33.546  10.151
67012W        W26449  39.538   1.961   1.335
67013W        W26450  28.670  24.080  12.096
67014W        W26451  41.510  25.493  11.398
67015W        W26452  44.906  43.311  13.007
67016W        W26453   0.417  36.989   2.208
67017W        W26454  33.039  26.992   4.750
67018W        W26455  26.199   5.375  14.423
67019W        W26456  40.452  21.681  10.637
67020W        W26457  30.558  17.566   3.337
67021W        W26458  23.213   3.726   4.221
67022W        W26459  19.580   8.396  14.502
67023W        W26460  40.892  22.625  12.916
67024W        W26461  23.014  41.931   4.731
67025W        W26462   0.925   9.323  13.491
67026W        W26463  32.503  16.596  12.826
67027W        W26464  27.686  21.596   1.257
67028W        W26465  13.600  28.604  14.323
67029W        W26466   7.813  41.350  10.595
67030W        W26467  39.342  27.573   2.406
67031W        W26468  13.619  13.781  13.414
67032W        W26469  38.902  18.566  12.090
67033W        W26470  15.615  37.346  13.361
67034W        W26471  44.894  34.595   1.768
67035W        W26472  30.990  10.375  13.911
67036W        W26473   5.693  39.353  13.793
67037W        W26474  40.384  26.160   0.755
67038W        W26475  10.774  33.526  11.478
67039W        W26476  16.601  40.861  14.989
67040W        W26477  34.421   7.819   3.321
67041W        W26478  33.116   9.705  13.434
67042W        W26479  12.654  25.680  14.826
67043W        W26480   0.301   4.228  13.031
67044W        W26481  38.998   3.434  10.639
67045W        W26482  39.428  13.747  12.984
67046W        W26483  43.345  19.731  12.410
67047W        W26484  39.493   0.868   1.265
67048W        W26485  44.754   5.841  11.998
67049W        W26486  12.714  38.984  13.045
67050W        W26487  19.103   2.410  14.922
67051W        W26488   3.388  15.601  14.874
67052W        W26489  16.667  44.503   5.223
67053W        W26490  36.959  29.175  13.796
67054W        W26491  11.218  40.414  13.440
67055W        W26492  11.178  14.612   3.829
67056W        W26493  40.856   7.243  12.368
67057W        W26494  36.098  43.891  14.003
67058W        W26495  14.243  32.955   0.883
67059W        W26496  29.034   8.205  13.896
67060W        W26497  10.231  21.213  11.388
67061W        W26498   6.398  19.642  13.018
67062W        W26499  27.612  20.245   2.882
67063W        W26500  36.037   5.233  12.016
67064W        W26501  36.996  33.904  13.024
67065W        W26502   7.335  25.119   0.927
67066W        W26503  38.018  21.723  13.414
67067W        W26504  13.726  40.531   2.834
67068W        W26505  23.075   1.317  11.437
67069W        W26506  39.831  25.113  11.961
67070W        W26507  17.636  24.128  13.796
67071W        W26508   6.376  30.914  14.462
67072W        W26509   4.884  13.229  13.035
67073W        W26510  30.532  24.651   4.355
67074W        W26511  41.525  32.391  13.545
67075W        W26512  41.013  16.088   0.458
67076W        W26513  39.991  12.163   2.700
67077W        W26514  22.223  12.283   4.774
67078W        W26515  33.483  38.557   1.316
67079W        W26516  24.578  41.384  11.427
67080W        W26517  40.419  18.296   0.956
67081W        W26518  25.509  34.516  11.062
67082W        W26519  29.656  29.475  13.959
67083W        W26520  15.633   2.886  10.544
67084W        W26521   1.843  26.036   0.372
67085W        W26522  33.063  37.435  14.012
67086W        W26523  11.702  33.456  10.046
67087W        W26524  38.885  43.768   1.314
67088W        W26525  25.980  35.558  10.139
67089W        W26526   6.677  26.645  11.411
67090W        W26527  42.362  13.699  10.922
67091W        W26528  26.634  35.078  13.405
67092W        W26529  24.130  39.933   2.797
67093W        W26530   6.781  15.218   2.365
67094W        W26531  41.825  13.620   1.220
67095W        W26532   9.151  23.640   1.235
67096W        W26533  18.647   2.328  14.932
67097W        W26534  22.050  14.820   2.377
67098W        W26535  40.501  31.050  10.485
67099W        W26536  23.605  27.632   2.797
67100W        W26537  35.454  34.108   4.286
67101W        W26538  27.945  33.909  12.499
67102W        W26539  29.087  12.816   3.845
67103W        W26540  18.217  35.998  14.490
67104W        W26541   0.249  33.503  11.447
67105W        W26542  42.337   2.740   1.294
67106W        W26543  18.092  14.664  12.091
67107W        W26544   6.904  30.488   3.824
67108W        W26545  18.258  17.697   5.099
67109W        W26546   4.865   0.841  11.109
67110W        W26547  16.618  37.561  10.895
67111W        W26548  30.056   3.724   0.924
67112W        W26549  16.193   5.919   4.264
67113W        W26550  28.504   2.776  12.042
67114W        W26551  20.262  19.151   1.932
67115W        W26552   6.764  24.104   0.477
67116W        W26553  39.994  17.127  13.844
67117W        W26554  40.468  27.619  12.847
67118W        W26555  16.651  42.008   1.789
67119W        W26556  40.492  14.701   3.153
67120W        W26557  30.583  38.908  14.007
67121W        W26558  10.248   9.802  11.906
67122W        W26559  42.382  30.431   4.706
67123W        W26560  29.011  44.848   3.319
67124W        W26561   7.863  43.010   3.779
67125W        W26562  33.011  22.665  14.419
67126W        W26563  25.151  43.820   3.170
67127W        W26564  15.214  22.742   3.815
67128W        W26565  34.418  22.006  14.353
67129W        W26566  42.414  23.211  11.578
67130W        W26567  40.421  30.058  11.499
67131W        W26568  32.133  12.189  13.446
67132W        W26569  24.974  30.569  14.478
67133W        W26570  18.141  18.273   4.234
67134W        W26571  25.164  21.149   1.767
67135W        W26572  13.651  19.078   0.788
67136W        W26573  25.087  27.688   4.836
67137W        W26574   4.405  32.491   0.333
67138W        W26575   5.898  40.483  13.840
67139W        W26576  35.557  26.537  13.900
67140W        W26577   0.407  41.516   1.812
67141W        W26578  13.297   6.354  10.467
67142W        W26579  24.051  34.493   0.406
67143W        W26580  22.105  40.892  13.499
67144W        W26581  35.074  37.514  12.922
67145W        W26582  16.592  20.215  13.007
67146W        W26583   0.297   1.307   4.327
67147W        W26584   5.359   0.422  10.490
67148W        W26585  20.749   6.410   1.400
67149W        W26586  39.945  36.028  14.891
67150W        W26587  33.401  38.342   0.729
67151W        W26588  24.156  30.623  12.533
67152W        W26589  25.526  27.499   2.791
67153W        W26590  34.038  42.968  11.401
67154W        W26591   4.420  33.555   4.275
67155W        W26592  13.165  29.148   2.695
67156W        W26593  16.620  20.079  13.379
67157W        W26594   4.888  43.368   1.704
67158W        W26595  35.413  37.560  13.374
67159W        W26596  15.749  33.005  11.566
67160W        W26597   1.332  34.438  12.558
67161W        W26598  42.979  43.864   3.780
67162W        W26599  34.099  30.556   1.231
67163W        W26600  10.278  34.564   3.201
67164W        W26601   1.962  44.319   3.833
67165W        W26602  30.623   6.327   2.257
67166W        W26603  12.692  40.873   1.318
67167W        W26604  15.691  13.702  13.911
67168W        W26605   0.421  43.991   4.626
67169W        W26606  40.804   7.789   1.352
67170W        W26607   2.871  39.414  11.917
67171W        W26608  34.099  20.166  14.322
67172W        W26609  23.527  12.141   3.346
67173W        W26610   3.869  11.199   1.288
67174W        W26611  37.961   3.436   1.893
67175W        W26612   8.361   3.220  12.882
67176W        W26613  22.135  18.730   4.600
67177W        W26614  26.687   6.387  10.523
67178W        W26615  10.138  12.687  10.449
67179W        W26616  19.550   0.884   1.896
67180W        W26617  30.034  29.995  12.347
67181W        W26618   6.309   8.817  11.959
67182W        W26619  34.087   9.213   3.634
67183W        W26620  38.332  10.650   3.803
67184W        W26621  42.022  34.523  12.571
67185W        W26622  17.225  12.657   0.294
67186W        W26623  17.084  18.056   1.867
67187W        W26624  25.024  31.944  12.352
67188W        W26625  21.198  27.543  13.804
67189W        W26626  41.419   9.757  11.121
67190W        W26627  18.126   2.359  13.938
67191W        W26628  13.317  37.510  11.988
67192W        W26629  28.057  16.268  10.485
67193W        W26630  18.186  31.408   3.162
67194W        W26631   3.320  21.065  14.334
67195W        W26632  14.297   5.835  10.620
67196W        W26633  31.935  33.552  10.619
67197W        W26634  12.848   3.311  13.961
67198W        W26635  33.944  15.324   1.300
67199W        W26636  34.516   9.306   1.402
67200W        W26637   8.203   4.799  10.554
67201W        W26638  44.457  25.488   0.942
67202W        W26639  21.198  10.156  10.591
67203W        W26640  17.231  44.799   0.313
67204W        W26641  22.162   3.838   1.349
67205W        W26642  24.576  16.633  10.632
67206W        W26643  42.963  18.612  13.030
67207W        W26644  40.443  29.009  10.414
67208W        W26645  20.565  20.168  11.889
67209W        W26646   3.229   0.951   0.414
67210W        W26647  24.522  17.107   3.247
67211W        W26648   0.273  39.989  10.620
67212W        W26649  20.118  20.209   3.859
67213W        W26650  11.230  42.027   4.117
67214W        W26651  11.326  10.360  13.896
67215W        W26652  36.860  10.375  12.491
67216W        W26653  37.026  36.570   3.653
67217W        W26654  10.744   3.779   1.404
67218W        W26655  20.551  37.944   1.860
67219W        W26656  36.549   5.249   0.475
67220W        W26657  37.916  34.387   0.469
67221W        W26658  20.117  27.111   4.780
67222W        W26659   9.169  10.873  11.486
67223W        W26660  13.298  23.007  11.109
67224W        W26661  10.282  18.741   0.801
67225W        W26662  25.554  44.494   0.790
67226W        W26663  22.207   0.456   4.275
67227W        W26664  43.890  28.998   1.846
67228W        W26665  29.078  28.094   1.285
67229W        W26666  26.201  37.358  13.025
67230W        W26667  38.951  36.076  11.555
67231W        W26668  42.897   2.383  12.559
67232W        W26669  34.870  13.690   0.416
67233W        W26670  44.987  20.113   3.189
67234W        W26671   5.201  13.268   0.331
67235W        W26672   7.883  32.896   2.696
67236W        W26673  11.855  30.981  13.030
67237W        W26674  33.066  26.584   0.954
67238W        W26675  43.407   2.817  12.042
67239W        W26676  39.467  34.942  13.858
67240W        W26677  23.548   4.364  13.386
67241W        W26678  22.558  31.037   0.263
67242W        W26679  25.712  42.294  14.796
67243W        W26680  29.523  24.536   1.341
67244W        W26681   8.268  43.340  14.319
67245W        W26682   7.380  24.130  11.861
67246W        W26683  14.769  12.250  14.419
67247W        W26684  39.369  44.001  12.009
67248W        W26685   4.379   0.978  10.909
67249W        W26686   9.825  19.158  11.963
67250W        W26687  13.620  17.777   0.247
67251W        W26688   2.869   3.806   0.762
67252W        W26689  19.190  32.984   2.390
67253W        W26690  37.032  19.725  13.975
67254W        W26691  34.468   0.771   2.754
67255W        W26692   5.286  13.744  12.411
67256W        W26693  12.167  33.568   2.793
67257W        W26694  11.796  22.547   4.245
67258W        W26695  20.580  31.955   1.721
67259W        W26696  19.050  21.199   5.260
67260W        W26697   5.283   7.780   0.471
67261W        W26698  13.805  32.933  11.571
67262W        W26699  16.645  15.088  10.965
67263W        W26700  37.031  11.192   4.659
67264W        W26701  22.746  29.935  11.517
67265W        W26702  41.414   2.403  13.028
67266W        W26703  11.185  40.911  14.306
67267W        W26704   7.727   2.437   2.831
67268W        W26705  35.043  22.020  14.990
67269W        W26706  19.229  22.678  14.870
67270W        W26707  36.938  25.084   1.850
67271W        W26708  17.296  19.720   1.900
67272W        W26709  24.170  27.158   4.837
67273W        W26710  39.525  21.067  12.462
67274W        W26711  39.505  22.161   0.837
67275W        W26712  29.066  25.217   1.328
67276W        W26713  27.484   0.465  10.514
67277W        W26714  16.219  28.108   3.633
67278W        W26715  25.707  11.737   3.244
67279W        W26716   6.388  43.372   4.238
67280W        W26717  38.406  21.584  12.081
67281W        W26718   2.234  10.803   1.850
67282W        W26719  37.505  12.670  13.064
67283W        W26720  38.074  24.610  11.931
67284W        W26721  37.057  38.521   4.154
67285W        W26722  42.931   2.821  11.411
67286W        W26723  41.435  22.012   2.884
67287W        W26724  30.476  12.617   4.606
67288W        W26725   1.447  20.642   4.619
67289W        W26726  14.280  23.013   3.316
67290W        W26727   2.413   8.328  12.570
67291W        W26728  18.236   4.353   3.666
67292W        W26729  18.680  34.965   2.194
67293W        W26730  38.329   9.848   0.878
67294W        W26731  35.462   0.325   4.831
67295W        W26732   7.365  38.510  10.978
67296W        W26733  20.069  21.623  12.411
67297W        W26734  14.161  38.886  12.963
67298W        W26735   7.735   7.734   4.303
67299W        W26736  26.094  20.267   2.340
67300W        W26737  36.887  31.450  11.884
67301W        W26738  18.773  11.810   2.222
67302W        W26739  18.738  43.275  14.014
67303W        W26740  12.314  19.112  14.351
67304W        W26741  30.029  39.999   0.277
67305W        W26742   7.235  32.923   4.302
67306W        W26743  44.396   4.888  12.081
67307W        W26744  27.563   1.880   4.177
67308W        W26745   6.908  30.453  10.033
67309W        W26746  25.173  31.129   0.419
67310W        W26747  40.009   3.270  13.870
67311W        W26748  42.483  26.173   0.262
67312W        W26749   3.289  15.711   3.158
67313W        W26750  15.587  23.139  10.486
67314W        W26751   9.209   2.894   0.382
67315W        W26752  34.486  21.054  12.454
67316W        W26753  18.554  35.461   0.837
67317W        W26754  18.657  27.047   4.627
67318W        W26755  26.089  42.901  12.071
67319W        W26756  42.793   5.899  11.386
67320W        W26757  35.601  31.488   2.204
67321W        W26758   9.192   6.408   1.348
67322W        W26759  30.922  37.395   1.926
67323W        W26760   3.791  40.531  10.086
67324W        W26761  19.553   2.780   1.703
67325W        W26762  29.986  12.278   2.179
67326W        W26763  35.058  33.952  11.103
67327W        W26764   4.860  44.002   2.384
67328W        W26765  29.610  34.942   4.685
67329W        W26766  42.355  22.712  11.454
67330W        W26767  25.633  25.641  13.877
67331W        W26768  43.405  17.227   1.219
67332W        W26769   5.914  25.084   1.919
67333W        W26770  12.704  31.449  11.055
67334W        W26771  23.661  35.894   2.197
67335W        W26772  28.125  28.599  13.438
67336W        W26773  41.317  14.126  14.915
67337W        W26774  10.275   7.230   1.888
67338W        W26775   6.690  32.457   2.417
67339W        W26776  16.642   5.399   1.313
67340W        W26777   9.656  41.013   3.673
67341W        W26778  21.713  12.666   2.806
67342W        W26779  19.262  42.423   3.195
67343W        W26780  36.416  12.756   4.689
67344W        W26781  26.987  23.177   1.210
67345W        W26782  25.574  23.108  10.978
67346W        W26783  40.814  25.604   2.183
67347W        W26784  29.502   1.473  12.943
67348W        W26785  14.811  10.720  14.516
67349W        W26786  26.087  14.737  12.417
67350W        W26787  20.138  39.898   3.834
67351W        W26788   6.745  36.898   0.903
67352W        W26789  11.661  31.107  14.010
67353W        W26790  32.139  15.583   1.732
67354W        W26791  27.994  10.278   3.148
67355W        W26792  11.185  24.690  14.910
67356W        W26793  36.518  16.805  11.982
67357W        W26794  40.516   9.293   3.156
67358W        W26795  26.197   2.777   1.709
67359W        W26796  36.980  21.068   1.251
67360W        W26797  40.433  30.009   0.761
67361W        W26798  17.726  12.687  13.542
67362W        W26799  11.659  27.047   0.339
67363W        W26800  34.405  13.266   2.779
67364W        W26801  28.436  32.391  10.620
67365W        W26802  44.989  14.832  11.945
67366W        W26803  41.532  35.880  10.120
67367W        W26804  39.422   2.388  13.499
67368W        W26805  12.745   1.813  11.945
67369W        W26806  10.747  20.058  13.023
67370W        W26807  29.006   4.430  13.311
67371W        W26808  43.003  15.814  10.468
67372W        W26809  31.628  10.711   4.704
67373W        W26810  15.715  37.498   1.813
67374W        W26811  44.319  30.151  11.518
67375W        W26812  32.413  22.565   3.867
67376W        W26813  42.397   0.343  12.548
67377W        W26814  34.103   8.170  14.514
67378W        W26815  15.779  41.924  11.866
67379W        W26816  16.289   3.332   2.835
67380W        W26817   5.779  41.317   3.863
67381W        W26818  13.762   1.426   4.248
67382W        W26819  42.882  24.693  11.588
67383W        W26820  18.174  33.131  10.563
67384W        W26821  16.258   4.371   3.303
67385W        W26822  19.098  28.184   2.276
67386W        W26823  17.630  20.626  14.774
67387W        W26824  29.090   1.275  13.493
67388W        W26825   8.269  29.030  14.330
67389W        W26826  28.157   1.328  10.904
67390W        W26827  12.635   7.799  14.479
67391W        W26828   1.761  20.252  14.386
67392W        W26829  18.085  32.447  12.006
67393W        W26830  11.363  21.652  12.413
67394W        W26831  23.994   5.285  12.384
67395W        W26832  44.781  44.924  10.928
67396W        W26833  31.967  34.421   9.937
67397W        W26834  15.752  41.398   4.787
67398W        W26835   8.852   6.234   0.765
67399W        W26836  31.482   6.401  10.517
67400W        W26837  18.092   6.855   2.824
67401W        W26838  25.981  41.479  13.001
67402W        W26839  16.185  10.855   0.408
67403W        W26840  34.549   6.402  13.020
67404W        W26841  15.749  31.406  11.989
67405W        W26842  15.606  19.108  10.485
67406W        W26843  38.382  11.867   1.347
67407W        W26844  11.280  18.222   2.324
67408W        W26845  25.215  35.002  14.937
67409W        W26846  27.492  17.616  10.448
67410W        W26847  16.156  37.037   0.880
67411W        W26848   8.245  28.674  12.378
67412W        W26849  32.030  14.739   3.826
67413W        W26850  44.278  30.518  12.454
67414W        W26851  18.729   5.687  14.342
67415W        W26852  17.164  37.865  11.377
67416W        W26853   8.300  26.583   3.635
67417W        W26854   8.858  44.347  11.434
67418W        W26855   6.796  37.939  10.920
67419W        W26856   8.353   0.434   3.774
67420W        W26857  42.490  40.906   2.326
67421W        W26858  12.783   3.266  11.576
67422W        W26859  38.496  35.577   0.378
67423W        W26860   8.236  16.661   1.830
67424W        W26861  36.460  10.285   3.289
67425W        W26862  29.666  20.228  12.021
67426W        W26863  11.738  10.299   4.740
67427W        W26864   6.298  42.285  11.918
67428W        W26865  43.810  40.347  12.950
67429W        W26866  30.006  40.994   9.622
67430W        W26867  33.968  20.617   2.828
67431W        W26868  26.013  22.178   1.695
67432W        W26869   3.946  22.065  13.991
67433W        W26870  13.614  42.927  14.007
67434W        W26871  26.026  42.884   1.293
67435W        W26872  14.729  25.658  14.298
67436W        W26873  40.451  12.118  12.938
67437W        W26874   2.325   0.445  12.378
67438W        W26875   0.377  33.581   3.382
67439W        W26876  15.600   9.839  14.982
67440W        W26877  23.201  18.581   2.731
67441W        W26878  24.061  18.176  12.841
67442W        W26879  39.868  14.329   1.253
67443W        W26880  22.747  39.396   1.912
67444W        W26881  20.145  31.106  11.984
67445W        W26882  16.765  36.535  14.379
67446W        W26883  13.644  25.032   2.856
67447W        W26884  36.973  38.880  13.810
67448W        W26885  34.536  41.471   4.610
67449W        W26886  44.358  25.181   3.811
67450W        W26887  31.441  41.321  11.468
67451W        W26888  23.658  11.753  12.417
67452W        W26889   1.879  17.226   2.416
67453W        W26890  44.808  17.557   4.128
67454W        W26891  40.453   5.284  12.055
67455W        W26892  30.448  22.641   5.112
67456W        W26893  37.967  10.140  12.991
67457W        W26894  29.078  17.256   2.237
67458W        W26895   9.822  16.252  13.356
67459W        W26896  31.522   1.246  12.864
67460W        W26897  38.878   9.785   4.812
67461W        W26898  22.011  16.257  10.596
67462W        W26899  20.028  40.533   2.396
67463W        W26900  42.297  15.674  12.877
67464W        W26901  41.803  25.018  14.380
67465W        W26902  40.827  43.868  13.410
67466W        W26903  10.311  18.142  11.579
67467W        W26904  10.377   0.986   2.230
67468W        W26905  19.682  40.548  11.907
67469W        W26906  19.761  43.821  13.510
67470W        W26907  32.406  36.572  10.999
67471W        W26908  43.838  10.140   4.743
67472W        W26909  32.454   4.822  13.404
67473W        W26910   1.399  19.590  13.417
67474W        W26911   9.794  40.510   3.242
67475W        W26912  27.542  30.025   3.848
67476W        W26913  44.003  23.561   2.752
67477W        W26914   2.881   8.802  13.947
67478W        W26915  16.697  20.225  14.934
67479W        W26916  43.332  39.505  14.947
67480W        W26917   0.754   2.273  11.048
67481W        W26918  36.418   0.818  11.578
67482W        W26919  24.115  11.188   2.841
67483W        W26920  22.052  13.186  10.532
67484W        W26921  17.254   3.800   1.310
67485W        W26922   6.297  42.929  13.430
67486W        W26923  31.086  35.011  14.492
67487W        W26924  28.043  20.162  10.520
67488W        W26925  17.107  12.334   0.937
67489W        W26926  16.658  43.768   0.952
67490W        W26927  33.999  27.048  11.544
67491W        W26928  23.231   6.849   2.226
67492W        W26929   7.679  14.778  11.958
67493W        W26930  23.184  26.512  11.423
67494W        W26931  16.730  34.521   1.919
67495W        W26932  19.107  21.247  10.538
67496W        W26933   1.387  29.513  12.906
67497W        W26934  42.802   0.985  14.950
67498W        W26935  42.882  21.527  10.565
67499W        W26936  14.247  26.031   1.448
67500W        W26937  16.294   6.921  13.050
67501W        W26938   6.331  11.814   1.749
67502W        W26939  14.625  13.271  14.806
67503W        W26940   2.956  40.899   4.678
67504W        W26941  41.469  20.588  10.497
67505W        W26942  29.528  11.816   9.946
67506W        W26943  18.191  37.898  12.576
67507W        W26944  24.983   7.245   3.187
67508W        W26945  16.317  34.555   1.402
67509W        W26946  31.611  11.781  14.370
67510W        W26947   1.971  31.428  14.355
67511W        W26948  29.984  10.875  12.403
67512W        W26949  43.309  16.636   3.351
67513W        W26950  20.081   7.889   3.214
67514W        W26951  31.929  24.560  11.938
67515W        W26952  17.800   1.460  12.422
67516W        W26953  35.980  36.426  14.468
67517W        W26954  41.800   6.274  12.574
67518W        W26955  21.192   0.296  13.801
67519W        W26956  19.575  24.107   5.265
67520W        W26957  29.102  20.072   0.795
67521W        W26958  21.731   7.200  10.425
67522W        W26959  14.300  22.665   2.845
67523W        W26960  42.886  43.330  13.401
67524W        W26961  25.158  36.914  11.886
67525W        W26962  14.706   9.179   2.687
67526W        W26963  10.141  16.577  13.847
67527W        W26964  30.130  19.133  13.042
67528W        W26965  12.205  38.375   3.321
67529W        W26966  23.121   4.810  12.509
67530W        W26967  19.214  15.183  12.872
67531W        W26968  34.459   4.344  12.419
67532W        W26969  39.905  21.698   3.714
67533W        W26970  41.363  41.498   4.271
67534W        W26971   1.271  19.137  12.931
67535W        W26972  41.913   8.698  12.868
67536W        W26973  29.651   1.973  11.517
67537W        W26974  27.488   2.414   0.400
67538W        W26975  28.127  10.730   9.565
67539W        W26976  24.611  13.239   1.406
67540W        W26977  44.990   5.412   0.348
67541W        W26978  31.125  19.107   3.237
67542W        W26979  43.269  41.975  13.500
67543W        W26980   1.441   6.701   4.343
67544W        W26981  41.945  14.318   0.797
67545W        W26982  28.544  43.827   0.924
67546W        W26983  12.159  35.904   4.150
67547W        W26984  29.561  13.322   0.425
67548W        W26985   5.221  32.047  12.517
67549W        W26986  30.420   3.716   3.361
67550W        W26987   1.249  13.724  13.919
67551W        W26988  30.089  31.093  10.581
67552W        W26989  26.694  17.083  13.885
67553W        W26990  17.776  20.125   0.274
67554W        W26991   4.371   3.869  10.505
67555W        W26992  44.441  16.161  12.977
67556W        W26993   3.402  34.940   2.851
67557W        W26994  32.135   2.258   3.216
67558W        W26995  20.708  41.512   3.822
67559W        W26996  11.183  30.925   0.480
67560W        W26997  18.732  38.989  12.064
67561W        W26998  27.100  28.436  11.988
67562W        W26999   9.661   0.480   0.301
67563W        W27000  10.792  40.382  10.063
67564W        W27001  19.170  33.430  11.935
67565W        W27002  32.098  29.494   2.883
67566W        W27003  35.891   5.923   4.211
67567W        W27004  41.831  31.444  14.935
67568W        W27005  21.073  25.501  12.858
67569W        W27006  37.526  31.499  14.274
67570W        W27007  28.605  34.548   3.706
67571W        W27008  24.118  32.565  13.334
67572W        W27009  39.841  38.528  11.085
67573W        W27010   3.329  28.943   3.691
67574W        W27011  39.040  16.605   0.316
67575W        W27012  42.429   7.301  13.883
67576W        W27013  12.712  18.122   4.707
67577W        W27014  22.594  39.849   1.313
67578W        W27015  30.082  30.164   2.330
67579W        W27016  27.134  19.709  12.450
67580W        W27017  23.153  18.702  14.825
67581W        W27018   8.403  25.032   2.836
67582W        W27019   3.341   0.884  12.935
67583W        W27020  20.149  37.977   2.222
67584W        W27021  34.480  19.740  13.310
67585W        W27022  20.624   8.312  10.452
67586W        W27023  43.415   0.831  10.082
67587W        W27024  41.972  34.931   0.346
67588W        W27025  43.870  24.624  11.908
67589W        W27026  43.807   3.439  14.506
67590W        W27027  31.527   7.364   0.929
67591W        W27028   1.954  27.610   4.788
67592W        W27029  22.577   3.752   1.768
67593W        W27030   4.855  23.003  10.631
67594W        W27031  39.952  22.202   0.390
67595W        W27032  24.667  23.689  11.959
67596W        W27033  41.794  42.959   0.938
67597W        W27034  23.136   1.926   3.790
67598W        W27035   3.237  20.187  11.480
67599W        W27036  31.914  19.707   3.370
67600W        W27037   3.293  12.271   4.328
67601W        W27038  37.547   5.215   0.959
67602W        W27039  16.298  16.710  14.417
67603W        W27040  42.812  19.189   1.406
67604W        W27041  31.533   2.324  10.632
67605W        W27042   2.347   5.254  13.392
67606W        W27043   4.749  29.920  11.993
67607W        W27044   5.769  44.774   0.360
67608W        W27045  40.533  40.865   1.248
67609W        W27046  24.481   9.326  10.980
67610W        W27047  36.508  42.978   2.784
67611W        W27048  44.440  18.296   5.307
67612W        W27049   3.892  16.130  11.956
67613W        W27050  41.345  20.730  14.911
67614W        W27051  12.290  11.328  12.955
67615W        W27052  40.916  44.772  11.970
67616W        W27053   9.213  20.691   1.873
67617W        W27054  37.528  40.966  13.843
67618W        W27055  18.757   4.869   2.713
67619W        W27056  43.468  23.210  13.999
67620W        W27057   6.353  14.269   3.798
67621W        W27058  25.675  24.053  14.459
67622W        W27059  23.572  24.629  11.497
67623W        W27060  16.219  14.776  12.936
67624W        W27061   0.317   2.457   2.863
67625W        W27062  28.471  11.717  12.453
67626W        W27063  34.446  15.249   3.789
67627W        W27064  16.251  37.492  11.906
67628W        W27065  40.463  43.915  12.979
67629W        W27066   2.857  29.118   4.832
67630W        W27067   9.747  33.516  12.869
67631W        W27068  32.129  11.832  13.012
67632W        W27069  26.206  18.616  13.973
67633W        W27070  20.720  13.826   4.707
67634W        W27071  36.405  13.756   4.750
67635W        W27072  42.973  32.598  11.861
67636W        W27073  15.295  29.520   4.735
67637W        W27074  10.254  40.955  11.480
67638W        W27075  31.518  38.019  11.957
67639W        W27076  34.996  27.179  10.513
67640W        W27077   1.327  13.296  11.406
67641W        W27078   1.751  21.205   3.172
67642W        W27079  23.599  20.128  11.068
67643W        W27080  10.165  33.005  14.992
67644W        W27081  28.985  30.051   2.356
67645W        W27082  15.140  26.115   1.733
67646W        W27083  24.069  38.411   1.238
67647W        W27084  40.846  13.773   1.353
67648W        W27085   9.216  32.606  13.904
67649W        W27086   7.730  24.016   4.117
67650W        W27087  18.656  30.431  10.418
67651W        W27088  24.651   9.198   1.309
67652W        W27089   8.744  38.020  11.488
67653W        W27090  44.955  15.819  13.321
67654W        W27091   6.713  40.871  12.993
67655W        W27092  28.678  39.327  10.020
67656W        W27093  40.909  36.448   4.322
67657W        W27094   5.762   3.710  13.841
67658W        W27095  17.582  34.081   1.831
67659W        W27096  28.650  44.414   3.794
67660W        W27097  36.844   4.881  13.844
67661W        W27098  33.532  30.420  14.968
67662W        W27099  21.167  41.980   2.753
67663W        W27100  25.008   9.703   1.271
67664W        W27101  16.587  31.979  10.952
67665W        W27102  16.636   3.368  14.990
67666W        W27103  10.765  28.597   3.280
67667W        W27104  28.638   5.257  12.402
67668W        W27105  21.250  44.848   3.733
67669W        W27106  38.017   2.470   0.315
67670W        W27107   4.848  24.694   1.825
67671W        W27108  34.939  23.098  14.867
67672W        W27109   2.724  25.495   4.329
67673W        W27110  25.694  20.066   2.243
67674W        W27111  13.747   9.306   2.397
67675W        W27112  29.623   6.831  14.381
67676W        W27113  27.646  28.022   2.775
67677W        W27114   4.259  28.536  11.579
67678W        W27115  36.875  26.703  14.928
67679W        W27116  14.740  40.969  12.931
67680W        W27117   6.331  13.838   4.668
67681W        W27118  13.608   7.316   3.205
67682W        W27119   2.254  11.316  12.002
67683W        W27120  10.356  36.370  14.341
67684W        W27121   6.699  22.146   0.927
67685W        W27122   8.161   0.988   1.728
67686W        W27123  30.442   6.754  14.030
67687W        W27124  33.607  30.082   4.169
67688W        W27125  41.956   2.329  12.077
67689W        W27126  33.579  33.451  12.532
67690W        W27127  14.781  37.546   0.737
67691W        W27128   4.404  35.872  12.476
67692W        W27129  28.064  35.457  13.920
67693W        W27130  25.964   4.213   2.351
67694W        W27131  16.675  38.071   0.456
67695W        W27132  16.281  24.216  12.486
67696W        W27133  12.285   0.791   0.915
67697W        W27134  15.597   5.786   0.777
67698W        W27135  11.860  23.071  13.484
67699W        W27136  38.832  17.709   1.726
67700W        W27137   1.358  12.300  14.769
67701W        W27138  17.126  24.116  13.793
67702W        W27139  13.152   8.189   1.811
67703W        W27140  20.258  34.044  14.021
67704W        W27141  25.643  26.151  10.591
67705W        W27142   6.876  44.768  12.439
67706W        W27143  33.105  23.123   9.602
67707W        W27144  38.512  38.554   0.906
67708W        W27145   7.713  17.283   3.275
67709W        W27146  31.647   5.212   0.339
67710W        W27147  14.129   7.226  14.487
67711W        W27148  13.274  18.128   3.743
67712W        W27149  13.833   7.794  12.509
67713W        W27150  32.104  41.533  13.853
67714W        W27151  31.592  37.539   1.896
67715W        W27152  16.299  32.464   2.262
67716W        W27153   6.311  44.941   0.331
67717W        W27154  27.942   0.350  12.428
67718W        W27155   3.781   1.461   0.819
67719W        W27156  10.208   1.830   0.376
67720W        W27157   2.790   5.193   1.789
67721W        W27158   0.330  12.161   3.784
67722W        W27159   0.477   6.260   3.791
67723W        W27160  22.023  23.684   0.899
67724W        W27161  25.562  36.572   5.089
67725W        W27162   3.292  32.523  12.949
67726W        W27163  27.096  44.485  11.077
67727W        W27164   4.770  24.590  12.835
67728W        W27165  31.984  16.104   4.686
67729W        W27166  19.547  32.473  10.637
67730W        W27167   4.937   8.176  11.403
67731W        W27168  32.467  22.688  10.502
67732W        W27169  16.307  34.103   1.732
67733W        W27170  29.570  14.822   2.830
67734W        W27171  18.614   3.750  12.380
67735W        W27172   8.858  19.680  14.413
67736W        W27173  25.084  36.520  13.466
67737W        W27174  32.980  32.919  13.433
67738W        W27175  12.121  32.501   1.258
67739W        W27176  17.629   4.715  10.441
67740W        W27177  42.526  41.902  12.995
67741W        W27178  44.480  32.550   0.854
67742W        W27179  29.023  28.111  14.854
67743W        W27180  22.218   9.813  11.564
67744W        W27181  32.947  33.010   0.424
67745W        W27182  13.251  12.345  13.001
67746W        W27183   2.958  27.618  12.097
67747W        W27184  16.734  11.229  12.533
67748W        W27185  18.626  25.964   3.733
67749W        W27186   2.926  22.661  11.937
67750W        W27187  18.695  23.669  11.377
67751W        W27188  29.092  23.701   0.934
67752W        W27189  19.709  34.582  11.542
67753W        W27190  28.641  36.860   1.289
67754W        W27191  25.149  41.496   2.685
67755W        W27192   7.872  14.298   5.303
67756W        W27193  14.634  34.078   0.828
67757W        W27194  24.105   5.331  13.458
67758W        W27195  31.066  28.088   2.204
67759W        W27196  31.948  26.022   0.259
67760W        W27197  33.441  41.294  14.965
67761W        W27198  22.514  22.061  13.483
67762W        W27199  12.736  36.944  14.987
67763W        W27200  33.982   4.274  10.518
67764W        W27201   9.319  13.338  14.381
67765W        W27202  24.678  12.319  14.978
67766W        W27203  39.383  40.403  11.371
67767W        W27204  25.013  30.059  12.519
67768W        W27205  21.023  11.268  11.382
67769W        W27206  14.629  39.330   2.371
67770W        W27207   2.767  12.218   1.836
67771W        W27208  14.224  19.153   3.695
67772W        W27209  19.717  13.761  10.891
67773W        W27210  20.663  19.611  11.861
67774W        W27211  30.477   4.698   1.714
67775W        W27212   0.800  33.608   0.265
67776W        W27213  36.908  18.206   0.857
67777W        W27214  20.264  33.879  12.868
67778W        W27215  32.509  23.144   0.264
67779W        W27216  39.959   7.321  13.535
67780W        W27217  15.716  25.972   0.761
67781W        W27218  40.941  20.615  11.991
67782W        W27219  26.117   8.338   3.164
67783W        W27220  21.167  37.413  13.403
67784W        W27221  15.605  37.043  10.903
67785W        W27222  32.561  25.691   1.306
67786W        W27223  11.744  33.949  13.312
67787W        W27224  29.121  12.165   0.271
67788W        W27225  12.226  29.077   0.905
67789W        W27226   8.799  16.174   4.133
67790W        W27227  32.600  42.299   0.818
67791W        W27228  24.196   8.824   2.881
67792W        W27229  22.016  11.839   0.257
67793W        W27230   7.775  42.432   0.916
67794W        W27231   6.242  19.668  13.339
67795W        W27232   4.389   2.896  13.034
67796W        W27233  19.212  30.612  11.472
67797W        W27234  17.617  39.000  10.642
67798W        W27235  28.450  17.794   1.931
67799W        W27236   2.238   5.339   3.356
67800W        W27237  31.454   2.946   2.880
67801W        W27238  44.001   5.337  13.888
67802W        W27239  36.991  31.092  12.085
67803W        W27240  12.660  10.747   0.310
67804W        W27241  19.041  23.626   5.144
67805W        W27242  21.023  12.744  13.829
67806W        W27243   7.762   9.205  12.423
67807W        W27244  12.155   1.247  14.815
67808W        W27245  35.086  21.248   1.411
67809W        W27246  14.097  23.988   1.308
67810W        W27247  34.104  11.244   0.938
67811W        W27248  23.242  18.627  13.461
67812W        W27249   9.257  12.842   3.280
67813W        W27250  11.353   5.437   4.248
67814W        W27251  37.868  28.583  13.411
67815W        W27252  11.172   1.766  11.432
67816W        W27253   9.806  37.955  12.066
67817W        W27254  25.493  14.209  13.435
67818W        W27255  11.707  39.388   1.883
67819W        W27256  42.472  40.930   3.831
67820W        W27257  42.965  36.078   2.808
67821W        W27258  13.277  30.657   1.891
67822W        W27259  31.077  22.501  13.034
67823W        W27260  16.702   2.317  12.462
67824W        W27261   0.290  24.542  10.586
67825W        W27262  14.215  30.455  12.873
67826W        W27263  23.565   5.871  14.853
67827W        W27264   0.946  25.502   4.197
67828W        W27265  18.114  44.933   2.334
67829W        W27266  31.108  11.207   2.308
67830W        W27267  41.409  16.813  14.990
67831W        W27268  20.650   8.224   0.887
67832W        W27269  12.783   5.898   4.733
67833W        W27270  16.758  21.662   4.746
67834W        W27271   9.767  36.566   4.140
67835W        W27272  28.667  11.649  14.342
67836W        W27273  22.511   1.472  14.780
67837W        W27274  11.271  12.677  14.846
67838W        W27275  18.134  39.478   2.302
67839W        W27276  28.495  40.908  13.040
67840W        W27277  26.582  17.666   4.182
67841W        W27278  16.616  44.995  13.509
67842W        W27279  21.225  13.784  13.953
67843W        W27280  27.542   6.706   2.260
67844W        W27281   9.174  20.616   3.331
67845W        W27282  43.504  15.751   2.225
67846W        W27283  36.891   9.343  14.815
67847W        W27284  39.321  26.683  13.995
67848W        W27285   8.741  28.992  12.900
67849W        W27286  28.982  12.228  12.516
67850W        W27287  44.494  31.429  12.999
67851W        W27288  41.882   5.794  14.286
67852W        W27289  36.927  39.033   2.199
67853W        W27290   9.377  24.046   2.881
67854W        W27291   7.834  40.340   1.269
67855W        W27292  17.268  19.163   3.751
67856W        W27293  22.666  22.651  11.914
67857W        W27294  32.123  30.633   4.277
67858W        W27295  11.334  34.414   4.650
67859W        W27296   5.436  35.408   1.297
67860W        W27297  40.391  43.396  14.962
67861W        W27298  35.984  19.069  13.428
67862W        W27299  24.114  27.614   3.793
67863W        W27300  23.492  10.320   3.679
67864W        W27301  14.160  17.129   4.725
67865W        W27302  12.141  35.368  12.948
67866W        W27303   0.800  22.028  11.372
67867W        W27304  43.423  10.338   4.118
67868W        W27305   7.829  38.938  10.553
67869W        W27306  32.015   8.657   3.365
67870W        W27307   6.205  36.518  10.443
67871W        W27308   0.851   8.824  13.311
67872W        W27309  20.617  41.822  10.919
67873W        W27310  33.074   4.940  11.976
67874W        W27311  32.433  14.150  11.433
67875W        W27312  30.948   8.811  10.534
67876W        W27313  30.009  19.746  14.001
67877W        W27314  26.556  43.422   4.796
67878W        W27315  24.103  27.683  10.459
67879W        W27316  25.641  41.518   1.216
67880W        W27317   2.888  29.605   3.776
67881W        W27318  38.345  31.459  14.785
67882W        W27319  12.666  40.907   2.299
67883W        W27320  16.618  29.533   3.633
67884W        W27321  35.877  16.613   2.754
67885W        W27322  40.048  13.756   0.881
67886W        W27323  21.186  39.894   1.777
67887W        W27324   7.291  35.919   1.387
67888W        W27325   1.777  34.423  12.389
67889W        W27326  34.897   8.699  11.412
67890W        W27327  22.597  25.067  10.018
67891W        W27328  11.271  12.222   1.416
67892W        W27329  27.685  35.857   4.740
67893W        W27330   2.447  40.946  13.012
67894W        W27331  18.151   0.438   0.890
67895W        W27332  44.982  42.298  11.600
67896W        W27333   7.762  22.527   5.137
67897W        W27334  42.513  39.898  11.055
67898W        W27335  35.853  30.535   0.836
67899W        W27336  17.138  29.978  14.308
67900W        W27337  22.585  40.831   3.697
67901W        W27338  38.943  43.835  13.889
67902W        W27339  20.052  18.596  10.454
67903W        W27340   1.762   3.840  12.350
67904W        W27341  37.972  33.517   2.310
67905W        W27342  43.484  21.645  13.939
67906W        W27343  26.046  16.215  13.521
67907W        W27344  42.786  21.573  12.880
67908W        W27345  12.692  31.441   1.764
67909W        W27346  20.064  20.677  11.911
67910W        W27347  38.928  21.161  12.450
67911W        W27348   0.812  18.667  10.433
67912W        W27349   2.837   7.196  12.049
67913W        W27350  30.622  43.991   0.454
67914W        W27351  40.461   7.245  10.642
67915W        W27352  40.967  44.885  13.816
67916W        W27353  19.250  43.839   3.323
67917W        W27354  20.101  34.004   3.857
67918W        W27355  32.902   3.286   2.838
67919W        W27356  16.566  10.858   0.470
67920W        W27357  39.455  40.804  13.486
67921W        W27358  23.042  36.025  12.068
67922W        W27359   4.278  32.035  13.515
67923W        W27360  39.417  41.535   2.349
67924W        W27361  13.768  30.065   2.807
67925W        W27362   9.886   6.252   3.273
67926W        W27363  43.013   6.304   0.761
67927W        W27364   0.388   0.982  11.867
67928W        W27365  12.177  14.155   0.780
67929W        W27366  21.706  24.071  14.340
67930W        W27367  41.298  22.590   2.295
67931W        W27368   7.395  24.721  14.507
67932W        W27369   2.255  36.999   4.137
67933W        W27370  21.127  19.105  13.793
67934W        W27371  44.842   5.233  10.902
67935W        W27372   5.252  15.693   2.206
67936W        W27373  41.365   3.356   1.811
67937W        W27374  31.460  29.572  11.902
67938W        W27375  25.558   5.201   2.293
67939W        W27376   6.776  32.891   2.380
67940W        W27377  39.475   4.927  11.049
67941W        W27378  26.646  27.595   5.093
67942W        W27379   8.847  35.508  12.092
67943W        W27380  24.646  22.550  11.930
67944W        W27381  14.140   7.891   1.834
67945W        W27382  34.471  16.780   3.368
67946W        W27383  32.109   2.784  12.553
67947W        W27384  36.584  18.291   3.148
67948W        W27385  39.970  16.796  14.425
67949W        W27386  10.336   2.386   2.357
67950W        W27387   0.352  13.284  13.914
67951W        W27388  12.329  21.533   3.846
67952W        W27389  24.709  14.749   2.786
67953W        W27390  18.593  14.268   5.301
67954W        W27391  40.526  20.153   2.332
67955W        W27392   6.396  22.582   3.266
67956W        W27393   5.260  27.064  11.556
67957W        W27394  19.536  39.004   1.858
67958W        W27395  19.648   4.846   1.767
67959W        W27396   1.738  17.232  14.977
67960W        W27397  28.636   0.356  10.486
67961W        W27398  33.584  38.918  10.896
67962W        W27399   9.774  17.643  10.404
67963W        W27400  30.602  24.987  14.376
67964W        W27401  10.636  16.642   2.789
67965W        W27402   9.650   7.846   1.862
67966W        W27403   1.967  20.602  13.491
67967W        W27404  27.072  22.697  14.321
67968W        W27405  23.587   1.891   0.463
67969W        W27406  19.670  13.298  13.874
67970W        W27407  22.689   9.733   1.361
67971W        W27408   9.234  41.890   1.378
67972W        W27409   0.352  26.482  14.289
67973W        W27410  24.600  26.997  13.013
67974W        W27411  25.079  42.029  13.919
67975W        W27412   9.194  42.512  13.456
67976W        W27413  13.773  25.119  11.988
67977W        W27414  19.150  39.499  13.356
67978W        W27415  26.668   7.236   3.371
67979W        W27416  39.528  16.713  10.484
67980W        W27417  24.722  31.410   1.887
67981W        W27418   3.257  44.992  11.117
67982W        W27419  20.571   7.369  14.335
67983W        W27420   2.256  14.206  14.495
67984W        W27421  20.717  28.554  12.473
67985W        W27422  34.552  16.652  14.481
67986W        W27423  25.682  16.806  13.508
67987W        W27424  28.678  30.415   3.855
67988W        W27425   7.758  11.209  14.840
67989W        W27426  22.580  13.698  11.937
67990W        W27427  37.034   1.296   2.705
67991W        W27428  22.653  39.017   5.171
67992W        W27429   1.738  15.242  14.390
67993W        W27430  20.122  14.259  13.042
67994W        W27431   1.766  44.418  12.967
67995W        W27432  34.478   4.802  10.493
67996W        W27433  23.589  35.473   2.679
67997W        W27434  31.522  41.385   2.277
67998W        W27435  17.217  25.211   1.846
67999W        W27436  16.774   9.292   4.603
68000W        W27437  34.575   8.180  12.369
68001W        W27438  43.004  34.947   1.819
68002W        W27439  15.197  38.359  11.543
68003W        W27440  29.502   6.800  12.979
68004W        W27441   9.772  39.459   3.283
68005W        W27442  22.082  21.735   3.235
68006W        W27443   8.202  25.105  13.887
68007W        W27444  11.233  41.012   0.274
68008W        W27445  34.993  11.247   0.935
68009W        W27446  12.719  18.731   0.457
68010W        W27447  44.913  14.754  11.022
68011W        W27448  24.984   7.352   2.373
68012W        W27449  32.456  30.657  11.894
68013W        W27450  42.013   2.261   3.157
68014W        W27451  30.156   2.826  10.948
68015W        W27452  27.657  31.016   1.254
68016W        W27453  39.930   5.287  14.499
68017W        W27454  32.032  28.054   4.321
68018W        W27455  10.255  30.596  14.977
68019W        W27456  36.435  14.694   0.875
68020W        W27457  14.788  13.813   3.163
68021W        W27458  25.019   2.403   4.722
68022W        W27459   5.277  18.777   3.755
68023W        W27460  15.186   6.188  13.463
68024W        W27461  31.132  23.536  14.494
68025W        W27462  26.130  20.557  11.491
68026W        W27463   9.868  42.478  12.004
68027W        W27464   4.895  15.318  13.979
68028W        W27465   5.389  42.297   1.273
68029W        W27466  28.114  16.647  12.972
68030W        W27467   5.221  39.457  13.818
68031W        W27468  18.603  26.472   4.780
68032W        W27469  20.720  28.062  12.886
68033W        W27470  32.017  20.645   1.275
68034W        W27471   4.936  29.458  13.917
68035W        W27472   7.897   5.353  13.059
68036W        W27473  35.041   0.803  10.586
68037W        W27474  41.405   4.364   1.370
68038W        W27475  22.174  32.097   0.329
68039W        W27476  10.797  37.991   2.369
68040W        W27477   6.308  32.032  14.462
68041W        W27478  21.695   8.211   3.643
68042W        W27479  32.911  23.036  14.374
68043W        W27480   9.731  16.789   1.248
68044W        W27481  20.601  33.473   4.193
68045W        W27482   6.848  40.503   0.450
68046W        W27483  21.215  21.120  12.423
68047W        W27484  35.587  24.121   4.140
68048W        W27485   2.470  20.544  10.608
68049W        W27486  15.305  32.400   0.844
68050W        W27487  16.284  19.617   0.386
68051W        W27488  32.964  28.140   1.307
68052W        W27489   6.391  13.321  12.376
68053W        W27490  27.165  39.401   0.372
68054W        W27491  30.483  22.045   5.139
68055W        W27492   2.947  33.974  12.539
68056W        W27493  34.902  33.554  11.609
68057W        W27494   5.322   4.740   0.421
68058W        W27495  41.832  14.163   4.827
68059W        W27496  21.199  26.033  13.961
68060W        W27497  27.521   6.833   3.250
68061W        W27498   7.815  41.856  14.510
68062W        W27499  26.636  35.595  11.382
68063W        W27500  27.463  13.660   2.832
68064W        W27501  30.156  27.022  10.901
68065W        W27502  44.417  32.631  11.870
68066W        W27503   6.276   8.309   3.774
68067W        W27504  39.822  29.504   2.284
68068W        W27505   3.449  38.980   1.818
68069W        W27506  25.213  41.912   1.800
68070W        W27507  15.285  27.148  10.541
68071W        W27508  39.406   1.897   3.649
68072W        W27509  21.236   1.275   3.216
68073W        W27510  26.120   0.820   4.773
68074W        W27511  44.377  44.338  11.606
68075W        W27512  14.623  39.023  13.445
68076W        W27513   4.335  37.904   2.402
68077W        W27514  34.096  17.749   0.294
68078W        W27515  40.868  10.737  11.403
68079W        W27516  30.926  30.118   4.797
68080W        W27517  20.173  41.812  13.013
68081W        W27518   7.808  16.685  11.568
68082W        W27519  14.296  24.495   3.354
68083W        W27520   6.379  24.523   1.891
68084W        W27521   7.222  36.022  13.805
68085W        W27522  36.848  16.636   3.792
68086W        W27523  25.470   3.327   4.724
68087W        W27524  43.475   8.831   2.685
68088W        W27525  16.582  32.009   0.927
68089W        W27526  18.288  34.048   1.716
68090W        W27527  25.712  24.532  11.951
68091W        W27528  30.551   2.421  14.392
68092W        W27529   0.800  41.953  14.382
68093W        W27530  44.378  15.124  10.623
68094W        W27531   6.846   0.798  11.409
68095W        W27532  25.540  25.044   2.865
68096W        W27533  32.400  34.391   3.758
68097W        W27534  13.668  36.005  11.082
68098W        W27535  37.913  34.411  11.091
68099W        W27536  31.555  30.136  14.018
68100W        W27537  14.242  42.966  13.840
68101W        W27538  28.672  21.257  11.412
68102W        W27539  22.691   4.282  12.966
68103W        W27540  41.473  36.475  14.938
68104W        W27541   9.313  32.427  14.477
68105W        W27542  43.932  28.648   0.763
68106W        W27543  10.814  12.766  12.056
68107W        W27544  40.404  40.423  10.933
68108W        W27545  44.429  24.684  10.467
68109W        W27546  17.092  10.285  12.977
68110W        W27547  16.283  11.693  11.977
68111W        W27548  25.060  38.851  13.354
68112W        W27549  34.873   3.326  10.932
68113W        W27550   8.270  28.090  11.050
68114W        W27551  42.523  21.045   4.803
68115W        W27552  12.315  29.120   2.300
68116W        W27553  38.837  41.297   4.708
68117W        W27554   8.210   3.371  12.485
68118W        W27555   8.331   8.753  13.942
68119W        W27556   6.760  32.424  10.508
68120W        W27557  39.918   9.831   1.920
68121W        W27558   8.819  20.734  10.944
68122W        W27559  27.950  22.508  13.490
68123W        W27560  25.598   6.245  12.041
68124W        W27561   1.481  22.551  11.077
68125W        W27562  15.160   0.336   0.866
68126W        W27563  17.191  38.973   1.272
68127W        W27564   1.935   2.962   3.245
68128W        W27565   0.354  32.081   0.313
68129W        W27566  17.682  37.918  13.904
68130W        W27567  31.996  41.466  10.637
68131W        W27568  40.801  18.177  14.351
68132W        W27569  36.504  26.634   4.328
68133W        W27570  25.605  30.490  12.550
68134W        W27571  24.560   8.173   4.156
68135W        W27572  24.149  19.162   2.296
68136W        W27573  33.494  27.080  12.064
68137W        W27574  22.657  21.568  13.818
68138W        W27575  33.045  24.597  10.919
68139W        W27576  20.113  37.083  10.616
68140W        W27577   0.442  26.195   0.749
68141W        W27578  21.090  29.529   1.705
68142W        W27579  37.458  44.438  11.466
68143W        W27580  18.693  13.169   4.655
68144W        W27581  31.612  14.259  11.378
68145W        W27582  26.469  36.945  11.379
68146W        W27583  10.776  31.002  10.586
68147W        W27584  34.077  36.027   5.308
68148W        W27585  21.708  29.101   4.278
68149W        W27586  41.874   7.796  11.444
68150W        W27587  36.446  31.423  10.626
68151W        W27588  38.864  21.188  14.303
68152W        W27589  38.953   1.290   2.693
68153W        W27590  11.325  29.005   0.342
68154W        W27591  42.987  35.074  14.916
68155W        W27592  13.620  43.422  14.344
68156W        W27593  27.180   4.870   1.246
68157W        W27594  23.494  35.989  10.893
68158W        W27595  25.180  21.208  13.955
68159W        W27596  39.529   2.899  10.574
68160W        W27597  40.531  38.552  14.475
68161W        W27598   6.767  28.079  12.443
68162W        W27599  26.458  42.919   9.983
68163W        W27600   7.175  11.318  14.277
68164W        W27601   5.929   7.366  14.957
68165W        W27602  36.936  10.276   4.772
68166W        W27603  29.608  25.157   2.405
68167W        W27604  24.531  37.414   4.811
68168W        W27605  24.994  42.842  10.152
68169W        W27606  30.010  31.476   2.838
68170W        W27607  33.049   5.310  11.986
68171W        W27608  30.968  21.555   4.194
68172W        W27609  17.578  10.665   4.196
68173W        W27610   9.804  12.282  11.028
68174W        W27611  17.711  20.575   2.345
68175W        W27612  36.462  13.653   1.433
68176W        W27613  44.828   2.463  13.955
68177W        W27614  15.597  21.077   3.215
68178W        W27615  31.490  21.178  12.026
68179W        W27616  12.186  42.972   2.841
68180W        W27617  14.183  42.959   5.311
68181W        W27618   4.338  22.159   3.223
68182W        W27619  11.757  11.361   2.316
68183W        W27620  31.152  34.915   1.768
68184W        W27621  33.444   9.264  12.534
68185W        W27622  36.991   0.277  14.406
68186W        W27623  19.641  14.661   4.148
68187W        W27624   6.415   9.700  12.911
68188W        W27625  26.632  40.943   2.247
68189W        W27626   9.693  40.341  13.837
68190W        W27627   2.463  36.895   2.377
68191W        W27628  24.217  32.614  11.016
68192W        W27629  32.469   2.794   0.939
68193W        W27630  30.129  33.411   1.450
68194W        W27631  43.339  22.671  12.018
68195W        W27632  18.115   2.726  10.424
68196W        W27633  31.128  20.157   4.340
68197W        W27634   1.864  36.922  14.404
68198W        W27635  35.895  43.964   2.796
68199W        W27636  22.008  41.955  14.390
68200W        W27637  28.574  44.757  12.461
68201W        W27638   4.716  23.511  13.396
68202W        W27639  11.290  41.444  10.465
68203W        W27640  38.482   1.244   1.433
68204W        W27641   6.308   9.370  11.868
68205W        W27642  30.600   9.258  12.539
68206W        W27643  36.962  41.036   3.680
68207W        W27644  33.889  15.677   4.133
68208W        W27645  14.205  24.083   0.450
68209W        W27646  44.806  15.791  12.566
68210W        W27647  24.571   5.348  11.948
68211W        W27648   9.684  35.066   3.370
68212W        W27649  17.280  19.087  11.877
68213W        W27650  25.122  29.472  14.903
68214W        W27651  38.399  23.528  10.412
68215W        W27652  20.720  42.788   3.238
68216W        W27653  31.547  43.421  10.434
68217W        W27654  17.277  20.076  13.380
68218W        W27655  12.229  29.535  13.344
68219W        W27656   2.964  27.626  12.828
68220W        W27657  15.611  37.945  11.533
68221W        W27658  27.588  15.820   0.275
68222W        W27659  34.092  41.308   1.731
68223W        W27660  38.953  11.841  14.513
68224W        W27661  23.079  41.313  14.421
68225W        W27662   2.939   8.385   0.826
68226W        W27663  26.086  22.218  12.569
68227W        W27664  15.111  16.083   2.802
68228W        W27665  24.582  30.041  10.459
68229W        W27666  42.499   7.681   0.752
68230W        W27667  39.361  15.104  12.530
68231W        W27668  34.533  28.117   0.862
68232W        W27669  35.978  18.659   0.825
68233W        W27670  12.215   5.419  11.508
68234W        W27671  23.138  41.448   4.733
68235W        W27672  16.598  41.353   2.226
68236W        W27673  32.964  11.819   3.861
68237W        W27674  36.496   0.484  13.465
68238W        W27675  39.013   0.906   3.169
68239W        W27676  34.603  42.834  11.921
68240W        W27677  32.564  14.264   2.300
68241W        W27678  16.640  38.951   4.605
68242W        W27679  43.837  12.629  13.508
68243W        W27680  26.974  23.019   5.182
68244W        W27681  42.895  20.566  10.967
68245W        W27682  29.175  24.047  12.991
68246W        W27683  34.607  33.091  12.825
68247W        W27684  15.721  19.586   2.873
68248W        W27685  40.807  40.969  10.602
68249W        W27686  32.979  13.175   4.729
68250W        W27687   0.985  16.232  10.602
68251W        W27688   4.919  10.689  14.366
68252W        W27689  12.854  12.786   4.684
68253W        W27690  40.493   4.810   0.375
68254W        W27691  11.291   1.861   4.180
68255W        W27692  42.015  22.232   3.825
68256W        W27693  11.649  34.065   2.786
68257W        W27694   4.317   8.747   3.831
68258W        W27695   7.793  25.604  12.953
68259W        W27696  42.364  16.747  10.948
68260W        W27697  28.145  20.724  14.382
68261W        W27698  13.701  16.182   2.785
68262W        W27699  29.006   0.465   4.300
68263W        W27700  38.503   8.887  10.462
68264W        W27701  20.659   5.282  12.045
68265W        W27702  39.034  40.001  14.415
68266W        W27703  21.597  12.168   1.751
68267W        W27704  39.453  18.168  12.013
68268W        W27705  13.651  22.668   4.718
68269W        W27706  40.411   3.817   1.790
68270W        W27707  17.556  31.997  12.392
68271W        W27708  34.557  13.309  14.420
68272W        W27709  29.161  27.118  11.389
68273W        W27710  34.114   8.201   3.335
68274W        W27711  28.067   7.212   4.760
68275W        W27712  11.236   2.294  12.837
68276W        W27713   7.837  17.075   0.918
68277W        W27714  28.008   6.423  10.907
68278W        W27715  31.447  20.705  14.885
68279W        W27716  14.816  12.116   0.944
68280W        W27717  10.681   0.975  10.076
68281W        W27718   8.318  43.331  10.505
68282W        W27719   9.651   3.398   1.287
68283W        W27720  19.618  34.556  10.580
68284W        W27721  24.042   1.302   3.361
68285W        W27722   6.211  22.585   1.745
68286W        W27723  39.915  28.489  14.473
68287W        W27724  43.805  21.213   1.778
68288W        W27725  13.676  30.643  12.483
68289W        W27726  32.123  25.696   0.895
68290W        W27727  33.520  35.875  14.396
68291W        W27728  10.374  37.476  10.524
68292W        W27729   0.264  44.883   0.401
68293W        W27730  16.211   0.910  14.370
68294W        W27731  35.433  19.736   2.704
68295W        W27732   1.895  41.525   1.919
68296W        W27733  39.400   4.450   2.371
68297W        W27734  26.179  18.607  11.015
68298W        W27735   0.795  20.073   1.364
68299W        W27736   6.296  14.604  14.478
68300W        W27737  31.594  44.499   3.274
68301W        W27738   4.718   7.816  14.354
68302W        W27739  31.571  14.636   2.893
68303W        W27740  22.090  44.003   4.139
68304W        W27741  39.041  26.681   1.329
68305W        W27742  37.461  29.441  11.970
68306W        W27743  24.990  21.093   2.760
68307W        W27744  13.629  20.767   1.419
68308W        W27745  24.617  30.438   4.167
68309W        W27746   7.694  43.348  14.772
68310W        W27747  44.002  32.426   4.259
68311W        W27748   2.283   7.801  11.595
68312W        W27749  21.563  26.697  11.390
68313W        W27750  43.875  34.420  14.908
68314W        W27751  33.083  44.832  13.544
68315W        W27752  14.766  44.856   2.825
68316W        W27753  35.446  44.386   2.760
68317W        W27754  32.930   1.310   4.354
68318W        W27755  12.162  17.061   2.865
68319W        W27756  29.627  36.533  13.969
68320W        W27757  19.724   2.809  14.896
68321W        W27758  16.122  40.998  13.966
68322W        W27759   4.938  30.943  12.938
68323W        W27760   4.770   4.825   1.828
68324W        W27761  26.620  39.557   0.778
68325W        W27762  19.123   6.317   2.786
68326W        W27763   6.854  17.293   0.427
68327W        W27764  35.908   5.845   3.664
68328W        W27765  15.699  44.444   5.313
68329W        W27766  35.948   4.924  12.374
68330W        W27767  29.044  14.237  13.453
68331W        W27768  21.531  43.276   1.365
68332W        W27769  42.777  22.726  12.448
68333W        W27770  18.665  33.922   0.393
68334W        W27771   9.375  26.166  13.458
68335W        W27772  27.116  39.489   1.242
68336W        W27773   3.780  18.585   1.329
68337W        W27774  33.036  10.811   4.735
68338W        W27775  24.216  29.932   2.838
68339W        W27776  21.736  38.384  10.420
68340W        W27777  28.024  40.025   4.608
68341W        W27778  42.960   6.798  11.007
68342W        W27779  24.009  30.007   0.756
68343W        W27780  20.192  32.557  11.892
68344W        W27781  17.168  11.762   2.696
68345W        W27782   0.772   6.704   2.747
68346W        W27783   2.447  39.891   0.838
68347W        W27784  38.961  33.459  10.545
68348W        W27785  33.444  38.828  12.495
68349W        W27786  25.699  28.002  11.089
68350W        W27787  29.492   1.867   4.216
68351W        W27788  35.497  28.042  10.542
68352W        W27789  18.659  44.778   0.963
68353W        W27790  27.138  33.485  14.990
68354W        W27791  12.194  17.138   0.813
68355W        W27792  17.073   9.870  14.010
68356W        W27793  36.456   9.293   3.333
68357W        W27794  18.631  25.041  11.992
68358W        W27795  18.645  34.891   1.855
68359W        W27796  30.132   0.950   0.862
68360W        W27797  40.904   5.374  11.441
68361W        W27798  23.596  21.646  12.353
68362W        W27799  27.455  14.273   2.360
68363W        W27800   9.242  16.750   2.203
68364W        W27801  14.801  20.182   3.156
68365W        W27802  12.661   8.793  14.385
68366W        W27803  11.162  12.831   0.777
68367W        W27804  24.217  15.637   3.767
68368W        W27805  18.767  23.203  14.462
68369W        W27806  43.275  25.124   2.779
68370W        W27807   6.185   5.313  14.909
68371W        W27808  37.869  16.735  11.972
68372W        W27809  31.436  35.911  10.906
68373W        W27810   9.888  32.392   1.359
68374W        W27811  43.993   0.928  13.900
68375W        W27812  20.691  30.653   2.351
68376W        W27813   0.343   4.302   0.434
68377W        W27814  41.458  37.505  13.947
68378W        W27815  25.674  16.597   3.327
68379W        W27816  43.360  43.928   3.317
68380W        W27817  14.786  28.065   1.780
68381W        W27818  21.552  32.468   2.338
68382W        W27819  37.878   6.911   0.296
68383W        W27820   7.361  18.218   0.264
68384W        W27821  31.022  12.186   0.355
68385W        W27822  30.032  43.500   3.292
68386W        W27823  43.866  20.695  12.409
68387W        W27824  20.722  16.231   2.831
68388W        W27825  29.158  34.980  10.601
68389W        W27826  13.135  32.051   2.298
68390W        W27827  40.437  15.708  13.539
68391W        W27828   6.762  38.991   3.247
68392W        W27829  31.898   9.691   3.792
68393W        W27830  30.603  43.868  14.276
68394W        W27831  20.052   3.410   3.860
68395W        W27832  10.203  24.052   4.119
68396W        W27833  24.584   3.734   2.308
68397W        W27834   7.245   6.817  14.320
68398W        W27835   4.260  24.155  12.557
68399W        W27836  23.034  15.814  12.534
68400W        W27837   8.888  44.909  14.442
68401W        W27838  30.927  32.980  14.408
68402W        W27839  34.535  40.900  11.940
68403W        W27840  13.842   1.481  12.095
68404W        W27841  43.499  19.210  13.993
68405W        W27842  28.963  39.342   0.834
68406W        W27843   6.872  19.155  14.900
68407W        W27844  32.572   5.367   2.365
68408W        W27845  42.912  25.517   1.920
68409W        W27846  24.534  23.086  12.354
68410W        W27847  20.068   3.455   4.302
68411W        W27848   5.428  21.114   3.755
68412W        W27849   2.376  19.540  12.388
68413W        W27850  35.870   5.223  13.901
68414W        W27851  28.613  34.041  11.481
68415W        W27852   3.953  15.188   3.186
68416W        W27853   2.438  24.978   4.649
68417W        W27854   2.345   3.902  13.039
68418W        W27855  25.172  44.766  13.529
68419W        W27856  28.486  34.118   0.757
68420W        W27857  29.512  10.698   5.146
68421W        W27858  34.494  21.569  12.502
68422W        W27859  34.009  19.573   1.771
68423W        W27860  28.441  34.465  12.843
68424W        W27861   1.309   3.316  10.970
68425W        W27862  31.514  34.061   2.839
68426W        W27863  11.239   9.888  14.939
68427W        W27864  26.183  14.332   4.223
68428W        W27865  19.609  33.608  13.840
68429W        W27866   6.788  18.660  11.992
68430W        W27867  35.418   8.268  14.797
68431W        W27868  30.982  12.209   2.417
68432W        W27869  37.957  31.954  14.278
68433W        W27870   4.303  44.308   3.796
68434W        W27871  35.398  19.715  11.410
68435W        W27872  29.465  21.042   3.246
68436W        W27873  10.321  38.570   4.240
68437W        W27874  26.091   3.845  11.378
68438W        W27875  18.695  30.065   4.282
68439W        W27876  43.775  36.352  14.308
68440W        W27877   9.210  42.366   0.265
68441W        W27878  20.210  35.491   0.324
68442W        W27879  15.232   5.861  12.831
68443W        W27880  23.118  35.407  13.802
68444W        W27881   3.863   8.225   0.870
68445W        W27882  27.684   6.915  13.443
68446W        W27883  11.156  20.755   2.230
68447W        W27884  26.118  25.172   2.738
68448W        W27885  43.353  35.404   1.305
68449W        W27886  13.326  27.450   1.849
68450W        W27887  36.927  39.836  14.887
68451W        W27888  13.268  42.824  12.062
68452W        W27889  33.912   4.443   4.804
68453W        W27890  32.126  28.609  11.387
68454W        W27891   4.322  27.041  12.512
68455W        W27892  32.922   3.814   1.393
68456W        W27893  21.224  15.749  14.897
68457W        W27894   0.269  15.620   0.468
68458W        W27895  37.508   6.385   0.442
68459W        W27896  26.689   0.344   4.631
68460W        W27897  40.351  28.438  10.501
68461W        W27898  40.547  28.053   4.204
68462W        W27899  16.681   9.213  13.807
68463W        W27900  26.111  38.879  10.015
68464W        W27901  21.711   8.846   0.898
68465W        W27902  39.348  27.662   3.765
68466W        W27903  29.160  19.760  14.980
68467W        W27904   7.202  12.728  14.998
68468W        W27905  40.953   6.291  11.399
68469W        W27906  21.207  36.060  13.485
68470W        W27907  44.295  29.041   9.972
68471W        W27908  41.803  27.042   0.896
68472W        W27909  12.754  20.606  13.959
68473W        W27910  33.967  12.797  14.763
68474W        W27911  16.585  43.837   3.822
68475W        W27912  12.311  28.677   2.709
68476W        W27913  18.184   9.736   1.863
68477W        W27914   2.451  23.233   1.878
68478W        W27915   0.890   9.718   5.239
68479W        W27916  27.447   8.195  12.997
68480W        W27917   4.826   1.903  13.853
68481W        W27918   3.853  23.533   5.247
68482W        W27919  23.993  42.983   3.716
68483W        W27920  31.457  11.361  11.104
68484W        W27921   4.331  29.940   4.114
68485W        W27922  40.865   4.789   2.769
68486W        W27923   8.404  40.408  13.830
68487W        W27924   1.271  29.157   4.636
68488W        W27925  44.379  36.925  11.070
68489W        W27926  26.567  35.964  14.789
68490W        W27927  23.573  40.980  12.951
68491W        W27928   6.227  28.138  14.337
68492W        W27929  16.666  33.588   3.707
68493W        W27930  26.128  24.118   2.305
68494W        W27931  15.703   8.234  12.566
68495W        W27932  42.314  32.609  12.560
68496W        W27933   7.750  41.340  14.415
68497W        W27934  33.472  36.361   3.165
68498W        W27935  25.103  44.341  12.454
68499W        W27936  44.909  12.275   0.467
68500W        W27937  41.410  42.920   1.877
68501W        W27938  14.246  27.085  13.493
68502W        W27939   7.267  33.090  14.988
68503W        W27940  41.914  10.667  11.530
68504W        W27941  28.576  22.097  10.089
68505W        W27942  24.053  11.667  11.895
68506W        W27943  27.623  30.417   0.337
68507W        W27944  12.744   6.783  12.472
68508W        W27945  10.676   0.825   4.309
68509W        W27946  24.492  22.721   2.213
68510W        W27947  28.145  37.057   0.847
68511W        W27948  31.627  29.027  11.947
68512W        W27949  12.789  31.578  11.511
68513W        W27950  38.005  36.474   4.311
68514W        W27951  32.142  29.169  11.378
68515W        W27952  38.378  30.022  12.345
68516W        W27953  29.126  39.475  10.476
68517W        W27954  40.908  41.460   3.179
68518W        W27955  43.450   7.363   3.800
68519W        W27956   4.418  38.987  12.542
68520W        W27957  44.492  22.195  11.077
68521W        W27958  20.209  25.520  14.827
68522W        W27959   6.919  42.321   4.250
68523W        W27960  12.812  33.513   5.254
68524W        W27961   9.247   6.204   3.765
68525W        W27962  37.836  17.558  14.842
68526W        W27963   6.740  13.838  10.972
68527W        W27964  35.563   9.309  13.434
68528W        W27965   4.213  29.520  13.877
68529W        W27966  17.565  34.048   2.696
68530W        W27967  41.326  16.307   0.824
68531W        W27968  23.208   0.466  11.381
68532W        W27969   6.281   7.288  13.422
68533W        W27970  15.816   7.790  13.532
68534W        W27971  44.944   3.374  14.379
68535W        W27972   1.819   0.788   1.450
68536W        W27973  20.145  30.137   3.798
68537W        W27974  40.857   5.722   3.675
68538W        W27975  38.571  29.479   2.853
68539W        W27976  24.977  22.009   3.672
68540W        W27977  28.002  15.113  12.522
68541W        W27978   6.274   6.813   0.385
68542W        W27979  18.564  19.066  11.073
68543W        W27980  22.713   4.416   1.748
68544W        W27981   5.285  10.207   1.222
68545W        W27982  22.553  24.674  10.543
68546W        W27983  36.536  27.009   4.303
68547W        W27984   6.898  29.940  11.556
68548W        W27985   1.821  16.137   0.807
68549W        W27986   0.911  34.946   1.388
68550W        W27987   0.857   2.406   1.827
68551W        W27988  34.036  27.106  13.529
68552W        W27989   9.654  42.778   0.472
68553W        W27990   8.330   5.829  14.992
68554W        W27991  32.080  19.706  11.950
68555W        W27992  13.806   1.462  11.106
68556W        W27993   0.337  33.623   9.943
68557W        W27994  34.878  22.716   2.747
68558W        W27995  16.811  12.681   4.653
68559W        W27996   5.841   7.804   4.257
68560W        W27997  20.126  19.192   3.337
68561W        W27998  17.083  43.774  13.894
68562W        W27999  34.002  18.059   3.869
68563W        W28000  44.862  39.558   4.683
68564W        W28001  42.291  17.151   4.803
68565W        W28002  14.201  28.618  11.433
68566W        W28003  15.602  32.428  14.510
68567W        W28004  21.730   6.298  14.502
68568W        W28005   9.352  21.039  11.565
68569W        W28006  26.515  32.990   0.935
68570W        W28007  20.651  14.165   1.920
68571W        W28008  41.452   5.817   2.395
68572W        W28009  44.772  39.898  11.913
68573W        W28010   9.879  13.113   4.655
68574W        W28011   7.389  11.643  12.061
68575W        W28012  42.324  17.233   4.322
68576W        W28013   5.412  25.163  12.867
68577W        W28014  43.292  31.452  11.857
68578W        W28015   7.881  34.917   0.294
68579W        W28016  39.366  18.629   3.170
68580W        W28017  36.383  41.440   4.302
68581W        W28018  14.813   8.223   1.317
68582W        W28019   4.327  20.176  10.557
68583W        W28020  30.466  44.388   1.808
68584W        W28021  28.530  14.120  12.435
68585W        W28022  43.014  20.760   0.864
68586W        W28023  22.543   6.352  10.416
68587W        W28024   1.324  18.622  13.980
68588W        W28025  36.014  22.212  12.472
68589W        W28026  13.160  15.716  13.816
68590W        W28027  30.006  26.627   3.829
68591W        W28028  13.268  42.413   1.241
68592W        W28029  31.488  11.745  10.891
68593W        W28030  44.001   3.415  13.055
68594W        W28031   0.373  33.515   4.692
68595W        W28032  27.053  21.108   2.389
68596W        W28033  32.978   3.357  11.473
68597W        W28034  42.422  34.479  11.397
68598W        W28035  10.643  33.625   0.857
68599W        W28036  39.368  13.251   0.846
68600W        W28037  12.260  21.209  12.837
68601W        W28038  27.468  31.019   4.314
68602W        W28039  21.591  25.101  11.603
68603W        W28040  36.385  29.167  11.017
68604W        W28041  29.067  27.561   2.378
68605W        W28042  26.516  32.977   4.136
68606W        W28043  21.254  42.510  13.507
68607W        W28044  24.992  10.824   0.474
68608W        W28045  42.525   9.759   0.277
68609W        W28046  35.388  12.839   0.480
68610W        W28047  10.660  41.042   2.789
68611W        W28048  26.192  20.664  13.339
68612W        W28049  31.438  24.481  12.465
68613W        W28050  25.995   3.949   2.232
68614W        W28051   0.385   6.693  12.941
68615W        W28052  21.515  38.974  12.925
68616W        W28053  38.043  13.685  11.435
68617W        W28054  18.710  41.486  14.326
68618W        W28055  27.148   3.455  14.914
68619W        W28056  42.001  10.285  10.944
68620W        W28057  43.957  38.454  10.440
68621W        W28058   7.760  36.487  12.341
68622W        W28059  38.552  39.888   1.211
68623W        W28060  11.284  15.594   3.165
68624W        W28061   3.729  44.930  13.338
68625W        W28062  32.038  31.013  13.407
68626W        W28063   6.756   2.250  11.073
68627W        W28064  34.094  30.490   0.865
68628W        W28065  44.396  24.531  11.427
68629W        W28066  10.863  22.584   3.654
68630W        W28067  11.677  43.415   4.767
68631W        W28068  24.563  28.479   0.423
68632W        W28069  17.758  13.161  12.027
68633W        W28070  29.657  16.197   3.285
68634W        W28071  10.334  27.101  10.450
68635W        W28072  25.578  38.918  12.403
68636W        W28073   8.778   7.815   1.709
68637W        W28074  24.486  33.095   1.404
68638W        W28075  18.076  11.830  12.005
68639W        W28076  29.150   0.806  14.321
68640W        W28077  14.320  40.962  10.405
68641W        W28078  41.424  34.504  11.876
68642W        W28079  39.515  38.831   0.275
68643W        W28080  15.702  19.666   2.287
68644W        W28081   5.902   0.971  12.531
68645W        W28082   2.765  29.957  10.593
68646W        W28083  31.137  15.608   3.234
68647W        W28084  34.088  40.321  12.896
68648W        W28085  27.448  33.489   1.360
68649W        W28086   4.766  44.423   0.293
68650W        W28087  16.238  41.471   2.243
68651W        W28088  34.920   6.792   4.777
68652W        W28089  30.612   8.660   2.766
68653W        W28090  34.606  17.652  13.547
68654W        W28091  11.199  14.116   4.132
68655W        W28092   1.471  18.712  10.535
68656W        W28093  14.113  13.789   4.675
68657W        W28094  39.021  15.815   4.623
68658W        W28095  34.931  22.133   5.254
68659W        W28096  40.022  26.541   1.704
68660W        W28097  13.303  12.222  14.431
68661W        W28098  12.705  35.070   5.124
68662W        W28099  14.626  21.545  12.930
68663W        W28100  16.733  22.532  13.807
68664W        W28101  32.538   6.278   0.919
68665W        W28102  44.260  43.783  10.960
68666W        W28103   8.309  43.486   1.314
68667W        W28104  10.720  23.151   0.874
68668W        W28105  32.533  13.626  13.001
68669W        W28106   4.906  26.176  14.515
68670W        W28107   1.480  24.192   0.759
68671W        W28108  15.600   1.890   3.662
68672W        W28109  33.491  37.508   0.420
68673W        W28110  26.121  27.449  13.451
68674W        W28111  34.031  17.289  11.097
68675W        W28112  44.265   2.245  12.082
68676W        W28113   3.738  24.975   1.410
68677W        W28114  19.227  23.685   3.157
68678W        W28115  37.561  36.063   0.300
68679W        W28116   6.276   6.869   1.326
68680W        W28117  12.716  19.679   1.909
68681W        W28118  33.061  19.215   3.629
68682W        W28119  29.502  17.195  10.449
68683W        W28120  22.571   6.195   9.979
68684W        W28121  32.946   8.661  11.878
68685W        W28122  31.645  31.045  12.096
68686W        W28123  16.689  21.592   1.868
68687W        W28124  18.676  41.294  12.476
68688W        W28125  18.707  38.533  13.389
68689W        W28126  36.417  13.728   0.313
68690W        W28127  19.223  32.584   0.731
68691W        W28128  21.260  24.143   0.751
68692W        W28129   7.771  10.267   4.131
68693W        W28130  11.218   0.472  10.899
68694W        W28131  37.890   4.771   1.260
68695W        W28132   9.766  35.985   4.271
68696W        W28133  16.110  17.630  11.859
68697W        W28134  44.499  14.260  12.373
68698W        W28135  19.277  40.343  10.083
68699W        W28136   2.262   6.293   4.608
68700W        W28137   7.212  28.484  12.091
68701W        W28138  41.016   3.949   3.381
68702W        W28139  19.738  31.561   1.294
68703W        W28140  10.267  27.586  11.114
68704W        W28141  39.451  36.073  12.956
68705W        W28142  33.004   3.217   3.725
68706W        W28143  35.536  38.920   3.189
68707W        W28144  36.869  39.377   1.350
68708W        W28145   7.221  37.348  14.399
68709W        W28146   8.374  16.196   4.142
68710W        W28147  16.652  19.208  10.407
68711W        W28148  36.427   5.866  14.997
68712W        W28149  15.686  43.338   0.843
68713W        W28150  33.499  12.185   5.110
68714W        W28151  12.192   0.399   3.742
68715W        W28152   1.888  37.524  11.409
68716W        W28153  26.676  16.769  13.540
68717W        W28154   8.787  10.188   0.396
68718W        W28155  31.511  36.905  14.481
68719W        W28156  16.675  36.972   0.842
68720W        W28157  13.769  41.822   1.827
68721W        W28158   1.925  29.475   4.700
68722W        W28159   6.388  29.068  10.898
68723W        W28160  17.679   2.302  10.438
68724W        W28161   5.436  30.948   9.467
68725W        W28162  33.087  26.108  10.489
68726W        W28163   3.732  14.275  12.911
68727W        W28164  21.750   1.876  13.410
68728W        W28165  12.715  35.927  14.988
68729W        W28166  38.918  40.492   4.221
68730W        W28167  41.968   5.314  12.902
68731W        W28168  43.432  23.693   3.278
68732W        W28169  24.578  27.526   1.794
68733W        W28170  14.212  24.718  14.824
68734W        W28171  24.069   7.807   1.840
68735W        W28172  43.502  16.572   1.876
68736W        W28173  33.431  23.618   1.372
68737W        W28174   6.322  43.457   3.287
68738W        W28175  27.645   3.766   0.943
68739W        W28176   6.387  20.127  11.884
68740W        W28177  10.166   5.798  14.424
68741W        W28178  19.627  33.592   1.911
68742W        W28179  15.686  39.401   1.293
68743W        W28180  32.415  15.714  13.343
68744W        W28181  37.859  27.653  11.120
68745W        W28182   7.249  17.633   4.332
68746W        W28183  28.962  33.441   3.783
68747W        W28184  40.478  17.614   3.313
68748W        W28185  40.969  15.672   4.723
68749W        W28186  15.251   5.343  13.409
68750W        W28187  42.866  32.627   2.275
68751W        W28188  34.066  25.541   9.631
68752W        W28189  37.877  17.095  13.830
68753W        W28190  10.312  23.216   3.187
68754W        W28191  15.194  36.974  10.576
68755W        W28192  23.672  38.859  12.833
68756W        W28193   0.451  27.471   3.156
68757W        W28194  16.127  23.493   3.158
68758W        W28195  33.890   0.806  11.992
68759W        W28196  44.378   7.797   4.250
68760W        W28197  17.203   3.445   4.671
68761W        W28198  24.552   6.799   3.704
68762W        W28199  20.642   1.732  13.867
68763W        W28200   7.686   8.376  12.425
68764W        W28201  34.430  20.560   3.704
68765W        W28202   1.238   0.800   0.361
68766W        W28203  36.927  34.030  10.563
68767W        W28204  31.034  36.421   1.222
68768W        W28205   6.919  29.432   1.931
68769W        W28206   0.895  12.667   0.315
68770W        W28207   9.334  13.815  11.892
68771W        W28208   1.865  33.878  12.546
68772W        W28209  22.054   5.913  13.410
68773W        W28210   7.745  11.314   3.175
68774W        W28211  24.525  25.180  12.003
68775W        W28212  11.843   7.771  10.103
68776W        W28213   9.720  33.430   3.674
68777W        W28214  18.688  13.342  13.513
68778W        W28215  24.014   7.328  14.477
68779W        W28216  44.387  34.987  12.355
68780W        W28217  30.461  10.346   5.200
68781W        W28218  38.879  22.694   2.806
68782W        W28219  28.666   8.684   2.728
68783W        W28220  10.700  43.322  14.938
68784W        W28221  19.728  22.524   4.324
68785W        W28222   7.219  26.458   0.897
68786W        W28223  43.405  13.317  14.454
68787W        W28224  31.943  39.550  11.902
68788W        W28225  31.096   6.870  12.504
68789W        W28226  17.657  33.895  12.851
68790W        W28227  12.348   9.669   2.870
68791W        W28228  33.603  21.685  14.924
68792W        W28229  30.555  33.005  13.889
68793W        W28230  15.752   9.387   1.251
68794W        W28231  14.110  16.234  11.124
68795W        W28232  29.504  28.140  14.003
68796W        W28233   4.434  14.773  14.025
68797W        W28234  36.870   9.863   3.737
68798W        W28235  21.044  15.591  11.990
68799W        W28236  39.948  28.099  11.376
68800W        W28237   3.938  16.608  14.315
68801W        W28238  39.393  25.214   0.950
68802W        W28239   3.247  41.475   0.368
68803W        W28240  36.899   2.403  11.570
68804W        W28241  33.112  34.601   1.698
68805W        W28242  31.148  28.494   2.794
68806W        W28243  12.142  32.075   0.287
68807W        W28244  25.004  23.175  14.278
68808W        W28245  18.706  37.856   2.247
68809W        W28246  10.195  10.785  14.830
68810W        W28247  20.679   0.887  13.459
68811W        W28248  29.155  39.977   5.311
68812W        W28249  20.214  40.534  14.283
68813W        W28250  37.452  16.630  12.463
68814W        W28251   5.258  10.252  14.010
68815W        W28252  27.112  27.629  14.282
68816W        W28253  30.024  14.142  13.375
68817W        W28254  25.106  38.922   2.854
68818W        W28255  38.543  11.735  11.916
68819W        W28256   3.858  37.475   2.385
68820W        W28257  12.852  40.337  12.075
68821W        W28258  18.242  38.339   2.882
68822W        W28259  10.876  34.456   2.412
68823W        W28260  27.582   7.313  13.950
68824W        W28261   3.905  32.052   2.387
68825W        W28262  13.647   0.358  12.391
68826W        W28263  27.179  39.813   1.230
68827W        W28264  44.275  29.129  10.479
68828W        W28265   5.746  38.043  13.359
68829W        W28266   3.832  10.325  10.413
68830W        W28267  25.214  42.984   0.844
68831W        W28268  33.971  12.135   2.815
68832W        W28269  39.902   7.877   0.895
68833W        W28270  19.737   0.472  14.954
68834W        W28271   6.741  44.321   3.316
68835W        W28272  23.196   3.900  12.928
68836W        W28273  40.012  26.022  14.391
68837W        W28274  24.092  18.705  12.361
68838W        W28275  19.047  20.759   2.867
68839W        W28276  44.482  17.286   1.785
68840W        W28277  11.646  28.604  14.999
68841W        W28278  33.051  24.064   0.857
68842W        W28279  32.529  11.624  14.325
68843W        W28280  44.457  22.671   4.220
68844W        W28281   9.384  12.743   0.870
68845W        W28282  36.098  39.933  13.456
68846W        W28283  32.963  20.198  13.048
68847W        W28284  32.422   1.411   4.278
68848W        W28285  43.292  18.630   1.371
68849W        W28286  16.642  29.660  11.970
68850W        W28287  31.513  20.769   1.286
68851W        W28288   4.734  15.157  14.464
68852W        W28289  44.279  28.460  14.371
68853W        W28290   2.945  36.416   1.724
68854W        W28291  42.430  13.843   3.206
68855W        W28292  37.983   4.363  11.996
68856W        W28293  43.899  25.662   4.149
68857W        W28294  14.738  36.938  13.493
68858W        W28295  24.179  29.432   2.749
68859W        W28296   4.927  27.090   0.321
68860W        W28297   8.366  28.453  13.873
68861W        W28298  34.469  26.524  10.526
68862W        W28299  19.246  27.481  11.564
68863W        W28300   1.955  18.751  14.278
68864W        W28301   2.821  26.092  11.399
68865W        W28302  41.379  40.874   2.839
68866W        W28303  27.124  18.555  14.845
68867W        W28304  14.829  37.071  14.475
68868W        W28305   7.825  28.183  12.468
68869W        W28306  21.023  19.583  13.369
68870W        W28307   7.328  38.074   4.599
68871W        W28308  41.872  33.963  10.892
68872W        W28309  11.714  10.783  13.518
68873W        W28310  42.830   6.232  11.503
68874W        W28311  23.543  33.567  11.383
68875W        W28312  30.990  19.668   3.384
68876W        W28313  41.342  29.579  12.536
68877W        W28314  42.497  40.545  13.402
68878W        W28315  37.841  15.112   3.340
68879W        W28316  41.411  11.854   4.746
68880W        W28317   6.208  24.069   4.601
68881W        W28318  17.150   1.427  10.976
68882W        W28319  18.204   5.206   0.806
68883W        W28320  15.765  22.596   0.374
68884W        W28321  13.313  13.247   5.128
68885W        W28322  36.470   5.892   0.471
68886W        W28323  22.120  41.900  13.452
68887W        W28324   9.164  43.385  11.021
68888W        W28325  27.486   5.266  14.433
68889W        W28326   8.265  42.846   2.805
68890W        W28327  35.431  33.464   0.763
68891W        W28328  27.957  41.413   3.160
68892W        W28329  19.754  10.352   5.280
68893W        W28330  42.281   8.782   4.800
68894W        W28331  21.082   3.831   3.240
68895W        W28332  17.096  39.470  13.359
68896W        W28333  33.379  14.273  10.618
68897W        W28334  35.029  42.963  10.114
68898W        W28335   6.767  29.174   0.796
68899W        W28336  14.667   3.913   0.848
68900W        W28337  32.454   4.902   2.220
68901W        W28338  19.658  11.310  11.031
68902W        W28339  39.461  30.094  11.030
68903W        W28340  11.657  29.476   3.280
68904W        W28341  39.427  42.799   4.124
68905W        W28342  36.516  14.323   0.326
68906W        W28343   3.734  41.891   3.234
68907W        W28344  27.948  32.001  10.971
68908W        W28345  20.272  32.888   1.892
68909W        W28346  39.529  34.476   2.810
68910W        W28347  15.126   5.270   0.924
68911W        W28348  23.206  10.856   4.278
68912W        W28349  43.336  21.019  13.869
68913W        W28350   1.937   0.317   2.245
68914W        W28351  28.477  40.330  14.931
68915W        W28352  40.988  32.056  11.020
68916W        W28353   4.832  31.897   4.164
68917W        W28354  37.380   0.766   4.795
68918W        W28355  24.621   6.850  14.004
68919W        W28356   1.434  16.286  11.018
68920W        W28357  40.409  14.831   0.844
68921W        W28358  22.590  14.097  12.442
68922W        W28359  28.556  37.043   1.935
68923W        W28360   1.332  35.935   3.724
68924W        W28361  25.524  23.554  10.405
68925W        W28362  26.586  18.182   0.246
68926W        W28363  10.218  16.141  14.007
68927W        W28364   2.360  13.318   0.293
68928W        W28365  42.299  43.907   3.209
68929W        W28366  32.592  19.126   0.402
68930W        W28367  35.411   5.776  11.004
68931W        W28368  39.321  25.577  10.574
68932W        W28369  27.070  16.127   2.821
68933W        W28370  26.471   6.393   4.724
68934W        W28371  22.583  38.921  13.041
68935W        W28372  27.064   5.386   2.393
68936W        W28373  12.270  19.245   2.816
68937W        W28374  22.595  16.710   4.686
68938W        W28375  18.140  13.776   5.176
68939W        W28376   7.203  44.280   0.924
68940W        W28377  42.355  15.294   4.741
68941W        W28378   4.289  20.606   0.420
68942W        W28379  41.948   2.817   3.215
68943W        W28380  22.732   0.854  13.018
68944W        W28381  27.996  34.875   2.402
68945W        W28382  37.973  28.168  10.017
68946W        W28383  14.264   7.359   1.319
68947W        W28384   9.795  21.540  12.554
68948W        W28385  35.523  13.835   2.307
68949W        W28386   3.812  25.642   5.799
68950W        W28387  36.378  13.646   0.889
68951W        W28388   6.907  42.430   1.384
68952W        W28389  37.030  23.713  10.501
68953W        W28390   5.837  23.707   2.838
68954W        W28391  13.695  16.307   4.736
68955W        W28392  37.469  30.591  12.863
68956W        W28393  10.317  37.400  13.912
68957W        W28394  27.527   1.791   2.369
68958W        W28395  41.380   5.794   4.812
68959W        W28396  40.944   5.834   4.253
68960W        W28397  16.099   0.984  13.051
68961W        W28398  13.127  20.730   2.401
68962W        W28399  41.393   5.304  13.409
68963W        W28400  40.349  38.472  12.542
68964W        W28401  36.578  10.804  10.415
68965W        W28402  31.077  23.545  13.900
68966W        W28403  23.112  39.515  11.446
68967W        W28404  42.953  18.722   2.718
68968W        W28405  22.573  21.037  11.000
68969W        W28406  12.203   3.945  13.045
68970W        W28407  25.088  16.658   1.378
68971W        W28408  42.399  44.494   4.202
68972W        W28409   9.645  21.033   1.235
68973W        W28410  40.329  28.959  13.414
68974W        W28411  33.507  25.965  12.018
68975W        W28412  38.897  11.220  13.006
68976W        W28413  36.890  18.604   0.478
68977W        W28414  26.639  20.747   1.785
68978W        W28415   2.357  43.514   4.239
68979W        W28416  11.702  44.451  12.028
68980W        W28417  39.439  20.113   4.265
68981W        W28418   6.281  17.566   3.792
68982W        W28419  33.391  32.046  10.635
68983W        W28420   9.690  39.892   0.425
68984W        W28421  22.549   5.256  11.113
68985W        W28422   8.185  38.460   0.348
68986W        W28423  31.960  29.049   4.777
68987W        W28424  13.314  35.916   3.216
68988W        W28425  41.788  27.004   2.325
68989W        W28426   3.750  19.171   4.636
68990W        W28427  11.241   4.407  11.958
68991W        W28428  17.236  41.404  11.423
68992W        W28429   3.367  12.345   5.201
68993W        W28430   4.444  33.902  13.414
68994W        W28431  18.689  19.633  11.914
68995W        W28432  19.744  33.881  11.042
68996W        W28433  10.724  38.859  14.280
68997W        W28434  35.995   4.311   3.172
68998W        W28435  44.322  44.882  11.985
68999W        W28436  42.439  25.981   1.295
69000W        W28437  39.477  23.724  13.443
69001W        W28438  27.603   8.821   4.623
69002W        W28439  31.967  32.601   2.356
69003W        W28440  25.084  35.891   4.685
69004W        W28441  19.586  19.642   3.356
69005W        W28442  10.181   9.687  12.955
69006W        W28443   2.947  40.012  14.775
69007W        W28444   9.817  10.795  12.998
69008W        W28445  22.631  32.594   4.187
69009W        W28446  14.683   4.896  10.432
69010W        W28447   3.815  11.622   4.161
69011W        W28448  19.679  35.886  12.442
69012W        W28449  42.416   4.822  13.393
69013W        W28450  12.346  40.543  11.047
69014W        W28451  38.026  33.510   3.831
69015W        W28452  33.534  23.598   0.850
69016W        W28453   2.893   5.834   2.289
69017W        W28454  40.387  14.179   5.305
69018W        W28455  15.277  42.933  13.053
69019W        W28456  34.426   0.315  14.330
69020W        W28457  17.302  23.575   4.346
69021W        W28458  16.077  39.888  13.388
69022W        W28459   8.854  30.050   3.840
69023W        W28460  20.728  41.914  12.541
69024W        W28461   7.853   3.756   3.744
69025W        W28462  28.616  12.159   2.686
69026W        W28463  17.689  42.419  14.852
69027W        W28464  10.154  43.330   1.779
69028W        W28465  26.101  12.673   1.711
69029W        W28466  24.221  38.489   2.336
69030W        W28467  26.992  37.349   1.722
69031W        W28468  39.366  16.669   4.155
69032W        W28469   4.429  36.522   0.295
69033W        W28470  32.460   6.884  10.529
69034W        W28471  41.410  23.720   0.958
69035W        W28472   4.439  25.565  12.351
69036W        W28473  20.081   2.799   3.648
69037W        W28474  13.203  21.638   0.806
69038W        W28475   7.267  41.849  13.925
69039W        W28476   6.855   1.960   3.353
69040W        W28477  17.631  35.980  13.957
69041W        W28478   8.248  26.640   0.473
69042W        W28479   3.226   1.376   3.720
69043W        W28480  13.204   7.869  11.122
69044W        W28481  15.279  23.575   3.762
69045W        W28482  35.102  19.193  10.562
69046W        W28483  20.207  30.052   4.702
69047W        W28484  27.127  33.903  11.458
69048W        W28485  37.938  30.022  14.945
69049W        W28486   4.704  40.405   0.774
69050W        W28487  41.310  23.616  12.415
69051W        W28488  26.482   2.374  14.891
69052W        W28489  24.574  27.068  12.428
69053W        W28490   0.373   2.758   2.197
69054W        W28491  19.687  29.426  10.889
69055W        W28492  40.020  37.044  10.591
69056W        W28493   8.848  11.839  12.527
69057W        W28494  22.639  33.042   0.845
69058W        W28495   8.339  35.494  11.420
69059W        W28496  38.951  24.025   4.303
69060W        W28497  33.482  12.309   4.694
69061W        W28498  19.780  40.876   1.872
69062W        W28499  10.702  32.528  11.456
69063W        W28500   0.921   8.179  11.861
69064W        W28501   9.656   1.314  14.450
69065W        W28502  12.174  37.912  11.955
69066W        W28503  31.902  20.602   4.225
69067W        W28504   7.693  25.581   3.862
69068W        W28505  34.896  15.652   4.785
69069W        W28506  11.851  41.362  14.904
69070W        W28507  19.727  13.196   5.287
69071W        W28508  11.171   7.311   1.731
69072W        W28509  22.064   4.448   4.616
69073W        W28510   3.403  14.290  12.438
69074W        W28511  44.875  13.277   3.321
69075W        W28512  20.099   0.979   1.217
69076W        W28513   0.903   5.848   3.205
69077W        W28514  18.749  20.165  10.981
69078W        W28515  14.318  26.996   4.185
69079W        W28516  24.604  11.141   3.249
69080W        W28517  18.610  31.133  14.283
69081W        W28518  40.034   2.865   0.772
69082W        W28519   3.880   6.325  14.985
69083W        W28520  33.562  22.584   9.922
69084W        W28521  27.963  10.236  11.499
69085W        W28522  21.668  42.456  13.428
69086W        W28523  19.641  37.458  13.889
69087W        W28524  14.627  40.924  13.875
69088W        W28525  30.633  27.521  11.421
69089W        W28526   1.364  39.423  12.349
69090W        W28527  40.040  25.157   1.324
69091W        W28528  22.592  26.112  13.445
69092W        W28529  24.054   1.295  12.420
69093W        W28530  11.367  19.219   0.870
69094W        W28531   0.818   9.250   1.804
69095W        W28532  35.384  28.937   4.807
69096W        W28533  28.972  21.754  10.916
69097W        W28534  15.205  15.253   4.750
69098W        W28535  36.940  14.701   3.779
69099W        W28536   3.321  17.776   2.793
69100W        W28537  38.922   2.240  10.586
69101W        W28538  18.200  44.470   3.663
69102W        W28539  18.094  33.947   1.426
69103W        W28540  25.047  43.926  11.040
69104W        W28541  23.696  28.069  11.423
69105W        W28542  35.938  15.293  14.399
69106W        W28543  22.035   2.316   4.783
69107W        W28544   1.956  43.512   2.828
69108W        W28545  14.240  23.105  13.012
69109W        W28546  42.295  39.385  13.052
69110W        W28547  34.468  27.524   0.275
69111W        W28548  20.567  27.062   0.304
69112W        W28549   4.312  33.891   0.844
69113W        W28550  24.563   8.305  12.879
69114W        W28551  33.074  19.546  14.794
69115W        W28552   9.230  18.739  12.055
69116W        W28553  17.065  38.486  14.859
69117W        W28554  10.199  35.094   1.860
69118W        W28555  28.948  26.063   1.767
69119W        W28556   0.916  15.782  14.497
69120W        W28557   5.318  25.628  11.894
69121W        W28558  30.428  38.382  10.958
69122W        W28559  44.961  39.819  12.505
69123W        W28560  20.174  24.709  12.070
69124W        W28561  17.714  20.595  12.014
69125W        W28562  14.684   6.692   1.711
69126W        W28563  13.793  29.590   1.779
69127W        W28564   3.863  18.189  12.987
69128W        W28565  14.716  31.936   9.920
69129W        W28566  24.021   2.960   2.886
69130W        W28567  16.713  17.169  12.544
69131W        W28568  44.471  35.087  14.910
69132W        W28569  36.880  21.750   4.816
69133W        W28570  23.236  17.762  11.000
69134W        W28571  13.816  41.328   4.798
69135W        W28572   3.291  39.022   2.834
69136W        W28573  14.737   5.743  14.863
69137W        W28574  24.489  38.330  13.993
69138W        W28575  24.722  23.114   4.812
69139W        W28576  22.054  35.519   0.460
69140W        W28577  15.818  13.344  13.804
69141W        W28578   0.384   5.829  12.069
69142W        W28579  14.752  32.138  10.920
69143W        W28580  18.632  29.961   2.195
69144W        W28581  21.568  31.908  12.017
69145W        W28582  24.027  41.977   1.324
69146W        W28583   8.172  37.979  14.385
69147W        W28584  32.048  36.933  11.480
69148W        W28585  10.255   0.825  11.120
69149W        W28586  16.757  16.742   5.260
69150W        W28587  35.988  26.204  11.531
69151W        W28588  19.757  42.467   2.203
69152W        W28589  39.427  42.776  13.311
69153W        W28590   7.234  42.285   4.735
69154W        W28591   9.289  26.127   2.711
69155W        W28592  27.116  34.583   2.369
69156W        W28593  40.910  26.626  11.030
69157W        W28594  10.359   6.216  13.949
69158W        W28595   5.322  29.581  14.910
69159W        W28596  14.119   3.272  13.877
69160W        W28597  22.742  34.593   4.792
69161W        W28598  38.490  22.139  11.554
69162W        W28599   9.675  12.340   2.359
69163W        W28600  38.570   5.704   4.678
69164W        W28601  18.593  10.699  12.080
69165W        W28602   7.665  21.077  12.974
69166W        W28603  42.981  10.212   1.368
69167W        W28604  12.307  38.845  13.912
69168W        W28605   7.788  12.759   2.338
69169W        W28606  24.664  41.827   4.175
69170W        W28607  12.677  27.983   0.902
69171W        W28608  30.626   8.891  13.009
69172W        W28609  27.992  23.501   3.830
69173W        W28610  40.928  21.711   1.793
69174W        W28611  13.319  12.313   0.879
69175W        W28612  40.318  20.669   3.186
69176W        W28613  40.469  27.168  10.895
69177W        W28614  36.429  12.779   1.872
69178W        W28615  35.559   8.694   0.483
69179W        W28616   6.766  13.801  14.838
69180W        W28617   1.779  18.561   1.752
69181W        W28618  27.991   6.305   0.939
69182W        W28619   0.775  25.469  12.846
69183W        W28620  30.043  41.498  12.848
69184W        W28621  27.589  25.172  12.833
69185W        W28622  34.441  10.239  10.594
69186W        W28623  30.129  32.978   3.848
69187W        W28624  30.497  37.086  12.920
69188W        W28625  22.709  17.653   0.468
69189W        W28626  15.129  21.730  13.543
69190W        W28627  30.032  26.147   3.721
69191W        W28628  16.263   0.965   3.339
69192W        W28629   2.723  10.811  12.872
69193W        W28630  31.603  30.053  14.919
69194W        W28631   6.919  10.329   0.913
69195W        W28632  37.900   2.232  13.385
69196W        W28633   3.383  43.512  13.918
69197W        W28634  17.204  37.013  10.508
69198W        W28635  19.262   4.922  10.998
69199W        W28636  16.080  38.413  12.913
69200W        W28637  11.283  32.630   4.294
69201W        W28638  43.419  43.019   3.716
69202W        W28639  33.492  18.106  13.478
69203W        W28640  44.830  38.443  14.934
69204W        W28641  40.960  26.513  12.011
69205W        W28642  11.764  28.963  14.346
69206W        W28643  42.389  37.423   2.890
69207W        W28644  10.655  13.317  12.827
69208W        W28645  10.865   7.674  11.979
69209W        W28646  11.684  31.897   0.252
69210W        W28647   3.753  36.544   4.780
69211W        W28648   4.860  11.355   1.744
69212W        W28649  29.975  15.716   4.197
69213W        W28650  44.401  39.524  14.404
69214W        W28651   2.770  38.340   0.302
69215W        W28652   8.850  40.541  14.902
69216W        W28653   8.178  21.262   1.912
69217W        W28654  16.233   9.807  11.380
69218W        W28655  41.536  12.652   1.883
69219W        W28656   2.279  41.018  12.476
69220W        W28657  12.223  15.578  14.876
69221W        W28658  43.009  39.313  12.028
69222W        W28659   1.940  14.325   2.826
69223W        W28660  14.671  35.492   2.812
69224W        W28661   5.927  27.621   4.602
69225W        W28662   0.781  24.097  11.942
69226W        W28663   1.873  42.970   1.229
69227W        W28664  23.039  17.624   1.919
69228W        W28665  43.354  12.657   3.844
69229W        W28666   8.808  31.013   4.821
69230W        W28667  39.330  44.271  10.578
69231W        W28668  16.206  16.723   4.828
69232W        W28669  41.326   8.744   0.405
69233W        W28670   6.830  16.220  12.350
69234W        W28671  29.154   1.336   1.345
69235W        W28672  14.673   8.864   0.943
69236W        W28673  44.788  10.206   2.663
69237W        W28674  28.087  29.143   1.337
69238W        W28675  34.569  20.702  14.386
69239W        W28676  10.687  20.153   2.290
69240W        W28677  25.995  15.101  10.442
69241W        W28678  36.376  16.206  11.875
69242W        W28679  28.082   8.307   0.829
69243W        W28680  26.536  25.130  13.448
69244W        W28681  28.148  19.681  12.463
69245W        W28682  33.476  22.130  14.932
69246W        W28683  24.525  13.164  12.839
69247W        W28684  23.553   4.359   2.831
69248W        W28685   8.666  36.087   2.402
69249W        W28686   8.787  14.160  11.526
69250W        W28687  34.576   6.904  12.502
69251W        W28688  27.171  26.484  10.972
69252W        W28689  11.689  23.706   0.813
69253W        W28690  32.025  31.491  12.063
69254W        W28691   2.428  42.504   4.326
69255W        W28692  14.196   5.280  13.482
69256W        W28693  24.718  32.907   3.631
69257W        W28694   4.716  39.882   1.281
69258W        W28695  37.849  33.572   2.684
69259W        W28696  33.489  29.953  12.376
69260W        W28697  13.692  12.834  12.047
69261W        W28698   0.977  10.164   0.311
69262W        W28699  10.817   6.199  10.415
69263W        W28700  32.961  34.605   2.763
69264W        W28701  30.082   9.244  14.304
69265W        W28702  25.962  23.122  13.800
69266W        W28703  26.616  30.447  13.869
69267W        W28704  39.831  13.320  13.345
69268W        W28705   1.801  38.382   4.789
69269W        W28706   8.660   9.234  12.067
69270W        W28707  25.007   0.774  12.896
69271W        W28708  32.514   1.865  11.470
69272W        W28709  27.982   3.944   3.172
69273W        W28710  44.370  37.402   3.652
69274W        W28711  34.899  42.859   3.244
69275W        W28712   9.284  18.060   4.129
69276W        W28713  24.517  21.688   1.694
69277W        W28714  12.760  16.755   0.354
69278W        W28715   4.213  32.121  14.448
69279W        W28716   3.262  29.628   1.699
69280W        W28717  33.546   3.280   4.223
69281W        W28718  38.522   5.694   3.288
69282W        W28719  33.080   2.923   2.813
69283W        W28720   6.424  17.247  10.505
69284W        W28721  17.586   2.770  10.505
69285W        W28722  42.465  40.526  11.031
69286W        W28723   2.747  17.094  10.898
69287W        W28724  44.260  13.657  13.995
69288W        W28725  21.150  41.414   1.841
69289W        W28726  35.363  38.444   4.222
69290W        W28727  32.419  20.274  10.599
69291W        W28728  10.687  33.606   1.251
69292W        W28729  11.711  29.522  12.995
69293W        W28730  13.759  22.616   2.389
69294W        W28731  34.057  11.819   0.770
69295W        W28732   0.427  37.431   5.627
69296W        W28733  16.076  29.528  12.448
69297W        W28734  12.207  36.946   3.258
69298W        W28735  29.463  25.061   3.781
69299W        W28736  42.410  28.931  13.054
69300W        W28737  43.804   7.406  12.516
69301W        W28738  38.402  41.502   3.676
69302W        W28739  13.730  17.667  11.375
69303W        W28740   1.280  34.922  11.020
69304W        W28741   1.859  22.520   5.194
69305W        W28742  10.152  14.170   3.755
69306W        W28743  34.007  31.596   3.318
69307W        W28744  15.760  22.679   2.782
69308W        W28745  11.267  23.181  14.899
69309W        W28746  19.625  29.160   3.786
69310W        W28747  34.075   6.331   3.743
69311W        W28748   9.770  21.588  12.832
69312W        W28749   0.425  20.654   0.793
69313W        W28750  25.647   7.854   1.859
69314W        W28751  37.377  35.092  11.949
69315W        W28752   5.763  35.100   1.858
69316W        W28753  32.575  39.923  10.405
69317W        W28754  32.599   9.825  10.965
69318W        W28755  12.671  28.577   4.146
69319W        W28756  35.853   1.398   0.801
69320W        W28757  30.620  37.849   1.891
69321W        W28758  32.515  31.046   1.715
69322W        W28759  38.828   4.718  14.894
69323W        W28760  16.628  35.047   3.237
69324W        W28761  38.860  19.647   0.763
69325W        W28762   3.725  18.285  13.520
69326W        W28763   6.309  13.782  14.394
69327W        W28764  35.058   1.807   0.830
69328W        W28765   3.403  38.929   2.210
69329W        W28766  17.252  28.938  12.568
69330W        W28767   0.284  39.405   4.137
69331W        W28768  38.974  31.544   2.261
69332W        W28769  12.796  26.016   2.856
69333W        W28770  34.527   5.773  11.076
69334W        W28771  37.064  39.867  10.603
69335W        W28772  40.309  43.368  12.884
69336W        W28773  18.246  24.708   2.244
69337W        W28774  37.006  14.647  11.566
69338W        W28775  27.166   4.899   4.722
69339W        W28776  43.386   6.870   2.847
69340W        W28777  41.326  29.622   3.374
69341W        W28778  41.957  23.528  10.584
69342W        W28779   5.325   0.892   3.165
69343W        W28780  14.608   4.391  10.566
69344W        W28781  12.816  41.005   3.853
69345W        W28782  12.251  22.168  14.931
69346W        W28783  21.045   8.210   4.737
69347W        W28784  40.920   7.284  12.882
69348W        W28785   1.822  42.892   0.822
69349W        W28786  22.172  35.405  11.513
69350W        W28787   6.693  18.109  13.897
69351W        W28788   3.341  31.939   0.402
69352W        W28789   6.374  23.705  14.807
69353W        W28790  10.658  37.970  13.428
69354W        W28791  34.868   2.794  13.971
69355W        W28792  29.998  40.500   1.340
69356W        W28793  24.567  32.079   4.172
69357W        W28794   7.240  40.541  14.286
69358W        W28795   7.712  41.008   3.672
69359W        W28796  43.277  38.367   1.284
69360W        W28797  18.686  14.763  13.012
69361W        W28798   4.915   4.804   3.328
69362W        W28799  38.920   4.235  10.454
69363W        W28800  28.003  39.420   2.318
69364W        W28801  14.104   8.829  13.320
69365W        W28802  38.484  44.438  14.432
69366W        W28803   0.935  18.092   0.374
69367W        W28804  43.934  42.995   4.639
69368W        W28805  27.075  39.333   5.265
69369W        W28806  44.867  25.190   3.208
69370W        W28807  35.481   0.934   1.771
69371W        W28808  24.725  18.608   2.895
69372W        W28809   6.365  12.263   1.286
69373W        W28810  32.611  27.657   4.208
69374W        W28811  29.993  37.420   3.348
69375W        W28812  27.089  35.447   0.738
69376W        W28813   2.382  41.427   5.189
69377W        W28814   6.790  13.230   4.670
69378W        W28815  39.867  27.040  14.510
69379W        W28816  24.600  17.249   0.774
69380W        W28817  44.394  32.017   2.385
69381W        W28818  20.078   8.672   0.771
69382W        W28819  38.884  17.269  13.448
69383W        W28820  27.492   7.688   0.257
69384W        W28821   2.906  35.600   1.318
69385W        W28822   1.479  10.312  13.484
69386W        W28823  17.659  25.551  13.022
69387W        W28824   6.283  16.806  11.402
69388W        W28825  35.852  38.979  12.528
69389W        W28826   9.271  24.550   0.313
69390W        W28827   3.404   4.316  11.023
69391W        W28828  31.903  22.598   0.244
69392W        W28829  17.284  32.612  10.449
69393W        W28830   6.310  43.820  14.471
69394W        W28831  23.030   7.813   4.305
69395W        W28832  36.895   7.286   4.354
69396W        W28833   7.399  28.528   0.797
69397W        W28834  17.709  43.925   3.166
69398W        W28835   7.205  30.004  12.883
69399W        W28836  31.956  17.176   3.703
69400W        W28837  41.534   3.950   1.385
69401W        W28838  28.150  43.342  12.938
69402W        W28839  19.662  16.280  12.052
69403W        W28840  28.063   4.725  13.519
69404W        W28841  24.975  26.094  12.948
69405W        W28842  27.677  42.345   2.217
69406W        W28843  20.683   4.288  13.319
69407W        W28844  43.441  35.507   3.669
69408W        W28845  26.481  30.464   1.862
69409W        W28846  30.008  28.618  12.490
69410W        W28847  23.139  11.685  10.561
69411W        W28848  25.988  24.684   1.815
69412W        W28849   0.964  10.366   4.729
69413W        W28850  23.578   7.373  12.512
69414W        W28851  39.029  43.356   2.744
69415W        W28852  38.381  44.769  10.443
69416W        W28853  36.579  11.302   2.763
69417W        W28854  40.822  13.220  11.120
69418W        W28855  33.943  32.427  10.951
69419W        W28856   2.355  36.536   0.249
69420W        W28857  26.024  24.715   4.673
69421W        W28858  18.659   9.873  12.833
69422W        W28859  12.360  24.622   1.366
69423W        W28860  31.579  40.339  11.063
69424W        W28861  15.586   6.314   3.752
69425W        W28862  19.097  11.262  12.009
69426W        W28863  15.645  42.920   9.932
69427W        W28864  16.771   6.288  12.026
69428W        W28865  17.736   0.923  14.487
69429W        W28866  33.480  31.521  10.992
69430W        W28867   4.300  37.991  10.979
69431W        W28868   8.831   0.423   4.293
69432W        W28869  36.033  41.342  11.101
69433W        W28870  34.566  24.109  12.368
69434W        W28871  38.926  33.487   2.698
69435W        W28872  40.531   2.867  14.025
69436W        W28873  18.204   8.307   3.184
69437W        W28874  41.429   6.841  11.074
69438W        W28875  34.517  19.165  11.402
69439W        W28876  14.813   2.272  14.966
69440W        W28877  30.530  23.107   5.249
69441W        W28878  23.221  19.211  14.396
69442W        W28879   9.323  24.093  13.323
69443W        W28880  11.272  37.510   1.812
69444W        W28881  20.556  33.944  14.826
69445W        W28882  30.475  24.710  13.332
69446W        W28883  22.546   8.163  13.505
69447W        W28884  38.940   2.349   3.766
69448W        W28885  17.099  37.403   0.331
69449W        W28886  26.604  42.830   2.252
69450W        W28887   6.683   5.695  13.428
69451W        W28888  32.581   1.870   2.790
69452W        W28889  10.178  24.631  12.456
69453W        W28890   2.320  39.967   1.329
69454W        W28891  13.746  39.554   1.899
69455W        W28892  26.600  26.001  13.064
69456W        W28893  33.427  11.283  13.792
69457W        W28894  43.934  26.157  10.460
69458W        W28895   8.297   9.378   2.258
69459W        W28896   6.860  32.116  11.446
69460W        W28897   0.357  27.589   1.410
69461W        W28898  34.538   8.757   1.899
69462W        W28899  29.039  40.327   4.802
69463W        W28900  32.106  41.294  14.910
69464W        W28901  37.384  28.141   0.809
69465W        W28902  37.029  29.528   0.438
69466W        W28903  33.959  19.215   1.331
69467W        W28904  17.597  40.336  10.015
69468W        W28905   6.243  39.062  13.859
69469W        W28906   1.781  39.926  14.446
69470W        W28907  24.034  13.283  14.360
69471W        W28908   7.296  12.311   4.672
69472W        W28909   8.672  43.435   4.834
69473W        W28910  29.929  36.070   2.390
69474W        W28911  41.853  15.676  12.507
69475W        W28912   1.892  33.502   3.836
69476W        W28913  21.088  15.240   0.288
69477W        W28914  30.096   6.253  11.019
69478W        W28915  27.654  18.258  10.994
69479W        W28916  36.956  26.152  12.479
69480W        W28917  39.484  11.848   1.227
69481W        W28918  13.670  17.147   3.324
69482W        W28919  21.176  27.550   4.198
69483W        W28920  34.480  22.667   0.320
69484W        W28921  38.074  43.779   0.407
69485W        W28922  26.482  38.503   2.814
69486W        W28923  43.511  28.673  12.541
69487W        W28924  20.555  10.694   0.330
69488W        W28925  40.817   5.688   3.382
69489W        W28926   2.778   1.893  10.918
69490W        W28927   0.328   8.763  12.876
69491W        W28928  44.942  10.251   4.140
69492W        W28929   3.458   7.325   2.302
69493W        W28930  17.104  15.308   1.923
69494W        W28931   8.237  26.164  14.875
69495W        W28932   7.797  28.055   4.158
69496W        W28933  27.541  13.274  14.339
69497W        W28934  31.091  10.661   3.321
69498W        W28935  43.342   9.168   1.423
69499W        W28936  19.060  40.531  13.944
69500W        W28937  13.135  33.019  14.817
69501W        W28938  36.946  28.521  11.892
69502W        W28939  17.757  17.172  10.055
69503W        W28940  22.182  41.939   4.776
69504W        W28941  32.587   8.836  11.467
69505W        W28942   6.704  14.648   1.701
69506W        W28943  43.384  19.153  10.912
69507W        W28944  26.636   1.454  12.095
69508W        W28945   3.725  18.636   3.717
69509W        W28946  10.819  40.421   1.277
69510W        W28947  12.715  27.030   1.823
69511W        W28948  44.341   1.781  14.396
69512W        W28949  18.550  19.779   4.626
69513W        W28950   3.270  34.883   3.271
69514W        W28951  23.158  31.933  12.476
69515W        W28952   6.803   9.689  12.410
69516W        W28953  10.804  33.569  11.026
69517W        W28954  11.269  23.164  11.056
69518W        W28955  29.921  38.825  12.063
69519W        W28956  11.696  43.427   0.274
69520W        W28957   7.221  21.063  11.408
69521W        W28958  33.532  32.127  14.985
69522W        W28959   8.172  21.572   2.265
69523W        W28960  15.277  36.492  11.019
69524W        W28961  32.607  35.551   4.804
69525W        W28962  41.950  44.296   0.298
69526W        W28963  18.125   3.904   2.862
69527W        W28964  30.639  20.567   2.669
69528W        W28965  31.998   7.869  10.424
69529W        W28966  44.761  34.083   2.326
69530W        W28967  36.937  37.906  11.966
69531W        W28968  18.278  34.916   1.736
69532W        W28969  36.879  19.570   1.328
69533W        W28970  40.009  38.891   2.762
69534W        W28971   5.418  29.973  10.551
69535W        W28972  24.039  44.905   1.290
69536W        W28973  23.596  26.606   1.379
69537W        W28974  20.139   9.808  12.421
69538W        W28975  34.469  39.442  14.019
69539W        W28976  38.417  27.160   4.701
69540W        W28977   1.879  11.247   1.436
69541W        W28978  14.127  41.823  11.958
69542W        W28979  39.366  29.465   1.922
69543W        W28980  12.636  24.998  14.463
69544W        W28981  43.900  16.293   4.597
69545W        W28982  41.984  44.796  14.783
69546W        W28983   7.369   2.334   3.655
69547W        W28984  23.614  25.701   4.823
69548W        W28985  25.675   4.357   1.445
69549W        W28986  28.975  21.703   2.397
69550W        W28987   0.435  33.380   2.210
69551W        W28988   1.749  10.723  13.534
69552W        W28989  44.866   8.770   4.349
69553W        W28990  14.113   6.391  14.855
69554W        W28991  39.331  32.591   1.395
69555W        W28992  22.039  43.381   4.748
69556W        W28993  29.443  30.594  11.468
69557W        W28994  12.697   6.377   2.767
69558W        W28995  44.420  35.105   2.791
69559W        W28996  12.701  20.682  13.501
69560W        W28997   4.735  36.052  14.502
69561W        W28998   3.904   6.374  13.867
69562W        W28999   3.317  16.673   1.362
69563W        W29000   0.764  18.608   2.782
69564W        W29001  22.084  25.184  12.466
69565W        W29002  38.563  34.882  11.027
69566W        W29003  33.485  27.630   3.708
69567W        W29004  18.662  35.417   2.725
69568W        W29005  13.616  12.320   3.786
69569W        W29006  19.579  34.894  12.368
69570W        W29007  41.416   8.736  14.335
69571W        W29008  26.007  13.606   5.125
69572W        W29009  24.624  24.725   3.213
69573W        W29010  43.452   9.236  12.901
69574W        W29011  17.771  11.323  13.914
69575W        W29012  30.081   9.804  13.925
69576W        W29013  23.004  26.015   2.859
69577W        W29014  17.673   7.259   4.806
69578W        W29015  14.595  43.498  12.562
69579W        W29016  42.986  34.980  13.886
69580W        W29017  22.642  20.209   3.866
69581W        W29018  14.133  37.465  10.594
69582W        W29019   8.825  34.009  13.838
69583W        W29020   3.293  17.195   2.316
69584W        W29021  13.288  26.572   3.251
69585W        W29022  14.803  44.326   4.171
69586W        W29023  36.874  41.813   4.718
69587W        W29024   4.426  32.991   4.797
69588W        W29025  31.015  16.112   0.929
69589W        W29026   8.781  15.607  14.008
69590W        W29027   9.383  35.452  12.467
69591W        W29028  39.008   1.369  13.048
69592W        W29029  41.336  44.363  13.464
69593W        W29030   2.764  16.624   4.782
69594W        W29031   2.416  33.121  12.478
69595W        W29032   5.868  14.813  10.449
69596W        W29033  44.757  13.831  14.878
69597W        W29034  30.469  17.756  11.115
69598W        W29035  34.025  19.737  10.994
69599W        W29036   2.771  32.005   1.729
69600W        W29037  33.388  22.658   3.253
69601W        W29038  16.744  31.515  10.937
69602W        W29039  10.334  21.035   5.125
69603W        W29040  43.311   2.236   3.168
69604W        W29041   5.906   3.795  12.349
69605W        W29042  35.971  38.341   1.769
69606W        W29043  12.356  17.130  10.499
69607W        W29044  25.556  16.224  14.878
69608W        W29045   2.340  11.742  13.995
69609W        W29046   8.734  25.186   0.374
69610W        W29047   1.807  10.870  14.970
69611W        W29048  16.736  34.077  12.943
69612W        W29049  35.940  42.944  10.452
69613W        W29050  39.864  34.019   3.162
69614W        W29051  34.082   4.844   4.259
69615W        W29052  19.181  30.037  13.507
69616W        W29053  36.975  22.220  10.643
69617W        W29054  37.536  43.969   1.825
69618W        W29055  44.929   3.283  11.377
69619W        W29056  16.588  22.054   0.853
69620W        W29057  41.967  27.174   2.683
69621W        W29058  22.585  12.850  11.006
69622W        W29059  26.967  39.928  13.370
69623W        W29060  25.648   5.876  14.887
69624W        W29061   3.406   9.381  11.561
69625W        W29062  35.540  28.001  11.552
69626W        W29063  40.045  12.779   0.839
69627W        W29064  11.369  19.692  14.489
69628W        W29065  18.135  39.019   1.842
69629W        W29066  24.618  30.003  12.378
69630W        W29067  32.495  42.948   4.214
69631W        W29068  31.918  32.635   4.155
69632W        W29069  22.196  11.145   2.234
69633W        W29070  18.279  31.645   0.306
69634W        W29071  11.703  42.496   0.280
69635W        W29072  24.716   0.259   3.341
69636W        W29073  10.821  39.538  14.415
69637W        W29074  11.159  32.964  12.908
69638W        W29075  38.475  21.598   1.322
69639W        W29076   0.310  42.383  11.010
69640W        W29077  20.753  34.987   4.717
69641W        W29078  17.146   6.293  14.827
69642W        W29079  10.347  14.622  14.946
69643W        W29080  25.584  38.568   4.328
69644W        W29081  31.456   2.290   4.168
69645W        W29082   1.384  13.149   2.391
69646W        W29083  31.472  16.269   4.189
69647W        W29084  42.024  26.662   5.084
69648W        W29085   9.166  15.116   1.293
69649W        W29086   6.270  41.908  13.333
69650W        W29087  43.453  32.064  14.421
69651W        W29088  16.674  16.706   2.217
69652W        W29089  21.650   2.820   3.637
69653W        W29090  29.509  28.681   2.692
69654W        W29091  40.902  16.247   4.644
69655W        W29092   7.403  31.117  14.015
69656W        W29093   7.843  32.551  14.416
69657W        W29094  15.214  11.731   2.191
69658W        W29095  26.527  30.080   2.818
69659W        W29096  10.210  19.674   3.674
69660W        W29097   9.327  10.203  13.447
69661W        W29098   3.443   8.375  12.569
69662W        W29099  27.661  43.802   3.780
69663W        W29100  28.959  22.043   3.241
69664W        W29101   8.844  11.622   2.204
69665W        W29102  29.610  31.478  11.054
69666W        W29103  20.725  41.293  13.468
69667W        W29104  30.924   8.333  13.903
69668W        W29105  29.646   6.216   1.445
69669W        W29106   0.446   5.346  12.021
69670W        W29107  10.802   1.776   1.420
69671W        W29108  29.036  16.087   0.882
69672W        W29109   7.307  34.426  13.315
69673W        W29110  40.049  26.108   3.161
69674W        W29111   3.794  18.187   0.888
69675W        W29112   1.862   6.832  14.355
69676W        W29113   7.697   8.805   4.616
69677W        W29114   3.843  16.639  11.383
69678W        W29115  44.395   5.306  14.496
69679W        W29116  11.177  39.909  10.552
69680W        W29117  18.284  15.223   4.776
69681W        W29118  12.271  31.612   2.411
69682W        W29119  41.855  33.610   0.898
69683W        W29120  33.503  42.951  14.778
69684W        W29121  14.151  20.695  11.004
69685W        W29122  32.408   9.304   4.765
69686W        W29123  21.579  29.438  12.508
69687W        W29124  19.267   9.243  10.538
69688W        W29125   9.386  13.632  13.050
69689W        W29126  39.417  40.498   2.398
69690W        W29127   9.357  20.246  10.967
69691W        W29128  17.737  28.548   1.354
69692W        W29129  22.122  36.575   3.717
69693W        W29130  42.951   1.770   1.241
69694W        W29131  12.286  27.960   2.803
69695W        W29132  25.070  27.944   5.277
69696W        W29133  36.407  18.173  11.944
69697W        W29134  18.145  24.065  11.920
69698W        W29135  26.476  27.449  14.978
69699W        W29136  32.078  34.875   2.365
69700W        W29137  39.026  26.636   3.280
69701W        W29138  36.450  30.472  11.508
69702W        W29139  25.600  16.726  14.451
69703W        W29140  32.441  26.684   4.231
69704W        W29141  38.417  30.947  13.345
69705W        W29142  16.686  44.272   1.925
69706W        W29143  40.510  19.671  10.901
69707W        W29144  14.293  33.982  11.961
69708W        W29145  15.612   1.909  10.057
69709W        W29146  19.654   2.831  11.882
69710W        W29147   0.760  43.855   4.351
69711W        W29148  11.820   0.893   1.421
69712W        W29149   9.197  29.994  11.544
69713W        W29150   9.158  34.871   1.439
69714W        W29151  20.659  39.947  13.934
69715W        W29152  10.199  12.349  10.979
69716W        W29153  25.134  36.855  13.425
69717W        W29154  12.243  42.031  11.079
69718W        W29155  28.504  22.567   4.273
69719W        W29156  23.569  43.485   3.222
69720W        W29157   7.360  14.179   4.612
69721W        W29158  26.530  10.191  11.595
69722W        W29159  36.571  29.121  13.364
69723W        W29160  28.483   7.871   0.247
69724W        W29161  13.167  13.822  13.965
69725W        W29162   4.721  17.147  12.543
69726W        W29163  24.516   4.827   2.727
69727W        W29164  11.204  17.098  10.621
69728W        W29165  42.021  37.870   1.751
69729W        W29166  35.004  29.593   5.124
69730W        W29167   6.421  29.959   0.763
69731W        W29168  31.646  15.208   2.333
69732W        W29169  15.628  25.473   2.205
69733W        W29170   3.394  37.399   3.815
69734W        W29171   2.233  10.350  11.483
69735W        W29172  10.179  20.079   0.903
69736W        W29173  22.246  25.143   0.338
69737W        W29174  30.425  28.973   1.857
69738W        W29175  35.900  14.310   1.787
69739W        W29176  30.413  16.287   0.287
69740W        W29177  34.536  44.399  11.537
69741W        W29178  29.006  33.898   1.300
69742W        W29179  20.586  36.080   4.272
69743W        W29180  11.154   8.222   3.696
69744W        W29181  10.722  27.676  12.464
69745W        W29182  43.790  24.109  10.476
69746W        W29183  13.782  43.334   9.605
69747W        W29184  28.475  26.000  12.525
69748W        W29185  15.212  33.027  14.441
69749W        W29186  43.326  12.318   2.408
69750W        W29187  11.138  19.611   3.209
69751W        W29188  36.914  32.924   1.869
69752W        W29189  37.435  20.687   3.157
69753W        W29190   5.804  26.478   3.230
69754W        W29191  26.175  23.541   0.828
69755W        W29192  19.603  21.673   1.766
69756W        W29193   1.425  15.120   4.620
69757W        W29194  25.200  21.233  10.992
69758W        W29195  36.418  19.108  13.534
69759W        W29196  23.544   2.422  14.833
69760W        W29197  35.939  43.881  13.534
69761W        W29198   9.848  44.801  10.542
69762W        W29199  22.601  39.480  14.399
69763W        W29200   6.384   4.234  12.950
69764W        W29201   0.297  39.969   2.386
69765W        W29202  19.050  14.834  14.453
69766W        W29203  27.451  40.889   2.413
69767W        W29204  14.707  11.718   1.767
69768W        W29205  14.780  11.322   4.294
69769W        W29206  35.856  12.665   0.449
69770W        W29207  12.277   0.482  10.501
69771W        W29208   2.234  37.393   1.761
69772W        W29209  10.866  16.808  11.448
69773W        W29210  18.278  27.466   1.212
69774W        W29211   4.868   2.390  12.417
69775W        W29212  21.257  18.051  10.524
69776W        W29213  25.551  32.589   1.349
69777W        W29214  20.067  40.868  12.523
69778W        W29215  30.531  33.540   4.837
69779W        W29216  35.859  18.712  11.434
69780W        W29217  30.458  32.614  13.525
69781W        W29218  27.949  36.427  13.317
69782W        W29219   0.278  39.334   5.749
69783W        W29220  23.580  32.437  10.444
69784W        W29221  22.173   5.415   3.739
69785W        W29222  40.467  43.442  12.571
69786W        W29223  37.448   3.370   1.870
69787W        W29224   8.713  23.680   0.365
69788W        W29225  25.010  22.644   2.368
69789W        W29226  43.428   6.849  11.868
69790W        W29227  43.371  31.425   1.875
69791W        W29228   2.346  27.670   5.089
69792W        W29229  26.123   6.410   1.421
69793W        W29230  36.482  32.608  11.112
69794W        W29231   8.854  34.489  11.110
69795W        W29232  43.271  36.555   3.158
69796W        W29233  23.545  24.152   1.411
69797W        W29234  30.151  17.797  13.794
69798W        W29235  21.077  38.466  10.438
69799W        W29236  24.652  16.101   3.360
69800W        W29237  11.190  27.113  14.769
69801W        W29238  30.154  17.652   2.212
69802W        W29239  42.913  36.990   3.376
69803W        W29240  35.977  28.578   1.409
69804W        W29241  31.492   9.364  12.498
69805W        W29242   5.725  41.887  12.506
69806W        W29243  42.461   5.852  12.961
69807W        W29244  44.274  33.027  11.963
69808W        W29245  29.636  11.266  14.466
69809W        W29246  25.475  32.412  13.344
69810W        W29247  36.581  18.699   1.259
69811W        W29248   3.334  41.422   1.262
69812W        W29249   5.334   4.205   2.240
69813W        W29250   1.956  26.014  11.044
69814W        W29251   1.885  35.879   4.318
69815W        W29252  40.990  32.958  13.968
69816W        W29253   8.380   7.751  12.343
69817W        W29254  10.150  18.603  12.564
69818W        W29255  10.378  25.020  11.421
69819W        W29256  33.427  22.671   1.785
69820W        W29257  10.207  15.636   0.399
69821W        W29258  30.986  26.119  13.810
69822W        W29259  17.704   5.744  12.860
69823W        W29260  20.684   8.220  10.933
69824W        W29261  41.492  18.222  13.950
69825W        W29262   4.852  36.052  13.976
69826W        W29263  15.188  24.988   2.874
69827W        W29264   0.269   5.800  12.958
69828W        W29265  20.593  23.128  12.988
69829W        W29266   3.922  44.878  11.468
69830W        W29267  15.249  10.787   3.207
69831W        W29268  25.621  14.740   1.387
69832W        W29269  13.321  32.138  13.322
69833W        W29270  27.167  39.035   3.688
69834W        W29271  19.669   9.250   5.141
69835W        W29272  18.651  29.030  13.884
69836W        W29273   5.427   8.229   0.951
69837W        W29274  24.182  16.613   0.941
69838W        W29275   3.457  18.782   4.130
69839W        W29276  30.998  33.985   3.689
69840W        W29277   5.741  28.653  14.474
69841W        W29278  33.877   2.383  12.927
69842W        W29279  16.109  13.225  11.961
69843W        W29280  13.704  19.126  14.340
69844W        W29281   5.788  21.120   4.270
69845W        W29282   6.885   5.369  10.501
69846W        W29283  23.599  26.596   4.334
69847W        W29284   5.380  22.687   0.388
69848W        W29285  34.086  29.051   4.798
69849W        W29286   4.355  29.483  12.970
69850W        W29287  16.811   1.884  12.529
69851W        W29288  26.003  30.076  11.381
69852W        W29289  16.160  32.092  10.544
69853W        W29290  42.443  26.486  11.036
69854W        W29291   6.733   6.752   3.381
69855W        W29292   6.792  38.444  12.022
69856W        W29293   9.257  22.725   3.265
69857W        W29294  20.219   7.248   4.617
69858W        W29295   2.350   3.821  12.028
69859W        W29296  40.313   4.218   2.717
69860W        W29297  24.001  41.366   2.375
69861W        W29298   1.450  31.598  14.870
69862W        W29299   3.241  16.235  14.866
69863W        W29300  33.424  17.688  14.471
69864W        W29301  18.285  38.329  11.917
69865W        W29302  12.636  14.096   1.868
69866W        W29303  36.391  23.168  13.322
69867W        W29304  23.145  28.163  13.469
69868W        W29305  10.363   3.734  10.434
69869W        W29306  40.920  28.137   2.867
69870W        W29307  19.537  17.224   2.406
69871W        W29308   9.169  15.248   1.834
69872W        W29309   0.286  23.110   3.257
69873W        W29310   9.849  39.445   2.355
69874W        W29311  29.494  10.378   2.313
69875W        W29312  36.475  37.024  11.524
69876W        W29313  24.539  19.596  10.517
69877W        W29314   2.832  11.177   0.775
69878W        W29315  34.412  19.766   4.608
69879W        W29316  15.644  35.544  10.551
69880W        W29317  32.080  15.209   3.752
69881W        W29318  44.919  26.638   1.361
69882W        W29319  40.308   8.892  14.922
69883W        W29320  14.692  40.027   2.323
69884W        W29321  14.725   2.244  12.494
69885W        W29322   1.814  10.721   1.815
69886W        W29323  11.780  32.982   3.184
69887W        W29324  39.946  34.430  11.547
69888W        W29325  34.557   3.881  12.375
69889W        W29326  32.617   0.919   4.708
69890W        W29327  27.989  33.525   4.196
69891W        W29328  19.043  18.786   3.291
69892W        W29329  25.493  26.577   4.704
69893W        W29330   3.790  12.180   0.747
69894W        W29331  38.359  32.432  12.412
69895W        W29332  29.042  14.326  12.956
69896W        W29333  43.437  10.707  14.767
69897W        W29334  19.586  13.744  12.426
69898W        W29335  27.126   0.269   0.274
69899W        W29336   2.340  22.659  11.054
69900W        W29337   2.271  35.408   3.842
69901W        W29338   0.268  35.592   1.931
69902W        W29339  26.097  40.960  14.476
69903W        W29340  13.118  28.953   2.262
69904W        W29341   0.487  24.227   0.856
69905W        W29342  21.119  33.420   4.194
69906W        W29343   4.719  19.598   4.772
69907W        W29344   0.282  25.610  14.313
69908W        W29345  41.382   1.314   2.327
69909W        W29346   7.239  43.270  13.832
69910W        W29347  37.064  23.229   0.868
69911W        W29348  17.169  23.713  10.519
69912W        W29349  31.539  38.858   1.409
69913W        W29350  43.336  12.806   1.274
69914W        W29351   6.284  35.931   9.977
69915W        W29352   1.873  41.849   2.718
69916W        W29353  30.023  41.299  13.314
69917W        W29354   3.435  20.214   5.203
69918W        W29355   2.856  43.853   0.923
69919W        W29356  44.913   7.352   4.194
69920W        W29357  22.022  11.154  10.141
69921W        W29358   0.463  39.481   1.371
69922W        W29359  21.024  15.668  13.020
69923W        W29360   2.346  26.186   2.305
69924W        W29361  27.517  20.084   0.471
69925W        W29362  30.544  34.878  11.592
69926W        W29363  19.544  14.778  14.357
69927W        W29364   4.809  40.823   3.337
69928W        W29365   6.778  33.519   4.818
69929W        W29366  35.933  30.930   0.475
69930W        W29367  37.846  16.127   4.735
69931W        W29368  41.030  28.962   2.403
69932W        W29369  31.061   1.240  11.002
69933W        W29370  19.657   7.272   0.335
69934W        W29371  38.408  14.794   0.933
69935W        W29372  31.976  14.295   4.135
69936W        W29373  29.501   8.218   3.336
69937W        W29374  42.987  26.615   4.630
69938W        W29375  39.868  35.010  10.949
69939W        W29376  33.477   3.339  10.119
69940W        W29377  26.202  31.993   3.685
69941W        W29378   8.660   0.479   0.741
69942W        W29379  21.670   7.373  10.947
69943W        W29380  13.773  26.672  11.887
69944W        W29381  35.578   6.880  13.498
69945W        W29382  31.402  29.441   2.784
69946W        W29383  17.135  34.374   4.674
69947W        W29384  38.890  17.634   0.826
69948W        W29385   2.797   2.922  11.963
69949W        W29386  10.150  10.322   4.775
69950W        W29387  31.997   3.779  14.371
69951W        W29388   3.343  40.342  11.967
69952W        W29389  41.876  20.061  13.831
69953W        W29390  21.548  15.814  11.563
69954W        W29391  21.648  25.189  11.864
69955W        W29392  26.546  44.835  14.915
69956W        W29393   1.953  32.450  13.329
69957W        W29394  32.958  28.143  14.513
69958W        W29395  25.095  39.432  14.416
69959W        W29396  20.076   6.381  12.927
69960W        W29397   8.663   0.906   0.442
69961W        W29398  24.505  40.339   4.710
69962W        W29399   3.723   7.754  10.949
69963W        W29400  43.011  33.564  13.375
69964W        W29401  12.294  18.674   0.307
69965W        W29402  13.611  37.040   4.697
69966W        W29403   4.726  15.216   9.607
69967W        W29404   3.723  16.653  12.483
69968W        W29405  21.203  29.543  12.547
69969W        W29406   7.262  31.089   2.886
69970W        W29407  27.050  35.518  11.450
69971W        W29408  12.350  37.039   2.271
69972W        W29409   1.270  27.146  11.541
69973W        W29410  29.125  15.315   4.164
69974W        W29411  30.102  19.710   2.372
69975W        W29412   0.868  31.492   4.169
69976W        W29413   2.258   4.775  14.368
69977W        W29414  26.093  17.267   4.637
69978W        W29415  35.364  20.174   4.739
69979W        W29416  42.836  24.634  13.319
69980W        W29417  32.496   0.348   1.918
69981W        W29418  29.129  30.473  13.998
69982W        W29419  20.629  34.079  13.966
69983W        W29420  30.546  42.808  12.047
69984W        W29421   0.441  25.603  13.043
69985W        W29422   4.449   6.847   0.884
69986W        W29423  15.260  44.363   0.881
69987W        W29424  12.310   7.298   2.325
69988W        W29425  30.128  13.614  12.825
69989W        W29426  18.210  14.298   2.724
69990W        W29427   9.219  42.477   1.862
69991W        W29428  39.357  14.628  10.547
69992W        W29429  44.333   5.910  13.334
69993W        W29430   4.284  30.038  10.562
69994W        W29431  19.657   1.414   3.683
69995W        W29432  14.248  24.636  11.951
69996W        W29433  40.016  35.042  11.978
69997W        W29434   4.885  18.172  10.933
69998W        W29435  15.759  23.664  11.979
69999W        W29436  19.770  31.065   1.279
70000W        W29437  41.465  14.339   1.436
70001W        W29438  21.612  32.991  11.400
70002W        W29439  19.580  41.040   4.770
70003W        W29440   2.819  39.464  11.382
70004W        W29441   3.922   4.240  14.440
70005W        W29442  16.791  27.571  14.884
70006W        W29443  38.872  23.164  11.092
70007W        W29444  27.465   5.326  10.516
70008W        W29445  30.977  16.075   2.416
70009W        W29446  16.726   4.906   1.250
70010W        W29447  12.825   8.355  10.403
70011W        W29448  35.099   3.736   4.295
70012W        W29449   2.936   9.840   0.481
70013W        W29450  32.899  43.964   3.758
70014W        W29451   5.367  17.095   3.245
70015W        W29452   1.967   5.386  11.060
70016W        W29453  37.372  44.275   0.960
70017W        W29454  26.132  17.587   3.842
70018W        W29455  12.797  29.927   4.695
70019W        W29456  13.669  44.937  12.386
70020W        W29457  39.043   5.878  13.548
70021W        W29458  11.372  11.338  12.427
70022W        W29459  35.043   7.767   2.789
70023W        W29460  20.585   0.367  14.883
70024W        W29461  12.709  43.009   4.666
70025W        W29462  43.915  31.071   2.240
70026W        W29463  29.592   2.400   4.206
70027W        W29464  31.078  26.994  12.385
70028W        W29465  19.718  33.016   0.813
70029W        W29466  19.647  32.405  13.881
70030W        W29467  38.336  23.534   0.371
70031W        W29468  30.484   6.422   3.828
70032W        W29469  34.565  30.963  13.814
70033W        W29470  32.967   0.749   0.418
70034W        W29471  43.309   1.942  13.961
70035W        W29472  15.275  36.908   0.297
70036W        W29473  42.896  41.315   0.953
70037W        W29474  32.558  37.560  11.432
70038W        W29475   7.240  28.641   3.228
70039W        W29476  44.951  25.143   3.731
70040W        W29477   8.841  23.985   3.357
70041W        W29478   7.385  15.790   2.323
70042W        W29479  19.778  44.412  10.501
70043W        W29480  23.652  22.622   2.316
70044W        W29481  25.026  21.572  14.360
70045W        W29482  22.028   0.416   0.265
70046W        W29483  15.222   5.241  11.883
70047W        W29484  36.027  33.950   4.707
70048W        W29485  44.437  34.370  13.003
70049W        W29486  22.081  33.951   3.249
70050W        W29487  35.453  35.424  11.557
70051W        W29488  20.117   0.281  11.411
70052W        W29489   8.354   2.310  11.596
70053W        W29490   4.901   2.727   3.743
70054W        W29491  26.555   7.794  14.965
70055W        W29492  15.085  29.519  10.434
70056W        W29493  26.490  24.598   1.402
70057W        W29494  17.792  11.208   0.757
70058W        W29495  19.570  42.861  10.610
70059W        W29496  27.081  11.147  12.344
70060W        W29497  32.077   5.342  11.392
70061W        W29498  44.963  26.685  14.827
70062W        W29499  36.855  39.495   2.415
70063W        W29500  18.600   3.880   2.200
70064W        W29501  11.318   9.203   0.470
70065W        W29502  16.097  40.968   1.224
70066W        W29503  41.989  29.558   3.377
70067W        W29504  41.869  22.174   3.314
70068W        W29505   4.743  40.303   4.299
70069W        W29506  36.449  28.005   2.863
70070W        W29507   1.889  31.989  12.029
70071W        W29508  40.974  38.066   4.182
70072W        W29509  10.856  33.095  11.086
70073W        W29510   5.735  15.129  13.400
70074W        W29511  30.525  33.891   3.779
70075W        W29512  10.354  39.887  11.980
70076W        W29513  27.543   7.795  13.904
70077W        W29514   0.409  10.173   1.308
70078W        W29515  21.137  43.399   2.732
70079W        W29516  25.169   2.241  11.856
70080W        W29517   0.874   0.758   0.805
70081W        W29518  37.402   1.971  11.089
70082W        W29519  42.487  43.978  14.475
70083W        W29520  40.015  43.496   0.481
70084W        W29521   4.259  19.617   1.807
70085W        W29522   6.796   7.386   2.273
70086W        W29523  34.528  43.378   2.833
70087W        W29524   5.871  12.684  11.524
70088W        W29525  17.063  26.133   4.160
70089W        W29526  24.634   6.248  13.798
70090W        W29527  12.842  31.428  14.992
70091W        W29528  12.621  40.896   0.308
70092W        W29529  14.277  30.131   0.358
70093W        W29530  21.644   1.375   1.273
70094W        W29531  35.515   2.932   3.764
70095W        W29532  26.557  22.567  14.015
70096W        W29533  31.592  42.845  13.338
70097W        W29534  41.875  35.941   1.415
70098W        W29535  31.475   4.893   1.760
70099W        W29536  16.780   5.798  14.897
70100W        W29537  25.624   8.372  13.058
70101W        W29538  23.216  18.222  11.607
70102W        W29539  22.152  43.979   1.802
70103W        W29540  42.801  41.988  13.422
70104W        W29541  15.274   2.732   0.773
70105W        W29542   6.841  25.195   0.321
70106W        W29543   0.442  42.318  14.468
70107W        W29544  13.659  44.826  14.478
70108W        W29545  37.413   2.283   3.749
70109W        W29546   8.894  37.875   3.336
70110W        W29547  24.563  18.243   4.633
70111W        W29548  34.111  32.111  10.963
70112W        W29549  27.985  34.909  13.528
70113W        W29550   1.295  10.685  14.805
70114W        W29551   6.230  34.508   5.122
70115W        W29552  38.074  36.002   2.821
70116W        W29553  31.028  37.085   0.739
70117W        W29554  42.949  14.797   1.328
70118W        W29555  20.207   1.928  13.335
70119W        W29556  37.418  12.706  13.799
70120W        W29557  44.486   8.758  11.127
70121W        W29558  26.165  42.390  10.452
70122W        W29559   5.246  12.806  11.547
70123W        W29560  18.100  24.997   2.667
70124W        W29561  28.674   0.488   0.330
70125W        W29562   4.782  35.047  14.793
70126W        W29563  22.552  37.000   1.788
70127W        W29564  31.146  41.420  13.464
70128W        W29565  33.082  11.734   0.405
70129W        W29566  31.079  43.374   2.724
70130W        W29567   6.702  16.689  10.949
70131W        W29568  21.587   2.394  10.919
70132W        W29569  11.688  34.418  12.437
70133W        W29570  38.549  30.655  11.124
70134W        W29571   5.687  37.575  11.606
70135W        W29572  34.087   0.966   3.187
70136W        W29573  11.623  26.076  13.463
70137W        W29574  28.089  19.664  14.900
70138W        W29575  17.221  44.505   4.332
70139W        W29576  31.974  14.590  10.462
70140W        W29577   2.759  16.101   5.170
70141W        W29578  38.037  11.252  11.497
70142W        W29579  26.092  35.978   3.639
70143W        W29580  40.879   2.284   4.147
70144W        W29581  44.414  34.483   2.378
70145W        W29582   5.841   5.892  10.575
70146W        W29583   4.322   6.688   4.756
70147W        W29584  14.746  23.185  10.949
70148W        W29585  24.546  11.223  12.341
70149W        W29586   4.733  33.455  14.966
70150W        W29587  32.028  13.846  13.510
70151W        W29588  22.104  33.876  13.911
70152W        W29589  37.343  28.529  13.005
70153W        W29590   4.754  39.953  14.360
70154W        W29591  40.047  37.895   1.224
70155W        W29592   6.717  34.498   2.193
70156W        W29593  38.943  35.413   2.839
70157W        W29594  34.973  27.017   4.233
70158W        W29595   4.257  36.502  13.431
70159W        W29596  16.794  22.152   0.283
70160W        W29597  11.290  36.844   0.856
70161W        W29598   6.417  38.355   3.183
70162W        W29599  44.354   7.822  13.409
70163W        W29600  42.881  42.008  10.408
70164W        W29601  27.003  35.459  14.928
70165W        W29602  29.611  41.429  11.923
70166W        W29603  42.954  42.326   2.843
70167W        W29604  35.075  22.167   0.880
70168W        W29605  18.735  32.036  14.292
70169W        W29606  16.266  44.763  10.104
70170W        W29607  16.080   7.841  11.448
70171W        W29608  33.453  34.094   0.367
70172W        W29609  18.615  21.257   5.127
70173W        W29610  13.763  35.909  12.443
70174W        W29611  17.707   7.234   2.414
70175W        W29612  34.421  24.621   9.956
70176W        W29613   7.220  15.691   2.693
70177W        W29614  43.813   9.646   1.388
70178W        W29615  33.614   4.366  11.604
70179W        W29616  16.673   3.317  12.447
70180W        W29617  21.662  27.494  14.806
70181W        W29618  27.119  29.133  12.356
70182W        W29619  37.519  22.507  10.561
70183W        W29620  17.756  17.273  13.343
70184W        W29621  25.175  41.792  12.871
70185W        W29622   5.259  10.379   1.752
70186W        W29623  34.440  25.687   1.287
70187W        W29624   5.307  18.141  11.933
70188W        W29625  21.539   5.789  10.625
70189W        W29626  10.201  38.449   1.928
70190W        W29627  16.273  23.677   3.753
70191W        W29628  36.570  17.597   4.193
70192W        W29629  29.656  32.979  11.999
70193W        W29630  37.939  16.100  11.455
70194W        W29631   5.730  18.675  13.857
70195W        W29632   5.809   1.333   3.788
70196W        W29633  24.181  28.186  10.640
70197W        W29634  23.149  11.347   2.291
70198W        W29635  41.350  28.937   3.229
70199W        W29636  16.808  44.447   3.713
70200W        W29637  31.087  28.631   4.617
70201W        W29638  35.064   8.837   1.930
70202W        W29639  42.945  20.749  10.479
70203W        W29640  33.536   2.438  13.426
70204W        W29641  41.957  18.761  12.403
70205W        W29642  40.845  16.805   3.723
70206W        W29643  34.938  14.702   0.321
70207W        W29644  14.253   7.667   0.766
70208W        W29645  33.573  42.521  11.080
70209W        W29646   7.227  20.583  14.947
70210W        W29647  23.604   7.852   3.168
70211W        W29648  32.987  37.475   2.261
70212W        W29649  42.372  40.813  14.292
70213W        W29650   8.270   8.689   3.176
70214W        W29651   3.329   2.278  12.394
70215W        W29652  19.103  32.068  14.475
70216W        W29653   5.764  16.735  14.776
70217W        W29654  31.052  36.075   4.774
70218W        W29655   9.365  29.007   4.630
70219W        W29656   7.312  38.888   2.403
70220W        W29657  30.472   8.405  14.490
70221W        W29658  13.768  25.685  13.804
70222W        W29659  33.902  27.672  13.970
70223W        W29660  28.979   1.355   0.244
70224W        W29661  21.566  35.600   2.208
70225W        W29662   9.281  37.907  12.486
70226W        W29663  20.091  31.437  13.045
70227W        W29664  29.023  41.829   2.682
70228W        W29665  16.576  30.507  12.846
70229W        W29666   7.668  43.929   2.874
70230W        W29667  31.642  29.603  14.863
70231W        W29668   6.369   2.431   1.344
70232W        W29669  42.907  44.299  10.477
70233W        W29670  26.677  11.272  12.939
70234W        W29671  27.670  19.752  11.047
70235W        W29672   4.739   5.767  13.396
70236W        W29673  39.897  27.530  11.546
70237W        W29674   6.315  30.097   9.966
70238W        W29675  12.802   9.370  12.907
70239W        W29676   3.936  22.651   1.243
70240W        W29677   3.319  25.606   2.725
70241W        W29678  37.036  24.691  10.468
70242W        W29679  11.274  36.863  13.882
70243W        W29680  40.520  36.853   4.722
70244W        W29681  37.862   1.295  10.455
70245W        W29682  15.293  23.639  12.416
70246W        W29683  34.572  23.218   0.813
70247W        W29684   5.202   5.714   0.922
70248W        W29685  12.215  33.978  12.424
70249W        W29686  20.734  35.926  13.310
70250W        W29687  30.515  25.980  10.430
70251W        W29688   2.243  14.772  14.488
70252W        W29689   4.448   6.920   2.778
70253W        W29690   1.269  42.343   3.754
70254W        W29691  42.820  10.677  12.910
70255W        W29692  20.077  22.089  14.379
70256W        W29693  24.084   6.785   1.318
70257W        W29694  21.260  15.607   2.813
70258W        W29695  24.572  20.699  11.039
70259W        W29696  26.589  29.472   1.716
70260W        W29697  40.999   7.823  14.997
70261W        W29698  25.544   7.188  12.090
70262W        W29699  17.232  17.131  14.817
70263W        W29700  19.598  11.334   4.287
70264W        W29701  31.065  17.693  13.042
70265W        W29702   1.736  15.124   4.672
70266W        W29703   9.395  23.670  10.486
70267W        W29704   3.253   5.879  14.436
70268W        W29705   1.290   7.231   0.890
70269W        W29706  21.565   3.456   1.741
70270W        W29707   7.222  31.017   0.374
70271W        W29708  14.280  31.898   2.226
70272W        W29709  44.412  14.338  10.070
70273W        W29710  39.418  42.963   2.346
70274W        W29711  23.728   4.886  10.466
70275W        W29712  32.048  12.182  14.444
70276W        W29713  37.944  23.592  14.019
70277W        W29714  19.244  10.367  12.836
70278W        W29715  36.939  28.664   0.788
70279W        W29716  43.921  16.723   2.728
70280W        W29717  14.273  17.268  14.958
70281W        W29718   8.211   3.802  14.842
70282W        W29719  29.052  19.656  13.530
70283W        W29720  17.581  37.891   0.729
70284W        W29721  17.778   6.333   1.705
70285W        W29722  39.915  34.072   2.819
70286W        W29723  22.507  20.036   0.357
70287W        W29724  29.518  20.204   1.875
70288W        W29725  25.536   4.943   5.294
70289W        W29726  35.965  34.084  11.892
70290W        W29727  33.576  11.292  12.011
70291W        W29728  12.647  14.694   4.303
70292W        W29729  40.885  16.111   4.180
70293W        W29730  30.118  10.287   1.310
70294W        W29731  35.064   5.403  14.763
70295W        W29732  43.296  29.131  10.634
70296W        W29733  36.976  44.411  13.516
70297W        W29734   3.897  34.927  12.409
70298W        W29735  41.013  25.656   2.743
70299W        W29736  13.332  23.064  12.378
70300W        W29737   9.818  11.768  10.442
70301W        W29738   6.193   0.453  14.433
70302W        W29739  11.335  40.519  11.062
70303W        W29740   6.831  23.726  10.889
70304W        W29741   2.962  43.388   2.200
70305W        W29742  42.850  23.011   4.320
70306W        W29743  38.821   2.913   3.191
70307W        W29744  22.115  24.218   2.286
70308W        W29745  43.886  13.246   1.785
70309W        W29746  23.579  38.542   9.547
70310W        W29747  11.686  22.688   3.288
70311W        W29748  15.581  10.700  14.031
70312W        W29749   8.790  37.572  11.869
70313W        W29750  25.654  37.963  12.854
70314W        W29751  15.247  28.552  11.982
70315W        W29752  39.554  24.178  10.496
70316W        W29753  38.485  24.119  13.902
70317W        W29754   9.236  42.800  10.911
70318W        W29755  32.575  33.417   1.935
70319W        W29756  27.955  12.691   1.300
70320W        W29757  20.168  14.819   1.258
70321W        W29758  15.294   0.446   1.404
70322W        W29759  14.311  31.502  13.960
70323W        W29760  10.187   6.883  11.889
70324W        W29761  14.724  20.058  13.522
70325W        W29762  32.905   5.777  12.471
70326W        W29763  43.813  17.637   0.404
70327W        W29764  36.091   3.896  11.990
70328W        W29765  29.023  40.030   1.852
70329W        W29766  38.916  27.551  13.376
70330W        W29767  37.974  15.621   0.275
70331W        W29768  37.466  20.636   2.685
70332W        W29769  23.001   1.866  12.357
70333W        W29770  37.062  12.843  14.937
70334W        W29771  24.204  22.626  13.793
70335W        W29772  27.028  38.487   1.906
70336W        W29773   1.935  37.978  11.431
70337W        W29774  31.978  21.629   0.454
70338W        W29775   4.729  27.645  14.389
70339W        W29776  14.779  39.421   2.876
70340W        W29777  39.030  10.801  11.077
70341W        W29778  31.131   4.711  13.321
70342W        W29779  41.487  11.817  14.474
70343W        W29780  15.303  17.583   2.746
70344W        W29781  16.297  26.696   2.787
70345W        W29782   1.241  24.678   0.816
70346W        W29783  42.865  30.532  13.884
70347W        W29784  37.351  30.597  13.420
70348W        W29785  42.890  41.401  14.441
70349W        W29786  19.198  43.315   2.841
70350W        W29787  24.143  42.305  10.418
70351W        W29788  35.912  15.629   1.388
70352W        W29789  40.928  12.166  12.379
70353W        W29790  36.063  42.979   4.630
70354W        W29791  17.306  33.438   2.229
70355W        W29792  42.405  41.897   4.656
70356W        W29793  25.658  17.084   3.711
70357W        W29794   6.681  14.215   1.930
70358W        W29795  15.594  13.261   4.133
70359W        W29796   1.463  12.168   5.311
70360W        W29797   8.368  21.117   4.199
70361W        W29798   4.441  42.466   2.329
70362W        W29799  31.918  27.623  10.580
70363W        W29800  31.605  18.144  12.349
70364W        W29801   6.912  13.779  13.867
70365W        W29802  24.674  34.432   0.425
70366W        W29803   9.174  32.568  13.338
70367W        W29804  24.659  36.490   5.169
70368W        W29805  27.046  10.168  14.464
70369W        W29806  30.595   0.912  10.964
70370W        W29807  39.513  26.040  13.439
70371W        W29808  21.574  26.131  11.491
70372W        W29809  16.238   2.250   1.809
70373W        W29810  31.407  18.167  10.522
70374W        W29811  27.563  22.014   0.381
70375W        W29812  13.248  12.272   3.796
70376W        W29813  19.737  10.376   9.938
70377W        W29814  12.846  38.354  11.859
70378W        W29815  11.687   6.702   2.236
70379W        W29816  32.533   5.432   2.845
70380W        W29817  15.771  13.739  12.888
70381W        W29818  43.451  16.794   0.803
70382W        W29819  10.808  13.270   2.739
70383W        W29820  16.780  41.467  13.398
70384W        W29821  20.700  40.415   1.871
70385W        W29822  26.615  44.449  13.832
70386W        W29823  19.156   3.749  11.086
70387W        W29824  37.847  15.764   3.213
70388W        W29825  38.510  38.875   1.902
70389W        W29826  15.718  36.040  12.072
70390W        W29827  31.993  27.966  11.531
70391W        W29828  32.420   4.788  10.083
70392W        W29829   8.304  24.225  11.579
70393W        W29830  40.424   0.394   2.779
70394W        W29831  28.122  23.996  11.059
70395W        W29832  31.584  38.352   4.599
70396W        W29833   4.267  26.973  10.563
70397W        W29834  44.914  39.917   4.615
70398W        W29835  44.266  21.669   2.774
70399W        W29836  10.638   0.384   1.879
70400W        W29837  30.106  28.504  14.326
70401W        W29838  18.758  29.090   3.737
70402W        W29839  44.809  33.557   0.753
70403W        W29840   9.228  41.502  13.943
70404W        W29841  29.926  40.431  12.950
70405W        W29842   0.368  41.335  11.996
70406W        W29843   3.302  15.266  14.901
70407W        W29844   3.316  35.448  14.319
70408W        W29845  23.146  21.515  12.493
70409W        W29846  43.882  30.421   0.866
70410W        W29847  28.488   9.382   2.849
70411W        W29848  30.474  41.041   3.800
70412W        W29849  12.759  12.760  10.993
70413W        W29850  10.219  16.592   3.718
70414W        W29851  35.592  12.141  10.632
70415W        W29852  39.481  44.304   4.220
70416W        W29853  28.079   8.660  14.940
70417W        W29854   2.229  42.008   3.699
70418W        W29855  29.024  31.596  13.038
70419W        W29856  16.144  33.563  14.373
70420W        W29857  35.058  11.243   1.348
70421W        W29858  44.475  30.461  12.870
70422W        W29859   3.423   3.300  14.463
70423W        W29860  25.623  33.969  11.571
70424W        W29861   7.321  42.322   2.222
70425W        W29862  14.093  27.105  11.893
70426W        W29863   6.891  24.005  10.930
70427W        W29864  21.112  27.941  12.486
70428W        W29865  13.323  24.142  14.497
70429W        W29866  16.735   2.316   3.764
70430W        W29867  30.551   2.472  10.585
70431W        W29868  15.250  14.198   0.952
70432W        W29869  10.137   6.802   2.712
70433W        W29870   6.792  36.526  12.958
70434W        W29871  24.544  39.016   1.836
70435W        W29872   2.886  13.636  11.446
70436W        W29873  38.028  12.801   4.172
70437W        W29874  14.098  37.977   3.857
70438W        W29875   6.251  10.690   1.344
70439W        W29876  21.097  12.257   4.699
70440W        W29877  25.106  44.278  14.419
70441W        W29878   3.257  36.041   3.710
70442W        W29879  14.267  14.663  13.362
70443W        W29880  20.051   1.898  12.495
70444W        W29881  17.293   4.384  11.978
70445W        W29882  33.411   8.335  10.144
70446W        W29883  16.630  27.036  11.611
70447W        W29884  34.401  17.743  11.587
70448W        W29885  25.531  25.494   4.746
70449W        W29886  25.495  19.560  13.042
70450W        W29887  27.653  43.510   3.662
70451W        W29888  33.051  37.949  11.863
70452W        W29889   1.905  41.835  12.559
70453W        W29890  43.001  22.728  10.898
70454W        W29891  42.976  31.510  12.478
70455W        W29892  27.944  14.630  10.528
70456W        W29893  42.328  13.675   0.874
70457W        W29894  14.116  23.084  14.863
70458W        W29895  23.996  39.483   2.199
70459W        W29896  22.193  43.883  12.003
70460W        W29897  20.066  24.653   9.538
70461W        W29898  34.526  29.026  12.938
70462W        W29899  20.676  44.950  10.450
70463W        W29900  43.768  33.946  10.144
70464W        W29901  15.608  13.761  13.436
70465W        W29902   9.791  21.190  13.013
70466W        W29903  42.407  20.536   0.388
70467W        W29904  44.774  29.937  12.413
70468W        W29905   7.692  10.762   1.341
70469W        W29906  14.832  37.003   4.284
70470W        W29907  41.448   5.368   2.204
70471W        W29908   5.794   4.233  10.965
70472W        W29909  23.558  14.740  10.558
70473W        W29910  14.313   5.859  14.800
70474W        W29911  11.343  27.144   4.166
70475W        W29912   9.274  14.140  10.928
70476W        W29913  11.244  10.844   1.392
70477W        W29914  24.034  34.425   9.970
70478W        W29915  29.644  37.578  12.090
70479W        W29916  16.241  26.152   0.390
70480W        W29917   0.284   8.854   2.769
70481W        W29918   9.702  30.986   3.750
70482W        W29919  21.527  36.940   3.757
70483W        W29920   0.929  27.055   3.710
70484W        W29921  40.954   4.252  14.426
70485W        W29922  40.328   3.386  11.412
70486W        W29923  33.398  38.423  11.036
70487W        W29924  15.701  22.011   3.155
70488W        W29925  42.526  35.458   3.863
70489W        W29926  21.190  32.547   3.739
70490W        W29927  29.040  33.461  10.611
70491W        W29928  38.017  21.651  13.956
70492W        W29929  39.374   2.294   4.231
70493W        W29930  13.281   4.303   3.369
70494W        W29931   5.834  35.577   1.855
70495W        W29932  26.606  26.657   3.167
70496W        W29933   0.929  25.652   1.297
70497W        W29934   3.234  35.431   3.765
70498W        W29935  11.695  41.448   9.958
70499W        W29936   7.905  41.844   3.192
70500W        W29937  15.583   6.217   0.323
70501W        W29938  29.931   5.933  13.505
70502W        W29939  40.010  24.210   1.823
70503W        W29940  26.025   9.810   0.283
70504W        W29941   3.946  19.578  14.852
70505W        W29942  40.043  27.147   4.193
70506W        W29943   2.328   8.277  12.092
70507W        W29944  39.908  21.668  11.382
70508W        W29945   3.328  32.612   4.648
70509W        W29946   2.278  27.985   3.248
70510W        W29947  22.145  17.661  10.410
70511W        W29948  18.119  30.089  12.935
70512W        W29949  39.462  41.508  14.472
70513W        W29950  13.712  10.366   1.841
70514W        W29951  36.505  23.561   4.141
70515W        W29952  43.345  29.462   2.735
70516W        W29953  35.510  14.600   1.307
70517W        W29954   2.945  44.893  13.356
70518W        W29955  41.967   0.469   2.789
70519W        W29956  19.602  30.532   1.298
70520W        W29957  11.171  14.811   4.263
70521W        W29958  27.616  20.167  13.955
70522W        W29959  22.502  13.640  14.516
70523W        W29960  14.100  23.523  14.328
70524W        W29961  25.189  19.254  13.848
70525W        W29962  32.559  44.820  13.920
70526W        W29963  31.151  27.569   2.406
70527W        W29964  35.013  13.241   2.728
70528W        W29965  34.614  13.702  10.635
70529W        W29966   1.793  20.054   4.200
70530W        W29967  21.235  23.081   4.684
70531W        W29968  38.025  25.197  10.951
70532W        W29969  37.486  21.678  11.871
70533W        W29970   0.406  26.601  13.317
70534W        W29971  25.682   2.915  13.950
70535W        W29972   8.892  40.461   0.370
70536W        W29973  14.659  33.530   9.969
70537W        W29974  15.308  11.338   0.947
70538W        W29975   1.743  42.376  10.619
70539W        W29976   5.425  39.000   2.207
70540W        W29977  39.042  23.547  13.803
70541W        W29978  15.111  14.761   3.648
70542W        W29979  35.885   0.769   4.621
70543W        W29980  19.631  38.455  14.403
70544W        W29981  30.913  43.372  12.022
70545W        W29982  28.125  22.080   2.286
70546W        W29983   9.198  11.298   0.835
70547W        W29984   1.779   1.260   4.229
70548W        W29985  34.101  15.091  14.764
70549W        W29986  39.039  31.015   0.356
70550W        W29987  24.141  31.942   1.777
70551W        W29988  12.736  38.953  10.644
70552W        W29989  20.590  32.885  13.493
70553W        W29990  14.166  18.221   4.343
70554W        W29991  35.388   6.739   4.130
70555W        W29992  42.895  35.549   3.189
70556W        W29993  12.150  34.475  11.531
70557W        W29994   0.961  18.165   3.362
70558W        W29995   0.332  26.607   2.321
70559W        W29996  30.966  23.602  12.094
70560W        W29997  26.029  12.772  11.046
70561W        W29998  36.908  44.829  14.437
70562W        W29999  11.333  14.182   1.270
70563W        W30000  32.075  21.064  12.949
70564W        W30001  32.629  21.596   2.395
70565W        W30002   9.719   8.804  10.483
70566W        W30003  20.084   5.323   2.859
70567W        W30004  27.532  33.413   0.375
70568W        W30005   8.186  19.542   0.297
70569W        W30006  27.494  22.097   4.231
70570W        W30007   2.886  43.454   2.855
70571W        W30008  14.160   4.423  14.416
70572W        W30009  18.187  36.931   3.326
70573W        W30010   4.864   5.698   1.935
70574W        W30011  26.008  21.210  10.622
70575W        W30012   4.272   0.442   0.764
70576W        W30013  37.399  18.124  12.444
70577W        W30014  15.226  29.651   0.860
70578W        W30015  12.235  28.943   1.721
70579W        W30016  31.050   2.818   1.726
70580W        W30017  36.590  11.785   1.727
70581W        W30018   2.956   1.757  12.065
70582W        W30019  10.826   5.428   1.236
70583W        W30020  43.472  24.698   1.235
70584W        W30021  18.121  43.855   2.756
70585W        W30022   5.298  34.517  11.577
70586W        W30023  29.104  41.886   2.334
70587W        W30024  28.982  16.154  10.539
70588W        W30025   7.696  39.825  12.492
70589W        W30026  22.010  28.053   1.872
70590W        W30027  28.528  36.992  14.276
70591W        W30028  40.022  41.019  14.329
70592W        W30029  35.432  39.439   0.936
70593W        W30030  37.987  11.221   3.153
70594W        W30031  28.055  37.532  10.900
70595W        W30032   1.279   3.802   2.707
70596W        W30033   9.188   4.761   3.194
70597W        W30034  15.220   1.393   1.863
70598W        W30035  38.956  22.546   3.326
70599W        W30036  30.540  33.439  14.401
70600W        W30037  20.572  20.075   5.169
70601W        W30038  17.123  10.714  13.800
70602W        W30039   9.163  30.601   2.195
70603W        W30040  43.998   5.899   0.735
70604W        W30041  35.923  19.607  10.623
70605W        W30042  18.655  35.999  12.869
70606W        W30043  17.170  30.542   4.817
70607W        W30044  31.624   7.409   0.389
70608W        W30045  14.765  27.472  13.408
70609W        W30046  18.135  10.823   4.771
70610W        W30047  27.149  37.358  14.427
70611W        W30048   9.681   4.776   3.358
70612W        W30049  19.068   4.215  10.912
70613W        W30050  23.008  10.665  11.393
70614W        W30051  24.591   5.425   4.635
70615W        W30052  43.984  31.475  13.882
70616W        W30053  10.643   2.726  12.404
70617W        W30054   9.194  34.425  11.875
70618W        W30055  15.587  43.454   3.748
70619W        W30056  23.528  35.104  12.364
70620W        W30057  37.025  15.180  12.935
70621W        W30058  16.624  35.981   0.375
70622W        W30059  12.179  27.518   2.872
70623W        W30060   9.731  37.356   4.720
70624W        W30061  18.082   8.894  12.577
70625W        W30062  43.430  34.543   2.741
70626W        W30063  44.334  13.332  13.872
70627W        W30064   7.332  35.571  11.000
70628W        W30065  28.959  14.186   4.827
70629W        W30066  26.463  11.654   1.281
70630W        W30067  36.881  22.112   0.929
70631W        W30068  28.031  11.186   3.204
70632W        W30069  39.379  35.000   1.772
70633W        W30070  27.031  37.454   3.163
70634W        W30071   7.726   2.949  11.581
70635W        W30072  38.878  17.600  10.565
70636W        W30073  14.810  33.473  13.310
70637W        W30074  22.091  38.457   3.831
70638W        W30075  27.086  24.536  13.832
70639W        W30076   3.856   6.829   3.274
70640W        W30077  22.707  12.181   3.377
70641W        W30078  24.062  19.763  11.549
70642W        W30079  39.819  29.001  13.343
70643W        W30080  18.070  19.580  12.536
70644W        W30081   6.851  11.273  12.090
70645W        W30082  29.456  30.094  10.454
70646W        W30083   1.330  36.989  14.845
70647W        W30084  24.582  44.957  11.486
70648W        W30085  23.571   6.260  10.930
70649W        W30086  32.941  40.941  13.893
70650W        W30087  18.194  44.475  14.497
70651W        W30088  28.062   6.677  12.844
70652W        W30089  38.942  19.237   4.114
70653W        W30090  42.343  25.097  12.089
70654W        W30091   6.918  32.520  14.986
70655W        W30092  31.084   8.279   4.718
70656W        W30093  32.502   3.335  14.478
70657W        W30094  31.405  32.493  13.960
70658W        W30095  36.052  23.654   4.655
70659W        W30096  40.855   1.237  12.462
70660W        W30097  44.966  22.535  10.518
70661W        W30098  29.936  10.299  13.881
70662W        W30099  24.209  20.121  11.471
70663W        W30100  11.844  22.537  13.957
70664W        W30101  21.637  34.528   4.116
70665W        W30102  11.860   6.813  13.916
70666W        W30103  28.577  11.188  14.303
70667W        W30104   4.449  13.117  11.563
70668W        W30105   8.385  25.712   9.465
70669W        W30106   9.333   9.237  13.932
70670W        W30107   7.691  21.145  11.552
70671W        W30108  24.025  25.984   2.680
70672W        W30109  10.278  37.480   1.775
70673W        W30110  24.082  14.113  14.029
70674W        W30111  12.173  16.672  11.543
70675W        W30112  37.403   3.904  11.417
70676W        W30113  29.558  28.678   0.958
70677W        W30114  33.986  37.393  14.510
70678W        W30115  18.224  23.065  14.842
70679W        W30116   4.377  14.780   0.762
70680W        W30117   0.974  17.259  14.990
70681W        W30118  17.139  42.955   3.161
70682W        W30119  35.444  12.220  11.596
70683W        W30120  14.275   6.897  14.515
70684W        W30121  37.458   8.210  13.938
70685W        W30122  14.294  20.631  10.430
70686W        W30123  22.737  40.024  14.335
70687W        W30124   5.918  22.609   0.327
70688W        W30125  43.276  14.211  11.544
70689W        W30126  42.001  39.478  10.411
70690W        W30127  39.989  36.592   1.776
70691W        W30128  34.565  10.734  12.952
70692W        W30129  17.299  27.661  14.782
70693W        W30130   4.265   0.862   2.797
70694W        W30131  37.006  32.934  11.526
70695W        W30132  34.370  35.510  10.918
70696W        W30133  40.919  19.167   2.245
70697W        W30134   1.396  34.070   2.351
70698W        W30135  28.067   1.445   4.187
70699W        W30136  42.332   5.356   4.280
70700W        W30137  31.610  31.647  11.424
70701W        W30138   2.795   0.456  14.452
70702W        W30139  14.721  21.668   1.798
70703W        W30140  20.621  35.422  12.579
70704W        W30141  36.901  27.042   1.903
70705W        W30142  14.309  18.221   3.658
70706W        W30143  18.287  11.845   0.838
70707W        W30144  21.214   3.815  11.857
70708W        W30145  32.596  26.197   2.228
70709W        W30146   6.268  14.724  13.397
70710W        W30147  29.507  19.604   3.334
70711W        W30148  30.018  30.105  14.844
70712W        W30149  44.800  25.548  12.082
70713W        W30150  30.995  44.770   2.375
70714W        W30151  18.255   2.869  12.568
70715W        W30152  11.189  27.531  14.974
70716W        W30153  40.828  44.417  14.854
70717W        W30154  14.102  14.276   2.397
70718W        W30155  14.621  24.210  14.811
70719W        W30156  21.135  12.662   1.884
70720W        W30157   9.807  30.958  14.276
70721W        W30158  30.441  39.516   4.724
70722W        W30159  22.558  38.437   1.381
70723W        W30160   8.742   6.901  12.022
70724W        W30161  38.508   6.865  11.099
70725W        W30162  29.547  27.542  14.394
70726W        W30163  31.943  35.937   2.739
70727W        W30164   5.288  26.149   2.238
70728W        W30165  25.152  29.078  13.424
70729W        W30166   4.424  35.500  14.410
70730W        W30167  32.581   2.352  12.348
70731W        W30168  33.538   6.799  11.058
70732W        W30169  33.947  40.456   3.684
70733W        W30170  10.248  37.881  10.083
70734W        W30171  41.904  27.449  10.447
70735W        W30172  36.851  39.451   4.601
70736W        W30173  11.248  17.111   2.249
70737W        W30174   4.369  32.581  11.047
70738W        W30175   3.291  20.669   2.396
70739W        W30176   8.197  31.910  13.540
70740W        W30177  19.048   8.708   4.742
70741W        W30178  23.674  10.235   4.675
70742W        W30179  35.363  44.866   2.249
70743W        W30180  33.567  13.153  12.879
70744W        W30181  28.533  26.687  13.976
70745W        W30182   3.933  13.325   2.213
70746W        W30183  33.551  15.132  14.381
70747W        W30184  16.091  28.572  12.515
70748W        W30185   4.736  16.110   3.265
70749W        W30186  14.615   7.292  14.908
70750W        W30187   2.911  14.233   2.862
70751W        W30188  33.484   3.908  11.119
70752W        W30189   3.301  31.426   3.240
70753W        W30190  16.167  25.534   4.698
70754W        W30191  35.559  34.406   3.322
70755W        W30192  22.193  34.900   2.843
70756W        W30193  22.605   2.790  10.469
70757W        W30194  44.485  34.049  10.637
70758W        W30195   1.966   5.202   2.378
70759W        W30196  15.651   8.766   0.777
70760W        W30197  26.202  44.893  11.867
70761W        W30198   3.888  22.096   1.406
70762W        W30199  29.635  13.671   4.228
70763W        W30200  22.206  35.473  13.032
70764W        W30201   2.959  10.705   3.216
70765W        W30202  20.186  36.936   4.205
70766W        W30203   1.306  27.669   4.715
70767W        W30204  35.561  24.036  12.341
70768W        W30205  27.156   6.266   4.268
70769W        W30206   4.833  13.272   4.167
70770W        W30207  29.937  21.234   4.629
70771W        W30208   2.338  35.964   1.281
70772W        W30209  37.494  26.034  14.964
70773W        W30210  22.593  23.094  11.597
70774W        W30211  12.716   7.756  12.869
70775W        W30212   0.485  21.139  11.921
70776W        W30213  18.201   4.362   0.936
70777W        W30214  37.427  43.895   0.944
70778W        W30215   0.323  15.194   4.139
70779W        W30216  15.644   6.249   1.346
70780W        W30217  43.470  35.515   3.236
70781W        W30218  39.366  42.282  10.889
70782W        W30219  10.297  18.245   1.907
70783W        W30220   8.306  10.181  10.999
70784W        W30221  14.202  14.126  10.525
70785W        W30222  23.132  42.381   1.844
70786W        W30223   8.406  28.639   4.209
70787W        W30224  32.467  18.752  10.416
70788W        W30225  11.126  44.361  14.439
70789W        W30226  34.552  42.955   0.440
70790W        W30227   6.745  37.018  12.063
70791W        W30228  30.961  41.960  13.957
70792W        W30229  17.621  22.079  11.919
70793W        W30230  23.614  30.947   4.225
70794W        W30231  12.348  36.489   0.766
70795W        W30232  37.474  42.499   1.742
70796W        W30233  20.177  35.581   2.334
70797W        W30234  19.777  42.916  11.446
70798W        W30235   4.261   2.321  13.064
70799W        W30236  37.018  17.792  11.423
70800W        W30237   9.880  35.023   0.758
70801W        W30238  43.869  11.672   4.608
70802W        W30239  39.463  23.687  10.406
70803W        W30240   1.384   0.904   3.834
70804W        W30241  27.563  27.093  12.050
70805W        W30242  38.415  43.350   3.224
70806W        W30243  16.792   4.299  10.625
70807W        W30244  37.541  26.533   2.344
70808W        W30245  28.522  32.114  11.990
70809W        W30246  25.624   8.756   1.244
70810W        W30247   4.360  24.491   0.843
70811W        W30248  15.811  18.055  11.873
70812W        W30249  18.120  10.865   2.258
70813W        W30250  38.005   3.273  11.012
70814W        W30251  41.352  21.057  12.063
70815W        W30252   7.210  44.415   4.207
70816W        W30253  26.059  39.359   1.921
70817W        W30254  10.189  22.059  11.590
70818W        W30255  25.542  42.001   2.799
70819W        W30256   6.706  22.125  13.310
70820W        W30257  21.027  21.217  14.469
70821W        W30258  43.885  15.207  14.886
70822W        W30259  43.470  30.039   0.886
70823W        W30260  35.574  17.288   3.269
70824W        W30261   3.825  24.123  12.998
70825W        W30262   3.726  21.204   1.289
70826W        W30263   0.470  22.081   0.246
70827W        W30264  32.634  14.793   0.290
70828W        W30265  30.012  12.132   1.722
70829W        W30266  34.482  41.872  12.028
70830W        W30267   6.423  13.296  11.099
70831W        W30268  36.986  27.605   2.802
70832W        W30269   4.239  13.343  10.931
70833W        W30270  34.401  37.025  12.978
70834W        W30271  21.694  41.434  14.391
70835W        W30272  24.576  13.780   3.317
70836W        W30273  35.998  23.520   3.269
70837W        W30274   2.446  20.578   2.727
70838W        W30275   1.404  30.573  11.564
70839W        W30276  39.494   1.456   0.289
70840W        W30277  12.771  32.062  11.565
70841W        W30278  13.833  18.725   0.361
70842W        W30279   1.733  21.091   0.784
70843W        W30280   8.675  11.793  13.063
70844W        W30281  12.743   1.835  12.474
70845W        W30282  14.312  20.140   1.788
70846W        W30283  13.800  36.019   4.266
70847W        W30284  34.427  18.159  11.577
70848W        W30285  13.179  42.376  13.910
70849W        W30286  35.946  28.517  12.999
70850W        W30287  16.731  29.984   1.783
70851W        W30288  24.713   5.212   1.388
70852W        W30289  18.164  18.284  13.824
70853W        W30290  32.544  36.983   2.890
70854W        W30291   0.942  16.280  12.070
70855W        W30292  42.944  30.092  12.085
70856W        W30293   8.837  41.789   3.310
70857W        W30294  24.613  10.803   1.298
70858W        W30295  16.194  14.159   3.334
70859W        W30296  15.635  44.970  10.028
70860W        W30297  37.879  28.012  14.346
70861W        W30298  42.462  18.271   3.152
70862W        W30299  37.028  12.320  14.472
70863W        W30300   0.248   1.925   3.688
70864W        W30301  27.453  26.487  10.424
70865W        W30302  17.202  21.730  14.477
70866W        W30303  34.603  22.006  13.024
70867W        W30304  29.125  34.913  12.026
70868W        W30305  34.455   2.951   4.238
70869W        W30306   2.357  23.615   2.857
70870W        W30307  18.071  19.702   2.781
70871W        W30308  31.929  10.184  12.987
70872W        W30309  28.597  34.016  10.563
70873W        W30310  25.137  42.374  11.895
70874W        W30311  43.430   9.770   1.865
70875W        W30312  15.771  22.580  11.964
70876W        W30313   2.765  18.619  10.894
70877W        W30314  37.490  28.954  14.367
70878W        W30315  40.813  24.224  14.449
70879W        W30316  41.839  23.198  14.386
70880W        W30317  35.110  21.056   0.378
70881W        W30318   3.349  20.602   1.358
70882W        W30319  16.657  23.079  10.419
70883W        W30320   3.402  13.133  14.946
70884W        W30321  33.912  10.802   2.774
70885W        W30322  27.177  20.148  14.293
70886W        W30323  38.829  38.478   0.903
70887W        W30324  27.670  15.279   0.402
70888W        W30325   3.337  25.507  13.464
70889W        W30326  41.415  41.946   1.885
70890W        W30327  41.854  26.973  14.323
70891W        W30328  26.189  30.032  10.619
70892W        W30329   1.731   7.181  10.468
70893W        W30330  26.649   5.373  14.482
70894W        W30331  25.535   0.902   2.195
70895W        W30332   8.343  42.307  10.566
70896W        W30333  10.653  23.515  12.943
70897W        W30334  34.967  26.009  13.003
70898W        W30335  12.239  11.314  14.909
70899W        W30336  37.512   2.795   2.289
70900W        W30337  17.778  37.499   2.300
70901W        W30338  29.954   7.222  14.962
70902W        W30339  30.024   9.687  11.488
70903W        W30340  18.068   2.337  12.078
70904W        W30341  21.663  43.466  10.544
70905W        W30342  26.135  29.160   3.263
70906W        W30343  33.521  25.013  12.472
70907W        W30344  43.501  41.848   4.214
70908W        W30345  33.537  24.984   1.851
70909W        W30346  37.569  26.042   4.734
70910W        W30347  15.146  25.124   3.364
70911W        W30348  17.219  23.023   4.194
70912W        W30349  10.211  15.150  12.953
70913W        W30350  41.979  27.975  13.889
70914W        W30351  23.703   4.881   2.293
70915W        W30352  11.204  23.542  13.952
70916W        W30353  33.955  32.010  13.895
70917W        W30354  44.930  37.017  10.561
70918W        W30355  26.198  17.135  11.483
70919W        W30356  40.452  39.004  12.871
70920W        W30357  30.487  32.058   1.712
70921W        W30358  36.936  11.631   2.748
70922W        W30359  15.217  44.870   4.644
70923W        W30360  18.182  41.828   0.956
70924W        W30361  23.057  36.587  13.363
70925W        W30362  30.950   6.843   1.817
70926W        W30363  27.661  15.631  11.948
70927W        W30364   0.361  38.908  14.286
70928W        W30365   6.375   8.719  14.412
70929W        W30366  44.894  11.373  11.538
70930W        W30367  19.761  18.202   3.385
70931W        W30368   3.269  43.333  14.872
70932W        W30369   5.746  25.165  13.039
70933W        W30370  20.055  40.053   1.785
70934W        W30371  22.594   7.351   0.301
70935W        W30372  31.497  28.939   4.171
70936W        W30373  14.235   1.944  14.938
70937W        W30374  31.134  43.788  10.583
70938W        W30375  43.512   6.916   1.249
70939W        W30376   1.330   1.455   1.224
70940W        W30377  22.667  36.369  11.040
70941W        W30378   1.746  13.732  10.584
70942W        W30379   7.777  17.669  11.060
70943W        W30380  24.047  42.814   1.794
70944W        W30381  36.853  19.079  14.281
70945W        W30382   2.832  21.043  13.902
70946W        W30383  38.945   2.235  11.072
70947W        W30384  37.581  16.300  10.530
70948W        W30385  35.560  44.352  14.369
70949W        W30386   3.370  26.194  14.310
70950W        W30387  33.565  11.186  12.407
70951W        W30388  24.018   2.232   3.823
70952W        W30389  11.744  12.317   0.463
70953W        W30390  42.309  23.670  13.337
70954W        W30391  37.987  44.911   2.385
70955W        W30392   8.889  36.056   3.711
70956W        W30393  15.796  25.551   2.680
70957W        W30394  30.101  20.183  12.062
70958W        W30395  44.787  14.659  14.957
70959W        W30396  41.407  13.302  14.427
70960W        W30397  36.553  27.134   0.369
70961W        W30398  34.526  16.588   2.866
70962W        W30399   8.387  42.979   4.735
70963W        W30400  15.694  39.980  13.478
70964W        W30401  22.210  38.999   2.325
70965W        W30402  43.496  42.987  11.928
70966W        W30403  10.712  37.358   3.669
70967W        W30404   2.419  15.739   1.437
70968W        W30405  38.467  29.073   2.217
70969W        W30406   7.792  16.159   2.882
70970W        W30407  19.771  20.142   1.332
70971W        W30408   3.790  11.149  11.936
70972W        W30409  38.916  37.523  14.351
70973W        W30410  40.419  31.556  11.026
70974W        W30411  18.620  39.808   0.280
70975W        W30412  15.259  33.588   2.339
70976W        W30413   1.747  16.129  14.978
70977W        W30414  28.509  36.085   2.387
70978W        W30415  15.131  20.118   3.677
70979W        W30416  22.076   3.719  12.913
70980W        W30417   7.317  10.375  14.352
70981W        W30418  31.587  31.470  11.975
70982W        W30419  14.624  41.884  11.046
70983W        W30420   0.255   3.887   0.885
70984W        W30421  13.242  38.832   2.795
70985W        W30422  29.044  17.114   4.183
70986W        W30423   8.819  15.284  12.878
70987W        W30424  24.503   4.929  13.989
70988W        W30425  33.620  14.788  14.774
70989W        W30426  16.182   8.667   4.294
70990W        W30427  13.624   4.908  14.287
70991W        W30428  34.025  15.158  11.033
70992W        W30429   0.270  23.546  14.479
70993W        W30430   1.296  10.199   1.350
70994W        W30431  30.910  11.127  10.479
70995W        W30432   3.758  38.059   3.168
70996W        W30433  29.942   2.254  11.452
70997W        W30434  11.776  11.706   3.756
70998W        W30435  15.668  36.415  10.953
70999W        W30436  21.514  29.501  13.864
71000W        W30437   7.180  26.696  13.402
71001W        W30438  18.697  25.059  13.894
71002W        W30439  38.502  44.989  10.992
71003W        W30440  42.448  38.509  14.333
71004W        W30441  19.588   3.881   0.830
71005W        W30442   7.307  30.001  13.519
71006W        W30443  38.015  41.837  14.487
71007W        W30444   6.920  28.063   3.812
71008W        W30445  40.915  12.235   1.720
71009W        W30446  28.599  30.451   2.344
71010W        W30447   9.154   4.344   3.778
71011W        W30448  28.967  34.944  12.407
71012W        W30449  34.949  37.386   3.160
71013W        W30450  29.492   8.774   3.297
71014W        W30451  16.626  38.919   2.261
71015W        W30452   7.390  18.778  11.600
71016W        W30453  31.010  31.615  12.459
71017W        W30454  12.281  17.744  14.413
71018W        W30455  24.086  22.702   0.960
71019W        W30456  27.634  13.678   0.774
71020W        W30457  40.388   7.820   2.694
71021W        W30458  44.879  17.602   3.221
71022W        W30459  29.020  37.057  14.914
71023W        W30460  10.225  36.919   1.845
71024W        W30461  32.006  43.408  13.373
71025W        W30462  12.656   9.858   3.719
71026W        W30463  41.336  39.493   1.410
71027W        W30464  31.921  31.604   2.398
71028W        W30465   3.354  30.618  12.442
71029W        W30466   8.250  42.783   1.277
71030W        W30467  14.283  30.130  11.020
71031W        W30468  44.963  10.869   4.184
71032W        W30469  25.007  28.044   2.893
71033W        W30470  28.107   2.251   3.850
71034W        W30471  42.945  28.176   3.670
71035W        W30472  19.605  11.360  11.914
71036W        W30473   0.441  31.406   4.806
71037W        W30474  35.492  16.570   1.431
71038W        W30475  38.352  10.660   4.616
71039W        W30476   1.266  23.052   1.338
71040W        W30477  19.721  22.025  10.630
71041W        W30478  14.293  15.288  13.343
71042W        W30479  20.202  38.941  12.940
71043W        W30480  36.568  24.050  10.433
71044W        W30481  13.636  40.031  10.102
71045W        W30482  39.373  34.949   4.711
71046W        W30483  44.338  31.586   2.849
71047W        W30484  40.331  13.285  12.494
71048W        W30485   3.455  25.683   4.776
71049W        W30486  17.712  13.113  12.923
71050W        W30487  15.114  32.503  10.434
71051W        W30488  17.076  38.000  13.315
71052W        W30489  21.557  29.045   2.204
71053W        W30490  28.670  12.328   1.847
71054W        W30491  44.959  15.255  14.915
71055W        W30492  18.552   4.316  13.988
71056W        W30493  39.036  43.806   4.728
71057W        W30494  14.248  34.961  10.527
71058W        W30495  19.646  41.857  10.942
71059W        W30496  32.024  36.483  14.018
71060W        W30497   0.923  27.181   1.764
71061W        W30498   6.354  11.164  13.925
71062W        W30499  24.501  26.460   3.827
71063W        W30500   6.257  29.501   0.353
71064W        W30501   3.234  24.686   3.177
71065W        W30502  11.345  28.613  13.359
71066W        W30503   3.733  28.014   2.394
71067W        W30504  25.492  14.216   2.376
71068W        W30505  41.011  12.754   2.222
71069W        W30506  41.989  13.249   4.672
71070W        W30507  14.795  13.206   1.237
71071W        W30508  20.105  16.276   3.217
71072W        W30509   2.839  10.741  11.036
71073W        W30510  34.977   9.857  14.394
71074W        W30511  24.016  15.784   4.783
71075W        W30512  14.621  19.157   4.285
71076W        W30513  23.197  41.030  12.506
71077W        W30514   7.273  23.730   1.708
71078W        W30515  27.984  33.499   4.819
71079W        W30516  37.390  44.823   0.262
71080W        W30517  14.098  29.977   4.333
71081W        W30518  22.096   0.381   4.668
71082W        W30519  27.061   4.819  14.411
71083W        W30520  28.083  24.539   2.805
71084W        W30521   2.298  36.867   5.799
71085W        W30522   4.865  34.481   0.459
71086W        W30523  21.103  19.164  11.537
71087W        W30524  14.797  13.250  13.543
71088W        W30525   0.257  17.727   3.672
71089W        W30526  40.512   6.902   2.835
71090W        W30527  16.700  27.058   1.293
71091W        W30528  20.615  26.055   0.356
71092W        W30529  27.042  21.113   4.188
71093W        W30530   6.682  11.670   4.331
71094W        W30531  44.468  15.315  14.327
71095W        W30532   0.271  38.466   2.346
71096W        W30533  10.765  22.219   3.213
71097W        W30534  11.644  42.853  14.791
71098W        W30535  42.292   0.972   1.400
71099W        W30536  19.235   6.307   4.298
71100W        W30537  33.454  36.428   4.690
71101W        W30538  19.693  17.246   1.750
71102W        W30539  16.659   4.346   0.764
71103W        W30540  44.360  28.954   0.293
71104W        W30541  39.055   7.265  12.988
71105W        W30542  34.519  33.032   3.217
71106W        W30543  13.147   8.741   1.257
71107W        W30544   7.289   8.840   3.179
71108W        W30545  35.057  22.746   1.418
71109W        W30546  35.464  21.593  11.051
71110W        W30547  16.790  29.121  10.895
71111W        W30548   5.753   2.357  10.904
71112W        W30549   8.866  41.941  14.888
71113W        W30550  33.925  41.988  13.931
71114W        W30551   2.299  31.632  10.499
71115W        W30552  27.619  26.974  13.510
71116W        W30553  11.365   7.718  11.981
71117W        W30554   5.872  33.467  12.916
71118W        W30555  13.779  12.853  14.970
71119W        W30556   0.313  26.645   3.756
71120W        W30557  44.375  34.579   1.319
71121W        W30558  28.110  23.651   4.812
71122W        W30559  29.608  42.924   4.707
71123W        W30560  41.510  22.688  10.508
71124W        W30561  43.434   7.760  14.869
71125W        W30562  20.141  32.442   2.804
71126W        W30563  25.713  39.548  11.906
71127W        W30564  38.557  12.324  10.439
71128W        W30565  14.712  12.626  12.952
71129W        W30566  41.908  39.923   3.788
71130W        W30567   4.352  14.737   2.414
71131W        W30568  28.512   7.884   2.274
71132W        W30569  35.434  37.063  11.021
71133W        W30570  29.515  36.546   1.438
71134W        W30571  14.129  24.139   3.340
71135W        W30572  33.390  17.242   4.200
71136W        W30573   4.822  20.265   2.266
71137W        W30574  37.524  38.993  14.350
71138W        W30575  14.181  29.621   1.409
71139W        W30576   0.366  22.216   2.310
71140W        W30577  13.830  24.197  10.957
71141W        W30578  32.042  29.576   1.737
71142W        W30579  26.051  43.891  11.428
71143W        W30580  10.319  27.484   2.273
71144W        W30581  22.046  12.215   0.345
71145W        W30582  33.904  14.793   0.901
71146W        W30583  15.128  14.804  13.458
71147W        W30584  28.661  14.181  12.978
71148W        W30585  10.149  16.674  10.432
71149W        W30586   6.365  13.285  14.848
71150W        W30587  27.993  34.907  14.820
71151W        W30588  42.902  34.070   4.835
71152W        W30589   2.333  24.193  10.507
71153W        W30590  40.893  44.837  12.501
71154W        W30591  24.009  38.044  13.308
71155W        W30592  34.411  29.137  14.372
71156W        W30593   5.888  23.647   0.888
71157W        W30594   1.840  26.505  11.896
71158W        W30595  42.941  31.996  11.931
71159W        W30596  28.071  15.706  14.971
71160W        W30597  39.523   7.712   0.481
71161W        W30598  19.160  42.884  12.920
71162W        W30599  12.315  42.335   1.280
71163W        W30600   8.388  22.164  11.463
71164W        W30601   0.848   7.764   0.424
71165W        W30602   6.728  38.960   1.423
71166W        W30603  21.601  21.077   4.157
71167W        W30604  22.228  22.738   0.901
71168W        W30605   0.862   6.202   4.692
71169W        W30606  21.057   3.224   4.762
71170W        W30607  24.146  14.834  13.033
71171W        W30608  41.523  23.007  11.900
71172W        W30609  14.194  11.680   5.133
71173W        W30610  43.355  32.986  13.052
71174W        W30611  16.607  21.231   4.306
71175W        W30612  43.445  32.429   0.249
71176W        W30613  14.323  27.151  14.817
71177W        W30614  35.577  41.911   3.325
71178W        W30615  21.529  23.619  11.017
71179W        W30616  39.401  39.057  12.367
71180W        W30617  42.901  39.520   3.768
71181W        W30618  20.245  40.866   0.967
71182W        W30619  19.559  22.543   0.334
71183W        W30620  41.363  20.053   2.273
71184W        W30621  19.650  14.723   1.898
71185W        W30622  36.044   0.942   4.174
71186W        W30623  39.416  13.664  13.465
71187W        W30624  38.401  27.546  10.453
71188W        W30625  35.024  21.067  11.950
71189W        W30626  22.192   3.297  14.355
71190W        W30627   4.299   9.701   4.143
71191W        W30628  29.004  17.771  11.935
71192W        W30629  41.304  44.776   1.752
71193W        W30630  27.484   7.669   3.852
71194W        W30631  12.325  34.925   4.725
71195W        W30632  23.606  42.889   3.302
71196W        W30633  36.057   9.830   3.786
71197W        W30634   8.319   0.947  12.418
71198W        W30635  38.061  40.008   4.240
71199W        W30636  17.084   6.257  13.349
71200W        W30637  30.919   3.853  14.996
71201W        W30638  22.163  43.336  12.034
71202W        W30639  10.684  25.651   4.699
71203W        W30640  37.902  27.683   1.369
71204W        W30641   4.863  14.168   3.804
71205W        W30642  10.814  18.559   4.209
71206W        W30643  44.472  38.000   1.852
71207W        W30644  26.559  17.131   1.289
71208W        W30645  12.666  20.167   1.277
71209W        W30646  43.324   3.284   3.859
71210W        W30647  44.808  12.251   4.769
71211W        W30648  28.986  26.553   2.879
71212W        W30649   9.778   0.839  10.918
71213W        W30650  32.001  40.390   1.358
71214W        W30651  12.133  17.772   4.758
71215W        W30652  18.676  25.203   0.468
71216W        W30653   7.303  29.480   4.257
71217W        W30654  25.027  23.583   3.671
71218W        W30655  23.158  20.699  13.525
71219W        W30656  37.045   3.895   3.672
71220W        W30657  40.811  35.852   4.800
71221W        W30658  24.484  40.038   3.381
71222W        W30659  20.725  25.531  14.367
71223W        W30660   9.700  44.929  11.519
71224W        W30661  34.396  44.760   4.137
71225W        W30662  30.558  44.806   0.389
71226W        W30663  39.408  28.650  12.435
71227W        W30664  30.562  33.945  13.952
71228W        W30665  37.483   2.373  14.492
71229W        W30666  39.020   0.855  13.464
71230W        W30667   9.159  38.411  11.933
71231W        W30668   5.770  17.156  13.310
71232W        W30669   8.895  32.604   3.832
71233W        W30670  43.901  35.445  10.047
71234W        W30671   3.864   6.262  12.420
71235W        W30672  35.884  43.952  14.769
71236W        W30673   0.350  44.349   4.215
71237W        W30674  15.715  32.617   2.261
71238W        W30675  25.022   8.163   1.219
71239W        W30676  22.252  43.444  10.485
71240W        W30677   7.327  33.440  12.554
71241W        W30678  39.014   0.375   4.142
71242W        W30679  19.121  17.071  14.798
71243W        W30680  20.746  22.657  14.763
71244W        W30681  42.995  34.095  12.093
71245W        W30682  26.037  12.852   5.591
71246W        W30683   1.284  26.517  12.361
71247W        W30684  42.829  28.676   0.319
71248W        W30685  39.526  22.570   1.414
71249W        W30686  12.133  25.503  11.398
71250W        W30687  38.368  33.518  10.476
71251W        W30688  12.215   0.428  13.413
71252W        W30689   5.291   5.220  12.520
71253W        W30690  43.985  40.887   0.924
71254W        W30691  18.200  34.944  12.410
71255W        W30692   6.389   6.846   3.848
71256W        W30693  37.965   9.338  13.875
71257W        W30694  35.893   9.359  14.775
71258W        W30695   9.223  30.529  10.898
71259W        W30696  20.575  41.431   1.802
71260W        W30697  27.550  22.657  14.490
71261W        W30698   8.873   0.795  11.903
71262W        W30699  39.844  41.443  11.484
71263W        W30700  31.057  27.542   0.818
71264W        W30701   5.281  12.226   2.287
71265W        W30702  25.541  41.915  14.822
71266W        W30703  24.679  14.619  12.441
71267W        W30704  43.406  12.144   4.738
71268W        W30705  35.366   8.840  13.854
71269W        W30706   1.460   9.871   2.797
71270W        W30707  25.099  37.384   3.222
71271W        W30708  44.384  30.456   5.233
71272W        W30709  27.187  31.073  10.630
71273W        W30710  32.051  15.315  14.447
71274W        W30711  42.436  31.567  11.590
71275W        W30712   1.802  37.337  10.037
71276W        W30713  15.139  10.827   0.318
71277W        W30714  26.496  38.465   3.236
71278W        W30715   1.968   4.907   3.687
71279W        W30716   5.427  41.866  13.539
71280W        W30717  41.503  23.532  12.887
71281W        W30718  29.611  42.374  12.566
71282W        W30719  30.605  17.149   2.826
71283W        W30720  12.207  11.337  11.128
71284W        W30721  25.693  12.689   4.782
71285W        W30722  37.926  30.940   0.760
71286W        W30723  43.875  39.396  12.039
71287W        W30724  30.548  24.667  13.957
71288W        W30725  41.901  24.516   3.665
71289W        W30726  38.553  12.790   0.909
71290W        W30727  20.532   2.888  14.312
71291W        W30728   5.922  25.208   4.838
71292W        W30729  10.671  24.075   9.956
71293W        W30730   0.364  44.475  10.450
71294W        W30731  41.440  28.951   4.699
71295W        W30732  39.893  28.665  11.027
71296W        W30733   1.321  29.015  12.896
71297W        W30734  31.899   2.395  12.843
71298W        W30735   8.379  24.598   4.138
71299W        W30736  29.044  28.675   2.684
71300W        W30737   8.391   6.865   4.817
71301W        W30738  10.792  12.225  11.381
71302W        W30739   7.853   4.231  13.796
71303W        W30740   2.263   1.778  10.142
71304W        W30741  27.525  26.529   5.270
71305W        W30742   8.276  23.155  14.820
71306W        W30743  31.152  25.554   3.639
71307W        W30744   4.938  12.272   4.768
71308W        W30745   8.759  43.978   0.478
71309W        W30746   0.391   9.299   3.783
71310W        W30747  29.459  29.166   4.306
71311W        W30748  12.348   2.357  11.958
71312W        W30749   7.299  11.864  12.450
71313W        W30750  36.512  43.920  11.103
71314W        W30751  37.085  40.393  10.158
71315W        W30752  12.253  32.578  12.446
71316W        W30753  25.111  11.281   0.861
71317W        W30754   8.735  36.889  11.524
71318W        W30755   9.871  26.160  11.963
71319W        W30756   4.234  15.731   4.771
71320W        W30757   0.307  22.249  11.455
71321W        W30758  23.070  30.929   0.780
71322W        W30759   7.686  10.254   2.849
71323W        W30760  29.554   5.866  14.826
71324W        W30761  30.535   2.401  13.031
71325W        W30762  10.185  25.617   2.783
71326W        W30763   8.800  28.158  12.506
71327W        W30764  38.934  36.925  12.945
71328W        W30765  13.802   8.666  14.932
71329W        W30766  30.091  11.169  13.815
71330W        W30767  35.381   9.647  14.782
71331W        W30768  39.968  34.880   4.120
71332W        W30769  10.249  34.614  13.881
71333W        W30770   0.436  14.280  12.492
71334W        W30771   1.876  24.167   3.717
71335W        W30772  32.529  15.239   2.713
71336W        W30773  15.743  10.832  14.288
71337W        W30774  25.187  28.588   0.768
71338W        W30775  32.033  25.999  12.878
71339W        W30776  29.463   9.838   9.923
71340W        W30777  35.463  26.205  13.811
71341W        W30778  35.068  40.373  14.300
71342W        W30779   8.839  20.096  14.774
71343W        W30780  31.947   4.277  11.473
71344W        W30781   1.965  44.880  14.897
71345W        W30782  19.698  42.915  13.856
71346W        W30783  37.999  16.093  10.594
71347W        W30784  31.637  34.393   2.308
71348W        W30785  17.092  42.894  14.795
71349W        W30786  36.590  19.182   2.860
71350W        W30787  14.328   7.362  13.491
71351W        W30788  16.141  23.542   4.244
71352W        W30789  22.064  40.498   3.849
71353W        W30790  39.406   0.465  13.356
71354W        W30791  17.606  14.682  13.839
71355W        W30792  13.188  30.071   1.343
71356W        W30793  31.134  39.507  12.494
71357W        W30794   1.823  41.517  12.387
71358W        W30795  44.265  33.543   2.768
71359W        W30796  26.561  43.344   2.833
71360W        W30797  26.038  44.841   3.336
71361W        W30798   4.861   5.290  12.056
71362W        W30799  12.262  30.631  13.371
71363W        W30800  41.329  24.078   0.745
71364W        W30801  38.482   9.379  12.439
71365W        W30802  10.291   2.286  11.120
71366W        W30803   6.371  29.157  10.041
71367W        W30804   4.391  26.084  14.448
71368W        W30805  42.527  43.806   4.698
71369W        W30806   2.775  22.064   4.319
71370W        W30807  41.975  29.968   3.854
71371W        W30808  43.459  11.249  11.118
71372W        W30809  19.630  24.057   4.784
71373W        W30810   4.237  33.976  11.932
71374W        W30811  25.191   7.880   1.826
71375W        W30812   6.717  28.052   0.266
71376W        W30813  38.003   8.760  10.116
71377W        W30814   2.234   2.272  10.924
71378W        W30815   1.358   1.352  14.479
71379W        W30816   7.191  25.623  11.395
71380W        W30817  37.449   8.765   3.234
71381W        W30818  36.848  15.702   3.680
71382W        W30819  20.579  32.437   0.938
71383W        W30820   9.865  16.301   2.412
71384W        W30821  26.177  22.690  13.415
71385W        W30822  22.107  14.717  14.436
71386W        W30823  34.931  34.608  15.000
71387W        W30824   8.391  20.202   2.201
71388W        W30825  19.145  22.699   0.959
71389W        W30826  20.258  42.422   5.288
71390W        W30827  26.052  30.605  12.052
71391W        W30828   4.762   5.729  10.592
71392W        W30829   5.220   5.831   1.744
71393W        W30830   2.241   8.806  13.548
71394W        W30831  34.117  15.720   0.832
71395W        W30832  17.612  33.960   1.304
71396W        W30833   3.389  37.577   0.373
71397W        W30834  40.930  41.534   2.376
71398W        W30835  32.617   8.725   0.411
71399W        W30836  36.982  36.567  14.999
71400W        W30837  20.629  38.418  11.448
71401W        W30838  25.050  20.073  12.000
71402W        W30839  36.487  31.573  10.973
71403W        W30840  20.760   4.769   0.771
71404W        W30841  21.177  27.495  13.359
71405W        W30842  26.103  43.357  11.997
71406W        W30843   0.319  29.005  10.640
71407W        W30844  20.174  22.093   0.472
71408W        W30845  14.773  13.747   1.422
71409W        W30846   9.163  12.340   0.309
71410W        W30847  13.312  27.030  14.028
71411W        W30848  20.269  15.275   0.374
71412W        W30849  36.588  15.643   1.338
71413W        W30850  16.122   6.280   3.815
71414W        W30851  26.054  40.831   0.888
71415W        W30852  33.914  28.177   1.317
71416W        W30853  17.702   9.670   1.213
71417W        W30854  28.040  18.656  11.482
71418W        W30855  13.603  31.046   3.278
71419W        W30856  34.054   6.686  13.448
71420W        W30857  19.561  10.298   0.813
71421W        W30858  42.027  12.217   1.810
71422W        W30859   5.253  41.536   0.874
71423W        W30860  33.401   9.835  12.898
71424W        W30861   7.717  14.191   3.210
71425W        W30862  40.483   6.690   0.959
71426W        W30863  14.712  41.354   3.254
71427W        W30864  36.095  39.477   3.647
71428W        W30865  30.066  28.110  13.996
71429W        W30866   4.243  27.663   5.279
71430W        W30867  15.707  19.129  13.390
71431W        W30868  13.136  40.517   0.287
71432W        W30869  20.091   1.805  10.041
71433W        W30870   7.239  14.189   2.721
71434W        W30871  27.165  12.810   9.926
71435W        W30872   4.806  17.091  13.005
71436W        W30873  19.767  32.604  12.389
71437W        W30874  26.631  31.505  11.549
71438W        W30875  42.779  25.629   0.837
71439W        W30876   8.296  18.066   4.602
71440W        W30877  17.188   3.716  12.478
71441W        W30878  15.148  16.801   3.154
71442W        W30879  25.545  43.409  14.344
71443W        W30880   6.917  34.103   1.348
71444W        W30881   3.431  35.069  12.970
71445W        W30882  20.751  12.196  13.504
71446W        W30883  44.875  34.590  10.444
71447W        W30884  15.667  19.087  12.005
71448W        W30885   3.412  42.832  14.892
71449W        W30886  14.823  40.303   2.194
71450W        W30887  36.480  14.289   0.726
71451W        W30888   1.396   4.358  14.501
71452W        W30889  17.798  28.549  13.497
71453W        W30890  44.925  15.793  14.903
71454W        W30891  12.649  20.226  14.980
71455W        W30892   9.811   9.812   4.703
71456W        W30893   1.830  29.481   3.342
71457W        W30894  37.999  38.543   5.788
71458W        W30895  40.462  11.338   2.340
71459W        W30896  23.658  40.414   4.283
71460W        W30897  36.560  36.445  11.562
71461W        W30898  12.621  16.691  11.997
71462W        W30899  33.888  36.559  14.979
71463W        W30900  21.222   0.932  14.471
71464W        W30901  27.498  22.667  11.986
71465W        W30902  43.391   4.329   0.277
71466W        W30903  17.643   2.754   2.784
71467W        W30904  18.598  28.613   3.762
71468W        W30905  16.308  34.497  12.419
71469W        W30906  16.603  32.556  10.893
71470W        W30907  11.173  22.649   1.232
71471W        W30908  23.141  44.381   0.869
71472W        W30909  11.321  14.728   1.268
71473W        W30910  32.890  39.017   0.949
71474W        W30911  23.174  32.886   4.828
71475W        W30912   2.956  19.130  12.563
71476W        W30913  40.319   8.820   5.279
71477W        W30914  28.588  23.996   3.379
71478W        W30915  24.650  29.615   4.651
71479W        W30916  12.664   6.680   2.794
71480W        W30917  10.205  17.209   0.854
71481W        W30918  32.462  24.529  12.516
71482W        W30919   5.337  29.466   4.676
71483W        W30920  29.661   4.734   5.083
71484W        W30921  21.121  31.634  11.525
71485W        W30922  22.074  35.398   3.201
71486W        W30923  22.092  20.215   1.315
71487W        W30924  29.113  39.514   4.821
71488W        W30925  39.352   5.393  11.603
71489W        W30926  26.646   2.766  14.971
71490W        W30927  32.940   8.196  11.088
71491W        W30928  40.864  29.602   3.352
71492W        W30929  33.901  44.355   1.221
71493W        W30930   0.421  10.689   2.890
71494W        W30931   6.691  41.441  10.557
71495W        W30932   0.479  15.735  12.366
71496W        W30933  27.682  32.114  10.927
71497W        W30934   0.907  28.653   4.158
71498W        W30935  19.684  38.001   3.254
71499W        W30936  23.703   0.881   1.726
71500W        W30937  27.571   6.296   1.794
71501W        W30938  38.973  16.761  11.996
71502W        W30939   7.401  30.467   0.798
71503W        W30940  20.525  26.182   2.779
71504W        W30941   0.765  40.881  14.418
71505W        W30942  26.071  39.009  14.359
71506W        W30943  11.224   4.778  12.405
71507W        W30944  14.600  31.572   0.341
71508W        W30945  37.048  26.615   1.380
71509W        W30946  15.631  30.645   1.843
71510W        W30947  42.335  36.528  14.460
71511W        W30948  35.415  17.713   2.313
71512W        W30949   4.302  37.425   0.788
71513W        W30950  14.745  43.384   2.796
71514W        W30951  27.979   1.779   2.280
71515W        W30952  20.650   6.264  12.900
71516W        W30953  31.938  40.387  13.991
71517W        W30954  11.352  32.607  13.439
71518W        W30955  35.048  25.561  12.031
71519W        W30956  37.919  16.653  11.036
71520W        W30957  31.928  21.540   3.378
71521W        W30958  42.453  33.450  11.460
71522W        W30959  37.361   0.400   2.340
71523W        W30960  32.519  28.627  14.380
71524W        W30961  11.314  26.546  11.943
71525W        W30962  16.623  19.167   2.730
71526W        W30963  22.601  36.064  14.950
71527W        W30964   5.742  42.020  12.972
71528W        W30965  20.633  17.183  12.914
71529W        W30966  15.300  36.580   4.830
71530W        W30967  18.171  12.213   4.658
71531W        W30968  37.887  33.016   3.870
71532W        W30969  38.911  41.366  10.446
71533W        W30970  26.189  40.398   1.895
71534W        W30971  43.450  41.299   2.219
71535W        W30972   7.763  35.970  11.439
71536W        W30973  14.688   1.944   4.745
71537W        W30974  24.188  39.402   5.138
71538W        W30975  22.180  32.976   4.659
71539W        W30976  44.364  10.194   3.172
71540W        W30977  20.622  40.909   2.743
71541W        W30978  14.096   8.332  13.013
71542W        W30979  18.106  27.080   2.876
71543W        W30980  26.026  12.361   0.850
71544W        W30981  23.585  41.357   3.662
71545W        W30982  22.696  37.866  12.912
71546W        W30983  42.500  27.032   3.704
71547W        W30984   6.406   8.176  14.352
71548W        W30985  29.598  19.160  12.514
71549W        W30986  38.031  17.151   1.756
71550W        W30987  34.567  38.846   3.330
71551W        W30988   4.342  24.616  13.425
71552W        W30989  27.059  42.908  13.413
71553W        W30990  32.566  26.008  14.457
71554W        W30991  36.512  29.593   5.091
71555W        W30992   7.280  27.055   0.364
71556W        W30993   4.289  29.002  12.496
71557W        W30994  40.504  20.054   1.734
71558W        W30995   6.317  44.839  13.538
71559W        W30996  23.666  27.464   1.794
71560W        W30997  33.439   0.459   2.287
71561W        W30998   2.792  15.615  12.525
71562W        W30999  29.598  35.051  11.585
71563W        W31000  43.872  31.940  13.374
71564W        W31001  38.387  24.588  12.849
71565W        W31002  32.940  17.643  12.443
71566W        W31003  36.034  18.257   2.309
71567W        W31004   1.272  29.596  11.603
71568W        W31005  13.179  30.113  13.450
71569W        W31006   0.380  33.599   1.378
71570W        W31007  28.561   0.312  14.509
71571W        W31008  28.630  37.976  13.414
71572W        W31009   3.223  30.122  12.490
71573W        W31010   3.834  28.672  13.364
71574W        W31011  28.638  12.252   3.377
71575W        W31012  15.620   4.364   3.860
71576W        W31013  28.576  38.046  12.823
71577W        W31014  33.021  41.850   1.279
71578W        W31015  26.631  25.983   3.856
71579W        W31016   0.292  35.360  14.877
71580W        W31017   6.831   0.781   2.897
71581W        W31018  25.206  40.460   4.694
71582W        W31019  27.190   5.414   2.870
71583W        W31020  14.231  15.580   4.122
71584W        W31021  20.080  27.544   3.800
71585W        W31022  38.857  27.511   0.737
71586W        W31023   8.212  31.441   0.768
71587W        W31024  27.973  34.370  12.015
71588W        W31025  24.201  15.632   5.256
71589W        W31026  18.219  14.667   4.789
71590W        W31027  39.498   4.939  13.004
71591W        W31028  39.538  36.460   0.243
71592W        W31029  26.194  20.117  14.436
71593W        W31030   9.308  16.098  13.994
71594W        W31031  33.385  36.388  10.527
71595W        W31032   8.811  29.027   1.907
71596W        W31033   1.327   3.756  13.814
71597W        W31034   0.907   0.838   3.768
71598W        W31035  44.886  31.953  12.897
71599W        W31036  14.146  20.122  12.044
71600W        W31037  22.226  23.051  13.053
71601W        W31038  22.010  34.585  13.376
71602W        W31039  24.699  23.505  11.037
71603W        W31040  24.036  41.941   0.317
71604W        W31041   8.720   9.151  12.522
71605W        W31042  44.910  40.037   0.904
71606W        W31043   0.816   6.891   0.739
71607W        W31044  35.857  23.073  13.898
71608W        W31045  40.424  31.089   2.306
71609W        W31046  40.455  41.526  14.448
71610W        W31047  34.370  18.689   3.157
71611W        W31048  11.790  39.010   5.246
71612W        W31049  34.515  10.230   3.795
71613W        W31050  15.197   4.404   1.420
71614W        W31051  10.721   7.870  11.026
71615W        W31052  25.555  27.521   0.358
71616W        W31053  21.630   3.354  12.557
71617W        W31054  24.038   5.331  12.955
71618W        W31055  30.084  17.608   1.365
71619W        W31056  31.546   6.828  13.403
71620W        W31057  15.235   7.823   3.723
71621W        W31058  23.506   6.280   4.126
71622W        W31059  27.007  25.180  11.936
71623W        W31060  27.645  18.231   1.863
71624W        W31061  40.522  36.917  14.014
71625W        W31062  38.475   2.728   4.717
71626W        W31063  33.062  36.906  11.482
71627W        W31064  32.527  31.486  11.470
71628W        W31065  16.284  24.047  12.086
71629W        W31066  23.018   8.337  12.043
71630W        W31067  28.949  11.155  13.057
71631W        W31068  14.785   8.358  12.465
71632W        W31069  37.358   4.716  13.473
71633W        W31070  38.344  37.924   2.683
71634W        W31071   6.426  39.537  14.941
71635W        W31072  24.995  29.102  12.056
71636W        W31073  36.994  14.320   3.384
71637W        W31074  20.692  23.217   3.861
71638W        W31075  22.530  30.478  10.601
71639W        W31076  15.758  38.452   3.674
71640W        W31077  15.780  25.651   4.608
71641W        W31078  32.028  18.781   3.762
71642W        W31079   5.419  15.653  14.297
71643W        W31080  18.764   1.451  14.830
71644W        W31081   3.214  37.556  13.814
71645W        W31082  32.078   2.380   4.200
71646W        W31083  41.515  23.061   4.812
71647W        W31084  29.035  32.078   1.855
71648W        W31085   5.348   1.955   0.392
71649W        W31086  29.570  18.149  12.850
71650W        W31087   4.206  25.619  13.345
71651W        W31088  12.763   2.436   3.307
71652W        W31089  12.841  20.681  10.501
71653W        W31090  41.371  19.237   3.782
71654W        W31091   0.387  21.624  12.029
71655W        W31092  16.667  16.623   1.297
71656W        W31093  43.876  41.971   2.712
71657W        W31094   6.718  16.638  13.426
71658W        W31095  33.122  38.410  13.823
71659W        W31096  41.376  28.033   4.650
71660W        W31097  13.789   9.201   3.175
71661W        W31098  38.907  39.951   4.780
71662W        W31099  31.585  12.721   1.404
71663W        W31100  40.962  41.402  14.765
71664W        W31101   8.892  20.151   4.792
71665W        W31102  43.785  12.190   1.310
71666W        W31103  22.724  11.778  11.113
71667W        W31104  17.228  23.207   1.443
71668W        W31105   8.216  32.989   2.693
71669W        W31106   8.682   3.750  13.912
71670W        W31107  12.224  29.128  13.398
71671W        W31108   2.437  25.627   9.659
71672W        W31109  25.515   2.899  10.450
71673W        W31110  21.717  24.566  11.058
71674W        W31111  10.264  24.132  12.517
71675W        W31112   1.917   8.215   3.767
71676W        W31113  31.636   7.344   3.354
71677W        W31114  12.832  30.099   1.762
71678W        W31115  19.162   4.366  14.425
71679W        W31116   0.409  42.483   0.416
71680W        W31117   7.886  31.126  12.472
71681W        W31118  34.883   5.893  12.879
71682W        W31119  26.619  43.288  11.991
71683W        W31120  15.160   2.919  11.379
71684W        W31121  28.559  29.943  11.057
71685W        W31122  35.904  13.323  10.507
71686W        W31123  12.789   0.269   0.417
71687W        W31124   6.680   7.412   1.358
71688W        W31125  36.023   2.425   2.722
71689W        W31126  31.471  33.521  10.578
71690W        W31127   9.847   7.784   0.455
71691W        W31128  33.981  15.755   1.231
71692W        W31129  23.602  18.095  14.284
71693W        W31130  15.582  15.720  12.394
71694W        W31131  11.251  11.697   0.254
71695W        W31132   1.399  23.155  14.784
71696W        W31133  41.381  21.601   4.294
71697W        W31134  25.197  25.965   1.451
71698W        W31135   1.809   8.273  12.493
71699W        W31136  43.348  37.493  14.838
71700W        W31137  42.445  16.203   1.346
71701W        W31138   3.409  24.534   1.901
71702W        W31139   2.871   9.252  10.544
71703W        W31140   3.852   5.192   0.809
71704W        W31141  39.924   9.733  10.914
71705W        W31142  42.371  15.632   2.201
71706W        W31143  10.848  40.943  11.118
71707W        W31144  23.602   4.716   1.340
71708W        W31145  22.619  11.158  12.390
71709W        W31146   9.726  22.694  11.085
71710W        W31147  42.355  31.068  13.450
71711W        W31148  25.619  14.212   3.826
71712W        W31149  33.121  39.825   3.352
71713W        W31150  40.477   6.721   3.695
71714W        W31151  35.050  28.513  10.469
71715W        W31152  11.737  30.592  13.536
71716W        W31153   9.698  34.018   3.358
71717W        W31154  23.719  24.721  13.035
71718W        W31155   8.379  39.337  12.826
71719W        W31156  19.766  43.485  10.033
71720W        W31157  27.504  36.542   5.114
71721W        W31158  20.628  39.316   0.455
71722W        W31159   3.309   4.856   2.760
71723W        W31160  13.256   3.798  11.456
71724W        W31161  18.148  25.054  11.111
71725W        W31162   5.695   8.891   3.360
71726W        W31163   0.417   7.755   4.331
71727W        W31164  33.537  30.928  12.971
71728W        W31165  35.881  33.545  13.451
71729W        W31166  24.525   8.864  11.538
71730W        W31167  15.288  35.091   4.233
71731W        W31168  29.024  12.695   2.719
71732W        W31169  24.221  36.875   4.781
71733W        W31170  35.387   4.334   2.777
71734W        W31171  43.794  19.186   4.666
71735W        W31172  20.544  11.298   2.345
71736W        W31173   0.432  12.195  10.519
71737W        W31174  40.372  15.085   1.924
71738W        W31175  14.108  26.690  14.446
71739W        W31176  27.525  32.397  11.032
71740W        W31177  31.035  28.998  13.023
71741W        W31178  19.053  11.278  13.440
71742W        W31179   9.834  12.706  14.965
71743W        W31180  42.368  24.560  12.483
71744W        W31181  13.699   4.916   0.939
71745W        W31182  36.592   8.311  13.903
71746W        W31183  39.338   4.247   2.875
71747W        W31184  39.943  22.608   2.360
71748W        W31185  42.016  19.684   2.386
71749W        W31186  42.369  21.730  10.494
71750W        W31187  12.307   6.281  13.402
71751W        W31188  39.527   2.397   3.162
71752W        W31189   2.290   2.329   3.797
71753W        W31190   4.216  39.843   4.776
71754W        W31191  38.446  41.384  10.992
71755W        W31192   4.346  13.209   2.699
71756W        W31193  32.961  38.501  13.402
71757W        W31194  34.379   7.399  11.480
71758W        W31195   3.299  23.682   0.731
71759W        W31196   6.910  30.509   2.179
71760W        W31197   8.901  43.872  12.010
71761W        W31198  15.147  35.524  12.841
71762W        W31199   8.262  23.579  10.998
71763W        W31200  21.145   0.745   2.251
71764W        W31201  36.054  21.087   0.946
71765W        W31202  27.012   6.794   3.635
71766W        W31203  12.259   3.417   3.837
71767W        W31204   8.197  22.543   3.715
71768W        W31205   1.468  20.639  14.921
71769W        W31206  17.621   5.691   4.749
71770W        W31207  39.318  12.286  13.926
71771W        W31208   2.950  36.363  13.998
71772W        W31209  34.526  26.981  13.058
71773W        W31210   5.298  18.066   4.743
71774W        W31211  15.672   6.704   4.270
71775W        W31212   6.870   1.387  14.818
71776W        W31213  10.741   9.272   1.753
71777W        W31214  28.168   6.197   1.825
71778W        W31215  12.272  43.852   2.877
71779W        W31216   1.278  22.556   4.766
71780W        W31217  13.108  26.641   4.670
71781W        W31218  44.389  14.099   1.778
71782W        W31219  17.622  14.253   3.205
71783W        W31220  43.910  11.721   3.194
71784W        W31221  28.620  36.082  12.438
71785W        W31222   8.283  37.489  11.872
71786W        W31223   0.475  23.559   0.334
71787W        W31224  11.637  13.644   0.755
71788W        W31225  23.719  15.220  10.932
71789W        W31226  29.131  30.493  11.040
71790W        W31227  16.791  10.789  12.573
71791W        W31228   3.354  15.178   1.380
71792W        W31229  44.394  42.981   3.857
71793W        W31230  21.185   0.295   4.258
71794W        W31231   0.445  34.581  12.430
71795W        W31232  10.807   4.769   4.273
71796W        W31233  11.280  32.993  13.859
71797W        W31234  35.370  20.708   3.730
71798W        W31235  31.428  34.927   0.403
71799W        W31236   5.436  19.248   1.860
71800W        W31237  19.096   7.186  14.440
71801W        W31238  31.107  13.231   2.274
71802W        W31239  22.572   1.829   1.278
71803W        W31240  25.042  39.961  11.019
71804W        W31241  32.102  14.827   0.353
71805W        W31242   8.829  43.937   1.825
71806W        W31243  22.585  30.008   3.242
71807W        W31244  19.226   6.341  12.025
71808W        W31245  32.973  21.062  14.897
71809W        W31246  40.856   9.686   0.920
71810W        W31247   4.914   3.376  13.526
71811W        W31248  44.404  22.035   3.740
71812W        W31249   9.224  25.511  11.609
71813W        W31250  35.567  19.226  12.949
71814W        W31251   8.258  23.240  12.915
71815W        W31252  13.602  29.589  10.423
71816W        W31253   9.840  31.449   4.731
71817W        W31254  11.662  14.630   2.245
71818W        W31255  37.963  44.821   2.879
71819W        W31256  40.041   0.427  12.349
71820W        W31257  36.961  14.327   3.667
71821W        W31258  23.205  24.996   0.371
71822W        W31259  12.649  32.972   3.271
71823W        W31260  25.588   7.316   2.364
71824W        W31261  23.102   0.452  13.395
71825W        W31262  39.026  23.159  11.869
71826W        W31263  11.246   8.330  12.434
71827W        W31264  15.251  10.834  14.896
71828W        W31265  17.798  26.615  10.548
71829W        W31266   0.277  12.161   1.221
71830W        W31267  31.615  26.026   1.360
71831W        W31268  43.388  23.158   4.324
71832W        W31269  36.360  14.691  14.842
71833W        W31270  43.766  41.534  10.564
71834W        W31271  20.269  43.471   1.418
71835W        W31272  42.975   3.943  13.038
71836W        W31273   9.823  21.206   9.944
71837W        W31274  25.539  34.370  13.037
71838W        W31275  33.105  12.734   2.411
71839W        W31276   3.951  19.581   4.824
71840W        W31277  15.667   8.325   3.676
71841W        W31278  44.857   4.286  10.984
71842W        W31279  43.360  23.545   0.462
71843W        W31280  23.591  32.497  14.464
71844W        W31281  11.657  34.876  11.111
71845W        W31282  36.092  28.179   4.149
71846W        W31283  28.998  43.950  14.855
71847W        W31284  23.173  30.519  11.063
71848W        W31285  41.856  10.194  13.331
71849W        W31286   1.385  42.989  13.463
71850W        W31287  17.684  23.088   4.283
71851W        W31288  30.073  11.141   1.258
71852W        W31289  39.354   3.245  11.515
71853W        W31290   7.277  14.116  14.310
71854W        W31291  33.879  40.502  11.542
71855W        W31292   5.750  42.905   2.800
71856W        W31293  35.011  27.500   0.407
71857W        W31294  34.015  38.013   1.799
71858W        W31295  28.612  11.320   0.266
71859W        W31296  20.209  41.470   1.820
71860W        W31297  16.795  12.219   4.836
71861W        W31298  38.557  37.894   0.427
71862W        W31299  17.730  41.040  14.901
71863W        W31300  16.636  41.848  12.880
71864W        W31301  40.425   1.441  12.531
71865W        W31302  22.040   0.358   2.256
71866W        W31303  28.184  19.624   1.405
71867W        W31304  16.257  15.681  10.902
71868W        W31305   7.834  26.068  12.909
71869W        W31306  31.080  44.373  14.774
71870W        W31307   9.803  19.565  14.463
71871W        W31308   4.745  29.515   2.192
71872W        W31309  41.026  20.699   2.355
71873W        W31310  10.722  44.357  12.413
71874W        W31311  24.541   9.874  12.358
71875W        W31312  35.045  25.157  14.512
71876W        W31313   6.782  35.951  12.392
71877W        W31314  12.787  32.479   4.696
71878W        W31315  10.667  30.445  10.905
71879W        W31316  17.131  27.198   4.255
71880W        W31317   4.726  40.494  14.511
71881W        W31318  12.352  16.204   0.410
71882W        W31319  44.897  21.182  10.497
71883W        W31320  44.337   2.877  12.496
71884W        W31321  29.011  40.940   9.648
71885W        W31322  17.077  15.185  12.361
71886W        W31323  10.636   3.833  14.291
71887W        W31324   9.168  23.651   3.779
71888W        W31325  33.109  25.117   4.269
71889W        W31326  22.110  11.358  10.523
71890W        W31327  23.734  16.795   4.235
71891W        W31328  22.536  15.310  10.964
71892W        W31329  28.931  40.033  14.454
71893W        W31330  32.499  38.044  14.844
71894W        W31331  33.617  36.932   4.276
71895W        W31332   0.856   3.219   2.734
71896W        W31333  34.603   0.357   1.374
71897W        W31334   2.762  42.290   2.318
71898W        W31335  33.508  25.685  11.923
71899W        W31336  15.211  22.029   4.210
71900W        W31337   7.704   4.391  13.493
71901W        W31338  27.637  32.031  10.406
71902W        W31339  35.105  24.144  13.309
71903W        W31340  38.866  33.536   4.828
71904W        W31341  11.345  38.876   0.948
71905W        W31342  10.221  17.205   3.815
71906W        W31343  37.893  39.323  10.437
71907W        W31344  24.158  25.588  12.937
71908W        W31345  34.373   2.934   2.312
71909W        W31346  40.366  17.673  11.603
71910W        W31347  37.069  25.160   3.243
71911W        W31348  16.803  42.431  11.949
71912W        W31349   9.795  33.463   1.272
71913W        W31350  23.077   5.812   1.351
71914W        W31351  24.165  32.020  14.472
71915W        W31352  18.132  14.743  13.316
71916W        W31353  38.004  13.329   2.666
71917W        W31354  20.043  20.243   5.802
71918W        W31355   9.828  15.611   2.373
71919W        W31356  43.451  33.933  14.964
71920W        W31357  10.711  17.582   1.791
71921W        W31358  18.662  14.135  10.017
71922W        W31359   3.217  39.387  13.410
71923W        W31360   7.907  23.616  10.940
71924W        W31361  31.078  29.129   4.318
71925W        W31362  16.206   4.917  10.436
71926W        W31363   3.433  25.094  11.476
71927W        W31364   0.858  27.098  11.576
71928W        W31365  15.291  22.104   2.818
71929W        W31366  10.853  26.985   3.786
71930W        W31367   5.776  44.779   2.682
71931W        W31368  30.942  19.602  12.396
71932W        W31369  37.380  12.766   4.159
71933W        W31370  36.402  38.530   3.760
71934W        W31371  19.567  17.676  12.896
71935W        W31372   1.752  24.992   2.205
71936W        W31373  28.956  42.009  11.957
71937W        W31374  14.126  15.316   3.778
71938W        W31375   1.906   8.868   1.725
71939W        W31376  23.685  14.190   2.187
71940W        W31377   6.212  29.621   1.425
71941W        W31378  42.829   7.392  12.028
71942W        W31379   0.362  17.610   1.398
71943W        W31380  31.900  22.531   1.749
71944W        W31381  11.638  20.253   0.905
71945W        W31382  22.178  42.521  11.546
71946W        W31383  28.106  13.639  12.459
71947W        W31384  44.970  29.147  11.908
71948W        W31385  20.684  26.536   1.284
71949W        W31386  32.608   2.429   2.836
71950W        W31387   8.716  33.466   3.823
71951W        W31388  13.727   6.689   3.805
71952W        W31389  42.998  18.604   1.364
71953W        W31390  28.567   8.312   4.114
71954W        W31391  32.570  39.962  13.954
71955W        W31392  35.041  21.024  12.382
71956W        W31393  18.646  28.989   0.875
71957W        W31394   4.374  41.867   1.774
71958W        W31395  41.386  35.507   2.243
71959W        W31396  18.557  32.630  10.463
71960W        W31397  22.230  19.103  13.936
71961W        W31398  44.871  26.027  14.330
71962W        W31399  41.387  44.487   3.758
71963W        W31400  19.760  22.649   3.641
71964W        W31401  35.087   9.235  12.962
71965W        W31402  30.106  30.004  10.502
71966W        W31403  37.915   0.373   4.297
71967W        W31404  32.587   8.858  14.855
71968W        W31405  11.745  19.150   0.333
71969W        W31406  35.440  27.576   2.269
71970W        W31407  10.770  38.898  14.963
71971W        W31408  37.565  35.392   2.356
71972W        W31409  37.543  20.705   0.356
71973W        W31410  36.073   8.702  12.398
71974W        W31411  33.508  23.204  10.584
71975W        W31412  36.347  16.744  12.504
71976W        W31413  18.195  24.093  14.839
71977W        W31414  14.792  13.162  12.403
71978W        W31415  16.698  13.684   0.400
71979W        W31416   6.920  37.947   1.701
71980W        W31417  33.947   3.907   2.828
71981W        W31418  18.224  34.396  11.528
71982W        W31419   7.378  38.490  13.461
71983W        W31420   7.380  42.956   0.355
71984W        W31421  26.069   0.965   4.222
71985W        W31422   3.852  28.080   3.838
71986W        W31423  20.622   7.669   0.268
71987W        W31424  29.089   9.780   4.717
71988W        W31425  36.095  32.586  11.545
71989W        W31426   9.360  38.875   3.147
71990W        W31427  35.902   9.889  13.056
71991W        W31428  26.517  26.184  14.846
71992W        W31429  34.538  23.071  10.900
71993W        W31430  44.432  28.986   1.399
71994W        W31431   6.228   7.321   1.849
71995W        W31432  34.883  22.580  14.899
71996W        W31433  22.177   0.479  10.470
71997W        W31434  36.493  33.586  11.523
71998W        W31435  16.599  26.133  14.487
71999W        W31436   0.758  25.182   3.158
72000W        W31437  33.111   7.371  13.393
72001W        W31438  28.168  12.337  12.853
72002W        W31439  29.981  11.803   4.119
72003W        W31440  17.296  17.229  10.085
72004W        W31441  24.560   9.300  13.319
72005W        W31442  39.361  11.782   4.160
72006W        W31443  33.611   5.207   3.299
72007W        W31444  27.680  15.806   3.351
72008W        W31445   7.861   0.898  12.004
72009W        W31446  32.966  24.004   2.902
72010W        W31447  21.073  37.078   2.263
72011W        W31448  26.138  44.948  10.439
72012W        W31449  19.188   8.394   4.737
72013W        W31450   4.403   8.888   4.800
72014W        W31451  28.141  38.923   3.235
72015W        W31452   2.846   5.699   0.803
72016W        W31453  39.436   1.892  11.503
72017W        W31454  33.576  12.819  11.453
72018W        W31455  42.835  17.642   0.356
72019W        W31456  33.033  22.533   0.894
72020W        W31457  26.111  23.617   2.703
72021W        W31458  27.556  35.972   1.860
72022W        W31459  32.498  17.781   1.312
72023W        W31460  34.387  20.089  10.959
72024W        W31461  44.804  12.121  11.480
72025W        W31462  25.696  16.221   1.715
72026W        W31463  16.147  24.678  10.552
72027W        W31464  36.024  22.025   3.220
72028W        W31465  14.296  34.474  12.917
72029W        W31466   0.840  30.964   4.231
72030W        W31467  36.560  34.591  11.016
72031W        W31468  43.841  19.149  14.917
72032W        W31469   8.299  37.418  11.607
72033W        W31470  43.292  43.886  14.348
72034W        W31471  23.030  33.555   3.760
72035W        W31472   1.386  25.597  11.001
72036W        W31473  10.152  29.442  13.883
72037W        W31474  30.585  34.571  13.433
72038W        W31475  27.691   9.698  12.902
72039W        W31476  28.955  39.414  13.006
72040W        W31477  22.014  19.064   1.821
72041W        W31478  17.172  18.673  12.480
72042W        W31479  14.239  44.971  12.087
72043W        W31480  31.557  26.678   5.287
72044W        W31481   1.738  19.131  11.861
72045W        W31482  18.631   2.938  11.106
72046W        W31483  17.157  32.926  12.064
72047W        W31484  36.050  20.182   3.813
72048W        W31485  14.606  44.368   2.818
72049W        W31486   0.967  32.483  14.303
72050W        W31487  31.436   8.848  11.036
72051W        W31488   4.750  11.139  10.120
72052W        W31489  13.334   4.734   5.193
72053W        W31490  38.324  18.649   2.247
72054W        W31491  31.116  31.911  10.927
72055W        W31492   9.212   3.260  11.088
72056W        W31493  21.555   9.275   2.240
72057W        W31494  32.078   2.930  14.879
72058W        W31495  20.050   9.154   0.430
72059W        W31496   7.363  35.940  11.460
72060W        W31497  27.073  17.637  14.440
72061W        W31498  37.839  43.014  12.889
72062W        W31499  13.289  21.081  11.024
72063W        W31500   5.741  28.471  11.503
72064W        W31501  10.764  42.955  13.791
72065W        W31502  10.245   7.828   0.465
72066W        W31503  34.993   9.793   1.777
72067W        W31504   4.382  13.349   0.796
72068W        W31505   3.735  24.718  14.357
72069W        W31506  38.886  41.936   0.872
72070W        W31507  18.559  26.041   4.646
72071W        W31508   3.909  42.525  11.565
72072W        W31509   5.911   7.802  12.075
72073W        W31510   7.795   6.889   2.715
72074W        W31511  43.374  34.554   3.304
72075W        W31512  37.515  42.300   1.248
72076W        W31513  14.114  28.458   0.947
72077W        W31514   4.334   2.841   2.850
72078W        W31515  10.748  39.351   0.394
72079W        W31516   5.272   1.279  12.357
72080W        W31517  20.031   4.401   4.690
72081W        W31518  37.460  23.701   2.230
72082W        W31519  40.526  34.476   2.209
72083W        W31520   4.801  32.425  11.100
72084W        W31521  17.155  28.983  14.959
72085W        W31522  18.152  42.822   2.865
72086W        W31523  19.094  43.988  12.889
72087W        W31524   2.911  17.236  10.630
72088W        W31525   5.865  26.029   3.676
72089W        W31526  34.914   9.813   2.248
72090W        W31527  19.239  13.218  14.449
72091W        W31528   0.423  42.809  12.372
72092W        W31529   2.801   4.251  13.338
72093W        W31530   5.879  16.191   1.395
72094W        W31531  20.692  22.635  11.935
72095W        W31532  11.795   8.759   2.811
72096W        W31533  44.385  22.708   5.262
72097W        W31534  23.594   3.229  14.498
72098W        W31535  18.212  30.912  14.824
72099W        W31536  22.600  34.013   2.202
72100W        W31537  15.170   4.908   3.765
72101W        W31538  33.464  36.497   2.764
72102W        W31539   8.705   0.335   3.215
72103W        W31540  39.956  36.966  14.950
72104W        W31541  22.209  28.450   4.117
72105W        W31542   3.317  41.327  14.797
72106W        W31543  37.581  37.873  13.814
72107W        W31544  35.035  14.641   2.399
72108W        W31545  33.460   3.887   0.414
72109W        W31546  14.765  26.086   4.728
72110W        W31547  14.130  10.329   2.200
72111W        W31548  11.357  27.040  11.886
72112W        W31549  32.893  23.514  12.419
72113W        W31550  28.553  30.029   4.707
72114W        W31551  38.961   9.347  12.824
72115W        W31552  30.131  21.166   5.157
72116W        W31553   1.745  19.196   2.209
72117W        W31554  44.974   6.222  12.396
72118W        W31555  16.123  29.664  14.788
72119W        W31556  24.221  13.229   4.138
72120W        W31557  20.074  11.742   4.633
72121W        W31558  14.618  39.525   3.761
72122W        W31559  44.852  32.948  14.458
72123W        W31560  19.583  10.277   0.437
72124W        W31561  21.061  30.520   3.803
72125W        W31562  38.545  18.104  10.928
72126W        W31563   4.938  44.477  14.800
72127W        W31564  25.577   9.713  11.048
72128W        W31565  21.240  28.012   0.476
72129W        W31566  39.336  14.180  10.923
72130W        W31567  10.332  10.743  11.856
72131W        W31568   2.381  25.523  11.571
72132W        W31569  41.936  36.482   2.745
72133W        W31570  11.766   0.760   3.731
72134W        W31571  19.662  18.566   1.316
72135W        W31572   8.329  16.255   0.838
72136W        W31573  44.873  19.583   0.753
72137W        W31574   7.896  23.630  11.398
72138W        W31575   9.763  43.821   2.777
72139W        W31576  41.040  21.072   3.334
72140W        W31577  33.418  34.938  14.959
72141W        W31578   2.903  16.741  14.787
72142W        W31579   4.730  44.448   5.189
72143W        W31580  17.582  25.473  11.023
72144W        W31581  10.654  35.026  13.405
72145W        W31582  18.138  24.149   2.862
72146W        W31583  12.349   2.963   2.255
72147W        W31584  29.572   2.852   0.335
72148W        W31585  10.279  34.873  14.949
72149W        W31586  23.526  19.229  13.437
72150W        W31587  32.993  28.954  13.791
72151W        W31588  23.044   7.899   0.452
72152W        W31589  20.671  26.694  11.018
72153W        W31590  21.242  11.209  10.054
72154W        W31591  40.333  18.096   4.260
72155W        W31592  42.359  27.460  10.488
72156W        W31593  13.643  25.535   0.825
72157W        W31594  40.321  35.904  14.919
72158W        W31595  12.653  20.081   1.697
72159W        W31596  13.129  17.665  14.296
72160W        W31597   1.894  34.945   3.709
72161W        W31598  15.177  25.197   2.392
72162W        W31599  26.025  26.168  14.494
72163W        W31600  13.144   5.849  10.990
72164W        W31601  19.538  41.812  10.545
72165W        W31602  39.471  33.891   4.136
72166W        W31603  43.806  31.645   0.469
72167W        W31604  17.575  41.971   5.118
72168W        W31605  26.535  31.130   0.384
72169W        W31606  18.708  27.029   2.365
72170W        W31607  36.873  42.470  14.009
72171W        W31608  11.169  35.470  13.912
72172W        W31609  13.341  29.661   2.227
72173W        W31610  39.492  37.520  11.067
72174W        W31611   9.301   7.322   4.306
72175W        W31612  17.584   5.263   2.854
72176W        W31613  14.313  27.120   3.325
72177W        W31614  33.876   4.213  14.453
72178W        W31615  32.525  42.301  12.373
72179W        W31616   3.314  42.469   1.275
72180W        W31617   2.731  31.613  13.035
72181W        W31618  26.654  23.219   1.707
72182W        W31619  20.091   8.687   4.229
72183W        W31620  18.769  23.548   0.728
72184W        W31621  10.285  32.933  10.416
72185W        W31622  19.285   9.242   2.343
72186W        W31623  16.685  41.870   0.747
72187W        W31624  33.625  10.247   1.801
72188W        W31625  41.325   7.777  14.499
72189W        W31626  11.174  20.155  12.431
72190W        W31627  15.610  39.439   2.233
72191W        W31628   8.310  23.151  10.982
72192W        W31629  19.556  10.640  12.890
72193W        W31630  14.679   0.419  10.582
72194W        W31631  10.691   0.900  11.855
72195W        W31632  22.735  25.056   3.703
72196W        W31633   3.232  42.312  14.775
72197W        W31634  34.596   4.888   0.450
72198W        W31635  15.268  25.024  14.899
72199W        W31636  38.042  17.064   0.477
72200W        W31637  19.120  41.964  14.026
72201W        W31638  39.006  18.184   0.455
72202W        W31639   9.357  39.046  13.035
72203W        W31640  27.183  10.797  12.957
72204W        W31641  13.233   4.811   2.205
72205W        W31642   1.829  35.900   0.822
72206W        W31643  28.496  30.499  14.783
72207W        W31644   3.921   9.784   1.815
72208W        W31645  25.095  39.372  12.836
72209W        W31646  42.937  21.178   0.967
72210W        W31647   4.907  14.194  12.033
72211W        W31648  31.079  32.043  14.023
72212W        W31649  21.714  32.041  13.509
72213W        W31650  14.106  24.708  10.924
72214W        W31651  35.880   0.800  10.460
72215W        W31652  34.048   8.330  10.579
72216W        W31653  24.082  40.531  12.497
72217W        W31654  38.499  26.511   4.210
72218W        W31655  42.933  31.076   0.838
72219W        W31656  18.195  44.485   1.304
72220W        W31657  34.109  35.556  14.380
72221W        W31658  33.565  15.111   1.885
72222W        W31659  40.399   0.961   1.231
72223W        W31660  12.124  41.344  12.093
72224W        W31661  30.499  33.420  12.863
72225W        W31662  28.946  11.708  14.493
72226W        W31663  26.132  41.333   1.359
72227W        W31664  31.905   1.947  13.338
72228W        W31665  28.101  22.535   1.799
72229W        W31666  35.502  43.821   1.212
72230W        W31667   9.685   7.286   0.450
72231W        W31668  17.670  33.035  12.042
72232W        W31669   9.730  41.394   4.139
72233W        W31670  31.491  27.541   1.844
72234W        W31671  20.728  21.117   1.731
72235W        W31672   9.280  30.119   4.624
72236W        W31673  17.599  27.002  11.443
72237W        W31674  34.926  14.173  12.923
72238W        W31675  41.335  19.711  13.940
72239W        W31676  38.869  22.718   0.853
72240W        W31677   3.932   0.918  12.962
72241W        W31678  22.745  38.922  14.503
72242W        W31679  23.024  14.755   1.423
72243W        W31680   4.816   1.739   1.212
72244W        W31681   3.336  11.159   0.386
72245W        W31682  16.742  22.154   1.901
72246W        W31683  14.665  11.327   2.375
72247W        W31684  41.336  11.765  10.516
72248W        W31685  30.073  28.637  13.903
72249W        W31686  26.990   6.755  11.129
72250W        W31687   8.321  40.347  13.323
72251W        W31688  15.639   7.714  14.303
72252W        W31689  34.929  20.620  14.877
72253W        W31690  18.662  42.339  11.045
72254W        W31691  43.385  10.285   1.347
72255W        W31692   2.837  20.195  10.978
72256W        W31693  31.595  39.319   3.654
72257W        W31694  11.729  21.118   0.903
72258W        W31695   6.743  32.608   2.877
72259W        W31696  43.861   1.433  11.454
72260W        W31697   2.867  15.804   5.250
72261W        W31698   5.412   2.407   4.338
72262W        W31699  36.048  11.831   3.815
72263W        W31700  27.082  41.332  12.916
72264W        W31701  14.095  25.135   3.757
72265W        W31702  32.511  23.216   3.799
72266W        W31703  35.073  44.965  11.974
72267W        W31704   1.878  38.855   3.857
72268W        W31705  43.300  34.032   5.164
72269W        W31706  25.121  30.001   2.876
72270W        W31707  22.592  26.662  10.947
72271W        W31708  37.558   2.228  13.978
72272W        W31709   0.367  31.616   1.839
72273W        W31710   7.186  20.260   2.232
72274W        W31711  26.963  31.919   3.724
72275W        W31712  20.240  40.007  12.340
72276W        W31713   0.882  23.099   3.225
72277W        W31714  38.910  27.672  10.417
72278W        W31715  11.178  15.778   0.782
72279W        W31716  30.534  16.224   3.243
72280W        W31717  23.698  25.498   3.166
72281W        W31718  38.959  25.529  14.957
72282W        W31719   5.746  33.465   2.237
72283W        W31720  31.141  38.045   3.302
72284W        W31721  24.168  36.474  12.393
72285W        W31722  18.254  38.881   5.108
72286W        W31723  27.670  36.058   0.350
72287W        W31724  21.718  22.153  13.434
72288W        W31725  35.392  11.141   3.806
72289W        W31726  16.757  27.955  13.531
72290W        W31727   8.870   8.747  12.375
72291W        W31728  32.134   3.725   1.916
72292W        W31729  10.197  25.699  14.958
72293W        W31730   8.668  29.592   3.149
72294W        W31731   8.194  31.533   1.736
72295W        W31732   4.347   3.921  11.996
72296W        W31733   9.807  15.254  11.043
72297W        W31734  21.551  31.646  11.882
72298W        W31735  27.496  25.157   3.218
72299W        W31736  25.110  11.339   1.285
72300W        W31737   6.220  25.145  11.050
72301W        W31738  41.409  32.053  14.998
72302W        W31739  29.953  35.555   1.852
72303W        W31740  33.451  10.822  13.387
72304W        W31741  14.189  38.496   4.239
72305W        W31742  28.500  32.411   4.744
72306W        W31743  35.446  44.986  12.866
72307W        W31744  22.133  20.131   5.779
72308W        W31745  25.683  37.472   2.264
72309W        W31746   3.365  11.744  13.319
72310W        W31747  44.369  35.479   5.766
72311W        W31748   7.772  38.003  10.630
72312W        W31749  33.410  26.000   3.858
72313W        W31750  19.708   0.292   3.209
72314W        W31751  26.960  28.490   1.783
72315W        W31752  11.278  32.035  12.382
72316W        W31753   5.724  31.446   1.775
72317W        W31754  30.130  22.106  11.537
72318W        W31755   8.318   3.432  11.560
72319W        W31756  13.187   7.685   5.085
72320W        W31757  40.996  10.651  10.603
72321W        W31758  14.172  30.082  10.598
72322W        W31759   4.254   7.373  13.998
72323W        W31760  19.634  29.095   2.272
72324W        W31761   1.418   8.194   0.795
72325W        W31762  31.549  26.577   9.925
72326W        W31763   9.874  25.137  14.029
72327W        W31764  33.468   3.873   0.872
72328W        W31765  16.730  11.164   4.788
72329W        W31766   5.363  17.243  11.885
72330W        W31767  13.175   5.883   1.718
72331W        W31768   8.856   8.309   1.284
72332W        W31769  11.156  19.251  14.483
72333W        W31770  22.629  21.537  13.432
72334W        W31771   9.783   1.241  14.032
72335W        W31772  16.160  21.126  11.598
72336W        W31773  21.603  44.277  10.040
72337W        W31774  16.789  39.515  11.487
72338W        W31775  41.317  33.511   0.475
72339W        W31776  39.002   8.852   2.790
72340W        W31777  22.196  31.627   3.659
72341W        W31778   0.252  32.896  11.927
72342W        W31779  21.616  12.261   4.685
72343W        W31780  38.381  12.850  10.443
72344W        W31781  43.806  35.477   3.679
72345W        W31782  44.808   2.745   0.297
72346W        W31783  29.981  11.785  13.830
72347W        W31784   3.752  42.956  13.846
72348W        W31785  17.565  37.468   1.257
72349W        W31786  37.479   1.743   1.215
72350W        W31787  42.804  29.598  13.389
72351W        W31788  10.742  18.266  12.375
72352W        W31789  13.754  18.555   1.733
72353W        W31790  27.614  31.450   1.443
72354W        W31791   3.955  23.138  10.411
72355W        W31792   0.913  37.988   1.382
72356W        W31793   6.700  32.936  14.001
72357W        W31794  29.057  25.093   3.167
72358W        W31795  28.652   1.933   0.373
72359W        W31796  44.797   6.217  11.980
72360W        W31797  31.512   9.181  10.516
72361W        W31798  15.120  14.191   4.825
72362W        W31799  13.713  29.566   4.754
72363W        W31800  28.589  21.169  11.095
72364W        W31801  23.162  33.092   2.192
72365W        W31802  20.530  25.598  13.922
72366W        W31803  43.355  34.471   3.815
72367W        W31804  32.943  42.842  10.159
72368W        W31805  26.547  23.551  10.493
72369W        W31806  29.462  15.692  10.468
72370W        W31807  24.007  35.459   0.948
72371W        W31808  40.903  23.239   0.391
72372W        W31809   2.768   9.247  13.908
72373W        W31810  21.517  41.535  10.943
72374W        W31811  26.047   8.384   2.849
72375W        W31812  44.340  39.459  13.018
72376W        W31813  25.469  13.289   3.791
72377W        W31814  15.755  22.664  10.477
72378W        W31815   0.811  38.425  11.512
72379W        W31816  30.087   7.381  12.360
72380W        W31817  34.022  22.623   2.376
72381W        W31818  37.844  43.911  14.946
72382W        W31819  18.630   1.855   2.859
72383W        W31820  32.106  38.347   0.962
72384W        W31821  19.715   8.393   4.711
72385W        W31822  36.466   4.811   4.692
72386W        W31823   0.932  37.498   2.895
72387W        W31824  26.959   6.864  10.507
72388W        W31825  43.001  43.983  14.348
72389W        W31826   7.749  28.571  14.031
72390W        W31827  37.423  30.013   3.323
72391W        W31828  43.002  31.634  14.016
72392W        W31829   1.904  28.113  12.081
72393W        W31830  42.990  19.636   4.285
72394W        W31831  24.512  10.238  13.913
72395W        W31832  21.121   1.478  11.055
72396W        W31833  35.994  23.985  11.422
72397W        W31834  26.176  30.596   1.272
72398W        W31835  23.558  29.620  10.478
72399W        W31836  14.792   6.363   2.745
72400W        W31837  20.756  39.879   0.439
72401W        W31838  31.926   3.348   2.317
72402W        W31839  16.148  31.015  12.913
72403W        W31840  41.508  39.036   3.213
72404W        W31841   6.832   4.383   3.176
72405W        W31842  20.133  14.786  12.843
72406W        W31843  21.717   0.873  14.805
72407W        W31844  40.510  24.983   4.289
72408W        W31845  44.349  12.717  11.869
72409W        W31846  27.145  35.863   0.286
72410W        W31847  16.751  15.736  13.371
72411W        W31848   5.832  22.708   1.923
72412W        W31849  18.289  27.058  14.347
72413W        W31850  43.291  17.287  12.578
72414W        W31851  36.551  29.520   2.674
72415W        W31852  16.624   3.455  12.878
72416W        W31853  35.410  17.632   0.768
72417W        W31854  39.061  41.865  13.503
72418W        W31855  43.813  40.822   2.797
72419W        W31856  36.486  43.395  12.010
72420W        W31857  25.593  12.761  13.387
72421W        W31858  11.363  28.585   0.946
72422W        W31859   6.862  39.458  13.982
72423W        W31860  14.672  22.537   1.218
72424W        W31861  34.494  10.374  13.313
72425W        W31862  35.474  32.889   3.814
72426W        W31863  12.652   7.370  13.502
72427W        W31864  19.770  20.040   1.767
72428W        W31865  18.743   2.909  12.065
72429W        W31866   7.263   0.294   0.313
72430W        W31867  26.988   3.251  13.449
72431W        W31868   9.182   5.698   2.244
72432W        W31869   2.933  33.426   2.864
72433W        W31870  11.272  44.961   0.743
72434W        W31871  38.439  11.807  10.490
72435W        W31872   9.693  44.323  10.611
72436W        W31873  32.441  24.598  11.549
72437W        W31874  35.368   8.258   1.303
72438W        W31875  26.094  40.978  13.491
72439W        W31876  22.020  14.722   2.771
72440W        W31877  25.081  38.962   2.181
72441W        W31878  44.866   9.730   1.333
72442W        W31879  30.010  44.822  12.348
72443W        W31880  34.940   9.164  14.446
72444W        W31881  22.651  36.930  10.981
72445W        W31882  22.606  11.677   5.219
72446W        W31883  38.511  23.149   2.330
72447W        W31884   6.342  21.197  10.146
72448W        W31885  33.026  28.975  12.847
72449W        W31886  23.727  38.967  13.984
72450W        W31887   9.732  35.599   1.334
72451W        W31888  34.865  32.562   2.398
72452W        W31889  10.323  28.582   3.161
72453W        W31890  19.779  19.685  12.521
72454W        W31891   0.897   0.428  13.801
72455W        W31892   5.224   9.349  14.938
72456W        W31893  35.065  18.239   3.838
72457W        W31894  34.398  34.426   4.232
72458W        W31895  10.762  22.646   4.764
72459W        W31896  31.947  25.115  13.980
72460W        W31897  23.007  24.200   2.403
72461W        W31898  16.289  11.623   0.283
72462W        W31899   2.320   3.422   1.303
72463W        W31900   2.395  30.508  11.451
72464W        W31901   2.325  43.834   3.245
72465W        W31902   2.301  25.689   4.132
72466W        W31903  20.180  40.508   5.122
72467W        W31904  22.741  13.223   2.338
72468W        W31905   8.791   9.286  14.452
72469W        W31906  12.831  25.036   3.807
72470W        W31907   4.418  17.211   4.148
72471W        W31908  20.584  23.628  11.884
72472W        W31909  19.234  19.079  13.895
72473W        W31910  12.197  38.489   1.401
72474W        W31911  26.141   9.335  10.538
72475W        W31912  38.914  37.446   2.888
72476W        W31913  20.749   2.271   3.775
72477W        W31914  23.620  33.899  14.302
72478W        W31915  26.001  18.785   3.704
72479W        W31916  23.563  16.133  11.956
72480W        W31917  11.794   6.221   1.889
72481W        W31918  12.664  43.483   2.289
72482W        W31919   5.883  14.604   3.711
72483W        W31920  12.630  17.270  14.431
72484W        W31921  40.372  13.206   0.479
72485W        W31922  34.940  11.778  10.894
72486W        W31923  23.079   6.781   3.734
72487W        W31924   8.270  43.422  12.512
72488W        W31925  19.545   0.752  13.872
72489W        W31926  24.081  35.086  14.874
72490W        W31927  14.096  35.579   4.836
72491W        W31928  14.194  29.164   2.680
72492W        W31929   8.768  24.073  13.893
72493W        W31930  36.069  24.725   1.256
72494W        W31931  44.335  22.516  14.966
72495W        W31932  26.074  34.112   4.760
72496W        W31933  42.409  21.560  10.898
72497W        W31934  14.330  20.724   4.326
72498W        W31935   7.260  20.730  13.355
72499W        W31936  30.916  28.136   3.855
72500W        W31937   9.869  21.197  12.418
72501W        W31938  28.159  28.591  12.932
72502W        W31939  42.994  13.192  10.577
72503W        W31940  27.566  13.198   0.401
72504W        W31941  10.822  32.917  12.488
72505W        W31942  43.988  24.100  11.907
72506W        W31943  15.251  20.179  12.347
72507W        W31944  38.024  37.545  12.462
72508W        W31945  21.750  21.146   3.630
72509W        W31946  41.409  11.260   3.258
72510W        W31947  32.971   9.269   4.628
72511W        W31948  44.992  24.587  11.403
72512W        W31949  30.133  41.965  10.628
72513W        W31950  22.078  33.558   4.176
72514W        W31951   8.183  43.828   2.274
72515W        W31952  10.827   4.224  14.944
72516W        W31953   1.310  13.233  10.888
72517W        W31954   8.740  37.467  11.461
72518W        W31955  10.668  22.582  10.572
72519W        W31956  33.384  44.914   0.908
72520W        W31957  25.043   7.725  14.979
72521W        W31958  15.694   8.719  14.843
72522W        W31959  32.601   4.802  13.842
72523W        W31960  29.159   7.205   0.329
72524W        W31961  11.703  41.859   3.233
72525W        W31962  10.219  14.771   0.455
72526W        W31963  44.420  42.477  14.843
72527W        W31964  25.169  41.507   2.239
72528W        W31965  28.137  41.482   1.931
72529W        W31966  29.456  44.468  13.889
72530W        W31967  39.433  37.546   4.159
72531W        W31968  24.081  15.110  11.389
72532W        W31969  27.503  37.020  12.568
72533W        W31970  21.732  42.298   2.800
72534W        W31971  35.571  37.526   2.899
72535W        W31972   6.421  18.236   3.218
72536W        W31973  26.681  39.997   1.734
72537W        W31974  27.052   0.480  12.919
72538W        W31975  26.026  26.475  13.892
72539W        W31976  27.034  12.357   2.412
72540W        W31977  25.543  15.734   9.979
72541W        W31978   0.860   9.809  10.156
72542W        W31979  15.672  35.079  11.894
72543W        W31980   2.278   9.288  10.611
72544W        W31981   4.413  29.600  14.441
72545W        W31982   4.415   1.383  12.093
72546W        W31983  19.662   3.768  11.579
72547W        W31984   4.885  30.554   1.389
72548W        W31985  38.026   5.368   0.243
72549W        W31986  37.998  39.931  12.354
72550W        W31987  29.064  32.040  14.997
72551W        W31988  13.341  26.070  13.037
72552W        W31989  11.282  21.093   4.623
72553W        W31990  19.597  25.638   2.319
72554W        W31991  18.773  13.841  13.852
72555W        W31992  34.512  14.300   4.288
72556W        W31993  22.685   9.395  12.405
72557W        W31994  28.437  38.049  14.950
72558W        W31995  26.671   6.364  12.032
72559W        W31996   5.689  32.057   2.793
72560W        W31997  25.027   1.931  11.122
72561W        W31998  31.581  11.864  13.344
72562W        W31999   9.663   3.223   4.217
72563W        W32000  31.059  34.903   2.823
72564W        W32001  14.280   7.306   4.315
72565W        W32002  16.766  20.678   0.807
72566W        W32003   6.284   9.180   4.174
72567W        W32004   0.432  37.990   4.125
72568W        W32005  23.499  39.434   0.822
72569W        W32006  37.011  17.686  13.317
72570W        W32007  28.502   4.827  11.104
72571W        W32008  33.497   3.731  14.310
72572W        W32009  17.233  12.670  10.589
72573W        W32010  25.542  29.133   0.798
72574W        W32011  25.150  40.859   1.294
72575W        W32012  14.728  33.478   4.683
72576W        W32013  25.964  13.173  14.301
72577W        W32014   5.408  38.929   4.639
72578W        W32015  35.421  12.251   2.880
72579W        W32016   1.333  34.867   4.284
72580W        W32017  43.366  23.029   1.432
72581W        W32018  16.315  25.196   1.768
72582W        W32019   3.723  28.653  11.463
72583W        W32020  43.369  18.730  13.990
72584W        W32021   3.237   1.297   2.280
72585W        W32022  21.670  11.179   4.749
72586W        W32023  12.690  40.021  13.054
72587W        W32024  19.220  43.807   4.635
72588W        W32025  32.577  24.191   1.269
72589W        W32026  22.562   8.191  14.299
72590W        W32027  18.208  40.423   1.760
72591W        W32028  30.952  29.035   0.783
72592W        W32029   2.370  37.962  12.054
72593W        W32030  12.705  42.931  14.498
72594W        W32031  37.474  18.785   2.876
72595W        W32032  18.767  44.872  10.645
72596W        W32033   8.316  22.009  10.950
72597W        W32034   6.710  17.693  14.318
72598W        W32035  33.604  17.206  14.321
72599W        W32036   4.278  15.133   3.704
72600W        W32037  40.928  26.110   0.893
72601W        W32038  14.633   9.747   2.868
72602W        W32039  27.670  23.647  14.980
72603W        W32040  25.000   3.895   2.673
72604W        W32041  37.952  32.637  14.339
72605W        W32042  19.567  15.185  13.397
72606W        W32043  30.087  41.989   1.931
72607W        W32044  24.563  20.167   3.328
72608W        W32045  14.821  26.467   1.838
72609W        W32046   8.835  42.461   0.337
72610W        W32047   4.227   8.323  14.829
72611W        W32048  16.161  33.621   4.736
72612W        W32049  32.481  18.126   3.767
72613W        W32050  21.124  16.175   3.633
72614W        W32051  39.835  37.402   5.162
72615W        W32052  13.327  28.615   3.678
72616W        W32053  40.883  12.228   0.298
72617W        W32054   8.888  34.491  10.601
72618W        W32055  33.411   0.746   4.115
72619W        W32056   0.850  34.963  12.392
72620W        W32057  10.157  14.107  11.584
72621W        W32058   2.416  24.481  13.344
72622W        W32059  11.230  31.404  10.565
72623W        W32060  35.550  18.264   4.166
72624W        W32061  20.763  25.110   5.169
72625W        W32062   3.946  10.641   4.618
72626W        W32063  44.988  24.142  10.639
72627W        W32064  31.092   7.226  12.346
72628W        W32065   5.743   2.354   4.659
72629W        W32066  44.462   9.731   0.483
72630W        W32067  24.690  16.213   2.677
72631W        W32068  13.321  35.380   1.294
72632W        W32069  10.870   5.311  10.615
72633W        W32070  17.736  10.367   2.233
72634W        W32071  24.548  30.513  11.033
72635W        W32072  31.919  18.278   2.393
72636W        W32073  24.135   5.286   2.774
72637W        W32074   3.947  18.786  13.016
72638W        W32075  10.292  27.596   4.261
72639W        W32076  14.111  43.866  14.925
72640W        W32077  33.007  40.832   0.867
72641W        W32078  28.513   4.747   1.307
72642W        W32079  17.733   2.963  14.377
72643W        W32080  15.602  30.621  10.143
72644W        W32081   5.883  18.065  14.288
72645W        W32082  31.625  27.155  12.348
72646W        W32083  12.173  29.114   1.337
72647W        W32084  37.545  42.443  13.440
72648W        W32085   6.744  34.098  13.531
72649W        W32086  39.867  37.993   3.254
72650W        W32087  33.118  39.060   1.784
72651W        W32088   6.703  30.639   0.244
72652W        W32089   4.894  17.185   2.299
72653W        W32090  41.442   0.353   4.174
72654W        W32091  35.361  30.915  13.509
72655W        W32092  14.115  24.059   3.652
72656W        W32093   3.712  16.693  14.823
72657W        W32094  22.709  43.465  10.448
72658W        W32095  17.729  10.843  12.492
72659W        W32096  16.170  42.895   1.765
72660W        W32097  30.617  13.279  13.432
72661W        W32098  21.064  16.739  11.991
72662W        W32099  35.081  14.771   4.825
72663W        W32100  24.163  40.497   3.814
72664W        W32101  33.607   1.973   4.151
72665W        W32102  13.775   5.792   1.433
72666W        W32103  23.105  20.552  14.506
72667W        W32104  36.085  18.670  14.982
72668W        W32105  42.799  44.948   4.204
72669W        W32106   9.838  32.593   0.755
72670W        W32107  25.966  15.264  12.937
72671W        W32108  28.093  15.272  14.316
72672W        W32109   6.852  38.898   4.153
72673W        W32110  36.913  14.228  11.953
72674W        W32111  22.239  19.114  11.073
72675W        W32112   9.197   5.850   4.288
72676W        W32113   2.445   5.931   3.305
72677W        W32114  17.233  31.459  10.567
72678W        W32115  41.831  41.967   3.355
72679W        W32116   7.762  28.108   1.211
72680W        W32117  30.999   6.185  10.617
72681W        W32118  28.490   7.702   3.297
72682W        W32119  32.060  27.514  13.494
72683W        W32120  17.217  32.935   1.290
72684W        W32121   0.844  12.206  12.053
72685W        W32122  26.696   7.265   2.303
72686W        W32123   3.461  21.757  11.541
72687W        W32124  16.148   8.280  11.510
72688W        W32125  22.192  41.826  12.462
72689W        W32126   8.347  32.422  14.023
72690W        W32127   7.717  43.943  11.418
72691W        W32128  26.124  28.556  11.493
72692W        W32129  31.087  10.254  11.484
72693W        W32130  31.486   7.680  11.105
72694W        W32131   4.319   9.339   2.408
72695W        W32132  25.151  25.690   4.243
72696W        W32133  26.521  29.925  10.985
72697W        W32134  18.062  32.492   4.147
72698W        W32135  40.456   8.685   3.201
72699W        W32136  41.851  16.256  14.982
72700W        W32137  29.525   2.784  12.577
72701W        W32138   4.232  28.543   3.707
72702W        W32139  21.595  10.267   2.846
72703W        W32140  28.624   7.764  10.572
72704W        W32141  35.048  15.154   3.669
72705W        W32142   7.222  27.483  10.557
72706W        W32143   9.275  21.636  12.842
72707W        W32144  35.408  40.809  10.490
72708W        W32145  38.074  24.662   0.251
72709W        W32146   6.811  12.216   2.341
72710W        W32147  40.538  23.148  13.357
72711W        W32148  29.576  37.833  11.013
72712W        W32149  36.442  21.171  13.925
72713W        W32150   2.862  37.345  13.465
72714W        W32151   5.781  32.005   3.381
72715W        W32152  23.067  38.865   0.748
72716W        W32153  17.735  24.214  14.969
72717W        W32154   3.404   7.775   3.343
72718W        W32155   7.828  21.130   4.626
72719W        W32156  17.769   5.792   3.187
72720W        W32157  32.026  15.822   1.316
72721W        W32158   9.207  38.848   0.441
72722W        W32159  42.292   9.818  12.526
72723W        W32160   5.833  27.997  13.917
72724W        W32161   6.732  39.352  12.576
72725W        W32162  37.439  16.791  12.889
72726W        W32163  35.513  37.402   0.420
72727W        W32164  30.113   5.785  14.981
72728W        W32165   1.286   0.905  12.024
72729W        W32166  36.849  27.117   0.816
72730W        W32167  33.893  33.995  10.530
72731W        W32168   1.856  25.174   4.153
72732W        W32169  31.114  34.955   3.309
72733W        W32170  44.380  35.890  13.348
72734W        W32171   4.353   6.823  14.761
72735W        W32172   4.898   6.286  14.324
72736W        W32173  28.031  34.906   4.629
72737W        W32174   6.846  37.359  11.426
72738W        W32175  44.817  43.498  11.553
72739W        W32176  39.516  11.836  11.907
72740W        W32177  10.327  23.085   1.899
72741W        W32178  10.266  40.983   4.611
72742W        W32179   0.345   9.276  14.768
72743W        W32180  17.766   9.879   2.713
72744W        W32181  14.629  37.406  14.503
72745W        W32182  15.248   4.701  13.020
72746W        W32183  21.227  11.847   3.268
72747W        W32184  12.691  41.853   4.316
72748W        W32185  31.055  24.500   5.138
72749W        W32186   7.178  29.936   2.190
72750W        W32187   3.857   4.293  10.582
72751W        W32188  24.720   9.755   3.267
72752W        W32189  15.180  17.648  10.467
72753W        W32190  42.392  20.588   2.412
72754W        W32191  14.783  27.480   2.895
72755W        W32192   8.317  16.286   2.889
72756W        W32193  39.542  43.886  10.946
72757W        W32194  31.616   3.384  11.503
72758W        W32195  14.109  15.238  14.965
72759W        W32196  40.482  16.200   3.767
72760W        W32197  28.556   2.890   1.329
72761W        W32198   8.353  41.411  14.840
72762W        W32199  40.489  27.010  11.574
72763W        W32200   7.773   8.824   1.709
72764W        W32201  39.398   8.820   0.427
72765W        W32202  18.065  35.534   4.231
72766W        W32203  21.196  43.941   2.728
72767W        W32204  31.599   1.797   1.332
72768W        W32205  18.676  39.003  12.361
72769W        W32206  31.984  28.666  14.338
72770W        W32207  37.572  17.080  11.098
72771W        W32208  15.677  23.661   4.293
72772W        W32209   8.189   2.275  11.032
72773W        W32210   8.213  22.657  14.795
72774W        W32211  23.674  32.128   0.426
72775W        W32212  17.783  18.646  10.995
72776W        W32213  31.998  44.365   0.919
72777W        W32214  40.498  11.273   3.692
72778W        W32215  31.899  32.067  12.441
72779W        W32216  35.972  41.347  12.899
72780W        W32217  35.076  27.082   4.776
72781W        W32218  36.566   7.198   2.218
72782W        W32219  39.827  22.070   3.629
72783W        W32220   4.823  26.120  12.348
72784W        W32221  13.689  34.518   4.127
72785W        W32222  29.451  38.969  12.824
72786W        W32223  25.706   5.877  13.373
72787W        W32224  23.673   0.891   4.715
72788W        W32225  38.544  25.586  10.555
72789W        W32226   9.291   9.276   0.782
72790W        W32227  26.644  37.848  14.935
72791W        W32228  12.755  33.427  12.564
72792W        W32229  23.566  32.081   4.318
72793W        W32230  19.146  39.535  14.393
72794W        W32231   2.265  16.237   2.833
72795W        W32232  36.912  29.034   3.320
72796W        W32233  36.555  19.167  13.812
72797W        W32234  34.603  40.848  14.770
72798W        W32235  16.773  40.037  12.087
72799W        W32236   7.686  22.649   0.747
72800W        W32237   6.741  22.156   3.672
72801W        W32238   6.728   6.232   3.333
72802W        W32239  43.337  25.995   3.724
72803W        W32240   7.680  13.752  12.013
72804W        W32241   9.720  26.598  11.955
72805W        W32242   0.952  26.593  12.825
72806W        W32243  33.397  36.394  13.816
72807W        W32244  13.301  31.640   0.461
72808W        W32245  39.925  40.924  14.910
72809W        W32246  23.528  28.629  12.405
72810W        W32247  11.307   1.474  13.361
72811W        W32248   2.891  41.854  13.521
72812W        W32249   4.706  29.169  10.449
72813W        W32250  33.449  23.153   1.918
72814W        W32251  42.486  42.800   1.347
72815W        W32252   7.189  44.981  14.456
72816W        W32253  42.505  14.788   3.791
72817W        W32254  28.588  34.489   2.329
72818W        W32255  43.485  20.594   1.779
72819W        W32256  32.516  30.126  11.951
72820W        W32257  26.655  32.443   4.228
72821W        W32258   8.883  42.351  12.441
72822W        W32259   3.830  28.588  14.410
72823W        W32260   9.344  17.242   3.264
72824W        W32261  39.822   7.796  12.360
72825W        W32262   8.329  40.507   4.750
72826W        W32263  32.125   3.330  11.490
72827W        W32264   2.780   8.788  14.791
72828W        W32265  18.239   2.936   4.738
72829W        W32266  24.630  26.514   2.835
72830W        W32267  13.747  11.283  10.922
72831W        W32268  15.805   4.754   2.327
72832W        W32269  31.051  32.567   2.284
72833W        W32270   7.335  13.109  10.625
72834W        W32271  12.653  15.243  13.529
72835W        W32272  29.960  37.941  10.995
72836W        W32273  36.390   9.689   4.138
72837W        W32274   8.777  31.024  11.402
72838W        W32275  15.790  26.503   1.310
72839W        W32276  34.428  24.101  11.502
72840W        W32277  17.244  26.679   3.286
72841W        W32278  43.418  13.292  12.493
72842W        W32279  21.155  35.881  14.870
72843W        W32280  17.107  36.525   3.658
72844W        W32281  37.907  24.130  12.072
72845W        W32282  11.242  28.479  13.877
72846W        W32283  39.435  24.723   3.155
72847W        W32284  12.354  14.668  11.974
72848W        W32285   4.438  25.146   3.182
72849W        W32286  14.795   4.351  11.413
72850W        W32287  15.644  17.204   2.305
72851W        W32288  44.882  35.979  11.919
72852W        W32289  29.997  24.534  13.353
72853W        W32290  11.327  14.611  14.459
72854W        W32291  27.949  40.843   2.897
72855W        W32292   6.753  30.978  10.427
72856W        W32293  13.725  14.813   0.441
72857W        W32294  36.501  42.896  13.013
72858W        W32295  35.454   1.376   4.172
72859W        W32296   1.761  37.024   0.896
72860W        W32297  23.089  39.971   2.188
72861W        W32298  32.435  21.738  13.413
72862W        W32299   1.294  22.623  11.909
72863W        W32300  25.181  42.308  11.517
72864W        W32301  13.618  43.458   4.138
72865W        W32302  40.830   7.364   3.739
72866W        W32303  37.855  38.865   4.314
72867W        W32304  21.755   9.381   4.794
72868W        W32305  40.859  24.992  14.398
72869W        W32306  37.455  27.622   4.300
72870W        W32307  14.820  26.609   1.437
72871W        W32308   0.891  13.722   2.242
72872W        W32309  19.064   8.201  14.331
72873W        W32310  33.069  15.129  13.011
72874W        W32311  34.957  10.138  11.515
72875W        W32312  25.040  27.677  12.361
72876W        W32313  43.393  38.536  11.573
72877W        W32314  41.878  38.859   1.408
72878W        W32315  33.915  23.212   4.609
72879W        W32316   1.319   1.461   0.421
72880W        W32317  41.972  10.323  13.916
72881W        W32318  33.114  31.406  12.439
72882W        W32319  15.624   3.775  10.539
72883W        W32320  36.999  43.294  10.921
72884W        W32321  17.654  34.544  14.374
72885W        W32322  29.116  43.910  13.991
72886W        W32323  28.111  44.974   0.920
72887W        W32324   6.328  24.029  11.124
72888W        W32325  40.855  16.195   3.851
72889W        W32326  29.978  24.205   2.283
72890W        W32327  22.099   7.856   0.302
72891W        W32328  25.608  30.112  12.978
72892W        W32329  21.570  15.112  12.835
72893W        W32330  40.308   0.273  13.991
72894W        W32331  30.158  37.954   0.460
72895W        W32332   9.854  33.922   4.254
72896W        W32333   9.845  40.371  14.411
72897W        W32334   8.218  41.295  13.889
72898W        W32335  30.108  14.816   4.261
72899W        W32336   4.931  42.835   2.221
72900W        W32337  16.230  41.418  13.439
72901W        W32338  14.181  42.012   2.901
72902W        W32339  34.079  13.797  12.439
72903W        W32340  41.321   2.942   4.117
72904W        W32341  41.501  22.675   4.805
72905W        W32342  21.642  20.522   4.748
72906W        W32343  28.509  39.016  10.614
72907W        W32344   1.428  30.006   3.848
72908W        W32345  26.597   7.295   1.348
72909W        W32346  19.217   3.722  13.308
72910W        W32347  37.997   3.404  14.400
72911W        W32348  34.925   5.435   1.390
72912W        W32349  38.488  23.565   1.423
72913W        W32350  29.107  41.958  12.530
72914W        W32351  32.465   2.870  10.921
72915W        W32352  41.371  39.363  11.922
72916W        W32353  40.548  41.933   1.929
72917W        W32354   0.888  39.371   2.862
72918W        W32355   5.197  23.218   3.326
72919W        W32356  18.153  23.511  12.510
72920W        W32357  16.169  14.152  14.841
72921W        W32358   4.371   9.861   3.675
72922W        W32359  35.490  25.215  11.890
72923W        W32360   7.869  12.190   0.855
72924W        W32361  25.027   0.905   2.852
72925W        W32362  43.022  23.725   2.367
72926W        W32363   2.311  42.826  11.115
72927W        W32364  15.298   3.379   4.609
72928W        W32365  10.242  16.213   2.311
72929W        W32366  26.182  21.082  14.858
72930W        W32367   9.252  41.910  13.950
72931W        W32368  39.901  41.900  11.893
72932W        W32369  37.006  33.604  12.961
72933W        W32370  38.516  39.991   1.866
72934W        W32371  17.224  12.819  11.104
72935W        W32372  21.134   9.238  12.906
72936W        W32373  28.043   1.769   3.698
72937W        W32374   8.834  29.634   2.384
72938W        W32375   5.692  21.539   2.774
72939W        W32376   2.862   1.791  11.432
72940W        W32377  19.141  17.126   4.282
72941W        W32378  12.336  40.954  12.063
72942W        W32379  15.288  36.848   2.710
72943W        W32380  43.771  15.741   1.385
72944W        W32381  19.565  25.176   0.755
72945W        W32382  39.404  10.380   4.789
72946W        W32383  26.185   7.186   4.234
72947W        W32384  21.198  34.060   4.219
72948W        W32385  12.789  26.026  14.471
72949W        W32386  18.177  32.072  10.909
72950W        W32387  38.854  17.615   2.901
72951W        W32388  20.676   8.752  10.585
72952W        W32389   0.451  13.114   1.899
72953W        W32390  14.177   7.746   3.845
72954W        W32391  34.955  14.647   4.168
72955W        W32392  19.058   7.407   4.621
72956W        W32393  39.862  27.531  12.071
72957W        W32394  40.499  37.863   0.441
72958W        W32395   6.871  43.861   3.192
72959W        W32396  38.525  16.569  10.949
72960W        W32397   6.713  23.708   4.698
72961W        W32398  17.191  19.056   1.780
72962W        W32399  15.319  29.639  14.772
72963W        W32400   0.455  26.082   4.300
72964W        W32401  15.588  23.049   1.324
72965W        W32402  17.273  30.498   2.304
72966W        W32403  10.808  26.032   4.304
72967W        W32404  32.562  13.805  10.956
72968W        W32405  11.155   1.835   3.865
72969W        W32406  41.361   5.307  12.033
72970W        W32407  10.743  22.570   2.354
72971W        W32408  28.595  13.219  14.782
72972W        W32409   9.311   2.377  14.464
72973W        W32410   5.408  18.666   0.885
72974W        W32411  26.088  41.479   3.732
72975W        W32412  44.873  26.536  11.539
72976W        W32413  17.245  36.373   4.292
72977W        W32414   1.923  17.739  14.436
72978W        W32415  24.981  36.097  13.348
72979W        W32416   9.648   0.384   1.267
72980W        W32417  18.736  15.596  14.963
72981W        W32418  20.167  23.678   0.951
72982W        W32419  18.191  17.189   2.820
72983W        W32420   3.718  37.961   0.757
72984W        W32421  18.136  37.874   0.267
72985W        W32422  30.493  41.905   3.817
72986W        W32423  10.275  18.596  14.420
72987W        W32424  37.078  36.857  11.438
72988W        W32425   6.265   6.726  11.512
72989W        W32426   7.212   8.836  10.926
72990W        W32427  33.984  33.599   2.674
72991W        W32428  10.372  23.006   4.132
72992W        W32429  29.042   2.310  12.418
72993W        W32430  33.117  30.435  13.325
72994W        W32431  11.199  21.663  14.954
72995W        W32432  31.422  15.155   3.177
72996W        W32433   0.350  15.128  13.039
72997W        W32434  44.762  33.573   4.211
72998W        W32435  39.986  39.434   2.198
72999W        W32436  29.095   8.292   1.835
73000W        W32437  14.804  36.533  11.541
73001W        W32438   1.331   3.433  13.330
73002W        W32439  13.785  35.002   3.252
73003W        W32440   2.765  28.167  13.461
73004W        W32441   9.657  20.634  12.427
73005W        W32442  39.360  26.480   3.686
73006W        W32443  22.145  31.434  12.068
73007W        W32444  23.208  12.787  14.880
73008W        W32445   3.820  13.152  13.016
73009W        W32446  19.053   1.941  13.012
73010W        W32447  22.639   0.406   1.841
73011W        W32448  13.623   2.471  12.988
73012W        W32449  30.575   7.891   3.822
73013W        W32450  15.307  26.173   0.276
73014W        W32451  11.330  32.108   3.781
73015W        W32452   3.288  26.569   5.135
73016W        W32453   1.453   5.264  10.470
73017W        W32454  32.590  29.162   3.666
73018W        W32455  26.613  44.834   3.179
73019W        W32456  38.482  41.852   0.460
73020W        W32457  20.036  23.169   0.905
73021W        W32458  43.461   9.858  10.538
73022W        W32459  41.355  30.073  11.607
73023W        W32460   0.273   9.849  10.998
73024W        W32461  44.478  37.919   2.333
73025W        W32462  40.490  41.404   0.836
73026W        W32463  24.048  41.424  14.311
73027W        W32464  37.338   0.952  10.555
73028W        W32465  31.498  20.063  10.411
73029W        W32466  20.740  33.494  14.926
73030W        W32467  40.933  12.253   0.810
73031W        W32468  22.729  31.050  11.596
73032W        W32469  29.564  24.588  10.514
73033W        W32470   5.761  25.113  12.405
73034W        W32471  43.826  35.406   2.355
73035W        W32472  44.966  31.536  14.498
73036W        W32473  21.028  21.129   4.669
73037W        W32474   7.207  11.364  13.035
73038W        W32475  35.542  43.447  11.955
73039W        W32476  41.863  33.534   2.375
73040W        W32477  29.617   5.926   4.328
73041W        W32478   7.330  39.373   0.808
73042W        W32479   9.738  35.930  11.013
73043W        W32480  26.666  21.634  12.560
73044W        W32481  40.965  18.776   1.715
73045W        W32482  10.779   4.338  13.946
73046W        W32483  22.633   2.763  13.512
73047W        W32484  21.534   6.292  11.599
73048W        W32485  27.622  38.943  14.372
73049W        W32486  10.287   2.956  11.554
73050W        W32487  21.527  15.256   2.757
73051W        W32488  41.872  20.113  10.483
73052W        W32489  29.057   3.863  11.564
73053W        W32490   7.266  39.968   1.307
73054W        W32491  39.850  22.021  12.078
73055W        W32492  33.435  19.722  11.080
73056W        W32493  18.111   6.217  12.849
73057W        W32494  11.712  28.071   2.703
73058W        W32495  29.660   9.771   3.382
73059W        W32496  10.266  30.915  11.859
73060W        W32497  33.503   1.816   4.625
73061W        W32498  26.966  15.310  14.377
73062W        W32499  13.191   6.736   2.732
73063W        W32500  30.523  34.037  12.084
73064W        W32501  43.817  29.984   0.926
73065W        W32502   7.679  41.010   2.774
73066W        W32503   4.919   3.324   3.846
73067W        W32504  34.997  38.020   4.212
73068W        W32505  18.752  12.242   4.785
73069W        W32506   2.946  15.689  12.887
73070W        W32507   7.708  37.012  10.428
73071W        W32508  15.736   0.936   2.902
73072W        W32509  44.385  32.066  13.312
73073W        W32510  41.843  15.096   1.414
73074W        W32511  42.342  41.955   1.723
73075W        W32512   9.831  24.038  14.790
73076W        W32513   7.404  13.708   0.769
73077W        W32514   4.771   4.858   3.726
73078W        W32515  15.754  42.969  10.957
73079W        W32516   4.236  13.775   3.293
73080W        W32517  32.478  12.213  12.926
73081W        W32518   2.421  37.381  13.992
73082W        W32519  31.130  12.319  12.871
73083W        W32520   2.445  28.609  14.508
73084W        W32521   6.335   8.347   0.831
73085W        W32522  21.220  44.447   2.334
73086W        W32523  37.541  24.558   1.785
73087W        W32524  35.882   3.294  14.397
73088W        W32525  44.381  35.076  11.036
73089W        W32526  24.598  32.993   2.222
73090W        W32527   5.781  39.524  14.964
73091W        W32528  41.017  22.103   1.432
73092W        W32529   7.226  31.141   0.884
73093W        W32530  29.561   8.348   0.869
73094W        W32531  40.926  18.294  11.530
73095W        W32532  41.454  22.099   3.344
73096W        W32533   9.320  15.689  13.437
73097W        W32534  36.026   9.676  13.999
73098W        W32535  26.567  25.696  10.931
73099W        W32536  34.506  22.042  10.063
73100W        W32537   2.851  40.433   0.279
73101W        W32538  30.157   9.334  12.981
73102W        W32539   0.923  27.499   1.233
73103W        W32540  19.242  34.562  12.852
73104W        W32541  26.551  35.020  12.409
73105W        W32542  36.380   8.857   0.818
73106W        W32543  23.581  38.524  11.606
73107W        W32544  30.932  44.499  13.361
73108W        W32545  41.789  38.892   0.410
73109W        W32546  28.553   0.748   3.210
73110W        W32547  41.866  20.266   2.220
73111W        W32548  36.406  32.953  12.922
73112W        W32549   4.275   6.799   1.765
73113W        W32550  12.305   2.957   1.757
73114W        W32551  14.257  11.808   3.859
73115W        W32552  18.637  37.978  12.826
73116W        W32553  25.485  44.853  14.992
73117W        W32554  23.727   4.871   2.664
73118W        W32555  11.293  36.537  12.082
73119W        W32556  19.203  44.408   1.892
73120W        W32557   6.860   2.377  14.927
73121W        W32558  20.066  38.838   1.697
73122W        W32559  12.659  35.044  11.375
73123W        W32560  18.196  17.128  13.963
73124W        W32561   9.156   9.802  14.883
73125W        W32562  29.973  30.423  10.497
73126W        W32563   4.763   1.282  13.812
73127W        W32564  22.125  42.460   4.713
73128W        W32565  17.091  18.258   4.744
73129W        W32566  19.760  18.599   0.779
73130W        W32567   8.403  41.012   4.690
73131W        W32568  28.040   2.794   2.387
73132W        W32569  36.576  35.492   2.896
73133W        W32570  43.398  32.506   4.141
73134W        W32571   6.415   8.727   0.460
73135W        W32572  15.242  38.355   3.782
73136W        W32573  19.605  34.525  12.979
73137W        W32574  36.963  17.159   4.137
73138W        W32575   4.376   0.300  12.908
73139W        W32576  24.123  42.504   4.782
73140W        W32577   5.319  16.174  10.976
73141W        W32578  32.928  28.185   2.716
73142W        W32579   4.263  14.789   4.187
73143W        W32580   4.785  24.700  11.950
73144W        W32581  18.655  10.860  10.639
73145W        W32582  40.453  18.711   0.442
73146W        W32583  40.039  38.327   3.317
73147W        W32584  11.254  18.200  11.523
73148W        W32585   4.321   7.256  10.498
73149W        W32586  29.138  18.167  12.872
73150W        W32587  28.563  15.323   4.778
73151W        W32588   0.980   3.375  13.881
73152W        W32589  33.495  22.671  12.898
73153W        W32590  35.460  20.247  12.543
73154W        W32591  32.034  21.188   4.223
73155W        W32592  39.025  24.048  10.428
73156W        W32593  22.017  14.234   1.296
73157W        W32594  41.351  31.978  13.970
73158W        W32595   8.703  35.089  11.092
73159W        W32596  37.422  14.604  12.880
73160W        W32597  26.697   7.361   0.946
73161W        W32598   6.309  19.577   2.868
73162W        W32599  10.661  41.790  14.409
73163W        W32600  42.428  30.420  12.979
73164W        W32601  26.008  12.813   0.243
73165W        W32602   2.259   7.907  11.890
73166W        W32603   1.327  12.757  11.086
73167W        W32604  32.551  24.225  14.485
73168W        W32605  34.913  20.058   2.750
73169W        W32606  32.912  28.541   4.161
73170W        W32607   6.380  19.550   0.843
73171W        W32608  11.184  17.148   3.810
73172W        W32609  11.657  21.047   4.154
73173W        W32610   6.339  11.629  13.905
73174W        W32611  29.433  37.888  10.599
73175W        W32612  31.082  20.273   9.934
73176W        W32613   4.233  20.685  12.058
73177W        W32614  30.126  34.533   4.312
73178W        W32615  27.111   9.644   0.484
73179W        W32616  29.102  28.658   3.197
73180W        W32617  36.059  16.666  12.503
73181W        W32618  27.967  31.644   4.197
73182W        W32619  20.657  12.717   3.755
73183W        W32620  43.932  21.062  10.036
73184W        W32621  11.786  17.777  11.949
73185W        W32622  39.918  39.975  11.376
73186W        W32623  38.382  29.933  10.467
73187W        W32624  29.140  21.144   3.313
73188W        W32625  12.189   0.286  14.808
73189W        W32626  18.615  42.952   4.248
73190W        W32627  36.457   6.851  11.372
73191W        W32628  28.079   7.348  14.930
73192W        W32629  28.159  15.684   3.234
73193W        W32630  36.469  37.533  14.845
73194W        W32631  42.393  32.515   0.744
73195W        W32632  21.562   8.731  13.457
73196W        W32633  31.554   4.312  11.969
73197W        W32634  12.353  13.148   4.661
73198W        W32635  26.043  23.532   3.324
73199W        W32636  21.052   7.900   3.824
73200W        W32637  12.825  15.094   3.650
73201W        W32638  30.048  16.738   4.761
73202W        W32639  14.194  22.171  10.125
73203W        W32640  36.007  40.433  13.490
73204W        W32641  12.725  33.041  12.872
73205W        W32642  16.209   1.336  13.064
73206W        W32643  21.027  15.646   2.220
73207W        W32644  20.265  19.712   1.774
73208W        W32645  24.686  40.313  12.064
73209W        W32646  17.642  44.937  14.327
73210W        W32647  26.635  36.503   3.817
73211W        W32648  44.918  12.755  14.024
73212W        W32649  38.366  33.934   4.239
73213W        W32650  15.253  40.845  13.542
73214W        W32651  18.606  43.977   1.318
73215W        W32652  25.503  18.582  14.002
73216W        W32653  30.077  34.103  12.852
73217W        W32654  10.724  39.975  14.473
73218W        W32655  18.609   9.169  13.443
73219W        W32656   4.824  38.455  12.087
73220W        W32657   2.271  27.685   9.647
73221W        W32658  33.575  14.615   4.210
73222W        W32659   6.272  15.322   1.255
73223W        W32660   0.453  30.631   1.933
73224W        W32661  29.109   8.381   0.825
73225W        W32662  26.094  32.119  14.767
73226W        W32663  35.016  21.090  14.900
73227W        W32664  11.746   6.710  12.083
73228W        W32665  43.779  11.349   2.212
73229W        W32666  22.703   5.821  10.554
73230W        W32667  38.058  24.199   3.768
73231W        W32668   2.351   7.827   3.356
73232W        W32669  12.286   0.311   3.314
73233W        W32670  36.410  25.527   4.711
73234W        W32671  16.765  21.069   3.183
73235W        W32672  23.500  12.149  14.459
73236W        W32673  14.591   5.199   2.276
73237W        W32674   7.221   3.907  12.545
73238W        W32675  23.210  34.592   2.331
73239W        W32676  19.048  18.739   0.248
73240W        W32677  28.116   0.312   2.238
73241W        W32678   7.725  34.427  13.927
73242W        W32679  36.934  43.438  14.916
73243W        W32680  17.802  28.095   2.831
73244W        W32681  29.514   7.724  10.638
73245W        W32682  34.888  23.501   2.735
73246W        W32683  38.833  12.186   1.897
73247W        W32684  25.474  37.531  10.144
73248W        W32685  21.680  18.632   0.733
73249W        W32686   4.299   0.895   0.923
73250W        W32687  25.505  13.106   4.258
73251W        W32688  37.026  37.929  13.349
73252W        W32689  30.986  16.725   3.234
73253W        W32690  28.464   2.931   3.294
73254W        W32691  20.030  17.072   3.375
73255W        W32692  26.952  27.675  12.540
73256W        W32693  17.129  31.121  12.986
73257W        W32694  40.938  32.561   3.845
73258W        W32695   6.386   8.737   0.789
73259W        W32696  31.032  26.154  10.153
73260W        W32697  15.321  10.147   2.673
73261W        W32698   4.448  19.775  11.596
73262W        W32699  24.533  18.754  13.534
73263W        W32700   4.727  30.573   5.309
73264W        W32701   1.740  38.473   1.381
73265W        W32702   6.214  38.406   1.433
73266W        W32703   1.263  37.845   2.694
73267W        W32704  12.727  35.486  13.863
73268W        W32705   7.736   6.301   2.694
73269W        W32706  25.672   5.325  12.551
73270W        W32707  42.302   7.360   1.249
73271W        W32708  17.097   2.868  12.961
73272W        W32709   4.909  37.426  14.876
73273W        W32710  24.715  42.873   2.253
73274W        W32711  28.017  10.356   0.283
73275W        W32712  29.640  13.300  14.868
73276W        W32713  36.917  35.891  11.017
73277W        W32714  37.525  35.974  13.521
73278W        W32715   1.832  37.987   3.165
73279W        W32716  39.488  42.002  10.462
73280W        W32717  37.563  42.016   1.796
73281W        W32718   6.187  27.526   4.777
73282W        W32719   4.782  17.660  11.961
73283W        W32720   5.429  40.035  13.466
73284W        W32721  15.696  22.666  13.921
73285W        W32722  27.176   0.353   2.849
73286W        W32723  23.707  16.153  13.335
73287W        W32724  11.348  14.125   5.084
73288W        W32725   3.819  29.153   0.271
73289W        W32726  26.695   9.224  12.077
73290W        W32727  24.626  34.074   4.670
73291W        W32728   2.727  16.737   0.947
73292W        W32729   4.843  32.990  11.608
73293W        W32730  17.669   6.717   3.333
73294W        W32731  24.028  31.942  13.479
73295W        W32732  10.741  23.730   3.274
73296W        W32733   2.337  31.448   0.871
73297W        W32734   2.849  18.687   3.299
73298W        W32735   2.744  27.076   4.635
73299W        W32736  43.004  27.954  10.983
73300W        W32737   8.402  44.883  10.471
73301W        W32738   5.339   6.293  13.899
73302W        W32739   7.334  36.449   0.929
73303W        W32740  13.683  20.218  10.472
73304W        W32741  20.692  18.061  12.483
73305W        W32742  31.497  35.550  11.874
73306W        W32743  36.532  15.717  11.116
73307W        W32744   0.973  41.899  12.866
73308W        W32745  19.265  35.053  13.313
73309W        W32746  19.273  28.625  12.017
73310W        W32747  18.724  12.340  14.901
73311W        W32748  28.628  37.382  13.356
73312W        W32749  24.663  18.595   3.848
73313W        W32750  24.175  18.574   3.230
73314W        W32751  27.651  28.465   1.386
73315W        W32752  37.529  17.227   2.701
73316W        W32753  34.896  21.125   4.641
73317W        W32754  44.847  41.310  13.482
73318W        W32755   7.696  26.028   3.765
73319W        W32756  28.953  42.972  14.917
73320W        W32757   3.313   1.861   1.811
73321W        W32758  21.572   8.295  14.369
73322W        W32759   7.297  23.082   0.452
73323W        W32760   5.887  10.656   1.921
73324W        W32761   2.355  35.386   4.634
73325W        W32762   9.190  27.157   5.788
73326W        W32763  42.426  32.523  10.556
73327W        W32764  44.312  36.075  11.476
73328W        W32765  11.260  43.358  13.472
73329W        W32766  40.544  32.466  11.905
73330W        W32767  31.114  10.698   3.844
73331W        W32768  44.406  30.467   9.951
73332W        W32769  28.463  29.922   1.407
73333W        W32770  16.110  38.907  12.951
73334W        W32771  10.839  28.956  14.789
73335W        W32772  15.222  32.979  13.490
73336W        W32773   3.251  16.629  13.000
73337W        W32774  27.062  34.507   1.852
73338W        W32775  40.508  29.541   5.198
73339W        W32776  15.103  44.418   0.333
73340W        W32777  10.650  11.716  10.073
73341W        W32778   0.758  15.669  12.928
73342W        W32779  31.504  16.250   2.724
73343W        W32780   2.344  33.575   1.437
73344W        W32781  40.925  29.017  14.313
73345W        W32782  35.582  26.471   1.915
73346W        W32783  30.044  29.944   1.906
73347W        W32784  15.153  14.647  14.946
73348W        W32785   1.740   7.361   2.665
73349W        W32786  11.175  11.770  14.276
73350W        W32787  24.642  37.375  12.942
73351W        W32788  20.694   4.905   4.831
73352W        W32789  38.560  24.508  12.509
73353W        W32790   0.926  30.496  12.887
73354W        W32791  41.391  27.589  14.032
73355W        W32792   0.432  15.759  14.975
73356W        W32793  13.117   2.798  14.339
73357W        W32794  30.031  33.108   2.802
73358W        W32795  29.948  24.601   1.241
73359W        W32796  40.992   1.926  11.487
73360W        W32797  17.558  30.113  12.429
73361W        W32798   4.274  35.868   4.234
73362W        W32799  28.034   7.811   3.159
73363W        W32800   1.372  41.403  12.537
73364W        W32801  10.680   1.949  13.042
73365W        W32802  32.044  22.663   2.352
73366W        W32803  17.201  14.325  11.908
73367W        W32804  36.900  31.152  12.371
73368W        W32805  32.454   9.266   4.300
73369W        W32806  26.075  11.702  11.887
73370W        W32807  18.547  38.865  10.966
73371W        W32808  22.237  18.116   1.410
73372W        W32809  34.403  22.024   3.271
73373W        W32810  20.766  21.594   0.953
73374W        W32811  40.021  26.101  12.020
73375W        W32812  20.186  23.514   2.350
73376W        W32813  25.661  41.392  10.139
73377W        W32814  32.611  34.444   2.724
73378W        W32815  32.098  16.569   2.766
73379W        W32816  36.481  15.672   0.849
73380W        W32817  34.966  32.072   1.262
73381W        W32818  26.557  23.664   0.478
73382W        W32819  41.040  37.017  14.783
73383W        W32820  18.291   8.267  14.837
73384W        W32821   3.318  29.541  13.923
73385W        W32822  35.006  15.605  11.899
73386W        W32823  28.441  22.598   3.288
73387W        W32824   6.310  22.075  10.918
73388W        W32825   1.257   9.208  13.517
73389W        W32826  10.830   8.750  12.861
73390W        W32827  38.334  14.183   1.210
73391W        W32828   0.828  31.960   1.924
73392W        W32829  18.217   3.837   2.275
73393W        W32830  41.494  30.441  14.864
73394W        W32831  29.650  32.603  12.929
73395W        W32832   8.371  31.631  14.436
73396W        W32833  34.560  22.134   5.319
73397W        W32834  32.573   1.862  12.911
73398W        W32835  19.775  35.523  13.996
73399W        W32836   2.814  29.605  13.349
73400W        W32837   2.861  30.003   2.713
73401W        W32838  21.564   3.927  12.541
73402W        W32839  38.024  33.090  13.945
73403W        W32840  22.207  17.739   0.927
73404W        W32841   1.353  34.974  13.479
73405W        W32842   6.271  38.341  13.478
73406W        W32843  38.370   1.330  14.765
73407W        W32844  37.898  25.181   3.220
73408W        W32845   2.945  32.116   0.836
73409W        W32846  14.307  44.273  14.434
73410W        W32847  33.884  28.985   3.163
73411W        W32848  29.523   9.848   0.457
73412W        W32849  40.487  13.343   2.844
73413W        W32850  44.885  13.110  12.548
73414W        W32851  34.038   6.804  11.044
73415W        W32852  38.349   8.165   4.625
73416W        W32853  24.622   6.786  14.921
73417W        W32854  12.141   1.923  12.522
73418W        W32855  25.479  17.694  14.354
73419W        W32856  34.599   8.654  12.881
73420W        W32857  38.974  29.150  13.799
73421W        W32858  25.517   4.326  13.950
73422W        W32859  24.219  18.269  14.457
73423W        W32860  43.409  14.162   4.275
73424W        W32861  39.030  39.016   3.821
73425W        W32862  28.564  13.656  10.942
73426W        W32863  43.383  38.961  14.388
73427W        W32864  41.035  39.559   0.372
73428W        W32865  20.062  41.314  10.997
73429W        W32866  29.952  21.610   9.545
73430W        W32867  24.643  44.832   3.205
73431W        W32868  23.177  19.225   0.901
73432W        W32869   8.759  26.504  11.930
73433W        W32870  27.623  27.079   2.715
73434W        W32871   8.261   3.289  10.542
73435W        W32872  43.463  24.557  11.124
73436W        W32873  24.146  23.058   9.939
73437W        W32874  38.555  23.670   4.828
73438W        W32875  31.575   5.260   2.228
73439W        W32876   2.315   2.763   2.784
73440W        W32877   3.808  11.254  12.908
73441W        W32878  13.187  18.149   1.355
73442W        W32879  38.344   2.472   3.186
73443W        W32880  27.111  42.797   1.444
73444W        W32881   5.426  14.777  12.389
73445W        W32882   1.856  26.522   4.623
73446W        W32883  25.180  32.428   3.694
73447W        W32884  18.662  18.616   3.271
73448W        W32885  42.948  14.700  10.502
73449W        W32886  42.855  43.473   0.332
73450W        W32887  26.135  40.799   5.147
73451W        W32888  26.088  44.761  12.492
73452W        W32889  20.581  39.974  13.392
73453W        W32890  35.944  17.760  13.848
73454W        W32891  14.649  18.126  10.539
73455W        W32892  10.700  19.689  12.089
73456W        W32893  11.143  14.701  11.410
73457W        W32894  40.316  34.977   2.247
73458W        W32895  21.526   7.356  13.516
73459W        W32896   8.197   7.391   3.265
73460W        W32897   6.287  32.624  13.485
73461W        W32898  18.278  34.930  12.980
73462W        W32899  43.942  28.993   3.203
73463W        W32900  28.573  28.015   3.818
73464W        W32901  15.141  36.380  11.521
73465W        W32902  28.509   1.335   4.786
73466W        W32903  29.539   3.356  12.942
73467W        W32904  41.333  15.778  11.070
73468W        W32905  30.506  44.816   0.968
73469W        W32906  27.089  26.190   4.242
73470W        W32907  13.779   4.436  14.279
73471W        W32908  13.720  30.941   4.754
73472W        W32909  19.168   4.439   4.238
73473W        W32910   6.372   5.933   2.346
73474W        W32911  17.686  24.204   0.811
73475W        W32912   4.380   4.309   3.632
73476W        W32913  23.130  36.542   3.293
73477W        W32914  20.063   1.757  11.383
73478W        W32915  27.463  14.150   0.462
73479W        W32916  35.915   9.182   1.903
73480W        W32917  13.227  17.268  14.998
73481W        W32918  25.578   0.460  11.962
73482W        W32919  10.271  19.063  14.916
73483W        W32920  14.740  33.065  13.909
73484W        W32921  16.605  28.463  13.421
73485W        W32922  35.106  13.737   1.820
73486W        W32923   6.194  39.476  13.969
73487W        W32924  36.069  35.395   2.359
73488W        W32925  12.166   6.754   4.753
73489W        W32926   9.656  37.957   3.182
73490W        W32927   9.340  13.194   0.842
73491W        W32928  15.193   9.647  14.993
73492W        W32929  27.969  31.995   0.852
73493W        W32930  23.545   4.741  10.967
73494W        W32931  25.043  41.788  12.570
73495W        W32932   5.823  11.793  14.433
73496W        W32933   9.236   3.834   0.392
73497W        W32934  26.632  20.120   3.837
73498W        W32935   7.333  23.157   2.771
73499W        W32936  32.600  31.968  12.030
73500W        W32937  41.788   0.750   1.431
73501W        W32938  33.095  12.141   0.924
73502W        W32939  12.201  31.108   0.432
73503W        W32940   2.751  43.966  12.493
73504W        W32941  14.604  25.032  12.883
73505W        W32942  21.727  25.631  14.503
73506W        W32943  14.650   5.702  13.519
73507W        W32944  30.607  28.181  14.968
73508W        W32945  26.190  41.909   1.727
73509W        W32946  19.612   3.765   0.263
73510W        W32947  19.211  36.897   2.814
73511W        W32948   4.796  23.079  12.528
73512W        W32949  22.154   1.914   2.703
73513W        W32950   3.282  39.985   2.209
73514W        W32951   1.468  27.596  11.419
73515W        W32952  36.970   1.912   1.721
73516W        W32953  17.746  36.348  10.930
73517W        W32954  25.541  44.296  11.496
73518W        W32955  27.601  37.481  14.813
73519W        W32956  41.374  15.720   1.242
73520W        W32957  13.350   1.760   2.399
73521W        W32958   9.797  12.162  13.054
73522W        W32959  33.905   8.890  11.501
73523W        W32960  10.248   7.854   0.750
73524W        W32961  20.632  13.298   3.666
73525W        W32962  19.213  14.718  13.837
73526W        W32963  10.258  26.620   3.870
73527W        W32964  40.983  11.823   1.402
73528W        W32965  14.795  39.337   5.273
73529W        W32966  14.616  10.212   2.800
73530W        W32967  41.931  32.991  13.418
73531W        W32968  15.777  14.272  13.933
73532W        W32969  22.189  40.498  12.460
73533W        W32970  34.476  11.256  14.958
73534W        W32971  13.185  43.464  14.405
73535W        W32972  39.912   8.701   4.652
73536W        W32973  18.066  41.351  14.350
73537W        W32974  28.517   0.955   4.635
73538W        W32975  13.754  38.859   4.190
73539W        W32976  17.184   8.318  13.056
73540W        W32977   5.730  40.029  14.864
73541W        W32978  13.282  22.633  11.584
73542W        W32979  28.999  44.388  12.477
73543W        W32980   9.180   1.279   0.804
73544W        W32981  22.247  40.436   4.194
73545W        W32982  14.247  37.446  14.896
73546W        W32983  41.804  22.505   4.307
73547W        W32984  30.054   9.309  12.069
73548W        W32985  22.677   6.295   0.435
73549W        W32986   2.356   0.310   0.386
73550W        W32987  20.229  43.416  14.470
73551W        W32988  34.588  10.375   4.310
73552W        W32989  13.818  42.862  14.484
73553W        W32990   0.345   9.236   0.422
73554W        W32991  18.120  39.975   1.899
73555W        W32992  34.511  18.087   4.762
73556W        W32993  35.561  38.982  11.398
73557W        W32994   5.906  43.503  13.004
73558W        W32995  13.770  40.848   5.204
73559W        W32996  15.748  32.042   0.746
73560W        W32997  43.438  41.351   2.821
73561W        W32998  13.193  31.603  10.620
73562W        W32999   9.819  23.069   2.803
73563W        W33000  26.024  41.002  10.105
73564W        W33001  37.949   4.420  11.441
73565W        W33002   4.391  16.206   9.923
73566W        W33003  22.149   4.889   3.216
73567W        W33004  11.355  38.350  11.386
73568W        W33005  12.611   4.365   1.270
73569W        W33006  10.868  44.374   2.819
73570W        W33007  19.669  37.450   0.878
73571W        W33008  14.193  39.406   5.700
73572W        W33009  24.129  24.684   1.312
73573W        W33010  12.237  43.328   2.792
73574W        W33011   8.314  40.035   4.694
73575W        W33012  24.659   0.806   1.900
73576W        W33013  35.442   7.882   3.697
73577W        W33014  19.588  40.345   4.296
73578W        W33015  13.753  36.017   3.282
73579W        W33016  14.224  14.280  13.842
73580W        W33017  35.040   9.801   4.209
73581W        W33018  29.099  33.997   2.372
73582W        W33019  24.537  42.280   1.724
73583W        W33020   0.877  31.934  14.399
73584W        W33021  20.251   9.674  13.899
73585W        W33022  25.095  36.846   5.615
73586W        W33023   8.756   9.269   4.718
73587W        W33024  22.546   7.775  12.037
73588W        W33025   5.705   0.325  13.841
73589W        W33026  21.061  27.627   0.472
73590W        W33027  33.560  17.616  13.342
73591W        W33028  42.002  29.949  10.931
73592W        W33029  29.551   2.251  13.496
73593W        W33030   0.291  22.015   3.664
73594W        W33031   6.857   2.949   0.952
73595W        W33032   4.280  15.694  10.602
73596W        W33033  18.113  15.141  13.796
73597W        W33034  36.354   4.867  12.578
73598W        W33035  38.039   7.326   3.871
73599W        W33036  35.473   9.294   0.332
73600W        W33037  41.814   4.256   0.479
73601W        W33038  31.437  44.353   4.191
73602W        W33039  16.107  18.787   3.835
73603W        W33040  30.959  36.028  13.801
73604W        W33041  17.690  30.157  13.410
73605W        W33042  10.752   9.724  13.978
73606W        W33043   5.748   6.772   3.184
73607W        W33044   8.853   0.256   3.706
73608W        W33045  11.268  31.449   4.155
73609W        W33046  13.283  16.808  12.038
73610W        W33047  31.483  38.383   2.206
73611W        W33048  43.439   7.282   1.895
73612W        W33049  41.520  11.305   0.352
73613W        W33050  19.717  10.711   3.322
73614W        W33051  44.834  19.651  12.862
73615W        W33052   6.922  39.453   0.431
73616W        W33053  17.705  26.630   5.136
73617W        W33054  29.615  28.557   3.851
73618W        W33055   5.241  29.967  11.125
73619W        W33056   7.232  23.578  10.030
73620W        W33057  44.489  19.117  13.451
73621W        W33058   3.883  19.598   5.269
73622W        W33059   3.344  28.510   3.662
73623W        W33060  26.615  38.865  13.052
73624W        W33061  34.511   1.848   0.943
73625W        W33062  30.539  35.588   2.341
73626W        W33063  43.862  38.053  14.293
73627W        W33064   2.888  28.007  12.994
73628W        W33065   6.395   9.172  12.450
73629W        W33066  38.952  43.863   0.450
73630W        W33067  10.138  29.452   3.752
73631W        W33068  30.951  24.521   1.336
73632W        W33069   7.398   1.396   0.270
73633W        W33070  35.946  38.865   5.242
73634W        W33071  35.942  21.085   4.254
73635W        W33072  13.204   3.954   3.239
73636W        W33073  40.970  35.362   9.563
73637W        W33074   9.853  12.297  10.487
73638W        W33075   1.474  30.148  14.788
73639W        W33076  35.895  10.855  13.337
73640W        W33077  26.615  16.094  12.522
73641W        W33078   5.814  43.766   3.349
73642W        W33079   3.760  20.755  10.937
73643W        W33080  26.962   2.726  14.868
73644W        W33081  44.461  28.041  14.350
73645W        W33082  33.457  29.505  11.583
73646W        W33083  19.705  28.127   2.382
73647W        W33084  26.504  32.468   3.675
73648W        W33085  38.048   8.812  11.527
73649W        W33086   2.882  17.699  13.520
73650W        W33087  42.918   6.199  10.630
73651W        W33088  14.146  25.468  14.834
73652W        W33089  29.479  26.980   0.375
73653W        W33090  38.924  41.996   4.295
73654W        W33091  40.994  14.220   1.852
73655W        W33092  25.588  27.979  10.640
73656W        W33093   1.481  16.751  11.958
73657W        W33094  33.409  28.019  14.913
73658W        W33095  39.482  39.809   2.213
73659W        W33096   4.293  31.017  14.394
73660W        W33097  17.679  42.792  13.824
73661W        W33098  12.732  25.579  10.621
73662W        W33099  31.583   8.775   3.178
73663W        W33100  39.478  34.491  14.451
73664W        W33101  29.543  27.970   3.273
73665W        W33102  21.075  43.818  14.413
73666W        W33103   3.916  33.885  13.809
73667W        W33104  37.410  21.659   2.723
73668W        W33105  35.385  17.167   4.599
73669W        W33106   0.437  41.951  13.928
73670W        W33107   7.383  31.126  10.962
73671W        W33108  40.033   0.981   1.845
73672W        W33109   7.832  31.076   3.781
73673W        W33110  31.143  13.706   4.294
73674W        W33111   9.858  13.640   2.206
73675W        W33112  20.572  12.668   0.932
73676W        W33113   3.368  27.458   3.238
73677W        W33114   8.731   2.824   4.621
73678W        W33115  29.460  43.403   0.389
73679W        W33116  32.551   6.417  11.550
73680W        W33117  36.519  21.065  10.050
73681W        W33118  25.700  28.534  13.805
73682W        W33119  23.510   5.802  12.090
73683W        W33120   8.769   2.381  11.610
73684W        W33121  21.094  42.419  11.952
73685W        W33122  18.215  19.113  12.970
73686W        W33123  42.495  35.007  12.063
73687W        W33124  26.500  23.067   2.697
73688W        W33125  10.686  24.976  11.067
73689W        W33126  22.170  14.301  11.018
73690W        W33127   8.733  42.930  12.506
73691W        W33128  35.599   3.347  12.826
73692W        W33129  34.612  44.447   3.659
73693W        W33130   6.907  22.082   3.224
73694W        W33131   6.360   4.413  11.920
73695W        W33132  12.686  26.469  11.062
73696W        W33133   0.397  28.590   0.425
73697W        W33134  19.779  40.978   3.811
73698W        W33135  13.762  43.942   0.278
73699W        W33136  22.667  34.387  12.404
73700W        W33137  25.140   0.951  13.981
73701W        W33138   9.740  20.585  14.949
73702W        W33139  36.871  14.733   3.377
73703W        W33140  20.563  19.661  13.029
73704W        W33141  21.080   3.360   1.835
73705W        W33142   8.203  34.889  13.810
73706W        W33143  41.357  32.928   4.121
73707W        W33144   1.761  11.234  10.900
73708W        W33145  37.064  27.197  11.582
73709W        W33146  24.125   1.847  13.034
73710W        W33147   9.270  13.124   2.901
73711W        W33148  15.609  29.943  12.557
73712W        W33149  32.893  13.787  11.030
73713W        W33150  12.729  31.150  12.374
73714W        W33151  13.346   2.870  10.620
73715W        W33152  26.070  34.037  13.062
73716W        W33153  11.851  42.405   4.759
73717W        W33154  43.326  26.110  12.366
73718W        W33155  30.916   3.396  12.028
73719W        W33156  22.025  27.577   1.236
73720W        W33157  43.476  30.028  11.026
73721W        W33158  31.983  13.841   2.870
73722W        W33159  31.063  24.060   4.818
73723W        W33160  35.990  31.488  13.360
73724W        W33161  20.640  32.010  10.005
73725W        W33162  39.548  32.092   9.924
73726W        W33163  37.071   1.949  14.940
73727W        W33164  38.907  32.932   0.272
73728W        W33165  22.709  41.526   0.958
73729W        W33166  31.970  29.546  11.990
73730W        W33167  29.566   4.447  14.949
73731W        W33168  25.985  27.090   1.873
73732W        W33169  43.437  28.098   1.389
73733W        W33170  33.037  33.615   1.323
73734W        W33171  25.178  20.662   2.258
73735W        W33172  17.684   9.851  13.435
73736W        W33173  20.144  10.271  12.840
73737W        W33174  17.122   5.384  14.832
73738W        W33175  32.545  36.068  14.821
73739W        W33176  41.513  18.173   2.825
73740W        W33177  28.590  31.023  14.919
73741W        W33178  38.526   0.772   1.876
73742W        W33179  32.967   5.312   0.460
73743W        W33180   3.259  36.381  11.064
73744W        W33181  14.337  17.153  12.978
73745W        W33182   0.486   6.363  13.792
73746W        W33183  41.512  12.734  12.513
73747W        W33184  28.003  19.134   3.270
73748W        W33185   8.204  24.062   3.729
73749W        W33186   0.285  32.426   3.743
73750W        W33187  35.570  10.175   2.244
73751W        W33188   9.890  40.938  12.531
73752W        W33189  27.453  27.999   3.317
73753W        W33190  41.903  42.776  14.302
73754W        W33191  43.510   8.739  11.123
73755W        W33192  18.056  31.152  11.498
73756W        W33193   2.338   9.151  10.950
73757W        W33194   5.242  15.122  10.550
73758W        W33195  33.586  43.333  13.437
73759W        W33196  23.549   6.245  14.820
73760W        W33197  28.647  28.499   1.713
73761W        W33198  40.835  21.108   0.337
73762W        W33199   8.738  21.112   3.338
73763W        W33200  16.744  21.140  13.871
73764W        W33201  35.417  36.921   1.386
73765W        W33202  27.450  27.965  12.417
73766W        W33203  33.989  37.569  13.538
73767W        W33204  36.935  24.207   3.363
73768W        W33205  33.586  13.765  13.880
73769W        W33206  19.673   5.439   1.340
73770W        W33207  19.123  19.768  12.502
73771W        W33208  37.841  14.223  10.971
73772W        W33209   8.316  29.051   4.710
73773W        W33210  35.494  31.540  11.982
73774W        W33211  29.485  34.613   1.909
73775W        W33212  44.821   2.954   1.772
73776W        W33213   0.292  17.752   0.796
73777W        W33214  14.820  28.639   0.806
73778W        W33215   3.418  15.728   1.714
73779W        W33216  11.652  21.756  13.520
73780W        W33217  28.014  14.196  12.896
73781W        W33218  23.015  16.183  14.381
73782W        W33219   9.350  18.198   1.809
73783W        W33220   0.812  16.627   0.764
73784W        W33221  11.737  16.169   0.755
73785W        W33222  26.556  36.991  12.386
73786W        W33223   7.203  21.129  12.541
73787W        W33224  41.945   3.317   1.337
73788W        W33225  10.842  22.569  11.030
73789W        W33226  30.046   7.276   1.299
73790W        W33227  44.386   2.458  12.376
73791W        W33228   7.339  18.238   3.778
73792W        W33229  24.630   5.199  11.374
73793W        W33230  35.596  27.453   2.670
73794W        W33231   7.273   0.915  12.946
73795W        W33232  24.481   1.788  13.025
73796W        W33233   3.745  12.848   5.223
73797W        W33234   7.779  38.501  14.481
73798W        W33235   8.825  31.958   2.891
73799W        W33236  16.677  18.564   2.725
73800W        W33237  18.289  44.818   0.949
73801W        W33238  13.120   8.839  11.904
73802W        W33239   0.802  44.815   4.607
73803W        W33240  34.026  22.186   1.698
73804W        W33241   2.265   7.866  13.334
73805W        W33242  16.318   1.326   4.139
73806W        W33243  20.634  15.313  14.842
73807W        W33244  35.948  18.561  11.126
73808W        W33245   9.158  16.755   4.232
73809W        W33246  32.475  24.529   2.731
73810W        W33247  26.594  25.663   4.823
73811W        W33248   4.719  11.849   1.328
73812W        W33249   6.754  21.622  11.044
73813W        W33250  19.771   2.402   2.688
73814W        W33251  25.604  31.097  11.046
73815W        W33252  10.801  41.872   3.368
73816W        W33253  18.723   2.334  14.353
73817W        W33254  22.204  18.187  12.408
73818W        W33255  33.076  36.918   4.228
73819W        W33256  21.108  25.219  13.370
73820W        W33257  24.001   6.373  10.016
73821W        W33258  39.816   6.421  13.527
73822W        W33259  27.053   3.791  11.994
73823W        W33260  39.912  40.883   3.770
73824W        W33261  30.589  27.966   4.768
73825W        W33262  21.539  29.074   3.652
73826W        W33263  40.985   3.452  12.425
73827W        W33264  23.619  12.236  14.836
73828W        W33265  42.304  34.911  11.456
73829W        W33266  41.887   9.178  12.365
73830W        W33267  32.049  14.626   4.194
73831W        W33268  20.528  42.965   1.765
73832W        W33269  27.050   2.754  10.627
73833W        W33270  39.943  34.939   3.263
73834W        W33271  19.605  15.150  11.910
73835W        W33272  40.350   0.815   5.127
73836W        W33273  16.216  39.032  13.382
73837W        W33274  29.556  19.538   1.235
73838W        W33275   9.154  11.202  12.387
73839W        W33276  40.377  43.900  11.609
73840W        W33277   9.781  40.025   3.766
73841W        W33278  21.185   9.243  11.012
73842W        W33279  44.389  13.145   3.318
73843W        W33280   2.925  23.691  12.898
73844W        W33281  26.119  24.492   0.811
73845W        W33282  25.471  26.463   1.305
73846W        W33283  34.969  15.116  13.969
73847W        W33284  19.286   1.744   0.892
73848W        W33285   7.239  31.957   2.681
73849W        W33286   9.360  22.121   0.395
73850W        W33287  30.984  44.498  11.457
73851W        W33288  16.147  39.973   2.774
73852W        W33289  37.957  38.918   0.278
73853W        W33290  36.097   9.274  13.057
73854W        W33291  29.441   9.269  13.519
73855W        W33292  38.821   3.333  10.068
73856W        W33293  44.469   2.885  11.473
73857W        W33294  42.525  37.014   3.189
73858W        W33295  42.358  14.203   0.312
73859W        W33296   0.771  22.634  13.446
73860W        W33297  39.973  35.896  14.395
73861W        W33298  35.402  31.123  13.976
73862W        W33299  34.427  26.209   0.794
73863W        W33300  35.956  19.189   1.401
73864W        W33301  39.381   8.228   0.813
73865W        W33302   4.797   4.762  14.283
73866W        W33303  16.298   0.858   4.286
73867W        W33304  38.519  21.524  14.372
73868W        W33305  24.569   6.401   2.701
73869W        W33306  25.980   2.244  12.050
73870W        W33307  34.934  37.476  11.470
73871W        W33308   1.873  26.656   3.199
73872W        W33309  25.584   3.283  12.888
73873W        W33310  27.498  17.194  10.450
73874W        W33311  14.168  25.510   3.329
73875W        W33312  14.116  36.897  13.061
73876W        W33313  42.340  22.221   2.705
73877W        W33314   9.849  17.307   1.779
73878W        W33315  24.696   6.222  13.368
73879W        W33316  42.302  37.864  11.392
73880W        W33317   3.725  27.137   4.766
73881W        W33318  37.466  24.220  13.434
73882W        W33319   2.910  26.141  14.470
73883W        W33320  11.798  23.533  14.807
73884W        W33321  28.113  33.058  14.310
73885W        W33322  24.526  34.418   1.405
73886W        W33323  42.319  34.046   1.372
73887W        W33324   6.818  20.068   0.342
73888W        W33325  33.941   2.443  14.971
73889W        W33326  41.296  25.543   2.275
73890W        W33327  39.915  29.436  11.976
73891W        W33328  24.702  31.941  14.978
73892W        W33329  17.741  37.415   3.819
73893W        W33330   5.418  20.205   2.341
73894W        W33331   8.266   3.917   4.810
73895W        W33332  35.579   0.805  10.603
73896W        W33333  23.186  13.176  14.481
73897W        W33334  34.464  41.787  14.504
73898W        W33335  42.866  33.588  11.991
73899W        W33336  31.004  28.629   1.422
73900W        W33337  21.641  17.108   5.313
73901W        W33338  25.059  22.135   3.146
73902W        W33339  21.594  36.088   2.903
73903W        W33340  16.708  19.680  10.140
73904W        W33341  29.508  33.472  12.942
73905W        W33342  44.820  27.514   0.457
73906W        W33343  31.126  33.469   2.841
73907W        W33344   9.198   1.829   3.150
73908W        W33345   0.400   7.323  13.529
73909W        W33346  35.049  20.736   3.696
73910W        W33347  20.754   9.882   2.767
73911W        W33348  40.473  30.591  11.519
73912W        W33349  22.116  40.499  12.989
73913W        W33350  39.451  38.338   1.728
73914W        W33351  43.774  38.443   0.389
73915W        W33352  33.953   7.675  12.982
73916W        W33353  19.591  21.637  11.874
73917W        W33354  33.963  43.464  13.932
73918W        W33355  40.377  19.778   5.292
73919W        W33356   4.732  32.602  13.932
73920W        W33357  11.630  21.173  10.642
73921W        W33358  42.986  26.061   1.870
73922W        W33359   3.752  14.614   1.241
73923W        W33360  36.577  42.513   0.400
73924W        W33361  21.587  42.906  11.588
73925W        W33362  13.224  33.079   0.337
73926W        W33363   0.249  32.886  14.013
73927W        W33364  14.808  22.554  10.131
73928W        W33365  30.462  16.703  11.074
73929W        W33366  37.947   3.944   3.719
73930W        W33367  38.951  13.804   0.271
73931W        W33368  29.433  10.321  14.873
73932W        W33369  19.700  18.167   5.173
73933W        W33370  17.682  21.144  12.026
73934W        W33371  27.985  20.222  12.037
73935W        W33372  16.274   5.932   1.928
73936W        W33373  28.509  15.763   1.338
73937W        W33374  13.744  22.521  13.809
73938W        W33375  31.520  32.455  12.475
73939W        W33376  25.552  22.079   2.184
73940W        W33377   9.872  21.218  10.501
73941W        W33378   6.790  23.683   1.433
73942W        W33379  10.188  33.521   4.335
73943W        W33380  10.251   9.326  11.103
73944W        W33381  34.395   4.924  12.378
73945W        W33382  36.409  23.033   2.398
73946W        W33383  32.105   4.428   2.876
73947W        W33384   5.268   5.202   2.343
73948W        W33385   4.373  41.036  13.976
73949W        W33386   0.311  16.253  11.945
73950W        W33387  33.112   0.894  10.970
73951W        W33388  31.000  22.158  13.309
73952W        W33389  37.428   8.706   1.883
73953W        W33390  26.506  20.168   4.341
73954W        W33391  11.836  31.558  11.522
73955W        W33392   6.765  13.273   2.708
73956W        W33393  42.330  10.825   3.152
73957W        W33394   7.179   8.277   3.359
73958W        W33395  17.782   1.253  13.011
73959W        W33396  37.375  25.025  11.110
73960W        W33397  11.264   9.762  14.021
73961W        W33398  42.885  24.591   0.780
73962W        W33399  29.152  42.458   0.472
73963W        W33400  41.025  39.811   1.707
73964W        W33401  16.621  40.410   1.257
73965W        W33402  16.280   0.418   4.286
73966W        W33403  44.477  21.547  13.986
73967W        W33404  29.498  11.650   1.710
73968W        W33405  20.722  38.860  12.077
73969W        W33406  40.425  20.258   4.187
73970W        W33407   2.932  17.245   1.804
73971W        W33408   6.713  13.747  14.453
73972W        W33409  10.744  12.654  14.785
73973W        W33410   3.343  25.508  12.925
73974W        W33411   3.861  18.748  10.505
73975W        W33412  10.724  36.907   4.824
73976W        W33413  39.474  36.989  13.438
73977W        W33414  17.783  26.123  11.591
73978W        W33415  22.721  15.687  10.924
73979W        W33416  19.105  39.354  14.984
73980W        W33417  30.553  17.198   3.775
73981W        W33418  32.636  38.025  12.040
73982W        W33419  20.693  31.448  12.412
73983W        W33420   8.267   3.778  13.889
73984W        W33421  26.575  21.137   1.281
73985W        W33422  40.021  27.095  10.493
73986W        W33423  42.979  20.098  12.419
73987W        W33424   3.391  33.904   3.829
73988W        W33425   6.893  33.990   0.745
73989W        W33426  26.954  21.102  10.906
73990W        W33427  13.784  33.447  12.894
73991W        W33428  33.460  22.103   4.806
73992W        W33429  12.693   7.335   1.240
73993W        W33430  22.535  32.587  11.416
73994W        W33431  38.077  28.668  11.106
73995W        W33432  20.638  20.183  14.803
73996W        W33433  32.427  20.133  13.427
73997W        W33434   3.320  34.458   0.853
73998W        W33435   9.273  13.222  10.526
73999W        W33436  26.552  32.487  10.606
74000W        W33437  20.056  23.110   2.876
74001W        W33438  18.664  15.193  14.870
74002W        W33439  17.170  11.343   0.937
74003W        W33440  28.504   7.369   4.262
74004W        W33441   4.776  33.472   1.332
74005W        W33442  32.044   1.831  12.904
74006W        W33443   6.838  41.845   0.360
74007W        W33444   8.853  12.320  14.968
74008W        W33445  10.358  38.052   0.920
74009W        W33446   1.734  20.196  13.884
74010W        W33447   5.416  35.066   1.417
74011W        W33448   2.777  28.936  11.973
74012W        W33449  11.236  43.939   0.469
74013W        W33450  20.066   6.921  10.573
74014W        W33451  44.419  28.164  11.066
74015W        W33452   0.860  21.231   1.259
74016W        W33453  24.124  38.881  13.534
74017W        W33454  40.001  22.194  11.438
74018W        W33455  24.996  13.800   3.311
74019W        W33456  11.789  30.531  12.022
74020W        W33457  25.614   5.287  14.015
74021W        W33458  19.087  37.447   0.381
74022W        W33459  37.074  44.862  11.405
74023W        W33460  44.895  44.328   4.698
74024W        W33461  33.874  19.734  14.861
74025W        W33462  34.973  35.468   4.319
74026W        W33463  25.672  36.004   1.341
74027W        W33464  34.931  44.461  11.997
74028W        W33465  43.850  34.479   4.334
74029W        W33466   7.809  34.559  12.385
74030W        W33467   2.853  17.705  14.008
74031W        W33468  35.985  41.374   3.670
74032W        W33469  23.237  23.197   3.689
74033W        W33470  28.467  35.511   2.360
74034W        W33471  38.015  14.127   4.836
74035W        W33472  40.508   0.892   2.887
74036W        W33473   5.914  34.943   3.854
74037W        W33474  36.896   0.291   4.699
74038W        W33475  28.012   4.814   0.795
74039W        W33476  43.909   0.790  10.474
74040W        W33477   3.748  19.253   0.750
74041W        W33478   8.237  34.601  11.406
74042W        W33479  39.421  30.911  13.002
74043W        W33480  25.697  23.665  11.953
74044W        W33481  42.942   2.389  11.956
74045W        W33482  20.178  37.989  11.950
74046W        W33483  37.953  19.715  12.377
74047W        W33484  16.288  34.547   1.935
74048W        W33485   9.721  42.425  14.990
74049W        W33486  25.635  29.519   0.929
74050W        W33487   2.382   6.396   1.338
74051W        W33488  41.463   3.215  14.276
74052W        W33489  40.953  12.778   3.147
74053W        W33490   8.196   3.878   1.336
74054W        W33491  36.899  25.637   3.219
74055W        W33492  20.116  28.523   1.252
74056W        W33493   1.314  37.407   0.380
74057W        W33494  12.260  28.641  12.471
74058W        W33495   2.922  32.445   3.338
74059W        W33496  15.742   3.461   0.482
74060W        W33497  17.158  30.933   1.713
74061W        W33498  15.239  44.981   2.275
74062W        W33499   4.244  14.153  11.449
74063W        W33500  29.161   4.450   4.343
74064W        W33501   0.917  24.086   4.271
74065W        W33502  42.799  11.832   3.822
74066W        W33503  15.785  23.222   0.727
74067W        W33504   0.789   9.343   3.779
74068W        W33505   4.748  35.025  10.521
74069W        W33506  15.115  19.572   0.453
74070W        W33507  43.913  35.391  10.614
74071W        W33508  28.507  24.986   1.417
74072W        W33509  10.157   6.772  11.520
74073W        W33510  43.501  40.037  11.490
74074W        W33511  34.115  11.307   4.828
74075W        W33512  43.453   6.216  10.014
74076W        W33513  41.480   9.690   1.928
74077W        W33514  10.678   4.866  10.421
74078W        W33515  34.384   7.229   0.861
74079W        W33516  37.469  31.017   4.150
74080W        W33517  18.067  37.984   2.866
74081W        W33518  27.684   2.962  11.916
74082W        W33519  14.239  10.783  14.510
74083W        W33520   7.315  35.410   1.442
74084W        W33521  43.967  42.977  10.914
74085W        W33522  19.675  32.522  14.317
74086W        W33523  11.242  41.323   3.672
74087W        W33524  21.229  20.701   0.429
74088W        W33525  16.216  22.995  11.076
74089W        W33526  40.378  29.573  10.906
74090W        W33527  16.101   8.724   2.889
74091W        W33528  31.032  28.966  14.992
74092W        W33529  43.905  33.078  13.979
74093W        W33530   3.821  31.034  12.403
74094W        W33531  25.471  27.538  12.356
74095W        W33532  35.071  29.434   2.411
74096W        W33533  34.911   5.203   2.362
74097W        W33534   9.682  43.490  14.987
74098W        W33535  38.390  19.084   0.297
74099W        W33536  28.603   0.437  11.935
74100W        W33537  34.393   3.950   1.847
74101W        W33538  13.667   0.890   2.337
74102W        W33539   1.326  14.325   1.299
74103W        W33540  24.642  41.967  13.919
74104W        W33541  44.426  30.625  13.366
74105W        W33542  31.006  13.611   2.830
74106W        W33543  15.292   0.860   4.819
74107W        W33544  36.386  13.252  12.848
74108W        W33545  34.904  43.302   5.290
74109W        W33546   5.314  41.871  14.339
74110W        W33547  40.504  31.540   0.957
74111W        W33548  20.698  41.025  10.608
74112W        W33549  22.695  20.691  14.895
74113W        W33550  23.656  19.128  11.458
74114W        W33551  42.959  34.455  14.968
74115W        W33552  12.209  38.015  13.424
74116W        W33553  29.530  44.772  14.365
74117W        W33554   3.907  22.082  12.560
74118W        W33555   0.984  23.504  13.928
74119W        W33556  42.475  24.722  11.020
74120W        W33557   5.918  43.431  14.767
74121W        W33558  18.240  18.699   2.372
74122W        W33559  30.518  30.582   0.767
74123W        W33560   2.382   9.880   2.814
74124W        W33561  31.528   4.412   3.770
74125W        W33562  22.594  36.063   3.314
74126W        W33563  22.628  24.104  14.815
74127W        W33564  10.699  37.361  13.043
74128W        W33565  41.394   2.757   0.929
74129W        W33566   6.831   0.859  13.926
74130W        W33567  43.004  29.958   2.184
74131W        W33568  44.886   6.374   1.337
74132W        W33569  34.863  38.074  14.368
74133W        W33570  11.188  33.128  13.400
74134W        W33571  42.029  38.828   2.701
74135W        W33572   9.276   5.294   3.707
74136W        W33573  28.516  43.904  14.374
74137W        W33574  40.858  16.797  11.511
74138W        W33575  40.974   9.193   4.193
74139W        W33576  30.967  13.196   4.836
74140W        W33577  16.601   2.903   1.745
74141W        W33578  32.113  16.240   1.247
74142W        W33579   0.960  28.023   1.301
74143W        W33580  34.374  33.113   1.267
74144W        W33581  18.713  10.179   5.091
74145W        W33582  43.810  19.774   1.741
74146W        W33583   9.755   8.775   3.801
74147W        W33584  44.449  38.892   3.780
74148W        W33585  39.935   6.312   0.471
74149W        W33586  30.936  18.286   0.822
74150W        W33587  30.921   5.421   3.686
74151W        W33588  35.457  11.744   3.322
74152W        W33589  19.094  26.040   0.367
74153W        W33590  25.700  41.299  10.577
74154W        W33591  32.437  24.005  12.412
74155W        W33592  37.350   2.830  10.589
74156W        W33593  44.891  17.149   1.280
74157W        W33594   2.465  35.371   1.705
74158W        W33595   4.253   8.760  11.471
74159W        W33596   2.815   1.905   1.368
74160W        W33597   1.475  15.138  14.392
74161W        W33598  21.193  20.185   2.834
74162W        W33599  26.478  38.022   2.296
74163W        W33600  18.281  41.981  11.415
74164W        W33601  43.019  19.619   4.749
74165W        W33602  37.075  33.097  14.990
74166W        W33603   3.275  27.673  11.542
74167W        W33604  37.483   3.394  12.041
74168W        W33605   9.240  28.574  14.000
74169W        W33606   3.298  26.596  14.370
74170W        W33607  22.747  12.149   4.781
74171W        W33608  31.983  22.116   9.960
74172W        W33609  37.539  36.982   4.648
74173W        W33610  28.154  17.667  10.544
74174W        W33611  10.355  26.952  11.912
74175W        W33612  29.481  11.174   1.786
74176W        W33613   4.792  23.004   5.743
74177W        W33614  38.007  25.670  11.925
74178W        W33615   2.337  22.019  13.494
74179W        W33616  22.510  38.918  12.478
74180W        W33617  14.136   6.275  13.428
74181W        W33618   9.211  40.306  13.896
74182W        W33619  36.022  32.108   4.694
74183W        W33620  28.934   2.425   1.848
74184W        W33621  21.521   1.367   1.835
74185W        W33622   4.901  21.515  11.592
74186W        W33623   9.182  33.994  10.447
74187W        W33624  18.732  25.630  10.481
74188W        W33625  40.395  34.025   0.926
74189W        W33626   6.705  20.085   0.869
74190W        W33627  42.471  22.659  10.630
74191W        W33628   1.385  42.781   0.934
74192W        W33629  25.081  30.958  13.318
74193W        W33630   6.330  35.922  12.037
74194W        W33631  22.012  35.081  10.543
74195W        W33632  27.172  36.893  12.581
74196W        W33633   1.322  16.134  13.443
74197W        W33634  19.574  21.716   3.780
74198W        W33635   8.294  16.294  13.054
74199W        W33636  12.856  15.730   4.604
74200W        W33637  20.603  10.158   3.672
74201W        W33638   6.298   9.653  13.992
74202W        W33639  26.188  16.271   1.295
74203W        W33640   7.329  19.765  13.309
74204W        W33641  24.164  42.862  11.556
74205W        W33642  36.503  32.579   4.275
74206W        W33643  22.733  38.409   1.730
74207W        W33644  39.858   3.725  13.450
74208W        W33645  15.689  28.141   1.227
74209W        W33646   6.263  11.678  14.812
74210W        W33647  40.343  38.988  11.925
74211W        W33648   1.311  17.189  14.853
74212W        W33649  41.391  20.575   1.784
74213W        W33650  28.121  24.631   5.786
74214W        W33651  18.123   3.247   0.409
74215W        W33652  15.726  24.543  12.442
74216W        W33653  37.888  44.846  11.030
74217W        W33654  35.060   0.988  14.953
74218W        W33655   7.879  31.433   0.455
74219W        W33656  22.158   1.835   1.886
74220W        W33657   8.891  34.481  12.394
74221W        W33658  15.267  40.889   1.864
74222W        W33659  23.617   6.710  10.589
74223W        W33660  28.136   7.741   4.808
74224W        W33661  32.956  31.914  13.326
74225W        W33662  22.096  31.988   2.828
74226W        W33663  42.890  10.205  10.898
74227W        W33664  18.552   8.712  12.436
74228W        W33665  34.978  28.943  14.338
74229W        W33666  23.528   3.790  14.385
74230W        W33667  26.070  40.803   4.659
74231W        W33668   2.834   7.797   0.919
74232W        W33669  24.571   0.426   4.758
74233W        W33670  39.916  35.865  10.562
74234W        W33671   3.455  25.632   5.256
74235W        W33672  24.106  25.632   4.811
74236W        W33673  35.549  12.755   2.195
74237W        W33674  34.954  36.027  10.455
74238W        W33675  26.043  13.809   3.347
74239W        W33676  35.410   4.930  12.906
74240W        W33677  29.128  10.775   3.709
74241W        W33678   6.335  23.132   2.786
74242W        W33679  19.258  17.745  12.414
74243W        W33680  25.976  37.078  10.922
74244W        W33681  31.076   4.783   2.721
74245W        W33682   3.712  21.186   1.813
74246W        W33683   1.974  38.071   2.187
74247W        W33684  44.843  42.937  14.815
74248W        W33685  19.255  36.348  11.023
74249W        W33686  21.069  24.155   3.645
74250W        W33687   2.851  13.137   1.870
74251W        W33688  14.608  28.075   3.155
74252W        W33689  30.058  33.013   1.428
74253W        W33690  20.525   2.372   1.701
74254W        W33691  16.659  12.298   0.948
74255W        W33692  30.909  42.894   4.623
74256W        W33693  12.698  23.695  14.421
74257W        W33694  30.959  34.990  11.373
74258W        W33695  31.538  13.147  12.345
74259W        W33696  34.888  30.155   1.812
74260W        W33697  37.861  19.232  13.051
74261W        W33698  43.841  17.578   4.324
74262W        W33699   7.698   3.792   0.402
74263W        W33700  24.013  33.425   2.785
74264W        W33701   5.279  17.568  12.916
74265W        W33702  21.178  15.738  13.497
74266W        W33703  39.870  39.316   0.966
74267W        W33704  42.342  23.496   1.448
74268W        W33705  28.002  26.502  10.987
74269W        W33706  12.243  42.942  10.463
74270W        W33707   3.767  31.420   4.186
74271W        W33708  13.224  39.440   2.737
74272W        W33709  17.184   6.832   0.865
74273W        W33710   8.329  12.341   2.250
74274W        W33711  41.317   0.355   2.781
74275W        W33712   9.755  32.544   1.704
74276W        W33713  20.687  44.441  14.386
74277W        W33714   3.797   7.360   2.213
74278W        W33715  14.818  30.010  11.946
74279W        W33716  13.703  12.247  10.454
74280W        W33717  23.027   3.225  11.979
74281W        W33718  24.640   8.362   3.211
74282W        W33719   4.230  25.601   3.264
74283W        W33720  39.397  37.399   2.744
74284W        W33721  11.802  31.564   2.874
74285W        W33722  11.279  13.339   2.286
74286W        W33723  21.119  44.914  11.461
74287W        W33724  14.694   3.428  12.894
74288W        W33725  13.125  23.621   0.789
74289W        W33726   5.358   9.828  14.428
74290W        W33727   2.277  28.477   3.699
74291W        W33728   5.790  14.152  13.435
74292W        W33729  13.249  26.648  13.978
74293W        W33730  37.011  26.464   1.759
74294W        W33731  13.785  16.093  10.507
74295W        W33732  20.168  25.190  14.007
74296W        W33733  42.883   4.418  12.927
74297W        W33734   6.418  17.622  13.981
74298W        W33735  14.798  29.521  10.496
74299W        W33736  18.239  43.410   0.751
74300W        W33737  20.105  32.094   3.801
74301W        W33738  20.569   9.202   1.703
74302W        W33739  13.820  26.006  12.513
74303W        W33740  14.292  30.514  11.609
74304W        W33741  26.128  28.154  12.370
74305W        W33742  36.053   0.268  12.521
74306W        W33743   1.739  39.446   4.644
74307W        W33744   9.292   9.643  11.555
74308W        W33745  29.992  38.340   9.491
74309W        W33746   1.244  22.160   2.288
74310W        W33747  38.399  16.599  13.365
74311W        W33748  14.703   1.965   1.305
74312W        W33749  28.470   1.965  12.384
74313W        W33750  12.161  27.585   1.293
74314W        W33751  42.016   5.878   3.721
74315W        W33752   1.242  42.785  11.405
74316W        W33753   2.269  25.008   3.755
74317W        W33754  43.455  16.215   1.342
74318W        W33755  30.928  33.434  13.811
74319W        W33756  41.843  29.653  11.427
74320W        W33757   1.873  32.517  12.935
74321W        W33758   4.405   6.350  10.965
74322W        W33759  39.314  25.214   3.837
74323W        W33760  17.088  41.485   0.766
74324W        W33761  22.107  31.083  13.924
74325W        W33762  23.498  19.707   1.388
74326W        W33763  32.464  20.667  13.402
74327W        W33764   5.398  19.598  10.404
74328W        W33765  17.146  13.748   0.435
74329W        W33766  26.022  43.782  12.367
74330W        W33767  14.828  33.439   3.324
74331W        W33768  17.240   2.441   1.717
74332W        W33769  14.275  18.071  14.861
74333W        W33770  22.531  29.649   2.738
74334W        W33771  24.685  33.458   1.823
74335W        W33772  20.239  17.678  11.978
74336W        W33773  26.548   7.871  13.925
74337W        W33774  37.044  24.150   2.284
74338W        W33775   8.265  40.408  13.041
74339W        W33776  27.521  15.118  11.466
74340W        W33777  12.617   8.313  12.072
74341W        W33778   0.380  27.563   3.726
74342W        W33779   4.438  18.286   2.891
74343W        W33780  28.186   1.271  12.037
74344W        W33781  28.611  31.091  12.929
74345W        W33782   8.778  19.282   1.810
74346W        W33783  15.276  20.103   4.644
74347W        W33784  28.446   2.232   2.879
74348W        W33785  27.982  28.671  11.584
74349W        W33786   3.842   5.917   2.883
74350W        W33787  32.574   3.844   2.806
74351W        W33788  22.193  42.936  12.965
74352W        W33789  15.225   9.769   2.356
74353W        W33790  26.087   7.221   3.272
74354W        W33791  25.641  43.795  12.866
74355W        W33792  27.181  24.498   3.262
74356W        W33793  42.936   9.790  13.965
74357W        W33794  10.323  11.753   3.233
74358W        W33795   9.286  32.070   2.700
74359W        W33796   6.412  16.195  12.854
74360W        W33797  31.039   6.903  14.376
74361W        W33798  27.560  32.469   3.176
74362W        W33799  35.416  15.153   2.861
74363W        W33800  33.119   5.816  13.892
74364W        W33801   4.925  35.520  10.900
74365W        W33802   1.949  17.254  11.446
74366W        W33803  11.636  42.990   0.452
74367W        W33804  26.139  35.939  10.922
74368W        W33805  44.778   2.269   4.124
74369W        W33806  10.688  17.718   2.813
74370W        W33807  34.009  20.608  12.006
74371W        W33808   7.858  34.937  13.921
74372W        W33809  28.103  27.185   1.714
74373W        W33810  16.286  29.614   2.664
74374W        W33811   1.307  22.676   0.795
74375W        W33812  24.003   5.892   3.325
74376W        W33813  40.809  40.459   3.856
74377W        W33814   3.446  34.929  13.831
74378W        W33815   3.910  10.169   2.234
74379W        W33816  20.553  39.910  12.465
74380W        W33817  38.071  12.853   3.730
74381W        W33818  21.660  13.681   3.345
74382W        W33819  14.243  18.167  11.007
74383W        W33820  34.014  35.947   3.264
74384W        W33821  27.118  12.334   5.775
74385W        W33822   2.240  26.193   4.807
74386W        W33823   3.400  40.412  12.875
74387W        W33824  12.832  11.181  14.852
74388W        W33825  27.509  39.490  11.432
74389W        W33826  19.101  10.338  12.461
74390W        W33827  35.362   9.355   4.701
74391W        W33828  35.522   2.314  14.850
74392W        W33829  16.103   1.331   1.328
74393W        W33830  24.706   8.345  12.554
74394W        W33831  11.240  11.240   4.264
74395W        W33832  30.129  41.794   2.325
74396W        W33833   6.809   3.449  10.531
74397W        W33834  23.493   4.837  13.433
74398W        W33835  39.418  12.227   3.838
74399W        W33836   5.422  26.614   4.179
74400W        W33837  38.858  10.168  10.930
74401W        W33838  42.974  31.958  13.905
74402W        W33839  39.494  26.492   4.781
74403W        W33840  32.024  31.442  14.781
74404W        W33841  36.062  36.043   3.753
74405W        W33842  27.536  26.497  11.380
74406W        W33843  42.495  13.328   2.231
74407W        W33844  43.460  39.882   4.720
74408W        W33845  22.038   3.888   2.367
74409W        W33846   7.217   6.799   3.714
74410W        W33847   5.764  19.624  13.815
74411W        W33848  33.996  23.105   2.193
74412W        W33849  30.618  25.112   3.220
74413W        W33850  38.949   8.327  14.790
74414W        W33851  31.904  33.504  13.875
74415W        W33852  24.574  11.257   0.747
74416W        W33853  33.594   0.358  13.312
74417W        W33854   2.783  13.247  14.949
74418W        W33855   5.259  43.822  12.890
74419W        W33856  40.873  23.631  14.949
74420W        W33857  24.714  33.391  13.438
74421W        W33858  44.273  44.357   5.270
74422W        W33859  41.882  24.131  14.371
74423W        W33860   2.956  34.451   3.337
74424W        W33861  41.862  25.591   2.226
74425W        W33862   6.419  14.651   1.329
74426W        W33863  32.931   0.382   4.800
74427W        W33864  37.894  20.618  13.535
74428W        W33865  42.479   0.374   4.769
74429W        W33866  38.060   2.839  13.834
74430W        W33867  24.042  11.209  12.986
74431W        W33868  25.623   7.339   4.331
74432W        W33869  17.155  19.168   3.272
74433W        W33870  28.139   7.685   2.774
74434W        W33871  36.381  20.670   0.954
74435W        W33872  29.570  14.205   4.631
74436W        W33873   6.806  36.868  10.998
74437W        W33874  19.586  43.800  10.892
74438W        W33875   0.813  43.788  10.596
74439W        W33876  12.730  27.002  13.015
74440W        W33877  43.780  20.662  14.334
74441W        W33878   1.779  43.848  10.500
74442W        W33879   1.362  38.334  12.429
74443W        W33880  14.722  37.888  12.547
74444W        W33881  23.169  27.534   0.787
74445W        W33882  34.543  36.522  12.092
74446W        W33883  11.336  28.679  11.419
74447W        W33884  15.106  18.051  11.886
74448W        W33885   8.750   1.749   2.234
74449W        W33886  20.213   6.778  13.064
74450W        W33887   4.794  25.060  14.913
74451W        W33888  34.081  41.430   4.725
74452W        W33889   8.242  37.401   1.817
74453W        W33890  12.301  31.944  12.556
74454W        W33891  33.416  18.080   2.385
74455W        W33892   0.837  23.130  10.549
74456W        W33893  15.212  42.382  12.399
74457W        W33894  16.131  41.513   2.782
74458W        W33895  35.458  28.074  13.318
74459W        W33896  39.971  11.699   2.689
74460W        W33897  26.565   0.343  10.977
74461W        W33898  31.508  40.960  14.361
74462W        W33899  27.071  32.637  11.074
74463W        W33900  28.548  42.338   2.359
74464W        W33901  26.981  19.107   4.720
74465W        W33902  40.881  35.906  11.495
74466W        W33903  30.637  39.998  10.578
74467W        W33904  33.964  30.632  10.431
74468W        W33905   6.259  29.077  10.575
74469W        W33906   1.481  40.831  12.367
74470W        W33907  10.755  30.549   0.341
74471W        W33908  22.574   9.745   3.818
74472W        W33909  14.203  41.489   2.792
74473W        W33910  12.761  12.211   4.691
74474W        W33911  22.699  40.424  14.942
74475W        W33912  33.455  18.561  10.639
74476W        W33913  28.088  12.823   0.747
74477W        W33914  40.468  20.140  11.573
74478W        W33915  10.864  28.673   1.362
74479W        W33916  44.985  16.082   3.379
74480W        W33917  23.136  34.594  13.852
74481W        W33918  44.444   3.732  14.002
74482W        W33919  16.247  21.108  10.607
74483W        W33920  12.636  34.570  14.308
74484W        W33921   8.788  36.391   4.213
74485W        W33922   5.386  25.137   3.151
74486W        W33923  13.733  38.057  11.438
74487W        W33924  14.160   3.763  14.929
74488W        W33925  11.273   0.282   3.764
74489W        W33926  37.435   1.240   4.246
74490W        W33927  40.407  27.945  11.963
74491W        W33928  19.205  18.214   0.407
74492W        W33929  43.822   5.885  14.897
74493W        W33930   8.818  32.085   4.198
74494W        W33931  16.718  36.035  14.963
74495W        W33932  20.099  22.521  11.382
74496W        W33933  37.913  11.686   4.220
74497W        W33934   6.856  40.361   4.295
74498W        W33935  29.016  17.558  10.418
74499W        W33936   8.344  41.295   4.181
74500W        W33937  40.873  14.225   4.319
74501W        W33938  43.873  15.758   1.800
74502W        W33939   5.699  23.064  12.026
74503W        W33940   8.815   9.665  13.858
74504W        W33941  12.257  16.144  14.945
74505W        W33942   6.811  32.014  12.426
74506W        W33943  27.542  35.019  13.461
74507W        W33944  25.053  43.832  10.572
74508W        W33945   7.410  40.924   2.373
74509W        W33946   4.904   0.742   4.660
74510W        W33947  41.431  32.630  11.472
74511W        W33948   1.764  38.050  13.410
74512W        W33949   7.412  22.120   4.294
74513W        W33950   0.804  18.285  10.917
74514W        W33951  29.054  10.689   9.995
74515W        W33952  23.670  25.211  13.054
74516W        W33953  28.125   1.958   4.699
74517W        W33954  29.067  44.314  14.969
74518W        W33955   3.859   8.674   4.669
74519W        W33956  23.138   2.875   3.383
74520W        W33957  44.399  42.324   1.804
74521W        W33958  44.767  31.585   2.345
74522W        W33959  14.813  43.949   3.362
74523W        W33960  34.933   0.422  10.485
74524W        W33961  27.079  29.057   0.736
74525W        W33962   7.415  14.624  10.917
74526W        W33963  37.878   6.680  11.505
74527W        W33964  44.820  23.590   4.696
74528W        W33965  39.952  29.121   4.769
74529W        W33966  40.327  10.644   1.910
74530W        W33967  44.269  18.257   3.712
74531W        W33968  12.267  12.735  13.845
74532W        W33969  34.954  18.712   3.741
74533W        W33970  32.613  21.629  14.516
74534W        W33971   2.777   8.316   4.176
74535W        W33972   4.262   7.847   3.206
74536W        W33973  30.157  33.608   2.866
74537W        W33974  32.445  36.862   4.726
74538W        W33975  31.570  29.932   4.645
74539W        W33976  19.673  12.843   5.156
74540W        W33977  42.383   0.371  11.419
74541W        W33978  30.964  14.274   1.758
74542W        W33979  37.516   9.706  10.641
74543W        W33980  28.481   8.852  11.612
74544W        W33981  16.271   4.758   3.308
74545W        W33982  37.482  40.821   2.784
74546W        W33983  11.640  38.539  11.107
74547W        W33984  41.982  17.697   0.416
74548W        W33985  17.092  39.837  13.546
74549W        W33986   5.353  10.792   2.189
74550W        W33987   0.927  33.111  12.412
74551W        W33988  30.638  34.472   3.346
74552W        W33989  35.425   0.450   2.394
74553W        W33990  18.598  40.816   1.451
74554W        W33991  38.003   5.374   2.258
74555W        W33992  39.439  11.783  10.531
74556W        W33993  25.709  20.624   1.233
74557W        W33994  26.511  24.987   3.354
74558W        W33995  25.519  39.411   1.416
74559W        W33996  28.048  37.049  13.019
74560W        W33997  17.254  36.442   3.208
74561W        W33998   3.905  14.330  14.942
74562W        W33999   5.326   5.217   1.714
74563W        W34000  37.954   7.870   2.236
74564W        W34001  39.552  22.168   2.691
74565W        W34002   3.370  40.972  11.462
74566W        W34003  18.193  41.430   2.682
74567W        W34004  36.037  15.625   3.248
74568W        W34005  37.940   6.249   3.286
74569W        W34006  17.215   4.906  11.026
74570W        W34007  19.050  41.891   3.327
74571W        W34008  42.993  15.243   0.290
74572W        W34009  24.503  28.175  13.435
74573W        W34010   3.746   0.985  12.549
74574W        W34011  15.747  21.552  12.505
74575W        W34012  27.074  10.352   3.248
74576W        W34013  43.346  17.623  13.338
74577W        W34014  16.602   8.880  13.387
74578W        W34015   9.327  11.734   4.236
74579W        W34016   6.858  35.501  10.407
74580W        W34017  29.479  28.466   2.371
74581W        W34018   2.953   0.328  10.425
74582W        W34019   1.963   0.935   0.925
74583W        W34020  32.947  33.515   1.914
74584W        W34021  41.921  35.374   2.672
74585W        W34022  13.250   9.183   2.387
74586W        W34023   0.351  33.464  10.585
74587W        W34024  11.280  42.441   1.832
74588W        W34025  34.446   9.838   0.842
74589W        W34026   7.183  40.047  13.037
74590W        W34027  29.511   0.914   2.781
74591W        W34028  35.062  28.053   1.426
74592W        W34029  30.489  20.039   3.386
74593W        W34030  33.111  37.931   3.202
74594W        W34031  40.411  24.120  10.503
74595W        W34032  31.150  15.235   4.620
74596W        W34033  43.342  14.792   0.823
74597W        W34034  32.059  25.099  11.400
74598W        W34035  35.491   3.354   0.778
74599W        W34036  29.170  31.403   1.778
74600W        W34037  44.763   8.757   2.816
74601W        W34038  14.094  16.697  11.586
74602W        W34039  39.372  16.705   4.772
74603W        W34040  26.550  10.293  14.489
74604W        W34041  28.480  39.376   4.233
74605W        W34042  35.924   6.696  13.040
74606W        W34043  28.602  23.510   9.961
74607W        W34044  39.923  29.566  14.463
74608W        W34045  11.190   4.440   2.869
74609W        W34046  15.625  35.105   1.304
74610W        W34047  43.866  12.798   9.473
74611W        W34048  14.650  21.198   0.359
74612W        W34049  39.396   2.899  11.925
74613W        W34050  34.959  36.546  12.043
74614W        W34051  33.495  22.639  13.324
74615W        W34052  32.053  28.557   2.193
74616W        W34053  37.573  11.287  12.843
74617W        W34054   8.206  14.761   4.198
74618W        W34055  12.300  16.655  10.954
74619W        W34056   1.449  11.668   2.351
74620W        W34057  28.516  10.226  13.931
74621W        W34058  43.450  11.679   0.265
74622W        W34059  24.521  28.154  12.841
74623W        W34060  30.445   7.183  10.467
74624W        W34061  38.821  21.587  11.892
74625W        W34062   2.916  41.413  10.631
74626W        W34063  37.464   8.819   4.717
74627W        W34064  15.792   1.819  14.483
74628W        W34065   7.726  26.108  14.978
74629W        W34066  11.362  14.328  11.857
74630W        W34067   0.308  43.311   4.615
74631W        W34068   2.791   3.386  14.770
74632W        W34069  30.481   6.809  13.498
74633W        W34070  16.092  28.951   4.834
74634W        W34071  20.123  26.964   2.739
74635W        W34072  18.226   6.250  11.417
74636W        W34073   9.346  12.680   2.178
74637W        W34074  18.605   2.791  14.885
74638W        W34075  18.108  13.187  12.087
74639W        W34076  17.180  10.855   1.415
74640W        W34077   3.833   6.271   2.383
74641W        W34078  26.649  19.261   4.227
74642W        W34079   6.805  14.787   0.469
74643W        W34080  10.322  23.699   1.753
74644W        W34081   5.422  14.617   3.713
74645W        W34082  29.661  10.817   2.332
74646W        W34083  31.560  34.537  14.905
74647W        W34084  38.351  38.569  13.939
74648W        W34085  30.564  10.857  12.952
74649W        W34086  27.642  23.998  11.977
74650W        W34087  33.945  40.979   4.762
74651W        W34088  33.579   4.378  13.026
74652W        W34089   1.444  40.474   2.263
74653W        W34090  35.934   2.360   0.954
74654W        W34091  36.361  28.068   3.340
74655W        W34092   5.244  32.077  13.812
74656W        W34093  15.639  14.121   4.626
74657W        W34094  22.097  32.111  10.477
74658W        W34095  23.574  16.199  14.442
74659W        W34096  29.604  41.297  14.963
74660W        W34097  13.330   3.288   2.258
74661W        W34098  13.819  41.888  11.038
74662W        W34099  40.500   9.353   4.222
74663W        W34100  25.630  21.676  12.883
74664W        W34101  28.120   9.260   1.440
74665W        W34102   6.245  44.770  11.545
74666W        W34103   7.783  16.279   3.310
74667W        W34104   5.296  28.464   3.639
74668W        W34105  43.786  23.639   3.744
74669W        W34106  15.207  38.970   0.850
74670W        W34107  44.282  41.841   2.686
74671W        W34108   6.187   9.224  10.042
74672W        W34109  30.526  15.603  13.882
74673W        W34110  18.752  17.721  10.095
74674W        W34111  28.004  39.883  14.488
74675W        W34112  38.042  10.657   4.124
74676W        W34113  33.905  42.434   2.204
74677W        W34114  33.613  27.083  10.995
74678W        W34115  32.103  12.291   4.634
74679W        W34116  37.573  29.488   2.311
74680W        W34117  22.547  26.204   2.735
74681W        W34118  33.933  42.507  11.500
74682W        W34119  26.007  19.248   4.626
74683W        W34120  14.244  22.589  13.871
74684W        W34121  34.005  35.458   2.747
74685W        W34122  25.996   4.731  12.969
74686W        W34123  42.837   7.857   3.776
74687W        W34124  14.621   6.767  13.473
74688W        W34125  33.561   7.855   1.832
74689W        W34126  28.148   7.827  14.875
74690W        W34127  31.413   3.839   0.861
74691W        W34128  21.129  39.056   1.408
74692W        W34129   5.269   9.701   2.667
74693W        W34130  43.311  26.150  10.507
74694W        W34131  27.058  21.515  10.576
74695W        W34132  24.602  14.208   1.758
74696W        W34133  25.045  34.916  11.863
74697W        W34134   4.351  42.782   2.412
74698W        W34135  42.291  37.508   0.801
74699W        W34136   1.796  34.955   1.886
74700W        W34137  13.282  37.882   2.754
74701W        W34138  18.624  41.043   3.230
74702W        W34139  15.817  30.946   4.141
74703W        W34140  25.712  18.188   1.858
74704W        W34141  16.656  15.160   2.216
74705W        W34142   8.725  42.374  11.867
74706W        W34143   3.370  10.745   0.304
74707W        W34144   4.439  27.642   1.402
74708W        W34145  11.208  43.462   0.392
74709W        W34146  41.825  12.782   1.392
74710W        W34147  16.626  41.929  11.009
74711W        W34148   2.794   9.785   1.792
74712W        W34149  16.785  42.401   5.704
74713W        W34150  14.737  37.894   1.300
74714W        W34151  19.746   1.272  14.841
74715W        W34152  39.953  42.916  13.859
74716W        W34153  43.334   5.313  12.553
74717W        W34154  41.373  25.053   2.364
74718W        W34155   6.282  18.050  10.573
74719W        W34156  22.506   6.216  14.413
74720W        W34157   9.649  26.197  13.482
74721W        W34158  40.041  27.593  13.397
74722W        W34159  30.493   0.367  14.280
74723W        W34160  20.079   0.367  14.017
74724W        W34161   8.308  21.174  11.096
74725W        W34162   1.266  44.924  10.976
74726W        W34163   7.707   1.847   1.438
74727W        W34164  39.926   3.366  11.002
74728W        W34165   7.196   4.317   3.348
74729W        W34166  37.533  44.825  14.953
74730W        W34167  44.882   5.826  11.533
74731W        W34168  40.813   4.415  11.451
74732W        W34169  39.824  40.459   0.745
74733W        W34170  19.069  34.454  14.277
74734W        W34171  22.075  32.963   3.719
74735W        W34172  42.391  22.125   0.392
74736W        W34173   2.339  11.228  14.485
74737W        W34174   2.300  26.071   5.796
74738W        W34175   5.396  26.515   0.786
74739W        W34176  11.263  35.869  10.986
74740W        W34177  36.040  33.082   1.230
74741W        W34178  17.289  10.262  12.344
74742W        W34179  19.245   3.365   3.859
74743W        W34180  24.612  19.217  12.973
74744W        W34181  31.957  16.093  13.449
74745W        W34182  23.210  38.930  13.053
74746W        W34183  19.157   7.265  14.859
74747W        W34184  43.388   2.348   1.817
74748W        W34185  37.499   3.224  12.959
74749W        W34186  33.090  37.881   5.678
74750W        W34187  36.553   5.913  13.020
74751W        W34188  41.329  25.188  10.467
74752W        W34189  44.963  16.747   1.824
74753W        W34190  23.670  37.428  12.026
74754W        W34191   0.776   2.794  13.454
74755W        W34192   2.839  29.635  11.602
74756W        W34193  24.174  31.499   3.154
74757W        W34194  20.137  28.626   1.730
74758W        W34195  19.173   4.778  14.856
74759W        W34196  12.277  27.108  12.839
74760W        W34197  27.670  24.113  13.343
74761W        W34198  21.217  37.570   3.688
74762W        W34199  33.075  41.419   2.820
74763W        W34200  24.641  16.245  11.388
74764W        W34201  15.282  38.567   1.366
74765W        W34202  40.023  31.515   2.712
74766W        W34203  13.763  30.588   4.726
74767W        W34204  10.254  27.517  10.575
74768W        W34205  22.526  41.816   3.806
74769W        W34206  37.050  38.856   0.956
74770W        W34207  14.322   4.256  14.825
74771W        W34208  12.280  35.972   1.244
74772W        W34209   0.468  32.595  12.342
74773W        W34210  36.998  26.082   1.836
74774W        W34211  34.897  27.049   0.769
74775W        W34212  10.229  21.107   3.827
74776W        W34213  32.054  13.617   4.832
74777W        W34214  26.162  31.026  13.813
74778W        W34215  10.664  23.166   3.661
74779W        W34216  14.200  12.186  13.821
74780W        W34217  10.633  41.444  10.958
74781W        W34218   8.284   0.815  14.346
74782W        W34219  42.869   6.800   4.837
74783W        W34220  10.638  30.004   1.762
74784W        W34221  39.528  34.559   4.171
74785W        W34222   0.489  12.658   1.354
74786W        W34223   6.355   2.907  13.535
74787W        W34224   2.883  28.182  11.533
74788W        W34225  12.263  23.660  11.415
74789W        W34226  10.337  18.180   4.790
74790W        W34227  24.670  12.797   4.601
74791W        W34228  17.665  29.529   2.888
74792W        W34229  12.170  38.824  10.492
74793W        W34230  29.646  14.661   0.897
74794W        W34231  22.676  17.302  12.964
74795W        W34232  33.977   6.235  12.957
74796W        W34233  12.736  17.732  14.783
74797W        W34234  29.582  44.773  13.827
74798W        W34235   6.679  18.719   4.296
74799W        W34236  31.949   4.849   5.192
74800W        W34237  27.474   3.911  13.951
74801W        W34238  30.597   5.921   2.745
74802W        W34239  17.278  11.363   4.230
74803W        W34240  26.986  36.841   1.916
74804W        W34241  29.524   5.898   1.796
74805W        W34242  42.992  22.560  13.058
74806W        W34243  32.612  29.150   4.716
74807W        W34244  24.674  44.395   4.314
74808W        W34245  28.093  37.933  13.327
74809W        W34246  11.642  43.863   4.330
74810W        W34247  10.810  12.182   2.242
74811W        W34248  23.593  33.402   3.346
74812W        W34249   7.899  36.973  13.997
74813W        W34250  35.874   3.813   2.823
74814W        W34251  20.657  28.154   1.732
74815W        W34252  30.931   9.792  14.982
74816W        W34253  40.446  35.931   3.312
74817W        W34254   8.346   9.364  12.903
74818W        W34255  10.247  34.060   3.259
74819W        W34256  37.388   6.692   0.797
74820W        W34257   9.870  43.829   4.757
74821W        W34258   1.432  25.058   3.279
74822W        W34259  12.343  16.163   3.727
74823W        W34260   1.743  36.847  14.944
74824W        W34261  28.605  41.912   1.401
74825W        W34262  26.003  16.763   1.740
74826W        W34263  32.439   4.855  14.367
74827W        W34264  20.240  39.961   2.708
74828W        W34265  20.223  32.441   4.798
74829W        W34266   8.886  11.758   2.891
74830W        W34267   3.408  22.007  10.979
74831W        W34268  34.565  29.067   4.236
74832W        W34269  20.139   3.372  14.777
74833W        W34270  34.385  39.813   0.918
74834W        W34271  44.977  37.508   0.354
74835W        W34272  42.407  44.295  10.464
74836W        W34273  31.510   2.339  14.804
74837W        W34274  39.059  32.466   3.161
74838W        W34275  12.668  10.857   4.682
74839W        W34276   1.332  15.766  10.147
74840W        W34277  29.157  35.025   0.410
74841W        W34278  16.583   8.664   0.375
74842W        W34279  18.574   7.774   4.346
74843W        W34280  31.511  31.091   3.312
74844W        W34281  38.502  29.980  11.491
74845W        W34282  16.190  33.971   0.431
74846W        W34283  33.432  10.633  12.524
74847W        W34284   6.231  29.584   5.091
74848W        W34285  12.204  41.854   0.891
74849W        W34286  26.593   5.321  12.006
74850W        W34287  23.691  11.683   2.677
74851W        W34288   7.220   5.765   0.939
74852W        W34289  10.688  27.177  11.416
74853W        W34290  11.791  35.980   1.402
74854W        W34291  17.132  33.049   2.320
74855W        W34292   3.728  28.166   3.192
74856W        W34293   1.935  39.507   2.706
74857W        W34294  15.097  43.506   1.903
74858W        W34295  20.069   6.677   4.806
74859W        W34296  33.009  37.542   4.287
74860W        W34297  18.165   1.448  10.629
74861W        W34298  10.326  14.831  11.872
74862W        W34299  34.533  12.793  11.511
74863W        W34300   3.730   6.230   2.847
74864W        W34301  11.206  22.191  11.389
74865W        W34302  40.037  35.374   1.855
74866W        W34303  34.017  43.815   3.245
74867W        W34304  31.013   2.777   3.777
74868W        W34305  22.691  29.996  10.975
74869W        W34306  19.540   2.890  13.972
74870W        W34307  40.925  14.656  12.384
74871W        W34308  31.407  40.326   0.736
74872W        W34309  43.828  18.107  11.514
74873W        W34310  39.873  28.179   3.165
74874W        W34311  32.969  29.543  13.524
74875W        W34312   1.396  22.080   4.122
74876W        W34313  26.005  13.286   5.672
74877W        W34314   4.860  40.026  12.518
74878W        W34315  21.591  23.147   1.263
74879W        W34316  17.723   9.351   3.334
74880W        W34317  35.546  30.452   0.328
74881W        W34318   9.236  27.081   5.167
74882W        W34319  33.892  37.019  10.127
74883W        W34320  28.565  12.799   4.267
74884W        W34321  32.016  25.158   2.663
74885W        W34322  19.576  33.992  13.498
74886W        W34323  13.243  10.174   3.728
74887W        W34324   4.451  13.169  13.954
74888W        W34325   1.309  25.519   3.675
74889W        W34326   9.672   1.842   1.917
74890W        W34327   1.468  15.215  10.996
74891W        W34328  37.487  30.963   0.414
74892W        W34329  30.545  30.952   5.214
74893W        W34330   3.886  18.229   1.777
74894W        W34331   0.358  39.948   3.719
74895W        W34332  37.372  10.288   2.394
74896W        W34333  33.915  21.222  11.979
74897W        W34334  18.141  19.538   3.274
74898W        W34335  34.029  27.076   0.333
74899W        W34336   2.287  19.747   5.266
74900W        W34337  34.936  12.225   3.733
74901W        W34338  13.262  42.434   5.280
74902W        W34339   1.319   0.302  11.893
74903W        W34340   7.375  41.497   4.631
74904W        W34341  37.542  27.132   3.766
74905W        W34342  42.493  13.649  10.472
74906W        W34343  24.106  17.187   5.082
74907W        W34344  32.422  21.513   2.712
74908W        W34345  34.468  13.330  12.045
74909W        W34346  33.924  10.381  14.333
74910W        W34347  40.456  37.851  14.813
74911W        W34348  31.991  36.388  11.898
74912W        W34349  27.561   4.207   4.166
74913W        W34350   9.295   6.861  11.508
74914W        W34351   9.655   8.195  10.583
74915W        W34352  36.076   7.693  13.974
74916W        W34353  29.108  35.582   1.912
74917W        W34354  23.101  18.560   3.268
74918W        W34355  36.075  32.609  12.426
74919W        W34356  36.390  26.607   1.908
74920W        W34357  26.088  29.511  12.826
74921W        W34358   5.902  23.071   2.253
74922W        W34359  40.815  20.642  10.460
74923W        W34360   4.239  10.323   9.969
74924W        W34361   5.349  38.557  11.377
74925W        W34362   3.369  30.107  13.034
74926W        W34363  39.969  40.478  10.475
74927W        W34364  31.107  42.368  11.062
74928W        W34365  21.166  43.820   4.796
74929W        W34366  44.461  44.886  13.409
74930W        W34367  16.080  28.608  11.921
74931W        W34368  28.517  44.443  13.928
74932W        W34369  32.623  39.933   0.825
74933W        W34370  25.039  35.099   1.841
74934W        W34371   7.792  30.147   3.187
74935W        W34372  43.800  31.525   3.642
74936W        W34373  16.211  36.392   1.873
74937W        W34374  30.440  12.258   4.785
74938W        W34375   1.402  14.693  11.930
74939W        W34376  31.011  18.767  14.975
74940W        W34377  27.482  40.998  11.107
74941W        W34378  37.975   0.380   3.861
74942W        W34379  20.075  14.201   4.235
74943W        W34380  21.197   5.394  13.517
74944W        W34381  13.638  41.834   2.753
74945W        W34382  35.603  32.410   3.226
74946W        W34383  40.895  31.144   0.340
74947W        W34384  44.780  22.135  14.283
74948W        W34385  33.119  34.511   3.834
74949W        W34386  21.071  42.956   9.995
74950W        W34387  28.980  43.802   4.740
74951W        W34388  23.714   5.386  10.631
74952W        W34389  13.626  18.752   1.211
74953W        W34390  42.898  24.513   2.770
74954W        W34391  32.128  17.600  10.889
74955W        W34392  38.839  16.799   5.173
74956W        W34393  30.590  42.988   1.926
74957W        W34394   3.371  17.219   4.254
74958W        W34395  12.301  19.585  12.404
74959W        W34396   1.741   0.345  13.407
74960W        W34397  16.599  42.283  10.627
74961W        W34398  18.062   2.400  10.450
74962W        W34399  31.424  39.879   1.368
74963W        W34400  23.227  18.059  12.871
74964W        W34401   8.785  14.283   2.355
74965W        W34402  24.112  31.413   1.784
74966W        W34403   4.806  23.115   5.307
74967W        W34404   8.875   2.392   3.775
74968W        W34405  20.085  44.874  13.862
74969W        W34406   4.752   9.671  13.963
74970W        W34407  27.180   0.342   2.416
74971W        W34408   1.386   1.847   4.634
74972W        W34409  36.981  16.119  13.990
74973W        W34410  43.392  30.413   2.750
74974W        W34411  22.686   7.324   4.709
74975W        W34412  11.181   6.919   3.213
74976W        W34413  15.138   1.884   4.164
74977W        W34414   3.733  23.019  12.979
74978W        W34415  17.581   3.873  11.467
74979W        W34416   7.408  25.645   9.502
74980W        W34417  41.037  16.568  13.047
74981W        W34418  38.959  14.804   1.214
74982W        W34419  18.558  21.631  13.947
74983W        W34420   9.269  17.574   4.734
74984W        W34421  35.953  42.400  12.343
74985W        W34422  35.941  10.370  11.419
74986W        W34423  20.727  32.895  11.419
74987W        W34424  28.527  29.129  12.578
74988W        W34425  41.307  31.612   4.784
74989W        W34426  32.466  30.044   3.721
74990W        W34427  34.383  24.040   3.212
74991W        W34428  10.334   7.718  12.877
74992W        W34429  18.641  35.590  11.874
74993W        W34430  29.506  17.664   1.377
74994W        W34431  28.057   0.263   4.762
74995W        W34432  17.201   2.271  10.536
74996W        W34433  44.394   9.839  14.867
74997W        W34434   1.403  24.991  14.975
74998W        W34435  35.371  26.043   4.316
74999W        W34436  40.486  31.410  13.931
75000W        W34437  31.061  12.706  10.467
75001W        W34438  13.718  35.365   2.329
75002W        W34439   2.308  25.547   1.399
75003W        W34440   9.174  40.857   0.394
75004W        W34441  28.108  22.032  13.504
75005W        W34442  17.241   7.820   4.714
75006W        W34443   2.461  35.928   4.714
75007W        W34444  25.122   7.844   0.761
75008W        W34445  23.133  32.496  11.916
75009W        W34446  33.448   7.190  12.912
75010W        W34447  12.620  11.666   0.833
75011W        W34448   2.303   4.817   0.264
75012W        W34449  30.526   5.716  10.621
75013W        W34450  33.516  41.960  11.919
75014W        W34451  40.818  32.527  13.515
75015W        W34452  15.783  26.959   2.849
75016W        W34453  44.925   1.944   3.303
75017W        W34454  40.492  24.112   4.690
75018W        W34455  15.651   7.346   3.289
75019W        W34456  42.896  16.812   0.447
75020W        W34457  32.513  17.609  11.997
75021W        W34458  36.493  37.916  11.505
75022W        W34459  31.488  13.296  12.827
75023W        W34460  21.573  12.209  14.299
75024W        W34461  11.742   2.855  10.484
75025W        W34462  17.745   4.819  14.508
75026W        W34463  19.557  29.010  13.450
75027W        W34464   1.339  42.291   4.720
75028W        W34465  29.465  41.858  10.969
75029W        W34466  31.509  42.371  14.862
75030W        W34467  16.704  28.508  12.354
75031W        W34468  37.925  15.167   4.260
75032W        W34469  40.410  14.778  12.960
75033W        W34470  13.165   2.364  11.103
75034W        W34471  20.688  18.252  13.032
75035W        W34472  29.936   1.464   4.210
75036W        W34473  32.533  15.782   1.240
75037W        W34474   4.699  12.232  11.038
75038W        W34475   1.441   0.266   2.317
75039W        W34476  23.609  14.338   3.329
75040W        W34477   8.875  30.989   0.841
75041W        W34478  17.074   5.347   2.766
75042W        W34479  17.121  15.740  14.354
75043W        W34480  22.504  11.196   3.775
75044W        W34481  28.519  35.410   1.870
75045W        W34482  44.451  39.850  12.856
75046W        W34483   2.468  11.660   4.181
75047W        W34484  15.114  19.733  14.389
75048W        W34485  31.083  26.554  11.861
75049W        W34486  32.575  19.108  14.768
75050W        W34487  22.151   7.821  11.856
75051W        W34488  13.178  42.498  11.086
75052W        W34489   6.830  30.950   1.697
75053W        W34490  10.675  29.513  13.039
75054W        W34491  31.414   4.917  10.105
75055W        W34492  40.015   9.175  13.952
75056W        W34493  17.620  27.948   2.362
75057W        W34494  21.545  29.982  10.536
75058W        W34495  11.688  13.625  10.518
75059W        W34496  32.132  19.720   9.965
75060W        W34497  40.870   7.847   0.945
75061W        W34498  30.619   5.776   0.751
75062W        W34499  22.123   1.790   2.386
75063W        W34500  19.276  39.351   0.897
75064W        W34501  18.649   6.212  14.505
75065W        W34502  44.458  26.013  13.885
75066W        W34503  26.980  42.931  14.435
75067W        W34504   9.835  30.950   2.383
75068W        W34505  15.103   5.282  14.870
75069W        W34506  43.789  28.989   2.803
75070W        W34507   7.888  38.030   2.192
75071W        W34508  29.501   6.340  11.593
75072W        W34509  38.884  41.854  10.047
75073W        W34510  37.064   5.813  12.400
75074W        W34511  41.421   5.778   2.744
75075W        W34512   0.278  10.860   2.417
75076W        W34513  12.336   2.289   0.284
75077W        W34514  32.431  15.666  14.782
75078W        W34515  31.897   5.867   1.821
75079W        W34516  37.937  35.097  12.033
75080W        W34517  14.717   4.712   3.265
75081W        W34518  42.431  24.034  13.852
75082W        W34519  13.622  15.809   2.724
75083W        W34520  33.125  39.826   0.264
75084W        W34521  33.575  40.369  12.429
75085W        W34522  16.624  37.463   1.927
75086W        W34523  30.023  15.683  13.847
75087W        W34524   6.922  16.739   2.316
75088W        W34525  16.288  42.390   2.391
75089W        W34526  30.913   0.397  13.348
75090W        W34527  13.143  18.130  11.922
75091W        W34528  42.887  31.939  14.795
75092W        W34529  21.099  20.536  12.340
75093W        W34530   2.943  20.041  10.433
75094W        W34531   8.215  20.612   1.748
75095W        W34532  27.556  17.659   2.747
75096W        W34533  42.018  36.425   3.719
75097W        W34534  40.360  34.987   4.783
75098W        W34535  19.187  32.904   1.858
75099W        W34536  40.851   6.289   2.859
75100W        W34537  42.318  10.206   2.286
75101W        W34538  16.297  24.662   3.801
75102W        W34539  24.644   9.300  11.872
75103W        W34540  36.043   5.802  13.942
75104W        W34541   1.877  11.698   1.411
75105W        W34542  26.540  27.095   2.190
75106W        W34543  40.343  37.361   4.214
75107W        W34544  40.397  33.912  10.416
75108W        W34545  37.581  41.880   3.791
75109W        W34546   0.807  27.958   0.318
75110W        W34547  16.171  42.297  14.428
75111W        W34548  36.081  14.161  12.393
75112W        W34549  18.156  33.072   4.166
75113W        W34550   2.901   5.351   4.741
75114W        W34551  32.482  31.640   1.213
75115W        W34552   7.407  11.716  10.461
75116W        W34553  38.358  25.654   4.829
75117W        W34554  13.642  41.331   4.184
75118W        W34555  35.095  40.008   9.512
75119W        W34556   0.323  32.437   0.391
75120W        W34557  40.486  32.541   1.232
75121W        W34558  18.130  25.508   4.225
75122W        W34559  39.047  37.410   4.611
75123W        W34560  13.703  40.445   0.737
75124W        W34561  26.142  37.857   1.232
75125W        W34562  15.237   0.941  10.583
75126W        W34563  34.504   8.394   2.325
75127W        W34564  40.993   0.901  12.977
75128W        W34565  24.692  31.017  11.042
75129W        W34566  17.190  15.612  11.457
75130W        W34567   8.367  37.437   2.815
75131W        W34568  26.102   3.227   4.252
75132W        W34569  11.195  21.752  11.013
75133W        W34570  16.093  21.240   1.898
75134W        W34571   3.215   5.706   1.426
75135W        W34572  21.723   2.899  10.630
75136W        W34573  15.591   8.346   4.622
75137W        W34574  23.225  29.650  14.928
75138W        W34575  39.469  32.110  13.877
75139W        W34576  16.157  42.505  12.454
75140W        W34577   7.715  34.085   0.474
75141W        W34578  31.140  35.539   3.381
75142W        W34579  14.289  35.887  11.579
75143W        W34580  39.486   0.777   0.885
75144W        W34581   0.467  33.036  12.882
75145W        W34582  22.654  36.512  12.416
75146W        W34583   8.672  44.768   4.314
75147W        W34584  25.145  38.898   1.842
75148W        W34585  40.511   8.846   3.695
75149W        W34586  26.520   0.854  11.610
75150W        W34587  44.990  44.279   0.272
75151W        W34588  35.604  17.606  12.880
75152W        W34589  34.556  43.826   1.825
75153W        W34590  44.926  12.204   9.983
75154W        W34591  24.635   1.824  13.879
75155W        W34592  19.272   9.272  14.424
75156W        W34593  15.318  22.624  12.558
75157W        W34594  12.175  22.663   4.296
75158W        W34595   2.890   9.308   4.765
75159W        W34596   4.729  19.727  11.612
75160W        W34597   9.320  18.234  11.877
75161W        W34598   3.371  41.456  10.007
75162W        W34599  34.075  12.814   3.343
75163W        W34600  23.553   0.824   4.318
75164W        W34601  19.561  35.430   1.766
75165W        W34602  39.476   8.392  14.787
75166W        W34603  23.196   4.707   3.863
75167W        W34604  34.115  23.692  11.062
75168W        W34605   9.834  42.434  12.956
75169W        W34606  43.354  31.419   3.271
75170W        W34607   8.353   9.729   1.276
75171W        W34608  26.522  34.541   0.320
75172W        W34609  25.022  19.698  12.563
75173W        W34610  34.536  44.445  12.875
75174W        W34611   9.777  29.586  12.428
75175W        W34612  19.285  22.668  13.834
75176W        W34613  16.698  13.253  12.911
75177W        W34614  41.820  19.537  11.105
75178W        W34615  13.272  40.864  13.353
75179W        W34616  21.677   7.396  14.346
75180W        W34617  14.655  28.041   1.404
75181W        W34618  20.701  15.641  14.849
75182W        W34619   3.885  32.494  14.289
75183W        W34620  38.571  18.549  11.097
75184W        W34621   9.736   7.826  12.886
75185W        W34622  44.382  30.590   1.380
75186W        W34623  38.481   4.866   4.603
75187W        W34624  35.472   0.794  12.902
75188W        W34625  22.239   1.305  11.443
75189W        W34626  43.286  35.591  12.847
75190W        W34627   7.369  35.581  12.937
75191W        W34628   9.852   7.191   1.718
75192W        W34629  30.117  37.438  14.943
75193W        W34630  24.973  36.404   3.312
75194W        W34631  30.639  37.081   2.814
75195W        W34632  29.959  13.757   4.256
75196W        W34633  22.073  14.205   9.963
75197W        W34634  17.302  35.034  11.863
75198W        W34635  33.382  34.061  10.936
75199W        W34636  36.959  23.504   0.292
75200W        W34637  29.536  37.515   2.217
75201W        W34638  37.937  20.169  12.876
75202W        W34639  39.994  14.216  13.978
75203W        W34640  15.808  17.088  13.451
75204W        W34641  36.929  35.945  10.471
75205W        W34642  28.170   1.348  10.424
75206W        W34643  19.164  29.500   0.408
75207W        W34644  37.032  36.870   2.724
75208W        W34645  37.873  10.290   3.802
75209W        W34646  40.841  27.136   4.672
75210W        W34647  24.494   9.354  14.512
75211W        W34648  18.131  16.695  12.826
75212W        W34649  19.757   2.448  14.429
75213W        W34650  14.785   7.841  11.405
75214W        W34651  14.262  27.558  12.076
75215W        W34652  41.897  39.978   4.173
75216W        W34653  41.410  30.953  12.442
75217W        W34654   8.869  43.466   5.313
75218W        W34655   5.385  39.835  13.802
75219W        W34656  36.376  29.028  10.147
75220W        W34657  15.679   2.442  14.315
75221W        W34658  18.564  41.326   4.290
75222W        W34659   4.752   3.239   2.188
75223W        W34660  40.981  41.857   1.322
75224W        W34661  20.602  24.648  11.583
75225W        W34662  35.422  13.269  13.528
75226W        W34663  12.695  28.086   3.384
75227W        W34664  25.148  17.125   3.194
75228W        W34665  44.430  22.175   4.209
75229W        W34666  20.671  13.700  12.872
75230W        W34667  44.933   8.822   0.766
75231W        W34668  38.571  35.941   0.910
75232W        W34669  38.524  20.077  12.904
75233W        W34670   4.316   8.736  13.860
75234W        W34671  34.046  37.556   2.681
75235W        W34672  37.085   2.880  10.430
75236W        W34673   2.779  13.277  12.472
75237W        W34674   6.226  21.738  12.045
75238W        W34675  21.752  18.578   1.218
75239W        W34676   4.881  42.437   0.292
75240W        W34677  29.132  43.398   3.710
75241W        W34678  37.931  17.581  12.018
75242W        W34679  20.052  13.746  13.383
75243W        W34680  15.796  42.484   0.319
75244W        W34681  12.274  20.704   3.241
75245W        W34682  23.017  10.697   2.765
75246W        W34683  40.377  26.608   2.287
75247W        W34684  32.014   9.349   2.401
75248W        W34685  23.556  41.859   0.896
75249W        W34686   3.857  14.793  10.413
75250W        W34687  23.068  27.459   4.720
75251W        W34688   0.790  40.897   0.828
75252W        W34689  43.910  26.667   0.751
75253W        W34690  43.013  23.053  14.370
75254W        W34691  14.232  39.872  14.867
75255W        W34692  18.063  43.789  10.417
75256W        W34693  15.698  16.191   2.682
75257W        W34694  35.360  11.640   3.738
75258W        W34695  23.137   3.372  14.387
75259W        W34696  14.313  33.902  13.402
75260W        W34697  15.621   1.813  11.609
75261W        W34698   5.352   0.800   0.382
75262W        W34699   2.337  17.676  12.548
75263W        W34700  43.790  13.206   4.722
75264W        W34701  21.124  26.549  13.358
75265W        W34702   1.916   1.410   0.362
75266W        W34703  16.777   0.375   4.286
75267W        W34704  34.904  40.847  13.817
75268W        W34705  43.770  29.551  12.083
75269W        W34706  37.535   8.733  13.929
75270W        W34707  26.584  40.370   4.599
75271W        W34708  42.396  16.630  10.514
75272W        W34709  33.998  19.149   3.711
75273W        W34710  13.657  41.430  13.950
75274W        W34711  12.711  17.745  12.888
75275W        W34712  20.085  42.015   3.838
75276W        W34713  20.744  31.541   4.222
75277W        W34714  24.190   2.429  13.878
75278W        W34715  16.142  21.746   4.620
75279W        W34716  19.260   5.931   3.727
75280W        W34717  37.471  30.931  14.888
75281W        W34718  11.780  26.548  11.539
75282W        W34719  35.930  37.509   2.839
75283W        W34720  21.726   4.234  13.323
75284W        W34721  32.556  33.454   0.917
75285W        W34722  41.006  40.485  13.014
75286W        W34723  32.569   1.395   0.335
75287W        W34724   7.188  34.041  13.968
75288W        W34725  41.008  31.562  14.297
75289W        W34726  41.422  35.916  13.463
75290W        W34727  18.074  27.583   0.852
75291W        W34728   8.351  14.784  12.851
75292W        W34729  31.515  23.524  13.391
75293W        W34730  11.201  44.959   1.772
75294W        W34731  24.660  37.019  10.527
75295W        W34732   8.231  20.742  14.947
75296W        W34733  33.033  40.897  12.080
75297W        W34734  34.001  36.062   2.881
75298W        W34735  14.693  12.671  13.313
75299W        W34736  43.405   4.827   2.681
75300W        W34737  16.763   0.794  13.323
75301W        W34738  13.120   5.931  14.809
75302W        W34739   2.866  26.184   5.730
75303W        W34740  28.162   2.411  14.382
75304W        W34741  17.189  22.544   4.244
75305W        W34742  35.462  28.038  12.358
75306W        W34743   6.195  41.501  14.910
75307W        W34744  41.848  22.101   2.202
75308W        W34745  25.997  35.032   3.289
75309W        W34746  14.696  18.071  13.800
75310W        W34747  26.473  33.130  10.936
75311W        W34748   0.426  37.039   0.268
75312W        W34749  44.301  26.975  13.335
75313W        W34750  39.860   9.675   0.354
75314W        W34751  27.626  28.140   1.333
75315W        W34752  37.496  17.066   1.341
75316W        W34753  33.454   9.646   2.831
75317W        W34754  37.479  30.145  14.501
75318W        W34755  18.158  29.554  14.967
75319W        W34756   8.759  28.169   2.279
75320W        W34757  39.012  22.138   0.440
75321W        W34758  36.046  12.117   0.764
75322W        W34759  14.802  20.634   3.271
75323W        W34760  21.655  24.134  14.874
75324W        W34761  31.409   5.761  11.386
75325W        W34762   1.735  10.641   9.953
75326W        W34763  24.125  39.326   0.313
75327W        W34764  11.280  37.372  10.578
75328W        W34765  35.364  15.325  10.599
75329W        W34766  17.786   0.777   1.318
75330W        W34767  17.598  13.688  11.976
75331W        W34768   1.347  43.832  14.838
75332W        W34769  31.921  13.749   3.810
75333W        W34770  40.431   8.387  14.894
75334W        W34771  18.055  26.082  11.452
75335W        W34772  15.191  28.031  12.934
75336W        W34773  21.678  31.623  11.489
75337W        W34774  32.554  42.845   3.373
75338W        W34775  38.536   8.228  14.980
75339W        W34776  15.664  14.331   3.754
75340W        W34777   0.922   4.320  11.008
75341W        W34778  20.761  24.057  11.479
75342W        W34779  12.767  23.144   0.286
75343W        W34780  36.555  35.075   4.115
75344W        W34781  31.976  32.583  14.023
75345W        W34782   3.717  41.956  13.506
75346W        W34783  31.403   1.908  14.401
75347W        W34784  36.360  34.596   0.267
75348W        W34785  40.478  32.886   1.861
75349W        W34786  25.709  33.486  11.936
75350W        W34787  21.700  28.132  13.909
75351W        W34788   4.843   3.339   0.267
75352W        W34789  11.674  18.091  13.855
75353W        W34790   7.776  24.491  11.427
75354W        W34791  34.406  31.433  13.459
75355W        W34792  41.918  16.138  10.562
75356W        W34793  36.476  20.114  12.886
75357W        W34794  34.544   3.262   2.894
75358W        W34795  26.540  13.147   2.205
75359W        W34796   9.248  39.024   0.962
75360W        W34797  11.857  13.287  10.549
75361W        W34798  13.736  32.062   0.298
75362W        W34799  31.471   7.704   3.682
75363W        W34800   0.955  26.995  13.523
75364W        W34801  34.508  13.174   1.427
75365W        W34802  25.687   6.291   2.722
75366W        W34803  22.232  34.521   1.215
75367W        W34804  30.152  43.447  11.964
75368W        W34805  22.688  11.172  13.444
75369W        W34806  14.806   3.255  12.564
75370W        W34807  29.942  38.904  10.003
75371W        W34808  26.172  32.915   2.768
75372W        W34809  37.942  27.115   1.238
75373W        W34810  23.083  37.945  13.934
75374W        W34811  17.797  27.188   0.871
75375W        W34812   4.440   9.335   0.797
75376W        W34813   4.228  30.144  11.388
75377W        W34814  39.398  31.003  11.975
75378W        W34815  15.634   5.365   0.750
75379W        W34816  42.878  22.089  13.998
75380W        W34817  41.865  11.798   0.457
75381W        W34818  22.236  43.479  13.822
75382W        W34819  32.957  44.777  14.025
75383W        W34820  22.672  28.054   0.461
75384W        W34821  43.961  14.614   4.275
75385W        W34822  13.780  26.587  13.455
75386W        W34823   4.836  37.570  14.333
75387W        W34824  25.677  12.199   2.833
75388W        W34825  23.622   0.935  14.299
75389W        W34826  17.598  40.394   3.785
75390W        W34827  18.051   2.865   1.915
75391W        W34828  42.816   6.792  13.314
75392W        W34829  41.843  33.108   0.910
75393W        W34830  44.264  22.035   1.346
75394W        W34831  17.095  35.477  10.490
75395W        W34832  35.997  27.589   4.311
75396W        W34833  36.397  38.018   1.856
75397W        W34834  21.529   0.905   9.924
75398W        W34835  20.667  30.110   0.422
75399W        W34836  30.506  23.548  12.002
75400W        W34837  18.691  24.099   0.423
75401W        W34838   6.213   6.205   1.802
75402W        W34839  33.408  30.500  13.494
75403W        W34840  44.937   1.240   1.286
75404W        W34841   9.701  36.014  13.543
75405W        W34842  18.738  42.442   1.870
75406W        W34843  20.747   1.347   0.349
75407W        W34844   3.252  29.058   2.217
75408W        W34845  10.247  15.606   4.170
75409W        W34846  12.621  24.637   0.850
75410W        W34847  44.802   4.412   0.378
75411W        W34848  33.037   2.266   0.477
75412W        W34849  35.888  26.702   4.790
75413W        W34850  40.318  36.087   0.932
75414W        W34851   9.730  42.356   2.767
75415W        W34852   4.273  25.036   5.130
75416W        W34853  24.590  16.140  14.282
75417W        W34854  41.838   9.729   2.214
75418W        W34855  14.180   4.223   2.335
75419W        W34856  10.818  12.325   3.827
75420W        W34857  33.575   8.781  14.945
75421W        W34858  34.090   5.907  11.856
75422W        W34859   4.789  20.620   0.324
75423W        W34860  26.626  42.889   4.682
75424W        W34861  16.263  12.299   0.869
75425W        W34862  17.570  13.340   4.793
75426W        W34863  21.193  28.957   1.356
75427W        W34864  16.224  27.675  10.509
75428W        W34865   3.360  33.487  12.467
75429W        W34866   5.286  38.399   1.304
75430W        W34867  32.978   9.834   0.825
75431W        W34868  36.506  25.576   0.252
75432W        W34869  22.047  27.465  11.120
75433W        W34870  43.950  19.640   4.684
75434W        W34871  26.643   7.337   3.721
75435W        W34872  28.175  44.442   1.238
75436W        W34873  14.728  34.453  11.405
75437W        W34874  35.454   2.462  12.519
75438W        W34875  25.016  20.081   2.181
75439W        W34876  31.598   3.924  12.876
75440W        W34877   4.419   4.832  11.423
75441W        W34878  19.752  43.933  11.856
75442W        W34879  40.833  36.976  11.518
75443W        W34880   7.696   6.257   5.249
75444W        W34881  39.005  12.154  12.437
75445W        W34882  36.546  25.024  13.506
75446W        W34883  20.042  12.362   3.868
75447W        W34884  24.491  38.424   1.332
75448W        W34885  41.005  22.511  11.371
75449W        W34886  42.814  25.614   5.288
75450W        W34887  35.546  34.561  14.976
75451W        W34888  16.078  29.968   4.142
75452W        W34889  11.625   0.462   3.256
75453W        W34890   6.685  15.191  12.426
75454W        W34891  20.094  33.995  12.448
75455W        W34892  41.926  24.137   3.649
75456W        W34893   2.748  40.503  10.483
75457W        W34894  41.872   2.346  11.453
75458W        W34895  12.791  38.407   0.459
75459W        W34896  19.058  13.612   2.729
75460W        W34897  27.109   8.376  14.287
75461W        W34898   9.791  23.640  12.426
75462W        W34899  35.506  14.197   3.756
75463W        W34900  29.928  38.410   1.289
75464W        W34901  42.325  32.062   4.756
75465W        W34902  36.587   3.849  10.404
75466W        W34903   7.668  21.080  10.548
75467W        W34904  30.480  21.689   1.778
75468W        W34905  26.025  37.400   4.211
75469W        W34906  37.338  12.136   1.899
75470W        W34907  14.713   0.385   4.804
75471W        W34908  11.131   5.343   1.319
75472W        W34909  34.384  36.983   3.781
75473W        W34910  41.891   5.418   4.749
75474W        W34911  32.135  23.666  12.849
75475W        W34912  14.801  28.560   0.307
75476W        W34913  39.830   4.363   2.880
75477W        W34914  36.873  23.564   3.325
75478W        W34915  19.697  26.075  10.404
75479W        W34916   6.268  23.182  13.456
75480W        W34917  22.142  19.723   4.686
75481W        W34918  17.266  11.676  10.418
75482W        W34919  12.639  33.400   2.804
75483W        W34920   0.364  10.648   3.331
75484W        W34921  33.968  44.869  13.543
75485W        W34922  39.000  26.507   5.309
75486W        W34923   3.416  29.016  10.545
75487W        W34924  20.085  12.294   0.924
75488W        W34925  34.575  11.207   1.885
75489W        W34926  26.537  34.403   3.281
75490W        W34927  28.508  43.789  13.794
75491W        W34928   7.757  12.167   2.403
75492W        W34929  13.694  24.578   2.812
75493W        W34930  22.014   3.718   3.292
75494W        W34931  23.682  11.345  14.351
75495W        W34932  38.533   7.822  12.000
75496W        W34933   7.799   1.302   3.284
75497W        W34934  17.087  20.259   4.122
75498W        W34935  15.770  43.412  13.916
75499W        W34936  33.030   6.759  11.512
75500W        W34937   4.432  40.924  10.596
75501W        W34938   5.809   2.401  12.940
75502W        W34939  32.431  22.068   2.351
75503W        W34940   2.957  26.124   2.395
75504W        W34941   0.490  23.239  13.333
75505W        W34942  11.256  37.435   4.663
75506W        W34943  28.981  42.301   4.822
75507W        W34944   5.427  39.352   2.405
75508W        W34945   7.322  26.474   2.694
75509W        W34946  41.972  28.956  14.342
75510W        W34947  16.113  20.714  10.988
75511W        W34948  18.738  38.519  13.991
75512W        W34949  30.956  15.787   2.742
75513W        W34950  22.745  36.860  14.815
75514W        W34951  28.113  33.001   2.242
75515W        W34952  26.096  21.544   5.162
75516W        W34953  36.447  43.382   0.892
75517W        W34954  33.918  39.352   0.896
75518W        W34955  18.082  26.571   1.440
75519W        W34956  24.648  29.169   3.804
75520W        W34957   1.944   1.481  10.968
75521W        W34958  13.831  15.156  12.894
75522W        W34959  26.624  28.938   4.293
75523W        W34960   6.283  25.051  10.056
75524W        W34961  15.608  12.190   3.158
75525W        W34962  22.609  31.934  10.552
75526W        W34963   2.358   9.714   4.706
75527W        W34964   4.937  18.577  11.501
75528W        W34965  36.361  30.153  13.356
75529W        W34966  29.627  35.603  14.388
75530W        W34967   2.847  36.096   3.277
75531W        W34968  21.210  25.209   2.745
75532W        W34969  27.666  34.077  10.963
75533W        W34970  24.997  13.670  13.862
75534W        W34971   6.880  15.230  13.812
75535W        W34972  15.120  35.446  13.329
75536W        W34973  34.404  12.714   3.212
75537W        W34974   1.456  30.570  10.603
75538W        W34975  23.586  16.083  10.405
75539W        W34976  23.626  18.737  13.957
75540W        W34977  35.393  40.478   3.750
75541W        W34978   6.894  34.002  13.935
75542W        W34979  14.218   6.761  12.043
75543W        W34980  32.460  38.423  10.435
75544W        W34981  31.951  41.857   2.766
75545W        W34982  26.194  13.177  12.034
75546W        W34983  41.519  31.027  10.572
75547W        W34984  37.902  34.026  12.912
75548W        W34985  32.604  41.043   3.340
75549W        W34986  42.403  32.958  11.389
75550W        W34987  43.889  24.585   2.283
75551W        W34988  20.685   5.894  10.612
75552W        W34989  39.442  10.766  10.578
75553W        W34990  13.259  32.937  13.512
75554W        W34991  35.936   9.385  12.504
75555W        W34992  19.712  44.313   2.812
75556W        W34993  11.635  36.547   1.703
75557W        W34994  17.178  15.257   2.392
75558W        W34995  17.267  28.065  12.485
75559W        W34996  28.543  35.954   3.233
75560W        W34997  13.745  32.578   0.907
75561W        W34998  12.799   6.812   4.824
75562W        W34999  38.054  32.574  10.553
75563W        W35000  29.933  19.147   0.877
75564W        W35001  20.532  43.959  13.903
75565W        W35002  20.759   0.483   2.845
75566W        W35003   0.427  11.857  10.902
75567W        W35004  41.031  38.064   4.799
75568W        W35005   0.482  31.014   0.371
75569W        W35006  38.354  21.691  14.894
75570W        W35007  21.191  39.018  12.487
75571W        W35008  14.144  15.744  12.857
75572W        W35009  12.667   2.299   0.442
75573W        W35010   6.411  20.212   4.246
75574W        W35011  22.547  17.294  10.445
75575W        W35012   5.371  33.052   1.365
75576W        W35013  29.148  30.108   3.743
75577W        W35014  26.115  35.510   5.605
75578W        W35015  36.429  20.148  10.905
75579W        W35016  43.409  22.538   4.122
75580W        W35017  28.615  30.108  13.310
75581W        W35018  40.856  21.080  11.490
75582W        W35019  15.805  11.178  10.421
75583W        W35020  37.467  33.131   3.721
75584W        W35021  26.049  38.846  12.978
75585W        W35022   6.361  10.179   0.349
75586W        W35023   9.664  41.871   2.281
75587W        W35024  22.733  37.416  12.966
75588W        W35025  25.494  23.184   1.335
75589W        W35026   5.338  24.619  11.863
75590W        W35027  22.729  34.930  10.936
75591W        W35028   0.433  23.651   3.278
75592W        W35029  35.358  14.604  10.619
75593W        W35030  34.090  41.424   4.354
75594W        W35031  27.194  36.889  14.433
75595W        W35032  41.881  41.960   1.413
75596W        W35033  39.987  20.132   2.286
75597W        W35034  41.991   8.656   5.251
75598W        W35035  30.061  17.777   1.743
75599W        W35036   3.426  17.208   4.764
75600W        W35037  29.594   0.333   4.639
75601W        W35038  27.039  15.303  10.906
75602W        W35039  24.634  26.512   1.832
75603W        W35040   3.391  23.084  13.039
75604W        W35041  17.259   4.887   9.968
75605W        W35042  19.194  20.225   1.799
75606W        W35043  30.916   5.698   4.732
75607W        W35044  26.973  25.022   4.715
75608W        W35045  23.585   7.350   4.707
75609W        W35046  42.978   7.815   0.903
75610W        W35047  22.030  34.565   4.147
75611W        W35048  27.033  19.696   3.763
75612W        W35049  39.857  11.731  13.454
75613W        W35050  22.216   9.182   2.257
75614W        W35051  40.916  37.381   3.771
75615W        W35052  29.122   1.481   0.891
75616W        W35053  30.990   4.784   0.883
75617W        W35054  38.469  31.118  14.975
75618W        W35055  34.474  24.576   3.757
75619W        W35056  37.973  42.940  14.489
75620W        W35057  26.022   5.699  10.584
75621W        W35058   4.888   2.852  13.539
75622W        W35059  33.380  44.270  14.476
75623W        W35060  19.760  29.020   0.856
75624W        W35061   7.185  43.347   2.399
75625W        W35062  39.064  19.207   3.257
75626W        W35063  17.288   3.411   1.813
75627W        W35064   2.731  23.192  13.519
75628W        W35065  40.960   2.902  12.906
75629W        W35066  28.057  31.566  12.486
75630W        W35067  24.991  23.609  14.368
75631W        W35068  23.565  18.633  12.918
75632W        W35069  12.303  26.204  11.104
75633W        W35070   8.791  36.051   4.780
75634W        W35071  28.094   0.481  13.834
75635W        W35072  29.925   0.837  13.379
75636W        W35073  39.334  36.522   4.150
75637W        W35074  41.882  43.361  13.790
75638W        W35075   7.816  29.530   3.708
75639W        W35076   1.468  34.506  13.961
75640W        W35077  29.443  25.539   1.774
75641W        W35078  33.571   6.820  12.508
75642W        W35079  18.659  41.473  13.544
75643W        W35080  22.137  37.537  14.989
75644W        W35081  19.088  37.485  11.874
75645W        W35082  22.051   2.463  14.308
75646W        W35083   3.264  12.638  13.490
75647W        W35084  11.727  11.690  14.443
75648W        W35085  19.659   0.450   4.813
75649W        W35086   5.885  24.684   3.686
75650W        W35087   5.418  18.657   0.475
75651W        W35088  25.671  23.550   1.246
75652W        W35089  30.064   3.274  10.581
75653W        W35090  23.489  29.990   0.913
75654W        W35091  33.883   5.821   2.763
75655W        W35092  43.837  14.713   3.823
75656W        W35093   3.409  33.566  11.895
75657W        W35094  29.061   9.257  10.533
75658W        W35095  10.838  15.117   1.275
75659W        W35096  10.690  43.420   1.904
75660W        W35097  37.833  21.165  10.945
75661W        W35098  30.002  32.417  14.910
75662W        W35099  10.204  18.561   1.216
75663W        W35100   4.265   5.227   0.363
75664W        W35101  13.667  30.441  11.449
75665W        W35102  21.635  44.759  11.910
75666W        W35103   9.260   8.219  11.544
75667W        W35104  25.007  15.587  14.839
75668W        W35105   1.883   7.414  11.460
75669W        W35106  40.429  32.603  13.988
75670W        W35107  28.949  23.573   1.704
75671W        W35108  33.967  14.681  13.987
75672W        W35109   4.773  26.579   2.417
75673W        W35110  17.161  30.632   9.959
75674W        W35111  25.994  14.819  10.988
75675W        W35112  18.558  22.126   3.864
75676W        W35113  29.470  41.892  13.498
75677W        W35114  20.165   7.302   0.798
75678W        W35115  37.047   6.752  13.854
75679W        W35116   4.398  40.304   1.758
75680W        W35117  44.395  31.122  10.977
75681W        W35118  35.600   2.750   0.435
75682W        W35119   9.754  31.984   2.236
75683W        W35120  41.468   8.724  11.021
75684W        W35121   9.271  21.105   9.958
75685W        W35122  29.020  13.774  12.078
75686W        W35123  34.481  18.208  13.993
75687W        W35124  20.710   7.242  12.945
75688W        W35125   7.839  30.540   4.737
75689W        W35126  30.639  38.850  14.306
75690W        W35127  39.879   5.859   1.757
75691W        W35128  34.425  35.935   4.775
75692W        W35129   9.803  19.756  11.475
75693W        W35130  38.905   9.271  14.381
75694W        W35131  34.897  19.655   1.433
75695W        W35132  44.868  20.569   3.225
75696W        W35133  30.125  41.523   4.646
75697W        W35134  35.109  11.856   5.202
75698W        W35135  34.903  16.760   2.845
75699W        W35136   5.310  22.199   0.769
75700W        W35137  42.923  43.892  13.354
75701W        W35138   4.316  33.405  10.921
75702W        W35139  20.611  36.510  10.553
75703W        W35140  39.966   0.435  12.875
75704W        W35141  28.105  36.585   4.701
75705W        W35142  28.057  30.562   1.792
75706W        W35143  20.091  39.559  14.368
75707W        W35144  39.321  17.113  12.458
75708W        W35145  37.562  15.582  10.442
75709W        W35146  32.617   9.833   0.893
75710W        W35147   4.294  37.064   3.740
75711W        W35148  26.511  42.840   2.810
75712W        W35149  15.680   5.261   0.316
75713W        W35150   4.266   2.787   2.329
75714W        W35151   1.408   2.466  11.122
75715W        W35152   4.794  30.154  13.891
75716W        W35153  33.588  35.555   4.813
75717W        W35154  25.025  15.166   5.173
75718W        W35155  17.576  42.984   2.842
75719W        W35156   1.837  34.103   4.168
75720W        W35157  23.154   3.951  14.917
75721W        W35158   6.227  16.084  11.111
75722W        W35159  41.446  35.089  13.944
75723W        W35160  24.629   2.420  11.014
75724W        W35161   7.353  30.916  10.440
75725W        W35162  42.806  38.571   9.533
75726W        W35163  14.250  12.812  14.501
75727W        W35164   4.756  16.700   3.678
75728W        W35165  31.594  13.122   0.953
75729W        W35166  12.797   4.848   1.394
75730W        W35167   3.832  27.623   3.299
75731W        W35168   0.395  23.678   0.810
75732W        W35169  15.817  15.148  12.093
75733W        W35170   8.163   0.816   0.392
75734W        W35171   0.860   0.371  11.070
75735W        W35172  31.520  35.107   4.124
75736W        W35173  41.332  36.353  14.006
75737W        W35174   2.891  20.034  12.978
75738W        W35175  36.088  39.536   0.849
75739W        W35176  41.988  23.660  12.038
75740W        W35177   5.761  19.276  10.517
75741W        W35178  30.020  19.050  13.416
75742W        W35179   9.336  17.187   4.132
75743W        W35180  22.114  13.348   2.331
75744W        W35181  43.401  41.037   3.373
75745W        W35182  25.484  43.303   0.367
75746W        W35183  40.814   8.755  14.984
75747W        W35184  40.515  16.296   3.257
75748W        W35185  18.677  22.066  10.956
75749W        W35186  17.294   7.681   3.272
75750W        W35187  28.057  17.761  14.362
75751W        W35188  21.621  31.483  13.005
75752W        W35189  43.804   4.379   4.819
75753W        W35190  14.600  15.234  12.912
75754W        W35191  36.443   2.950  12.034
75755W        W35192  28.676  40.867   4.735
75756W        W35193   4.316  37.526   3.386
75757W        W35194  28.673  41.971  11.991
75758W        W35195  32.635   4.343  13.927
75759W        W35196   2.386  32.125   4.276
75760W        W35197   6.876  34.108   4.138
75761W        W35198   6.232  28.632  14.282
75762W        W35199  27.471  29.998   0.841
75763W        W35200  30.915  42.940   3.246
75764W        W35201  14.249  25.574   4.795
75765W        W35202  14.784  17.113   4.697
75766W        W35203  30.140  18.567  14.863
75767W        W35204  33.598  13.722  12.359
75768W        W35205   7.279  10.789  13.002
75769W        W35206  31.083  30.019  11.584
75770W        W35207  39.365   5.819  14.304
75771W        W35208  43.487  11.763   3.740
75772W        W35209  26.635  15.290   4.674
75773W        W35210  44.003  42.013   3.148
75774W        W35211  43.415  31.114   0.321
75775W        W35212  20.140  22.534  12.830
75776W        W35213  27.555  20.648  10.617
75777W        W35214  26.120  26.496   2.343
75778W        W35215  14.670  31.423  14.472
75779W        W35216  36.027  16.094   0.255
75780W        W35217   4.733  12.822   3.759
75781W        W35218  13.150   0.779  10.611
75782W        W35219  15.213  28.644   1.340
75783W        W35220  36.399  33.517   9.999
75784W        W35221  30.634   0.325  11.040
75785W        W35222  25.547  23.193   5.193
75786W        W35223  22.531  34.468   1.247
75787W        W35224  37.063  36.467  13.417
75788W        W35225   4.322   5.776  10.641
75789W        W35226  43.869  34.977   0.357
75790W        W35227  41.993   3.779  12.961
75791W        W35228  23.148  34.377  10.607
75792W        W35229  39.382   9.815  13.447
75793W        W35230  17.705  16.574   0.847
75794W        W35231  41.501  33.978   1.353
75795W        W35232  34.949  37.935  10.967
75796W        W35233  27.669  28.018  11.385
75797W        W35234  11.761  32.933  11.090
75798W        W35235   2.431  38.363   0.785
75799W        W35236   9.332  15.738   4.768
75800W        W35237  36.024  39.918   2.814
75801W        W35238  36.983  18.221   0.243
75802W        W35239  26.461  27.627   4.151
75803W        W35240  32.906  37.962  12.414
75804W        W35241  12.842   1.801   2.771
75805W        W35242   1.752  26.178  12.841
75806W        W35243  29.542  42.478  10.962
75807W        W35244  31.117  16.309   4.302
75808W        W35245  28.017   9.270  14.350
75809W        W35246   4.783   2.455  12.066
75810W        W35247  30.093  20.136  10.153
75811W        W35248  39.370  18.199  11.021
75812W        W35249  25.093  19.115   4.633
75813W        W35250  24.723  17.618  12.016
75814W        W35251  39.463  27.451  11.565
75815W        W35252  30.015  11.849   1.852
75816W        W35253  32.115  38.012   2.667
75817W        W35254  11.175  30.956  12.866
75818W        W35255  20.730  25.519  12.547
75819W        W35256  29.468  27.037  12.448
75820W        W35257  30.064  21.218   1.371
75821W        W35258  17.702  18.219   3.260
75822W        W35259  14.627  23.710  10.539
75823W        W35260  39.896   6.324  10.499
75824W        W35261  10.202  21.129   4.325
75825W        W35262  37.925  41.292  10.479
75826W        W35263  42.435  25.049  14.926
75827W        W35264  20.739  39.465  12.499
75828W        W35265  34.581  29.921  12.420
75829W        W35266   7.751  38.073  13.007
75830W        W35267  14.177  32.589  12.938
75831W        W35268  10.819  11.750   1.805
75832W        W35269   6.201  23.107  12.882
75833W        W35270  29.446  12.644  12.908
75834W        W35271  20.727  16.259   1.794
75835W        W35272  31.606  42.981  11.612
75836W        W35273   5.852  32.016   4.129
75837W        W35274  15.316  29.461  12.043
75838W        W35275  31.571  43.848  13.458
75839W        W35276  20.628  23.680  12.852
75840W        W35277  35.004   9.272   4.316
75841W        W35278  42.856  16.738   1.828
75842W        W35279  31.104   0.957   2.222
75843W        W35280   5.304  29.037  14.826
75844W        W35281  19.264  27.613   2.833
75845W        W35282   7.190   3.952   3.747
75846W        W35283  39.873  29.600  11.452
75847W        W35284  15.169   9.305  11.568
75848W        W35285  39.335  34.865  12.989
75849W        W35286  39.467  34.071   1.334
75850W        W35287   7.216  43.964   1.783
75851W        W35288  42.477  26.049  11.856
75852W        W35289  13.659  29.974  14.014
75853W        W35290  35.878   2.235   4.181
75854W        W35291  19.627  18.157   1.793
75855W        W35292   2.923  14.738   1.739
75856W        W35293   5.240  16.707   3.355
75857W        W35294   3.300  16.213   5.613
75858W        W35295  38.838  31.922   0.365
75859W        W35296   2.451  21.164   2.752
75860W        W35297  22.143  31.537  12.975
75861W        W35298   3.411  10.280   0.876
75862W        W35299  14.716  40.884   5.790
75863W        W35300  34.069  31.062  10.643
75864W        W35301   2.759  11.634  11.908
75865W        W35302  13.338  17.125  12.573
75866W        W35303  24.978   6.236  14.448
75867W        W35304  14.338  33.610   3.645
75868W        W35305   7.818  29.640   2.813
75869W        W35306  24.005  34.596   3.248
75870W        W35307   3.871   7.665  14.497
75871W        W35308  14.612  43.825   0.434
75872W        W35309  33.975  32.919  13.327
75873W        W35310  31.463  31.628  12.419
75874W        W35311  32.069  10.164  12.561
75875W        W35312  27.977  21.565  12.526
75876W        W35313  39.936  41.466  14.768
75877W        W35314  22.118  33.610   2.779
75878W        W35315  40.430  41.498  11.922
75879W        W35316  17.751  29.660  10.513
75880W        W35317  37.470  44.371   1.924
75881W        W35318  36.959  10.182  11.024
75882W        W35319  16.310  21.723   3.633
75883W        W35320  27.524  15.626   2.698
75884W        W35321   6.771   6.708   2.691
75885W        W35322  14.664  40.028  14.430
75886W        W35323  31.032  11.132  10.034
75887W        W35324  17.736  43.285   1.317
75888W        W35325  40.968  35.428  11.112
75889W        W35326  11.317  42.402   4.321
75890W        W35327  37.907  34.949  12.992
75891W        W35328  30.636  28.552  10.895
75892W        W35329  44.319  27.517   3.386
75893W        W35330  18.679  12.624  14.992
75894W        W35331   8.796  17.071   2.792
75895W        W35332  24.989  17.111  13.900
75896W        W35333  32.059   2.809   1.716
75897W        W35334  28.085  44.396  14.292
75898W        W35335  12.130  23.208   0.377
75899W        W35336  30.477  33.106  10.571
75900W        W35337  33.423  15.610   1.854
75901W        W35338   7.714   5.310  13.512
75902W        W35339  18.069  36.086   2.831
75903W        W35340  40.901  37.849  14.420
75904W        W35341   3.262  42.904   1.382
75905W        W35342  14.264  11.345   3.271
75906W        W35343  22.149  15.190   4.188
75907W        W35344  44.791  44.321   3.215
75908W        W35345  36.943  43.487   0.964
75909W        W35346  22.699  36.478  10.538
75910W        W35347  13.298   3.785   0.827
75911W        W35348  42.797  24.660  14.805
75912W        W35349   8.770  39.413  12.020
75913W        W35350   3.822   3.884  11.491
75914W        W35351  11.200   5.416  13.824
75915W        W35352   2.320   0.276   2.897
75916W        W35353   0.376  42.885   4.153
75917W        W35354   4.298  36.075  13.432
75918W        W35355  42.953   1.833   0.920
75919W        W35356  15.613  19.166   1.444
75920W        W35357   5.717   8.811  12.498
75921W        W35358  42.776  41.484  11.519
75922W        W35359   3.721   5.848   1.775
75923W        W35360   8.774  20.734  11.563
75924W        W35361  18.245  24.104   3.210
75925W        W35362  42.857  42.028  13.928
75926W        W35363  43.332  35.509  13.497
75927W        W35364  12.804  37.885  12.457
75928W        W35365  35.367  24.029   2.734
75929W        W35366  31.089  37.477  13.791
75930W        W35367  30.145  37.435   2.790
75931W        W35368   5.781   1.813   1.267
75932W        W35369  15.146   7.316  14.894
75933W        W35370   1.749  25.702   3.220
75934W        W35371  34.542  33.419  13.022
75935W        W35372  21.618  22.592   0.348
75936W        W35373  42.875  36.481   0.368
75937W        W35374  20.035  19.170   0.769
75938W        W35375  15.623   4.798   4.328
75939W        W35376  27.618  24.663   1.391
75940W        W35377  44.993  16.585   3.352
75941W        W35378  33.046  41.022   0.457
75942W        W35379   6.748  38.834  12.556
75943W        W35380  43.817  37.880  12.044
75944W        W35381  42.819  43.001  13.312
75945W        W35382  27.985   1.814  13.847
75946W        W35383   4.878   8.746  10.021
75947W        W35384   1.733   9.278   0.457
75948W        W35385  31.553  10.646  13.991
75949W        W35386  40.337  14.134   2.271
75950W        W35387  27.652   0.888   4.821
75951W        W35388  13.755  26.666   4.324
75952W        W35389  17.625  35.095  14.849
75953W        W35390  42.514  21.616  14.376
75954W        W35391  31.922  40.319  12.359
75955W        W35392  21.059   5.384   1.302
75956W        W35393  21.146   0.777   5.260
75957W        W35394  20.606  36.088   4.604
75958W        W35395  36.458  22.574  14.811
75959W        W35396   0.858  40.408   4.304
75960W        W35397  39.405  35.421   1.729
75961W        W35398  37.555  13.131   1.917
75962W        W35399   0.813   8.361  12.528
75963W        W35400   1.336  10.165  12.845
75964W        W35401   8.791  18.171   4.633
75965W        W35402  32.577  10.274  11.959
75966W        W35403  39.535  43.982  12.534
75967W        W35404  27.458   4.423   1.320
75968W        W35405   5.278  33.965   4.331
75969W        W35406  10.224  29.472   4.250
75970W        W35407  42.851  39.938  11.128
75971W        W35408  39.833  34.920  13.379
75972W        W35409  13.200   1.752   0.911
75973W        W35410  34.490  24.125   3.842
75974W        W35411   0.863  32.074   9.955
75975W        W35412  41.851   6.711  12.356
75976W        W35413  25.031  27.154   2.903
75977W        W35414  35.087  18.147   0.729
75978W        W35415  16.754  34.869  10.456
75979W        W35416   4.775  15.597   2.178
75980W        W35417  21.237   9.790   2.842
75981W        W35418  19.770   0.906  10.962
75982W        W35419  25.988  16.292   0.457
75983W        W35420   6.323   4.437   4.165
75984W        W35421   0.426  39.495   9.626
75985W        W35422  24.049  35.490   1.819
75986W        W35423   4.940  20.624   1.448
75987W        W35424   6.743  35.500  11.508
75988W        W35425  29.069  18.773  10.615
75989W        W35426   3.392  31.470  10.922
75990W        W35427  38.048  29.158  12.410
75991W        W35428  34.923  32.496   4.141
75992W        W35429  35.588   2.433   1.264
75993W        W35430  30.601   1.298   2.269
75994W        W35431   0.801  13.638   0.843
75995W        W35432  37.494  25.973   2.676
75996W        W35433  27.657  30.474   2.780
75997W        W35434  33.404  15.234  13.854
75998W        W35435  44.940   4.900   0.330
75999W        W35436  29.484  25.505  14.015
76000W        W35437  17.695  21.587   1.217
76001W        W35438   5.332  43.286  13.389
76002W        W35439  16.180   4.310   1.446
76003W        W35440  10.377  33.573   0.907
76004W        W35441  42.434  38.982   1.325
76005W        W35442   0.832  37.561  14.772
76006W        W35443  38.388  41.340   2.706
76007W        W35444  33.562  30.946   3.174
76008W        W35445   7.214  13.637  13.357
76009W        W35446   8.746  12.812   0.248
76010W        W35447  10.785  24.155   1.352
76011W        W35448   3.896  17.130  10.499
76012W        W35449  22.567  40.866  13.477
76013W        W35450  10.266  30.067  14.858
76014W        W35451  14.758  17.257   1.908
76015W        W35452  25.120  34.042  10.471
76016W        W35453  42.325  15.096  10.629
76017W        W35454   6.362  39.954  14.930
76018W        W35455  26.143   2.862  14.841
76019W        W35456   2.312  31.513   1.421
76020W        W35457  21.514  36.500   1.906
76021W        W35458  16.075  20.659   3.648
76022W        W35459  31.610  25.622   4.177
76023W        W35460  13.261   5.796   4.707
76024W        W35461  16.292   0.346   4.787
76025W        W35462  30.937  31.093   0.803
76026W        W35463   0.379  39.817  11.904
76027W        W35464  12.245  42.356  14.454
76028W        W35465   3.371  39.406  10.531
76029W        W35466  38.344  10.292  12.893
76030W        W35467  23.655  27.528   0.860
76031W        W35468  35.877   2.292  13.807
76032W        W35469  21.623  18.186  11.546
76033W        W35470  41.028  26.152  14.402
76034W        W35471  27.013  14.178   1.871
76035W        W35472  41.501  10.736  12.054
76036W        W35473  10.282  37.878  12.873
76037W        W35474   3.767   0.883   0.834
76038W        W35475  27.183  21.752  13.351
76039W        W35476  16.189  38.903   2.703
76040W        W35477  10.679  38.880  12.514
76041W        W35478  30.535  24.588   1.256
76042W        W35479  30.148  21.614   2.867
76043W        W35480  25.701   0.831  12.494
76044W        W35481  26.958   8.812  11.896
76045W        W35482  27.639  33.925  13.051
76046W        W35483   3.912   4.307  11.924
76047W        W35484  42.380   8.743   0.903
76048W        W35485  22.625  20.218   2.796
76049W        W35486  42.974  19.689  13.892
76050W        W35487  18.617  20.550  13.974
76051W        W35488   5.775  33.022  13.462
76052W        W35489   3.216   3.431   3.772
76053W        W35490   7.811  36.008   0.394
76054W        W35491  39.840  20.544   2.686
76055W        W35492  40.440  37.370  12.365
76056W        W35493  37.022  22.656   4.611
76057W        W35494  29.137  28.038  12.372
76058W        W35495  40.805  17.294  14.790
76059W        W35496  30.041   1.867   4.218
76060W        W35497  21.174   6.231  11.550
76061W        W35498   8.224  20.554   4.688
76062W        W35499  33.876   8.358  13.049
76063W        W35500  43.425  12.792   5.119
76064W        W35501   7.412   3.784  14.391
76065W        W35502  31.525  21.165  10.534
76066W        W35503  14.630   0.944  12.526
76067W        W35504  21.132  28.546   1.725
76068W        W35505  13.679  10.162  11.121
76069W        W35506  43.509  30.632  10.014
76070W        W35507  27.588  39.021   2.209
76071W        W35508   2.269  22.696   1.762
76072W        W35509  25.707  26.095  12.917
76073W        W35510  39.419  10.691  13.377
76074W        W35511  19.593  16.578  11.599
76075W        W35512  17.580  16.653  12.074
76076W        W35513   0.394  27.945  12.860
76077W        W35514   6.197  31.609   1.766
76078W        W35515  25.633  22.588   0.393
76079W        W35516  26.616  16.768   3.352
76080W        W35517  43.391   4.300  14.359
76081W        W35518  41.854  22.706   1.849
76082W        W35519  20.691  36.918  11.429
76083W        W35520  25.047  10.165  10.528
76084W        W35521  21.597  27.958   3.245
76085W        W35522  18.060  20.605   4.236
76086W        W35523  20.195   6.727  13.912
76087W        W35524  24.061   4.903  14.409
76088W        W35525  25.581  14.235  14.924
76089W        W35526  24.650  31.641   2.860
76090W        W35527  26.600  26.002   4.287
76091W        W35528  10.190   2.460  12.940
76092W        W35529   8.390  29.100  13.441
76093W        W35530  22.686  19.663  12.931
76094W        W35531   0.394  20.732   4.723
76095W        W35532  16.660   0.926   2.757
76096W        W35533  23.652  18.552   0.757
76097W        W35534  16.788  12.226  10.505
76098W        W35535  37.982   5.366   1.897
76099W        W35536  40.810  34.447   2.234
76100W        W35537   6.327  41.010  10.979
76101W        W35538   4.422  38.491   1.327
76102W        W35539  24.680  33.445  10.562
76103W        W35540  30.157   6.901  10.640
76104W        W35541  22.044   5.307  10.426
76105W        W35542  40.403  16.772   1.343
76106W        W35543  32.085  23.214   3.346
76107W        W35544  29.957   3.799  10.459
76108W        W35545  11.202  42.878   3.170
76109W        W35546   4.299   6.247   4.148
76110W        W35547  42.435  28.035   1.401
76111W        W35548   1.866  24.033  13.522
76112W        W35549  33.447  42.456  10.623
76113W        W35550  26.682  35.927   3.383
76114W        W35551  22.581   8.674   0.755
76115W        W35552  31.459  35.880  12.416
76116W        W35553  26.993  24.188  12.908
76117W        W35554  38.438  20.609   2.197
76118W        W35555  24.560  36.883  12.000
76119W        W35556  23.682  43.872  11.606
76120W        W35557  15.246   7.870  12.904
76121W        W35558   7.744  25.670   9.629
76122W        W35559   2.258  27.487  12.429
76123W        W35560  33.042  10.634   1.766
76124W        W35561  28.634  32.452  12.004
76125W        W35562   5.309  42.949   0.871
76126W        W35563  27.154  30.473   0.822
76127W        W35564  41.456  18.697   5.102
76128W        W35565  21.616  18.604   4.300
76129W        W35566  33.065  35.402   2.316
76130W        W35567  30.562  18.296   3.841
76131W        W35568  23.135  36.372  11.953
76132W        W35569   6.330   2.470   3.866
76133W        W35570  14.160  25.077  14.932
76134W        W35571  35.574  21.118  13.484
76135W        W35572  29.574  41.414  11.468
76136W        W35573   0.854  31.148  10.141
76137W        W35574  15.627  24.040  13.309
76138W        W35575   5.432  17.298   0.933
76139W        W35576  34.523  28.014   2.248
76140W        W35577  40.906  25.102  13.884
76141W        W35578  32.047   3.804  13.870
76142W        W35579  12.223  11.371   1.268
76143W        W35580  44.328  25.613   2.335
76144W        W35581  40.849  26.458  14.834
76145W        W35582   0.335  18.199   4.169
76146W        W35583  30.118   9.729   3.646
76147W        W35584  18.627  20.071   4.663
76148W        W35585  28.025   4.764  14.322
76149W        W35586  26.181   3.377  11.954
76150W        W35587  34.574  22.722   1.336
76151W        W35588  31.053  31.570   0.831
76152W        W35589   6.740  13.822   1.265
76153W        W35590  21.126   7.408   1.740
76154W        W35591  31.614  24.049  12.425
76155W        W35592  21.622  33.480  10.001
76156W        W35593  43.975  25.674   3.165
76157W        W35594   3.777  36.505   4.305
76158W        W35595  24.219  26.117  14.955
76159W        W35596  40.876  28.596   3.374
76160W        W35597  18.278  28.067   3.346
76161W        W35598   5.757  17.239  14.487
76162W        W35599  34.426  34.015  14.781
76163W        W35600   7.696  32.888  11.049
76164W        W35601  23.059  38.326   4.306
76165W        W35602  14.737  34.542  12.847
76166W        W35603  31.575  44.470  11.976
76167W        W35604  40.842  42.838  11.907
76168W        W35605  37.395  14.785   1.857
76169W        W35606  18.144  13.671  14.946
76170W        W35607  14.673  35.853  14.324
76171W        W35608  33.045  31.025   1.742
76172W        W35609   8.816   7.342  14.361
76173W        W35610  29.483  19.735  14.940
76174W        W35611  17.269  18.069  14.498
76175W        W35612   7.772  16.701  12.830
76176W        W35613  38.005   0.382  13.371
76177W        W35614  31.503  26.181   9.992
76178W        W35615  34.961  31.911  10.145
76179W        W35616  25.479   5.329   0.466
76180W        W35617  17.128  37.084  10.038
76181W        W35618   0.899   1.816   1.724
76182W        W35619  35.007  13.639   3.381
76183W        W35620  30.607  41.922   2.355
76184W        W35621  29.067  44.968  10.642
76185W        W35622  10.326  43.361   2.350
76186W        W35623  34.570  31.632  14.830
76187W        W35624  32.915  13.249  12.472
76188W        W35625  43.988  36.360  13.493
76189W        W35626   2.883  18.185   1.354
76190W        W35627  44.290  35.019  12.935
76191W        W35628  12.135  22.100   0.398
76192W        W35629   2.771  34.609   9.990
76193W        W35630   7.670  33.950  12.499
76194W        W35631  34.455   8.799   0.456
76195W        W35632  26.480  30.560   2.418
76196W        W35633  39.875  18.231   2.327
76197W        W35634  18.123  42.284  13.855
76198W        W35635  12.185  43.848  11.903
76199W        W35636  24.713  37.422   3.853
76200W        W35637  10.703  30.648   3.182
76201W        W35638  16.220  33.501   1.357
76202W        W35639  20.666  35.959  12.063
76203W        W35640  43.300  43.929   2.705
76204W        W35641   5.871   6.680  12.004
76205W        W35642  13.680  11.143  11.590
76206W        W35643  44.394  21.546  11.916
76207W        W35644   5.784   7.759  11.403
76208W        W35645  14.692  37.504   2.223
76209W        W35646  42.334  31.908  10.573
76210W        W35647   5.281  12.741   2.664
76211W        W35648   5.828   2.429   0.475
76212W        W35649  10.639  36.586   0.773
76213W        W35650  42.517  29.539  14.848
76214W        W35651  36.404  32.559   4.801
76215W        W35652  39.842  22.210   4.350
76216W        W35653  35.554  16.270   2.900
76217W        W35654   3.752  24.686   2.415
76218W        W35655  22.638  30.587   2.281
76219W        W35656  17.772   8.805   1.859
76220W        W35657  26.585  30.632   3.693
76221W        W35658   9.667  14.739   4.725
76222W        W35659  20.150   8.406   1.770
76223W        W35660  34.891  12.611  13.865
76224W        W35661  20.266   3.762  11.556
76225W        W35662  16.805  11.742   4.258
76226W        W35663  38.045  15.813  13.852
76227W        W35664   1.873  13.664   2.263
76228W        W35665  27.142  27.949  13.986
76229W        W35666  28.036  32.905   1.285
76230W        W35667  13.182  21.153   4.269
76231W        W35668  32.109  28.110  11.081
76232W        W35669  44.307  11.634   2.793
76233W        W35670  13.131   2.770  12.860
76234W        W35671   1.895  34.488   0.778
76235W        W35672  43.008  24.043   0.393
76236W        W35673   7.729  12.280  10.998
76237W        W35674  31.509  23.071  13.479
76238W        W35675  17.225  37.552   4.766
76239W        W35676  43.339  35.435   0.778
76240W        W35677   4.246  41.363   4.176
76241W        W35678   7.307   7.828   1.375
76242W        W35679  37.418  39.502  10.471
76243W        W35680  44.848  14.773  14.364
76244W        W35681  22.696  25.537  10.444
76245W        W35682  39.932   7.356   1.914
76246W        W35683  21.734  10.876   1.363
76247W        W35684  41.837  18.760  13.930
76248W        W35685  27.147  15.593  12.990
76249W        W35686  26.013  20.761   4.635
76250W        W35687  15.196   1.758   3.280
76251W        W35688  12.330  40.982  12.824
76252NA+    NA+35689   7.297   0.833   0.251
76253NA+    NA+35690  10.287  11.301  14.764
76254NA+    NA+35691  35.483  24.531   0.289
76255NA+    NA+35692  20.577   1.965   0.302
76256NA+    NA+35693  14.614  39.473   4.693
76257NA+    NA+35694   0.321   8.874  14.883
76258NA+    NA+35695  17.792  11.173  14.881
76259NA+    NA+35696  43.900   6.197  14.373
76260NA+    NA+35697  25.968  26.087  10.899
76261NA+    NA+35698  40.025   2.311  12.431
76262NA+    NA+35699   7.847  32.928   3.820
76263NA+    NA+35700  33.397   5.331   1.699
76264NA+    NA+35701  34.958  22.716  11.007
76265NA+    NA+35702  41.957  44.387  13.901
76266NA+    NA+35703  31.141  39.342   1.868
76267NA+    NA+35704  31.448  29.084  13.498
76268NA+    NA+35705  13.834  32.445   4.159
76269NA+    NA+35706  37.367  11.868   2.264
76270NA+    NA+35707  23.152   2.781  13.844
76271NA+    NA+35708  27.142   7.241   3.821
76272NA+    NA+35709   5.392  11.269  10.150
76273NA+    NA+35710   7.335  22.636  11.081
76274NA+    NA+35711  20.064  23.577  14.376
76275NA+    NA+35712   9.825  44.985  14.921
76276NA+    NA+35713  19.154  27.947   1.880
76277NA+    NA+35714  39.860   4.415   4.667
76278NA+    NA+35715  35.485  11.682  11.415
76279NA+    NA+35716  31.023  18.059  13.974
76280NA+    NA+35717  11.828   5.805  13.536
76281NA+    NA+35718  30.462  26.956  10.530
76282NA+    NA+35719  20.072  26.672  14.006
76283NA+    NA+35720  30.549  13.821   1.342
76284NA+    NA+35721  11.290  10.713   2.250
76285NA+    NA+35722  37.939  21.052   4.721
76286NA+    NA+35723  34.551  18.580  10.923
76287NA+    NA+35724  19.176  29.613   1.730
76288NA+    NA+35725  33.024  39.372  12.917
76289NA+    NA+35726  39.545  32.587   0.476
76290NA+    NA+35727  41.328   2.440  12.445
76291NA+    NA+35728  35.399  28.636  12.567
76292NA+    NA+35729  18.776  24.662   3.252
76293NA+    NA+35730   8.225  38.984   3.313
76294NA+    NA+35731   3.319  41.425   4.748
76295NA+    NA+35732  14.634  14.329   4.717
76296NA+    NA+35733  28.582   7.801   3.752
76297NA+    NA+35734  14.303   1.778   3.260
76298NA+    NA+35735  21.520   7.869  14.463
76299NA+    NA+35736  24.136   2.803  12.939
76300NA+    NA+35737  37.465   9.386  14.855
76301NA+    NA+35738  40.955  26.978   4.314
76302NA+    NA+35739  38.553  37.043  11.452
76303NA+    NA+35740  36.043  36.474   2.895
76304NA+    NA+35741  18.758  25.071  10.940
76305NA+    NA+35742   1.873  10.838  13.945
76306NA+    NA+35743  14.299  37.031  11.862
76307NA+    NA+35744  40.893  22.160  12.441
76308NA+    NA+35745   4.754   8.386  13.544
76309NA+    NA+35746  19.284  38.539  11.474
76310NA+    NA+35747  40.455  40.488   3.647
76311NA+    NA+35748  24.711  24.638  10.952
76312NA+    NA+35749  18.727  35.561   1.859
76313NA+    NA+35750  20.624   2.788  13.030
76314NA+    NA+35751   1.305  42.300  10.519
76315NA+    NA+35752  38.051   0.944  13.930
76316NA+    NA+35753  14.104  43.968  13.872
76317NA+    NA+35754  36.525  32.522   2.679
76318NA+    NA+35755  26.672  27.657  11.451
76319NA+    NA+35756  39.511   4.325  14.849
76320NA+    NA+35757  29.549  23.137  14.393
76321NA+    NA+35758  17.079   8.847  11.509
76322NA+    NA+35759  37.367  37.542  14.332
76323NA+    NA+35760  16.236   5.318   3.635
76324NA+    NA+35761   2.896  22.745   1.257
76325NA+    NA+35762  40.395  10.176  10.420
76326NA+    NA+35763  18.780  21.557   0.362
76327NA+    NA+35764  24.709  40.361  12.825
76328NA+    NA+35765  17.615  42.031  12.344
76329NA+    NA+35766  44.485  18.787   0.472
76330NA+    NA+35767  42.292   3.948  10.986
76331NA+    NA+35768  27.106  16.124  13.045
76332NA+    NA+35769  32.922  12.212  10.943
76333NA+    NA+35770  38.953  29.551  11.126
76334NA+    NA+35771  17.695  36.998  13.499
76335NA+    NA+35772   2.349  27.685   5.709
76336NA+    NA+35773  36.494  41.425  14.330
76337NA+    NA+35774   3.754   6.269   4.621
76338NA+    NA+35775  37.010  40.375  11.101
76339NA+    NA+35776  44.982   7.809   2.740
76340NA+    NA+35777   6.335  15.127  11.909
76341NA+    NA+35778  19.178  34.020  14.296
76342NA+    NA+35779  41.908  29.644   2.680
76343NA+    NA+35780  22.550  38.978   2.262
76344NA+    NA+35781   9.353  29.562   9.923
76345NA+    NA+35782  15.226  10.722   3.819
76346NA+    NA+35783  18.701  28.651  13.438
76347NA+    NA+35784   3.761  13.247   1.903
76348NA+    NA+35785  35.449  40.023   3.803
76349NA+    NA+35786  44.278  33.954   2.183
76350NA+    NA+35787   8.230   4.375  10.608
76351NA+    NA+35788  28.514  12.620   2.351
76352NA+    NA+35789   2.933   0.459   3.810
76353NA+    NA+35790   8.702  25.624   2.303
76354NA+    NA+35791  28.463  23.689   2.224
76355NA+    NA+35792  44.858  34.033   3.242
76356NA+    NA+35793  22.696   1.317   4.260
76357NA+    NA+35794  23.091  42.415  12.474
76358NA+    NA+35795  14.654  17.629  14.981
76359NA+    NA+35796  27.095  27.648   3.362
76360NA+    NA+35797  40.008  13.783   0.338
76361NA+    NA+35798  41.932  26.457  11.522
76362NA+    NA+35799  32.946  14.614  12.564
76363NA+    NA+35800  19.661  22.666  12.044
76364NA+    NA+35801  25.966   9.680  13.896
76365NA+    NA+35802   5.736  38.531   1.769
76366NA+    NA+35803  31.993  16.619  13.803
76367NA+    NA+35804  13.773  17.609   2.263
76368NA+    NA+35805  44.380   0.267   0.805
76369NA+    NA+35806   5.891  12.226  13.349
76370NA+    NA+35807  15.089  30.519  12.904
76371NA+    NA+35808  27.061   0.771  14.414
76372NA+    NA+35809  24.210  15.265   0.851
76373NA+    NA+35810  41.402  33.457   3.365
76374NA+    NA+35811  32.066  36.959   3.796
76375NA+    NA+35812   4.877   0.856  10.572
76376NA+    NA+35813  37.939  42.831   3.701
76377NA+    NA+35814   9.772  30.149   2.219
76378NA+    NA+35815   2.265  34.921   2.891
76379NA+    NA+35816  20.050   5.337  12.848
76380NA+    NA+35817  13.197  18.197  11.404
76381NA+    NA+35818  12.679  42.905  12.419
76382NA+    NA+35819  40.997  23.197  13.972
76383NA+    NA+35820   4.274  13.729  14.345
76384NA+    NA+35821  11.277  25.711  12.047
76385NA+    NA+35822  12.804   7.183   4.778
76386NA+    NA+35823  40.369   3.350   4.814
76387NA+    NA+35824  31.487   1.863   3.661
76388NA+    NA+35825  38.956  40.343  11.980
76389NA+    NA+35826  18.780  13.186  13.977
76390NA+    NA+35827   1.454  27.553  14.363
76391NA+    NA+35828   4.930  22.073  14.830
76392NA+    NA+35829  17.116   4.712  12.453
76393NA+    NA+35830   8.669  31.449  11.401
76394NA+    NA+35831  19.564  41.873  14.406
76395NA+    NA+35832  38.568  36.949   2.299
76396NA+    NA+35833  25.147  14.602   2.677
76397NA+    NA+35834  29.025  40.430  13.496
76398NA+    NA+35835  18.558  42.468  12.536
76399NA+    NA+35836  40.486  34.587   1.391
76400NA+    NA+35837   0.347  30.165   1.444
76401NA+    NA+35838  20.751  10.378  14.290
76402NA+    NA+35839   0.979  27.689  10.975
76403NA+    NA+35840  39.053  39.852  10.563
76404NA+    NA+35841  28.107  20.576  13.025
76405NA+    NA+35842  27.537  37.850   0.879
76406NA+    NA+35843  27.077  15.580   4.743
76407NA+    NA+35844  21.251  27.667   0.965
76408NA+    NA+35845  33.976  31.092   0.282
76409NA+    NA+35846   0.769  38.563   1.734
76410NA+    NA+35847  21.022  25.538   0.322
76411NA+    NA+35848  39.538  40.489   4.753
76412NA+    NA+35849  26.972  39.370  11.472
76413NA+    NA+35850  19.547  33.412  11.519
76414NA+    NA+35851  33.538   1.973  11.047
76415NA+    NA+35852  40.032  22.739  13.466
76416NA+    NA+35853  23.108  29.172  10.543
76417NA+    NA+35854  10.808  28.080   2.676
76418NA+    NA+35855  33.425  17.719   0.772
76419NA+    NA+35856  30.606   9.647   4.650
76420NA+    NA+35857  31.912  10.652   4.642
76421NA+    NA+35858  15.606   0.401  12.043
76422NA+    NA+35859  25.541  19.250   0.246
76423NA+    NA+35860   0.278  38.841   3.374
76424NA+    NA+35861  14.756  17.171   2.347
76425NA+    NA+35862  23.237   8.404   3.762
76426NA+    NA+35863   9.673  39.990   2.227
76427NA+    NA+35864  14.699  23.188  14.849
76428NA+    NA+35865   5.204  42.405   0.729
76429NA+    NA+35866  34.386  17.133   1.348
76430NA+    NA+35867  28.517  13.132   3.772
76431NA+    NA+35868  26.587  27.483   3.758
76432NA+    NA+35869  11.288   7.259  11.984
76433NA+    NA+35870  20.640  40.891  11.087
76434NA+    NA+35871   4.941  15.189   4.230
76435NA+    NA+35872  43.998  21.237  12.985
76436NA+    NA+35873  32.986  35.518  11.905
76437NA+    NA+35874  15.149  22.736  14.926
76438NA+    NA+35875  12.135   8.341   0.366
76439NA+    NA+35876  39.862  27.089   0.254
76440NA+    NA+35877  22.041   5.781   3.270
76441NA+    NA+35878  19.085  43.366  14.395
76442NA+    NA+35879  17.782  35.507  10.536
76443NA+    NA+35880  28.489  37.482  11.906
76444NA+    NA+35881  43.939  30.589  13.964
76445NA+    NA+35882   2.807  12.153   9.930
76446NA+    NA+35883  25.498  36.515   3.263
76447NA+    NA+35884  36.934  19.193   2.350
76448NA+    NA+35885  15.136  27.036  12.038
76449NA+    NA+35886   9.249  22.209  10.591
76450NA+    NA+35887   2.939  34.889  14.351
76451NA+    NA+35888  25.200  13.778   3.813
76452NA+    NA+35889  10.699  28.440  14.869
76453NA+    NA+35890   2.828  28.546  11.434
76454NA+    NA+35891   5.416  38.562  14.835
76455NA+    NA+35892  35.099  35.432  12.501
76456NA+    NA+35893   7.831  13.846  13.937
76457NA+    NA+35894  28.166  22.229   3.689
76458NA+    NA+35895  30.944   9.677  11.965
76459NA+    NA+35896  20.723  44.937   3.381
76460NA+    NA+35897  22.628  24.166   4.223
76461NA+    NA+35898  38.853  12.703   4.656
76462NA+    NA+35899  35.028  17.084   0.467
76463NA+    NA+35900  44.266   2.348   2.395
76464NA+    NA+35901  23.049  34.002  14.007
76465NA+    NA+35902  32.430  24.634   2.350
76466NA+    NA+35903  44.903   4.920  14.904
76467NA+    NA+35904  40.463  18.770  12.943
76468NA+    NA+35905  43.004  22.076   1.794
76469NA+    NA+35906  33.095  35.964   1.921
76470NA+    NA+35907   6.914   0.266   3.780
76471NA+    NA+35908  39.447  14.150   1.800
76472NA+    NA+35909  22.187  33.074   1.362
76473NA+    NA+35910   1.801  19.592   0.767
76474NA+    NA+35911  31.129   3.425   3.819
76475NA+    NA+35912   8.830  39.358   3.757
76476NA+    NA+35913   1.943   1.847   0.295
76477NA+    NA+35914  11.708  15.272   4.783
76478NA+    NA+35915   7.867  24.010   0.270
76479NA+    NA+35916   5.817  38.033   3.782
76480NA+    NA+35917  39.959   9.205  10.620
76481NA+    NA+35918  15.727  37.976   1.922
76482NA+    NA+35919   4.815  18.634  11.986
76483NA+    NA+35920  39.370  24.705  13.309
76484NA+    NA+35921  37.557   2.299  11.606
76485NA+    NA+35922  17.707  21.207  14.469
76486NA+    NA+35923  17.273  14.188   2.854
76487NA+    NA+35924   2.472  38.886   3.297
76488NA+    NA+35925   1.282  44.342  14.914
76489NA+    NA+35926   1.759  24.007  11.566
76490NA+    NA+35927   3.428   2.874   1.249
76491NA+    NA+35928  44.823   3.807   0.344
76492NA+    NA+35929  22.069   9.765   3.179
76493NA+    NA+35930  20.721  27.542   2.194
76494NA+    NA+35931  42.911  37.529  12.027
76495NA+    NA+35932  32.090  31.122  12.056
76496NA+    NA+35933  21.249  39.480  12.446
76497NA+    NA+35934   1.969  18.656   2.899
76498NA+    NA+35935   5.890  36.471  11.067
76499NA+    NA+35936  43.778  42.964   4.216
76500NA+    NA+35937  16.634  19.678  14.773
76501NA+    NA+35938   1.383   0.477   2.665
76502NA+    NA+35939  43.866   3.860   0.461
76503NA+    NA+35940  19.224  35.563   4.702
76504NA+    NA+35941   7.385  37.423   4.757
76505NA+    NA+35942  42.887  20.535   0.254
76506NA+    NA+35943  30.525  12.318   4.246
76507NA+    NA+35944  36.358  33.394   3.203
76508NA+    NA+35945   8.200   1.966  13.452
76509NA+    NA+35946  27.460  43.993   0.369
76510NA+    NA+35947   4.924   0.881  14.020
76511NA+    NA+35948  28.988   8.734   2.208
76512NA+    NA+35949   4.865  28.438  11.528
76513NA+    NA+35950  29.455  12.123  10.432
76514NA+    NA+35951  26.092  43.020   1.802
76515NA+    NA+35952  20.209  21.138  12.061
76516NA+    NA+35953   5.912  41.327  13.025
76517NA+    NA+35954  25.696  11.766  14.901
76518NA+    NA+35955  19.042  19.542  14.820
76519NA+    NA+35956  34.069   1.448   1.872
76520NA+    NA+35957  20.732  38.944  14.293
76521NA+    NA+35958  43.409  24.504  14.796
76522NA+    NA+35959   0.310  29.128  13.420
76523NA+    NA+35960  17.170  22.700  12.515
76524NA+    NA+35961   0.771  41.504  14.819
76525NA+    NA+35962  14.749   7.866   4.653
76526NA+    NA+35963   9.836  34.977   4.666
76527NA+    NA+35964  34.388  22.182   5.656
76528NA+    NA+35965  21.219  14.630  10.989
76529NA+    NA+35966  35.453  35.076  14.873
76530NA+    NA+35967  12.666   9.293  11.934
76531NA+    NA+35968   1.369  27.589  13.393
76532NA+    NA+35969  14.820  28.525   4.664
76533NA+    NA+35970   5.752  32.891   2.183
76534NA+    NA+35971  26.675  24.124  12.836
76535NA+    NA+35972  10.362  15.651   2.318
76536NA+    NA+35973  18.197  33.483  11.017
76537NA+    NA+35974  39.360  11.267   0.297
76538NA+    NA+35975  41.028  27.496   0.892
76539NA+    NA+35976   0.961   1.789   0.455
76540NA+    NA+35977  13.152  37.053   0.792
76541NA+    NA+35978   9.191   7.192   0.733
76542NA+    NA+35979   5.268  30.983  12.883
76543NA+    NA+35980   0.359  41.036   1.855
76544NA+    NA+35981  37.002  28.040   1.363
76545NA+    NA+35982  13.710  37.852  10.467
76546NA+    NA+35983  30.942  16.276  14.290
76547NA+    NA+35984   7.768   2.911   0.398
76548NA+    NA+35985   2.887  20.683  12.940
76549NA+    NA+35986  13.725  11.815   3.345
76550NA+    NA+35987   0.423  33.116   4.685
76551NA+    NA+35988  19.042  10.746   3.351
76552NA+    NA+35989   8.701  31.065   0.308
76553NA+    NA+35990  44.340   5.318  12.943
76554NA+    NA+35991  30.524  39.938  11.885
76555NA+    NA+35992  41.980  17.609   3.303
76556NA+    NA+35993  27.690  43.506  14.796
76557NA+    NA+35994  39.495  35.012   4.124
76558NA+    NA+35995  36.579  21.037  13.492
76559NA+    NA+35996  18.702  37.066   2.407
76560NA+    NA+35997  35.455  20.593   0.916
76561NA+    NA+35998   9.393   0.422  14.406
76562NA+    NA+35999  42.519  19.213   4.632
76563NA+    NA+36000  40.874  39.968   1.388
76564NA+    NA+36001  41.512  41.918  11.473
76565NA+    NA+36002  35.934  27.473  12.444
76566NA+    NA+36003  24.053   5.221   2.228
76567NA+    NA+36004  38.339  18.676   0.965
76568NA+    NA+36005   6.417  11.810  14.401
76569NA+    NA+36006  37.447  20.142   3.249
76570NA+    NA+36007  22.173   8.181   4.650
76571NA+    NA+36008  26.203  16.219   4.315
76572NA+    NA+36009   6.302   7.334  12.416
76573NA+    NA+36010  36.889  41.800  11.535
76574NA+    NA+36011  13.122  42.310   9.473
76575NA+    NA+36012  15.264  40.444  13.378
76576NA+    NA+36013  24.183  18.733  11.885
76577NA+    NA+36014  10.279  32.126  11.994
76578NA+    NA+36015  22.137   8.168   3.263
76579NA+    NA+36016  41.297   1.853   1.423
76580NA+    NA+36017  15.813  15.159  10.633
76581NA+    NA+36018  28.679  10.193   4.195
76582NA+    NA+36019   2.272   8.161   3.325
76583NA+    NA+36020  19.683  40.025  12.419
76584NA+    NA+36021   2.458   8.686   4.125
76585NA+    NA+36022  28.614  17.605   2.752
76586NA+    NA+36023  21.751   0.345  14.430
76587NA+    NA+36024   5.763  32.432  11.611
76588NA+    NA+36025  33.442  10.860   2.880
76589NA+    NA+36026  33.025  29.559   0.339
76590NA+    NA+36027  11.369  33.978   4.601
76591NA+    NA+36028  35.400   8.715   0.892
76592NA+    NA+36029  11.804  30.467   1.775
76593NA+    NA+36030  15.591  40.050   2.235
76594NA+    NA+36031  29.919  32.128  10.958
76595NA+    NA+36032   8.889  14.309   3.814
76596NA+    NA+36033  23.665  26.687   4.776
76597NA+    NA+36034   7.815  39.418   0.943
76598NA+    NA+36035  32.055  14.820   3.365
76599NA+    NA+36036  42.478  16.171  12.410
76600NA+    NA+36037  19.680  40.042   5.593
76601NA+    NA+36038  20.144  33.942   3.283
76602NA+    NA+36039  37.404  18.221   3.818
76603NA+    NA+36040  43.997   3.741   1.845
76604NA+    NA+36041  23.044  35.007   1.755
76605NA+    NA+36042  10.273  14.725  11.513
76606NA+    NA+36043  44.422   9.723   1.230
76607NA+    NA+36044  33.984  38.008  10.634
76608NA+    NA+36045  29.505   3.788   0.934
76609NA+    NA+36046   5.241  27.051  12.941
76610NA+    NA+36047  27.172  27.131  11.904
76611NA+    NA+36048  21.690   5.810  11.889
76612NA+    NA+36049  10.746   3.390   3.174
76613NA+    NA+36050  10.224  26.579   1.906
76614NA+    NA+36051  14.791  34.047   4.115
76615NA+    NA+36052  23.050   7.753  13.940
76616NA+    NA+36053  16.078  29.488   1.291
76617NA+    NA+36054  25.135  16.145  10.486
76618NA+    NA+36055  30.593   4.273   0.821
76619NA+    NA+36056  35.487  31.587   1.830
76620NA+    NA+36057   7.714  10.656   3.235
76621NA+    NA+36058   0.282  30.637   4.626
76622NA+    NA+36059  41.813  21.201  11.040
76623NA+    NA+36060   1.411  21.756  13.015
76624NA+    NA+36061  24.537  13.684   0.433
76625NA+    NA+36062  43.790  17.697  13.467
76626NA+    NA+36063  16.687   4.257   1.910
76627NA+    NA+36064  15.777  35.527   4.293
76628NA+    NA+36065   8.216  25.158   1.764
76629NA+    NA+36066  12.716  28.661  11.422
76630NA+    NA+36067  24.103  33.586   0.922
76631NA+    NA+36068  26.499  35.471  13.931
76632NA+    NA+36069  25.188  38.569   1.909
76633NA+    NA+36070  41.517  23.048   0.357
76634NA+    NA+36071  10.778   5.431   4.750
76635NA+    NA+36072  14.114   2.743  13.344
76636NA+    NA+36073   7.776   8.390  11.054
76637NA+    NA+36074   3.416  24.606   0.244
76638NA+    NA+36075  33.911   4.827   2.345
76639NA+    NA+36076  17.143  32.966   1.930
76640NA+    NA+36077  33.007  29.057   4.157
76641NA+    NA+36078  11.855  24.102  10.614
76642NA+    NA+36079  24.544  24.556   0.457
76643NA+    NA+36080  15.627   5.214  14.830
76644NA+    NA+36081  39.956   9.286  11.074
76645NA+    NA+36082  36.892  42.845  10.987
76646NA+    NA+36083  27.149  29.566   4.800
76647NA+    NA+36084  13.274  13.144  13.932
76648NA+    NA+36085  29.651  23.124   0.958
76649NA+    NA+36086  39.815  39.320   1.781
76650NA+    NA+36087  37.064  44.955  10.997
76651NA+    NA+36088  38.975  19.084   1.311
76652NA+    NA+36089  43.494   2.834   1.370
76653NA+    NA+36090  32.930   8.188   3.777
76654NA+    NA+36091   9.171  44.807   4.119
76655NA+    NA+36092  31.095   5.916   0.339
76656NA+    NA+36093  24.019   3.330   1.369
76657NA+    NA+36094  40.516  25.128   5.230
76658NA+    NA+36095  20.175  27.984   4.354
76659NA+    NA+36096  24.016   6.910   2.768
76660NA+    NA+36097  20.100   8.732  12.435
76661NA+    NA+36098  40.422  29.477  13.795
76662NA+    NA+36099  27.106  42.443   2.337
76663NA+    NA+36100  43.995   8.833  14.761
76664NA+    NA+36101  16.750  31.993   3.245
76665NA+    NA+36102  37.031   3.318  14.498
76666NA+    NA+36103  25.624  33.509   0.892
76667NA+    NA+36104   3.823   7.326  14.899
76668NA+    NA+36105  13.837  40.877  13.370
76669NA+    NA+36106  42.498  39.499  13.508
76670NA+    NA+36107  32.479  31.412   1.740
76671NA+    NA+36108  31.605  29.474   1.726
76672NA+    NA+36109   5.235   4.398  13.475
76673NA+    NA+36110  18.768  41.835   3.210
76674NA+    NA+36111  12.627  33.444   4.783
76675NA+    NA+36112  42.401  25.204  14.345
76676NA+    NA+36113  37.470  42.309   2.842
76677NA+    NA+36114  28.570  35.928   2.737
76678NA+    NA+36115  38.451  35.998   1.321
76679NA+    NA+36116  15.251   9.870   0.463
76680NA+    NA+36117  42.369  42.475  11.985
76681NA+    NA+36118   0.871  29.930  14.406
76682NA+    NA+36119  22.582  34.607  13.977
76683NA+    NA+36120  38.439  12.736   2.875
76684NA+    NA+36121  20.048   1.776   0.735
76685NA+    NA+36122  30.628   2.290   2.855
76686NA+    NA+36123  41.013   3.833   2.725
76687NA+    NA+36124  18.767  14.156   2.689
76688NA+    NA+36125  33.998  19.632  14.453
76689NA+    NA+36126  33.051   5.251  13.852
76690NA+    NA+36127  43.307  17.567   4.803
76691NA+    NA+36128   5.293   5.221   0.833
76692NA+    NA+36129   4.407  43.776   0.391
76693NA+    NA+36130  31.411   3.357   1.380
76694NA+    NA+36131  27.070  27.004   3.739
76695NA+    NA+36132  28.584  32.890   4.678
76696NA+    NA+36133  26.160  33.073   0.411
76697NA+    NA+36134  42.951  27.656   9.925
76698NA+    NA+36135  25.018  10.356   1.819
76699NA+    NA+36136  42.946  13.652  10.627
76700NA+    NA+36137  43.830  31.412   2.361
76701NA+    NA+36138  41.020  18.706  12.372
76702NA+    NA+36139  30.580  34.516  13.799
76703NA+    NA+36140  25.116  18.156   0.408
76704NA+    NA+36141  20.633  30.978   2.390
76705NA+    NA+36142  41.403  35.475  11.076
76706NA+    NA+36143   7.883  39.918   0.456
76707NA+    NA+36144  28.126  26.972  11.569
76708NA+    NA+36145   2.455  18.557  12.012
76709NA+    NA+36146  20.522  21.713  11.094
76710NA+    NA+36147   8.827   4.937  13.942
76711NA+    NA+36148  28.585  11.831  10.429
76712NA+    NA+36149   2.773   4.406  11.027
76713NA+    NA+36150  13.821   2.256  11.914
76714NA+    NA+36151  26.674  30.062  12.024
76715NA+    NA+36152  39.493  14.180   3.197
76716NA+    NA+36153  34.459   7.824  14.466
76717NA+    NA+36154   4.808  24.103  14.315
76718NA+    NA+36155  19.144  35.912   3.789
76719NA+    NA+36156   5.311  22.503  11.958
76720NA+    NA+36157  30.623  15.735  13.529
76721NA+    NA+36158  20.681  15.250  14.489
76722NA+    NA+36159  20.073  27.623  14.390
76723NA+    NA+36160  12.670  44.933   2.778
76724NA+    NA+36161  31.629  24.131  10.157
76725NA+    NA+36162  39.825  26.156   1.823
76726NA+    NA+36163  23.048  39.558   1.846
76727NA+    NA+36164  18.147  16.811  12.014
76728NA+    NA+36165   8.712  36.533   3.330
76729NA+    NA+36166  41.029  27.599  12.925
76730NA+    NA+36167  19.070  14.701   9.491
76731NA+    NA+36168  44.823  25.017  10.592
76732NA+    NA+36169   6.821  25.602  13.899
76733NA+    NA+36170  43.381  22.137  14.987
76734NA+    NA+36171   4.797  27.691  12.833
76735NA+    NA+36172  27.498  31.409  12.965
76736NA+    NA+36173  43.272   6.908   2.301
76737NA+    NA+36174   8.797  21.597   3.225
76738NA+    NA+36175  31.983   7.385   2.243
76739NA+    NA+36176  14.222   7.887  13.514
76740NA+    NA+36177  25.157   1.763  13.900
76741NA+    NA+36178  44.269  16.242   0.944
76742NA+    NA+36179  36.553  28.449  14.313
76743NA+    NA+36180  35.526  39.975   3.221
76744NA+    NA+36181  14.339  34.537  14.844
76745NA+    NA+36182  22.727   8.658  14.361
76746NA+    NA+36183   5.317  24.664   4.743
76747NA+    NA+36184  16.244  16.269   2.781
76748NA+    NA+36185  14.208   0.823   4.826
76749NA+    NA+36186  25.669  44.816   0.761
76750NA+    NA+36187  37.570  31.965  10.111
76751NA+    NA+36188  29.164  39.318   0.327
76752NA+    NA+36189  31.463   5.228   1.400
76753NA+    NA+36190  41.967   3.292   3.685
76754NA+    NA+36191  12.145  11.176   0.255
76755NA+    NA+36192  27.643  26.996  10.470
76756NA+    NA+36193  13.284  21.069   1.449
76757NA+    NA+36194  36.044  19.254   2.759
76758NA+    NA+36195   1.464   1.259   4.818
76759NA+    NA+36196  40.853  32.411  14.338
76760NA+    NA+36197  29.519  15.308   3.146
76761NA+    NA+36198  39.354  35.566  13.906
76762NA+    NA+36199  27.982  17.137  11.066
76763NA+    NA+36200  10.200   8.206  13.471
76764NA+    NA+36201  31.426  31.950   1.243
76765NA+    NA+36202  10.740  27.995   2.195
76766NA+    NA+36203  25.987  17.770   2.183
76767NA+    NA+36204  10.764  43.010   1.878
76768NA+    NA+36205  14.654   0.378   0.267
76769NA+    NA+36206  39.555  21.205  14.799
76770NA+    NA+36207  26.999  41.294  11.932
76771NA+    NA+36208  10.248  33.983  13.978
76772NA+    NA+36209   0.829  43.874  14.473
76773NA+    NA+36210  24.636  11.368   1.742
76774NA+    NA+36211  37.517  22.600   0.481
76775NA+    NA+36212   3.862  25.657   0.385
76776NA+    NA+36213  44.415  12.160  14.400
76777NA+    NA+36214  27.516   6.261   0.251
76778NA+    NA+36215  17.795  11.848   0.319
76779NA+    NA+36216  36.416  40.002   4.295
76780NA+    NA+36217  11.669  38.046  13.809
76781NA+    NA+36218  23.578  30.486  12.932
76782NA+    NA+36219  11.640  11.179  12.517
76783NA+    NA+36220   5.222  30.000   0.846
76784NA+    NA+36221  44.943  30.450   3.676
76785NA+    NA+36222  34.903  20.678   1.421
76786NA+    NA+36223  10.200   4.802  13.807
76787NA+    NA+36224  16.649  27.563   0.967
76788NA+    NA+36225   3.277  42.418   0.935
76789NA+    NA+36226  21.258   5.860  13.356
76790NA+    NA+36227  15.250  18.651  11.423
76791NA+    NA+36228  20.693  20.593   4.157
76792NA+    NA+36229  31.452  36.430  11.883
76793NA+    NA+36230   1.278  12.624   0.341
76794NA+    NA+36231  34.882  10.236   2.235
76795NA+    NA+36232   6.342   7.816  10.909
76796NA+    NA+36233  41.877   4.839  10.970
76797NA+    NA+36234   4.866  29.918  14.510
76798NA+    NA+36235  40.385  43.862   0.314
76799NA+    NA+36236  44.961  11.697  12.428
76800NA+    NA+36237  42.002  37.546   9.951
76801NA+    NA+36238  11.369   8.283  11.959
76802NA+    NA+36239  24.026  28.488  10.503
76803NA+    NA+36240  18.139   6.350  14.478
76804NA+    NA+36241  16.724  18.209  12.030
76805NA+    NA+36242   9.365  36.581  11.434
76806NA+    NA+36243   7.907  10.834  12.048
76807NA+    NA+36244  15.620  17.587   0.869
76808NA+    NA+36245  43.471   9.301  14.758
76809NA+    NA+36246  27.958  25.160  11.076
76810NA+    NA+36247  27.034  18.751   3.652
76811NA+    NA+36248   5.363   7.861  11.993
76812NA+    NA+36249  36.849  35.944   2.834
76813NA+    NA+36250  28.978  13.699   9.658
76814NA+    NA+36251  23.531  11.145  12.500
76815NA+    NA+36252  30.107  27.558  13.543
76816NA+    NA+36253  44.816  36.099   0.297
76817NA+    NA+36254  13.610  28.477   0.880
76818NA+    NA+36255  36.962  42.475   4.782
76819NA+    NA+36256  29.165  23.716  12.452
76820NA+    NA+36257   0.821  35.433  13.439
76821NA+    NA+36258  35.500   3.411   3.850
76822NA+    NA+36259  12.622  42.364   1.256
76823NA+    NA+36260  27.510   8.179  13.449
76824NA+    NA+36261  14.814  42.315   1.211
76825NA+    NA+36262  29.944  26.114   2.822
76826NA+    NA+36263  16.640  13.736  10.927
76827NA+    NA+36264  40.545  28.086   1.814
76828NA+    NA+36265  35.569  14.212  10.412
76829NA+    NA+36266  28.481   9.825   1.300
76830NA+    NA+36267  32.013  15.177   9.999
76831NA+    NA+36268   3.921  20.550   2.255
76832NA+    NA+36269   4.393  21.068  13.046
76833NA+    NA+36270  17.613  12.833   1.733
76834NA+    NA+36271  21.184  32.079   1.264
76835NA+    NA+36272  41.797  23.730  12.458
76836NA+    NA+36273  27.190   0.809   3.168
76837NA+    NA+36274  10.352  39.037   2.319
76838NA+    NA+36275  23.056   2.329   3.829
76839NA+    NA+36276  17.625   9.220   4.149
76840NA+    NA+36277  21.517  20.245   2.753
76841NA+    NA+36278  29.936   3.259  12.415
76842NA+    NA+36279  13.123  24.093  11.547
76843NA+    NA+36280  30.515   3.784  11.939
76844NA+    NA+36281  28.055  44.305  14.014
76845NA+    NA+36282   0.284  18.760   1.759
76846NA+    NA+36283   0.423  33.963   4.318
76847NA+    NA+36284   6.361  34.885  10.574
76848NA+    NA+36285  13.606  40.317  12.830
76849NA+    NA+36286   4.939  16.115  12.866
76850NA+    NA+36287  29.622  17.135  11.927
76851NA+    NA+36288  42.401  32.419   4.329
76852NA+    NA+36289  32.542  27.553  10.995
76853NA+    NA+36290  17.131   6.754  14.386
76854NA+    NA+36291  16.146  18.060  11.548
76855NA+    NA+36292  43.509  18.733   1.790
76856NA+    NA+36293   4.768   1.849  14.864
76857NA+    NA+36294  11.827  36.934  14.416
76858NA+    NA+36295  41.305  39.003   2.663
76859NA+    NA+36296  17.778  36.420   1.704
76860NA+    NA+36297  20.187  43.317   4.202
76861NA+    NA+36298  10.352   7.730   2.675
76862NA+    NA+36299  14.228  31.608   1.707
76863NA+    NA+36300  43.336  21.067  14.993
76864NA+    NA+36301  14.251  20.756   4.728
76865NA+    NA+36302  29.586  34.110   1.778
76866NA+    NA+36303  36.073  29.995   4.799
76867NA+    NA+36304  10.281  14.308   3.270
76868NA+    NA+36305   1.429   3.268  14.984
76869NA+    NA+36306   5.769  44.901   4.244
76870NA+    NA+36307   8.211   4.375   0.967
76871NA+    NA+36308  28.681  12.323  14.032
76872NA+    NA+36309   7.175  23.616   0.792
76873NA+    NA+36310  41.807  13.730   1.892
76874NA+    NA+36311  44.448  12.180  12.495
76875NA+    NA+36312  17.139  39.898   3.384
76876NA+    NA+36313  25.197  29.998   3.287
76877NA+    NA+36314  44.395  38.482   0.797
76878NA+    NA+36315  39.480   7.839  10.638
76879NA+    NA+36316  14.733  11.229  12.539
76880NA+    NA+36317  20.205   9.670   1.888
76881NA+    NA+36318   6.831  14.833   0.782
76882NA+    NA+36319  13.317  30.942  14.482
76883NA+    NA+36320  27.680  28.585   1.695
76884NA+    NA+36321   0.953  38.862   0.269
76885NA+    NA+36322  35.098  13.801   2.743
76886NA+    NA+36323   1.420  29.152  14.801
76887NA+    NA+36324  29.088   8.797   1.242
76888NA+    NA+36325  11.732  26.662   4.732
76889NA+    NA+36326  24.683  16.106   1.902
76890NA+    NA+36327  34.488  41.441  11.922
76891NA+    NA+36328  17.581  32.134   4.804
76892NA+    NA+36329  39.422  14.768  10.936
76893NA+    NA+36330   1.827  33.514   0.966
76894NA+    NA+36331  41.322   3.900  12.399
76895NA+    NA+36332  31.919  16.652   1.343
76896NA+    NA+36333  25.680  40.007  14.897
76897NA+    NA+36334  23.183  40.520  11.556
76898NA+    NA+36335   4.449  38.014  13.923
76899NA+    NA+36336  18.202   6.301   4.706
76900NA+    NA+36337  10.745  36.590  13.462
76901NA+    NA+36338  34.454   3.857   4.789
76902NA+    NA+36339   2.325  23.494   0.862
76903NA+    NA+36340  26.614  29.933  13.982
76904NA+    NA+36341  43.921  12.732   1.735
76905NA+    NA+36342  14.809   1.333  13.495
76906NA+    NA+36343   3.813  22.243   2.766
76907NA+    NA+36344  18.694  21.154  12.055
76908NA+    NA+36345  34.104  16.645   0.284
76909NA+    NA+36346   0.965   9.302  14.860
76910NA+    NA+36347  29.080  29.573   2.687
76911NA+    NA+36348  10.305  38.895   5.283
76912NA+    NA+36349  40.975   2.854  12.082
76913NA+    NA+36350  12.722   8.327   0.773
76914NA+    NA+36351   0.940   5.242   4.337
76915NA+    NA+36352   0.326  30.549  13.546
76916NA+    NA+36353  13.307  34.068  14.410
76917NA+    NA+36354  22.719  16.105   5.575
76918NA+    NA+36355   5.775   5.429   0.729
76919NA+    NA+36356   9.227  29.092   1.407
76920NA+    NA+36357  21.169  38.043   2.731
76921NA+    NA+36358  31.026   7.910   2.372
76922NA+    NA+36359  21.552  25.669   9.674
76923NA+    NA+36360   6.788  19.551   4.252
76924NA+    NA+36361  27.163  42.464   3.207
76925NA+    NA+36362  36.500   8.877  14.865
76926NA+    NA+36363  10.238   0.879   5.161
76927NA+    NA+36364  30.428  23.076  14.488
76928NA+    NA+36365  30.603  27.509   0.880
76929NA+    NA+36366  16.300  18.608  14.310
76930NA+    NA+36367   4.211   9.230   0.356
76931NA+    NA+36368  29.987  28.092   5.279
76932NA+    NA+36369  20.673   3.357   1.303
76933NA+    NA+36370  19.151  19.640   5.222
76934NA+    NA+36371   1.945  19.137   1.369
76935NA+    NA+36372  12.313  34.080  13.500
76936NA+    NA+36373  20.105  13.646   4.200
76937NA+    NA+36374  21.092  14.152  13.407
76938NA+    NA+36375   2.857  43.774  13.906
76939NA+    NA+36376  29.164  11.634   2.241
76940NA+    NA+36377  34.120   2.293   2.802
76941NA+    NA+36378  21.138  11.261   3.814
76942NA+    NA+36379  42.412  28.142   3.712
76943NA+    NA+36380  19.567  23.641   2.396
76944NA+    NA+36381  44.342  11.203  14.026
76945NA+    NA+36382  44.926  23.632  13.353
76946NA+    NA+36383  33.535  20.673   1.759
76947NA+    NA+36384   9.217  20.210   4.203
76948NA+    NA+36385  20.555  41.032   1.424
76949NA+    NA+36386  15.088  17.624   3.338
76950NA+    NA+36387   0.988  25.147  10.548
76951NA+    NA+36388   6.798  43.289  14.318
76952NA+    NA+36389   8.885  42.792  10.404
76953NA+    NA+36390  35.423   1.321  11.864
76954NA+    NA+36391   0.952  41.856  14.977
76955NA+    NA+36392  31.076  27.493  13.909
76956NA+    NA+36393   0.856  41.035  11.431
76957NA+    NA+36394   0.872  12.800   0.886
76958NA+    NA+36395  11.295  13.131  12.923
76959NA+    NA+36396   3.220   8.723   3.687
76960NA+    NA+36397  22.531  38.331  14.941
76961NA+    NA+36398  10.363   1.746   2.417
76962NA+    NA+36399  22.127  13.698   0.476
76963NA+    NA+36400  12.747  38.513   2.870
76964NA+    NA+36401  41.531  14.615  13.041
76965NA+    NA+36402  31.496  37.397   0.850
76966NA+    NA+36403  28.638  15.666  12.848
76967NA+    NA+36404  29.605  35.366   3.834
76968NA+    NA+36405  38.821  20.065  11.496
76969NA+    NA+36406  28.175   8.844   3.181
76970NA+    NA+36407  37.529  16.097  14.926
76971NA+    NA+36408  13.109  20.104   1.932
76972NA+    NA+36409  38.987  23.515   5.303
76973NA+    NA+36410  37.016  13.799   1.326
76974NA+    NA+36411  42.338  15.297   2.251
76975NA+    NA+36412  24.032   5.328  14.785
76976NA+    NA+36413  29.981  41.031  14.447
76977NA+    NA+36414  27.492   6.867   4.222
76978NA+    NA+36415  23.632  24.610   2.784
76979NA+    NA+36416   3.956  42.020  14.991
76980NA+    NA+36417   9.666  14.212   2.284
76981NA+    NA+36418  34.892  18.161  11.925
76982NA+    NA+36419  41.346  21.568  11.019
76983NA+    NA+36420   0.445  23.007   0.469
76984NA+    NA+36421  17.223   6.296   4.204
76985NA+    NA+36422  24.013   6.376  13.372
76986NA+    NA+36423  26.982  37.537   4.151
76987NA+    NA+36424  33.430  24.717   2.379
76988NA+    NA+36425  40.346  26.592  14.340
76989NA+    NA+36426  16.231  16.248   4.188
76990NA+    NA+36427   3.295   3.846  13.497
76991NA+    NA+36428  32.502   4.802  11.482
76992NA+    NA+36429  42.932  37.524  12.474
76993NA+    NA+36430  22.147  33.570   1.266
76994NA+    NA+36431   2.277  25.579   4.762
76995NA+    NA+36432  28.047  32.510  13.795
76996NA+    NA+36433  34.893  40.538  14.899
76997NA+    NA+36434  39.337  35.391   2.885
76998NA+    NA+36435  19.043  41.907  10.636
76999NA+    NA+36436  43.310  41.311  10.518
77000NA+    NA+36437  20.628  16.165   2.337
77001NA+    NA+36438  27.077  20.245  11.580
77002NA+    NA+36439  19.634  34.864  14.376
77003NA+    NA+36440   7.206  15.777   0.870
77004NA+    NA+36441  38.328  16.126  10.431
77005NA+    NA+36442  30.114  36.479  10.430
77006NA+    NA+36443  17.175  36.516  14.017
77007NA+    NA+36444   2.772  34.504  10.503
77008NA+    NA+36445  29.069  24.011   4.836
77009NA+    NA+36446   3.879   6.292   1.720
77010NA+    NA+36447  19.269  38.509  14.403
77011NA+    NA+36448   9.314  36.984   2.246
77012NA+    NA+36449  30.025  17.675  14.878
77013NA+    NA+36450  18.075  37.941  13.458
77014NA+    NA+36451   4.379  10.279  14.310
77015NA+    NA+36452  16.755  33.463  13.384
77016NA+    NA+36453  30.618  14.293  11.003
77017NA+    NA+36454  39.914  23.605  13.847
77018NA+    NA+36455  22.563   6.891   4.310
77019NA+    NA+36456  10.283  42.478   2.752
77020NA+    NA+36457  22.658  39.846   0.469
77021NA+    NA+36458  40.824  36.504   1.731
77022NA+    NA+36459   1.952  21.056   0.308
77023NA+    NA+36460  29.938  24.653   2.846
77024NA+    NA+36461  27.112   3.878  14.836
77025NA+    NA+36462  33.484  10.637   4.196
77026NA+    NA+36463   2.818  34.093  14.291
77027NA+    NA+36464   1.279  24.580   2.178
77028NA+    NA+36465  32.080  10.693  11.025
77029NA+    NA+36466  40.463  13.178  13.314
77030NA+    NA+36467  42.988  28.672   1.296
77031NA+    NA+36468   9.661  42.418   0.840
77032NA+    NA+36469  41.358   7.781  12.937
77033NA+    NA+36470   9.716   2.833  11.509
77034NA+    NA+36471  22.252  24.029   2.868
77035NA+    NA+36472  29.152  41.445  10.584
77036NA+    NA+36473  20.085  13.790  12.465
77037NA+    NA+36474  16.671  32.482   0.946
77038NA+    NA+36475  43.851  22.548  14.854
77039NA+    NA+36476  33.395   9.227  13.972
77040NA+    NA+36477  14.821  23.526   2.662
77041NA+    NA+36478  42.782  42.318   4.837
77042NA+    NA+36479  32.956  29.571  14.983
77043NA+    NA+36480  30.498  37.550  11.944
77044NA+    NA+36481   3.793  14.717  14.345
77045NA+    NA+36482  43.307  41.972   1.913
77046NA+    NA+36483  34.605   0.783   3.384
77047NA+    NA+36484  23.714  28.152  14.843
77048NA+    NA+36485  21.035  41.853   3.192
77049NA+    NA+36486  34.485  28.596  14.024
77050NA+    NA+36487  27.551  10.173   1.237
77051NA+    NA+36488  27.084  30.581   0.283
77052NA+    NA+36489  13.690  24.545   1.248
77053NA+    NA+36490  31.969  26.638   3.792
77054NA+    NA+36491  23.210   6.361  12.563
77055NA+    NA+36492  14.591   9.233   4.176
77056NA+    NA+36493  41.825  44.435  11.486
77057NA+    NA+36494  12.698   7.190   0.317
77058NA+    NA+36495  36.420   9.367  14.357
77059NA+    NA+36496  38.368  16.741   0.401
77060NA+    NA+36497  14.771   2.451   4.681
77061NA+    NA+36498  17.665  25.998   1.448
77062NA+    NA+36499  38.417  44.007   0.736
77063NA+    NA+36500  39.354  41.376   4.154
77064NA+    NA+36501  10.371  15.115   1.918
77065NA+    NA+36502  32.422  35.488   2.318
77066NA+    NA+36503   6.876   0.787   4.206
77067NA+    NA+36504  16.312  10.183  10.985
77068NA+    NA+36505  42.786   3.710  13.506
77069NA+    NA+36506  33.128  15.269  14.955
77070NA+    NA+36507  34.531  12.744   1.241
77071NA+    NA+36508  21.239  21.091   3.826
77072NA+    NA+36509   0.757  11.270  12.565
77073NA+    NA+36510  22.612  19.583   0.296
77074NA+    NA+36511  31.113   5.243   0.844
77075NA+    NA+36512  36.443  24.660   3.182
77076NA+    NA+36513  14.249  16.268   4.765
77077NA+    NA+36514  40.800  11.339  11.027
77078NA+    NA+36515  23.223  29.983   0.911
77079NA+    NA+36516   5.760   6.838  11.118
77080NA+    NA+36517  44.975  12.732   2.697
77081NA+    NA+36518  18.073  25.983   1.814
77082NA+    NA+36519  19.588  39.463   9.992
77083NA+    NA+36520  29.663  42.845   3.322
77084NA+    NA+36521  30.036  38.437   3.368
77085NA+    NA+36522  42.936  35.379   2.363
77086NA+    NA+36523   4.288  39.995   2.323
77087NA+    NA+36524  29.583   4.699  14.853
77088NA+    NA+36525  15.230  41.967  13.862
77089NA+    NA+36526  17.578   4.772  11.455
77090NA+    NA+36527   4.855   4.448  13.495
77091NA+    NA+36528  40.314   2.723  11.905
77092NA+    NA+36529  33.430  38.519   2.289
77093NA+    NA+36530  23.234  33.533   2.784
77094NA+    NA+36531  28.598  14.654  10.148
77095NA+    NA+36532  41.027  24.144   1.716
77096NA+    NA+36533  36.406  26.016   2.343
77097NA+    NA+36534  29.530   0.855  11.474
77098NA+    NA+36535  42.863  23.146  13.046
77099NA+    NA+36536  32.476  15.276  13.327
77100NA+    NA+36537   4.912  31.072  12.470
77101NA+    NA+36538  12.787  23.630   3.757
77102NA+    NA+36539  36.025  31.967   4.216
77103NA+    NA+36540  34.429   7.363  12.358
77104NA+    NA+36541   7.293  22.198   2.669
77105NA+    NA+36542  15.113  23.222  14.995
77106NA+    NA+36543  33.453  17.090   2.207
77107NA+    NA+36544  18.092   1.861  11.535
77108NA+    NA+36545   4.766  31.024   4.256
77109NA+    NA+36546   5.244  27.689  10.592
77110NA+    NA+36547   2.277  13.779  11.444
77111NA+    NA+36548   4.363  38.530  12.954
77112NA+    NA+36549  43.854  27.452  14.848
77113NA+    NA+36550  41.800  31.401  10.481
77114NA+    NA+36551  28.597  18.176   0.773
77115NA+    NA+36552  19.116  19.720  11.483
77116NA+    NA+36553  28.586  13.793   4.681
77117NA+    NA+36554  13.295   5.740   0.453
77118NA+    NA+36555   2.310   1.400  13.938
77119NA+    NA+36556  39.021  27.577   1.819
77120NA+    NA+36557  34.510  32.407   1.273
77121NA+    NA+36558  36.472  19.185   0.959
77122NA+    NA+36559  17.120  16.268  12.377
77123NA+    NA+36560  11.153  31.122   1.237
77124NA+    NA+36561  19.593  34.378   0.388
77125NA+    NA+36562   1.874  22.544   4.199
77126NA+    NA+36563  12.177  38.377  14.388
77127NA+    NA+36564  16.269  11.322   2.700
77128NA+    NA+36565  18.167  41.435  12.081
77129NA+    NA+36566  21.730   3.802   2.312
77130NA+    NA+36567   1.886  23.989  12.052
77131NA+    NA+36568  22.593  33.014   3.274
77132NA+    NA+36569  11.172  22.133  13.888
77133NA+    NA+36570  15.202  18.118   0.822
77134NA+    NA+36571  33.973  27.122   4.219
77135NA+    NA+36572  35.021  30.922  13.926
77136NA+    NA+36573  38.903  33.565  10.909
77137NA+    NA+36574   7.669  10.786  12.453
77138NA+    NA+36575  12.690  38.486  14.929
77139NA+    NA+36576  36.385  35.982  12.025
77140NA+    NA+36577  37.973   3.950   4.211
77141NA+    NA+36578  35.512  43.942  10.907
77142NA+    NA+36579  28.438  42.782   4.200
77143NA+    NA+36580  21.518  31.445  11.080
77144NA+    NA+36581  32.035  25.061   1.802
77145NA+    NA+36582  36.916  27.121   2.693
77146NA+    NA+36583   9.337  13.679   1.311
77147NA+    NA+36584  26.668  13.800   4.322
77148NA+    NA+36585  39.532  35.997   4.780
77149NA+    NA+36586   4.293  22.210   0.777
77150NA+    NA+36587  35.992  33.492  13.024
77151NA+    NA+36588  15.608  40.819  13.953
77152NA+    NA+36589   5.350  17.227  12.350
77153NA+    NA+36590   4.775   5.251  14.289
77154NA+    NA+36591  10.674   0.885  10.919
77155NA+    NA+36592  12.320  10.834  14.857
77156NA+    NA+36593  29.483  36.939  10.974
77157NA+    NA+36594  41.963  42.440  12.988
77158NA+    NA+36595   4.852  15.669   0.817
77159NA+    NA+36596  13.223  18.744   2.798
77160NA+    NA+36597  40.830   9.219  11.858
77161NA+    NA+36598  21.082   6.409  14.297
77162NA+    NA+36599  41.420  42.863  11.375
77163NA+    NA+36600  40.414  16.664  12.004
77164NA+    NA+36601  16.109  36.347  14.498
77165NA+    NA+36602  20.211  36.381  11.489
77166NA+    NA+36603  34.476  32.888  13.415
77167NA+    NA+36604  43.877  34.053   2.868
77168NA+    NA+36605   0.317  16.277  13.882
77169NA+    NA+36606   3.811  21.706   1.360
77170NA+    NA+36607   1.961  18.224  13.812
77171NA+    NA+36608  24.611  40.887   1.908
77172NA+    NA+36609  13.126  18.102   4.830
77173NA+    NA+36610   0.469   2.734   1.726
77174NA+    NA+36611  41.327  22.524   2.880
77175NA+    NA+36612  21.100  37.572   0.935
77176NA+    NA+36613  29.055  41.531   4.223
77177NA+    NA+36614   1.283   0.354  11.600
77178NA+    NA+36615  15.798  24.163   3.811
77179NA+    NA+36616  10.299  40.324   4.217
77180NA+    NA+36617  44.879  15.213   4.200
77181NA+    NA+36618  10.863  12.171   2.683
77182NA+    NA+36619  20.556   9.872  13.003
77183NA+    NA+36620  17.710  33.393   3.864
77184NA+    NA+36621  10.807  32.930   2.780
77185NA+    NA+36622  13.727  41.325  13.502
77186NA+    NA+36623  30.081  37.388   1.366
77187NA+    NA+36624  24.721  41.010   3.166
77188NA+    NA+36625   2.430   3.786   0.880
77189NA+    NA+36626  37.027  30.934  12.934
77190NA+    NA+36627  16.664  33.547  10.978
77191NA+    NA+36628   2.957   2.964   2.387
77192NA+    NA+36629   1.426  37.844   1.337
77193NA+    NA+36630  10.815  28.104  13.025
77194NA+    NA+36631  25.602  26.684   4.168
77195NA+    NA+36632  38.439  43.002   1.298
77196NA+    NA+36633  44.319  38.027   0.421
77197NA+    NA+36634  25.484   8.178  13.462
77198NA+    NA+36635   5.781  18.261  13.878
77199NA+    NA+36636  40.519  33.412  10.906
77200NA+    NA+36637  27.016  24.625   4.215
77201NA+    NA+36638  36.530  29.060   4.121
77202NA+    NA+36639  31.114  32.555   4.116
77203NA+    NA+36640  21.601   8.657   4.192
77204NA+    NA+36641  31.507  30.990  12.505
77205NA+    NA+36642   5.331  43.806   3.741
77206NA+    NA+36643  42.514  36.888  13.021
77207NA+    NA+36644   9.667  19.710   1.851
77208NA+    NA+36645  14.594  14.829  14.883
77209NA+    NA+36646  36.908   2.886  14.458
77210NA+    NA+36647  40.385   8.194   3.648
77211NA+    NA+36648  21.045  15.294   4.209
77212NA+    NA+36649   4.758  34.108   3.660
77213NA+    NA+36650   4.835  27.969  13.325
77214NA+    NA+36651  38.921  31.043  10.623
77215NA+    NA+36652   1.785  37.923   4.348
77216NA+    NA+36653   7.395  15.153  13.796
77217NA+    NA+36654  37.976  13.256   0.318
77218NA+    NA+36655  24.191  43.819  12.985
77219NA+    NA+36656  28.144  39.356   3.833
77220NA+    NA+36657  21.151  44.818  13.395
77221NA+    NA+36658  14.218  38.985  11.998
77222NA+    NA+36659   2.441   7.362  14.933
77223NA+    NA+36660   2.908  12.121   0.879
77224NA+    NA+36661  28.485  19.613  10.441
77225NA+    NA+36662   3.829  20.634   2.831
77226NA+    NA+36663  44.404  26.208  12.462
77227NA+    NA+36664  15.807   2.385   0.476
77228NA+    NA+36665   6.328  41.951  11.925
77229NA+    NA+36666  32.549  11.837  10.547
77230NA+    NA+36667  20.642  34.534  12.548
77231NA+    NA+36668  40.350  11.857   4.835
77232NA+    NA+36669  28.509  35.978   0.752
77233NA+    NA+36670  23.631   1.914  12.430
77234NA+    NA+36671  15.090  13.758  14.999
77235NA+    NA+36672   6.744  19.634   4.721
77236NA+    NA+36673  33.020  13.706   4.637
77237NA+    NA+36674  17.662   5.383  13.987
77238NA+    NA+36675  32.614   6.408  11.927
77239NA+    NA+36676  22.572  13.309   1.933
77240NA+    NA+36677   4.938   1.913  12.949
77241NA+    NA+36678  12.655  35.063  12.899
77242NA+    NA+36679  41.863   8.239  12.843
77243NA+    NA+36680  27.987  29.587   4.654
77244NA+    NA+36681  16.149  43.276   1.798
77245NA+    NA+36682   6.859  40.872  11.971
77246NA+    NA+36683   6.694  27.974  14.013
77247NA+    NA+36684  39.468  34.901   0.261
77248NA+    NA+36685   5.433   5.315   3.812
77249NA+    NA+36686  31.542  33.938  14.029
77250NA+    NA+36687  11.254  22.073  12.048
77251NA+    NA+36688  36.417   4.399  11.613
77252NA+    NA+36689  42.795  26.054  11.460
77253NA+    NA+36690  29.520  17.100  12.850
77254NA+    NA+36691  23.174  17.161   3.185
77255NA+    NA+36692  15.656  43.871   2.683
77256NA+    NA+36693   9.319   1.399  12.551
77257NA+    NA+36694  29.437  28.025  11.078
77258NA+    NA+36695  27.633  29.173   2.686
77259NA+    NA+36696  30.110  34.994   0.831
77260NA+    NA+36697  24.103  16.603   0.266
77261NA+    NA+36698  44.391  11.154   2.290
77262NA+    NA+36699  33.899  23.062  11.454
77263NA+    NA+36700  38.420  12.778  11.084
77264NA+    NA+36701  42.432  15.125  11.910
77265NA+    NA+36702   1.270  19.048  11.587
77266NA+    NA+36703  22.244  40.975   2.730
77267NA+    NA+36704  26.014  26.071   1.752
77268NA+    NA+36705  20.599  21.180  13.968
77269NA+    NA+36706  10.820  35.539  11.392
77270NA+    NA+36707  44.872  18.251   3.253
77271NA+    NA+36708  14.155  23.545   0.871
77272NA+    NA+36709  30.108  42.777   2.403
77273NA+    NA+36710  44.801  44.326  14.491
77274NA+    NA+36711  12.302  39.521  10.444
77275NA+    NA+36712  22.141  32.529  13.379
77276NA+    NA+36713  21.163  42.033   2.364
77277NA+    NA+36714   0.852  22.608  12.826
77278NA+    NA+36715  42.404   2.809   2.340
77279NA+    NA+36716  28.050   9.253  12.577
77280NA+    NA+36717  27.049  30.991  10.939
77281NA+    NA+36718  36.550  18.242   2.311
77282NA+    NA+36719  31.110  27.955   4.707
77283NA+    NA+36720  20.197  20.132  13.980
77284NA+    NA+36721  42.455  27.445   2.224
77285NA+    NA+36722  27.459  30.979   3.782
77286NA+    NA+36723  13.105  12.699  11.927
77287NA+    NA+36724  30.636  14.787  11.978
77288NA+    NA+36725  34.377  40.981  14.445
77289NA+    NA+36726  29.943  44.409  14.326
77290NA+    NA+36727  17.181  41.813   3.748
77291NA+    NA+36728  12.348  30.927   1.753
77292NA+    NA+36729  12.197  44.294  10.464
77293NA+    NA+36730   0.853  22.546  14.369
77294NA+    NA+36731   0.316  13.135   2.267
77295NA+    NA+36732   5.228  16.701  14.280
77296NA+    NA+36733   0.893   0.886  11.991
77297NA+    NA+36734  14.211  44.457   0.364
77298NA+    NA+36735  42.970   9.767  10.564
77299NA+    NA+36736  30.916  16.764   1.702
77300NA+    NA+36737  10.178  40.461   2.382
77301NA+    NA+36738  16.773  34.582   2.723
77302NA+    NA+36739  13.844   6.684  10.598
77303NA+    NA+36740  40.458   6.224  14.487
77304NA+    NA+36741   8.797  20.768  11.870
77305NA+    NA+36742  37.369   7.247   2.367
77306NA+    NA+36743   2.428  43.866   1.401
77307NA+    NA+36744  44.783  28.635   1.902
77308NA+    NA+36745  37.577   4.271  12.867
77309NA+    NA+36746  32.064  29.654   2.389
77310NA+    NA+36747  20.730  11.752   2.210
77311NA+    NA+36748  43.880  30.910   1.314
77312NA+    NA+36749  23.568  37.878  11.997
77313NA+    NA+36750   9.790  27.546  10.513
77314NA+    NA+36751  14.226  32.927  12.926
77315NA+    NA+36752  13.310  16.306   2.769
77316NA+    NA+36753  28.029  17.257   4.653
77317NA+    NA+36754  11.150  17.144  14.359
77318NA+    NA+36755  19.617  43.934   0.483
77319NA+    NA+36756   9.858  40.878  14.015
77320NA+    NA+36757   6.749   9.190   4.657
77321NA+    NA+36758  42.796   9.158  14.867
77322NA+    NA+36759  17.293  42.941   1.356
77323NA+    NA+36760  29.053   9.734  12.050
77324NA+    NA+36761   7.684  34.096  10.576
77325NA+    NA+36762  11.751  25.530   3.688
77326NA+    NA+36763  32.493   0.748  12.978
77327NA+    NA+36764   5.879  10.255  11.429
77328NA+    NA+36765  15.086  43.388  13.844
77329NA+    NA+36766  16.671  27.586   1.912
77330NA+    NA+36767  31.449  34.920  12.979
77331NA+    NA+36768  17.750  16.639   3.280
77332NA+    NA+36769   0.281  31.966  12.842
77333NA+    NA+36770   7.737  26.491  10.032
77334NA+    NA+36771  26.467   7.862   5.088
77335NA+    NA+36772  30.427  29.563  10.549
77336NA+    NA+36773  29.980  40.545   0.375
77337NA+    NA+36774  26.037   6.329  13.016
77338NA+    NA+36775  20.042  25.483  11.857
77339NA+    NA+36776  34.571  41.839   1.316
77340NA+    NA+36777  39.890  26.503   2.345
77341NA+    NA+36778  13.316  19.661   0.912
77342NA+    NA+36779  26.626  32.110   2.317
77343NA+    NA+36780   4.806  38.826  11.434
77344NA+    NA+36781   5.358  32.026  13.054
77345NA+    NA+36782  38.061  39.007  10.093
77346NA+    NA+36783   9.888   2.811   3.370
77347NA+    NA+36784  38.544  31.940  13.823
77348NA+    NA+36785  14.659   6.678   0.280
77349NA+    NA+36786  38.326   7.333   1.834
77350NA+    NA+36787  34.922   9.774   4.641
77351NA+    NA+36788  31.059   2.745  14.350
77352NA+    NA+36789  14.178  39.486   1.855
77353NA+    NA+36790   9.149  21.701   0.946
77354NA+    NA+36791  21.539   1.764  12.068
77355NA+    NA+36792  33.928   6.688   4.770
77356NA+    NA+36793   4.421  20.684   0.731
77357NA+    NA+36794   9.743   5.404  13.016
77358NA+    NA+36795  29.502  40.488  10.589
77359NA+    NA+36796  31.030  44.991   4.655
77360NA+    NA+36797   5.307  27.618   2.843
77361NA+    NA+36798  29.564   1.303   4.163
77362NA+    NA+36799  28.444  24.206   5.775
77363NA+    NA+36800  26.183  25.064  14.798
77364NA+    NA+36801  37.488  10.252  12.448
77365NA+    NA+36802  39.346   3.931  11.083
77366NA+    NA+36803  36.511  21.097  12.572
77367NA+    NA+36804  36.960  32.136  12.380
77368NA+    NA+36805   6.418  21.688  13.361
77369NA+    NA+36806  38.960  35.993  13.543
77370NA+    NA+36807  43.871  40.879   3.823
77371NA+    NA+36808  25.709  30.438  14.373
77372NA+    NA+36809  25.577  21.611  10.463
77373NA+    NA+36810  10.299   5.746  14.987
77374NA+    NA+36811  19.565  33.468  14.895
77375NA+    NA+36812  32.419   5.344  11.475
77376NA+    NA+36813  40.040  36.351  11.600
77377NA+    NA+36814  44.948   6.191   1.805
77378NA+    NA+36815  21.669  30.460  14.899
77379NA+    NA+36816   4.925  26.490   0.455
77380NA+    NA+36817  19.657  22.193  13.919
77381NA+    NA+36818  18.232  12.222  10.573
77382NA+    NA+36819  34.012  26.684  10.488
77383NA+    NA+36820  28.125   5.867   4.266
77384NA+    NA+36821   6.351   2.373  11.388
77385NA+    NA+36822  20.150  36.533  14.778
77386NA+    NA+36823  28.538  24.598  11.991
77387NA+    NA+36824  10.826  34.535  14.365
77388NA+    NA+36825  34.500  28.151  13.377
77389NA+    NA+36826  24.507  32.634   3.329
77390NA+    NA+36827  32.463  38.987  13.548
77391NA+    NA+36828  30.622  34.937   4.302
77392NA+    NA+36829   8.322   4.756   3.848
77393NA+    NA+36830  23.226   0.319  11.049
77394NA+    NA+36831  19.284  24.159   2.705
77395NA+    NA+36832   0.747  20.129   1.751
77396NA+    NA+36833  40.007   4.758  13.061
77397NA+    NA+36834   7.416  15.184   0.742
77398NA+    NA+36835  29.608   9.382  10.609
77399NA+    NA+36836  27.179  25.051  14.802
77400NA+    NA+36837  33.882  43.301  12.999
77401NA+    NA+36838   6.182   7.895  11.399
77402NA+    NA+36839   8.667  22.083   2.711
77403NA+    NA+36840  41.387  36.972   4.750
77404NA+    NA+36841   7.320  42.429   0.911
77405NA+    NA+36842   7.867  30.450  10.996
77406NA+    NA+36843  34.075   6.421  13.959
77407NA+    NA+36844  35.889  34.951  10.921
77408NA+    NA+36845  26.209   5.757  10.935
77409NA+    NA+36846  31.477  24.084  11.978
77410NA+    NA+36847   6.837  44.958  11.118
77411NA+    NA+36848  35.385  20.151  14.991
77412NA+    NA+36849  14.284  20.107   2.180
77413NA+    NA+36850  34.017  39.003  12.050
77414NA+    NA+36851  37.450  21.513  10.447
77415NA+    NA+36852  26.566  24.223  10.964
77416NA+    NA+36853   1.935  29.544   2.763
77417NA+    NA+36854  39.556  17.785  14.977
77418NA+    NA+36855  24.666  42.473   4.700
77419NA+    NA+36856   0.494  41.893  10.950
77420NA+    NA+36857  43.382   0.846  13.352
77421NA+    NA+36858  12.313   0.469  12.021
77422NA+    NA+36859   3.890  25.481   9.551
77423NA+    NA+36860  43.390   3.900  14.981
77424NA+    NA+36861  18.734  30.972  12.438
77425NA+    NA+36862  44.964  13.307  13.006
77426NA+    NA+36863  32.936  27.034  13.444
77427NA+    NA+36864  25.690  44.349   3.769
77428NA+    NA+36865  25.113  37.339  13.456
77429NA+    NA+36866   7.302  42.367  12.436
77430NA+    NA+36867  20.204  43.991  13.918
77431NA+    NA+36868  41.530  43.285   1.406
77432NA+    NA+36869   4.794  32.921  13.325
77433NA+    NA+36870  28.090  38.874  14.973
77434NA+    NA+36871  24.228  17.164   3.218
77435NA+    NA+36872  35.931  21.545  10.404
77436NA+    NA+36873  40.372  28.112  11.523
77437NA+    NA+36874   2.958  36.879   2.819
77438NA+    NA+36875   7.769  40.384   3.861
77439NA+    NA+36876   7.863  42.961   1.344
77440NA+    NA+36877  34.609  20.576   4.625
77441NA+    NA+36878  18.187  15.098   1.728
77442NA+    NA+36879   5.885  37.037   2.815
77443NA+    NA+36880   4.376  22.712  12.958
77444NA+    NA+36881  40.426  12.140  10.605
77445NA+    NA+36882  27.544   3.763  11.518
77446NA+    NA+36883  36.546  10.276  11.415
77447NA+    NA+36884  39.427  25.972  11.935
77448NA+    NA+36885  22.999  31.476   3.662
77449NA+    NA+36886   1.435  13.233   1.850
77450NA+    NA+36887   5.393   6.842  11.551
77451NA+    NA+36888  17.576  23.603  13.031
77452NA+    NA+36889  17.773   8.680  14.923
77453NA+    NA+36890  17.588  20.638   1.262
77454NA+    NA+36891  20.060  10.759   3.162
77455NA+    NA+36892  25.489  36.026   2.684
77456NA+    NA+36893  25.170  33.067  13.338
77457NA+    NA+36894  24.628  42.419   1.262
77458NA+    NA+36895  37.055  16.754   0.406
77459NA+    NA+36896   9.824  13.280   2.689
77460NA+    NA+36897  37.856  25.174  10.429
77461NA+    NA+36898  43.980  30.506  12.384
77462NA+    NA+36899  40.436  10.163  11.880
77463NA+    NA+36900  34.117   1.483   2.837
77464NA+    NA+36901   2.452  36.579  11.945
77465NA+    NA+36902   2.295  16.291  14.846
77466NA+    NA+36903  34.468  39.417   0.467
77467NA+    NA+36904  18.758  28.528  14.973
77468NA+    NA+36905  30.638  21.089  10.426
77469NA+    NA+36906  17.724   0.259  13.906
77470NA+    NA+36907  42.924  41.920  12.939
77471NA+    NA+36908  41.525  32.571  12.445
77472NA+    NA+36909  19.094  16.198  14.763
77473NA+    NA+36910  16.722  22.553  12.526
77474NA+    NA+36911  26.634  19.174  14.304
77475NA+    NA+36912   2.777  11.295  11.112
77476NA+    NA+36913  25.043  10.641   0.726
77477NA+    NA+36914  10.820  20.205   0.287
77478NA+    NA+36915   2.750  33.102  11.479
77479NA+    NA+36916   5.720  13.123  12.043
77480NA+    NA+36917  15.161  32.001   2.381
77481NA+    NA+36918  41.502  25.190  11.573
77482NA+    NA+36919   5.439  26.593   3.309
77483NA+    NA+36920  10.339  20.168  12.956
77484NA+    NA+36921  29.511  21.232   1.220
77485NA+    NA+36922  38.890  10.649   0.956
77486NA+    NA+36923   3.440   2.819   2.832
77487NA+    NA+36924  15.648  15.803  13.420
77488NA+    NA+36925   1.866  22.643  11.504
77489NA+    NA+36926  37.579  10.650   2.759
77490NA+    NA+36927   3.731  23.574  12.826
77491NA+    NA+36928   6.731  18.573   3.245
77492NA+    NA+36929  16.752  23.580   1.225
77493NA+    NA+36930  26.680  24.042   1.864
77494NA+    NA+36931  17.186   1.312   4.838
77495NA+    NA+36932  42.902   4.287   1.214
77496NA+    NA+36933  32.536  14.291   4.126
77497NA+    NA+36934   8.816  24.586   3.801
77498NA+    NA+36935  30.584  40.321  12.832
77499NA+    NA+36936  35.441  34.881   1.260
77500NA+    NA+36937   5.722   8.398   0.805
77501NA+    NA+36938   1.860  19.113  14.837
77502NA+    NA+36939  19.251   5.287   2.367
77503NA+    NA+36940  40.923  33.490  10.510
77504NA+    NA+36941   6.755  22.695   0.288
77505NA+    NA+36942  14.298   2.741   4.279
77506NA+    NA+36943  10.820  16.722   0.849
77507NA+    NA+36944  11.177   9.664   0.744
77508NA+    NA+36945  17.768   8.892   4.611
77509NA+    NA+36946  34.944  15.678  13.513
77510NA+    NA+36947  27.949  33.500   0.327
77511NA+    NA+36948   1.955  18.561  11.884
77512NA+    NA+36949  16.181   9.814  13.921
77513NA+    NA+36950  35.996  41.969   1.419
77514NA+    NA+36951  19.591   8.863   1.728
77515NA+    NA+36952  16.693  19.182  13.429
77516NA+    NA+36953   1.469  13.164   3.854
77517NA+    NA+36954  10.139   0.939   4.709
77518NA+    NA+36955  16.659  34.881   2.335
77519NA+    NA+36956  39.855  27.506   4.763
77520NA+    NA+36957  25.494  37.845   2.323
77521NA+    NA+36958  32.615  42.399  14.773
77522NA+    NA+36959   5.725  35.482  14.372
77523NA+    NA+36960  11.322  36.401   3.299
77524NA+    NA+36961  12.146  26.570   2.671
77525NA+    NA+36962  12.281   3.357   1.717
77526NA+    NA+36963  21.576  17.154   1.709
77527NA+    NA+36964  32.448  23.218  11.855
77528NA+    NA+36965   5.812  31.061  11.041
77529NA+    NA+36966  28.051  25.001   1.697
77530NA+    NA+36967  29.934  12.337  14.403
77531NA+    NA+36968  23.084   7.679   4.648
77532NA+    NA+36969  32.423  14.181  12.456
77533NA+    NA+36970  18.656  23.511  14.408
77534NA+    NA+36971  44.952   1.423  12.433
77535NA+    NA+36972  28.166  41.948  12.524
77536NA+    NA+36973  42.928   7.702  11.559
77537NA+    NA+36974  34.505  37.553  14.960
77538NA+    NA+36975  19.535  23.115  12.848
77539NA+    NA+36976  29.535  34.035   3.319
77540NA+    NA+36977  37.431   0.826   5.141
77541NA+    NA+36978  16.315  40.914  14.393
77542NA+    NA+36979  14.194  13.236   1.696
77543NA+    NA+36980  39.499   4.923  10.517
77544NA+    NA+36981  11.857  35.411   3.149
77545NA+    NA+36982  20.684   2.918  12.066
77546NA+    NA+36983  25.125   6.790  11.599
77547NA+    NA+36984  10.818   0.413   4.811
77548NA+    NA+36985  39.907   6.376   2.691
77549NA+    NA+36986  26.556  22.645   2.678
77550NA+    NA+36987  15.820  21.706   1.360
77551NA+    NA+36988  16.160  37.982  11.612
77552NA+    NA+36989  14.335  33.524  13.536
77553NA+    NA+36990   3.315  15.309   2.837
77554NA+    NA+36991  16.659  10.271   0.405
77555NA+    NA+36992  24.665   5.336  13.894
77556NA+    NA+36993  35.084  16.655  14.342
77557NA+    NA+36994  43.494  27.520   3.707
77558NA+    NA+36995  40.990  10.810   1.447
77559NA+    NA+36996  17.254  26.607  14.465
77560NA+    NA+36997   6.223  40.430   2.750
77561NA+    NA+36998  15.704  20.623   3.818
77562NA+    NA+36999   5.394  35.898   0.874
77563NA+    NA+37000  36.483  42.304  12.899
77564NA+    NA+37001  19.074  36.942  10.500
77565NA+    NA+37002  11.217  31.548   0.824
77566NA+    NA+37003  23.542   9.209   4.742
77567NA+    NA+37004   5.221  22.704  12.857
77568NA+    NA+37005  37.345  32.557   3.265
77569NA+    NA+37006  11.209  39.460  14.364
77570NA+    NA+37007   2.840  23.559  12.452
77571NA+    NA+37008  42.401   0.407  12.961
77572NA+    NA+37009  44.389   9.321   0.256
77573NA+    NA+37010  29.500  18.209   2.212
77574NA+    NA+37011  26.965  16.574   2.718
77575NA+    NA+37012  42.306  11.265  14.983
77576NA+    NA+37013  41.333   5.340  14.390
77577NA+    NA+37014  17.692  24.220  11.123
77578NA+    NA+37015   8.175   9.712  10.608
77579NA+    NA+37016   3.731  42.298  13.894
77580NA+    NA+37017   4.424  44.821  14.783
77581NA+    NA+37018  25.495  10.856   0.752
77582NA+    NA+37019  27.446  44.007  11.526
77583NA+    NA+37020  28.558   8.355  14.020
77584NA+    NA+37021   7.292  37.875   2.812
77585NA+    NA+37022   7.750  21.025  10.002
77586NA+    NA+37023  37.377  23.590  10.485
77587NA+    NA+37024   4.207  32.913  13.340
77588NA+    NA+37025  44.338  14.255  11.052
77589NA+    NA+37026  44.302  39.342   0.280
77590NA+    NA+37027  20.606   1.337   2.819
77591NA+    NA+37028   7.187  40.393   2.388
77592NA+    NA+37029  26.993  36.007   2.184
77593NA+    NA+37030  17.673  24.574   3.642
77594NA+    NA+37031   1.468  21.559  14.281
77595NA+    NA+37032  20.661  37.458  14.371
77596NA+    NA+37033   3.791   5.428  11.497
77597NA+    NA+37034  25.184   8.241   4.317
77598NA+    NA+37035  12.255  32.530  11.111
77599NA+    NA+37036  34.044  29.996   1.777
77600NA+    NA+37037  39.529  32.044   4.789
77601NA+    NA+37038  27.526  14.236   1.926
77602NA+    NA+37039   7.189  38.982  10.913
77603NA+    NA+37040   1.917  13.697  14.483
77604NA+    NA+37041   1.468  18.758   4.167
77605NA+    NA+37042  17.764  27.010   3.278
77606NA+    NA+37043   2.401  39.356   2.251
77607NA+    NA+37044  14.307  32.993  11.128
77608NA+    NA+37045   1.907   2.768   1.773
77609NA+    NA+37046   7.842  43.939   0.884
77610NA+    NA+37047  33.536  43.434   3.342
77611NA+    NA+37048   7.890   5.434   4.734
77612NA+    NA+37049  25.092  37.850   0.852
77613NA+    NA+37050   2.393   6.800  11.063
77614NA+    NA+37051  41.293  37.859   1.309
77615NA+    NA+37052  32.454  19.759  14.390
77616NA+    NA+37053  28.476  38.388  10.634
77617NA+    NA+37054  31.488   1.897   1.729
77618NA+    NA+37055   3.422   5.777   4.606
77619NA+    NA+37056  10.640  23.490   3.671
77620NA+    NA+37057  35.365  16.083  10.491
77621NA+    NA+37058  15.133  17.558  13.395
77622NA+    NA+37059  17.249  41.026   2.228
77623NA+    NA+37060  37.920  15.798  14.381
77624NA+    NA+37061  31.622   1.945  14.811
77625NA+    NA+37062   2.459   2.932   3.719
77626NA+    NA+37063  44.362  15.606   3.160
77627NA+    NA+37064  19.730  27.476  10.988
77628NA+    NA+37065  15.673   8.359  13.037
77629NA+    NA+37066  20.584  41.461   0.795
77630NA+    NA+37067   2.769  34.380   4.814
77631NA+    NA+37068  39.824   6.850   0.952
77632NA+    NA+37069  28.531   0.830   0.370
77633NA+    NA+37070  36.962  43.842   4.797
77634NA+    NA+37071  23.034  26.637  13.474
77635NA+    NA+37072  33.964  14.700  14.346
77636NA+    NA+37073  29.480  17.694  13.316
77637NA+    NA+37074  23.607  43.309  10.476
77638NA+    NA+37075  10.762   8.212   3.804
77639NA+    NA+37076  34.483  30.012   3.724
77640NA+    NA+37077  35.980  37.854   0.881
77641NA+    NA+37078  42.830  36.036  12.896
77642NA+    NA+37079  21.116  25.579  13.483
77643NA+    NA+37080  39.950  32.482  14.944
77644NA+    NA+37081  38.943  30.578   2.861
77645NA+    NA+37082  26.685  38.065   9.476
77646NA+    NA+37083   6.292  12.120  12.089
77647NA+    NA+37084  36.419  28.486  12.970
77648NA+    NA+37085   4.800  33.921  12.349
77649NA+    NA+37086   1.329  44.358  12.936
77650NA+    NA+37087   1.745  23.148  13.414
77651NA+    NA+37088  34.961  23.623  10.469
77652NA+    NA+37089   8.864   7.221   2.292
77653NA+    NA+37090  13.269   8.784   4.345
77654NA+    NA+37091  36.065  13.269   4.188
77655NA+    NA+37092   1.745  18.285   2.728
77656NA+    NA+37093   4.341   4.826   2.738
77657NA+    NA+37094   5.321  31.639   2.358
77658NA+    NA+37095  31.116  11.257  14.008
77659NA+    NA+37096  17.600  10.172   4.280
77660NA+    NA+37097   8.790   0.776   2.194
77661NA+    NA+37098  25.080  32.404   3.337
77662NA+    NA+37099  10.803  23.109  11.872
77663NA+    NA+37100   0.792  28.991  14.784
77664NA+    NA+37101   1.434  18.239  12.955
77665NA+    NA+37102   5.918  37.069   4.311
77666NA+    NA+37103  10.787  32.993   0.309
77667NA+    NA+37104  31.076   6.903   1.371
77668NA+    NA+37105  16.282  14.727  14.951
77669NA+    NA+37106  29.431  22.165   3.672
77670NA+    NA+37107  35.857  31.573  11.397
77671NA+    NA+37108   8.699  28.944   2.215
77672NA+    NA+37109   3.904  17.233  14.381
77673NA+    NA+37110  15.214  16.190   3.657
77674NA+    NA+37111  32.938  37.577  12.564
77675NA+    NA+37112  25.048  17.624   2.762
77676NA+    NA+37113   8.876   0.389  14.912
77677NA+    NA+37114  37.416  15.637   3.322
77678NA+    NA+37115  33.129  18.650   2.805
77679NA+    NA+37116  37.866  41.958   4.261
77680NA+    NA+37117  16.275  38.367   0.736
77681NA+    NA+37118   3.333   8.337   1.306
77682NA+    NA+37119  12.330  23.230   3.354
77683NA+    NA+37120  29.947  32.481   0.819
77684NA+    NA+37121   5.350  29.436   1.412
77685NA+    NA+37122  27.454  23.706   4.766
77686NA+    NA+37123   7.676  13.242  10.466
77687NA+    NA+37124  31.416  13.685   1.216
77688NA+    NA+37125  11.283   7.880  13.438
77689NA+    NA+37126  38.853  33.416   3.348
77690NA+    NA+37127  20.050  28.156   0.902
77691NA+    NA+37128  20.199   8.831  13.987
77692NA+    NA+37129  43.804  41.532  12.381
77693NA+    NA+37130  10.196   5.307  12.987
77694NA+    NA+37131  12.244  17.231   0.408
77695NA+    NA+37132  28.074  28.511   2.701
77696NA+    NA+37133  25.572  27.950   0.422
77697NA+    NA+37134  13.221  38.991   5.188
77698NA+    NA+37135  28.439  12.132   9.526
77699NA+    NA+37136  28.556  25.974   1.698
77700NA+    NA+37137  23.219  41.508   1.437
77701NA+    NA+37138  16.091  25.057  12.044
77702NA+    NA+37139   1.970  28.051  14.354
77703NA+    NA+37140  10.329  31.110   1.297
77704NA+    NA+37141  28.138  18.064   4.161
77705NA+    NA+37142  19.199  21.627  10.071
77706NA+    NA+37143   9.169  19.283  12.523
77707NA+    NA+37144  26.683  23.596  14.906
77708NA+    NA+37145  15.183  16.771  13.511
77709NA+    NA+37146  12.164  13.347   1.298
77710NA+    NA+37147   2.434  37.375  11.409
77711NA+    NA+37148  36.351  22.054   0.461
77712NA+    NA+37149  43.391   6.402  14.023
77713NA+    NA+37150  33.569  23.601  14.031
77714NA+    NA+37151  34.516  13.265   0.843
77715NA+    NA+37152  40.880  13.236   3.306
77716NA+    NA+37153  33.895  15.781   1.697
77717NA+    NA+37154   4.725  34.543   3.804
77718NA+    NA+37155  44.485  24.535  12.539
77719NA+    NA+37156  31.620  15.811   0.405
77720NA+    NA+37157  36.042  39.879  14.371
77721NA+    NA+37158  43.913  31.455  14.497
77722NA+    NA+37159  16.604  30.494  14.345
77723NA+    NA+37160   3.422  38.371  10.419
77724NA+    NA+37161  11.174  18.705   3.148
77725NA+    NA+37162  15.121   9.236   0.874
77726NA+    NA+37163  35.466  27.016  10.442
77727NA+    NA+37164  29.478  27.150  10.581
77728NA+    NA+37165   4.399  20.532   1.372
77729NA+    NA+37166  44.010  17.061  13.396
77730NA+    NA+37167  16.154   0.263  13.905
77731NA+    NA+37168   5.376  43.859   3.280
77732NA+    NA+37169   6.728   1.766   1.856
77733NA+    NA+37170  24.012  42.453   0.814
77734NA+    NA+37171  14.169  34.408  13.943
77735NA+    NA+37172  39.457  15.255   2.757
77736NA+    NA+37173  38.476  29.924   0.347
77737NA+    NA+37174  28.977   7.892   2.773
77738NA+    NA+37175  31.075  13.611   4.786
77739NA+    NA+37176  35.927  12.138  14.967
77740NA+    NA+37177  12.613  22.558   3.715
77741NA+    NA+37178  24.215  36.543   1.756
77742NA+    NA+37179  12.141  23.630   4.682
77743NA+    NA+37180  28.512   0.426   3.147
77744NA+    NA+37181   0.449  14.326  13.883
77745NA+    NA+37182  32.964   3.437  10.598
77746NA+    NA+37183  30.604  21.172  14.932
77747NA+    NA+37184  22.720   0.272  14.898
77748NA+    NA+37185  14.126  16.203   0.300
77749NA+    NA+37186  12.286  17.726   0.376
77750NA+    NA+37187  20.600  10.138  10.623
77751NA+    NA+37188  41.817   7.839   1.387
77752NA+    NA+37189   9.245   8.839  12.472
77753NA+    NA+37190  35.060  26.663  12.854
77754NA+    NA+37191  25.027  15.785   2.692
77755NA+    NA+37192  35.995  26.684   1.212
77756NA+    NA+37193  31.139   8.679  11.873
77757NA+    NA+37194   7.893  36.907   2.897
77758NA+    NA+37195  18.639   9.861   3.261
77759NA+    NA+37196   2.920  43.813   3.203
77760NA+    NA+37197   2.383  37.048  13.425
77761NA+    NA+37198  43.315   7.335   4.316
77762NA+    NA+37199  36.900   9.811  13.319
77763NA+    NA+37200  35.409   5.358  10.513
77764NA+    NA+37201  29.494  42.989  14.816
77765NA+    NA+37202   6.273  39.532   3.787
77766NA+    NA+37203  29.629   5.213   4.271
77767NA+    NA+37204  43.853  27.941  13.853
77768NA+    NA+37205   6.228  20.542   4.334
77769NA+    NA+37206  21.609  15.682   2.248
77770NA+    NA+37207  28.553  36.923   0.252
77771NA+    NA+37208  14.657  17.594   0.311
77772NA+    NA+37209   2.729  17.658   5.690
77773NA+    NA+37210  22.515  28.052  11.416
77774NA+    NA+37211  43.808  41.415   4.745
77775NA+    NA+37212   1.760   8.175   0.356
77776NA+    NA+37213   2.469   8.194   4.839
77777NA+    NA+37214  44.800   3.888  11.040
77778NA+    NA+37215  14.334   2.326   3.348
77779NA+    NA+37216  30.593   2.942  13.901
77780NA+    NA+37217  27.661  40.487   3.807
77781NA+    NA+37218  41.410   4.705   1.697
77782NA+    NA+37219  18.695  38.548   0.766
77783NA+    NA+37220  43.845  21.597  13.831
77784NA+    NA+37221  26.001   8.172   0.482
77785NA+    NA+37222  40.968  33.488  14.300
77786NA+    NA+37223  25.208  34.438  12.350
77787NA+    NA+37224  19.543  35.547   2.708
77788NA+    NA+37225  21.260  34.500  13.307
77789NA+    NA+37226  10.669  27.129  11.012
77790NA+    NA+37227  30.110  11.769   3.741
77791NA+    NA+37228  43.499  31.555  13.823
77792NA+    NA+37229  36.590   1.808  11.481
77793NA+    NA+37230  41.993  13.762   4.683
77794NA+    NA+37231   2.229  41.466  13.354
77795NA+    NA+37232  44.463  39.851   1.739
77796NA+    NA+37233   5.882  34.498  11.480
77797NA+    NA+37234  30.007  23.496  11.957
77798NA+    NA+37235   2.403  24.038   3.861
77799NA+    NA+37236  43.992  23.999   0.251
77800NA+    NA+37237   1.959   3.302   4.791
77801NA+    NA+37238  32.514  24.105   3.294
77802NA+    NA+37239  30.520  44.268   2.774
77803NA+    NA+37240   9.772   3.362  11.978
77804NA+    NA+37241  26.112  19.217  13.435
77805NA+    NA+37242  36.419  44.850  12.077
77806NA+    NA+37243  22.729  44.983  11.444
77807NA+    NA+37244  26.155  30.152   3.801
77808NA+    NA+37245  13.693  41.480   3.698
77809NA+    NA+37246  13.286  39.314   3.335
77810NA+    NA+37247   0.472   5.901  10.582
77811NA+    NA+37248  32.064  17.596   3.285
77812NA+    NA+37249  32.969  43.839  11.122
77813NA+    NA+37250  40.995  23.072  13.538
77814NA+    NA+37251  27.961  38.526   0.291
77815NA+    NA+37252  14.669  38.962   0.405
77816NA+    NA+37253  24.227   7.310   4.335
77817NA+    NA+37254  40.481  19.537   1.325
77818NA+    NA+37255  15.239  24.050   2.242
77819NA+    NA+37256  31.920   5.243   0.773
77820NA+    NA+37257  22.575   0.834  10.623
77821NA+    NA+37258   0.830  40.976   4.320
77822NA+    NA+37259  24.684  36.927  13.012
77823NA+    NA+37260   8.823   8.345   4.656
77824NA+    NA+37261  16.211  27.553  14.821
77825NA+    NA+37262   2.352  33.592   1.752
77826NA+    NA+37263   1.483  17.722  11.004
77827NA+    NA+37264  20.617   4.803  12.921
77828NA+    NA+37265   2.227   4.306  14.475
77829NA+    NA+37266   7.732  22.115  11.055
77830NA+    NA+37267  25.995  13.231  13.379
77831NA+    NA+37268  19.073  10.190   1.741
77832NA+    NA+37269  19.152  35.549   2.778
77833NA+    NA+37270  35.054   6.724  12.979
77834NA+    NA+37271  33.936   8.793  10.514
77835NA+    NA+37272  40.797  10.724   2.663
77836NA+    NA+37273  15.591   6.877   3.279
77837NA+    NA+37274  40.502  32.024   1.836
77838NA+    NA+37275  14.637   9.369  14.800
77839NA+    NA+37276  32.906  36.868   4.777
77840NA+    NA+37277   2.763  44.364  13.918
77841NA+    NA+37278   0.306   0.455   4.152
77842NA+    NA+37279   5.861   9.762  14.512
77843NA+    NA+37280  42.995  26.197   0.346
77844NA+    NA+37281  31.983  27.609   4.250
77845NA+    NA+37282   6.358  25.554   3.210
77846NA+    NA+37283  30.471  19.573  14.771
77847NA+    NA+37284  44.413  25.476  13.878
77848NA+    NA+37285   2.859  13.335   1.435
77849NA+    NA+37286  14.310   5.748  10.906
77850NA+    NA+37287  14.690   3.304   2.775
77851NA+    NA+37288   3.368   1.299   2.829
77852NA+    NA+37289  36.516  30.131  14.839
77853NA+    NA+37290  41.953  14.334  10.465
77854NA+    NA+37291  36.453   6.388   4.345
77855NA+    NA+37292  39.036  17.709  12.353
77856NA+    NA+37293   6.343  34.519  11.561
77857NA+    NA+37294  29.969  41.968   3.372
77858NA+    NA+37295   9.729  23.177  10.935
77859NA+    NA+37296  41.849  31.586   0.843
77860NA+    NA+37297  41.345  36.530   3.859
77861NA+    NA+37298  43.903  20.729  12.902
77862NA+    NA+37299  40.505  11.689  12.083
77863NA+    NA+37300  13.795  36.397  13.891
77864NA+    NA+37301   8.806  11.834  14.857
77865NA+    NA+37302  38.342  42.974  12.432
77866NA+    NA+37303  21.042  26.627   3.740
77867NA+    NA+37304   6.276   4.713  10.928
77868NA+    NA+37305  24.703  34.520   0.791
77869NA+    NA+37306  41.041  31.490  11.377
77870NA+    NA+37307  17.081   8.344  13.827
77871NA+    NA+37308  27.598  39.428  13.373
77872NA+    NA+37309   4.746   9.184  14.431
77873NA+    NA+37310   5.825  29.120   0.416
77874NA+    NA+37311  29.501   7.829  14.449
77875NA+    NA+37312  32.072  27.591   2.793
77876NA+    NA+37313  25.107  28.608  12.429
77877NA+    NA+37314   2.400  20.176   3.689
77878NA+    NA+37315  12.319  12.275   4.795
77879NA+    NA+37316  41.443  31.058   3.149
77880NA+    NA+37317  42.820   0.901  11.123
77881NA+    NA+37318  43.364  15.327   1.740
77882NA+    NA+37319  12.789  32.933   1.417
77883NA+    NA+37320  15.698  15.651   2.803
77884NA+    NA+37321  32.018  43.279  14.513
77885NA+    NA+37322   3.250   9.342  10.442
77886NA+    NA+37323  36.428  39.910   2.214
77887NA+    NA+37324   0.781  24.541  14.004
77888NA+    NA+37325  38.869  16.294  11.987
77889NA+    NA+37326  17.569  12.669   4.720
77890NA+    NA+37327  21.548   4.906  14.345
77891NA+    NA+37328  44.880   4.319   3.796
77892NA+    NA+37329  42.823  19.208   4.823
77893NA+    NA+37330   2.871  39.394   4.330
77894NA+    NA+37331  38.959   5.699  10.127
77895NA+    NA+37332   8.659   2.892   1.277
77896NA+    NA+37333  36.054  13.635   1.254
77897NA+    NA+37334  10.776   4.223  12.044
77898NA+    NA+37335  22.048  15.775   0.944
77899NA+    NA+37336  24.554   7.364  12.346
77900NA+    NA+37337  25.475  44.886   4.613
77901NA+    NA+37338  25.079   4.698   4.279
77902NA+    NA+37339  21.154  32.957   1.757
77903NA+    NA+37340  18.790   1.276   0.284
77904NA+    NA+37341  36.946  34.572  10.421
77905NA+    NA+37342  25.084  31.485   4.836
77906NA+    NA+37343   3.375  21.621  12.028
77907NA+    NA+37344   4.864  16.613  11.011
77908NA+    NA+37345  28.979   6.389   4.343
77909NA+    NA+37346  37.932   0.441   4.763
77910NA+    NA+37347  17.569  44.359  10.432
77911NA+    NA+37348  13.286  28.972   1.804
77912NA+    NA+37349  24.583  10.226  12.448
77913NA+    NA+37350   1.406  11.673   1.878
77914NA+    NA+37351  43.509  32.919   0.889
77915NA+    NA+37352   5.292  28.658   2.743
77916NA+    NA+37353  24.572  39.886   1.829
77917NA+    NA+37354  26.662  12.656   0.392
77918NA+    NA+37355  11.302  31.472   3.248
77919NA+    NA+37356  37.420   7.816  14.353
77920NA+    NA+37357  41.803   2.758  11.013
77921NA+    NA+37358  32.535   2.298  14.808
77922NA+    NA+37359  44.487  23.171   3.328
77923NA+    NA+37360  21.138  42.784  11.003
77924NA+    NA+37361   9.727  32.416  12.450
77925NA+    NA+37362  11.835   2.381   3.226
77926NA+    NA+37363  10.872  17.724  11.502
77927NA+    NA+37364  31.947  15.739  11.876
77928NA+    NA+37365  44.262   0.963   2.204
77929NA+    NA+37366  43.291  22.539  13.431
77930NA+    NA+37367   3.821   1.292  12.373
77931NA+    NA+37368  16.573  42.908  13.993
77932NA+    NA+37369   0.931   7.867  13.322
77933NA+    NA+37370  12.836  25.117   0.726
77934NA+    NA+37371   0.939   4.794   3.758
77935NA+    NA+37372  20.111  43.795   0.755
77936NA+    NA+37373  40.963  35.057   4.192
77937NA+    NA+37374  36.499   1.259  12.912
77938NA+    NA+37375  32.390  22.503   0.966
77939NA+    NA+37376  13.674  16.227   4.174
77940NA+    NA+37377   7.756  36.497   4.636
77941NA+    NA+37378  30.972  23.127  12.481
77942NA+    NA+37379  15.325  17.211   1.307
77943NA+    NA+37380  13.679  31.965  14.491
77944NA+    NA+37381   1.301   4.724  10.926
77945NA+    NA+37382  16.569  10.778   1.430
77946NA+    NA+37383  30.628   8.789  11.970
77947NA+    NA+37384   7.387  14.591  11.870
77948NA+    NA+37385  23.711  44.810  11.403
77949NA+    NA+37386  15.329   2.239  12.421
77950NA+    NA+37387  19.544  37.920   0.930
77951NA+    NA+37388  14.718   3.439   1.826
77952NA+    NA+37389  12.273  17.599  11.557
77953NA+    NA+37390  30.547  17.183   3.156
77954NA+    NA+37391  26.634   1.389   0.768
77955NA+    NA+37392  37.355  15.175   4.764
77956NA+    NA+37393  19.626   6.724  13.039
77957NA+    NA+37394  44.970  24.092   2.332
77958NA+    NA+37395   3.268  22.065   4.838
77959NA+    NA+37396  29.120  39.876   3.690
77960NA+    NA+37397  35.414  29.591  13.367
77961NA+    NA+37398  11.221  34.614  13.400
77962NA+    NA+37399   2.860  10.299   1.400
77963NA+    NA+37400  34.878  28.676   2.196
77964NA+    NA+37401  19.665  38.028  11.080
77965NA+    NA+37402  42.896   1.931   0.243
77966NA+    NA+37403  34.579   4.885  11.912
77967NA+    NA+37404  26.000   5.215   2.858
77968NA+    NA+37405  17.584  30.649  11.566
77969NA+    NA+37406  40.815  23.579   4.623
77970NA+    NA+37407  15.304   7.180  13.908
77971NA+    NA+37408   2.229   0.902  11.581
77972NA+    NA+37409  34.485  32.983   0.371
77973NA+    NA+37410   4.361  26.118  12.508
77974NA+    NA+37411  10.379  44.956   3.773
77975NA+    NA+37412   0.817  37.047   0.353
77976NA+    NA+37413  28.038  11.731  11.924
77977NA+    NA+37414  26.499   0.447   2.231
77978NA+    NA+37415   2.410  44.883  14.298
77979NA+    NA+37416  21.020   1.780  12.986
77980NA+    NA+37417  37.998  12.631   9.931
77981NA+    NA+37418  39.840  27.983  13.840
77982NA+    NA+37419  30.072  18.786   0.804
77983NA+    NA+37420  12.274  28.477   3.653
77984NA+    NA+37421  33.953  29.443   3.821
77985NA+    NA+37422  24.151  24.006  12.483
77986NA+    NA+37423  40.530  26.631   0.802
77987NA+    NA+37424  10.296  28.578  13.838
77988NA+    NA+37425  19.680   0.913   2.274
77989NA+    NA+37426  39.413  28.566  10.565
77990NA+    NA+37427  39.348  26.596  14.765
77991NA+    NA+37428  16.109   4.888   1.445
77992NA+    NA+37429  40.951  18.130   0.322
77993NA+    NA+37430  44.774  34.090   5.710
77994NA+    NA+37431   3.871  26.538   2.676
77995NA+    NA+37432  21.617  34.460   0.360
77996NA+    NA+37433  25.044  23.511   0.908
77997NA+    NA+37434  14.204   0.412  11.516
77998NA+    NA+37435  26.995  27.455  13.042
77999NA+    NA+37436  32.407  12.159   3.698
78000NA+    NA+37437  21.076   4.443   2.676
78001NA+    NA+37438  12.782   9.377  12.431
78002NA+    NA+37439   0.964   2.754   0.475
78003NA+    NA+37440  35.925   1.353  14.916
78004NA+    NA+37441  36.868  39.958   1.281
78005NA+    NA+37442  24.707  10.658  12.464
78006NA+    NA+37443  11.242  16.238  12.346
78007NA+    NA+37444  18.699  44.437  14.457
78008NA+    NA+37445  34.939   0.470   0.482
78009NA+    NA+37446  12.334   2.337   1.268
78010NA+    NA+37447  13.245  43.335   0.916
78011NA+    NA+37448  24.100  18.128   3.173
78012NA+    NA+37449  38.428  29.475  10.626
78013NA+    NA+37450  20.721  19.237  11.449
78014NA+    NA+37451  10.249  11.690   1.281
78015NA+    NA+37452  19.677  35.366   1.390
78016NA+    NA+37453  31.556   8.241   2.406
78017NA+    NA+37454  22.088  26.073  12.575
78018NA+    NA+37455  44.268   1.878   4.153
78019NA+    NA+37456  15.182  22.248   3.653
78020NA+    NA+37457  36.574   1.906   4.212
78021NA+    NA+37458  39.813  30.927   2.664
78022NA+    NA+37459  31.580  23.137   0.379
78023NA+    NA+37460  11.717  38.430   2.781
78024NA+    NA+37461  27.599  23.057   4.180
78025NA+    NA+37462  30.516  12.745   2.242
78026NA+    NA+37463  33.956   3.267   1.232
78027NA+    NA+37464  29.553   7.231   2.399
78028NA+    NA+37465   9.857  22.040  10.630
78029NA+    NA+37466  43.404  28.500   2.346
78030NA+    NA+37467   9.251   7.359  12.910
78031NA+    NA+37468  41.409  14.808   4.204
78032NA+    NA+37469  12.803  24.987  10.606
78033NA+    NA+37470  30.441  25.553   5.622
78034NA+    NA+37471  41.426  44.435   3.340
78035NA+    NA+37472  19.761   7.744   1.932
78036NA+    NA+37473  40.542  31.964   4.136
78037NA+    NA+37474  44.917  36.528  13.903
78038NA+    NA+37475   0.810   8.294   4.294
78039NA+    NA+37476  29.440  44.769  14.829
78040NA+    NA+37477  32.404  17.712  13.907
78041NA+    NA+37478  20.255  41.406   0.850
78042NA+    NA+37479  33.398  34.389   1.812
78043NA+    NA+37480  11.807  27.459   1.241
78044NA+    NA+37481  13.637   0.399   0.910
78045NA+    NA+37482  36.581  26.188  12.427
78046NA+    NA+37483  17.664  43.928   9.556
78047NA+    NA+37484   1.737  13.351   2.851
78048NA+    NA+37485   6.770  13.671   4.647
78049NA+    NA+37486  34.370   4.903   1.694
78050NA+    NA+37487  21.629   8.773  12.387
78051NA+    NA+37488   6.243   5.923  13.791
78052NA+    NA+37489  35.955  31.086   4.698
78053NA+    NA+37490   0.753  36.925  13.538
78054NA+    NA+37491  26.024   7.843  12.960
78055NA+    NA+37492  38.911  27.969  11.118
78056NA+    NA+37493  12.660   0.354  10.567
78057NA+    NA+37494  25.666  28.490   2.242
78058NA+    NA+37495  14.695  24.519   0.849
78059NA+    NA+37496  11.766  16.642  11.015
78060NA+    NA+37497  10.697   0.928  10.622
78061NA+    NA+37498  36.884  27.945  10.989
78062NA+    NA+37499  30.924  31.025   1.451
78063NA+    NA+37500  42.475  30.425   2.783
78064NA+    NA+37501  15.633  18.077   0.840
78065NA+    NA+37502  16.302  34.922   0.872
78066NA+    NA+37503  32.438   0.762  11.422
78067NA+    NA+37504  30.948  19.557   2.708
78068NA+    NA+37505  17.163  21.019   4.825
78069NA+    NA+37506  36.582  16.126   1.845
78070CL-    CL-37507   7.193   1.884  13.801
78071CL-    CL-37508   7.342  11.361  13.447
78072CL-    CL-37509  22.613   4.732  12.078
78073CL-    CL-37510  37.497   1.961   1.863
78074CL-    CL-37511  17.707  35.388   1.707
78075CL-    CL-37512  11.172  28.985   1.900
78076CL-    CL-37513   3.890  35.015  13.368
78077CL-    CL-37514  25.654  40.544   0.364
78078CL-    CL-37515  12.143  29.624   1.888
78079CL-    CL-37516  31.966  18.053   4.645
78080CL-    CL-37517   0.468   2.831   0.837
78081CL-    CL-37518  33.476  39.348  14.445
78082CL-    CL-37519  43.364  40.917   1.223
78083CL-    CL-37520  15.285  43.407   0.379
78084CL-    CL-37521  32.114  25.015   4.257
78085CL-    CL-37522   5.348  28.939   9.942
78086CL-    CL-37523  17.779  29.646  11.998
78087CL-    CL-37524  26.055  38.907  13.844
78088CL-    CL-37525  25.098  13.190   3.172
78089CL-    CL-37526   4.944  13.280  14.397
78090CL-    CL-37527   5.319  20.683   2.346
78091CL-    CL-37528  21.623  24.619   2.223
78092CL-    CL-37529   6.858   8.359  11.978
78093CL-    CL-37530  41.536  38.054   2.191
78094CL-    CL-37531  27.624   6.885   3.783
78095CL-    CL-37532  16.656  42.991  14.353
78096CL-    CL-37533   3.283  12.786  12.037
78097CL-    CL-37534  34.923   6.816   1.256
78098CL-    CL-37535   3.265  37.491   4.642
78099CL-    CL-37536  21.212  22.593   1.363
78100CL-    CL-37537  16.193   9.718   3.203
78101CL-    CL-37538  36.848  30.121  13.488
78102CL-    CL-37539  28.494  26.959  14.961
78103CL-    CL-37540  39.863   3.734   4.355
78104CL-    CL-37541  25.550  14.821   3.152
78105CL-    CL-37542  21.264  42.807  10.442
78106CL-    CL-37543   5.325   0.302   1.288
78107CL-    CL-37544  27.098  20.041   2.665
78108CL-    CL-37545  37.349  31.094  12.389
78109CL-    CL-37546  29.002  32.609   1.240
78110CL-    CL-37547  27.495  13.253   2.384
78111CL-    CL-37548   5.818  22.562  13.495
78112CL-    CL-37549   2.819  41.945   0.389
78113CL-    CL-37550  10.167  18.773   3.331
78114CL-    CL-37551  38.375   1.391   4.614
78115CL-    CL-37552  30.031   0.783  10.999
78116CL-    CL-37553  15.685  20.200  11.008
78117CL-    CL-37554   7.735  37.481  11.605
78118CL-    CL-37555  20.609  34.069  11.868
78119CL-    CL-37556  40.844  42.016  12.957
78120CL-    CL-37557  14.632  40.861  10.006
78121CL-    CL-37558  32.025  36.346  10.948
78122CL-    CL-37559  33.951  21.079  11.558
78123CL-    CL-37560  42.006  28.558  12.040
78124CL-    CL-37561  13.304  37.074   2.256
78125CL-    CL-37562  21.062  31.007   3.375
78126CL-    CL-37563  22.694  18.627  14.477
78127CL-    CL-37564   3.725  44.768  14.901
78128CL-    CL-37565   3.285   2.944   2.375
78129CL-    CL-37566  14.320  19.089   2.791
78130CL-    CL-37567  29.166  15.749  14.781
78131CL-    CL-37568  41.364  24.523   2.321
78132CL-    CL-37569  37.040  30.439   4.156
78133CL-    CL-37570  39.998  33.530  12.091
78134CL-    CL-37571  19.071  26.095  11.612
78135CL-    CL-37572  13.719  29.656  12.340
78136CL-    CL-37573   8.288  32.029   4.142
78137CL-    CL-37574  40.806   8.865   4.825
78138CL-    CL-37575  35.438  41.878  12.017
78139CL-    CL-37576  14.272  40.998  11.872
78140CL-    CL-37577  21.747  19.182  10.972
78141CL-    CL-37578  34.483  31.973  14.826
78142CL-    CL-37579  10.283  25.709   1.745
78143CL-    CL-37580  27.164  10.834   5.200
78144CL-    CL-37581  30.656  24.510   5.186
78145CL-    CL-37582  12.220  34.570   3.632
78146CL-    CL-37583  24.052  13.683  13.322
78147CL-    CL-37584  38.909  36.991   1.391
78148CL-    CL-37585  31.492  40.840   0.419
78149CL-    CL-37586   9.298   6.322  14.905
78150CL-    CL-37587  42.858   5.409  12.875
78151CL-    CL-37588  20.120  14.606   0.471
78152CL-    CL-37589   0.346   6.719  14.326
78153CL-    CL-37590   1.253  11.196  13.915
78154CL-    CL-37591  36.485  31.438   4.143
78155CL-    CL-37592  35.859   3.885   0.736
78156CL-    CL-37593  32.898   7.244   2.387
78157CL-    CL-37594  14.221  14.793  11.901
78158CL-    CL-37595   1.452  37.537   4.213
78159CL-    CL-37596   5.260  26.115   1.828
78160CL-    CL-37597  26.103   2.962   4.676
78161CL-    CL-37598  26.466  42.799  10.516
78162CL-    CL-37599  44.258   2.806   1.301
78163CL-    CL-37600  27.597   5.419   4.323
78164CL-    CL-37601  20.037  39.928   4.262
78165CL-    CL-37602  19.151   6.778   2.838
78166CL-    CL-37603  38.925  10.209  11.858
78167CL-    CL-37604   5.716  27.117   1.380
78168CL-    CL-37605  21.226  11.768   1.261
78169CL-    CL-37606  18.701  14.256   4.226
78170CL-    CL-37607  32.628  33.887  14.327
78171CL-    CL-37608  19.608  30.153  10.972
78172CL-    CL-37609  36.927   3.442   2.181
78173CL-    CL-37610  17.076  30.999   4.772
78174CL-    CL-37611  33.120   8.726  12.904
78175CL-    CL-37612  36.973  24.553  14.939
78176CL-    CL-37613  36.425  39.417   3.271
78177CL-    CL-37614  22.235  15.231   0.946
78178CL-    CL-37615  21.696  16.091  10.562
78179CL-    CL-37616  25.096  32.002   4.223
78180CL-    CL-37617  30.626   5.270   1.874
78181CL-    CL-37618   9.857  21.199   2.883
78182CL-    CL-37619  27.544  30.471   4.262
78183CL-    CL-37620   3.336   8.777   1.767
78184CL-    CL-37621   5.689  17.254   2.693
78185CL-    CL-37622  10.850  26.533  10.945
78186CL-    CL-37623   4.783  35.860   4.661
78187CL-    CL-37624  14.155  34.042   1.374
78188CL-    CL-37625  14.806  34.578  12.500
78189CL-    CL-37626  26.489  27.547  13.403
78190CL-    CL-37627  27.176   9.346  14.292
78191CL-    CL-37628  32.625  29.602   4.648
78192CL-    CL-37629  16.239  35.525   3.772
78193CL-    CL-37630   2.903  36.035   4.832
78194CL-    CL-37631  44.789  35.481   4.281
78195CL-    CL-37632  29.021  36.039   3.372
78196CL-    CL-37633  12.792   0.435  12.463
78197CL-    CL-37634  19.072  37.965  11.468
78198CL-    CL-37635   4.861   8.334   3.318
78199CL-    CL-37636  11.858  15.136   0.389
78200CL-    CL-37637  33.892  40.903  11.385
78201CL-    CL-37638  23.197  29.464  10.904
78202CL-    CL-37639  36.080   2.888  14.973
78203CL-    CL-37640  43.272  33.942  10.426
78204CL-    CL-37641  15.250  11.154  13.043
78205CL-    CL-37642  33.456  41.035  12.955
78206CL-    CL-37643  34.887  32.982   1.366
78207CL-    CL-37644   9.211  36.561   1.925
78208CL-    CL-37645  30.019  42.850  12.512
78209CL-    CL-37646  40.540   6.772  14.434
78210CL-    CL-37647  26.037  32.951   4.336
78211CL-    CL-37648  28.514  28.944  12.999
78212CL-    CL-37649  15.735  17.153  10.051
78213CL-    CL-37650  42.922  32.052   2.232
78214CL-    CL-37651  20.765  15.750  13.501
78215CL-    CL-37652  25.214  30.414  11.047
78216CL-    CL-37653  12.187  19.084   1.218
78217CL-    CL-37654  16.568  14.784   1.436
78218CL-    CL-37655  28.578  14.716   3.716
78219CL-    CL-37656  36.070  17.743  11.482
78220CL-    CL-37657  37.028  22.996   3.813
78221CL-    CL-37658  30.648  25.202  13.365
78222CL-    CL-37659  20.531  34.607   2.664
78223CL-    CL-37660  29.620   9.210  12.505
78224CL-    CL-37661  41.439  28.505  14.365
78225CL-    CL-37662  13.171  14.627   1.922
78226CL-    CL-37663  30.943  21.177   9.926
78227CL-    CL-37664   7.310   4.362   1.442
78228CL-    CL-37665  16.087  22.182  11.077
78229CL-    CL-37666  31.524   1.768   2.205
78230CL-    CL-37667  40.439  11.718  13.462
78231CL-    CL-37668   7.838  34.590  11.948
78232CL-    CL-37669  17.695  14.643  12.510
78233CL-    CL-37670  18.177  42.888   3.795
78234CL-    CL-37671  44.384  13.117   5.617
78235CL-    CL-37672  42.439  27.169  13.934
78236CL-    CL-37673  42.406  25.602   0.791
78237CL-    CL-37674   7.814  41.364   2.815
78238CL-    CL-37675  41.392  20.107   1.756
78239CL-    CL-37676  23.165  41.432   4.228
78240CL-    CL-37677  12.170   7.196  13.531
78241CL-    CL-37678   6.704   4.735   4.663
78242CL-    CL-37679  15.313  43.415  11.480
78243CL-    CL-37680  40.445  23.641   1.791
78244CL-    CL-37681  11.789  15.274   2.824
78245CL-    CL-37682  26.058  15.713   2.855
78246CL-    CL-37683  28.931   0.886  10.924
78247CL-    CL-37684  35.036  44.481   1.833
78248CL-    CL-37685  28.057  44.779  12.917
78249CL-    CL-37686   3.847  22.120   0.399
78250CL-    CL-37687  41.422  22.608  12.384
78251CL-    CL-37688   3.724  18.120   3.252
78252CL-    CL-37689   3.428  24.198   4.643
78253CL-    CL-37690  23.143  33.119   2.661
78254CL-    CL-37691  29.605  25.150   2.880
78255CL-    CL-37692  40.032   9.880   1.218
78256CL-    CL-37693  15.806  17.191   1.293
78257CL-    CL-37694  16.633   3.826  12.577
78258CL-    CL-37695  24.056  12.263  11.483
78259CL-    CL-37696  37.859  34.471   2.738
78260CL-    CL-37697  44.930  18.681  14.488
78261CL-    CL-37698   1.916   4.920  10.590
78262CL-    CL-37699  33.488  42.893  13.053
78263CL-    CL-37700  16.259   1.928   1.872
78264CL-    CL-37701   7.318  29.948   1.377
78265CL-    CL-37702  11.297  36.029   4.291
78266CL-    CL-37703  22.082  16.571   2.303
78267CL-    CL-37704   0.314  12.127  11.918
78268CL-    CL-37705  42.320  24.191  11.858
78269CL-    CL-37706  15.602  34.887   4.625
78270CL-    CL-37707  33.009  18.696  14.440
78271CL-    CL-37708  13.303  15.132  11.112
78272CL-    CL-37709   3.252  14.719   0.863
78273CL-    CL-37710  36.986  30.522   1.249
78274CL-    CL-37711  39.551  16.230  11.460
78275CL-    CL-37712  38.570  30.908   2.685
78276CL-    CL-37713  20.095  15.639   9.506
78277CL-    CL-37714   2.438   1.845  12.489
78278CL-    CL-37715   6.882  43.021   5.175
78279CL-    CL-37716   9.284  18.118  13.441
78280CL-    CL-37717  26.530  15.580  14.282
78281CL-    CL-37718  29.647  28.619   4.183
78282CL-    CL-37719  24.994  44.789   1.796
78283CL-    CL-37720  28.645  25.655  12.421
78284CL-    CL-37721  30.552  28.150   2.260
78285CL-    CL-37722  42.989  41.001   4.189
78286CL-    CL-37723  28.643  25.144  13.353
78287CL-    CL-37724  22.194  27.584   4.226
78288CL-    CL-37725   8.186  30.084  14.781
78289CL-    CL-37726   4.315  20.534  11.010
78290CL-    CL-37727  31.990   8.881   1.909
78291CL-    CL-37728   0.788  11.356   1.701
78292CL-    CL-37729  10.191  22.541  10.603
78293CL-    CL-37730  26.664  40.903  12.953
78294CL-    CL-37731  39.358   2.762  11.083
78295CL-    CL-37732  25.642  37.915   1.762
78296CL-    CL-37733  23.078  41.848   0.961
78297CL-    CL-37734  14.303   9.181  13.793
78298CL-    CL-37735   5.342   1.326  13.324
78299CL-    CL-37736  42.345  19.242  13.825
78300CL-    CL-37737  10.838  35.967  13.992
78301CL-    CL-37738   1.801   3.250   3.244
78302CL-    CL-37739  18.748  24.142  11.997
78303CL-    CL-37740  43.482   0.316  12.996
78304CL-    CL-37741  40.921  19.121   0.474
78305CL-    CL-37742  21.122  38.544  10.948
78306CL-    CL-37743  15.150  39.939  11.597
78307CL-    CL-37744  18.578  44.375   2.899
78308CL-    CL-37745  20.583   1.306  11.594
78309CL-    CL-37746  15.759  29.662  13.461
78310CL-    CL-37747  20.205  37.339   1.754
78311CL-    CL-37748  39.024   6.255   2.250
78312CL-    CL-37749  31.598  19.551   0.925
78313CL-    CL-37750  12.126  38.533  13.488
78314CL-    CL-37751  15.267  25.016  13.453
78315CL-    CL-37752  21.671  22.636   1.269
78316CL-    CL-37753  34.589  42.925   1.327
78317CL-    CL-37754  38.459  25.708   2.202
78318CL-    CL-37755  22.686  44.810   0.338
78319CL-    CL-37756   7.772  18.659  13.418
78320CL-    CL-37757   0.331  42.325  11.398
78321CL-    CL-37758   7.288  41.964   3.174
78322CL-    CL-37759  37.871  21.244  10.636
78323CL-    CL-37760  25.678  26.505  14.288
78324CL-    CL-37761  30.923  25.669  10.967
78325CL-    CL-37762  17.682   9.337   0.274
78326CL-    CL-37763  37.008  18.727  13.039
78327CL-    CL-37764  40.339  29.502   0.890
78328CL-    CL-37765  32.456  15.728   4.298
78329CL-    CL-37766  15.764  39.331  13.496
78330CL-    CL-37767  42.360   3.943   0.444
78331CL-    CL-37768  39.026  41.919  10.957
78332CL-    CL-37769   0.938  29.161   1.839
78333CL-    CL-37770  16.599   7.775  14.931
78334CL-    CL-37771  28.170   1.875   1.926
78335CL-    CL-37772  33.530  28.027   1.863
78336CL-    CL-37773  26.147   7.687   1.826
78337CL-    CL-37774   6.906   4.206   0.803
78338CL-    CL-37775  25.132  21.050  12.390
78339CL-    CL-37776   6.190  12.148   0.927
78340CL-    CL-37777  42.817  16.167  10.554
78341CL-    CL-37778  32.084  16.166   1.787
78342CL-    CL-37779  24.705   9.310   5.686
78343CL-    CL-37780  21.597  42.942  11.021
78344CL-    CL-37781  42.988   5.866  14.924
78345CL-    CL-37782  35.852  44.422  11.104
78346CL-    CL-37783   8.344  34.894  10.461
78347CL-    CL-37784  36.933   2.269  13.967
78348CL-    CL-37785  28.636  41.316  13.429
78349CL-    CL-37786  18.756   4.733   4.656
78350CL-    CL-37787  38.061  17.668  11.416
78351CL-    CL-37788  23.559  13.252   2.240
78352CL-    CL-37789  42.332  28.673  11.053
78353CL-    CL-37790  28.449  16.694  14.286
78354CL-    CL-37791  38.942  24.176  14.029
78355CL-    CL-37792  12.332  19.689  13.885
78356CL-    CL-37793  41.976   2.437  12.919
78357CL-    CL-37794   5.370  17.733   4.282
78358CL-    CL-37795  31.993  16.086  11.055
78359CL-    CL-37796  37.398   2.950   1.360
78360CL-    CL-37797  38.054  21.665   2.275
78361CL-    CL-37798  15.660  44.772  13.477
78362CL-    CL-37799  32.509   0.854   3.815
78363CL-    CL-37800   3.715  39.455  10.621
78364CL-    CL-37801  24.045  43.858  10.463
78365CL-    CL-37802   2.726  25.526  10.409
78366CL-    CL-37803  33.607  30.953  10.614
78367CL-    CL-37804  22.568  19.248   3.177
78368CL-    CL-37805  40.373   5.242  14.444
78369CL-    CL-37806  14.334  15.729   2.338
78370CL-    CL-37807  11.354  31.430  13.383
78371CL-    CL-37808   8.864  22.213  12.904
78372CL-    CL-37809   0.758  14.741   0.863
78373CL-    CL-37810  19.549  22.094   0.417
78374CL-    CL-37811   0.385  15.811   4.269
78375CL-    CL-37812   0.781  28.533  14.304
78376CL-    CL-37813   3.399  11.739   0.427
78377CL-    CL-37814  24.675  20.708   2.811
78378CL-    CL-37815  44.364  44.829  11.121
78379CL-    CL-37816  44.910  28.056  14.895
78380CL-    CL-37817  25.046  23.166  10.892
78381CL-    CL-37818   1.278   8.847  10.986
78382CL-    CL-37819  15.283   7.328  11.870
78383CL-    CL-37820  36.577  14.756   4.724
78384CL-    CL-37821  35.087  32.446   1.838
78385CL-    CL-37822   3.259   8.792  10.471
78386CL-    CL-37823   6.327   2.776   0.404
78387CL-    CL-37824  18.587   4.862   1.721
78388CL-    CL-37825  20.266  31.597  14.025
78389CL-    CL-37826  11.782  26.640  11.127
78390CL-    CL-37827  33.005  19.682  13.813
78391CL-    CL-37828   4.849  13.620   3.386
78392CL-    CL-37829  13.766  17.626   0.742
78393CL-    CL-37830  29.457  23.514   3.631
78394CL-    CL-37831  16.733  28.658  10.618
78395CL-    CL-37832  40.845  26.679   4.347
78396CL-    CL-37833  33.446   3.324   2.725
78397CL-    CL-37834   7.341  41.395   1.701
78398CL-    CL-37835  14.785  37.548  13.536
78399CL-    CL-37836  44.504  27.000  13.020
78400CL-    CL-37837  43.961  32.515  13.859
78401CL-    CL-37838  31.011  41.003   3.368
78402CL-    CL-37839   6.701  42.956   4.196
78403CL-    CL-37840   7.852  31.014   2.205
78404CL-    CL-37841  42.469  17.640   3.162
78405CL-    CL-37842  43.394   0.248  13.529
78406CL-    CL-37843  38.385  26.178   3.818
78407CL-    CL-37844  34.423   6.368   2.317
78408CL-    CL-37845  40.798  15.296  12.897
78409CL-    CL-37846  20.542  13.715   3.692
78410CL-    CL-37847  43.299  31.517  13.488
78411CL-    CL-37848   9.691  22.059  12.409
78412CL-    CL-37849   6.710  42.856  11.601
78413CL-    CL-37850  11.144  39.357  13.890
78414CL-    CL-37851  13.677  16.660   2.781
78415CL-    CL-37852  42.367  10.175  13.033
78416CL-    CL-37853  44.894  21.591  13.893
78417CL-    CL-37854   3.330  36.401   0.755
78418CL-    CL-37855  32.491  26.143   4.257
78419CL-    CL-37856  38.398  29.463   0.920
78420CL-    CL-37857  18.229   7.887   1.927
78421CL-    CL-37858   2.833  22.088  14.455
78422CL-    CL-37859  17.159  39.043   0.726
78423CL-    CL-37860  17.164  15.154   0.815
78424CL-    CL-37861   9.349  33.096  13.529
78425CL-    CL-37862  31.076  23.232  12.871
78426CL-    CL-37863  26.459  20.668   1.450
78427CL-    CL-37864  44.978   3.379   1.911
78428CL-    CL-37865   7.338   2.729   3.636
78429CL-    CL-37866  33.447   4.755  12.976
78430CL-    CL-37867  38.325  38.982   2.203
78431CL-    CL-37868  39.960   4.813  13.805
78432CL-    CL-37869  26.180  31.517   4.345
78433CL-    CL-37870  19.119  24.021  11.106
78434CL-    CL-37871  13.265   9.389   1.829
78435CL-    CL-37872  25.140  32.131   0.394
78436CL-    CL-37873  41.298  32.532   1.910
78437CL-    CL-37874   3.946   2.749   1.927
78438CL-    CL-37875   8.385  16.808  11.896
78439CL-    CL-37876  24.062  19.212   3.646
78440CL-    CL-37877  41.000  26.090   1.384
78441CL-    CL-37878  43.872  17.674  12.470
78442CL-    CL-37879  19.606   1.801   0.769
78443CL-    CL-37880  14.222   4.720  14.439
78444CL-    CL-37881  40.927  20.029   3.195
78445CL-    CL-37882  28.678   1.305  14.963
78446CL-    CL-37883  19.576  26.012   0.299
78447CL-    CL-37884   7.395  18.132   4.830
78448CL-    CL-37885  27.117  34.508   3.716
78449CL-    CL-37886  40.961  33.963  12.509
78450CL-    CL-37887  40.839   5.790  10.600
78451CL-    CL-37888  43.356  19.163   2.718
78452CL-    CL-37889  13.304  19.070  11.092
78453CL-    CL-37890   5.406  34.079  12.511
78454CL-    CL-37891  31.148  28.595   1.774
78455CL-    CL-37892  24.025   0.350   1.799
78456CL-    CL-37893  14.210  34.421   1.398
78457CL-    CL-37894  13.153  17.083  10.484
78458CL-    CL-37895  29.941   9.324   0.325
78459CL-    CL-37896  39.460  19.223  13.449
78460CL-    CL-37897  27.536  44.325   9.981
78461CL-    CL-37898  28.502  31.926  11.556
78462CL-    CL-37899   0.899   5.894  13.058
78463CL-    CL-37900  26.188  27.681  14.813
78464CL-    CL-37901   8.783  25.133  13.451
78465CL-    CL-37902  11.855  44.324   3.711
78466CL-    CL-37903   9.682  44.837   1.411
78467CL-    CL-37904  13.667  42.441  10.999
78468CL-    CL-37905  11.775  36.003   3.377
78469CL-    CL-37906  10.714   1.934   3.827
78470CL-    CL-37907  15.821  15.753  11.583
78471CL-    CL-37908  22.141  39.500   1.889
78472CL-    CL-37909  16.802  25.696  10.526
78473CL-    CL-37910  37.886  10.778   0.911
78474CL-    CL-37911  15.683   7.817  11.461
78475CL-    CL-37912  42.505  18.731   3.353
78476CL-    CL-37913  39.007  30.003   0.811
78477CL-    CL-37914  44.928  35.976  14.006
78478CL-    CL-37915   7.226  40.542   0.740
78479CL-    CL-37916   7.678   0.414  13.309
78480CL-    CL-37917  25.678  30.144   1.449
78481CL-    CL-37918  26.110   0.838   0.437
78482CL-    CL-37919   1.360  16.198   3.818
78483CL-    CL-37920  26.635  24.481  11.077
78484CL-    CL-37921  40.401  35.394  14.930
78485CL-    CL-37922  23.173   6.727  10.429
78486CL-    CL-37923   0.401  39.009   3.738
78487CL-    CL-37924  38.863  27.491  13.909
78488CL-    CL-37925  41.307   9.371   2.311
78489CL-    CL-37926  13.117  25.060  11.505
78490CL-    CL-37927  11.782  22.736  13.542
78491CL-    CL-37928  26.650  25.652  13.853
78492CL-    CL-37929  22.085   8.315   2.209
78493CL-    CL-37930  32.562  13.716   3.258
78494CL-    CL-37931  27.121   1.357   3.267
78495CL-    CL-37932  40.927  34.533   2.846
78496CL-    CL-37933  11.176  37.964   1.845
78497CL-    CL-37934  34.578  12.630  12.939
78498CL-    CL-37935  30.144  38.855   4.350
78499CL-    CL-37936  39.519  30.111   3.363
78500CL-    CL-37937  12.857  11.251  10.978
78501CL-    CL-37938   8.291  31.999  10.614
78502CL-    CL-37939  20.119  32.016  11.975
78503CL-    CL-37940  10.748  20.732   1.827
78504CL-    CL-37941  36.095  37.337   1.694
78505CL-    CL-37942  22.054  25.688  14.982
78506CL-    CL-37943   1.470  43.402  12.508
78507CL-    CL-37944   9.230  23.570  11.017
78508CL-    CL-37945  11.848  44.944   4.347
78509CL-    CL-37946  34.974  23.104   0.947
78510CL-    CL-37947  40.835  32.077   0.245
78511CL-    CL-37948  25.063   9.349  11.027
78512CL-    CL-37949  38.072  35.488  11.925
78513CL-    CL-37950  31.133   3.741   2.183
78514CL-    CL-37951  27.588  27.555   1.726
78515CL-    CL-37952  37.004  40.511  11.553
78516CL-    CL-37953  27.574   3.345   2.843
78517CL-    CL-37954  26.579  14.150  13.378
78518CL-    CL-37955  25.599  10.787   3.259
78519CL-    CL-37956   3.754  37.451  11.496
78520CL-    CL-37957   8.735  25.219   9.566
78521CL-    CL-37958   3.396  16.284   1.837
78522CL-    CL-37959  19.766  36.438  10.463
78523CL-    CL-37960  45.000  24.716   2.417
78524CL-    CL-37961  37.337  10.163  13.472
78525CL-    CL-37962  19.226  19.210  14.971
78526CL-    CL-37963  32.895  43.511  13.823
78527CL-    CL-37964  44.909  20.152   2.836
78528CL-    CL-37965  22.112   6.923   2.787
78529CL-    CL-37966  38.915  35.475   1.825
78530CL-    CL-37967  25.552  20.671  10.898
78531CL-    CL-37968  43.452  25.083   1.217
78532CL-    CL-37969  15.239   9.233  10.983
78533CL-    CL-37970   8.370  29.076  11.470
78534CL-    CL-37971  26.474  15.175   3.683
78535CL-    CL-37972  43.416  40.022   2.197
78536CL-    CL-37973   2.948   6.721  12.530
78537CL-    CL-37974  34.079  42.012  11.472
78538CL-    CL-37975  42.947   5.335  10.928
78539CL-    CL-37976  38.911   1.853  12.956
78540CL-    CL-37977  27.187  22.224   0.356
78541CL-    CL-37978  24.010   7.396  13.489
78542CL-    CL-37979  20.034  29.001  11.887
78543CL-    CL-37980  37.958  34.386  13.332
78544CL-    CL-37981  25.104  13.744  14.423
78545CL-    CL-37982  36.574  11.634  13.353
78546CL-    CL-37983  31.132  41.410   2.667
78547CL-    CL-37984  22.151  42.524  12.854
78548CL-    CL-37985  26.009   0.883  13.031
78549CL-    CL-37986  44.382  26.061   4.751
78550CL-    CL-37987   6.679  22.520  12.561
78551CL-    CL-37988  18.649  28.553   2.366
78552CL-    CL-37989  18.748  15.135   3.372
78553CL-    CL-37990  44.864  15.189  13.372
78554CL-    CL-37991  42.468   5.689  11.067
78555CL-    CL-37992  21.092  27.080  10.962
78556CL-    CL-37993   1.400  18.771  12.976
78557CL-    CL-37994   3.306   8.361   3.236
78558CL-    CL-37995  38.569  32.491  12.008
78559CL-    CL-37996  39.001  22.587   0.353
78560CL-    CL-37997   4.235   9.645  14.507
78561CL-    CL-37998  22.581  41.927   2.730
78562CL-    CL-37999  31.978  26.969  10.611
78563CL-    CL-38000   2.262   3.811   0.330
78564CL-    CL-38001  14.676  14.185   5.193
78565CL-    CL-38002   5.760   1.738  12.419
78566CL-    CL-38003  42.949  36.533   3.259
78567CL-    CL-38004  25.555  25.575  10.893
78568CL-    CL-38005  42.916  16.123  13.014
78569CL-    CL-38006  36.965   7.876  13.030
78570CL-    CL-38007  38.457   9.783  14.420
78571CL-    CL-38008   4.321  40.541  14.889
78572CL-    CL-38009  13.624  11.323   2.302
78573CL-    CL-38010  40.944  17.205  11.378
78574CL-    CL-38011  19.163  42.800  10.141
78575CL-    CL-38012  36.898  32.390   1.842
78576CL-    CL-38013  25.124  20.543  11.098
78577CL-    CL-38014   3.880  23.658   3.799
78578CL-    CL-38015  24.224   0.348  11.520
78579CL-    CL-38016  12.176  37.057   0.765
78580CL-    CL-38017  22.511  14.622   9.958
78581CL-    CL-38018  25.670  35.938  12.572
78582CL-    CL-38019  10.299   8.320   2.227
78583CL-    CL-38020  29.005   4.433   1.858
78584CL-    CL-38021  38.478  36.033   4.229
78585CL-    CL-38022  25.477  16.264   1.213
78586CL-    CL-38023  20.075  38.521   4.795
78587CL-    CL-38024  15.089  39.337  12.829
78588CL-    CL-38025  34.082  17.627   3.869
78589CL-    CL-38026  13.703  27.171  14.503
78590CL-    CL-38027  14.698   7.320   1.716
78591CL-    CL-38028  25.646   0.298  13.543
78592CL-    CL-38029  33.914   1.318   2.389
78593CL-    CL-38030  19.692  12.776   3.818
78594CL-    CL-38031  42.470  40.364   1.352
78595CL-    CL-38032  30.100  26.487   0.329
78596CL-    CL-38033  37.413  41.891   2.408
78597CL-    CL-38034  15.257  39.887  14.513
78598CL-    CL-38035  36.872  14.338   2.334
78599CL-    CL-38036   6.785  43.825   4.205
78600CL-    CL-38037  17.239  33.602  11.005
78601CL-    CL-38038   8.250  18.084   3.255
78602CL-    CL-38039  25.487   4.275  14.921
78603CL-    CL-38040  45.000  38.998   1.377
78604CL-    CL-38041  29.006  41.374   1.921
78605CL-    CL-38042   0.454   0.959  11.079
78606CL-    CL-38043   1.969  10.309   1.809
78607CL-    CL-38044   0.291  29.506  12.836
78608CL-    CL-38045  14.735  31.153   2.411
78609CL-    CL-38046  16.589  30.128  14.984
78610CL-    CL-38047  25.194  29.137   0.300
78611CL-    CL-38048  20.054  31.001   2.662
78612CL-    CL-38049  21.189   3.736   4.265
78613CL-    CL-38050  25.620  18.593  12.449
78614CL-    CL-38051  22.251  13.681  13.805
78615CL-    CL-38052  23.071   6.786  13.038
78616CL-    CL-38053  36.413  31.409  11.898
78617CL-    CL-38054  11.729  40.451   4.767
78618CL-    CL-38055  16.161  15.131  13.357
78619CL-    CL-38056  41.887  15.676   3.771
78620CL-    CL-38057   1.413  34.909  11.570
78621CL-    CL-38058  32.099   8.301   4.786
78622CL-    CL-38059  21.708  26.077   1.215
78623CL-    CL-38060  35.423   8.877   4.632
78624CL-    CL-38061  41.393  33.386  13.529
78625CL-    CL-38062  40.007  34.373   4.179
78626CL-    CL-38063  28.444  25.609  14.828
78627CL-    CL-38064   7.890   8.699   5.293
78628CL-    CL-38065   8.894   9.227   3.753
78629CL-    CL-38066  28.588  36.851   3.360
78630CL-    CL-38067  16.299  12.792  12.422
78631CL-    CL-38068  42.336  44.351   4.703
78632CL-    CL-38069  21.178   5.900  10.109
78633CL-    CL-38070  13.711   5.691  13.512
78634CL-    CL-38071  29.638  27.079  13.812
78635CL-    CL-38072  42.780  42.798  11.985
78636CL-    CL-38073  40.822  34.516  12.021
78637CL-    CL-38074   2.959  23.208   2.881
78638CL-    CL-38075  23.090   5.375   1.444
78639CL-    CL-38076  39.009   5.842  10.550
78640CL-    CL-38077  43.800  16.111  10.479
78641CL-    CL-38078  29.472   5.428  14.476
78642CL-    CL-38079  11.739  40.446  14.355
78643CL-    CL-38080  20.223   9.790   0.371
78644CL-    CL-38081  36.039   8.677  12.007
78645CL-    CL-38082  28.469  37.382   4.679
78646CL-    CL-38083  32.479  12.345   1.234
78647CL-    CL-38084  44.451   8.712   1.384
78648CL-    CL-38085   6.237   5.891   2.698
78649CL-    CL-38086   7.839   2.273  13.877
78650CL-    CL-38087  36.477   9.240   1.288
78651CL-    CL-38088  40.549  14.821  12.388
78652CL-    CL-38089  14.651  12.357  11.054
78653CL-    CL-38090  43.782  18.107   2.258
78654CL-    CL-38091  21.160  20.141  12.446
78655CL-    CL-38092  38.851  12.617  11.548
78656CL-    CL-38093   3.342  26.196  12.507
78657CL-    CL-38094  11.736   7.378   4.797
78658CL-    CL-38095  12.663   5.732  14.446
78659CL-    CL-38096  33.435  19.178  14.945
78660CL-    CL-38097   3.922  12.245  13.347
78661CL-    CL-38098  38.835  32.556  11.533
78662CL-    CL-38099  24.518   1.292  13.021
78663CL-    CL-38100  26.028  14.260   4.760
78664CL-    CL-38101  22.527  35.106   4.285
78665CL-    CL-38102  22.205  20.706   1.241
78666CL-    CL-38103   4.859   0.379   2.880
78667CL-    CL-38104  31.520  44.755   2.350
78668CL-    CL-38105  16.754  44.000  10.606
78669CL-    CL-38106   0.943  16.090  14.886
78670CL-    CL-38107  25.054  17.162   0.363
78671CL-    CL-38108  39.529   1.474  11.498
78672CL-    CL-38109  34.615  37.406   1.353
78673CL-    CL-38110  13.603   7.818  10.555
78674CL-    CL-38111  41.895  17.280  10.946
78675CL-    CL-38112  36.975  34.995   3.299
78676CL-    CL-38113  27.136   3.767   4.627
78677CL-    CL-38114  30.085  22.182   0.352
78678CL-    CL-38115   1.408   8.656   3.356
78679CL-    CL-38116  13.136  10.150   4.228
78680CL-    CL-38117  43.472  10.288   1.900
78681CL-    CL-38118   0.939  11.636  14.451
78682CL-    CL-38119  41.988  25.177  10.056
78683CL-    CL-38120  11.847  38.557  13.797
78684CL-    CL-38121  23.572   4.368   3.164
78685CL-    CL-38122  10.333  31.453  14.368
78686CL-    CL-38123  29.074  37.838   2.806
78687CL-    CL-38124  30.547  39.830  11.023
78688CL-    CL-38125  16.303  31.150   4.603
78689CL-    CL-38126  40.386  30.641   0.395
78690CL-    CL-38127  21.108  39.394   2.716
78691CL-    CL-38128  26.192  11.771  11.008
78692CL-    CL-38129  31.505  10.258   2.691
78693CL-    CL-38130   8.395  32.494   4.802
78694CL-    CL-38131  34.902  17.608   1.744
78695CL-    CL-38132  35.544  29.085  14.889
78696CL-    CL-38133   4.435   6.188   3.660
78697CL-    CL-38134  26.598   7.721  12.365
78698CL-    CL-38135   4.245  37.903  11.863
78699CL-    CL-38136   6.421  35.956   3.170
78700CL-    CL-38137  32.497  44.318  13.905
78701CL-    CL-38138  40.386  25.517   4.714
78702CL-    CL-38139  27.159  20.187   2.353
78703CL-    CL-38140  36.083  10.147  12.453
78704CL-    CL-38141  21.558  43.288  14.345
78705CL-    CL-38142  22.660  43.489  11.376
78706CL-    CL-38143  27.124  37.567  12.916
78707CL-    CL-38144  30.622  17.135  13.906
78708CL-    CL-38145  32.556  26.517  14.304
78709CL-    CL-38146  35.902   1.375   1.740
78710CL-    CL-38147  38.350   3.940   4.681
78711CL-    CL-38148  35.983  38.405   2.850
78712CL-    CL-38149  42.846  38.820  11.477
78713CL-    CL-38150  35.566  28.151  12.951
78714CL-    CL-38151   0.279  14.192  13.414
78715CL-    CL-38152  31.027  34.991   4.240
78716CL-    CL-38153  21.576   1.393   2.180
78717CL-    CL-38154  42.848  44.382   3.731
78718CL-    CL-38155  43.302  16.318   4.722
78719CL-    CL-38156   8.699   7.858  14.418
78720CL-    CL-38157  28.968  12.792  14.875
78721CL-    CL-38158  43.853  24.120  14.380
78722CL-    CL-38159  13.761  14.123  14.826
78723CL-    CL-38160  16.618  14.223   4.327
78724CL-    CL-38161   6.212  17.583  11.591
78725CL-    CL-38162  42.834  41.920  11.023
78726CL-    CL-38163  15.084   0.349   0.374
78727CL-    CL-38164   7.827   0.414  11.507
78728CL-    CL-38165   5.723  31.021  14.414
78729CL-    CL-38166  11.657  29.146  11.474
78730CL-    CL-38167  12.823  18.265  10.545
78731CL-    CL-38168  25.625  17.278   1.710
78732CL-    CL-38169  36.874  29.076  12.380
78733CL-    CL-38170   4.870  20.225  10.534
78734CL-    CL-38171  44.457  44.915  11.590
78735CL-    CL-38172  27.486  23.161  12.442
78736CL-    CL-38173  20.102  30.608   4.797
78737CL-    CL-38174  14.788  42.977  14.852
78738CL-    CL-38175   8.715  36.888  13.342
78739CL-    CL-38176   2.861  36.393  12.524
78740CL-    CL-38177  30.507   5.897  14.853
78741CL-    CL-38178  28.634  22.076   4.822
78742CL-    CL-38179  15.314  42.939   3.285
78743CL-    CL-38180  39.821   9.660  12.411
78744CL-    CL-38181   3.759  43.347  14.507
78745CL-    CL-38182   0.852   4.941   2.764
78746CL-    CL-38183   0.928   5.716  13.891
78747CL-    CL-38184  10.827   4.705  13.883
78748CL-    CL-38185   1.442  28.185   2.242
78749CL-    CL-38186  41.971   0.986  14.467
78750CL-    CL-38187  10.198  41.510   1.221
78751CL-    CL-38188   2.865  44.442   1.438
78752CL-    CL-38189   9.772   5.743   3.277
78753CL-    CL-38190   8.216  11.346  13.870
78754CL-    CL-38191  15.800   7.269  11.404
78755CL-    CL-38192  17.202  34.975   4.117
78756CL-    CL-38193  11.193  12.288   4.707
78757CL-    CL-38194   8.734  22.663   3.827
78758CL-    CL-38195  30.516  27.536  13.440
78759CL-    CL-38196   5.413  31.513  14.328
78760CL-    CL-38197  17.703   3.433  11.904
78761CL-    CL-38198  22.662  24.199  13.911
78762CL-    CL-38199  18.215  31.965  12.863
78763CL-    CL-38200   8.210  43.383  12.088
78764CL-    CL-38201  22.219  15.173  11.443
78765CL-    CL-38202  27.060  28.020   2.346
78766CL-    CL-38203  19.606  16.300  12.940
78767CL-    CL-38204  23.495  33.912   3.727
78768CL-    CL-38205  37.485  39.866  12.944
78769CL-    CL-38206  26.198   4.320   3.667
78770CL-    CL-38207  23.030  15.592   3.649
78771CL-    CL-38208  28.609  10.224   0.258
78772CL-    CL-38209   2.398   2.864  12.516
78773CL-    CL-38210  36.556  23.551   3.809
78774CL-    CL-38211  32.918  17.759  14.356
78775CL-    CL-38212  19.661  26.956   1.870
78776CL-    CL-38213   0.905  23.643   2.339
78777CL-    CL-38214   1.386  41.924  12.040
78778CL-    CL-38215  11.365  19.638  10.570
78779CL-    CL-38216   9.785  13.675   3.384
78780CL-    CL-38217  29.982  43.373  12.542
78781CL-    CL-38218  21.122  28.013   2.268
78782CL-    CL-38219   6.390  19.256   0.378
78783CL-    CL-38220   3.402  33.453   4.741
78784CL-    CL-38221  26.085  37.398   0.966
78785CL-    CL-38222  32.586   2.258  10.918
78786CL-    CL-38223   5.240   8.287  12.527
78787CL-    CL-38224  22.129  19.215   5.743
78788CL-    CL-38225  38.908   9.242   3.319
78789CL-    CL-38226  39.475  19.626  11.889
78790CL-    CL-38227   8.297   6.885  11.435
78791CL-    CL-38228  35.901  28.026  11.022
78792CL-    CL-38229  37.570   3.852  13.517
78793CL-    CL-38230   8.733  30.919  12.370
78794CL-    CL-38231  38.410   5.219   4.778
78795CL-    CL-38232   0.881  17.189  12.866
78796CL-    CL-38233  34.441   1.404   1.795
78797CL-    CL-38234  19.581  32.900  10.581
78798CL-    CL-38235  44.838  34.885   2.704
78799CL-    CL-38236  37.840  24.129   9.949
78800CL-    CL-38237  12.250   9.860  12.529
78801CL-    CL-38238  37.495  21.021   1.400
78802CL-    CL-38239  25.146  35.916   0.453
78803CL-    CL-38240  40.475   6.260   2.872
78804CL-    CL-38241  43.343   1.741  13.487
78805CL-    CL-38242  20.062  11.204   3.233
78806CL-    CL-38243   9.166  35.498   4.349
78807CL-    CL-38244  35.556  43.956   2.308
78808CL-    CL-38245  15.267   3.253  14.352
78809CL-    CL-38246   9.831  17.702   0.849
78810CL-    CL-38247   0.471  39.030   5.263
78811CL-    CL-38248  30.526  13.604   0.752
78812CL-    CL-38249  28.077  19.718  10.489
78813CL-    CL-38250  15.579  17.658  13.832
78814CL-    CL-38251  14.743  12.239   3.205
78815CL-    CL-38252  44.376  42.455   3.704
78816CL-    CL-38253  10.145  24.480   4.113
78817CL-    CL-38254   6.188  35.397   3.743
78818CL-    CL-38255  10.662  42.474  12.340
78819CL-    CL-38256  36.094   8.187   3.726
78820CL-    CL-38257   0.781  17.122   4.160
78821CL-    CL-38258  13.839  37.528  14.016
78822CL-    CL-38259  33.025  19.188   4.690
78823CL-    CL-38260  43.515  37.041  13.889
78824CL-    CL-38261   3.709  41.404  11.415
78825CL-    CL-38262  42.436  44.390   1.809
78826CL-    CL-38263   3.822  17.604  12.571
78827CL-    CL-38264   0.787   4.698   5.304
78828CL-    CL-38265  22.727  10.314  12.483
78829CL-    CL-38266  13.777   7.347   2.252
78830CL-    CL-38267  21.076  38.548  12.395
78831CL-    CL-38268  33.898  32.054  14.770
78832CL-    CL-38269  28.951  21.022  13.449
78833CL-    CL-38270  18.668  20.199  10.442
78834CL-    CL-38271  21.575  16.161  10.121
78835CL-    CL-38272  42.446  13.712   0.415
78836CL-    CL-38273   6.290  30.922   3.150
78837CL-    CL-38274  12.322  14.275  12.884
78838CL-    CL-38275  13.145  30.067   1.831
78839CL-    CL-38276  22.223   1.280  12.379
78840CL-    CL-38277   4.275  13.644  11.121
78841CL-    CL-38278  33.900  33.116   2.262
78842CL-    CL-38279   8.349  23.711  14.496
78843CL-    CL-38280  33.438  21.038   2.680
78844CL-    CL-38281   5.383  37.553  14.351
78845CL-    CL-38282  22.205  19.159  13.005
78846CL-    CL-38283   7.739  18.706  12.911
78847CL-    CL-38284  13.292  36.927   4.618
78848CL-    CL-38285  29.974   4.830  11.499
78849CL-    CL-38286  26.084  36.990   0.886
78850CL-    CL-38287   8.162  37.396   4.248
78851CL-    CL-38288  32.485  16.667   4.783
78852CL-    CL-38289  15.731  43.385  10.076
78853CL-    CL-38290  21.749   7.857   2.195
78854CL-    CL-38291  20.091  10.198  13.546
78855CL-    CL-38292   4.854  31.086   0.262
78856CL-    CL-38293  41.947  42.495   4.821
78857CL-    CL-38294   4.399   8.357   2.811
78858CL-    CL-38295  12.638  42.927  11.936
78859CL-    CL-38296  41.455   0.984  14.347
78860CL-    CL-38297  44.377  41.018  14.790
78861CL-    CL-38298   8.815  37.988  10.462
78862CL-    CL-38299  33.389  24.708   3.865
78863CL-    CL-38300   8.325  32.583  11.497
78864CL-    CL-38301  24.983  29.519  13.450
78865CL-    CL-38302  13.750   5.818  14.427
78866CL-    CL-38303  35.922  28.042   1.719
78867CL-    CL-38304  33.107  34.096   2.363
78868CL-    CL-38305   1.450   6.688   3.712
78869CL-    CL-38306  39.809  43.342   3.293
78870CL-    CL-38307  22.726  35.414  13.511
78871CL-    CL-38308  19.586  43.287   4.816
78872CL-    CL-38309  21.592  37.512   3.352
78873CL-    CL-38310  22.037  10.739  11.925
78874CL-    CL-38311  34.515  19.181  12.960
78875CL-    CL-38312  14.177  13.221  13.831
78876CL-    CL-38313  34.869  15.632  11.563
78877CL-    CL-38314  10.373  10.152   1.782
78878CL-    CL-38315  22.685  35.557   3.663
78879CL-    CL-38316  12.307  22.996   0.779
78880CL-    CL-38317  10.300  29.995  14.287
78881CL-    CL-38318   2.423  44.419  14.885
78882CL-    CL-38319  31.925   1.255   0.959
78883CL-    CL-38320  42.923  22.619   1.443
78884CL-    CL-38321  22.158  28.637  11.965
78885CL-    CL-38322  30.021  43.412   4.813
78886CL-    CL-38323  42.011  14.133   4.234
78887CL-    CL-38324  22.123   0.972  12.894
78888CL-    CL-38325  41.857  12.284  12.914
78889CL-    CL-38326   7.392   6.727  13.499
78890CL-    CL-38327  44.303   8.874  11.456
78891CL-    CL-38328  42.904  23.654   4.697
78892CL-    CL-38329   3.269   8.318   4.211
78893CL-    CL-38330   1.445  40.440  14.291
78894CL-    CL-38331  16.608   3.262  10.570
78895CL-    CL-38332  35.452  16.079  13.387
78896CL-    CL-38333  25.017   9.255  12.923
78897CL-    CL-38334  26.507  44.264   2.402
78898CL-    CL-38335  31.045  42.348  12.855
78899CL-    CL-38336  39.902  38.432   1.352
78900CL-    CL-38337   0.321  35.542   9.639
78901CL-    CL-38338   5.912  30.055   4.135
78902CL-    CL-38339   1.275  15.802   1.244
78903CL-    CL-38340  21.074  44.489   1.220
78904CL-    CL-38341  23.135  29.002  11.439
78905CL-    CL-38342  28.098  32.442  11.915
78906CL-    CL-38343  43.967  33.110  10.978
78907CL-    CL-38344  13.320   8.186   2.690
78908CL-    CL-38345  33.568  25.650   0.846
78909CL-    CL-38346  26.600  34.488   1.716
78910CL-    CL-38347   9.202  33.490   4.246
78911CL-    CL-38348  16.690  17.577   3.283
78912CL-    CL-38349  25.559   3.395   1.821
78913CL-    CL-38350  40.959  32.572   0.823
78914CL-    CL-38351  37.510  16.163   4.705
78915CL-    CL-38352   3.308  28.973   4.332
78916CL-    CL-38353   0.437  17.307   3.826
78917CL-    CL-38354  41.414  26.119   3.323
78918CL-    CL-38355   1.898  38.826   4.347
78919CL-    CL-38356  15.321  32.526   2.879
78920CL-    CL-38357  43.946  16.692   3.237
78921CL-    CL-38358   1.266  29.952  13.976
78922CL-    CL-38359  22.560  34.976  11.455
78923CL-    CL-38360  24.533  26.036   4.308
78924CL-    CL-38361  25.476  24.977   3.840
78925CL-    CL-38362  14.285  38.035  13.390
78926CL-    CL-38363  20.196   3.378   9.973
78927CL-    CL-38364   6.260  36.994   0.367
78928CL-    CL-38365  29.451  34.586   0.854
78929CL-    CL-38366  26.688  33.394  13.340
78930CL-    CL-38367  11.234  38.884   4.820
78931CL-    CL-38368   6.923  31.076  14.423
78932CL-    CL-38369  39.993  13.283  10.639
78933CL-    CL-38370  40.363  18.249  13.479
78934CL-    CL-38371  43.839  22.153   2.865
78935CL-    CL-38372  43.799  25.072  13.952
78936CL-    CL-38373  42.519  32.411  11.074
78937CL-    CL-38374  37.866  37.064   3.362
78938CL-    CL-38375   8.874  27.940   3.203
78939CL-    CL-38376  37.540  28.070   4.776
78940CL-    CL-38377  17.737  31.424  13.353
78941CL-    CL-38378  43.410   2.402  12.341
78942CL-    CL-38379  17.705  21.168   1.415
78943CL-    CL-38380  28.061  20.658   4.257
78944CL-    CL-38381  39.877  42.779   1.383
78945CL-    CL-38382  27.623  26.554  14.457
78946CL-    CL-38383   3.777  25.547  11.427
78947CL-    CL-38384  13.127  10.851  14.009
78948CL-    CL-38385  16.702  19.617   3.792
78949CL-    CL-38386  13.804  28.654  12.870
78950CL-    CL-38387  39.332  37.531   4.731
78951CL-    CL-38388  44.343  27.491   2.891
78952CL-    CL-38389   6.802  40.396  12.920
78953CL-    CL-38390  20.692   0.456  12.068
78954CL-    CL-38391  12.160  18.620  11.465
78955CL-    CL-38392  14.265   5.225   1.267
78956CL-    CL-38393  29.561   4.225  13.886
78957CL-    CL-38394   7.872  27.009  11.528
78958CL-    CL-38395  33.393  23.662   0.385
78959CL-    CL-38396  22.135   9.825   4.728
78960CL-    CL-38397   6.232  42.354   1.283
78961CL-    CL-38398  32.075  16.257   3.343
78962CL-    CL-38399  32.072  12.614   2.885
78963CL-    CL-38400  35.012  25.032   4.272
78964CL-    CL-38401   5.875   5.895   3.198
78965CL-    CL-38402  37.848  19.160   2.253
78966CL-    CL-38403   0.795   5.369  13.399
78967CL-    CL-38404  42.777  44.809  10.478
78968CL-    CL-38405  20.187  36.418   1.275
78969CL-    CL-38406  20.591  38.999  12.518
78970CL-    CL-38407   8.677  27.647   5.170
78971CL-    CL-38408  25.136  25.147   1.804
78972CL-    CL-38409  44.996  42.472  12.375
78973CL-    CL-38410  33.511   0.749   1.801
78974CL-    CL-38411  22.694  41.003   1.273
78975CL-    CL-38412  37.944  11.775  11.431
78976CL-    CL-38413  25.604  31.113   4.758
78977CL-    CL-38414  19.161   9.670  12.555
78978CL-    CL-38415  21.677  24.573   3.687
78979CL-    CL-38416   5.714   6.843  13.375
78980CL-    CL-38417  27.124  43.290  11.571
78981CL-    CL-38418  27.196   7.696   3.652
78982CL-    CL-38419  23.126  42.028   1.700
78983CL-    CL-38420  36.474   3.900  13.471
78984CL-    CL-38421  44.841  11.655  11.597
78985CL-    CL-38422  14.738  16.593   1.357
78986CL-    CL-38423  34.551  38.563  11.419
78987CL-    CL-38424  42.339   3.346   2.399
78988CL-    CL-38425  32.633  16.636  13.423
78989CL-    CL-38426  34.523  26.984   0.733
78990CL-    CL-38427  42.807   0.418  13.510
78991CL-    CL-38428   5.283   1.753  12.899
78992CL-    CL-38429  28.018  24.007   2.328
78993CL-    CL-38430  13.176  28.943   1.329
78994CL-    CL-38431  18.573  41.421   5.157
78995CL-    CL-38432  17.595   0.893  12.344
78996CL-    CL-38433  36.050   6.697  12.024
78997CL-    CL-38434  11.719  18.642   0.257
78998CL-    CL-38435   6.686  35.534   4.164
78999CL-    CL-38436  28.963  12.186  14.476
79000CL-    CL-38437  33.894  35.527   2.248
79001CL-    CL-38438  12.232  41.501   1.321
79002CL-    CL-38439  40.464   8.217  12.436
79003CL-    CL-38440  28.610  28.176  12.997
79004CL-    CL-38441  17.205  36.392  13.034
79005CL-    CL-38442  33.914  17.192  13.379
79006CL-    CL-38443   5.738  30.440   3.269
79007CL-    CL-38444  36.900  10.292  10.080
79008CL-    CL-38445  36.544   1.927   3.824
79009CL-    CL-38446  30.640  28.570   3.821
79010CL-    CL-38447   5.369  25.175  10.015
79011CL-    CL-38448  11.317   0.956   2.876
79012CL-    CL-38449   4.877  20.215  11.982
79013CL-    CL-38450  30.033  43.887   0.818
79014CL-    CL-38451  18.160  23.661   4.187
79015CL-    CL-38452  36.867  42.808   1.387
79016CL-    CL-38453   5.889   7.383   3.294
79017CL-    CL-38454   2.734  10.857  11.502
79018CL-    CL-38455  37.372  12.299  14.320
79019CL-    CL-38456  21.242  32.441   1.709
79020CL-    CL-38457  22.582  40.045   5.618
79021CL-    CL-38458  44.400  41.503   2.376
79022CL-    CL-38459  17.304  38.492   1.389
79023CL-    CL-38460   2.286   7.219   1.904
79024CL-    CL-38461  27.013  32.042  14.981
79025CL-    CL-38462  26.056  41.434  11.104
79026CL-    CL-38463  42.820   9.774   2.827
79027CL-    CL-38464  15.171  37.407   2.714
79028CL-    CL-38465  36.351  39.374  11.059
79029CL-    CL-38466  31.908  26.020   3.801
79030CL-    CL-38467  11.805  12.754  12.535
79031CL-    CL-38468  44.287  30.607  11.413
79032CL-    CL-38469  42.305  41.403  14.511
79033CL-    CL-38470  11.166  31.912  12.894
79034CL-    CL-38471  35.408  34.029   1.858
79035CL-    CL-38472  37.511  35.590   3.369
79036CL-    CL-38473  26.478  18.696  13.418
79037CL-    CL-38474  29.096  10.742   5.621
79038CL-    CL-38475   8.885  16.759  13.357
79039CL-    CL-38476  37.431  15.678   0.832
79040CL-    CL-38477  43.901  11.231  11.592
79041CL-    CL-38478  21.137  28.610  12.551
79042CL-    CL-38479   9.866   4.921  12.342
79043CL-    CL-38480  32.573  40.341   1.825
79044CL-    CL-38481  11.793  10.646   3.262
79045CL-    CL-38482  15.251  37.435   2.272
79046CL-    CL-38483   7.694  31.406   4.344
79047CL-    CL-38484  18.655  14.289  14.809
79048CL-    CL-38485  29.609  24.625   9.958
79049CL-    CL-38486  33.059  38.433   0.254
79050CL-    CL-38487  42.826  32.897   5.122
79051CL-    CL-38488   9.210  34.586   2.403
79052CL-    CL-38489  32.056  27.571  14.902
79053CL-    CL-38490  23.555  28.657  14.439
79054CL-    CL-38491  35.037  44.465  12.833
79055CL-    CL-38492   1.322   1.733   3.252
79056CL-    CL-38493  44.351  38.033  14.832
79057CL-    CL-38494  35.376  24.007  10.913
79058CL-    CL-38495   8.368   3.878   2.853
79059CL-    CL-38496  10.219  27.051  14.029
79060CL-    CL-38497  16.102  13.191  13.024
79061CL-    CL-38498  21.218  25.165   3.305
79062CL-    CL-38499  44.778   5.746   0.821
79063CL-    CL-38500  40.967  23.206  14.877
79064CL-    CL-38501  41.015  34.491  13.796
79065CL-    CL-38502  13.283  21.569  11.042
79066CL-    CL-38503   4.318  38.456  12.340
79067CL-    CL-38504  11.645  10.811  14.975
79068CL-    CL-38505  42.831  10.764   4.621
79069CL-    CL-38506  13.671  19.659   0.287
79070CL-    CL-38507  14.765  32.995   0.366
79071CL-    CL-38508   2.411  18.271   3.836
79072CL-    CL-38509  42.343  15.173   4.293
79073CL-    CL-38510  10.321  10.289  11.987
79074CL-    CL-38511  27.137  13.715  14.335
79075CL-    CL-38512  27.015   1.732  13.490
79076CL-    CL-38513  34.554  43.331   3.820
79077CL-    CL-38514  44.425  27.546  11.876
79078CL-    CL-38515  18.597  16.588   3.761
79079CL-    CL-38516  22.108  37.056  12.087
79080CL-    CL-38517  19.708  40.490   1.326
79081CL-    CL-38518   3.781  23.578   2.202
79082CL-    CL-38519   6.878  15.252  14.983
79083CL-    CL-38520  15.234  26.158   2.390
79084CL-    CL-38521  13.707  39.912   1.273
79085CL-    CL-38522   1.888   7.707  10.493
79086CL-    CL-38523  18.601   4.362   0.942
79087CL-    CL-38524  38.866   9.354  11.576
79088CL-    CL-38525  12.239  22.007   3.661
79089CL-    CL-38526  35.932  19.627  11.450
79090CL-    CL-38527  37.531  37.956   0.404
79091CL-    CL-38528  41.434  38.440  14.314
79092CL-    CL-38529  32.554  17.081   4.135
79093CL-    CL-38530  12.734  37.568  14.363
79094CL-    CL-38531  15.127   5.222   3.715
79095CL-    CL-38532  44.830  21.058  12.904
79096CL-    CL-38533  15.638  12.679   0.896
79097CL-    CL-38534  27.507  34.451   3.262
79098CL-    CL-38535  33.456  30.488   1.235
79099CL-    CL-38536  19.549  42.808   9.964
79100CL-    CL-38537  32.978  11.746   2.288
79101CL-    CL-38538   6.192  10.199   3.230
79102CL-    CL-38539  18.686  12.642   0.483
79103CL-    CL-38540   8.677  35.027   4.304
79104CL-    CL-38541  38.914  44.279   1.816
79105CL-    CL-38542   9.694  36.957  11.958
79106CL-    CL-38543   0.882  20.701  11.969
79107CL-    CL-38544  44.273  14.228  14.453
79108CL-    CL-38545  33.037   6.730  14.455
79109CL-    CL-38546  10.163   3.251   2.192
79110CL-    CL-38547   0.987  31.445  14.894
79111CL-    CL-38548  26.169  42.952  10.112
79112CL-    CL-38549   8.727   7.375   2.823
79113CL-    CL-38550  34.044  20.239  10.413
79114CL-    CL-38551  21.236   1.293  11.413
79115CL-    CL-38552  23.206   7.785  13.340
79116CL-    CL-38553  14.800  19.252   1.905
79117CL-    CL-38554  11.128  38.922  12.939
79118CL-    CL-38555   3.928  34.467  11.993
79119CL-    CL-38556  23.219  23.528  14.799
79120CL-    CL-38557  36.457  35.000   3.733
79121CL-    CL-38558  42.846  12.220   1.412
79122CL-    CL-38559  38.954   9.333   2.860
79123CL-    CL-38560  25.695  41.995  11.557
79124CL-    CL-38561  30.071  27.500  12.061
79125CL-    CL-38562   2.398  23.003  14.932
79126CL-    CL-38563  22.567  28.180   1.439
79127CL-    CL-38564  23.165  10.220   1.267
79128CL-    CL-38565  31.498  27.022   5.164
79129CL-    CL-38566  19.610  18.103  12.020
79130CL-    CL-38567  19.163   9.337  12.841
79131CL-    CL-38568   2.927  39.541   1.874
79132CL-    CL-38569  10.858  26.467   0.263
79133CL-    CL-38570  34.947  20.127  13.366
79134CL-    CL-38571  24.588  44.291  14.417
79135CL-    CL-38572  26.071  35.098  11.481
79136CL-    CL-38573  16.236   1.811  10.506
79137CL-    CL-38574  27.054  17.695  12.483
79138CL-    CL-38575  18.663  43.769   2.297
79139CL-    CL-38576   3.435   7.322  14.468
79140CL-    CL-38577   0.987   9.646  14.312
79141CL-    CL-38578   8.259  10.773   0.306
79142CL-    CL-38579   3.221  21.547   4.747
79143CL-    CL-38580   9.666  37.011  11.018
79144CL-    CL-38581  18.742   8.217   0.330
79145CL-    CL-38582   4.837  14.670   9.490
79146CL-    CL-38583  29.615  19.171   2.809
79147CL-    CL-38584  14.768  26.631   2.709
79148CL-    CL-38585  40.357   2.453  12.093
79149CL-    CL-38586  35.456  17.297  11.970
79150CL-    CL-38587   2.736  40.797   2.383
79151CL-    CL-38588  36.353  10.635   0.388
79152CL-    CL-38589   5.775  23.682  12.920
79153CL-    CL-38590  17.168  34.453   4.228
79154CL-    CL-38591  16.190  10.343   2.247
79155CL-    CL-38592  41.948   4.709  10.111
79156CL-    CL-38593  19.540  23.004   3.318
79157CL-    CL-38594   1.854  42.507   0.863
79158CL-    CL-38595  20.107  22.144   5.221
79159CL-    CL-38596   1.421  35.446  14.431
79160CL-    CL-38597   4.267  24.508   3.258
79161CL-    CL-38598   6.359  33.561   4.661
79162CL-    CL-38599  37.847   2.901   3.251
79163CL-    CL-38600  40.485  39.481  13.342
79164CL-    CL-38601   6.286  20.048   4.706
79165CL-    CL-38602   9.351  36.850   4.131
79166CL-    CL-38603  33.583  11.667  11.103
79167CL-    CL-38604  12.287  26.474   0.868
79168CL-    CL-38605  18.156   2.338   0.355
79169CL-    CL-38606  28.143  13.779  13.391
79170CL-    CL-38607  29.437  44.949  10.933
79171CL-    CL-38608  28.150  27.657   1.859
79172CL-    CL-38609  33.019  32.967  12.495
79173CL-    CL-38610  42.394   5.747  14.872
79174CL-    CL-38611   8.220   4.848   3.259
79175CL-    CL-38612  21.070  24.569   0.837
79176CL-    CL-38613  23.020  43.937  11.390
79177CL-    CL-38614  24.002  13.342   2.713
79178CL-    CL-38615  30.587  29.455   1.417
79179CL-    CL-38616  29.641  31.502   1.907
79180CL-    CL-38617  12.636  42.017   3.654
79181CL-    CL-38618  32.512   7.680  13.022
79182CL-    CL-38619  21.692  33.509  12.477
79183CL-    CL-38620   0.338  30.113  14.872
79184CL-    CL-38621  17.172  35.970   1.771
79185CL-    CL-38622  26.682  36.563  11.928
79186CL-    CL-38623  20.196  32.019  12.478
79187CL-    CL-38624  43.861  32.449  11.046
79188CL-    CL-38625  10.176  29.446   0.447
79189CL-    CL-38626   3.415   0.905  14.383
79190CL-    CL-38627  10.232  37.880   2.737
79191CL-    CL-38628   3.443  29.133  10.042
79192CL-    CL-38629  33.441   3.771  13.032
79193CL-    CL-38630  25.177  16.776   3.306
79194CL-    CL-38631  33.432  15.225   3.362
79195CL-    CL-38632  44.315  41.453  13.482
79196CL-    CL-38633  13.343  33.445   4.625
79197CL-    CL-38634  34.925  30.130   3.823
79198CL-    CL-38635  26.045  31.602   1.837
79199CL-    CL-38636   1.439  28.438   4.817
79200CL-    CL-38637   9.267  23.178  10.476
79201CL-    CL-38638   7.347  40.921   4.711
79202CL-    CL-38639   3.943  25.114   0.937
79203CL-    CL-38640   2.789  35.395   9.654
79204CL-    CL-38641  39.969  16.228   1.217
79205CL-    CL-38642  19.206  38.479  14.895
79206CL-    CL-38643  35.442  22.595   4.766
79207CL-    CL-38644   7.171  38.067  13.872
79208CL-    CL-38645  19.072  15.627   3.196
79209CL-    CL-38646  40.907  27.068  13.418
79210CL-    CL-38647  36.944  34.536  13.052
79211CL-    CL-38648   2.342   5.724  11.111
79212CL-    CL-38649  24.512  33.414   1.332
79213CL-    CL-38650  41.512  12.245   3.246
79214CL-    CL-38651   2.361  29.943  14.869
79215CL-    CL-38652  18.604  41.035   4.241
79216CL-    CL-38653  42.487  42.291  12.462
79217CL-    CL-38654  14.754  15.302  11.060
79218CL-    CL-38655   6.408  36.997  10.435
79219CL-    CL-38656  11.654  21.202   3.668
79220CL-    CL-38657  35.991  28.995   0.276
79221CL-    CL-38658  20.219   1.933   1.341
79222CL-    CL-38659  12.762  11.284  11.395
79223CL-    CL-38660   5.404  10.362  13.414
79224CL-    CL-38661  24.015  38.486  14.991
79225CL-    CL-38662   2.957  17.780  13.002
79226CL-    CL-38663  36.856  22.606   1.719
79227CL-    CL-38664  26.166  28.611   3.163
79228CL-    CL-38665   8.336   9.648  10.935
79229CL-    CL-38666  29.605  18.208  12.054
79230CL-    CL-38667   0.451  42.918  13.991
79231CL-    CL-38668   2.371  39.371  11.949
79232CL-    CL-38669  36.443   1.872   2.207
79233CL-    CL-38670  11.705  27.486   0.931
79234CL-    CL-38671  14.786  39.046  11.002
79235CL-    CL-38672   7.271  33.938  11.505
79236CL-    CL-38673  43.376  41.468  12.516
79237CL-    CL-38674  11.308  23.218   4.609
79238CL-    CL-38675  28.938  26.629  13.467
79239CL-    CL-38676  24.020   5.901  10.418
79240CL-    CL-38677  19.561  11.170  11.593
79241CL-    CL-38678  28.485   5.721  10.446
79242CL-    CL-38679   2.906  12.614  11.885
79243CL-    CL-38680  26.549  13.337   5.174
79244CL-    CL-38681  16.796  31.143  11.072
79245CL-    CL-38682   0.885  10.144  12.348
79246CL-    CL-38683  22.152   1.947   0.959
79247CL-    CL-38684  38.004  29.148   0.290
79248CL-    CL-38685  38.007   0.334  11.914
79249CL-    CL-38686  33.549  20.689  12.551
79250CL-    CL-38687  24.104  40.321   2.668
79251CL-    CL-38688   2.729  41.859   4.815
79252CL-    CL-38689  11.344  36.473  13.472
79253CL-    CL-38690  18.156  14.173   4.326
79254CL-    CL-38691   3.389  31.000   2.758
79255CL-    CL-38692   6.403  43.864  12.456
79256CL-    CL-38693  32.906  15.677  14.283
79257CL-    CL-38694  20.088   8.884  13.323
79258CL-    CL-38695  16.141   7.755   1.877
79259CL-    CL-38696  12.732  26.683   2.827
79260CL-    CL-38697   1.768  23.510   3.254
79261CL-    CL-38698  40.505  36.086  10.159
79262CL-    CL-38699  16.095  28.577  13.862
79263CL-    CL-38700  38.541  39.841   3.201
79264CL-    CL-38701  32.126  38.879   2.201
79265CL-    CL-38702  11.711  15.616  13.317
79266CL-    CL-38703   8.873   8.225   3.367
79267CL-    CL-38704  38.417  32.044   4.740
79268CL-    CL-38705   1.799  35.428  13.801
79269CL-    CL-38706  14.287  28.079   1.916
79270CL-    CL-38707   3.803  44.478  11.404
79271CL-    CL-38708  12.270  31.909  10.065
79272CL-    CL-38709  18.695  28.667  11.510
79273CL-    CL-38710  13.827  24.021   4.776
79274CL-    CL-38711  14.801   3.386   3.223
79275CL-    CL-38712  34.563  19.053   2.761
79276CL-    CL-38713  10.730  18.677   2.400
79277CL-    CL-38714  33.969  35.907   2.354
79278CL-    CL-38715  27.648  27.652   4.118
79279CL-    CL-38716  15.732  10.648   1.813
79280CL-    CL-38717  28.603   0.349  11.482
79281CL-    CL-38718  44.294  31.579   3.739
79282CL-    CL-38719  30.504  22.557   5.574
79283CL-    CL-38720  12.345  44.449  12.440
79284CL-    CL-38721  13.750  18.574   4.719
79285CL-    CL-38722   2.775  19.643   0.411
79286CL-    CL-38723  18.581  37.879   3.343
79287CL-    CL-38724  18.161   1.278  12.359
79288CL-    CL-38725  13.287  10.709  13.340
79289CL-    CL-38726   5.858  28.960   1.801
79290CL-    CL-38727  33.470   3.355  14.843
79291CL-    CL-38728  13.751  37.404   2.321
79292CL-    CL-38729  37.955  43.975  11.075
79293CL-    CL-38730  35.930   6.745   0.903
79294CL-    CL-38731  21.167  21.544   4.773
79295CL-    CL-38732  42.978  38.986   0.885
79296CL-    CL-38733  25.710  21.117   3.858
79297CL-    CL-38734  18.657   6.894   3.210
79298CL-    CL-38735  24.540  20.103   4.274
79299CL-    CL-38736   4.874   3.368  11.437
79300CL-    CL-38737  19.280  18.764   9.661
79301CL-    CL-38738  30.026  39.945   2.729
79302CL-    CL-38739  27.690  39.482  13.884
79303CL-    CL-38740  25.574  17.604   2.189
79304CL-    CL-38741  33.519  19.190  12.031
79305CL-    CL-38742  23.045  36.893   5.088
79306CL-    CL-38743  13.116  27.522  12.449
79307CL-    CL-38744  43.344  10.870   4.196
79308CL-    CL-38745  11.754   6.737   0.397
79309CL-    CL-38746  23.685  25.041  14.297
79310CL-    CL-38747  43.420  35.948  12.352
79311CL-    CL-38748  16.315  13.716  12.940
79312CL-    CL-38749   4.411   1.835  14.023
79313CL-    CL-38750  12.164  25.067  10.545
79314CL-    CL-38751  41.537  13.146  12.421
79315CL-    CL-38752  14.683  38.896   1.362
79316CL-    CL-38753  31.061   7.726   3.854
79317CL-    CL-38754  18.067  20.227   2.704
79318CL-    CL-38755  30.028  15.322   2.749
79319CL-    CL-38756   5.371  39.317  14.342
79320CL-    CL-38757   1.260  34.946  13.837
79321CL-    CL-38758  31.553  36.514  14.871
79322CL-    CL-38759  27.465  27.448  12.457
79323CL-    CL-38760  30.642  31.974  14.835
79324CL-    CL-38761  42.928  14.265  14.315
79325CL-    CL-38762   9.211  29.030   3.275
79326CL-    CL-38763  12.702  27.671   0.271
79327CL-    CL-38764  23.722  39.869   2.233
79328CL-    CL-38765  32.566  35.901   2.262
79329CL-    CL-38766  23.643  27.625  12.492
79330CL-    CL-38767  35.586  22.600  13.311
79331CL-    CL-38768  33.415  12.202   1.393
79332CL-    CL-38769   3.403   5.252   4.642
79333CL-    CL-38770  44.327  18.614   4.132
79334CL-    CL-38771  27.004  32.982  12.440
79335CL-    CL-38772  32.394  26.583  12.536
79336CL-    CL-38773  22.562   0.256  14.369
79337CL-    CL-38774  27.513   0.862   2.806
79338CL-    CL-38775  35.510  44.868  14.509
79339CL-    CL-38776   4.388   4.722  11.906
79340CL-    CL-38777  28.674  34.924  10.951
79341CL-    CL-38778  41.397  26.062   2.269
79342CL-    CL-38779  21.756  38.050  12.037
79343CL-    CL-38780   9.259   4.415   1.819
79344CL-    CL-38781   8.690  31.030  13.347
79345CL-    CL-38782   3.874  10.801   3.708
79346CL-    CL-38783  40.463  38.514  14.912
79347CL-    CL-38784  32.464  12.711   1.424
79348CL-    CL-38785  19.761  42.973   2.333
79349CL-    CL-38786   9.297   6.796   0.745
79350CL-    CL-38787  37.566  35.062   3.349
79351CL-    CL-38788  25.602  43.377  13.842
79352CL-    CL-38789  31.965   6.222  12.501
79353CL-    CL-38790  14.775  40.492  13.798
79354CL-    CL-38791  10.217  27.499   3.816
79355CL-    CL-38792  29.964  29.489  11.492
79356CL-    CL-38793   8.381  15.265   2.784
79357CL-    CL-38794   0.953  23.733  12.838
79358CL-    CL-38795  34.925  38.463  14.928
79359CL-    CL-38796  31.029  32.574   0.823
79360CL-    CL-38797  23.686  37.437   5.173
79361CL-    CL-38798   4.880   7.249   0.448
79362CL-    CL-38799  18.551  10.140   2.693
79363CL-    CL-38800  14.638  20.076   1.334
79364CL-    CL-38801  34.579   0.897   2.348
79365CL-    CL-38802  15.133  38.431   0.746
79366CL-    CL-38803  35.490  13.192   1.926
79367CL-    CL-38804  15.721   6.700  14.762
79368CL-    CL-38805  19.774  40.438   3.195
79369CL-    CL-38806   3.907  41.036   0.251
79370CL-    CL-38807  19.046  41.848   4.263
79371CL-    CL-38808  29.920   1.343   0.899
79372CL-    CL-38809  12.247  34.035  13.802
79373CL-    CL-38810  27.003  31.922  13.347
79374CL-    CL-38811  12.356  33.534  13.921
79375CL-    CL-38812  23.717  10.711   4.831
79376CL-    CL-38813  44.407  10.875  14.845
79377CL-    CL-38814  18.292  39.009  11.965
79378CL-    CL-38815  44.879  21.085  12.086
79379CL-    CL-38816  11.193  24.038  12.976
79380CL-    CL-38817  12.187  20.087  12.022
79381CL-    CL-38818  27.550   5.696  12.057
79382CL-    CL-38819  38.378  31.039   4.132
79383CL-    CL-38820  25.206  30.607   3.256
79384CL-    CL-38821  27.628  14.121   3.264
79385CL-    CL-38822  38.437  32.982   3.243
79386CL-    CL-38823  19.124  11.731  11.474
79387CL-    CL-38824  36.947  24.182   1.763
79388CL-    CL-38825  39.395  16.184  13.528
79389CL-    CL-38826   2.876  23.018   4.741
79390CL-    CL-38827  20.731  27.642   0.774
79391CL-    CL-38828  11.254  16.303   0.747
79392CL-    CL-38829  44.927  43.902   0.928
79393CL-    CL-38830  36.084  44.307   2.831
79394CL-    CL-38831  17.645  11.657   3.723
79395CL-    CL-38832  18.772  19.152   9.564
79396CL-    CL-38833  42.353   9.324   1.885
79397CL-    CL-38834   1.423  27.090  14.980
79398CL-    CL-38835  28.676  26.180  10.978
79399CL-    CL-38836  39.836  11.635   0.284
79400CL-    CL-38837  21.125  20.600  11.967
79401CL-    CL-38838  21.188  41.861   0.257
79402CL-    CL-38839   3.344  12.165  11.923
79403CL-    CL-38840   1.309   7.284   1.431
79404CL-    CL-38841   5.834  14.743   0.872
79405CL-    CL-38842  33.610  37.073   5.174
79406CL-    CL-38843  26.651  13.841   1.367
79407CL-    CL-38844  40.446   9.232   2.308
79408CL-    CL-38845  19.039  17.671   3.647
79409CL-    CL-38846  29.122  15.206  12.541
79410CL-    CL-38847  44.353  29.468   2.305
79411CL-    CL-38848  10.679   5.799  14.823
79412CL-    CL-38849  32.999  13.699  14.972
79413CL-    CL-38850   7.745   6.831   2.354
79414CL-    CL-38851  19.709  35.043   2.786
79415CL-    CL-38852  18.170  10.161   1.243
79416CL-    CL-38853  25.024   0.845  13.365
79417CL-    CL-38854  34.113   3.874  13.519
79418CL-    CL-38855  22.631   3.804  12.896
79419CL-    CL-38856  40.977   1.300   1.236
79420CL-    CL-38857  22.570  29.121   4.156
79421CL-    CL-38858  16.310  10.220   1.706
79422CL-    CL-38859  28.937  36.440   0.966
79423CL-    CL-38860  15.201  15.766  14.513
79424CL-    CL-38861  31.130  21.257  12.547
79425CL-    CL-38862  11.856  38.442   0.463
79426CL-    CL-38863  36.527  12.679  11.910
79427CL-    CL-38864   5.213   4.290   3.637
79428CL-    CL-38865  16.746   4.939   0.252
79429CL-    CL-38866  24.212  42.441  12.093
79430CL-    CL-38867  20.220  27.581   1.324
79431CL-    CL-38868   4.382  21.633  13.375
79432CL-    CL-38869  34.429  31.101  10.449
79433CL-    CL-38870  33.008  20.592  11.010
79434CL-    CL-38871  35.438  24.531  14.362
79435CL-    CL-38872  12.666  11.131  11.898
79436CL-    CL-38873   7.734   5.388  11.070
79437CL-    CL-38874  36.959  43.806  12.380
79438CL-    CL-38875   4.809  13.324   0.833
79439CL-    CL-38876  16.081   0.937   0.441
79440CL-    CL-38877  25.572   0.283  14.824
79441CL-    CL-38878  12.843  23.210  13.015
79442CL-    CL-38879  11.832  22.683  11.470
79443CL-    CL-38880  10.682  39.859   4.744
79444CL-    CL-38881  34.088  40.370   0.450
79445CL-    CL-38882  38.355  15.208   3.675
79446CL-    CL-38883   5.240  16.719   2.871
79447CL-    CL-38884   4.372  10.633  13.011
79448CL-    CL-38885  24.142  44.983   4.654
79449CL-    CL-38886  40.443  15.585  10.934
79450CL-    CL-38887   7.869  13.149  14.370
79451CL-    CL-38888  39.491  26.133  10.968
79452CL-    CL-38889  28.114  44.405   4.602
79453CL-    CL-38890  11.268  16.580  14.767
79454CL-    CL-38891  36.889  36.927  13.978
79455CL-    CL-38892  25.529   5.286  13.023
79456CL-    CL-38893  26.190  44.958   2.310
79457CL-    CL-38894  19.258  16.239  12.831
79458CL-    CL-38895  14.755  39.434  13.996
79459CL-    CL-38896  42.780  10.311   2.696
79460CL-    CL-38897  29.985  39.504   4.834
79461CL-    CL-38898   6.220   1.283   2.322
79462CL-    CL-38899  14.136   3.899  10.889
79463CL-    CL-38900  21.578  34.886   4.126
79464CL-    CL-38901  11.706  28.680  13.452
79465CL-    CL-38902  11.830  39.384   0.933
79466CL-    CL-38903   3.422   9.189   0.805
79467CL-    CL-38904   4.424  23.691  11.498
79468CL-    CL-38905  32.543  20.531   4.695
79469CL-    CL-38906  22.218   5.748  12.404
79470CL-    CL-38907  18.652  11.304  10.430
79471CL-    CL-38908  14.785  32.949  10.491
79472CL-    CL-38909  40.837  20.566   1.884
79473CL-    CL-38910  26.024  27.521   0.381
79474CL-    CL-38911  34.031  38.397   3.355
79475CL-    CL-38912  11.648  15.777  14.474
79476CL-    CL-38913   9.210  24.110  14.841
79477CL-    CL-38914  32.590  24.488   5.091
79478CL-    CL-38915   9.361  42.891  12.896
79479CL-    CL-38916  19.587  44.384   1.428
79480CL-    CL-38917  17.583  39.031  10.977
79481CL-    CL-38918  36.400   9.705  13.507
79482CL-    CL-38919  42.339  12.691   2.394
79483CL-    CL-38920  15.240  33.038   0.767
79484CL-    CL-38921   0.266  39.005   0.915
79485CL-    CL-38922  24.066  17.661   2.336
79486CL-    CL-38923  41.852  33.584  14.329
79487CL-    CL-38924  21.621  35.931   1.733
79488CL-    CL-38925   5.268  22.019  12.504
79489CL-    CL-38926  40.403  17.200  12.893
79490CL-    CL-38927   0.318  21.248   1.735
79491CL-    CL-38928  19.600   0.939  13.037
79492CL-    CL-38929  44.390  39.477   0.807
79493CL-    CL-38930  11.311  18.633  13.338
79494CL-    CL-38931  27.052  34.978   0.923
79495CL-    CL-38932   6.355  14.714   3.300
79496CL-    CL-38933  11.852   7.670  14.488
79497CL-    CL-38934  24.644  36.904  13.928
79498CL-    CL-38935  38.422  10.804  10.432
79499CL-    CL-38936  11.261  24.164   4.819
79500CL-    CL-38937  44.790  37.030   3.692
79501CL-    CL-38938  24.599  26.593   0.742
79502CL-    CL-38939  26.623  42.406   4.165
79503CL-    CL-38940  40.485  33.622   2.693
79504CL-    CL-38941  18.263  37.459   0.372
79505CL-    CL-38942  26.643  24.109   2.180
79506CL-    CL-38943  17.084  41.019  13.986
79507CL-    CL-38944  17.714   4.890  14.977
79508CL-    CL-38945  35.046  13.266   3.215
79509CL-    CL-38946  19.070  32.565   4.654
79510CL-    CL-38947   3.359  25.144  10.991
79511CL-    CL-38948  22.651  16.195  12.023
79512CL-    CL-38949  20.201  17.266   0.344
79513CL-    CL-38950  37.366  13.241  11.900
79514CL-    CL-38951   8.305   0.269  14.832
79515CL-    CL-38952   9.724  41.974  13.539
79516CL-    CL-38953  17.713  10.639   2.269
79517CL-    CL-38954  34.545  38.480   2.325
79518CL-    CL-38955  34.466   3.943   4.150
79519CL-    CL-38956  42.316   1.776  11.456
79520CL-    CL-38957   1.373  38.921  11.015
79521CL-    CL-38958   6.912  42.487   2.826
79522CL-    CL-38959   6.847  28.638  14.930
79523CL-    CL-38960   3.746  44.358  10.889
79524CL-    CL-38961  13.154  20.758   0.435
79525CL-    CL-38962  26.494   5.764   1.920
79526CL-    CL-38963  17.584   1.973   1.302
79527CL-    CL-38964   0.363  40.458  13.356
79528CL-    CL-38965   8.344  17.583   1.371
79529CL-    CL-38966   5.357   2.935   4.690
79530CL-    CL-38967  19.278  42.816   3.810
79531CL-    CL-38968  35.597   3.348   4.254
79532CL-    CL-38969  43.013   7.743   3.166
79533CL-    CL-38970   2.466  24.595  11.392
79534CL-    CL-38971   6.764  10.867  10.575
79535CL-    CL-38972  34.097  24.008  11.563
79536CL-    CL-38973  15.600   2.928  14.279
79537CL-    CL-38974  44.753  22.735  14.324
79538CL-    CL-38975  14.307  21.694  13.502
79539CL-    CL-38976  36.855  13.262   4.183
79540CL-    CL-38977  41.294  23.215  14.387
79541CL-    CL-38978  20.078  41.956   5.711
79542CL-    CL-38979  31.108  20.669   4.151
79543CL-    CL-38980  37.366  26.001  10.911
79544CL-    CL-38981  20.135  18.658  12.443
79545CL-    CL-38982  28.439  28.633  12.012
79546CL-    CL-38983  21.234  35.927  13.026
79547CL-    CL-38984  13.315   3.803   3.809
79548CL-    CL-38985  36.487   9.711  13.915
79549CL-    CL-38986   4.258  43.284  12.339
79550CL-    CL-38987  16.689   5.195   2.358
79551CL-    CL-38988  20.629  25.099   2.349
79552CL-    CL-38989  36.538   5.430  10.630
79553CL-    CL-38990  42.375  43.814   1.720
79554CL-    CL-38991   4.844  30.560  12.564
79555CL-    CL-38992   9.683  40.896   1.794
79556CL-    CL-38993  31.565  30.420  13.035
79557CL-    CL-38994  22.210   2.246   4.280
79558CL-    CL-38995   2.336  37.493   0.731
79559CL-    CL-38996  42.933   0.928  11.888
79560CL-    CL-38997  34.413   7.790   4.666
79561CL-    CL-38998   2.457  17.178  13.530
79562CL-    CL-38999  32.400   7.271   1.782
79563CL-    CL-39000  31.639  40.393   0.382
79564CL-    CL-39001  29.547  38.863   3.328
79565CL-    CL-39002   4.760  34.051  11.116
79566CL-    CL-39003  37.840  28.013  14.910
79567CL-    CL-39004  24.042   2.462  14.918
79568CL-    CL-39005  12.139  38.332  11.026
79569CL-    CL-39006  28.522  27.143   4.241
79570CL-    CL-39007  31.144   5.701   0.891
79571CL-    CL-39008  43.401  40.992   2.684
79572CL-    CL-39009  27.967  17.100   0.917
79573CL-    CL-39010  19.718  28.572   3.667
79574CL-    CL-39011   4.774  10.675   0.297
79575CL-    CL-39012  42.842  33.394   3.687
79576CL-    CL-39013  11.823  38.508   1.401
79577CL-    CL-39014  13.179  20.595   3.833
79578CL-    CL-39015  21.035   5.933   4.173
79579CL-    CL-39016  17.147  13.664  10.529
79580CL-    CL-39017  17.730   1.799  12.091
79581CL-    CL-39018   7.776   0.338   0.360
79582CL-    CL-39019   2.400   5.869   4.833
79583CL-    CL-39020  38.525  27.948  11.464
79584CL-    CL-39021   2.946   8.832  12.463
79585CL-    CL-39022   7.318  28.459  14.475
79586CL-    CL-39023  12.317   8.362   1.875
79587CL-    CL-39024  22.219   8.729   1.268
79588CL-    CL-39025  35.580   4.812   3.301
79589CL-    CL-39026   1.919  27.014  13.834
79590CL-    CL-39027  11.269   7.259  14.776
79591CL-    CL-39028  21.165  44.909   1.706
79592CL-    CL-39029   7.702  37.988   0.468
79593CL-    CL-39030  24.583  26.013   0.475
79594CL-    CL-39031   3.727   7.342   3.306
79595CL-    CL-39032   8.700  41.388   1.268
79596CL-    CL-39033  40.881  35.501   1.848
79597CL-    CL-39034  16.665   4.345  13.057
79598CL-    CL-39035  23.035  42.892  11.523
79599CL-    CL-39036  14.597  41.375   2.350
79600CL-    CL-39037   6.418  27.489   3.200
79601CL-    CL-39038  40.460   1.282  12.881
79602CL-    CL-39039   7.889  34.054   3.722
79603CL-    CL-39040  33.969  17.089   4.136
79604CL-    CL-39041   4.817  24.108  12.071
79605CL-    CL-39042  43.929   0.472  10.534
79606CL-    CL-39043  31.030  35.954   0.822
79607CL-    CL-39044   9.266  41.533  13.460
79608CL-    CL-39045  29.069  14.279   0.479
79609CL-    CL-39046   2.454  31.073   0.747
79610CL-    CL-39047  19.258  44.411   2.195
79611CL-    CL-39048  21.693   1.918   2.408
79612CL-    CL-39049  29.002  43.785  11.880
79613CL-    CL-39050  25.553  42.839   3.147
79614CL-    CL-39051   6.785  34.897   2.794
79615CL-    CL-39052  22.179  36.473  12.948
79616CL-    CL-39053  29.976  35.522   2.405
79617CL-    CL-39054  28.165  15.606  14.303
79618CL-    CL-39055   9.273  29.570  12.560
79619CL-    CL-39056  19.181  11.678   3.360
79620CL-    CL-39057  26.537   0.808  12.449
79621CL-    CL-39058  11.270  43.443   0.921
79622CL-    CL-39059  10.696  37.032  10.920
79623CL-    CL-39060  18.563  37.044   3.226
79624CL-    CL-39061   2.739  23.596   4.246
79625CL-    CL-39062  18.202  34.013  12.890
79626CL-    CL-39063  38.358  31.022  14.314
79627CL-    CL-39064   5.247  16.193   2.356
79628CL-    CL-39065  35.923  14.722   3.203
79629CL-    CL-39066  29.566   9.289   1.791
79630CL-    CL-39067  19.121  32.596  10.967
79631CL-    CL-39068   8.211   7.319  11.458
79632CL-    CL-39069  23.694   4.211   1.868
79633CL-    CL-39070  38.421  30.438   1.395
79634CL-    CL-39071  23.113  26.100   3.239
79635CL-    CL-39072  21.039  22.541   2.667
79636CL-    CL-39073  33.925  20.189  12.375
79637CL-    CL-39074  43.306  23.691   4.179
79638CL-    CL-39075  25.489  37.014   3.731
79639CL-    CL-39076  33.975  32.542  11.411
79640CL-    CL-39077  21.129  42.885   4.261
79641CL-    CL-39078   8.724  14.601  13.534
79642CL-    CL-39079   1.804  19.548  13.431
79643CL-    CL-39080  34.070  19.096  14.456
79644CL-    CL-39081  26.177   8.400   4.261
79645CL-    CL-39082  38.414   1.337  11.398
79646CL-    CL-39083  15.817  24.107   1.272
79647CL-    CL-39084  28.106  32.120  10.436
79648CL-    CL-39085  34.878   9.235   4.624
79649CL-    CL-39086  33.952  11.677  11.612
79650CL-    CL-39087  17.065  40.333   1.273
79651CL-    CL-39088  29.649   5.405   0.307
79652CL-    CL-39089   7.290  17.774   2.670
79653CL-    CL-39090  28.550  18.565  11.461
79654CL-    CL-39091   2.241  37.959   3.315
79655CL-    CL-39092   2.469  19.226   4.177
79656CL-    CL-39093  37.032   5.894   3.272
79657CL-    CL-39094   9.301  24.214  13.012
79658CL-    CL-39095  36.477  13.337  13.350
79659CL-    CL-39096  10.642  41.408   4.131
79660CL-    CL-39097  34.979  20.717  13.034
79661CL-    CL-39098  30.132  28.989   2.844
79662CL-    CL-39099  39.985  17.704   1.284
79663CL-    CL-39100  14.161  38.065   0.329
79664CL-    CL-39101   7.317  36.030   1.746
79665CL-    CL-39102  26.462  20.677  13.792
79666CL-    CL-39103  12.315  44.335  13.542
79667CL-    CL-39104  43.965  12.257  14.816
79668CL-    CL-39105  30.011  17.634   4.602
79669CL-    CL-39106  38.927  21.022  13.958
79670CL-    CL-39107  42.824   1.971   3.678
79671CL-    CL-39108  19.165  24.646  12.380
79672CL-    CL-39109  12.682  24.978  13.975
79673CL-    CL-39110  10.778  32.547  12.089
79674CL-    CL-39111   3.447  28.588   0.314
79675CL-    CL-39112  23.635  19.269  10.585
79676CL-    CL-39113  22.608   2.271  11.892
79677CL-    CL-39114  22.215  15.310  13.834
79678CL-    CL-39115  38.360  17.246  12.467
79679CL-    CL-39116  27.668  11.303   1.811
79680CL-    CL-39117  44.372  38.377   0.330
79681CL-    CL-39118  31.985  43.506   4.266
79682CL-    CL-39119  37.387  29.429   5.196
79683CL-    CL-39120  22.225  20.180  13.372
79684CL-    CL-39121   7.775   4.909   2.797
79685CL-    CL-39122   6.245   0.429   2.264
79686CL-    CL-39123  23.562  11.826  14.352
79687CL-    CL-39124  27.525  27.631  14.956
79688CL-    CL-39125   6.894  13.167   3.290
79689CL-    CL-39126  22.706  17.770   1.223
79690CL-    CL-39127  37.954  38.030  11.394
79691CL-    CL-39128   2.401  22.163  11.978
79692CL-    CL-39129  41.908  35.966  12.959
79693CL-    CL-39130   7.666   4.924  12.941
79694CL-    CL-39131  30.563  33.943   0.472
79695CL-    CL-39132  19.626  26.105   3.728
79696CL-    CL-39133  21.658   5.863   0.342
79697CL-    CL-39134   3.874  31.121   1.787
79698CL-    CL-39135   3.258   3.445   0.828
79699CL-    CL-39136   4.782  22.220   4.836
79700CL-    CL-39137  39.870  32.588  12.838
79701CL-    CL-39138   8.393  17.112   4.716
79702CL-    CL-39139  27.508  13.118   1.348
79703CL-    CL-39140   7.380  40.443   0.258
79704CL-    CL-39141   5.408   2.777  11.048
79705CL-    CL-39142   5.767  32.108  10.405
79706CL-    CL-39143  22.736  22.239   3.223
79707CL-    CL-39144   7.767  26.460   0.855
79708CL-    CL-39145  18.146   2.822  11.585
79709CL-    CL-39146  30.587   9.158   4.329
79710CL-    CL-39147  27.575  29.545  14.856
79711CL-    CL-39148  38.886   0.753  14.838
79712CL-    CL-39149   3.736  23.132  12.401
79713CL-    CL-39150  42.482  42.891  13.978
79714CL-    CL-39151  35.475  18.662   2.373
79715CL-    CL-39152  23.515  17.668  13.410
79716CL-    CL-39153  32.082   0.339  14.813
79717CL-    CL-39154  16.811  43.930   0.409
79718CL-    CL-39155  32.501  16.598  11.468
79719CL-    CL-39156  21.683  44.407   4.350
79720CL-    CL-39157  20.656  15.321   3.148
79721CL-    CL-39158  44.296  27.958   0.913
79722CL-    CL-39159  34.461  35.003   1.388
79723CL-    CL-39160  16.763  44.365   0.908
79724CL-    CL-39161  13.785  28.641   2.389
79725CL-    CL-39162  34.387  31.150  13.425
79726CL-    CL-39163  39.447  19.266  10.510
79727CL-    CL-39164  13.687  19.575   4.827
79728CL-    CL-39165  22.192   6.807   2.286
79729CL-    CL-39166  21.088  36.850  12.932
79730CL-    CL-39167  42.904   5.374   4.217
79731CL-    CL-39168  17.208  40.432  10.566
79732CL-    CL-39169  24.180   7.265   1.738
79733CL-    CL-39170  36.961  14.620   1.363
79734CL-    CL-39171  17.792  34.099  11.430
79735CL-    CL-39172  16.730   1.276   2.678
79736CL-    CL-39173  22.514  38.965   3.296
79737CL-    CL-39174  37.355  21.127  14.406
79738CL-    CL-39175   9.270  36.859   1.756
79739CL-    CL-39176  14.289  15.580   4.607
79740CL-    CL-39177  33.567  38.994  12.830
79741CL-    CL-39178  18.100  28.186  11.856
79742CL-    CL-39179  18.188   4.270   4.130
79743CL-    CL-39180  40.411  19.254  14.451
79744CL-    CL-39181  10.154  31.490   2.276
79745CL-    CL-39182  37.555  41.364  10.041
79746CL-    CL-39183  16.808   3.758   4.296
79747CL-    CL-39184  28.435  39.945   5.631
79748CL-    CL-39185  25.541  21.709   4.678
79749CL-    CL-39186  10.719  12.753   2.250
79750CL-    CL-39187  16.580  33.529  11.396
79751CL-    CL-39188  38.028   8.217   3.383
79752CL-    CL-39189  35.543  19.666  13.327
79753CL-    CL-39190  23.106  23.577  11.052
79754CL-    CL-39191   6.870  21.122  13.328
79755CL-    CL-39192  37.850   3.364  12.343
79756CL-    CL-39193  43.357  34.443   1.705
79757CL-    CL-39194  36.525   3.795  12.855
79758CL-    CL-39195  11.262   2.356   2.245
79759CL-    CL-39196  25.628  26.469  14.922
79760CL-    CL-39197  31.628  25.684  14.842
79761CL-    CL-39198   0.352  19.541  13.876
79762CL-    CL-39199   3.918  30.949   0.831
79763CL-    CL-39200  34.938  38.344  11.937
79764CL-    CL-39201  42.459  38.822   0.404
79765CL-    CL-39202  20.542  24.495   4.288
79766CL-    CL-39203  15.115  33.403  11.916
79767CL-    CL-39204   8.364   2.240  10.566
79768CL-    CL-39205  14.142  32.006  14.024
79769CL-    CL-39206  44.272  29.609   0.905
79770CL-    CL-39207  39.054   1.926   1.749
79771CL-    CL-39208   2.792  21.102   2.283
79772CL-    CL-39209  31.547  35.366   2.313
79773CL-    CL-39210  41.426   9.392   1.451
79774CL-    CL-39211  34.523  36.354  14.445
79775CL-    CL-39212  25.599   9.365  10.431
79776CL-    CL-39213  23.554  31.046  11.532
79777CL-    CL-39214  32.563  34.603  14.959
79778CL-    CL-39215  18.153  17.750   0.385
79779CL-    CL-39216   5.426  19.683  14.374
79780CL-    CL-39217   7.250  22.539  12.371
79781CL-    CL-39218  23.072  32.029  12.049
79782CL-    CL-39219  32.053  17.689   1.327
79783CL-    CL-39220  19.132  40.526  13.460
79784CL-    CL-39221  35.426   8.337   2.372
79785CL-    CL-39222  38.439  36.032   2.374
79786CL-    CL-39223  10.227  38.900  10.528
79787CL-    CL-39224  40.890  38.988   0.455
79788CL-    CL-39225  20.127  21.660   0.735
79789CL-    CL-39226  34.511  32.472   4.745
79790CL-    CL-39227  19.190  34.929  10.410
79791CL-    CL-39228  23.008  17.782   0.872
79792CL-    CL-39229  36.507  32.112  10.412
79793CL-    CL-39230  34.462  18.615   0.755
79794CL-    CL-39231   7.756  17.788   0.746
79795CL-    CL-39232  15.158  27.185   1.829
79796CL-    CL-39233  15.639   1.838  10.577
79797CL-    CL-39234  23.119  41.894  13.864
79798CL-    CL-39235  37.965  34.060   4.813
79799CL-    CL-39236  22.132  22.143  12.574
79800CL-    CL-39237  39.338  31.993  11.441
79801CL-    CL-39238   0.409   2.455  10.962
79802CL-    CL-39239  24.537  41.919  11.863
79803CL-    CL-39240  17.242  35.935  12.455
79804CL-    CL-39241  40.415  14.113   3.334
79805CL-    CL-39242  30.600   1.483   0.770
79806CL-    CL-39243  25.483  23.116  11.980
79807CL-    CL-39244  40.947  20.074  12.507
79808CL-    CL-39245  26.027  26.143   4.215
79809CL-    CL-39246  16.152  15.809   4.813
79810CL-    CL-39247  30.003  28.643   3.171
79811CL-    CL-39248  44.332  16.581   2.847
79812CL-    CL-39249   0.305  39.873   5.222
79813CL-    CL-39250   9.725  30.597   3.636
79814CL-    CL-39251   0.774   3.767   4.128
79815CL-    CL-39252  31.552  27.990   0.365
79816CL-    CL-39253  23.549  15.815   3.804
79817CL-    CL-39254  35.534   0.333  12.845
79818CL-    CL-39255  25.646  33.450  13.062
79819CL-    CL-39256  32.110  38.967   4.353
79820CL-    CL-39257  20.245   7.318   1.439
79821CL-    CL-39258  24.215   7.748  12.443
79822CL-    CL-39259  16.194  36.868   3.722
79823CL-    CL-39260  27.136  34.595  10.926
79824CL-    CL-39261  30.643  42.863  11.072
79825CL-    CL-39262   4.272  31.439   1.265
79826CL-    CL-39263  10.295  21.718   4.302
79827CL-    CL-39264  41.375   5.915   1.908
79828CL-    CL-39265   0.762   8.718   0.341
79829CL-    CL-39266  26.183  13.217  12.400
79830CL-    CL-39267  32.608  13.656   0.332
79831CL-    CL-39268  34.421  19.746  11.397
79832CL-    CL-39269  43.396  31.121  13.532
79833CL-    CL-39270  44.357   8.877  10.104
79834CL-    CL-39271   2.790  32.122  10.416
79835CL-    CL-39272  32.941  16.180   0.331
79836CL-    CL-39273  40.939   0.319  14.022
79837CL-    CL-39274  17.690  18.581  14.797
79838CL-    CL-39275  40.446  33.890  12.930
79839CL-    CL-39276  10.148  15.112  11.447
79840CL-    CL-39277  26.115  38.893   2.257
79841CL-    CL-39278  20.599   8.666   2.836
79842CL-    CL-39279  36.080  25.218   1.884
79843CL-    CL-39280  17.135  21.681   4.620
79844CL-    CL-39281  10.232  40.456  14.855
79845CL-    CL-39282  41.441  16.751  13.931
79846CL-    CL-39283   5.753   2.822  12.976
79847CL-    CL-39284  29.145  20.648   4.620
79848CL-    CL-39285  35.084   0.784  11.931
79849CL-    CL-39286  19.059  23.056   0.877
79850CL-    CL-39287  27.172   9.173  11.469
79851CL-    CL-39288  26.019  33.032   4.648
79852CL-    CL-39289  10.331   5.280  11.939
79853CL-    CL-39290   4.936  39.819  13.365
79854CL-    CL-39291  17.239  31.090  10.452
79855CL-    CL-39292  14.728  28.598   2.202
79856CL-    CL-39293   3.323  29.998  12.075
79857CL-    CL-39294   6.372  30.073   5.611
79858CL-    CL-39295  21.161  12.732   0.429
79859CL-    CL-39296  32.969  16.202  12.339
79860CL-    CL-39297  10.297  31.910  12.462
79861CL-    CL-39298  30.440  36.512   0.247
79862CL-    CL-39299  17.216   8.351  12.391
79863CL-    CL-39300  31.458  39.870   3.841
79864CL-    CL-39301  18.636  37.931   1.442
79865CL-    CL-39302  14.608  12.698   2.358
79866CL-    CL-39303  42.999   6.699  14.949
79867CL-    CL-39304  24.074  33.532  10.917
79868CL-    CL-39305   2.253  25.080  14.930
79869CL-    CL-39306   8.823  19.596  11.563
79870CL-    CL-39307  18.071  11.855   2.206
79871CL-    CL-39308  10.286  39.941   1.899
79872CL-    CL-39309  12.148  18.546  13.923
79873CL-    CL-39310  34.475  24.686  14.325
79874CL-    CL-39311   9.883  18.232   2.253
79875CL-    CL-39312  19.060  29.121   1.935
79876CL-    CL-39313   5.384  36.464  13.833
79877CL-    CL-39314   2.245  30.003   0.765
79878CL-    CL-39315   0.298  40.439  14.474
79879CL-    CL-39316   6.313   8.729   2.358
79880CL-    CL-39317   0.967  25.611   4.621
79881CL-    CL-39318  13.136  24.714  11.517
79882CL-    CL-39319  35.094  37.862   0.788
79883CL-    CL-39320  18.288  10.849   3.745
79884CL-    CL-39321  26.196  12.352  11.461
79885CL-    CL-39322  33.949   4.916  13.475
79886CL-    CL-39323  38.025   8.714  12.477
79887CL-    CL-39324   7.781   5.196   3.266
  45.00000  45.00000  15.00000   0.00000   0.00000   0.00000   0.00000   0.00000   0.00000

